<?xml version="1.0"?>
<VTKFile type="UnstructuredGrid"  version="0.1"  >
<UnstructuredGrid>
<Piece  NumberOfPoints="289" NumberOfCells="512">
<Points>
<DataArray  type="Float64"  NumberOfComponents="3"  format="ascii">0 0 0  0.0625 0 0  0.125 0 0  0.1875 0 0  0.25 0 0  0.3125 0 0  0.375 0 0  0.4375 0 0  0.5 0 0  0.5625 0 0  0.625 0 0  0.6875 0 0  0.75 0 0  0.8125 0 0  0.875 0 0  0.9375 0 0  1 0 0  0 0.0625 0  0.06251357321899211 0.06246164828237052 0  0.1250287188671259 0.06242261751277203 0  0.1875471543131933 0.06238227111177203 0  0.2500710049268455 0.06234011199134062 0  0.312603069396344 0.06229587162636346 0  0.3751471740544982 0.06224962022105605 0  0.437708675990615 0.06220189735051725 0  0.5002952230286537 0.06215385093670583 0  0.5629179906681254 0.06210735035947396 0  0.6255938915083552 0.06206499843247455 0  0.6883499723272729 0.0620298887543929 0  0.7512332133608517 0.06200478981610233 0  0.814334837724432 0.06199001719926565 0  0.8778565778995159 0.06197794832553628 0  0.9423066385525277 0.06193750957113234 0  1.009130065698275 0.06176613810331973 0  0 0.125 0  0.06252556317521654 0.1249239303222042 0  0.1250541006141455 0.1248464295685501 0  0.1875888673728441 0.1247661449166124 0  0.2501339081196957 0.124681986861083 0  0.3126945719878123 0.1245933031767287 0  0.3752781985399421 0.12450010182881 0  0.4378950798630282 0.1244033280535668 0  0.500559872700539 0.124305182536822 0  0.5632937776567983 0.1242094317177006 0  0.6261281073142793 0.1241215966794684 0  0.6891105143984499 0.124048802109607 0  0.7523164714836068 0.1239989263189785 0  0.8158708842368978 0.123978625153038 0  0.879986630439896 0.1239904211665742 0  0.9450166742821918 0.124033284651075 0  1.011434528600485 0.1241313086410412 0  0 0.1875 0  0.06253465125481253 0.1873876225382912 0  0.1250733258800276 0.1872729310100537 0  0.1876204359316989 0.1871537110911815 0  0.2501814886546316 0.1870281009182775 0  0.3127638016051378 0.1868948373899984 0  0.3753774509049027 0.1867535891333366 0  0.4380365775680407 0.1866053980578374 0  0.5007612307920527 0.1864532346005597 0  0.5635800152991518 0.1863026335853696 0  0.6265339448172581 0.186162301445273 0  0.6896820634750739 0.1860444467626659 0  0.7531093756595169 0.185964346567945 0  0.8169365248462563 0.1859382309404257 0  0.8813254968593717 0.1859775688037255 0  0.9464588950123761 0.186074327538022 0  1.012433298982782 0.1861562577528582 0  0 0.25 0  0.06253987522648471 0.2498536292838939 0  0.1250843243005513 0.2497038906264298 0  0.1876383745242359 0.2495475141338142 0  0.2502083372045786 0.2493816136794352 0  0.3128026515245404 0.2492039790944384 0  0.3754330049827385 0.2490135006289053 0  0.4381158615772264 0.2488107766290275 0  0.5008745562907206 0.2485989514534618 0  0.5637421285391746 0.2483848077144294 0  0.6267650215510672 0.2481800731127794 0  0.6900075407655583 0.2480027590825429 0  0.753556210618111 0.2478780609175962 0  0.8175211311899808 0.2478378070376455 0  0.8820267444704998 0.2479164860246792 0  0.9471762269329669 0.2481405601156926 0  1.012968477822578 0.2485088326239165 0  0 0.3125 0  0.06254075285785977 0.3123230194966742 0  0.1250860415219294 0.3121414355746802 0  0.1876408662785512 0.3119507087076733 0  0.2502115532304612 0.3117466311621714 0  0.3128066416969665 0.3115256193315325 0  0.3754380810177482 0.3112851831844179 0  0.4381228800784077 0.311024662075182 0  0.500885370712142 0.3107463382890618 0  0.5637602272535698 0.3104570551184874 0  0.6267962607832224 0.3101704519345674 0  0.6900606377876038 0.3099098343156587 0  0.7536423084353449 0.309711424920662 0  0.8176517398989469 0.3096271290858116 0  0.8822115243269026 0.309724818923123 0  0.9474309578167861 0.3100825760154913 0  1.013364939113085 0.3107723736857413 0  0 0.375 0  0.06253734953955879 0.3747970339090494 0  0.1250785893181096 0.3745880773197192 0  0.1876280247858598 0.3743671295789048 0  0.2501911611625008 0.374128364297743 0  0.3127755372487179 0.3738663545606488 0  0.3753918927538763 0.373576503933487 0  0.4380558422995449 0.3732558110708629 0  0.5007902718051178 0.3729041552542341 0  0.5636286915007261 0.3725263691804624 0  0.6266197120858399 0.3721354503356814 0  0.6898325352238194 0.3717573023294234 0  0.7533626846096327 0.3714372569727753 0  0.8173360249544283 0.3712480246377717 0  0.8819078393172181 0.3712972429841834 0  0.9472545051948756 0.3717302786080769 0  1.013563542154924 0.3727214525240207 0  0 0.4375 0  0.06253028111016405 0.4372770519975123 0  0.1250632607250475 0.4370466548207809 0  0.1876019406469994 0.4368012329269472 0  0.2501502184709745 0.4365331115533624 0  0.3127135570138263 0.4362345903728743 0  0.3752999900615496 0.4358982158093245 0  0.4379216800511329 0.4355174031901156 0  0.5005973469366317 0.4350876600292224 0  0.5633560199905382 0.4346088220945374 0  0.6262426933376852 0.4340889522721755 0  0.6893264960591395 0.4335508554132754 0  0.7527117228027709 0.4330424014137578 0  0.8165512688370108 0.432651597426685 0  0.8810608373207206 0.4325256879889033 0  0.9465327032428097 0.4328894997368177 0  1.013355932612513 0.4340532053894727 0  0 0.5 0  0.06252064783264202 0.4997645103683957 0  0.1250424007452401 0.4995201744414384 0  0.1875664965790347 0.4992578676237466 0  0.2500945949729107 0.4989679881991315 0  0.3126291605364892 0.4986402914939997 0  0.3751741367591256 0.498263861785795 0  0.4377361568203891 0.4978273618869901 0  0.500326723801332 0.4973198272790051 0  0.5629661018758892 0.4967325052145114 0  0.625690131678867 0.4960626566390608 0  0.6885617988067075 0.495320941789873 0  0.751689926629155 0.4945450407233576 0  0.8152571962828649 0.4938231523851714 0  0.8795578953646489 0.4933303021771692 0  0.945043412421454 0.4933741843982533 0  1.012380727700851 0.4944335596193783 0  0 0.5625 0  0.06250990011999151 0.5622607704964733 0  0.1250191305976317 0.562011538162569 0  0.1875269398350461 0.5617418518243863 0  0.2500323920493001 0.561440342199665 0  0.3125343467902858 0.5610942483134815 0  0.3750316035792293 0.56068896006187 0  0.4375234363612011 0.5602076547333266 0  0.500010997039822 0.5596312218577725 0  0.5625005656698504 0.5589389203201707 0  0.6250105494971427 0.558110742989027 0  0.6875857038284707 0.5571335775325995 0  0.7503242913103522 0.5560154774017423 0  0.8134258678765294 0.5548162421654852 0  0.8772657169760973 0.5537067780117706 0  0.9424923619953834 0.553065321542642 0  1.010137016720713 0.5535898287312055 0  0 0.625 0  0.06249964307244633 0.6247669438158793 0  0.1249969351869943 0.6245231731363214 0  0.1874892132139364 0.624257365368353 0  0.2499729712953699 0.6239568477804356 0  0.3124433568292374 0.6236067961039816 0  0.3748936093057803 0.6231892810708197 0  0.4373145514711166 0.6226821267635135 0  0.4996944928456831 0.622057595628092 0  0.5620204961098315 0.6212810686247535 0  0.6242832764587455 0.6203103191676981 0  0.6864907726715747 0.61909715210508 0  0.7487006861150941 0.6175963249037858 0  0.8110903115038072 0.6157947635526781 0  0.8740869088220364 0.6137918692975083 0  0.9385621401883478 0.6119789006081892 0  1.006064233502012 0.6113023025081706 0  0 0.6875 0  0.06249139685685432 0.6872836947386606 0  0.1249791446396494 0.6870566040148203 0  0.1874590793213762 0.6868072196271074 0  0.2499256046789312 0.6865223528322947 0  0.3123707081638384 0.6861860574010503 0  0.3747826237120877 0.6857782251381065 0  0.4371440265851233 0.6852726778675801 0  0.4994297598823143 0.6846345185489801 0  0.5616045183778506 0.683816440752006 0  0.6236221973338084 0.6827537097068845 0  0.6854320943898805 0.6813579568575532 0  0.7470058985033539 0.6795121153803718 0  0.8084192440020594 0.6770780067982795 0  0.8700556391623955 0.6739640943131695 0  0.9329805660281913 0.6704197752092746 0  0.9993476795438951 0.667680237010897 0  0 0.75 0  0.06248634332833174 0.7498110541311974 0  0.1249683723748954 0.7496120381128006 0  0.1874411324945147 0.7493921225369237 0  0.2498978608923449 0.7491386602730601 0  0.3123286495386189 0.7488359654274426 0  0.3747184642989513 0.74846363806084 0  0.4370441180082354 0.7479941443966177 0  0.4992696327806528 0.7473891907352285 0  0.5613393258010873 0.7465941223327649 0  0.6231683244194665 0.7455290172705242 0  0.6846325006993312 0.7440741322388313 0  0.7455686709114093 0.7420458123264572 0  0.8058258253552414 0.7391587635783234 0  0.8655030744897313 0.7349882415992007 0  0.9257689471406656 0.729110429485044 0  0.98934545273416 0.7230685272560728 0  0 0.8125 0  0.06248510295834413 0.8123482827872075 0  0.1249660075800552 0.8121880521069063 0  0.1874378687956835 0.8120100981083727 0  0.2498939954617355 0.8118035118080233 0  0.3123244170724181 0.8115545105215992 0  0.374713642353158 0.8112447806207146 0  0.43703697942403 0.8108490119835597 0  0.4992543122878829 0.8103310871068888 0  0.5612993860883975 0.8096379869097645 0  0.6230612864003927 0.8086896485404489 0  0.6843531320119837 0.8073611043181673 0  0.7448635392985644 0.8054483695598215 0  0.8041020322025038 0.8025966251323002 0  0.8614393940365418 0.798136862286043 0  0.9168305404233337 0.7907151270608236 0  0.9774152642979772 0.7775108342052198 0  0 0.875 0  0.0624875938138987 0.8748938224129524 0  0.124971883581874 0.8747814671502386 0  0.187449045821268 0.8746562241013277 0  0.2499137608331789 0.8745100684112406 0  0.3123580149328509 0.8743327372679272 0  0.3747691626470144 0.8741104104528288 0  0.4371265996877187 0.8738237300829418 0  0.4993957862123433 0.8734447400533065 0  0.5615170644217843 0.8729320713295295 0  0.623383917566624 0.8722232672132869 0  0.6847992625817751 0.8712222414838804 0  0.7453857151076139 0.8697769874627832 0  0.804402407427652 0.8676300765609859 0  0.8603927747101289 0.8642674962839964 0  0.9106180544506608 0.8583651997607772 0  0.9505469466006873 0.8458781188903096 0  0 0.9375 0  0.06249301840865496 0.9374453587748657 0  0.1249842348840271 0.9373874714791098 0  0.1874715640002726 0.9373228043940814 0  0.2499520970843184 0.9372471087495091 0  0.3124214346182279 0.9371549151614853 0  0.3748725891057004 0.9370388084411855 0  0.4372940595364768 0.936888342560222
[...]
<PointData  Vectors="f_95-0"> 
<DataArray  type="Float64"  Name="f_95-0"  NumberOfComponents="3" format="ascii">0.0000000000000000e+00 0.0000000000000000e+00 0.0000000000000000e+00  -6.6199346414111675e-04 1.5688282975461057e-02 0.0000000000000000e+00  -1.8691346894336839e-03 3.5427776093121331e-02 0.0000000000000000e+00  -3.3371387473511483e-03 5.3636186650359824e-02 0.0000000000000000e+00  -5.0679851993051571e-03 6.7762509578168859e-02 0.0000000000000000e+00  -7.0125058838433054e-03 7.6918702141348605e-02 0.0000000000000000e+00  -9.1218341743179669e-03 8.1220848183127622e-02 0.0000000000000000e+00  -1.1341216366318355e-02 8.1305083172848902e-02 0.0000000000000000e+00  -1.3609652451788782e-02 7.8004204296452828e-02 0.0000000000000000e+00  -1.5857798855904659e-02 7.2151736413695947e-02 0.0000000000000000e+00  -1.8005149920790116e-02 6.4482334922661935e-02 0.0000000000000000e+00  -1.9955900709432373e-02 5.5596575377081375e-02 0.0000000000000000e+00  -2.1597753072268855e-02 4.5967604582938894e-02 0.0000000000000000e+00  -2.2772955710425272e-02 3.5945968968930646e-02 0.0000000000000000e+00  -2.3253931747023168e-02 2.5835312414135805e-02 0.0000000000000000e+00  -2.3095445631985276e-02 1.6114015286140745e-02 0.0000000000000000e+00  -1.1128197449494656e-02 1.1430724267842482e-02 0.0000000000000000e+00  0.0000000000000000e+00 0.0000000000000000e+00 0.0000000000000000e+00  -5.5014583973557842e-04 1.6747487672241837e-02 0.0000000000000000e+00  -1.7521184516723946e-03 3.6811715269722364e-02 0.0000000000000000e+00  -3.2921008571149320e-03 5.5299997136902194e-02 0.0000000000000000e+00  -5.1248823701281806e-03 6.9661058358482214e-02 0.0000000000000000e+00  -7.1888267721099547e-03 7.9003132112290000e-02 0.0000000000000000e+00  -9.4314681246775549e-03 8.3435686922222835e-02 0.0000000000000000e+00  -1.1794061762196606e-02 8.3588345808187817e-02 0.0000000000000000e+00  -1.4212831690437307e-02 8.0285377525850993e-02 0.0000000000000000e+00  -1.6615671134095865e-02 7.4348621224607059e-02 0.0000000000000000e+00  -1.8919102182099166e-02 6.6497301597297637e-02 0.0000000000000000e+00  -2.1026116916911908e-02 5.7312265880335847e-02 0.0000000000000000e+00  -2.2823821781979642e-02 4.7234538264347453e-02 0.0000000000000000e+00  -2.4172084820871714e-02 3.6575290016257651e-02 0.0000000000000000e+00  -2.4970495023609426e-02 2.5525351960660140e-02 0.0000000000000000e+00  -2.4724618501201154e-02 1.4026386001414067e-02 0.0000000000000000e+00  -2.4719263608546836e-02 4.1933060430521850e-03 0.0000000000000000e+00  0.0000000000000000e+00 0.0000000000000000e+00 0.0000000000000000e+00  -4.5304164839067492e-04 1.7663573613389254e-02 0.0000000000000000e+00  -1.6568030537100708e-03 3.8253018475727756e-02 0.0000000000000000e+00  -3.3751727175470943e-03 5.7114416381613922e-02 0.0000000000000000e+00  -5.4887539764523190e-03 7.1769567519398350e-02 0.0000000000000000e+00  -7.9022175944114259e-03 8.1337083144123218e-02 0.0000000000000000e+00  -1.0541515761348430e-02 8.5926834544809316e-02 0.0000000000000000e+00  -1.3333690268455167e-02 8.6165862965532997e-02 0.0000000000000000e+00  -1.6204244064748328e-02 8.2871338305358214e-02 0.0000000000000000e+00  -1.9070489198920557e-02 7.6853545727295997e-02 0.0000000000000000e+00  -2.1837964005404865e-02 6.8816940936852727e-02 0.0000000000000000e+00  -2.4399826439590839e-02 5.9326344948802151e-02 0.0000000000000000e+00  -2.6641056752589473e-02 4.8808725077458467e-02 0.0000000000000000e+00  -2.8452844654110538e-02 3.7567452428708799e-02 0.0000000000000000e+00  -2.9740309126778147e-02 2.5794635290501567e-02 0.0000000000000000e+00  -3.0462774778035044e-02 1.3613731576727310e-02 0.0000000000000000e+00  -3.0482480512484991e-02 1.4412042233413395e-03 0.0000000000000000e+00  0.0000000000000000e+00 0.0000000000000000e+00 0.0000000000000000e+00  -4.4958333432063854e-04 1.8538095308459592e-02 0.0000000000000000e+00  -1.7543035770381150e-03 3.9834507338482789e-02 0.0000000000000000e+00  -3.7632816325332513e-03 5.9229263223549405e-02 0.0000000000000000e+00  -6.3189699847414106e-03 7.4289310615186135e-02 0.0000000000000000e+00  -9.2895922411623394e-03 8.4158962770824325e-02 0.0000000000000000e+00  -1.2568783129685410e-02 8.8961413371329623e-02 0.0000000000000000e+00  -1.6061277377602733e-02 8.9326788907195850e-02 0.0000000000000000e+00  -1.9673386253368300e-02 8.6066479678089794e-02 0.0000000000000000e+00  -2.3302452012492692e-02 7.9978117256677431e-02 0.0000000000000000e+00  -2.6831136753180690e-02 7.1750347184705313e-02 0.0000000000000000e+00  -3.0127236319170376e-02 6.1934995489348117e-02 0.0000000000000000e+00  -3.3052273393680068e-02 5.0957269726817037e-02 0.0000000000000000e+00  -3.5475908208369301e-02 3.9140309666232082e-02 0.0000000000000000e+00  -3.7300356210327353e-02 2.6729672697260072e-02 0.0000000000000000e+00  -3.8431214386565646e-02 1.3865344265254816e-02 0.0000000000000000e+00  -3.8833712865591195e-02 7.1157414659218704e-04 0.0000000000000000e+00  0.0000000000000000e+00 0.0000000000000000e+00 0.0000000000000000e+00  -5.1052247565099007e-04 1.9494938634779139e-02 0.0000000000000000e+00  -2.0375457293145649e-03 4.1672087677124117e-02 0.0000000000000000e+00  -4.4601705338412657e-03 6.1780548886735905e-02 0.0000000000000000e+00  -7.6033232043337768e-03 7.7392078663514344e-02 0.0000000000000000e+00  -1.1305320100363342e-02 8.7677075022642256e-02 0.0000000000000000e+00  -1.5429441889023926e-02 9.2779264685674712e-02 0.0000000000000000e+00  -1.9855352100254291e-02 9.3336343623578510e-02 0.0000000000000000e+00  -2.4464539224329406e-02 9.0153956708437927e-02 0.0000000000000000e+00  -2.9125909132555881e-02 8.4013371537052906e-02 0.0000000000000000e+00  -3.3686409185895196e-02 7.5582060468183804e-02 0.0000000000000000e+00  -3.7969159892581011e-02 6.5394840417505859e-02 0.0000000000000000e+00  -4.1782731463738516e-02 5.3875680107032420e-02 0.0000000000000000e+00  -4.4941169188067051e-02 4.1373454768291545e-02 0.0000000000000000e+00  -4.7294968092504330e-02 2.8183007918961417e-02 0.0000000000000000e+00  -4.8750184859615214e-02 1.4526413623449889e-02 0.0000000000000000e+00  -4.9360732614663533e-02 5.0559623691243745e-04 0.0000000000000000e+00  0.0000000000000000e+00 0.0000000000000000e+00 0.0000000000000000e+00  -6.1418543915115777e-04 2.0622629635808732e-02 0.0000000000000000e+00  -2.4520623459065747e-03 4.3874843783838643e-02 0.0000000000000000e+00  -5.3869088517268663e-03 6.4886909914077653e-02 0.0000000000000000e+00  -9.2268669612933316e-03 8.1216518546823935e-02 0.0000000000000000e+00  -1.3787538687445085e-02 9.2056777822258670e-02 0.0000000000000000e+00  -1.8908927501394439e-02 9.7574339271618835e-02 0.0000000000000000e+00  -2.4447674758196564e-02 9.8415561919436706e-02 0.0000000000000000e+00  -3.0258941328087516e-02 9.5377072064739776e-02 0.0000000000000000e+00  -3.6177700770553572e-02 8.9215986238558420e-02 0.0000000000000000e+00  -4.2004447434926331e-02 8.0567424942687954e-02 0.0000000000000000e+00  -4.7499597659279094e-02 6.9936740487388821e-02 0.0000000000000000e+00  -5.2392662680086563e-02 5.7736243007289467e-02 0.0000000000000000e+00  -5.6409127571694466e-02 4.4337655353537508e-02 0.0000000000000000e+00  -5.9326881250370035e-02 3.0108806223862444e-02 0.0000000000000000e+00  -6.1039156840269650e-02 1.5396580527897845e-02 0.0000000000000000e+00  -6.1685959316188622e-02 4.0064962168886076e-04 0.0000000000000000e+00  0.0000000000000000e+00 0.0000000000000000e+00 0.0000000000000000e+00  -7.3947881695855399e-04 2.1978247802653672e-02 0.0000000000000000e+00  -2.9329772324779226e-03 4.6516140503833292e-02 0.0000000000000000e+00  -6.4290868549977224e-03 6.8626287398640504e-02 0.0000000000000000e+00  -1.1018099717760878e-02 8.5850827535858223e-02 0.0000000000000000e+00  -1.6500557973254990e-02 9.7405274244432502e-02 0.0000000000000000e+00  -2.2701766690981982e-02 1.0347912492222265e-01 0.0000000000000000e+00  -2.9460946739956039e-02 1.0472474707363780e-01 0.0000000000000000e+00  -3.6609345547638276e-02 1.0192291525312874e-01 0.0000000000000000e+00  -4.3946767542327153e-02 9.5794971864651496e-02 0.0000000000000000e+00  -5.1221504604793015e-02 8.6926808876772219e-02 0.0000000000000000e+00  -5.8118844929008151e-02 7.5772553008642288e-02 0.0000000000000000e+00  -6.4265932935298545e-02 6.2711284456591479e-02 0.0000000000000000e+00  -6.9263820929898967e-02 4.8129708210648589e-02 0.0000000000000000e+00  -7.2771843449021170e-02 3.2490722805373969e-02 0.0000000000000000e+00  -7.4620566281243222e-02 1.6338546771053380e-02 0.0000000000000000e+00  -7.5035039342640358e-02 7.7849112107417268e-05 0.0000000000000000e+00  0.0000000000000000e+00 0.0000000000000000e+00 0.0000000000000000e+00  -8.6711730834947609e-04 2.3581578316123942e-02 0.0000000000000000e+00  -3.4139030178170250e-03 4.9616670858705851e-02 0.0000000000000000e+00  -7.4576398994474517e-03 7.3015716742303477e-02 0.0000000000000000e+00  -1.2774446653539268e-02 9.1314330688252440e-02 0.0000000000000000e+00  -1.9159071590770922e-02 1.0375376130134638e-01 0.0000000000000000e+00  -2.6431996505549667e-02 1.1054505943834875e-01 0.0000000000000000e+00  -3.4423026819533929e-02 1.1234128378659590e-01 0.0000000000000000e+00  -4.2945201908722981e-02 1.0989823072331417e-01 0.0000000000000000e+00  -5.1767209030936318e-02 1.0388740815197912e-01 0.0000000000000000e+00  -6.0587514498047841e-02 9.4824066460447790e-02 0.0000000000000000e+00  -6.9012890051168299e-02 8.3081929333773577e-02 0.0000000000000000e+00  -7.6550844374046453e-02 6.8973760806216575e-02 0.0000000000000000e+00  -8.2639674639029145e-02 5.2871940241359029e-02 0.0000000000000000e+00  -8.6749432020435613e-02 3.5333754782835951e-02 0.0000000000000000e+00  -8.8550354365536252e-02 1.7174534862485536e-02 0.0000000000000000e+00  -8.8261732723282832e-02 -8.1914585549646942e-04 0.0000000000000000e+00  0.0000000000000000e+00 0.0000000000000000e+00 0.0000000000000000e+00  -9.7966154314208572e-04 2.5417897453187666e-02 0.0000000000000000e+00  -3.8306696764450333e-03 5.3140254284175903e-02 0.0000000000000000e+00  -8.3401371993653290e-03 7.7999815510396184e-02 0.0000000000000000e+00  -1.4277909057584248e-02 9.7541235500139031e-02 0.0000000000000000e+00  -2.1444135482899293e-02 1.1103695441779556e-01 0.0000000000000000e+00  -2.9665666907683682e-02 1.1871717988948496e-01 0.0000000000000000e+00  -3.8772366977765649e-02 1.2122859026702078e-01 0.0000000000000000e+00  -4.8567527319935036e-02 1.1929210271214588e-01 0.0000000000000000e+00  -5.8798628695948339e-02 1.1351592652415998e-01 0.0000000000000000e+00  -6.9126128128957021e-02 1.0432504404342638e-01 0.0000000000000000e+00  -7.9089589243388936e-02 9.1980568814103575e-02 0.0000000000000000e+00  -8.8080741626080025e-02 7.6673525333703946e-02 0.0000000000000000e+00  -9.5347084160471440e-02 5.8694575835552598e-02 0.0000000000000000e+00  -1.0007145998704840e-01 3.8670128930777398e-02 0.0000000000000000e+00  -1.0161688695751223e-01 1.7750236883258410e-02 0.0000000000000000e+00  -1.0000077953564432e-01 -2.7267538954269658e-03 0.0000000000000000e+00  0.0000000000000000e+00 0.0000000000000000e+00 0.0000000000000000e+00  -1.0631850473429134e-03 2.7441543611799887e-02 0.0000000000000000e+00  -4.1281151821449535e-03 5.6994142767763697e-02 0.0000000000000000e+00  -8.9541095200780813e-03 8.3444498013689264e-02 0.0000000000000000e+00  -1.5313252945343060e-02 1.0436678375609279e-01 0.0000000000000000e+00  -2.3023299193283130e-02 1.1907145141872434e-01 0.0000000000000000e+00  -3.1929730450412426e-02 1.2780419567124521e-01 0.0000000000000000e+00  -4.1872991437681369e-02 1.3119669618434557e-01 0.0000000000000000e+00  -5.2657012491302523e-02 1.2992597992343696e-01 0.0000000000000000e+00  -6.4021590457541591e-02 1.2452922950626234e-01 0.0000000000000000e+00  -7.5611058772857939e-02 1.1532898364428212e-01 0.0000000000000000e+00  -8.6934983192124740e-02 1.0244071777672398e-01 0.0000000000000000e+00  -9.7306043444531420e-02 8.5873398983663474e-02 0.0000000000000000e+00  -1.0577717461809677e-01 6.5758454911179043e-02 0.0000000000000000e+00  -1.1117232500525315e-01 4.2680472189140374e-02 0.0000000000000000e+00  -1.1237260227127149e-01 1.8036978549761589e-02 0.0000000000000000e+00  -1.0886065248239597e-01 -6.0327616322720856e-03 0.0000000000000000e+00  0.0000000000000000e+00 0.0000000000000000e+00 0.0000000000000000e+00  -1.1117774899792310e-03 2.9584996915657028e-02 0.0000000000000000e+00  -4.2735704065681411e-03 6.1037553759974217e-02 0.0000000000000000e+00  -9.2096281059747629e-03 8.9137901200118802e-02 0.0000000000000000e+00  -1.5697779736527490e-02 1.1151793173459185e-01 0.0000000000000000e+00  -2.3585565684894203e-02 1.2753600659425535e-01 0.0000000000000000e+00  -3.2751134596810436e-02 1.3744837836315624e-01 0.0000000000000000e+00  -4.3057516713085574e-02 1.4186093360422947e-01 0.0000000000000000e+00  -5.4319690487051375e-02 1.4139911464399016e-01 0.0000000000000000e+00  -6.6283916106808768e-02 1.3652848152018210e-01 0.0000000000000000e+00  -7.8610218974448087e-02 1.2747117513388584e-01 0.0000000000000000e+00  -9.0832411316381229e-02 1.1419696122533872e-01 0.0000000000000000e+00  -1.0225713935109244e-01 9.6503735752458186e-02 0.0000000000000000e+00  -1.1185389406705233e-01 7.4199520540209035e-02 0.0000000000000000e+00  -1.1811989497265431e-01 4.7531155151597525e-02 0.0000000000000000e+00  -1.1915418318548879e-01 1.8052081661837839e-02 0.0000000000000000e+00  -1.1326453594856938e-01 -1.0916491759967076e-02 0.0000000000000000e+00  0.0000000000000000e+00 0.0000000000000000e+00 0.0000000000000000e+00  -1.1354114692933728e-03 3.1778214019243682e-02 0.0000000000000000e+00  -4.2781084347855956e-03 6.5101533799603775e-02 0.0000000000000000e+00  -9.0823771631375495e-03 9.4800549219985888e-02 0.0000000000000000e+00  -1.5324521303113299e-02 1.1861171748677871e-01 0.0000000000000000e+00  -2.2895480929349173e-02 1.3595944342582797e-01 0.0000000000000000e+00  -3.1724707263765431e-02 1.4710453440307122e-01 0.0000000000000000e+00  -4.1712733763589908e-02 1.5261194806143705e-01 0.0000000000000000e+00  -5.2695527878742911e-02 1.5304577999083036e-01 0.0000000000000000e+00  -6.4438462512238212e-02 1.4880518378865445e-01 0.0000000000000000e+00  -7.6641757329472621e-02 1.4003974315352466e-01 0.0000000000000000e+00  -8.8912601898465379e-02 1.2661156060835332e-01 0.0000000000000000e+00  -1.0070348712316445e-01 1.0808008304435901e-01 0.0000000000000000e+00  -1.1113415740774535e-01 8.3828679067398687e-02 0.0000000000000000e+00  -1.1844050601848993e-01 5.3699115726143817e-02 0.0000000000000000e+00  -1.1988325519365217e-01 1.9018039857183838e-02 0.0000000000000000e+00  -1.1235036293728028e-01 -1.6790841297533013e-02 0.0000000000000000e+00  0.0000000000000000e+00 0.0000000000000000e+00 0.0000000000000000e+00  -1.1694451348122025e-03 3.3982633011943347e-02 0.0000000000000000e+00  -4.2182843532034865e-03 6.9021432260366847e-02 0.0000000000000000e+00  -8.6440879065386531e-03 1.0010596255436197e-01 0.0000000000000000e+00  -1.4204769428265372e-02 1.2516640700643483e-01 0.0000000000000000e+00  -2.0856529166410533e-02 1.4372689556043450e-01 0.0000000000000000e+00  -2.8607585376578482e-02 1.5604447869988661e-01 0.0000000000000000e+00  -3.7415865429014372e-02 1.6261959534898474e-01 0.0000000000000000e+00  -4.7149529105600746e-02 1.6393763024763242e-01 0.0000000000000000e+00  -5.7598352057259321e-02 1.6033639824688645e-01 0.0000000000000000e+00  -6.8505001588004197e-02 1.5192983924457798e-01 0.0000000000000000e+00  -7.9597992621109767e-02 1.3853588853947460e-01 0.0000000000000000e+00  -9.0597429207634514e-02 1.1962365065056248e-01 0.0000000000000000e+00  -1.0090647103965189e-01 9.4392863482776937e-02 0.0000000000000000e+00  -1.0924409954767111e-01 6.1686779934424403e-02 0.0000000000000000e+00  -1.1287970473202208e-01 2.0758365180486751e-02 0.0000000000000000e+00  -1.0720013316691523e-01 -2.1684427914837441e-02 0.0000000000000000e+00  0.0000000000000000e+00 0.0000000000000000e+00 0.0000000000000000e+00  -1.2760591182285406e-03 3.6230036685785269e-02 0.0000000000000000e+00  -4.2250559935145251e-03 7.2667285214591648e-02 0.0000000000000000e+00  -8.0419472691079883e-03 1.0470490090626323e-01 0.0000000000000000e+00  -1.2461793803416719e-02 1.3063288157106717e-01 0.0000000000000000e+00  -1.7547366525540987e-02 1.5012410314790936e-01 0.0000000000000000e+00  -2.3420582062203328e-02 1.6341508932965851e-01 0.0000000000000000e+00  -3.0118868290316889e-02 1.7090609905944459e-01 0.0000000000000000e+00  -3.7554790806438608e-02 1.7297496890461769e-01 0.0000000000000000e+00  -4.5542225553914351e-02 1.6989066451610640e-01 0.0000000000000000e+00  -5.3860797560876930e-02 1.6175744874951678e-01 0.0000000000000000e+00  -6.2358325267177973e-02 1.4844685730026322e-01 0.0000000000000000e+00  -7.0960976550970542e-02 1.2950300738297085e-01 0.0000000000000000e+00  -7.9599073150394370e-02 1.0387419769781915e-01 0.0000000000000000e+00  -8.8315198389718685e-02 6.9858845634989702e-02 0.0000000000000000e+00  -9.4329268261647337e-02 2.5429467351877216e-02 0.0000000000000000e+00  -8.5631958701195901e-02 -2.2493911375941207e-02 0.0000000000000000e+00  0.0000000000000000e+00 0.0000000000000000e+00 0.0000000000000000e+00  -1.4907526727955069e-03 3.8638511327465173e-02 0.0000000000000000e+00  -4.3366314284828400e-03 7.5933903124599703e-02 0.0000000000000000e+00  -7.2999569041071449e-03 1.0824814700967690e-01 0.0000000000000000e+00  -1.0163612222590915e-02 1.3447540111107750e-01 0.0000000000000000e+00  -1.3150853019534474e-02 1.5446835104688192e-01 0.0000000000000000e+00  -1.6511422274332770e-02 1.6840714382897029e-01 0.0000000000000000e+00  -2.0367167178315736e-02 1.7654880999285230e-01 0.0000000000000000e+00  -2.4683562081854231e-02 1.7912944958422286e-01 0.0000000000000000e+00  -2.9306399137025811e-02 1.7632666436095976e-01 0.0000000000000000e+00  -3.4042899435293428e-02 1.6823692854657016e-01 0.0000000000000000e+00  -3.8772605167533968e-02 1.5484027171694240e-01 0.0000000000000000e+00  -4.3582676265078064e-02 1.3588856888082468e-01 0.0000000000000000e+00  -4.9256160896329629e-02 1.1076014250363592e-01 0.0000000000000000e+00  -5.6728218607331064e-02 7.8720245952063325e-02 0.0000000000000000e+00  -6.5719153793685356e-02 3.8981082693234706e-02 0.0000000000000000e+00  -7.8845470672531490e-02 -7.1777003412092869e-03 0.0000000000000000e+00  0.0000000000000000e+00 0.0000000000000000e+00 0.0000000000000000e+00  -1.5721359042862937e-03 4.1180629524891682e-02 0.0000000000000000e+00  -3.9290143017176532e-03 7.8536771857021404e-02 0.0000000000000000e+00  -5.6610805813837569e-03 1.1039059955225845e-01 0.0000000000000000e+00  -6.7845797913010999e-03 1.3635414247773731e-01 0.0000000000000000e+00  -7.6362954346798429e-03 1.5640521800879043e-01 0.0000000000000000e+00  -8.5019322006727772e-03 1.7062153440985156e-01 0.0000000000000000e+00  -9.5310570718985538e-03 1.7909608332167337e-01 0.0000000000000000e+00  -1.0733359239489319e-02 1.8191276439728174e-01 0.0000000000000000e+00  -1.2012606121535596e-02 1.7914073334272179e-01 0.0000000000000000e+00  -1.3219853429092611e-02 1.7083612044146088e-01 0.0000000000000000e+00  -1.4225545871059692e-02 1.5703848008843121e-01 0.0000000000000000e+00  -1.5124690318186357e-02 1.3774884890174935e-01 0.0000000000000000e+00  -1.6403867576101894e-02 1.1304045314338301e-01 0.0000000000000000e+00  -1.8778843191228741e-02 8.2712311064396263e-02 0.0000000000000000e+00  -2.5601166957530848e-02 4.6310050876138847e-02 0.0000000000000000e+00  -2.4977894795041082e-02 5.8492433172745934e-03 0.0000000000000000e+00  0.0000000000000000e+00 3.4187767761019579e-18 0.0000000000000000e+00  0.0000000000000000e+00 4.2713005512986943e-02 0.0000000000000000e+00  0.0000000000000000e+00 7.9730943624242295e-02 0.0000000000000000e+00  0.0000000000000000e+00 1.1105381433376604e-01 0.0000000000000000e+00  0.0000000000000000e+00 1.3668161764155823e-01 0.0000000000000000e+00  0.0000000000000000e+00 1.5661435354761880e-01 0.0000000000000000e+00  0.0000000000000000e+00 1.7085202205194777e-01 0.0000000000000000e+00  0.0000000000000000e+00 1.7939462315454516e-01 0.0000000000000000e+00  0.0000000000000000e+00 1