<?xml version="1.0"?>
<VTKFile type="UnstructuredGrid"  version="0.1"  >
<UnstructuredGrid>
<Piece  NumberOfPoints="289" NumberOfCells="512">
<Points>
<DataArray  type="Float64"  NumberOfComponents="3"  format="ascii">0 0 0  0.0625 0 0  0.125 0 0  0.1875 0 0  0.25 0 0  0.3125 0 0  0.375 0 0  0.4375 0 0  0.5 0 0  0.5625 0 0  0.625 0 0  0.6875 0 0  0.75 0 0  0.8125 0 0  0.875 0 0  0.9375 0 0  1 0 0  0 0.0625 0  0.06254220018577536 0.0624639732693443 0  0.1250860277115517 0.06242728009761205 0  0.1876331664078183 0.06238929232245174 0  0.2501854508367479 0.06234950731121348 0  0.3127449635402213 0.06230762990214091 0  0.3753141685876565 0.06226367609272964 0  0.4378961140989248 0.0622181000126364 0  0.5004947682216359 0.06217193677522741 0  0.563115623145041 0.06212693674511793 0  0.6257668647620863 0.0620856365303341 0  0.6884618089238991 0.06205126170229781 0  0.7512243641047099 0.06202727673190903 0  0.8141021853349621 0.06201627660343004 0  0.8772002598868789 0.06201774972743273 0  0.9407690749945602 0.0620243819145624 0  1.005424452998374 0.06202420298763252 0  0 0.125 0  0.06258275053372768 0.12492856557145 0  0.1251687085859743 0.1248557322476185 0  0.187761199636717 0.1247801710543523 0  0.2503638559056204 0.1247007884960282 0  0.3129808140529862 0.1246168854539138 0  0.3756169839084766 0.1245283649540014 0  0.4382784467904697 0.1244359971631325 0  0.5009730916171142 0.1243417356772278 0  0.5637116963729232 0.1242490500647677 0  0.6265098632051538 0.1241631861749748 0  0.6893916171297094 0.1240911779667027 0  0.7523962352107942 0.1240413160103214 0  0.8155910309930261 0.1240217032385042 0  0.8790933009991887 0.1240378651313398 0  0.9430983290777607 0.1240914898171079 0  1.00788032655079 0.1241887714795011 0  0 0.1875 0  0.06262012103755776 0.1873945310176521 0  0.1252449060722726 0.1872868133979569 0  0.187879197162109 0.1871746861617517 0  0.2505282843715577 0.1870562999812157 0  0.3131981904256443 0.1869303395596922 0  0.3758960483319863 0.1867963296262517 0  0.4386306391753348 0.1866550488481723 0  0.5014132014919703 0.1865090635822535 0  0.5642586975079382 0.1863633624525891 0  0.6271878347166608 0.1862260065391367 0  0.6902302772106483 0.1861085799216455 0  0.7534295006486031 0.1860259769353358 0  0.8168490917325669 0.1859945542702948 0  0.8805773421927509 0.1860263932785275 0  0.9447187023206043 0.1861132197240785 0  1.009348604312241 0.1861779936324184 0  0 0.25 0  0.06265291147413503 0.2498627382177571 0  0.1253117498312487 0.249722226880367 0  0.1879826734609795 0.2495752997918232 0  0.2506724004646702 0.249419123628324 0  0.3133885575842413 0.2492514573673172 0  0.3761401303498903 0.249071035516618 0  0.4389380772918524 0.2488781257300615 0  0.5017961981141202 0.2486753115753658 0  0.5647323746417978 0.2484685361319441 0  0.6277703088242124 0.2482683911972042 0  0.6909417849341009 0.2480915105344839 0  0.7542890755271299 0.247961648422458 0  0.8178659433495448 0.2479094557988478 0  0.8817331100832343 0.2479688798928636 0  0.9459402776786937 0.2481665015599991 0  1.010486813352249 0.248500801033282 0  0 0.3125 0  0.06267990197781903 0.3123342011451682 0  0.1253667438567199 0.3121639942671608 0  0.1880677401661392 0.3119850202786327 0  0.250790739236595 0.3117931969720411 0  0.3135446117521328 0.3115849719120882 0  0.3763397412613714 0.3113577366422801 0  0.4391886739897353 0.3111104861348878 0  0.5021070007163807 0.310844831797119 0  0.5651145456198049 0.3105664989342332 0  0.6282368889583315 0.3102874424292272 0  0.6915070695048735 0.3100286548367648 0  0.7549668472545351 0.3098235289641215 0  0.8186659773279835 0.3097211101571718 0  0.8826566775731857 0.3097875277561144 0  0.9469804504496525 0.3101023662461601 0  1.011651023163976 0.3107457861363215 0  0 0.375 0  0.0627000912836921 0.3748100823281687 0  0.1254078468654467 0.3746144717850718 0  0.1881312358157518 0.3744074538636544 0  0.2508788944535 0.3741834393855894 0  0.3136605306847723 0.3739371489957136 0  0.3764874294235854 0.3736639800147001 0  0.4393731194058608 0.3733606711303811 0  0.5023342826852913 0.3730264375030653 0  0.5653920021438129 0.3726648292790528 0  0.6285734203788416 0.372286665533852 0  0.6919137633367806 0.3719144813471623 0  0.7554583661130562 0.3715888973509875 0  0.8192637611765732 0.371376943851485 0  0.883396313116003 0.3713812544532799 0  0.9479276386659367 0.3717469180022372 0  1.012931438420526 0.3726603971765722 0  0 0.4375 0  0.06271272416604198 0.4372916589981924 0  0.1254335282634593 0.4370762901638245 0  0.1881708119181046 0.4368467362219942 0  0.2509336346516838 0.4365957113149742 0  0.3137321116197546 0.4363158418864905 0  0.376577907634502 0.435999877819312 0  0.4394849021802558 0.4356412051958309 0  0.5024701443501338 0.4352348816286177 0  0.5655552862757024 0.4347795626586089 0  0.6287687731405749 0.4342809184198512 0  0.6921491487628245 0.4337574654410757 0  0.7557498309954848 0.4332500955032436 0  0.8196454962522856 0.4328366789318059 0  0.8839397640839833 0.4326522078249306 0  0.9487738783153985 0.4329120230533487 0  1.014339449454558 0.4339316210200539 0  0 0.5 0  0.06271731111943567 0.4997802455398313 0  0.1254428064304756 0.4995522012146069 0  0.1881849880211113 0.4993073094600028 0  0.2509529722737503 0.4990365409686405 0  0.3137568501212976 0.4987302163279284 0  0.3766081329968807 0.4983779387697675 0  0.4395203691433082 0.497968753873854 0  0.5025100979952448 0.4974917591532027 0  0.5655984698400943 0.4969375857703825 0  0.628814142870582 0.4963015389187856 0  0.6921985256333598 0.495589823294609 0  0.7558150325996973 0.4948313025731936 0  0.8197645066671337 0.4940985097092286 0  0.884208694112247 0.493542000567514 0  0.9494021814575206 0.4934383664510031 0  1.015733972880875 0.4942408809853851 0  0 0.5625 0  0.06271364291979982 0.5622770714803045 0  0.125435274912723 0.5620448261216923 0  0.1881731850271674 0.5617935271057354 0  0.2509362001940459 0.5615125723830141 0  0.3137339825443142 0.5611900414029602 0  0.3765773788807117 0.5608122434006204 0  0.4394789001322591 0.5603633250492422 0  0.502453519494361 0.5598250876069313 0  0.5655202289143543 0.5591773616979832 0  0.6287053250538244 0.5583997122779231 0  0.69204942765618 0.5574761513594932 0  0.7556219827517685 0.5564064128169177 0  0.8195492849134715 0.5552308833494281 0  0.8840633186600889 0.5540811802081012 0  0.9495756743065981 0.5532683117734828 0  1.016773586957537 0.5534001671716841 0  0 0.625 0  0.06270180103387689 0.6247831232844614 0  0.1254111183919012 0.6245563198143717 0  0.1881357383415935 0.6243091019192268 0  0.2508838924689271 0.6240297372351755 0  0.3136644722021978 0.6237045084083773 0  0.3764872359204019 0.6233168285303754 0  0.4393630426978629 0.6228461721119433 0  0.5023042453519005 0.6222668166843014 0  0.5653256531172739 0.6215464998943052 0  0.6284471872510692 0.6206454074203672 0  0.69170103696865 0.6195167615691173 0  0.7551497082607238 0.6181126212846689 0  0.8189277501547442 0.6164047796822433 0  0.8833272090597807 0.6144455983150028 0  0.9489445526839509 0.6125132705393211 0  1.016890417307844 0.611347001083791 0  0 0.6875 0  0.06268216303915654 0.6872989690138267 0  0.1253711169852773 0.6870879902460736 0  0.188073887581791 0.6868564557269085 0  0.250797857704236 0.6865922276913324 0  0.3135508987015578 0.6862806612651932 0  0.376341420261877 0.6859033340881948 0  0.4391782900606402 0.6854363273622657 0  0.5020705945428887 0.6848478496514787 0  0.565027366449712 0.6840949356958828 0  0.6280580042441872 0.6831189364436691 0  0.6911760211885486 0.6818397546528514 0  0.7544141885385293 0.6801501446622635 0  0.8178727778755247 0.6779174808873288 0  0.8818494237165024 0.6750258987086455 0  0.9471071219134777 0.6715865218544109 0  1.015305462624589 0.6684880363075372 0  0 0.75 0  0.06265540120662144 0.749824594737616 0  0.1253166367107649 0.749639934932155 0  0.1879897422830681 0.749436076584756 0  0.2506810453955531 0.7492014331780066 0  0.3133972391939442 0.7489216774525339 0  0.3761453175394437 0.7485782428293408 0  0.4389322302248332 0.748146175296531 0  0.5017640044299876 0.7475909497622274 0  0.5646439307461799 0.7468636308564512 0  0.6275693837706044 0.745893347481242 0  0.6905276833082257 0.7445753144154503 0  0.7534959926060415 0.7427513991278688 0  0.8164687085133675 0.7401791608950595 0  0.8796008179802096 0.736492985054003 0  0.9437434345979598 0.7312518446487825 0  1.010922552375296 0.7251244672305061 0  0 0.8125 0  0.06262247236965356 0.8123592869459562 0  0.1252496056164485 0.8122107713728742 0  0.1878862318877104 0.8120460203054546 0  0.2505374354667186 0.8118550710076716 0  0.3132086116146066 0.8116253772519785 0  0.3759053811247817 0.8113403283062056 0  0.4386331747885619 0.8109770569900001 0  0.5013960764985543 0.8105030794805508 0  0.5641940296892252 0.8098710004764589 0  0.6270165225949607 0.8090099362564821 0  0.6898290947647203 0.8078110933744548 0  0.7525470616273554 0.8061020139063487 0  0.8149955361806648 0.8035961261225559 0  0.8769062548797483 0.7997833635620094 0  0.9383389053896684 0.7936893967542957 0  1.00400692876426 0.7835190579588559 0  0 0.875 0  0.06258459744032163 0.8749015930191637 0  0.1251724761038762 0.8747975351574171 0  0.1877670538767243 0.8746816940022949 0  0.250371965293992 0.8745467547746002 0  0.3129911343894573 0.8743833904050221 0  0.3756287575181417 0.8741790741368228 0  0.438289052126035 0.8739162908336732 0  0.5009754068283598 0.8735697526129395 0  0.5636880024259088 0.8731019715481665 0  0.6264174990702535 0.872456122748661 0  0.6891285209949589 0.8715443940809321 0  0.7517167279447144 0.8702282673314337 0  0.8138993600983455 0.8682802450524764 0  0.8749512853753203 0.8652815314456711 0  0.9331471097006832 0.8602451568605732 0  0.9849012183348066 0.8501382094569508 0  0 0.9375 0  0.06254322846545621 0.9374493807966782 0  0.1250881706006147 0.9373957959105204 0  0.1876366235357551 0.9373360195565058 0  0.2501905287452699 0.9372661828801665 0  0.3127520421835113 0.9371813177859039 0  0.3753235852974607 0.93707469766354 0  0.4379078266632743 0.936936834065576
[...]
<PointData  Vectors="f_95-0"> 
<DataArray  type="Float64"  Name="f_95-0"  NumberOfComponents="3" format="ascii">0.0000000000000000e+00 0.0000000000000000e+00 0.0000000000000000e+00  3.4511121461586766e-04 -3.8956163950852385e-02 0.0000000000000000e+00  9.7970022868819405e-04 -6.6969412883929547e-02 0.0000000000000000e+00  1.7664173441923766e-03 -8.4362780112428315e-02 0.0000000000000000e+00  2.6774046268187093e-03 -9.2919490508948502e-02 0.0000000000000000e+00  3.6656322598258668e-03 -9.4772565789699170e-02 0.0000000000000000e+00  4.6940904462362855e-03 -9.1917624560423863e-02 0.0000000000000000e+00  5.7339970418108102e-03 -8.5985197174947195e-02 0.0000000000000000e+00  6.7629780557257142e-03 -7.8181173454396000e-02 0.0000000000000000e+00  7.7618735246639241e-03 -6.9322500860888148e-02 0.0000000000000000e+00  8.7113719018045207e-03 -5.9918088723256248e-02 0.0000000000000000e+00  9.5883596225561328e-03 -5.0261539518207443e-02 0.0000000000000000e+00  1.0363327843217982e-02 -4.0517644094566929e-02 0.0000000000000000e+00  1.0982538524956294e-02 -3.0781599286714749e-02 0.0000000000000000e+00  1.1370491767766649e-02 -2.1161222697077178e-02 0.0000000000000000e+00  1.1685847301643473e-02 -1.1764745115193856e-02 0.0000000000000000e+00  5.8776952285795551e-03 -5.7564556876160428e-03 0.0000000000000000e+00  0.0000000000000000e+00 0.0000000000000000e+00 0.0000000000000000e+00  3.3086500519297968e-04 -3.9531569375466813e-02 0.0000000000000000e+00  1.0756957797611916e-03 -6.7755273594787974e-02 0.0000000000000000e+00  2.0455630826665913e-03 -8.5299445994475212e-02 0.0000000000000000e+00  3.1723727454635521e-03 -9.3949370227799089e-02 0.0000000000000000e+00  4.3940780890057776e-03 -9.5848523172790190e-02 0.0000000000000000e+00  5.6665613279671522e-03 -9.3003215713856752e-02 0.0000000000000000e+00  6.9553266744034102e-03 -8.7052570367073576e-02 0.0000000000000000e+00  8.2327717649304157e-03 -7.9207078935734865e-02 0.0000000000000000e+00  9.4738650248145893e-03 -7.0284103670564563e-02 0.0000000000000000e+00  1.0652685454289726e-02 -6.0789101595949947e-02 0.0000000000000000e+00  1.1739855378085459e-02 -5.1008250562275807e-02 0.0000000000000000e+00  1.2699270006107228e-02 -4.1091057288872954e-02 0.0000000000000000e+00  1.3481986373850993e-02 -3.1112507737833202e-02 0.0000000000000000e+00  1.4049345258790783e-02 -2.1110386337323466e-02 0.0000000000000000e+00  1.4077298381130740e-02 -1.1016438933567798e-02 0.0000000000000000e+00  1.4613704753474406e-02 -2.0155062758025932e-03 0.0000000000000000e+00  0.0000000000000000e+00 0.0000000000000000e+00 0.0000000000000000e+00  4.0229473767621745e-04 -4.0212188670240609e-02 0.0000000000000000e+00  1.4312286831465457e-03 -6.8831317879590417e-02 0.0000000000000000e+00  2.8570782799392539e-03 -8.6615661943197295e-02 0.0000000000000000e+00  4.5354102905932493e-03 -9.5408717311394872e-02 0.0000000000000000e+00  6.3666404578547279e-03 -9.7382481107667521e-02 0.0000000000000000e+00  8.2841642092715446e-03 -9.4562195030635954e-02 0.0000000000000000e+00  1.0237382167027230e-02 -8.8598345114605750e-02 0.0000000000000000e+00  1.2183504195426942e-02 -8.0705681867342033e-02 0.0000000000000000e+00  1.4080385007496877e-02 -7.1700462007930357e-02 0.0000000000000000e+00  1.5882886602167138e-02 -6.2083646765231891e-02 0.0000000000000000e+00  1.7541907711051328e-02 -5.2135047366647813e-02 0.0000000000000000e+00  1.9006113625538539e-02 -4.1997040953466444e-02 0.0000000000000000e+00  2.0227464398742272e-02 -3.1736838489509457e-02 0.0000000000000000e+00  2.1157645810376255e-02 -2.1381200557972237e-02 0.0000000000000000e+00  2.1836035060017356e-02 -1.0977066197390193e-02 0.0000000000000000e+00  2.2180919562156998e-02 -9.8335618293949006e-04 0.0000000000000000e+00  0.0000000000000000e+00 0.0000000000000000e+00 0.0000000000000000e+00  5.6056359303446087e-04 -4.1129430146281239e-02 0.0000000000000000e+00  2.0166120382641354e-03 -7.0371652532470783e-02 0.0000000000000000e+00  4.0787615643040108e-03 -8.8548572275411755e-02 0.0000000000000000e+00  6.5324869186709012e-03 -9.7580643522292135e-02 0.0000000000000000e+00  9.2349390493972686e-03 -9.9691600242815467e-02 0.0000000000000000e+00  1.2089761190646635e-02 -9.6937350011323670e-02 0.0000000000000000e+00  1.5023557309518628e-02 -9.0982403134697298e-02 0.0000000000000000e+00  1.7969922390182219e-02 -8.3043821793612221e-02 0.0000000000000000e+00  2.0859019117765686e-02 -7.3933293961326696e-02 0.0000000000000000e+00  2.3613599554826795e-02 -6.4144836738750863e-02 0.0000000000000000e+00  2.6150316080758827e-02 -5.3953241208865306e-02 0.0000000000000000e+00  2.8386677504202203e-02 -4.3502415684808393e-02 0.0000000000000000e+00  3.0251589937669823e-02 -3.2872891427224285e-02 0.0000000000000000e+00  3.1707621057912840e-02 -2.2129840562573694e-02 0.0000000000000000e+00  3.2731439788482634e-02 -1.1346945036880043e-02 0.0000000000000000e+00  3.3275404585848732e-02 -7.4889738676889544e-04 0.0000000000000000e+00  0.0000000000000000e+00 0.0000000000000000e+00 0.0000000000000000e+00  7.6152185437068306e-04 -4.2391393765653977e-02 0.0000000000000000e+00  2.7381997105942893e-03 -7.2509015121339185e-02 0.0000000000000000e+00  5.5511804063633728e-03 -9.1261579347548763e-02 0.0000000000000000e+00  8.9257325771124104e-03 -1.0066444175767014e-01 0.0000000000000000e+00  1.2680644366004384e-02 -1.0301097599700038e-01 0.0000000000000000e+00  1.6691732460609211e-02 -1.0039616270992874e-01 0.0000000000000000e+00  2.0860170965860507e-02 -9.4498571490859218e-02 0.0000000000000000e+00  2.5089177248211730e-02 -8.6532768958336212e-02 0.0000000000000000e+00  2.9270742523514939e-02 -7.7299427168614196e-02 0.0000000000000000e+00  3.3281479961500500e-02 -6.7280204239955690e-02 0.0000000000000000e+00  3.6986068310174508e-02 -5.6743272518296889e-02 0.0000000000000000e+00  4.0249086162626388e-02 -4.5839372985929078e-02 0.0000000000000000e+00  4.2954330575992093e-02 -3.4677098539315776e-02 0.0000000000000000e+00  4.5029506244173852e-02 -2.3369221542617426e-02 0.0000000000000000e+00  4.6451258301780221e-02 -1.2041914268603056e-02 0.0000000000000000e+00  4.7270462320866444e-02 -8.1319122568745017e-04 0.0000000000000000e+00  0.0000000000000000e+00 0.0000000000000000e+00 0.0000000000000000e+00  9.7636563207144594e-04 -4.4044804209920255e-02 0.0000000000000000e+00  3.5073430808887610e-03 -7.5313379142735629e-02 0.0000000000000000e+00  7.1217871747652692e-03 -9.4848501023052187e-02 0.0000000000000000e+00  1.1497168896647968e-02 -1.0478839590879087e-01 0.0000000000000000e+00  1.6425973189355677e-02 -1.0751062386270158e-01 0.0000000000000000e+00  2.1763661300860822e-02 -1.0515207285250371e-01 0.0000000000000000e+00  2.7386121166185572e-02 -9.9400036880460702e-02 0.0000000000000000e+00  3.3160282309419295e-02 -9.1456950394570052e-02 0.0000000000000000e+00  3.8928979209977121e-02 -8.2101682723563635e-02 0.0000000000000000e+00  4.4506981140569141e-02 -7.1793992996943556e-02 0.0000000000000000e+00  4.9686282563233597e-02 -6.0789242541022671e-02 0.0000000000000000e+00  5.4253113456723519e-02 -4.9244510395055889e-02 0.0000000000000000e+00  5.8015795408074833e-02 -3.7305218310378439e-02 0.0000000000000000e+00  6.0854519074416996e-02 -2.5158555238398751e-02 0.0000000000000000e+00  6.2762698222537924e-02 -1.3025959031087943e-02 0.0000000000000000e+00  6.3919331332294882e-02 -1.0953607645162072e-03 0.0000000000000000e+00  0.0000000000000000e+00 0.0000000000000000e+00 0.0000000000000000e+00  1.1812868429424645e-03 -4.6092906635558421e-02 0.0000000000000000e+00  4.2453593200291843e-03 -7.8793869202265540e-02 0.0000000000000000e+00  8.6478922867666494e-03 -9.9339160194378495e-02 0.0000000000000000e+00  1.4042576679143798e-02 -1.1002162339423203e-01 0.0000000000000000e+00  2.0215786063356223e-02 -1.1331235838523615e-01 0.0000000000000000e+00  2.7013933631865463e-02 -1.1138475788765745e-01 0.0000000000000000e+00  3.4289107208575836e-02 -1.0592161481348429e-01 0.0000000000000000e+00  4.1865690856628821e-02 -9.8097422207288426e-02 0.0000000000000000e+00  4.9525273768913324e-02 -8.8653943568344051e-02 0.0000000000000000e+00  5.7004089972418466e-02 -7.8014873743764493e-02 0.0000000000000000e+00  6.3999755975135700e-02 -6.6409121208712799e-02 0.0000000000000000e+00  7.0189816736462060e-02 -5.3991013740506445e-02 0.0000000000000000e+00  7.5268070698207373e-02 -4.0950514845433425e-02 0.0000000000000000e+00  7.9030885320098720e-02 -2.7588766883331291e-02 0.0000000000000000e+00  8.1467431439270738e-02 -1.4320458842811790e-02 0.0000000000000000e+00  8.2968719610657382e-02 -1.5211091401667873e-03 0.0000000000000000e+00  0.0000000000000000e+00 0.0000000000000000e+00 0.0000000000000000e+00  1.3525697309057286e-03 -4.8495561821270142e-02 0.0000000000000000e+00  4.8714600953689464e-03 -8.2895815976811935e-02 0.0000000000000000e+00  9.9792498936451882e-03 -1.0469731460730479e-01 0.0000000000000000e+00  1.6345814506840077e-02 -1.1637567973073060e-01 0.0000000000000000e+00  2.3780322777195252e-02 -1.2049450285198998e-01 0.0000000000000000e+00  3.2134320927542377e-02 -1.1924614092977764e-01 0.0000000000000000e+00  4.1237166751648381e-02 -1.1428559804642587e-01 0.0000000000000000e+00  5.0862578093139335e-02 -1.0673721006134622e-01 0.0000000000000000e+00  6.0717934940264284e-02 -9.7286266341730793e-02 0.0000000000000000e+00  7.0446044824327175e-02 -8.6301332221300583e-02 0.0000000000000000e+00  7.9629799874218712e-02 -7.3965204746978083e-02 0.0000000000000000e+00  8.7804904795403607e-02 -6.0412495976157062e-02 0.0000000000000000e+00  9.4500516212281421e-02 -4.5868080327981772e-02 0.0000000000000000e+00  9.9355302107885249e-02 -3.0774098618415537e-02 0.0000000000000000e+00  1.0227447908816235e-01 -1.5864740469831301e-02 0.0000000000000000e+00  1.0387478786422541e-01 -1.9274136434166305e-03 0.0000000000000000e+00  0.0000000000000000e+00 0.0000000000000000e+00 0.0000000000000000e+00  1.4615507575044570e-03 -5.1165161779475589e-02 0.0000000000000000e+00  5.2890078823326567e-03 -8.7493061571731257e-02 0.0000000000000000e+00  1.0936980545640879e-02 -1.1081172910386525e-01 0.0000000000000000e+00  1.8149154578059955e-02 -1.2379610099782103e-01 0.0000000000000000e+00  2.6794099482874943e-02 -1.2908307859734075e-01 0.0000000000000000e+00  3.6743269695709041e-02 -1.2884927559778422e-01 0.0000000000000000e+00  4.7801315964550312e-02 -1.2468665634394904e-01 0.0000000000000000e+00  5.9680073642376680e-02 -1.1764108549404653e-01 0.0000000000000000e+00  7.1999983501181156e-02 -1.0832037968377203e-01 0.0000000000000000e+00  8.4298573950115308e-02 -9.7021236764490468e-02 0.0000000000000000e+00  9.6031256615882382e-02 -8.3858887305187896e-02 0.0000000000000000e+00  1.0657452200539340e-01 -6.8902642963530464e-02 0.0000000000000000e+00  1.1523768134840767e-01 -5.2355642867943142e-02 0.0000000000000000e+00  1.2136823003578233e-01 -3.4814704358528285e-02 0.0000000000000000e+00  1.2461674477061412e-01 -1.7487290381736575e-02 0.0000000000000000e+00  1.2568577390998364e-01 -1.8700068881099159e-03 0.0000000000000000e+00  0.0000000000000000e+00 0.0000000000000000e+00 0.0000000000000000e+00  1.4712537498862233e-03 -5.3954787560620325e-02 0.0000000000000000e+00  5.3770893519191629e-03 -9.2372527064545143e-02 0.0000000000000000e+00  1.1300977471812215e-02 -1.1748037065209720e-01 0.0000000000000000e+00  1.9135230350638507e-02 -1.3214506436196483e-01 0.0000000000000000e+00  2.8848053114298351e-02 -1.3902967788383913e-01 0.0000000000000000e+00  4.0341634376741112e-02 -1.4023818611448685e-01 0.0000000000000000e+00  5.3387946622133482e-02 -1.3725121144259428e-01 0.0000000000000000e+00  6.7621873146318040e-02 -1.3100393747079461e-01 0.0000000000000000e+00  8.2563098169060545e-02 -1.2201095505482312e-01 0.0000000000000000e+00  9.7637931136816417e-02 -1.1048831461927597e-01 0.0000000000000000e+00  1.1218874800309085e-01 -9.6455708023723552e-02 0.0000000000000000e+00  1.2544283173083864e-01 -7.9861307473675716e-02 0.0000000000000000e+00  1.3643371331960780e-01 -6.0827737917304364e-02 0.0000000000000000e+00  1.4408222604070373e-01 -4.0014884000151997e-02 0.0000000000000000e+00  1.4750584552391599e-01 -1.9061944616440205e-02 0.0000000000000000e+00  1.4703088235226167e-01 -5.2913466388423459e-04 0.0000000000000000e+00  0.0000000000000000e+00 0.0000000000000000e+00 0.0000000000000000e+00  1.3365609241614311e-03 -5.6643972091030698e-02 0.0000000000000000e+00  4.9940549016205199e-03 -9.7218760577720345e-02 0.0000000000000000e+00  1.0819102674660888e-02 -1.2439461421936765e-01 0.0000000000000000e+00  1.8938713225694671e-02 -1.4117969574014358e-01 0.0000000000000000e+00  2.9455535919808349e-02 -1.5017746442464003e-01 0.0000000000000000e+00  4.2302911403412247e-02 -1.5333719784773220e-01 0.0000000000000000e+00  5.7204046968851438e-02 -1.5196852031367158e-01 0.0000000000000000e+00  7.3697373791761903e-02 -1.4686410932653618e-01 0.0000000000000000e+00  9.1187794941166384e-02 -1.3843817304992179e-01 0.0000000000000000e+00  1.0899881640338946e-01 -1.2683133172986819e-01 0.0000000000000000e+00  1.2639357216045871e-01 -1.1197890193773861e-01 0.0000000000000000e+00  1.4248744523617554e-01 -9.3693613086548472e-02 0.0000000000000000e+00  1.5613242035422856e-01 -7.1796423600306372e-02 0.0000000000000000e+00  1.6577343318771454e-01 -4.6561463049771427e-02 0.0000000000000000e+00  1.6936171052467502e-01 -2.0035307252926484e-02 0.0000000000000000e+00  1.6601470373735927e-01 3.2113989884027441e-03 0.0000000000000000e+00  0.0000000000000000e+00 0.0000000000000000e+00 0.0000000000000000e+00  1.0109461686216587e-03 -5.8931453348641895e-02 0.0000000000000000e+00  4.0035397644271947e-03 -1.0161202785001246e-01 0.0000000000000000e+00  9.2561793791436139e-03 -1.3113594105095619e-01 0.0000000000000000e+00  1.7210467307614975e-02 -1.5053415485182542e-01 0.0000000000000000e+00  2.8117196001366709e-02 -1.6221852317670640e-01 0.0000000000000000e+00  4.1923977626648137e-02 -1.6787983190282976e-01 0.0000000000000000e+00  5.8281979868250129e-02 -1.6859249128459525e-01 0.0000000000000000e+00  7.6614735211050319e-02 -1.6497920580596132e-01 0.0000000000000000e+00  9.6206363624122104e-02 -1.5735707767955817e-01 0.0000000000000000e+00  1.1628685825429638e-01 -1.4582877939518876e-01 0.0000000000000000e+00  1.3606502299314394e-01 -1.3030535769847038e-01 0.0000000000000000e+00  1.5470667289420972e-01 -1.1042024102822923e-01 0.0000000000000000e+00  1.7117550560259925e-01 -8.5491307363837879e-02 0.0000000000000000e+00  1.8328804870382959e-01 -5.5309229235320098e-02 0.0000000000000000e+00  1.8751858268754434e-01 -2.1841702501111386e-02 0.0000000000000000e+00  1.8056735213170050e-01 1.0312557159208251e-02 0.0000000000000000e+00  0.0000000000000000e+00 0.0000000000000000e+00 0.0000000000000000e+00  4.6571303801989027e-04 -6.0450684545685328e-02 0.0000000000000000e+00  2.3390558441446158e-03 -1.0506224598275218e-01 0.0000000000000000e+00  6.5063478976932470e-03 -1.3720318767634032e-01 0.0000000000000000e+00  1.3760290550089467e-02 -1.5971540717411400e-01 0.0000000000000000e+00  2.4470839668345484e-02 -1.7464586774921936e-01 0.0000000000000000e+00  3.8562486346822272e-02 -1.8331748198014350e-01 0.0000000000000000e+00  5.5593450190579721e-02 -1.8651501644167084e-01 0.0000000000000000e+00  7.4871932459829385e-02 -1.8467423285096085e-01 0.0000000000000000e+00  9.5571889571898258e-02 -1.7802735550388074e-01 0.0000000000000000e+00  1.1683062523208183e-01 -1.6668475025488028e-01 0.0000000000000000e+00  1.3784469939358066e-01 -1.5060856429810540e-01 0.0000000000000000e+00  1.5798530015144185e-01 -1.2945124159105903e-01 0.0000000000000000e+00  1.7644649177214716e-01 -1.0238695900286443e-01 0.0000000000000000e+00  1.9136931791533410e-01 -6.7612935641124042e-02 0.0000000000000000e+00  1.9883211456247671e-01 -2.3476772166945454e-02 0.0000000000000000e+00  1.9166038734731899e-01 2.0159718801808026e-02 0.0000000000000000e+00  0.0000000000000000e+00 0.0000000000000000e+00 0.0000000000000000e+00  -2.6860626949797858e-04 -6.0841316125204520e-02 0.0000000000000000e+00  1.3092198129648706e-04 -1.0711437110704883e-01 0.0000000000000000e+00  2.7950820077566043e-03 -1.4209248969159194e-01 0.0000000000000000e+00  8.7992902083045971e-03 -1.6812212757702014e-01 0.0000000000000000e+00  1.8542650115650886e-02 -1.8670340471160646e-01 0.0000000000000000e+00  3.1878054504753714e-02 -1.9871096841232980e-01 0.0000000000000000e+00  4.8275175381158511e-02 -2.0461900131105998e-01 0.0000000000000000e+00  6.6970269491583981e-02 -2.0467939343558902e-01 0.0000000000000000e+00  8.7079027195745187e-02 -1.9904778846071161e-01 0.0000000000000000e+00  1.0768522391450927e-01 -1.8785571870904219e-01 0.0000000000000000e+00  1.2797850661188992e-01 -1.7120929258345213e-01 0.0000000000000000e+00  1.4734420393319217e-01 -1.4906936455796191e-01 0.0000000000000000e+00  1.6547267960523088e-01 -1.2051965165843967e-01 0.0000000000000000e+00  1.8289873532537840e-01 -8.2203502390866226e-02 0.0000000000000000e+00  1.9551007720748970e-01 -2.8647243830797368e-02 0.0000000000000000e+00  1.7905453412439956e-01 3.2174359785696938e-02 0.0000000000000000e+00  0.0000000000000000e+00 0.0000000000000000e+00 0.0000000000000000e+00  -1.0153997818187809e-03 -5.9917924878248104e-02 0.0000000000000000e+00  -2.0717650777919163e-03 -1.0754914843851818e-01 0.0000000000000000e+00  -1.0135845253606487e-03 -1.4542928334590774e-01 0.0000000000000000e+00  3.2762079292577282e-03 -1.7507569179073992e-01 0.0000000000000000e+00  1.1083600238038293e-02 -1.9732635392827660e-01 0.0000000000000000e+00  2.2165642891534176e-02 -2.1260761606547704e-01 0.0000000000000000e+00  3.5968663082094433e-02 -2.2112268056853279e-01 0.0000000000000000e+00  5.1773159166263974e-02 -2.2297293736980359e-01 0.0000000000000000e+00  6.8771127376154151e-02 -2.1823877679716111e-01 0.0000000000000000e+00  8.6113195528864678e-02 -2.0703733939219116e-01 0.0000000000000000e+00  1.0294970146873986e-01 -1.8957180413686975e-01 0.0000000000000000e+00  1.1848385929203349e-01 -1.6609094261937271e-01 0.0000000000000000e+00  1.3285708377952296e-01 -1.3658718649651436e-01 0.0000000000000000e+00  1.4746970702803203e-01 -1.0026329420290675e-01 0.0000000000000000e+00  1.6373423566534812e-01 -5.0209538235967723e-02 0.0000000000000000e+00  1.8147723355453188e-01 2.4824607081836498e-02 0.0000000000000000e+00  0.0000000000000000e+00 0.0000000000000000e+00 0.0000000000000000e+00  -1.2776678260083411e-03 -5.8028151855009633e-02 0.0000000000000000e+00  -2.9616807233243314e-03 -1.0673095037343579e-01 0.0000000000000000e+00  -3.0318453272625795e-03 -1.4715836926028150e-01 0.0000000000000000e+00  -7.6376269782395831e-04 -1.7986215051400684e-01 0.0000000000000000e+00  3.9050590513993524e-03 -2.0509099854423152e-01 0.0000000000000000e+00  1.0711586778824830e-02 -2.2294955300461963e-01 0.0000000000000000e+00  1.9243276316553048e-02 -2.3347762192510488e-01 0.0000000000000000e+00  2.9023736297372645e-02 -2.3669154329730818e-01 0.0000000000000000e+00  3.9540242694833257e-02 -2.3261025803790711e-01 0.0000000000000000e+00  5.0235864281855905e-02 -2.2128046938444379e-01 0.0000000000000000e+00  6.0451920517956885e-02 -2.0280824895937410e-01 0.0000000000000000e+00  6.9460225755135163e-02 -1.7737756936743115e-01 0.0000000000000000e+00  7.6420559853343395e-02 -1.4552049910558426e-01 0.0000000000000000e+00  7.9629583130015433e-02 -1.0743843068458564e-01 0.0000000000000000e+00  8.3915796692289893e-02 -6.0854699949076288e-02 0.0000000000000000e+00  6.7836920791390462e-02 -4.7033943427405361e-03 0.0000000000000000e+00  0.0000000000000000e+00 -6.8385201264309604e-18 0.0000000000000000e+00  0.0000000000000000e+00 -5.6752919597375079e-02 0.0000000000000000e+00  0.0000000000000000e+00 -1.0593878324843348e-01 0.0000000000000000e+00  0.0000000000000000e+00 -1.4755759095317522e-01 0.0000000000000000e+00  0.0000000000000000e+00 -1.8160934271160029e-01 0.0000000000000000e+00  0.0000000000000000e+00 -2.0809403852370864e-01 0.0000000000000000e+00  0.0000000000000000e+00 -2.2701167838950037e-01 0.0000000000000000e+00  0.0000000000000000e+00 -2.3836226230897536e-01 0.0000000000000000e+00  0.0000000000000000e+0