<?xml version="1.0"?>
<VTKFile type="UnstructuredGrid"  version="0.1"  >
<UnstructuredGrid>
<Piece  NumberOfPoints="289" NumberOfCells="512">
<Points>
<DataArray  type="Float64"  NumberOfComponents="3"  format="ascii">0 0 0  0.0625 0 0  0.125 0 0  0.1875 0 0  0.25 0 0  0.3125 0 0  0.375 0 0  0.4375 0 0  0.5 0 0  0.5625 0 0  0.625 0 0  0.6875 0 0  0.75 0 0  0.8125 0 0  0.875 0 0  0.9375 0 0  1 0 0  0 0.0625 0  0.06258439725677549 0.06246667669218552 0  0.1251723454100575 0.06243270121777503 0  0.1877676093328588 0.06239745124751097 0  0.2503743382438564 0.06236040541531884 0  0.3129973037585663 0.06232120843126063 0  0.3756422038430158 0.06227975190911995 0  0.4383160864615902 0.06223626951564877 0  0.5010280001715273 0.06219143461004328 0  0.5637901062359661 0.06214642717268699 0  0.626619806373113 0.06210289254880593 0  0.6895442913930918 0.06206261614366901 0  0.7526113306193992 0.06202648914219661 0  0.8159174154433233 0.0619916010714773 0  0.8796877830860914 0.06194276552168933 0  0.9445236162527963 0.06182508609701029 0  1.012253679525295 0.06144176245163787 0  0 0.125 0  0.06266526930606585 0.1249339625568317 0  0.1253374986033659 0.1248665666757842 0  0.1880240682509243 0.1247965084669418 0  0.2507331210893976 0.1247226737738858 0  0.3134740330151103 0.124644265295967 0  0.3762580075085558 0.1245609667650765 0  0.4390988835463843 0.1244731472032539 0  0.502014318957848 0.1243820927044649 0  0.5650276663127412 0.1242902218463433 0  0.6281711932720133 0.1242011824311616 0  0.6914920160394082 0.1241196280493702 0  0.7550635644089407 0.1240503365655362 0  0.8190078261620133 0.123996297539969 0  0.8835349603592955 0.123956343794827 0  0.9489905286058254 0.1239294626228272 0  1.015775409912899 0.1239678191319511 0  0 0.1875 0  0.06273921452567174 0.1874025821281482 0  0.1254884764596813 0.1873030039565873 0  0.1882584327691689 0.18719917353924 0  0.2510608307892017 0.1870892506076881 0  0.3139091909129301 0.1869718262062607 0  0.3768196412932093 0.1868461687729389 0  0.4398120108140802 0.1867125532575221 0  0.5029113273312948 0.1865726766873502 0  0.5661499529948093 0.1864301339049308 0  0.6295707148060835 0.1862908687639132 0  0.6932315108041154 0.1861634129042285 0  0.7572116983897026 0.1860585589929247 0  0.8216189149851162 0.1859878567268838 0  0.8865879757441268 0.1859597470452071 0  0.9522413683082952 0.1859695847481896 0  1.0185320073613 0.1859646724996613 0  0 0.25 0  0.06280317264859651 0.2498733529245629 0  0.1256189965214241 0.2497436206418166 0  0.1884608587637315 0.2496077822831802 0  0.251343518344439 0.2494630857996091 0  0.314283937588685 0.2493072596604209 0  0.3773022988814679 0.2491388264719165 0  0.4404232954675512 0.2489575581726667 0  0.5036778015309725 0.2487651103891192 0  0.5671050240029389 0.248565858458709 0  0.6307551601914817 0.2483679151502355 0  0.6946922723101117 0.2481842162233841 0  0.7589961305643567 0.2480333759870763 0  0.8237592308841445 0.2479396765888881 0  0.8890694305406399 0.2479309571634215 0  0.9549589936511905 0.248032326457885 0  1.021297305893798 0.2482546348729908 0  0 0.3125 0  0.06285457349493645 0.3123472104013452 0  0.1257237870406903 0.3121902828351666 0  0.1886230992207598 0.3120251145184357 0  0.2515695266675934 0.3118478240879024 0  0.3145825861089075 0.3116549597721898 0  0.3776854425574862 0.3114438439303642 0  0.4409063536408327 0.3112131231320083 0  0.5042805002001791 0.3109636110556396 0  0.5678522506981053 0.3106995263696239 0  0.6316777485820454 0.3104302245456004 0  0.6958272827160031 0.3101724684011159 0  0.7603859170593 0.3099531118819963 0  0.8254489385936643 0.3098116731628147 0  0.8911058544424132 0.3098015076987974 0  0.9574053637245257 0.3099871646985272 0  1.024303692199555 0.3104346004996153 0  0 0.375 0  0.06289145341075161 0.3748252101905608 0  0.1257988292251726 0.3746451285511117 0  0.1887388902708583 0.3744544382119683 0  0.2517300430980277 0.3742479146470705 0  0.3147933362913155 0.3740205781153778 0  0.3779536904193112 0.3737680039942549 0  0.4412414725820177 0.3734868890991421 0  0.5046945470563274 0.3731760178156733 0  0.5683609239468409 0.3728378331265063 0  0.6323020327116899 0.3724808858371008 0  0.6965963553225637 0.3721234759560666 0  0.7613424984355103 0.3717987187213377 0  0.8266596678361454 0.3715608609188316 0  0.8926824208340373 0.371491623806638 0  0.9595479283065864 0.3717034617814118 0  1.027383943685849 0.3723345220024248 0  0 0.4375 0  0.06291253459761791 0.4373084992389183 0  0.1258415229538484 0.4371105171078477 0  0.1888042171588587 0.4368994539738362 0  0.251819484598756 0.4366685839766569 0  0.314908796195673 0.4364110865439711 0  0.3780974686038197 0.436120229699024 0  0.4414163144844003 0.4357898203545484 0  0.5049039260658462 0.4354151119771526 0  0.5686099117599804 0.4349944792975891 0  0.6325995053658628 0.4345323454419368 0  0.6969600129854211 0.4340440687956303 0  0.7618094317118671 0.4335636717993509 0  0.8273071361496631 0.4331551117191273 0  0.8936660352172088 0.4329265586086525 0  0.9611669404930498 0.4330439745102649 0  1.030185027028446 0.4337357158932822 0  0 0.5 0  0.06291726416106139 0.499798249429955 0  0.1258507698476075 0.4995888986771901 0  0.1888174528589123 0.4993641079388591 0  0.2518357140734236 0.4991156122166348 0  0.3149263156331671 0.4988345642154491 0  0.3781135283634108 0.4985114820234094 0  0.4414267224149926 0.4981364081778531 0  0.5049027349984494 0.4976994817282231 0  0.5685895983987584 0.4971922968796978 0  0.6325526234438684 0.4966107237730233 0  0.6968844470120459 0.495960366127491 0  0.7617213989206264 0.4952665468472818 0  0.8272690843160238 0.4945913707899345 0  0.8938398371406117 0.4940597728173216 0  0.9619044697726991 0.4938914353080868 0  1.032169051448621 0.4944227160679394 0  0 0.5625 0  0.0629058100510657 0.5622955521099436 0  0.1258269663983123 0.5620825976064433 0  0.1887793539689318 0.5618522543685439 0  0.2517800582470376 0.5615948676356693 0  0.3148480788236486 0.5612996115672503 0  0.3780052395210848 0.5609541022812445 0  0.4412774877114494 0.5605440828987741 0  0.5046969737646061 0.5600533300951674 0  0.5683057066359436 0.5594641180285312 0  0.6321623747720911 0.558758963111439 0  0.6963553718395716 0.5579251668973364 0  0.7610274128762182 0.5569652283764241 0  0.8264200503304016 0.5559188631049425 0  0.8929478343681879 0.5549052281571935 0  0.9613083356327246 0.554190410926146 0  1.032633333190378 0.5542606402586675 0  0 0.625 0  0.06287901217712388 0.6248012797131205 0  0.1257719005549787 0.6245935196618462 0  0.1886928940557006 0.6243671763750912 0  0.2516570756577052 0.6241115934292005 0  0.3146808355887952 0.6238143453841299 0  0.3777823990184453 0.6234604631827052 0  0.4409825512399738 0.6230315163895778 0  0.5043058767336129 0.6225045714033057 0  0.5677832963324588 0.621851168691126 0  0.631457773072265 0.6210367926909527 0  0.6953974538677752 0.620022173579531 0  0.7597253963856879 0.6187700091497089 0  0.8246835373120106 0.6172663538052345 0  0.890758086645754 0.6155782517108138 0  0.958888304940934 0.6139819983034485 0  1.030755469958604 0.613149959990785 0  0 0.6875 0  0.06283829085064709 0.687315930374419 0  0.1256885532763026 0.6871228151159223 0  0.1885629267965718 0.6869110120680608 0  0.2514740360533076 0.6866695050671878 0  0.3144351502558954 0.6863850291440303 0  0.3774602421773186 0.6860409385333145 0  0.4405639206236523 0.6856156854359333 0  0.503761295281095 0.6850807403599802 0  0.567068148469814 0.6843977588738265 0  0.6305027720463524 0.6835148555940406 0  0.694093627653211 0.6823622462775605 0  0.7579044226081709 0.6808492367633032 0  0.8221062844777901 0.6788712503010254 0  0.8871626844823706 0.6763609222942278 0  0.9542101431279232 0.6734998917480298 0  1.025594347305488 0.6712388137693678 0  0 0.75 0  0.06278552188787144 0.7498394807459143 0  0.1255808239842829 0.7496705517383755 0  0.1883957057583904 0.7494841762553039 0  0.2512401354078406 0.7492698345233204 0  0.3141241534061767 0.7490145310190178 0  0.3770575014588668 0.7487014388748084 0  0.4400487616414415 0.7483079550942596 0  0.5031036690525186 0.7478028169627734 0  0.566222153013142 0.7471417232842625 0  0.6293938389871145 0.746260557038148 0  0.6925932821167382 0.7450647430945221 0  0.7557828957323004 0.7434125707580559 0  0.8189559868130168 0.7410910293788212 0  0.8823346711287658 0.7377969993433099 0  0.9470796729366103 0.7332525373255423 0  1.016232572892718 0.7284178176730638 0  0 0.8125 0  0.06272289640026442 0.8123712780012948 0  0.125453221357024 0.8122354668152949 0  0.1881983369702407 0.8120849006660217 0  0.2509655739834304 0.811910525777168 0  0.3137619898804141 0.8117009398997294 0  0.3765937561999034 0.8114410362770889 0  0.439464820560615 0.8111099845744484 0  0.5023741569700386 0.8106781114373766 0  0.5653102734691167 0.8101019352859217 0  0.6282404686099545 0.8093160203274326 0  0.6910905350552442 0.8082190740734226 0  0.7537096209739781 0.8066487733613737 0  0.8158243834632699 0.8043322457060816 0  0.8770556206290205 0.8007808916783417 0  0.937472153699324 0.7950800644853651 0  1.002703227416117 0.7859240409506475 0  0 0.875 0  0.06265278946302016 0.8749100010726752 0  0.1253105779070589 0.8748148674164721 0  0.1879782817518829 0.8747090219823366 0  0.2506607236034503 0.8745858108711991 0  0.3133623895748326 0.874436742297135 0  0.3760868528176085 0.8742503904515287 0  0.4388355112507521 0.8740107298854849 0  0.5016048919787408 0.8736945134333827 0  0.5643808733871594 0.8732670400417507 0  0.6271260717273074 0.8726751877706138 0  0.6897516780066315 0.8718356857447638 0  0.7520535906336442 0.8706143732913761 0  0.8135686935054675 0.868784043638373 0  0.8732699836621312 0.8659107091818519 0  0.9290214456267282 0.8609455318333168 0  0.9769825372130021 0.8506608705929373 0  0 0.9375 0  0.06257766079871306 0.9374537118149946 0  0.1251578452764058 0.9374047284260537 0  0.1877430292017779 0.9373501150545331 0  0.2503356321930142 0.9372863499010566 0  0.3129378857078499 0.9372089044624917 0  0.3755515211657845 0.9371116325680224 0  0.4381770797304144 0.93698
[...]
<PointData  Vectors="f_95-0"> 
<DataArray  type="Float64"  Name="f_95-0"  NumberOfComponents="3" format="ascii">0.0000000000000000e+00 0.0000000000000000e+00 0.0000000000000000e+00  -2.5791247217659204e-05 4.2261966870757006e-02 0.0000000000000000e+00  -1.1094604152295820e-04 7.2082360493295181e-02 0.0000000000000000e+00  -2.6056431498619475e-04 9.0436790180428966e-02 0.0000000000000000e+00  -4.6475182494727706e-04 9.9388640329676925e-02 0.0000000000000000e+00  -7.1178348723475201e-04 1.0126751499535763e-01 0.0000000000000000e+00  -9.9772009226004260e-04 9.8207313300677473e-02 0.0000000000000000e+00  -1.3272116101616591e-03 9.1931316977452077e-02 0.0000000000000000e+00  -1.7108833758379075e-03 8.3700977416797606e-02 0.0000000000000000e+00  -2.1617843592678411e-03 7.4360107563747446e-02 0.0000000000000000e+00  -2.6922216160697866e-03 6.4424121187183284e-02 0.0000000000000000e+00  -3.3108374160712517e-03 5.4180576222078565e-02 0.0000000000000000e+00  -4.0214517619201169e-03 4.3782833500669263e-02 0.0000000000000000e+00  -4.8113732080432969e-03 3.3317274575476952e-02 0.0000000000000000e+00  -5.6461351670251602e-03 2.2876671894143885e-02 0.0000000000000000e+00  -6.6069196072101660e-03 1.2680486882048500e-02 0.0000000000000000e+00  -4.0079521117014141e-03 4.3228031964344105e-03 0.0000000000000000e+00  0.0000000000000000e+00 0.0000000000000000e+00 0.0000000000000000e+00  -6.9294135389195383e-05 4.2394006103576160e-02 0.0000000000000000e+00  -2.7152429867232161e-04 7.2307319342672982e-02 0.0000000000000000e+00  -5.8599712074919807e-04 9.0720436379132949e-02 0.0000000000000000e+00  -9.8040121286438551e-04 9.9697187239765409e-02 0.0000000000000000e+00  -1.4318477724291814e-03 1.0158074060580372e-01 0.0000000000000000e+00  -1.9304186961438283e-03 9.8519327619758665e-02 0.0000000000000000e+00  -2.4769629537070045e-03 9.2246093858259950e-02 0.0000000000000000e+00  -3.0783464121262494e-03 8.4026363313965902e-02 0.0000000000000000e+00  -3.7428295750339892e-03 7.4702274816677419e-02 0.0000000000000000e+00  -4.4766048642562459e-03 6.4783003782471413e-02 0.0000000000000000e+00  -5.2816679239374182e-03 5.4545891552095167e-02 0.0000000000000000e+00  -6.1540198432200989e-03 4.4126615306481522e-02 0.0000000000000000e+00  -7.0772815715429089e-03 3.3586178712444133e-02 0.0000000000000000e+00  -8.0447347884829400e-03 2.2948734101690030e-02 0.0000000000000000e+00  -8.8622889780189239e-03 1.2145409206041787e-02 0.0000000000000000e+00  -9.8790331096845502e-03 2.0405345054482485e-03 0.0000000000000000e+00  0.0000000000000000e+00 0.0000000000000000e+00 0.0000000000000000e+00  -2.0125952974720226e-04 4.2689448737743642e-02 0.0000000000000000e+00  -7.2781086048849660e-04 7.2815914547443003e-02 0.0000000000000000e+00  -1.4834054306257602e-03 9.1354631079057974e-02 0.0000000000000000e+00  -2.3865512182659593e-03 1.0039351946742676e-01 0.0000000000000000e+00  -3.3874854517604472e-03 1.0230293857715975e-01 0.0000000000000000e+00  -4.4608644661522914e-03 9.9252371147138890e-02 0.0000000000000000e+00  -5.5966612320731959e-03 9.2986788684353089e-02 0.0000000000000000e+00  -6.7903840904143375e-03 8.4774331057535637e-02 0.0000000000000000e+00  -8.0358443351217952e-03 7.5453089377792826e-02 0.0000000000000000e+00  -9.3210823508380475e-03 6.5523933033516280e-02 0.0000000000000000e+00  -1.0627248398163395e-02 5.5253771100118386e-02 0.0000000000000000e+00  -1.1930008714332502e-02 4.4767002852290072e-02 0.0000000000000000e+00  -1.3202496256411293e-02 3.4111863008482124e-02 0.0000000000000000e+00  -1.4409813435578914e-02 2.3293139990017888e-02 0.0000000000000000e+00  -1.5488307621444854e-02 1.2268325409890098e-02 0.0000000000000000e+00  -1.6395714233966980e-02 1.1896693087597207e-03 0.0000000000000000e+00  0.0000000000000000e+00 0.0000000000000000e+00 0.0000000000000000e+00  -3.9267811774466139e-04 4.3283911239119441e-02 0.0000000000000000e+00  -1.3889456179591809e-03 7.3802893229730826e-02 0.0000000000000000e+00  -2.7806139828927962e-03 9.2575757613691800e-02 0.0000000000000000e+00  -4.4220197768508936e-03 1.0174480090501424e-01 0.0000000000000000e+00  -6.2286448947799014e-03 1.0372594196634866e-01 0.0000000000000000e+00  -8.1550492766148935e-03 1.0071800585986160e-01 0.0000000000000000e+00  -1.0175614308633745e-02 9.4478695066039606e-02 0.0000000000000000e+00  -1.2268075439828720e-02 8.6275661798897521e-02 0.0000000000000000e+00  -1.4402883170365463e-02 7.6938064189434718e-02 0.0000000000000000e+00  -1.6538359093870636e-02 6.6954392704167282e-02 0.0000000000000000e+00  -1.8621326813686039e-02 5.6580637354820960e-02 0.0000000000000000e+00  -2.0593663625148872e-02 4.5936662618668807e-02 0.0000000000000000e+00  -2.2401702365006666e-02 3.5077141937234498e-02 0.0000000000000000e+00  -2.4013476174498869e-02 2.4028172993179654e-02 0.0000000000000000e+00  -2.5419606680663776e-02 1.2774179775092155e-02 0.0000000000000000e+00  -2.6641582571108890e-02 1.3420472885301211e-03 0.0000000000000000e+00  0.0000000000000000e+00 0.0000000000000000e+00 0.0000000000000000e+00  -6.1429796477034399e-04 4.4257932448180839e-02 0.0000000000000000e+00  -2.1613750802813724e-03 7.5401860966691506e-02 0.0000000000000000e+00  -4.3090521989790232e-03 9.4554531342489853e-02 0.0000000000000000e+00  -6.8426967127701490e-03 1.0395282163594434e-01 0.0000000000000000e+00  -9.6417175693265401e-03 1.0608004790660308e-01 0.0000000000000000e+00  -1.2639831952785875e-02 1.0317227964160461e-01 0.0000000000000000e+00  -1.5793023035166658e-02 9.6998824655381469e-02 0.0000000000000000e+00  -1.9055405765800500e-02 8.8820763517421603e-02 0.0000000000000000e+00  -2.2364848862812332e-02 7.9450407452355210e-02 0.0000000000000000e+00  -2.5637287611475469e-02 6.9356736194075605e-02 0.0000000000000000e+00  -2.8769048554463311e-02 5.8781572560149174e-02 0.0000000000000000e+00  -3.1648879582983840e-02 4.7845109170270482e-02 0.0000000000000000e+00  -3.4179046860518390e-02 3.6626641060693493e-02 0.0000000000000000e+00  -3.6314058617501914e-02 2.5207105389239742e-02 0.0000000000000000e+00  -3.8084005114807924e-02 1.3656993473223062e-02 0.0000000000000000e+00  -3.9675706652102065e-02 1.9453509739312048e-03 0.0000000000000000e+00  0.0000000000000000e+00 0.0000000000000000e+00 0.0000000000000000e+00  -8.4302731584930634e-04 4.5645104179529369e-02 0.0000000000000000e+00  -2.9668244661848831e-03 7.7678275850031467e-02 0.0000000000000000e+00  -5.9233763621467112e-03 9.7389629222812885e-02 0.0000000000000000e+00  -9.4381333913137726e-03 1.0715286475696867e-01 0.0000000000000000e+00  -1.3361605372953816e-02 1.0953970901090215e-01 0.0000000000000000e+00  -1.7609984943152832e-02 1.0682847989572446e-01 0.0000000000000000e+00  -2.2119350631654443e-02 1.0079518097644548e-01 0.0000000000000000e+00  -2.6814040557466438e-02 9.2684336233264900e-02 0.0000000000000000e+00  -3.1588921688594854e-02 8.3279551138697602e-02 0.0000000000000000e+00  -3.6302564231023134e-02 7.3018976260583790e-02 0.0000000000000000e+00  -4.0780239151504860e-02 6.2121992867494813e-02 0.0000000000000000e+00  -4.4830338894992820e-02 5.0707672612905694e-02 0.0000000000000000e+00  -4.8276144393404802e-02 3.8892480880861578e-02 0.0000000000000000e+00  -5.1021863643215641e-02 2.6849632981573623e-02 0.0000000000000000e+00  -5.3115766413064057e-02 1.4794529565926601e-02 0.0000000000000000e+00  -5.4914929368428546e-02 2.7820647755382485e-03 0.0000000000000000e+00  0.0000000000000000e+00 0.0000000000000000e+00 0.0000000000000000e+00  -1.0591716863312703e-03 4.7440181044362713e-02 0.0000000000000000e+00  -3.7365975330123382e-03 8.0638083696447788e-02 0.0000000000000000e+00  -7.4937972557953111e-03 1.0111649870315817e-01 0.0000000000000000e+00  -1.2020498114071547e-02 1.1142487789848639e-01 0.0000000000000000e+00  -1.7155158211955641e-02 1.1423826562655065e-01 0.0000000000000000e+00  -2.2804071177948360e-02 1.1187535899447328e-01 0.0000000000000000e+00  -2.8882610981001269e-02 1.0610774456924738e-01 0.0000000000000000e+00  -3.5278100841471802e-02 9.8148451667734782e-02 0.0000000000000000e+00  -4.1830243298172420e-02 8.8736529276394249e-02 0.0000000000000000e+00  -4.8323511500227560e-02 7.8263015060410376e-02 0.0000000000000000e+00  -5.4488756052842417e-02 6.6907718613413880e-02 0.0000000000000000e+00  -6.0017957946110048e-02 5.4775135263720021e-02 0.0000000000000000e+00  -6.4602076910465878e-02 4.2021617488755859e-02 0.0000000000000000e+00  -6.8029231061307538e-02 2.8948282513628965e-02 0.0000000000000000e+00  -7.0302467477408190e-02 1.6009832310091562e-02 0.0000000000000000e+00  -7.1950833086715751e-02 3.5091677221782821e-03 0.0000000000000000e+00  0.0000000000000000e+00 0.0000000000000000e+00 0.0000000000000000e+00  -1.2418983496742229e-03 4.9601313979205489e-02 0.0000000000000000e+00  -4.3986420839092462e-03 8.4230096652980563e-02 0.0000000000000000e+00  -8.8851471148318761e-03 1.0571025131525742e-01 0.0000000000000000e+00  -1.4395778933057502e-02 1.1679798760886627e-01 0.0000000000000000e+00  -2.0783441382333654e-02 1.2027430111358602e-01 0.0000000000000000e+00  -2.7955576817814094e-02 1.1848460475354512e-01 0.0000000000000000e+00  -3.5805404808225028e-02 1.1317615562306513e-01 0.0000000000000000e+00  -4.4173648259982573e-02 1.0551037161643118e-01 0.0000000000000000e+00  -5.2831331660052314e-02 9.6162502219906590e-02 0.0000000000000000e+00  -6.1473362830572600e-02 8.5454905213878982e-02 0.0000000000000000e+00  -6.9713364156252927e-02 7.3502164501463366e-02 0.0000000000000000e+00  -7.7087003134215681e-02 6.0366258735852205e-02 0.0000000000000000e+00  -8.3085253066397136e-02 4.6218912527276612e-02 0.0000000000000000e+00  -8.7271788858343760e-02 3.1501998272233780e-02 0.0000000000000000e+00  -8.9473027552994411e-02 1.7028269228614862e-02 0.0000000000000000e+00  -9.0302106140181429e-02 3.5913304538690788e-03 0.0000000000000000e+00  0.0000000000000000e+00 0.0000000000000000e+00 0.0000000000000000e+00  -1.3645802319134268e-03 5.2044132043811968e-02 0.0000000000000000e+00  -4.8635637040145372e-03 8.8338679141127807e-02 0.0000000000000000e+00  -9.9331209077235770e-03 1.1107939671529858e-01 0.0000000000000000e+00  -1.6330342746447350e-02 1.2324542889556535e-01 0.0000000000000000e+00  -2.3957329727402801e-02 1.2770643373281299e-01 0.0000000000000000e+00  -3.2734523310106733e-02 1.2680364794996044e-01 0.0000000000000000e+00  -4.2528100849560546e-02 1.2222903492993370e-01 0.0000000000000000e+00  -5.3118744610930420e-02 1.1506737108165679e-01 0.0000000000000000e+00  -6.4194800390151546e-02 1.0591009727004765e-01 0.0000000000000000e+00  -7.5348794952115272e-02 9.4991580724890501e-02 0.0000000000000000e+00  -8.6063256235496155e-02 8.2331495335582983e-02 0.0000000000000000e+00  -9.5694747785558060e-02 6.7888057740723790e-02 0.0000000000000000e+00  -1.0345999502866178e-01 5.1769144261224365e-02 0.0000000000000000e+00  -1.0853174683037338e-01 3.4539726359483248e-02 0.0000000000000000e+00  -1.1033251365287827e-01 1.7496043179697589e-02 0.0000000000000000e+00  -1.0932845934707144e-01 2.2313883165794878e-03 0.0000000000000000e+00  0.0000000000000000e+00 0.0000000000000000e+00 0.0000000000000000e+00  -1.3909436327352008e-03 5.4628409907662927e-02 0.0000000000000000e+00  -5.0137949543837164e-03 9.2767528745090713e-02 0.0000000000000000e+00  -1.0426556852895058e-02 1.1705074187272144e-01 0.0000000000000000e+00  -1.7525616665658956e-02 1.3066954883894069e-01 0.0000000000000000e+00  -2.6301551099801826e-02 1.3653518520239802e-01 0.0000000000000000e+00  -3.6695753957652698e-02 1.3693101071130759e-01 0.0000000000000000e+00  -4.8535470016545568e-02 1.3344997031556147e-01 0.0000000000000000e+00  -6.1522283930432353e-02 1.2707219056874464e-01 0.0000000000000000e+00  -7.5244662011236280e-02 1.1829210285561430e-01 0.0000000000000000e+00  -8.9185197168934430e-02 1.0724638817850186e-01 0.0000000000000000e+00  -1.0271096394151362e-01 9.3823722648427546e-02 0.0000000000000000e+00  -1.1500659526033642e-01 7.7802901920621115e-02 0.0000000000000000e+00  -1.2495254326580742e-01 5.9126596789229269e-02 0.0000000000000000e+00  -1.3116593354314401e-01 3.8331892612970771e-02 0.0000000000000000e+00  -1.3229941997576611e-01 1.7149740675733830e-02 0.0000000000000000e+00  -1.2819895755751057e-01 -1.5699909715156176e-03 0.0000000000000000e+00  0.0000000000000000e+00 0.0000000000000000e+00 0.0000000000000000e+00  -1.2736385271018380e-03 5.7140274727293744e-02 0.0000000000000000e+00  -4.7020125446619841e-03 9.7219785175002071e-02 0.0000000000000000e+00  -1.0107361861568737e-02 1.2335063919787247e-01 0.0000000000000000e+00  -1.7616856305622302e-02 1.3888000546061352e-01 0.0000000000000000e+00  -2.7345481179620598e-02 1.4667220181720975e-01 0.0000000000000000e+00  -3.9253308247237932e-02 1.4887188702346452e-01 0.0000000000000000e+00  -5.3106766698572630e-02 1.4691681077734248e-01 0.0000000000000000e+00  -6.8501033785707502e-02 1.4165511478143622e-01 0.0000000000000000e+00  -8.4902653894755625e-02 1.3348162763552002e-01 0.0000000000000000e+00  -1.0168881851970410e-01 1.2244283433197704e-01 0.0000000000000000e+00  -1.1814489454369331e-01 1.0830542353681359e-01 0.0000000000000000e+00  -1.3332924289596929e-01 9.0639983489595344e-02 0.0000000000000000e+00  -1.4590360575667521e-01 6.8956924184165574e-02 0.0000000000000000e+00  -1.5383215060255126e-01 4.3256314252705132e-02 0.0000000000000000e+00  -1.5428345445151589e-01 1.5636857083467681e-02 0.0000000000000000e+00  -1.4568791959502639e-01 -8.8223573256939556e-03 0.0000000000000000e+00  0.0000000000000000e+00 0.0000000000000000e+00 0.0000000000000000e+00  -9.5851371167489971e-04 5.9277653432164942e-02 0.0000000000000000e+00  -3.7698356566371097e-03 1.0128672367996848e-01 0.0000000000000000e+00  -8.7067526901763222e-03 1.2959376787170726e-01 0.0000000000000000e+00  -1.6219224555935961e-02 1.4757157011062769e-01 0.0000000000000000e+00  -2.6565178921134282e-02 1.5789796442713600e-01 0.0000000000000000e+00  -3.9704467291132715e-02 1.6247180306513803e-01 0.0000000000000000e+00  -5.5310895008187269e-02 1.6251119212439857e-01 0.0000000000000000e+00  -7.2840981489818976e-02 1.5870755781903256e-01 0.0000000000000000e+00  -9.1618324203392526e-02 1.5136522400779168e-01 0.0000000000000000e+00  -1.1091168274680119e-01 1.4048801093229410e-01 0.0000000000000000e+00  -1.2994389222389061e-01 1.2579315820632286e-01 0.0000000000000000e+00  -1.4783767320469401e-01 1.0659465098648276e-01 0.0000000000000000e+00  -1.6335845904887550e-01 8.1738897039508485e-02 0.0000000000000000e+00  -1.7370256660693531e-01 5.0462206737891133e-02 0.0000000000000000e+00  -1.7425471626646455e-01 1.4422867952593484e-02 0.0000000000000000e+00  -1.6048761552249138e-01 -2.0023196207374919e-02 0.0000000000000000e+00  0.0000000000000000e+00 0.0000000000000000e+00 0.0000000000000000e+00  -4.0189938870511757e-04 6.0654356284498320e-02 0.0000000000000000e+00  -2.1074182957980777e-03 1.0446734297944309e-01 0.0000000000000000e+00  -6.0486205726846508e-03 1.3529678159849373e-01 0.0000000000000000e+00  -1.3055251689943502e-02 1.5630914514020572e-01 0.0000000000000000e+00  -2.3508786057926730e-02 1.6980710842728308e-01 0.0000000000000000e+00  -3.7330936169076845e-02 1.7732282198213492e-01 0.0000000000000000e+00  -5.4071047198122398e-02 1.7979247153465347e-01 0.0000000000000000e+00  -7.3027173779442858e-02 1.7773128915579656e-01 0.0000000000000000e+00  -9.3366594074962922e-02 1.7137102467528098e-01 0.0000000000000000e+00  -1.1422413797624537e-01 1.6073492272004478e-01 0.0000000000000000e+00  -1.3479485011446674e-01 1.4558810837707586e-01 0.0000000000000000e+00  -1.5443623761077255e-01 1.2523000775288556e-01 0.0000000000000000e+00  -1.7215327068055189e-01 9.8294520204110794e-02 0.0000000000000000e+00  -1.8563309512427725e-01 6.2108064400659892e-02 0.0000000000000000e+00  -1.8967592506145792e-01 1.3768122474356661e-02 0.0000000000000000e+00  -1.7321321103773474e-01 -3.4339626352199726e-02 0.0000000000000000e+00  0.0000000000000000e+00 0.0000000000000000e+00 0.0000000000000000e+00  3.8433505540180540e-04 6.0860166646462557e-02 0.0000000000000000e+00  2.0824801125114169e-04 1.0626018456714889e-01 0.0000000000000000e+00  -2.2678185482673859e-03 1.3994188629567925e-01 0.0000000000000000e+00  -8.2089291932777482e-03 1.6452701816634502e-01 0.0000000000000000e+00  -1.8042997824218934e-02 1.8173589397832948e-01 0.0000000000000000e+00  -3.1607136277047282e-02 1.9263068484195470e-01 0.0000000000000000e+00  -4.8321018024716798e-02 1.9782582274538982e-01 0.0000000000000000e+00  -6.7348433310505676e-02 1.9765241067308148e-01 0.0000000000000000e+00  -8.7724694029868738e-02 1.9227879324220165e-01 0.0000000000000000e+00  -1.0846097928782514e-01 1.8177692834717663e-01 0.0000000000000000e+00  -1.2871178198454356e-01 1.6609865935151549e-01 0.0000000000000000e+00  -1.4784834608409084e-01 1.4490498148626935e-01 0.0000000000000000e+00  -1.6552431852298299e-01 1.1665219694658439e-01 0.0000000000000000e+00  -1.8214520156930941e-01 7.6882140821447287e-02 0.0000000000000000e+00  -1.9176429020060243e-01 1.8884569868599637e-02 0.0000000000000000e+00  -1.6977445202774191e-01 -4.6596345801677458e-02 0.0000000000000000e+00  0.0000000000000000e+00 0.0000000000000000e+00 0.0000000000000000e+00  1.2245099795321784e-03 5.9639395899357919e-02 0.0000000000000000e+00  2.6312415971970543e-03 1.0637200462926227e-01 0.0000000000000000e+00  1.7954657633583847e-03 1.4310075967841770e-01 0.0000000000000000e+00  -2.5521662673991296e-03 1.7152957935024918e-01 0.0000000000000000e+00  -1.0752798398429322e-02 1.9264885753722102e-01 0.0000000000000000e+00  -2.2540120633861641e-02 2.0701802135207054e-01 0.0000000000000000e+00  -3.7270535256079734e-02 2.1494110739793340e-01 0.0000000000000000e+00  -5.4087604415843801e-02 2.1657927474003183e-01 0.0000000000000000e+00  -7.2023301899149877e-02 2.1203058873467839e-01 0.0000000000000000e+00  -9.0075633655088222e-02 2.0138761034317651e-01 0.0000000000000000e+00  -1.0728544426714863e-01 1.8477820080086008e-01 0.0000000000000000e+00  -1.2282222679941451e-01 1.6227384879617915e-01 0.0000000000000000e+00  -1.3710905214541552e-01 1.3348179721033082e-01 0.0000000000000000e+00  -1.5184787413386655e-01 9.7068142072487415e-02 0.0000000000000000e+00  -1.6837956892772762e-01 4.5366054616437480e-02 0.0000000000000000e+00  -1.8430486050338685e-01 -3.4199700686373492e-02 0.0000000000000000e+00  0.0000000000000000e+00 0.0000000000000000e+00 0.0000000000000000e+00  1.5368430149514751e-03 5.7312846547126227e-02 0.0000000000000000e+00  3.6477446853698504e-03 1.0512753499493764e-01 0.0000000000000000e+00  3.9809555333565330e-03 1.4464664362379170e-01 0.0000000000000000e+00  1.6439455097129753e-03 1.7649532182804401e-01 0.0000000000000000e+00  -3.4928139412141149e-03 2.0098175256891215e-01 0.0000000000000000e+00  -1.1144430503817714e-02 2.1826239565505962e-01 0.0000000000000000e+00  -2.0800641899085565e-02 2.2841612642071224e-01 0.0000000000000000e+00  -3.1834256581269059e-02 2.3148300398519558e-01 0.0000000000000000e+00  -4.3554224162169058e-02 2.2749164593047874e-01 0.0000000000000000e+00  -5.5224672134293280e-02 2.1648805814440955e-01 0.0000000000000000e+00  -6.6032242780068459e-02 1.9856908498390161e-01 0.0000000000000000e+00  -7.5205215837706021e-02 1.7388633426769107e-01 0.0000000000000000e+00  -8.2031427279500968e-02 1.4294825830920926e-01 0.0000000000000000e+00  -8.5004275986514943e-02 1.0565139613375781e-01 0.0000000000000000e+00  -9.0741988115772873e-02 5.9180281604444621e-02 0.0000000000000000e+00  -7.1127013352946147e-02 6.4701767075509677e-03 0.0000000000000000e+00  0.0000000000000000e+00 0.0000000000000000e+00 0.0000000000000000e+00  0.0000000000000000e+00 5.5725967751663386e-02 0.0000000000000000e+00  0.0000000000000000e+00 1.0402180646977165e-01 0.0000000000000000e+00  0.0000000000000000e+00 1.4488751615432477e-01 0.0000000000000000e+00  0.0000000000000000e+00 1.7832309680532279e-01 0.0000000000000000e+00  0.0000000000000000e+00 2.0432854842276571e-01 0.0000000000000000e+00  0.0000000000000000e+00 2.2290387100665351e-01 0.0000000000000000e+00  0.0000000000000000e+00 2.3404906455698621e-01 0.0000000000000000e+00  0.0000000000000000e+00 2.3776412907