<?xml version="1.0"?>
<VTKFile type="UnstructuredGrid"  version="0.1"  >
<UnstructuredGrid>
<Piece  NumberOfPoints="289" NumberOfCells="512">
<Points>
<DataArray  type="Float64"  NumberOfComponents="3"  format="ascii">0 0 0  0.0625 0 0  0.125 0 0  0.1875 0 0  0.25 0 0  0.3125 0 0  0.375 0 0  0.4375 0 0  0.5 0 0  0.5625 0 0  0.625 0 0  0.6875 0 0  0.75 0 0  0.8125 0 0  0.875 0 0  0.9375 0 0  1 0 0  0 0.0625 0  0.06253557750662647 0.06249008550746338 0  0.1250727600957447 0.06247998599369654 0  0.1876132468880462 0.06246953033172938 0  0.2501589269379587 0.06245858028413562 0  0.3127119938258497 0.06244705151528631 0  0.3752750882848651 0.06243493927853449 0  0.4378514901243997 0.06242234832289707 0  0.5004454021135532 0.06240952363008073 0  0.563062421741011 0.06239687305308646 0  0.6257104349646154 0.06238496261175673 0  0.6884015427396618 0.06237444495392702 0  0.7511567172386562 0.06236583499824487 0  0.8140182148215377 0.06235891088722841 0  0.8770856555141265 0.06235102485188172 0  0.9406297904858292 0.0623315835909914 0  1.005485743280984 0.06226146131717841 0  0 0.125 0  0.06256954753929814 0.124980349316372 0  0.1251422238309805 0.1249603122519912 0  0.1877213414899707 0.1249395283771118 0  0.2503105854518242 0.1249176994105257 0  0.312914236819923 0.1248946303061532 0  0.3755374483447081 0.1248702812695371 0  0.4381866049140069 0.1248448312973719 0  0.5008698283911106 0.1248187490983237 0  0.563597744244889 0.1247928582803053 0  0.6263847582603175 0.1247683681272116 0  0.6892513810768737 0.1247468175017827 0  0.7522287389469083 0.1247298537484887 0  0.8153674357436231 0.1247187915234751 0  0.8787534875283477 0.1247142390367419 0  0.9425265897941051 0.1247180680199634 0  1.006837672679176 0.1247497795713739 0  0 0.1875 0  0.0626003946256211 0.1874709944663673 0  0.1252052724723189 0.1874413712641579 0  0.1878193788457395 0.1874105467944695 0  0.2504479915863298 0.1873780208434792 0  0.3130972393445258 0.1873434349681034 0  0.3757744873521943 0.1873066504811952 0  0.4384888244686 0.1872678502108223 0  0.5012516983967394 0.1872276634709473 0  0.5640777672814724 0.1871873035890252 0  0.6269860650025615 0.1871486879589648 0  0.6900015907755443 0.1871144760649316 0  0.7531573055420335 0.1870879014004788 0  0.8164957560579545 0.1870721608628814 0  0.8800665570552434 0.1870688262774694 0  0.9439066711303677 0.1870735207134412 0  1.007969802183785 0.1870610408762352 0  0 0.25 0  0.06262677680154377 0.2499622537081699 0  0.1252591447167416 0.2499236191360574 0  0.1879030174240215 0.2498832437829512 0  0.2505649675421693 0.2498403663004403 0  0.313252619750537 0.2497943862145911 0  0.3759751234060847 0.2497449640020201 0  0.4387437353022089 0.2496921622254421 0  0.5015725402905609 0.2496366362696104 0  0.5644793188092968 0.2495798759249105 0  0.6274865078648645 0.249524481447958 0  0.6906220249728575 0.2494744210751333 0  0.7539192623331077 0.2494351473488689 0  0.8174144397805945 0.2494133266227196 0  0.8811371071618987 0.2494157442435782 0  0.9450856632741397 0.2494468044884646 0  1.009177992385869 0.249505128420878 0  0 0.3125 0  0.06264759831984479 0.3124543986487035 0  0.1253015879262989 0.3124075965005807 0  0.1879687204198043 0.3123584212043932 0  0.2506564893213682 0.3123057797159104 0  0.3133735756677455 0.3122487288252072 0  0.376130387099281 0.3121865869940267 0  0.4389397247591116 0.3121191071064024 0  0.5018176039637747 0.3120467331757549 0  0.5647842209778698 0.311970964786962 0  0.6278649645994473 0.3118948456287984 0  0.6910911491190971 0.3118235663154285 0  0.7544996767532807 0.3117651087507805 0  0.8181299773255216 0.3117307354493604 0  0.8820153434225207 0.3117349318440791 0  0.9461650909981975 0.3117942165816859 0  1.010537256179372 0.3119243027272232 0  0 0.375 0  0.06266206587804046 0.3749477420636583 0  0.1253309754728719 0.3748939359252421 0  0.1880139435805718 0.3748370432142226 0  0.2507189570889804 0.3747755677840209 0  0.3134552458295903 0.3747081112273505 0  0.376233864527532 0.374633477342735 0  0.4390684356357983 0.3745508544689687 0  0.5019761060050175 0.3744601163499899 0  0.564978756268094 0.3743622965467175 0  0.6281044426229621 0.3742603045898537 0  0.6913888945139375 0.3741599531676147 0  0.7548765619514153 0.3740713293678678 0  0.8186201449188326 0.3740104202577946 0  0.8826768785183782 0.3740006187033846 0  0.9470998280452627 0.37407321615405 0  1.011924845676373 0.3742652257645402 0  0 0.4375 0  0.06266972491927954 0.4374426306501153 0  0.1253463837064892 0.4373833497729693 0  0.1880372617906323 0.4373202248222817 0  0.2507503849297443 0.4372513000764016 0  0.313494979457512 0.4371746167991012 0  0.3762820588811437 0.4370882819995529 0  0.4391252103613529 0.4369906209942476 0  0.5020416848662186 0.4368804700797828 0  0.5650539321670425 0.4367576977299855 0  0.6281917552991894 0.4366240875581627 0  0.6914952577846455 0.4364847689786758 0  0.7550186561286519 0.436350416803441 0  0.8188347316437091 0.4362403841283441 0  0.8830391412371016 0.4361866158148291 0  0.9477532413980391 0.4362373404288862 0  1.013124537489322 0.4364579681158428 0  0 0.5 0  0.06267047283920792 0.499939425939642 0  0.1253476219520495 0.4998765930375468 0  0.1880384243843866 0.4998091796800717 0  0.250750498214205 0.499734749300333 0  0.3134925062769011 0.4996507132567183 0  0.3762746864663419 0.4995543293739648 0  0.4391096024167132 0.4994427700799422 0  0.5020132728657567 0.4993133220932461 0  0.5650069472982859 0.4991638285404604 0  0.6281199700345625 0.4989935667097087 0  0.6913944267771208 0.4988048845559298 0  0.7548925619271127 0.4986060979283661 0  0.818708123837916 0.4984163166121474 0  0.8829824224574979 0.4982727652506662 0  0.9479244107001503 0.4982401179180955 0  1.013832032277385 0.4984182194439106 0  0 0.5625 0  0.06266454615346684 0.5624384724422891 0  0.1253352082364249 0.5623743982402766 0  0.1880183244194881 0.562305119742422 0  0.250720710863876 0.5622277552762699 0  0.3134499577646262 0.5621390865767018 0  0.37621482275441 0.5620354539228721 0  0.4390258153072262 0.5619126798749324 0  0.5018961559602411 0.5617660698442644 0  0.5648434713545816 0.5615905926438242 0  0.6278929221842821 0.5613814528505893 0  0.6910830636581474 0.5611354770658111 0  0.7544767154843911 0.5608541239040801 0  0.8181804089060554 0.5605495663674024 0  0.8823768607170894 0.5602560536094329 0  0.9473732380916298 0.560048569208597 0  1.013660932482307 0.5600662299333434 0  0 0.625 0  0.0626524800457496 0.6249400544659316 0  0.1253102853591967 0.6248773844484202 0  0.1879788671419763 0.6248091073714891 0  0.2506639467489472 0.6247320072157145 0  0.3133716602521331 0.624642339103228 0  0.3761087338062069 0.6245356007969471 0  0.4388827472250179 0.6244062658617493 0  0.5017026293154622 0.624247487568857 0  0.5645797272853939 0.6240508203956537 0  0.6275302368161141 0.6238061003403018 0  0.6905807342471132 0.623501855256399 0  0.753780487632158 0.6231271671968452 0  0.8172277564735912 0.6226771825293097 0  0.8811224038700121 0.6221671263670729 0  0.9458601132498213 0.6216635995693456 0  1.012172308333824 0.621339898386795 0  0 0.6875 0  0.06263504217832501 0.6874443462221531 0  0.1252744791356342 0.6873859495058918 0  0.187922733985195 0.6873218727853333 0  0.2505842831537624 0.6872487587064838 0  0.3132636309819227 0.6871625613924559 0  0.375965218826203 0.6870581998676605 0  0.4386932500410721 0.6869290931239602 0  0.5014514468631428 0.6867665257517411 0  0.5642428792333181 0.6865587850294687 0  0.6270703788606222 0.6862900242326447 0  0.689939083896757 0.6859389075764577 0  0.7528653487534479 0.6854774991083051 0  0.8159028193255214 0.6848723069096215 0  0.8792107807034514 0.6840942519481872 0  0.9432126060044531 0.6831588561439312 0  1.008890082628912 0.6822424334536806 0  0 0.75 0  0.06261314818549608 0.7499513631043487 0  0.1252297135324115 0.749900162231437 0  0.1878530626228371 0.7498436243345226 0  0.2504864361296412 0.7497785158756499 0  0.3131327761869938 0.7497008323697685 0  0.3757943898658003 0.7496053734279914 0  0.4384723333111168 0.7494851310846684 0  0.5011653403862552 0.749330378989651 0  0.5638680538791194 0.7491272818872555 0  0.6265683318268681 0.7488557291660758 0  0.6892438377859182 0.7484859054268344 0  0.7518601842074805 0.7479728480918515 0  0.8143805422657432 0.7472482400279351 0  0.8768220751505896 0.7462114569627297 0  0.9394691306212549 0.7447432976367279 0  1.003450521052109 0.7429018260347907 0  0 0.8125 0  0.0625877724605875 0.8124609243215951 0  0.1251780128326118 0.8124196771650312 0  0.1877730955933486 0.8123738914277355 0  0.2503751706955295 0.8123207641101466 0  0.3129859109004781 0.8122567515882736 0  0.3756060357132006 0.8121771374006361 0  0.4382344217532629 0.8120753847380847 0  0.5008664504861607 0.8119421280736631 0  0.5634909434210602 0.8117635514192042 0  0.6260844830285188 0.8115186922838575 0  0.6886009975328287 0.8111747699450483 0  0.7509534198990545 0.8106786054870548 0  0.8129855235723521 0.8099395486434382 0  0.8744504696803903 0.8087922420529967 0  0.9351296461595817 0.8069108289368589 0  0.9959949716673049 0.8036473798410338 0  0 0.875 0  0.06255987200008392 0.8749726372052088 0  0.1251213322927675 0.8749436955115473 0  0.1876858765484327 0.8749114440717374 0  0.2502547788545922 0.8748738109293532 0  0.3128288531400249 0.8748281390521774 0  0.375408004372963 0.874770832988512 0  0.4379903735638511 0.8746968181255672 0  0.5005706874847168 0.8745986816695677 0  0.5631370074498483 0.8744652688027119 0  0.625664143091791 0.8742793301776751 0  0.6880998586158884 0.8740134657350006 0  0.7503349388813794 0.8736227967794228 0  0.8121360773836633 0.8730303444445096 0  0.8729925005127825 0.8720914052683402 0  0.9317733731969831 0.8704783625995496 0  0.9860886540547873 0.8671910963661557 0  0 0.9375 0  0.06253034019693937 0.9374859107013668 0  0.1250614580933849 0.9374709901395321 0  0.1875940765080062 0.9374543240258779 0  0.2501287871592781 0.9374348109197608 0  0.3126659115578219 0.9374110267171163 0  0.3752052391091489 0.9373810263110123 0  0.4377455233838283 0.93734
[...]
<PointData  Vectors="f_95-0"> 
<DataArray  type="Float64"  Name="f_95-0"  NumberOfComponents="3" format="ascii">0.0000000000000000e+00 0.0000000000000000e+00 0.0000000000000000e+00  -1.8308865508060199e-04 3.9929701713274951e-02 0.0000000000000000e+00  -5.4447569235863092e-04 6.9476679835940053e-02 0.0000000000000000e+00  -1.0176501608105404e-03 8.8548686280712260e-02 0.0000000000000000e+00  -1.5900843677294279e-03 9.8578697167969201e-02 0.0000000000000000e+00  -2.2378395439643212e-03 1.0151490172820352e-01 0.0000000000000000e+00  -2.9452770186613316e-03 9.9293044529339847e-02 0.0000000000000000e+00  -3.7036473742256431e-03 9.3563026620751444e-02 0.0000000000000000e+00  -4.5080374046171066e-03 8.5590729538829263e-02 0.0000000000000000e+00  -5.3530806307683816e-03 7.6266629723471244e-02 0.0000000000000000e+00  -6.2286807157438812e-03 6.6170164105680496e-02 0.0000000000000000e+00  -7.1155857330757240e-03 5.5654027787099165e-02 0.0000000000000000e+00  -7.9826191021139213e-03 4.4927739671495472e-02 0.0000000000000000e+00  -8.7689919693397893e-03 3.4115697540878870e-02 0.0000000000000000e+00  -9.3863132496747031e-03 2.3337622209048330e-02 0.0000000000000000e+00  -9.9390681535191788e-03 1.2729045040956738e-02 0.0000000000000000e+00  -5.1834686504466107e-03 5.0454099066248245e-03 0.0000000000000000e+00  0.0000000000000000e+00 0.0000000000000000e+00 0.0000000000000000e+00  -1.9612310633154576e-04 4.0274212276513642e-02 0.0000000000000000e+00  -6.6364591667608956e-04 6.9968929936742294e-02 0.0000000000000000e+00  -1.3020107736143262e-03 8.9154731721563657e-02 0.0000000000000000e+00  -2.0673387020366842e-03 9.9263328358828298e-02 0.0000000000000000e+00  -2.9229254882592696e-03 1.0225239086802045e-01 0.0000000000000000e+00  -3.8471460455674444e-03 1.0006759058539283e-01 0.0000000000000000e+00  -4.8271291317924731e-03 9.4365424983548704e-02 0.0000000000000000e+00  -5.8541991291359615e-03 8.6413175203706741e-02 0.0000000000000000e+00  -6.9184254243813614e-03 7.7097451608997572e-02 0.0000000000000000e+00  -8.0040903291703474e-03 6.6989053104061669e-02 0.0000000000000000e+00  -9.0862139817833951e-03 5.6427465360733974e-02 0.0000000000000000e+00  -1.0126634040392012e-02 4.5600764064341014e-02 0.0000000000000000e+00  -1.1066791949696295e-02 3.4607680649535275e-02 0.0000000000000000e+00  -1.1853906855487572e-02 2.3494616171499678e-02 0.0000000000000000e+00  -1.2164874247465011e-02 1.2194034969397572e-02 0.0000000000000000e+00  -1.2731062195582777e-02 1.7097277004910394e-03 0.0000000000000000e+00  0.0000000000000000e+00 0.0000000000000000e+00 0.0000000000000000e+00  -2.9236689178741270e-04 4.0738405295453063e-02 0.0000000000000000e+00  -1.0512917721925300e-03 7.0732849133818831e-02 0.0000000000000000e+00  -2.1229288645709995e-03 9.0109873462520224e-02 0.0000000000000000e+00  -3.4010094434797624e-03 1.0033971380465136e-01 0.0000000000000000e+00  -4.8169797176775110e-03 1.0340557361047031e-01 0.0000000000000000e+00  -6.3309103048935266e-03 1.0127106681885190e-01 0.0000000000000000e+00  -7.9176351653917378e-03 9.5602118553950316e-02 0.0000000000000000e+00  -9.5569079429354727e-03 8.7667084738744683e-02 0.0000000000000000e+00  -1.1225083163340782e-02 7.8347031269625791e-02 0.0000000000000000e+00  -1.2890072957245407e-02 6.8202702751093428e-02 0.0000000000000000e+00  -1.4509013786377853e-02 5.7560702331663889e-02 0.0000000000000000e+00  -1.6028498043681623e-02 4.6594674336652715e-02 0.0000000000000000e+00  -1.7388170172116899e-02 3.5387450269560868e-02 0.0000000000000000e+00  -1.8514027031946014e-02 2.3965334028945847e-02 0.0000000000000000e+00  -1.9364804746560469e-02 1.2329648012119592e-02 0.0000000000000000e+00  -1.9857618981161566e-02 7.3909205956589855e-04 0.0000000000000000e+00  0.0000000000000000e+00 0.0000000000000000e+00 0.0000000000000000e+00  -4.6222931864787456e-04 4.1462400136554813e-02 0.0000000000000000e+00  -1.6599266007077545e-03 7.1956825572963540e-02 0.0000000000000000e+00  -3.3567146042239354e-03 9.1653687242340437e-02 0.0000000000000000e+00  -5.3791693079551939e-03 1.0208443807352752e-01 0.0000000000000000e+00  -7.6192610509759583e-03 1.0527885265121344e-01 0.0000000000000000e+00  -1.0012165649972656e-02 1.0322927798582862e-01 0.0000000000000000e+00  -1.2514600568309192e-02 9.7613721948449444e-02 0.0000000000000000e+00  -1.5087689955968354e-02 8.9699715862279483e-02 0.0000000000000000e+00  -1.7685171653468324e-02 8.0359124337303953e-02 0.0000000000000000e+00  -2.0247593397184290e-02 7.0139621038739011e-02 0.0000000000000000e+00  -2.2701731202333476e-02 5.9355153398900400e-02 0.0000000000000000e+00  -2.4965441639930110e-02 4.8171425840133959e-02 0.0000000000000000e+00  -2.6955382002979852e-02 3.6672515434210746e-02 0.0000000000000000e+00  -2.8605529721908718e-02 2.4904493999623519e-02 0.0000000000000000e+00  -2.9862354398267617e-02 1.2888115566575072e-02 0.0000000000000000e+00  -3.0679756511160415e-02 7.1766716712301038e-04 0.0000000000000000e+00  0.0000000000000000e+00 0.0000000000000000e+00 0.0000000000000000e+00  -6.7179205515955167e-04 4.2544662960212101e-02 0.0000000000000000e+00  -2.4030198188875087e-03 7.3781604503691117e-02 0.0000000000000000e+00  -4.8518137824588633e-03 9.3962157553264827e-02 0.0000000000000000e+00  -7.7786382461183983e-03 1.0470696133505097e-01 0.0000000000000000e+00  -1.1036441629838162e-02 1.0811286379283269e-01 0.0000000000000000e+00  -1.4535208592370241e-02 1.0621037809694725e-01 0.0000000000000000e+00  -1.8210388440702781e-02 1.0069044220565279e-01 0.0000000000000000e+00  -2.1998268724959382e-02 9.2815537531579784e-02 0.0000000000000000e+00  -2.5820744930557256e-02 8.3442127343731090e-02 0.0000000000000000e+00  -2.9578772996463429e-02 7.3099275812237505e-02 0.0000000000000000e+00  -3.3153395057452045e-02 6.2085908139754405e-02 0.0000000000000000e+00  -3.6414431294314202e-02 5.0563158196679496e-02 0.0000000000000000e+00  -3.9235733148372684e-02 3.8627928369850052e-02 0.0000000000000000e+00  -4.1518609677407600e-02 2.6358102157865375e-02 0.0000000000000000e+00  -4.3199508439889268e-02 1.3823397391054324e-02 0.0000000000000000e+00  -4.4295398594944288e-02 1.0228169118252073e-03 0.0000000000000000e+00  0.0000000000000000e+00 0.0000000000000000e+00 0.0000000000000000e+00  -8.9592095701598049e-04 4.4032894686547204e-02 0.0000000000000000e+00  -3.1999266673435754e-03 7.6285899491204220e-02 0.0000000000000000e+00  -6.4641938634117293e-03 9.7143701464836349e-02 0.0000000000000000e+00  -1.0391563469834537e-02 1.0835074033995551e-01 0.0000000000000000e+00  -1.4803944478296645e-02 1.1208974567026261e-01 0.0000000000000000e+00  -1.9590455605652646e-02 1.1043511507133880e-01 0.0000000000000000e+00  -2.4664076676055843e-02 1.0508750758254810e-01 0.0000000000000000e+00  -2.9930217101261078e-02 9.7296264326973692e-02 0.0000000000000000e+00  -3.5268673866270923e-02 8.7892708104487294e-02 0.0000000000000000e+00  -4.0526629042190725e-02 7.7378214684483457e-02 0.0000000000000000e+00  -4.5520841171843733e-02 6.6030044244649297e-02 0.0000000000000000e+00  -5.0049450288753662e-02 5.4002566877982681e-02 0.0000000000000000e+00  -5.3912875334026784e-02 4.1410196276094186e-02 0.0000000000000000e+00  -5.6951267455866206e-02 2.8379326127854460e-02 0.0000000000000000e+00  -5.9075940654729674e-02 1.5049186273072140e-02 0.0000000000000000e+00  -6.0358353423701459e-02 1.4560318190890891e-03 0.0000000000000000e+00  0.0000000000000000e+00 0.0000000000000000e+00 0.0000000000000000e+00  -1.1131969741802411e-03 4.5934254513826808e-02 0.0000000000000000e+00  -3.9780745815768560e-03 7.9489295344601210e-02 0.0000000000000000e+00  -8.0593067003161458e-03 1.0124382695770008e-01 0.0000000000000000e+00  -1.3023382952683188e-02 1.1310175499419584e-01 0.0000000000000000e+00  -1.8677735421042056e-02 1.1734563589461161e-01 0.0000000000000000e+00  -2.4898959407172568e-02 1.1609259494053349e-01 0.0000000000000000e+00  -3.1577440034634391e-02 1.1104327520897740e-01 0.0000000000000000e+00  -3.8580862155849362e-02 1.0342061944355124e-01 0.0000000000000000e+00  -4.5735099578942680e-02 9.4017075327360533e-02 0.0000000000000000e+00  -5.2817797093426190e-02 8.3293138232184649e-02 0.0000000000000000e+00  -5.9560934504191490e-02 7.1491947452002741e-02 0.0000000000000000e+00  -6.5662786747472973e-02 5.8751407973057002e-02 0.0000000000000000e+00  -7.0812630051001565e-02 4.5202033921568900e-02 0.0000000000000000e+00  -7.4744782252165437e-02 3.1034557321769244e-02 0.0000000000000000e+00  -7.7300462264110803e-02 1.6512001788835610e-02 0.0000000000000000e+00  -7.8588053659662913e-02 1.7921569228823283e-03 0.0000000000000000e+00  0.0000000000000000e+00 0.0000000000000000e+00 0.0000000000000000e+00  -1.3018014844671892e-03 4.8216431616600171e-02 0.0000000000000000e+00  -4.6623519852787652e-03 8.3351429510906974e-02 0.0000000000000000e+00  -9.4962669970372303e-03 1.0624465198856789e-01 0.0000000000000000e+00  -1.5470418401375235e-02 1.1899054285036022e-01 0.0000000000000000e+00  -2.2403335684163968e-02 1.2397519122511667e-01 0.0000000000000000e+00  -3.0170747861719208e-02 1.2334617704736033e-01 0.0000000000000000e+00  -3.8640005416830797e-02 1.1878539678933660e-01 0.0000000000000000e+00  -4.7632223474807528e-02 1.1147023877588995e-01 0.0000000000000000e+00  -5.6905970647922924e-02 1.0213678604032388e-01 0.0000000000000000e+00  -6.6153525970109470e-02 9.1187853833497437e-02 0.0000000000000000e+00  -7.5002122993000450e-02 7.8814927410644275e-02 0.0000000000000000e+00  -8.3021547035396479e-02 6.5120358991075808e-02 0.0000000000000000e+00  -8.9745323041496072e-02 5.0233446042556480e-02 0.0000000000000000e+00  -9.4733041630109899e-02 3.4413602854212189e-02 0.0000000000000000e+00  -9.7669954295776046e-02 1.8106147307766610e-02 0.0000000000000000e+00  -9.8632806852129523e-02 1.7099743705278716e-03 0.0000000000000000e+00  0.0000000000000000e+00 0.0000000000000000e+00 0.0000000000000000e+00  -1.4349777224448963e-03 5.0803057826698791e-02 0.0000000000000000e+00  -5.1621978824698518e-03 8.7764840762875815e-02 0.0000000000000000e+00  -1.0607014627666484e-02 1.1205759552949007e-01 0.0000000000000000e+00  -1.7490597922704073e-02 1.2598577030412647e-01 0.0000000000000000e+00  -2.5676295884381937e-02 1.3202519859693065e-01 0.0000000000000000e+00  -3.5051876264152682e-02 1.3232548023814728e-01 0.0000000000000000e+00  -4.5458613777556632e-02 1.2851972481925675e-01 0.0000000000000000e+00  -5.6658925925084785e-02 1.2171463060802931e-01 0.0000000000000000e+00  -6.8329316809068882e-02 1.1257060781514000e-01 0.0000000000000000e+00  -8.0062147682612300e-02 1.0141667746133673e-01 0.0000000000000000e+00  -9.1366605678781798e-02 8.8372257594433914e-02 0.0000000000000000e+00  -1.0166576087773573e-01 7.3468899838772542e-02 0.0000000000000000e+00  -1.1029308600064357e-01 5.6790860798488850e-02 0.0000000000000000e+00  -1.1654005934308338e-01 3.8644097785155103e-02 0.0000000000000000e+00  -1.1979589609955600e-01 1.9698567800762849e-02 0.0000000000000000e+00  -1.1994519475263656e-01 7.4897266244750981e-04 0.0000000000000000e+00  0.0000000000000000e+00 0.0000000000000000e+00 0.0000000000000000e+00  -1.4774117587433501e-03 5.3561821448782770e-02 0.0000000000000000e+00  -5.3617537837669753e-03 9.2539782212346211e-02 0.0000000000000000e+00  -1.1180548885621099e-02 1.1850842443573570e-01 0.0000000000000000e+00  -1.8780868515894274e-02 1.3397879257027137e-01 0.0000000000000000e+00  -2.8109516975005945e-02 1.4147590096334745e-01 0.0000000000000000e+00  -3.9076495176727573e-02 1.4310156927231155e-01 0.0000000000000000e+00  -5.1488462837586423e-02 1.4039719237877915e-01 0.0000000000000000e+00  -6.5032393338755337e-02 1.3436902186433569e-01 0.0000000000000000e+00  -7.9285616170374079e-02 1.2558512683653536e-01 0.0000000000000000e+00  -9.3729998338858728e-02 1.1429029070965831e-01 0.0000000000000000e+00  -1.0775991122607541e-01 1.0051249530215396e-01 0.0000000000000000e+00  -1.2065291763444283e-01 8.4174561090950409e-02 0.0000000000000000e+00  -1.3152263630893177e-01 6.5249397098791462e-02 0.0000000000000000e+00  -1.3930769230317785e-01 4.3979791760859643e-02 0.0000000000000000e+00  -1.4289071685209764e-01 2.1205529345669442e-02 0.0000000000000000e+00  -1.4164585991018827e-01 -1.6554360981275108e-03 0.0000000000000000e+00  0.0000000000000000e+00 0.0000000000000000e+00 0.0000000000000000e+00  -1.3841749533580177e-03 5.6288716095530461e-02 0.0000000000000000e+00  -5.1191644582688671e-03 9.7386269700939776e-02 0.0000000000000000e+00  -1.0964084544747970e-02 1.2531943537403947e-01 0.0000000000000000e+00  -1.8977441946973792e-02 1.4276193363134332e-01 0.0000000000000000e+00  -2.9225794953905843e-02 1.5221001446016777e-01 0.0000000000000000e+00  -4.1643202432556217e-02 1.5564275480573941e-01 0.0000000000000000e+00  -5.5985190203521461e-02 1.5445452387541483e-01 0.0000000000000000e+00  -7.1841065366907472e-02 1.4951968779852570e-01 0.0000000000000000e+00  -8.8669958503722279e-02 1.4130362422760451e-01 0.0000000000000000e+00  -1.0584004324652310e-01 1.2996922967960139e-01 0.0000000000000000e+00  -1.2264568729463757e-01 1.1546022330642085e-01 0.0000000000000000e+00  -1.3825497365980993e-01 9.7572535757364950e-02 0.0000000000000000e+00  -1.5164334212602101e-01 7.6030868742168300e-02 0.0000000000000000e+00  -1.6135626346290655e-01 5.0768677414748491e-02 0.0000000000000000e+00  -1.6548850458468189e-01 2.2652513904783511e-02 0.0000000000000000e+00  -1.6231808532364367e-01 -6.0262902223270675e-03 0.0000000000000000e+00  0.0000000000000000e+00 0.0000000000000000e+00 0.0000000000000000e+00  -1.1053121569336234e-03 5.8696071896672176e-02 0.0000000000000000e+00  -4.2854659852457804e-03 1.0190484425640749e-01 0.0000000000000000e+00  -9.6988466400127760e-03 1.3209902804762433e-01 0.0000000000000000e+00  -1.7701011066312642e-02 1.5200633141576528e-01 0.0000000000000000e+00  -2.8499197078747707e-02 1.6397039444554448e-01 0.0000000000000000e+00  -4.2038921640225567e-02 1.6974852676862123e-01 0.0000000000000000e+00  -5.8000404769464692e-02 1.7052485054453120e-01 0.0000000000000000e+00  -7.5851442190160864e-02 1.6701230534389389e-01 0.0000000000000000e+00  -9.4917172912980616e-02 1.5957204186538290e-01 0.0000000000000000e+00  -1.1444892405996439e-01 1.4831015045457885e-01 0.0000000000000000e+00  -1.3365537884279291e-01 1.3312941805345258e-01 0.0000000000000000e+00  -1.5170603255690351e-01 1.1370159724521833e-01 0.0000000000000000e+00  -1.6761194308669647e-01 8.9436511798621748e-02 0.0000000000000000e+00  -1.7960423033765524e-01 5.9782546062895854e-02 0.0000000000000000e+00  -1.8504239620687507e-01 2.4950393492119149e-02 0.0000000000000000e+00  -1.8010203593520366e-01 -1.2432467925390437e-02 0.0000000000000000e+00  0.0000000000000000e+00 0.0000000000000000e+00 0.0000000000000000e+00  -6.0267645214475069e-04 6.0419186070207229e-02 0.0000000000000000e+00  -2.7614453876623614e-03 1.0560686687015690e-01 0.0000000000000000e+00  -7.2177951439072185e-03 1.3835476976323793e-01 0.0000000000000000e+00  -1.4677310531796026e-02 1.6124674264532518e-01 0.0000000000000000e+00  -2.5474656433556325e-02 1.7630623903156190e-01 0.0000000000000000e+00  -3.9537074960164752e-02 1.8495730111010708e-01 0.0000000000000000e+00  -5.6445778309617320e-02 1.8811343477917666e-01 0.0000000000000000e+00  -7.5535545729045611e-02 1.8630365032162127e-01 0.0000000000000000e+00  -9.5995082472210988e-02 1.7979132505154391e-01 0.0000000000000000e+00  -1.1695431818148735e-01 1.6866165339195643e-01 0.0000000000000000e+00  -1.3755775812491547e-01 1.5284450062253185e-01 0.0000000000000000e+00  -1.5706547415246686e-01 1.3203668991004561e-01 0.0000000000000000e+00  -1.7464692337235613e-01 1.0554530443621772e-01 0.0000000000000000e+00  -1.8903273596048359e-01 7.1815698518006538e-02 0.0000000000000000e+00  -1.9743123796047946e-01 2.8756813953501555e-02 0.0000000000000000e+00  -1.9266690535763720e-01 -1.9616689198001146e-02 0.0000000000000000e+00  0.0000000000000000e+00 0.0000000000000000e+00 0.0000000000000000e+00  1.0845592272396221e-04 6.1075019140297712e-02 0.0000000000000000e+00  -6.2358349230335448e-04 1.0800088262378474e-01 0.0000000000000000e+00  -3.6439147587342615e-03 1.4355228727795610e-01 0.0000000000000000e+00  -9.9694895431827885e-03 1.6988066518185993e-01 0.0000000000000000e+00  -1.9997206345937549e-02 1.8850531212821875e-01 0.0000000000000000e+00  -3.3597314079347212e-02 2.0042104683859463e-01 0.0000000000000000e+00  -5.0250236696666388e-02 2.0623238308722419e-01 0.0000000000000000e+00  -6.9184905204290298e-02 2.0627692406983431e-01 0.0000000000000000e+00  -8.9490773217357211e-02 2.0072788985931403e-01 0.0000000000000000e+00  -1.1020565558131562e-01 1.8966964823419180e-01 0.0000000000000000e+00  -1.3041702529302951e-01 1.7312902200478666e-01 0.0000000000000000e+00  -1.4936518266463950e-01 1.5103011590096910e-01 0.0000000000000000e+00  -1.6652253221825028e-01 1.2282274394876325e-01 0.0000000000000000e+00  -1.8225539382018671e-01 8.6481506386285267e-02 0.0000000000000000e+00  -1.9466899018499650e-01 3.7727974906953184e-02 0.0000000000000000e+00  -1.9254554855768283e-01 -2.3580083955352622e-02 0.0000000000000000e+00  0.0000000000000000e+00 0.0000000000000000e+00 0.0000000000000000e+00  8.6613562924866118e-04 6.0427419100054780e-02 0.0000000000000000e+00  1.6337126501828015e-03 1.0878184108594435e-01 0.0000000000000000e+00  2.7027799331110489e-04 1.4722918379113836e-01 0.0000000000000000e+00  -4.3506132291684435e-03 1.7717409441256338e-01 0.0000000000000000e+00  -1.2571034006874029e-02 1.9949849290667521e-01 0.0000000000000000e+00  -2.4185582283291374e-02 2.1473397678098138e-01 0.0000000000000000e+00  -3.8631271902573483e-02 2.2318528494908360e-01 0.0000000000000000e+00  -5.5134519361827020e-02 2.2501660111215457e-01 0.0000000000000000e+00  -7.2807751801623577e-02 2.2031785745083035e-01 0.0000000000000000e+00  -9.0713114500111311e-02 2.0915983074533620e-01 0.0000000000000000e+00  -1.0791330398750161e-01 1.9164528417358057e-01 0.0000000000000000e+00  -1.2352299871615033e-01 1.6792968978537753e-01 0.0000000000000000e+00  -1.3714758037654393e-01 1.3811187122601204e-01 0.0000000000000000e+00  -1.4943281904898931e-01 1.0193323123280001e-01 0.0000000000000000e+00  -1.6158885828534422e-01 5.5851654271756618e-02 0.0000000000000000e+00  -1.7873589734418402e-01 -1.1634158943384392e-02 0.0000000000000000e+00  0.0000000000000000e+00 0.0000000000000000e+00 0.0000000000000000e+00  1.1701143824401573e-03 5.8746480057293070e-02 0.0000000000000000e+00  2.7091909335902201e-03 1.0818147231102680e-01 0.0000000000000000e+00  2.6580718277525537e-03 1.4918738451730315e-01 0.0000000000000000e+00  2.0007693660263032e-04 1.8228285509644618e-01 0.0000000000000000e+00  -4.8286278132902687e-03 2.0774603299057542e-01 0.0000000000000000e+00  -1.2208612279738891e-02 2.2572980364415873e-01 0.0000000000000000e+00  -2.1499543678573294e-02 2.3631678513206025e-01 0.0000000000000000e+00  -3.2142027780497608e-02 2.3954955093820457e-01 0.0000000000000000e+00  -4.3513942626344615e-02 2.3545306634260732e-01 0.0000000000000000e+00  -5.4955187241058315e-02 2.2405709629848175e-01 0.0000000000000000e+00  -6.5754205148039327e-02 2.0542629514683208e-01 0.0000000000000000e+00  -7.5147302797566540e-02 1.7969325138977088e-01 0.0000000000000000e+00  -8.2299404224494846e-02 1.4721367002569621e-01 0.0000000000000000e+00  -8.5975610726698196e-02 1.0854086710933408e-01 0.0000000000000000e+00  -8.8321952818871965e-02 6.3586673353713083e-02 0.0000000000000000e+00  -7.7677148343424082e-02 2.5643483906791662e-03 0.0000000000000000e+00  0.0000000000000000e+00 6.8374423635027462e-18 0.0000000000000000e+00  0.0000000000000000e+00 5.7555893597384167e-02 0.0000000000000000e+00  0.0000000000000000e+00 1.0743766804845047e-01 0.0000000000000000e+00  0.0000000000000000e+00 1.4964532335319883e-01 0.0000000000000000e+00  0.0000000000000000e+00 1.8417885951162935e-01 0.0000000000000000e+00  0.0000000000000000e+00 2.1103827652374196e-01 0.0000000000000000e+00  0.0000000000000000e+00 2.3022357438953667e-01 0.0000000000000000e+00  0.0000000000000000e+00 2.4173475310901352e-01 0.0000000000000000e+00  0.0000000000000000e+00 2.455718126