<?xml version="1.0"?>
<VTKFile type="UnstructuredGrid"  version="0.1"  >
<UnstructuredGrid>
<Piece  NumberOfPoints="289" NumberOfCells="512">
<Points>
<DataArray  type="Float64"  NumberOfComponents="3"  format="ascii">0 0 0  0.0625 0 0  0.125 0 0  0.1875 0 0  0.25 0 0  0.3125 0 0  0.375 0 0  0.4375 0 0  0.5 0 0  0.5625 0 0  0.625 0 0  0.6875 0 0  0.75 0 0  0.8125 0 0  0.875 0 0  0.9375 0 0  1 0 0  0 0.0625 0  0.06258612433598405 0.06249152501291479 0  0.1251749406985742 0.06248285697806298 0  0.1877691818753529 0.06247381075550431 0  0.2503716185138306 0.06246422104707271 0  0.3129850597598139 0.06245395663118928 0  0.3756123306697457 0.06244293968499463 0  0.4382562209413072 0.06243117132727163 0  0.5009194081725015 0.06241876334067118 0  0.5636043853664651 0.06240597341307872 0  0.6263134979091159 0.06239323573303689 0  0.6890494103523231 0.06238116693456823 0  0.751816958369379 0.06237049844733436 0  0.8146293150669794 0.06236179863413949 0  0.8775278822384794 0.06235452281373658 0  0.9406477914641794 0.06234358515648796 0  1.004444051401136 0.06230631430247623 0  0 0.125 0  0.06266964077627868 0.124983238933612 0  0.125344663600608 0.1249660819191046 0  0.1880305412807943 0.1249481471005153 0  0.2507328456400733 0.1249290886608676 0  0.3134572621398123 0.1249086236437948 0  0.3762095583883728 0.1248865694627161 0  0.438995490961515 0.1248628951453294 0  0.5018206422140675 0.1248377877987641 0  0.5646902031136124 0.1248117320861118 0  0.6276087822050217 0.1247855931765197 0  0.6905804688514484 0.1247606816189678 0  0.7536096751522292 0.1247387669540461 0  0.8167036943787528 0.124722035562316 0  0.8798775419791043 0.1247132698259685 0  0.9431546967376263 0.1247180784671293 0  1.006514807974536 0.1247583237054584 0  0 0.1875 0  0.06274785095969447 0.1874753457445169 0  0.1255037390947789 0.1874500755191601 0  0.1882758564045775 0.1874235902309689 0  0.2510725926133079 0.1873953357136154 0  0.3139025856697654 0.1873648385346137 0  0.3767747047825141 0.1873317586309749 0  0.4396979347634987 0.1872959648777193 0  0.5026811254073336 0.1872576388727136 0  0.5657325668882262 0.1872174090619895 0  0.6288593508902535 0.1871765093610456 0  0.6920664587359651 0.1871369390793353 0  0.7553553905107299 0.1871015642753769 0  0.8187215774775227 0.1870740137017147 0  0.8821478034684346 0.1870579504594804 0  0.9455852437817606 0.1870541732064559 0  1.008904100110807 0.1870487003056778 0  0 0.25 0  0.06281809837421852 0.2499680663038722 0  0.1256468032501729 0.2499352758658601 0  0.1884969576330892 0.2499007865582359 0  0.2513797503868839 0.2498637990196184 0  0.3143068341122681 0.2498235954199184 0  0.377290361741364 0.2497796010866224 0  0.4403428952298734 0.24973147919489 0  0.5034771192602474 0.2496792700794901 0  0.5667052596211121 0.2496235866744259 0  0.6300380452409483 0.2495658736225072 0  0.6934829260342782 0.2495087245991993 0  0.7570409711013052 0.2494562199341014 0  0.8207012277369321 0.249414174301888 0  0.8844300656136947 0.2493900432204451 0  0.9481514581252294 0.2493920814805288 0  1.011715617434156 0.249428059691346 0  0 0.3125 0  0.06287781744419388 0.3124616418455791 0  0.1257686505954182 0.3124221671977646 0  0.1886858520784559 0.3123804654638617 0  0.2516433243536745 0.3123354522477456 0  0.3146557443304924 0.3122861023442549 0  0.3777387084425745 0.3122315100965916 0  0.4409087442614666 0.3121709916866693 0  0.5041831033781474 0.312104248719216 0  0.5675791978254509 0.3120316180946471 0  0.6311134519670105 0.311954438347345 0  0.6947991830134477 0.3118755641076109 0  0.758642850529328 0.3118000513669269 0  0.8226376004472682 0.3117360058989589 0  0.8867526254896482 0.3116955284395894 0  0.9509173068967335 0.3116956372115591 0  1.015002798881894 0.3117591262264317 0  0 0.375 0  0.06292460566146867 0.3749563321041226 0  0.1258643757986917 0.3749112776482074 0  0.1888349282590989 0.3748634400182251 0  0.2518526875647076 0.3748114156698566 0  0.3149352576762917 0.3747538102365375 0  0.3781017388720445 0.3746892829615373 0  0.4413729415586577 0.3746166372109979 0  0.5047714164105196 0.3745349834808238 0  0.5683211647202541 0.3744440139549348 0  0.6320468013652925 0.3743444451274699 0  0.6959717962438537 0.3742387070629176 0  0.7601152041085601 0.3741319811658653 0  0.8244860402717165 0.3740337020917125 0  0.8890743668815245 0.3739596185151443 0  0.9538387815371251 0.3739344003896813 0  1.0186922645978 0.3739944667627808 0  0 0.4375 0  0.06295632211657393 0.437452406595506 0  0.1259295725991247 0.4374031626507845 0  0.1889372581941278 0.437350584651746 0  0.2519979865399486 0.4372929326240053 0  0.3151320214604276 0.4372283970846132 0  0.3783618298430187 0.4371551096743981 0  0.4417125961100687 0.4370711954129701 0  0.505212655185882 0.4369748961259833 0  0.5688937534373865 0.4368648134103635 0  0.6327909799901688 0.4367403491382751 0  0.6969421057340459 0.436602466218643 0  0.7613859143964553 0.4364549545994877 0  0.8261589232615977 0.4363064601546662 0  0.8912897604550511 0.4361735822273493 0  0.9567906279228537 0.4360852807612661 0  1.022646058023371 0.4360885333988164 0  0 0.5 0  0.06297121106787246 0.4999501282353181 0  0.1259605885388814 0.4998983718947332 0  0.1889869984574352 0.4998427852907998 0  0.2520707105579714 0.4997813038269333 0  0.315234153040409 0.4997116906326097 0  0.3785027263725444 0.4996314953012974 0  0.4419056900893696 0.4995380382229969 0  0.5054771298575779 0.4994284460757416 0  0.5692570020970775 0.4992997854185134 0  0.6332922395024764 0.4991493785301077 0  0.6976378809217427 0.4989754487250959 0  0.7623581549734066 0.4987783440319536 0  0.8275273723674982 0.498562734243145 0  0.8932303122016024 0.4983413296561456 0  0.9595614837263706 0.4981406511464252 0  1.026622476856739 0.498008694295163 0  0 0.5625 0  0.06296804305255062 0.5624497295914052 0  0.1259548208196558 0.5623974000022165 0  0.1889798692001552 0.5623408609815325 0  0.2520643992864417 0.5622777753606669 0  0.315232241994119 0.5622055183673247 0  0.3785109296125017 0.5621210707763405 0  0.441932975100831 0.5620209095786476 0  0.5055374288899415 0.5619009085796295 0  0.569371828800429 0.5617562789086094 0  0.633494728465019 0.5615816141346515 0  0.6979791225988264 0.5613711721172927 0  0.7629173189684476 0.5611196531042638 0  0.82842813484598 0.5608239583669999 0  0.8946675554732488 0.5604867399416166 0  0.9618437066213995 0.5601227326107726 0  1.030235847081492 0.5597677154108146 0  0 0.625 0  0.06294625954076559 0.624951383599422 0  0.1259110243002663 0.6249006243973259 0  0.1889136650826284 0.6248454615721684 0  0.2519754223829583 0.6247833846876643 0  0.3151204992303393 0.6247114860052188 0  0.3783773656699563 0.6246262840967823 0  0.4417803821245812 0.6245235081530822 0  0.5053718943224441 0.6243978335910368 0  0.5692050375801625 0.6242425654440347 0  0.6333476570531458 0.6240492836270213 0  0.6978880970274359 0.6238075101589883 0  0.7629443152335258 0.6235045723408883 0  0.8286790987859203 0.6231261065666539 0  0.8953262026896875 0.6226582278156965 0  0.9632340445442462 0.6220932292500531 0  1.03293214677887 0.62143953165108 0  0 0.6875 0  0.06290610168282719 0.6874551722810499 0  0.125829590412939 0.6874082376710046 0  0.1887887300641634 0.6873569528825542 0  0.2518037275799631 0.6872987804882037 0  0.3148979004785318 0.6872307041742218 0  0.3780991127438817 0.6871489930777543 0  0.4414416219430196 0.687048888684383 0  0.5049685446587742 0.6869241785639716 0  0.5687352656860476 0.686766609000332 0  0.6328143560158019 0.686565074663703 0  0.6973030972672994 0.6863045153759363 0  0.7623359664353972 0.6859644792483354 0  0.8281074058039853 0.6855175004593415 0  0.8949167022058179 0.6849282269597127 0  0.9632578883381501 0.6841568819590116 0  1.03398401958113 0.6831754199836388 0  0 0.75 0  0.0628487007957161 0.749961058491293 0  0.1257127489117751 0.7499201852252196 0  0.1886083149144911 0.7498753074144539 0  0.251553430422835 0.7498240440178334 0  0.314569130969406 0.749763503870721 0  0.3776808933998895 0.7496900169011451 0  0.4409205276401912 0.7495987587723711 0  0.5043287520988698 0.7494832099063381 0  0.5679588006208752 0.749334358704098 0  0.6318816365158717 0.7491395086335394 0  0.6961938694682434 0.7488804674010179 0  0.761030882784587 0.7485307676102253 0  0.8265919345034461 0.7480514123726985 0  0.8931970964455727 0.7473848242622161 0  0.9614326530439513 0.7464499129083045 0  1.032501124141834 0.7451651138935919 0  0 0.8125 0  0.06277610910743144 0.8124688664849649 0  0.1255646455920969 0.8124361209603038 0  0.1883787369090969 0.8124000229312222 0  0.2512331172377926 0.8123585483819531 0  0.3141451319325441 0.8123091984137255 0  0.3771360237209218 0.8122487367467994 0  0.4402326557448015 0.812172810732636 0  0.5034698894687016 0.8120753850447432 0  0.566893925938032 0.8119478742813714 0  0.6305670475250168 0.8117777875044712 0  0.6945744114737427 0.8115465682451847 0  0.7590341311108452 0.8112260679622701 0  0.8241144515596105 0.8107725834285295 0  0.8900749578371938 0.810116333757294 0  0.9574162915098594 0.8091431077633555 0  1.027563563102682 0.8076789389018186 0  0 0.875 0  0.06269125452139664 0.8749782766867371 0  0.1253912597615592 0.8749553931790278 0  0.1881092777119022 0.8749300910420171 0  0.2508557565565495 0.8749008936348378 0  0.3136430833949873 0.8748659556397356 0  0.3764865631229307 0.8748228522846119 0  0.4394057514230166 0.8747682678385369 0  0.5024263211659633 0.874697518243874 0  0.565582702013705 0.8746038001364946 0  0.6289217623022592 0.8744769849998227 0  0.6925076486015128 0.8743016476648543 0  0.75642708524438 0.8740537695845038 0  0.8207917380409501 0.8736949603639048 0  0.8857282745826294 0.8731610901629064 0  0.9513542166739645 0.8723345293011604 0  1.018018645222706 0.8709553261216523 0  0 0.9375 0  0.06259781246880419 0.9374888382547579 0  0.1252001446953791 0.9374770691335452 0  0.1878117868102738 0.9374640319488409 0  0.2504381605100593 0.9374489471275845 0  0.3130857246667396 0.9374308330915186 0  0.3757625098763999 0.9374083882079767 0  0.4384788582605606 0.9373798135054
[...]
<PointData  Vectors="f_95-0"> 
<DataArray  type="Float64"  Name="f_95-0"  NumberOfComponents="3" format="ascii">0.0000000000000000e+00 0.0000000000000000e+00 0.0000000000000000e+00  7.7581085382823201e-04 2.2125440860361768e-02 0.0000000000000000e+00  2.1479619649409903e-03 2.8320153150751905e-02 0.0000000000000000e+00  3.7670704931218758e-03 2.5659929348945565e-02 0.0000000000000000e+00  5.6399340615574190e-03 1.8776693162995288e-02 0.0000000000000000e+00  7.7144506966106462e-03 1.0717551462226650e-02 0.0000000000000000e+00  9.9312745728524967e-03 3.2739056518702484e-03 0.0000000000000000e+00  1.2216030159028923e-02 -2.6759826393937891e-03 0.0000000000000000e+00  1.4482777078293357e-02 -6.8635626269937097e-03 0.0000000000000000e+00  1.6636952334227247e-02 -9.3840120748723832e-03 0.0000000000000000e+00  1.8577102112861368e-02 -1.0515165780228168e-02 0.0000000000000000e+00  2.0194508690758395e-02 -1.0595215590728362e-02 0.0000000000000000e+00  2.1373518190973904e-02 -9.9499322697723450e-03 0.0000000000000000e+00  2.1966292344768736e-02 -8.8361471436086240e-03 0.0000000000000000e+00  2.1790159977550069e-02 -7.4694153148947735e-03 0.0000000000000000e+00  2.0958907649742575e-02 -5.9879237684092156e-03 0.0000000000000000e+00  9.4303521331519560e-03 -9.0255070959065140e-03 0.0000000000000000e+00  0.0000000000000000e+00 0.0000000000000000e+00 0.0000000000000000e+00  6.0229343934527170e-04 2.0950930559334710e-02 0.0000000000000000e+00  1.8638998047637891e-03 2.6820086461710288e-02 0.0000000000000000e+00  3.4196849535696894e-03 2.3873559084306960e-02 0.0000000000000000e+00  5.2410225389930495e-03 1.6746219954319144e-02 0.0000000000000000e+00  7.2716133232526578e-03 8.5011404403467893e-03 0.0000000000000000e+00  9.4532124219577351e-03 9.4817011669841712e-04 0.0000000000000000e+00  1.1709470297213092e-02 -5.0217522919257830e-03 0.0000000000000000e+00  1.3953591774348786e-02 -9.1322207395622083e-03 0.0000000000000000e+00  1.6091301699316066e-02 -1.1473669516098413e-02 0.0000000000000000e+00  1.8023204059087146e-02 -1.2320518707621700e-02 0.0000000000000000e+00  1.9646492216714072e-02 -1.2007070630602563e-02 0.0000000000000000e+00  2.0854700670431481e-02 -1.0848400502710458e-02 0.0000000000000000e+00  2.1534198589231605e-02 -9.0920046276399200e-03 0.0000000000000000e+00  2.1622079019571964e-02 -6.8879185702405716e-03 0.0000000000000000e+00  2.0731826848136497e-02 -4.1589145823496413e-03 0.0000000000000000e+00  2.0705148853476022e-02 -2.6514269111122587e-03 0.0000000000000000e+00  0.0000000000000000e+00 0.0000000000000000e+00 0.0000000000000000e+00  3.6601165157338202e-04 2.0091874323336634e-02 0.0000000000000000e+00  1.3337256133383502e-03 2.5509496174579160e-02 0.0000000000000000e+00  2.6969016631973168e-03 2.2230003649702745e-02 0.0000000000000000e+00  4.3834938053937738e-03 1.4823878871140594e-02 0.0000000000000000e+00  6.3224018072351555e-03 6.3663979167866694e-03 0.0000000000000000e+00  8.4436736125831479e-03 -1.3151227583037088e-03 0.0000000000000000e+00  1.0662878233360640e-02 -7.3191737506629320e-03 0.0000000000000000e+00  1.2889468365405847e-02 -1.1364149770012034e-02 0.0000000000000000e+00  1.5029326553332631e-02 -1.3539083768588830e-02 0.0000000000000000e+00  1.6988410742125634e-02 -1.4119704759654355e-02 0.0000000000000000e+00  1.8676666290297784e-02 -1.3444165397393256e-02 0.0000000000000000e+00  2.0014782050556991e-02 -1.1836162600833547e-02 0.0000000000000000e+00  2.0951929261719154e-02 -9.5634334818193636e-03 0.0000000000000000e+00  2.1480468538297087e-02 -6.8234402024592604e-03 0.0000000000000000e+00  2.1791152499957975e-02 -3.8328455635506541e-03 0.0000000000000000e+00  2.1845233276166335e-02 -1.1171223206726474e-03 0.0000000000000000e+00  0.0000000000000000e+00 0.0000000000000000e+00 0.0000000000000000e+00  1.8744092746343920e-04 1.9557792744198766e-02 0.0000000000000000e+00  8.4357371012424350e-04 2.4475579602659427e-02 0.0000000000000000e+00  1.9644853235575108e-03 2.0775927782828583e-02 0.0000000000000000e+00  3.4915545029987286e-03 1.3024031150258381e-02 0.0000000000000000e+00  5.3427727241522650e-03 4.3066313617816741e-03 0.0000000000000000e+00  7.4278021760924148e-03 -3.5378659441025386e-03 0.0000000000000000e+00  9.6486372636267852e-03 -9.6021922345746434e-03 0.0000000000000000e+00  1.1906842892696024e-02 -1.3604333933745362e-02 0.0000000000000000e+00  1.4106217856476895e-02 -1.5636989338609773e-02 0.0000000000000000e+00  1.6156541134572936e-02 -1.5983360974204320e-02 0.0000000000000000e+00  1.7978351122982052e-02 -1.4994749754188325e-02 0.0000000000000000e+00  1.9511800527749784e-02 -1.3018554646248732e-02 0.0000000000000000e+00  2.0728853695138029e-02 -1.0365354085907136e-02 0.0000000000000000e+00  2.1655752119454030e-02 -7.3128656092898425e-03 0.0000000000000000e+00  2.2331997313682253e-02 -4.1104850411414016e-03 0.0000000000000000e+00  2.2762725733257442e-02 -1.0042992245532071e-03 0.0000000000000000e+00  0.0000000000000000e+00 0.0000000000000000e+00 0.0000000000000000e+00  5.7034631783129870e-05 1.9276701275934487e-02 0.0000000000000000e+00  4.6851855598604433e-04 2.3708921301418884e-02 0.0000000000000000e+00  1.3775209902378543e-03 1.9515172231465025e-02 0.0000000000000000e+00  2.7680653282637548e-03 1.1339077956640868e-02 0.0000000000000000e+00  4.5560368169187647e-03 2.2994944798274638e-03 0.0000000000000000e+00  6.6334760882466775e-03 -5.7536097492412470e-03 0.0000000000000000e+00  8.8879237388561367e-03 -1.1912365752122222e-02 0.0000000000000000e+00  1.1211760585614043e-02 -1.5900302451763305e-02 0.0000000000000000e+00  1.3505496891138410e-02 -1.7819034637970771e-02 0.0000000000000000e+00  1.5680034431926653e-02 -1.7963976667963302e-02 0.0000000000000000e+00  1.7659726539589436e-02 -1.6704033963378162e-02 0.0000000000000000e+00  1.9387663516732927e-02 -1.4412802014681297e-02 0.0000000000000000e+00  2.0831644981095986e-02 -1.1437386320437096e-02 0.0000000000000000e+00  2.1981301568647194e-02 -8.0867643601934252e-03 0.0000000000000000e+00  2.2826508066978734e-02 -4.6162799330903437e-03 0.0000000000000000e+00  2.3351551117037263e-02 -1.1439305886586648e-03 0.0000000000000000e+00  0.0000000000000000e+00 0.0000000000000000e+00 0.0000000000000000e+00  -3.0557164202999687e-05 1.9178036377609918e-02 0.0000000000000000e+00  2.1349802908407118e-04 2.3147595086007489e-02 0.0000000000000000e+00  9.7197399568210805e-04 1.8408606111516276e-02 0.0000000000000000e+00  2.2639649195128563e-03 9.7432943957154339e-03 0.0000000000000000e+00  4.0047983188336318e-03 3.2712778861996157e-04 0.0000000000000000e+00  6.0739195597657187e-03 -7.9747390330555720e-03 0.0000000000000000e+00  8.3480204435934739e-03 -1.4258336619182334e-02 0.0000000000000000e+00  1.0714024888489146e-02 -1.8258225046081485e-02 0.0000000000000000e+00  1.3071993758736048e-02 -2.0088917040991569e-02 0.0000000000000000e+00  1.5334573155910041e-02 -2.0059732526680012e-02 0.0000000000000000e+00  1.7426688340854223e-02 -1.8555878660510044e-02 0.0000000000000000e+00  1.9286594050003381e-02 -1.5970989045771353e-02 0.0000000000000000e+00  2.0866133980473277e-02 -1.2673110631236698e-02 0.0000000000000000e+00  2.2127614618851502e-02 -8.9846360860635910e-03 0.0000000000000000e+00  2.3037181886613706e-02 -5.1533867602922157e-03 0.0000000000000000e+00  2.3577849107412948e-02 -1.3089410292777856e-03 0.0000000000000000e+00  0.0000000000000000e+00 0.0000000000000000e+00 0.0000000000000000e+00  -8.2659266210607726e-05 1.9193615564894469e-02 0.0000000000000000e+00  6.3710601647078347e-05 2.2718434363754588e-02 0.0000000000000000e+00  7.3002049042449155e-04 1.7408743561763147e-02 0.0000000000000000e+00  1.9464433718730035e-03 8.2220126359202981e-03 0.0000000000000000e+00  3.6207830216850524e-03 -1.5943685842173907e-03 0.0000000000000000e+00  5.6227361526904043e-03 -1.0159875445250087e-02 0.0000000000000000e+00  7.8254467529528370e-03 -1.6580120522650277e-02 0.0000000000000000e+00  1.0119784840964331e-02 -2.0606153794521284e-02 0.0000000000000000e+00  1.2414486714251384e-02 -2.2367896629082413e-02 0.0000000000000000e+00  1.4631312733533139e-02 -2.2187295213944479e-02 0.0000000000000000e+00  1.6700571223998643e-02 -2.0460858263001137e-02 0.0000000000000000e+00  1.8558572536585941e-02 -1.7593575390000411e-02 0.0000000000000000e+00  2.0146625584768721e-02 -1.3963630239920709e-02 0.0000000000000000e+00  2.1408747943081213e-02 -9.8993062144225596e-03 0.0000000000000000e+00  2.2292389983755375e-02 -5.6575185251163361e-03 0.0000000000000000e+00  2.2762859963212468e-02 -1.3851624852050514e-03 0.0000000000000000e+00  0.0000000000000000e+00 0.0000000000000000e+00 0.0000000000000000e+00  -1.0283003061016707e-04 1.9265872492384782e-02 0.0000000000000000e+00  7.5730979093972435e-06 2.2357923561237503e-02 0.0000000000000000e+00  6.2511072698562470e-04 1.6484391763805499e-02 0.0000000000000000e+00  1.7575201639703742e-03 6.7951379906602914e-03 0.0000000000000000e+00  3.2910062503051654e-03 -3.3910368438598800e-03 0.0000000000000000e+00  5.0869215766588287e-03 -1.2187843014525714e-02 0.0000000000000000e+00  7.0260569073826622e-03 -1.8721178180283956e-02 0.0000000000000000e+00  9.0190876180548437e-03 -2.2765593902764190e-02 0.0000000000000000e+00  1.1000219229219144e-02 -2.4467969611945049e-02 0.0000000000000000e+00  1.2915712964957197e-02 -2.4159425352022278e-02 0.0000000000000000e+00  1.4714729985711097e-02 -2.2240633359132529e-02 0.0000000000000000e+00  1.6344244911744740e-02 -1.9118443260717852e-02 0.0000000000000000e+00  1.7748140980408344e-02 -1.5171587066505038e-02 0.0000000000000000e+00  1.8862185733668529e-02 -1.0727238293360140e-02 0.0000000000000000e+00  1.9613658816440734e-02 -6.0406177765006388e-03 0.0000000000000000e+00  1.9902961263777316e-02 -1.2606352781074578e-03 0.0000000000000000e+00  0.0000000000000000e+00 0.0000000000000000e+00 0.0000000000000000e+00  -8.6609398213515192e-05 1.9337932629612292e-02 0.0000000000000000e+00  5.3861425694827856e-05 2.2008530694788458e-02 0.0000000000000000e+00  6.5727745043952103e-04 1.5625980999261605e-02 0.0000000000000000e+00  1.6639485131292435e-03 5.5284389212366001e-03 0.0000000000000000e+00  2.9190585681892920e-03 -4.9158629945301223e-03 0.0000000000000000e+00  4.2782012213315058e-03 -1.3839902116309729e-02 0.0000000000000000e+00  5.6466068675384926e-03 -2.0409135208421195e-02 0.0000000000000000e+00  6.9782730188083300e-03 -2.4431673788777343e-02 0.0000000000000000e+00  8.2576536584086160e-03 -2.6072489699906193e-02 0.0000000000000000e+00  9.4786807174075359e-03 -2.5666153850862294e-02 0.0000000000000000e+00  1.0630518320894495e-02 -2.3607489461680634e-02 0.0000000000000000e+00  1.1689824631757587e-02 -2.0295325760795704e-02 0.0000000000000000e+00  1.2623762967655515e-02 -1.6101859363003616e-02 0.0000000000000000e+00  1.3382173792756091e-02 -1.1339663294077755e-02 0.0000000000000000e+00  1.3887792613080038e-02 -6.2258839691721711e-03 0.0000000000000000e+00  1.3928694636660528e-02 -8.4929321129409018e-04 0.0000000000000000e+00  0.0000000000000000e+00 0.0000000000000000e+00 0.0000000000000000e+00  -1.6422699223044404e-05 1.9336417678090856e-02 0.0000000000000000e+00  2.4856731538809459e-04 2.1601932317171675e-02 0.0000000000000000e+00  8.8364070040303330e-04 1.4836467565684767e-02 0.0000000000000000e+00  1.7007433818890538e-03 4.5320773419511096e-03 0.0000000000000000e+00  2.4818657741669829e-03 -5.9455526706787771e-03 0.0000000000000000e+00  3.0847030846454285e-03 -1.4794682150549946e-02 0.0000000000000000e+00  3.4641649290565314e-03 -2.1250513364198864e-02 0.0000000000000000e+00  3.6495702483973539e-03 -2.5168193232280280e-02 0.0000000000000000e+00  3.7077320407768667e-03 -2.6730752166497996e-02 0.0000000000000000e+00  3.7098848571917504e-03 -2.6266892667977357e-02 0.0000000000000000e+00  3.7095732835872482e-03 -2.4153456282208746e-02 0.0000000000000000e+00  3.7341505805616169e-03 -2.0773300060463070e-02 0.0000000000000000e+00  3.8034099031293792e-03 -1.6486109112597104e-02 0.0000000000000000e+00  3.9235839317055890e-03 -1.1578381597392069e-02 0.0000000000000000e+00  4.0775624887594078e-03 -6.1842382698256530e-03 0.0000000000000000e+00  3.9539218526555616e-03 -2.0612061433465345e-04 0.0000000000000000e+00  0.0000000000000000e+00 0.0000000000000000e+00 0.0000000000000000e+00  1.4395033564678302e-04 1.9144917350116607e-02 0.0000000000000000e+00  6.8913605407380112e-04 2.1030445297964575e-02 0.0000000000000000e+00  1.4404345059000829e-03 1.4110840727810978e-02 0.0000000000000000e+00  2.0025021863283904e-03 3.9468167892068341e-03 0.0000000000000000e+00  2.0757104151332829e-03 -6.1930632992373280e-03 0.0000000000000000e+00  1.5395091875069703e-03 -1.4643657114203583e-02 0.0000000000000000e+00  4.3503303202074655e-04 -2.0750518333157688e-02 0.0000000000000000e+00  -1.0933848444543413e-03 -2.4430625024478642e-02 0.0000000000000000e+00  -2.8596315890440202e-03 -2.5881918469395890e-02 0.0000000000000000e+00  -4.6838136655639132e-03 -2.5413656754408452e-02 0.0000000000000000e+00  -6.4255964610308372e-03 -2.3367027480380914e-02 0.0000000000000000e+00  -7.9851252559332321e-03 -2.0090622152388115e-02 0.0000000000000000e+00  -9.2733447321169497e-03 -1.5935811757635185e-02 0.0000000000000000e+00  -1.0179545925892540e-02 -1.1216014058687340e-02 0.0000000000000000e+00  -1.0493713496600421e-02 -5.9742965285917334e-03 0.0000000000000000e+00  -1.0440463125153947e-02 3.0675710497845399e-04 0.0000000000000000e+00  0.0000000000000000e+00 0.0000000000000000e+00 0.0000000000000000e+00  4.5247438336535885e-04 1.8571151900243991e-02 0.0000000000000000e+00  1.5261239041582714e-03 2.0115903461700346e-02 0.0000000000000000e+00  2.5392768367896211e-03 1.3413216355821274e-02 0.0000000000000000e+00  2.8011316217358465e-03 3.9205707771215537e-03 0.0000000000000000e+00  1.9309959323120522e-03 -5.3414516965807615e-03 0.0000000000000000e+00  -1.2974033256414765e-04 -1.2939903198303416e-02 0.0000000000000000e+00  -3.2056533126615648e-03 -1.8375563028439269e-02 0.0000000000000000e+00  -6.9952899597355749e-03 -2.1637948212937425e-02 0.0000000000000000e+00  -1.1159219394511206e-02 -2.2931240766608074e-02 0.0000000000000000e+00  -1.5382736640949531e-02 -2.2525473445891106e-02 0.0000000000000000e+00  -1.9416209490126637e-02 -2.0696585002265986e-02 0.0000000000000000e+00  -2.3079463367557257e-02 -1.7736609490334419e-02 0.0000000000000000e+00  -2.6256233734090809e-02 -1.4027511057300514e-02 0.0000000000000000e+00  -2.8680836478441690e-02 -1.0007160236546608e-02 0.0000000000000000e+00  -2.9696711224958046e-02 -5.7159382801397415e-03 0.0000000000000000e+00  -2.8895359097520685e-02 -9.9446049066707020e-05 0.0000000000000000e+00  0.0000000000000000e+00 0.0000000000000000e+00 0.0000000000000000e+00  9.8101283077408740e-04 1.7318495039089866e-02 0.0000000000000000e+00  2.9259405855686532e-03 1.8596335491009471e-02 0.0000000000000000e+00  4.3958204857561210e-03 1.2667255355176283e-02 0.0000000000000000e+00  4.3433884494053013e-03 4.5779003623464950e-03 0.0000000000000000e+00  2.3535465387060049e-03 -3.1101008088841651e-03 0.0000000000000000e+00  -1.5035522098579344e-03 -9.3012051751054509e-03 0.0000000000000000e+00  -6.8673302785749405e-03 -1.3685373554663515e-02 0.0000000000000000e+00  -1.3249861282178508e-02 -1.6322426110227981e-02 0.0000000000000000e+00  -2.0143121358275572e-02 -1.7406605204599069e-02 0.0000000000000000e+00  -2.7085112311461511e-02 -1.7146118848381089e-02 0.0000000000000000e+00  -3.3698858903066925e-02 -1.5720166460787784e-02 0.0000000000000000e+00  -3.9736791806942680e-02 -1.3317403644397773e-02 0.0000000000000000e+00  -4.5095562207654954e-02 -1.0265816259362780e-02 0.0000000000000000e+00  -4.9455398578820670e-02 -7.2111714314441275e-03 0.0000000000000000e+00  -5.1903245494519183e-02 -5.0261776743103070e-03 0.0000000000000000e+00  -5.0004119255101925e-02 -2.5260620872310830e-03 0.0000000000000000e+00  0.0000000000000000e+00 0.0000000000000000e+00 0.0000000000000000e+00  1.7747949425631127e-03 1.5006645674707329e-02 0.0000000000000000e+00  4.9303094654164136e-03 1.6183595513334099e-02 0.0000000000000000e+00  7.0040677252964549e-03 1.1790839680623314e-02 0.0000000000000000e+00  6.6439413998252523e-03 5.9838198130567248e-03 0.0000000000000000e+00  3.5233532192849187e-03 6.2628151951165962e-04 0.0000000000000000e+00  -2.0778505412741891e-03 -3.5994886753437211e-03 0.0000000000000000e+00  -9.5893663031845853e-03 -6.5711899773896881e-03 0.0000000000000000e+00  -1.8350662438793061e-02 -8.3940280838235171e-03 0.0000000000000000e+00  -2.7714843868049420e-02 -9.2297039022382673e-03 0.0000000000000000e+00  -3.7096284749926475e-02 -9.2111359164476943e-03 0.0000000000000000e+00  -4.5994339103406931e-02 -8.4052412421110334e-03 0.0000000000000000e+00  -5.4058159891090696e-02 -6.8278742749222614e-03 0.0000000000000000e+00  -6.1134516859644737e-02 -4.6071699876873012e-03 0.0000000000000000e+00  -6.7403860604062255e-02 -2.7347328751558164e-03 0.0000000000000000e+00  -7.2469297362396823e-02 -4.0061562956304041e-03 0.0000000000000000e+00  -7.0049622398299774e-02 -7.6992777809693535e-03 0.0000000000000000e+00  0.0000000000000000e+00 0.0000000000000000e+00 0.0000000000000000e+00  2.7038929494671055e-03 1.1318371414680450e-02 0.0000000000000000e+00  7.0628317554565839e-03 1.2764911109567519e-02 0.0000000000000000e+00  9.5934247432780378e-03 1.0787952554325532e-02 0.0000000000000000e+00  8.9427054910741662e-03 8.0657558031544899e-03 0.0000000000000000e+00  5.0590094245736451e-03 5.6088175598069260e-03 0.0000000000000000e+00  -1.5390215549607779e-03 3.7033101904145110e-03 0.0000000000000000e+00  -1.0135695879572984e-02 2.3433564316784547e-03 0.0000000000000000e+00  -2.0000979968406139e-02 1.4278496032638704e-03 0.0000000000000000e+00  -3.0458556145788577e-02 8.5095164229823431e-04 0.0000000000000000e+00  -4.0896273169806596e-02 5.4781007084746117e-04 0.0000000000000000e+00  -5.0751359623710579e-02 5.2733526695053067e-04 0.0000000000000000e+00  -5.9512163803834547e-02 9.0908215565914570e-04 0.0000000000000000e+00  -6.6773942434850964e-02 1.9232075141194524e-03 0.0000000000000000e+00  -7.2959575519596045e-02 3.5304169690330931e-03 0.0000000000000000e+00  -7.9315180860254977e-02 2.5667154183189305e-03 0.0000000000000000e+00  -8.1234664655034608e-02 -1.3418353705360733e-02 0.0000000000000000e+00  0.0000000000000000e+00 0.0000000000000000e+00 0.0000000000000000e+00  3.0111090801821267e-03 6.6095907735651011e-03 0.0000000000000000e+00  7.3516289867425651e-03 8.9730860733765651e-03 0.0000000000000000e+00  9.4886771827632863e-03 9.9338560067227782e-03 0.0000000000000000e+00  8.6979138795377706e-03 1.0447987659281675e-02 0.0000000000000000e+00  5.2580436684504742e-03 1.0796016880901335e-02 0.0000000000000000e+00  -2.5873301653870723e-04 1.1023136169980869e-02 0.0000000000000000e+00  -7.2394314184943591e-03 1.1099679513349980e-02 0.0000000000000000e+00  -1.5124245979630122e-02 1.0979382657228823e-02 0.0000000000000000e+00  -2.3421513182872323e-02 1.0623335418093630e-02 0.0000000000000000e+00  -3.1689630203007801e-02 1.0012083945720535e-02 0.0000000000000000e+00  -3.9497494395268493e-02 9.1590336444267121e-03 0.0000000000000000e+00  -4.6357225901088900e-02 8.1406719801401569e-03 0.0000000000000000e+00  -5.1605927742819253e-02 7.1584996362616194e-03 0.0000000000000000e+00  -5.4370104339120207e-02 6.5894709776752724e-03 0.0000000000000000e+00  -5.4217282251922315e-02 6.4807295094234151e-03 0.0000000000000000e+00  -5.3332291900255568e-02 -9.4608380248900146e-03 0.0000000000000000e+00  0.0000000000000000e+00 4.2737413266152304e-19 0.0000000000000000e+00  0.0000000000000000e+00 3.6791320036710312e-03 0.0000000000000000e+00  0.0000000000000000e+00 6.8677130735192576e-03 0.0000000000000000e+00  0.0000000000000000e+00 9.5657432095446800e-03 0.0000000000000000e+00  0.0000000000000000e+00 1.1773222411747299e-02 0.0000000000000000e+00  0.0000000000000000e+00 1.3490150680127112e-02 0.0000000000000000e+00  0.0000000000000000e+00 1.4716528014684123e-02 0.0000000000000000e+00  0.0000000000000000e+00 1.5452354415418330e-02 0.0000000000000000e+00  0.0000000000000000e+00 1.5697629882329731e-02 0.00000000000