<?xml version="1.0"?>
<VTKFile type="UnstructuredGrid"  version="0.1"  >
<UnstructuredGrid>
<Piece  NumberOfPoints="289" NumberOfCells="512">
<Points>
<DataArray  type="Float64"  NumberOfComponents="3"  format="ascii">0 0 0  0.0625 0 0  0.125 0 0  0.1875 0 0  0.25 0 0  0.3125 0 0  0.375 0 0  0.4375 0 0  0.5 0 0  0.5625 0 0  0.625 0 0  0.6875 0 0  0.75 0 0  0.8125 0 0  0.875 0 0  0.9375 0 0  1 0 0  0 0.0625 0  0.06245619933990224 0.06247781544051369 0  0.1249116509379828 0.06245524289228974 0  0.1873656483723248 0.06243192643858748 0  0.2498176774736903 0.06240759492499689 0  0.3122675530333197 0.06238211677387252 0  0.3747156125769207 0.06235556847547059 0  0.4371629979637997 0.06232831748697787 0  0.499612071548291 0.06230111464432977 0  0.5620670470777479 0.06227518115630774 0  0.6245349915196796 0.06225225934639087 0  0.6870275390682556 0.06223457535444466 0  0.7495641303407954 0.06222464609003339 0  0.8121788114254207 0.062224895052063 0  0.8749356596658852 0.06223729358007724 0  0.9379639296118967 0.06226453788457924 0  1.001521772225518 0.06232295395671993 0  0 0.125 0  0.06241318841233061 0.1249560070700886 0  0.1248248053120701 0.1249111961908262 0  0.1872333559720285 0.1248648088707344 0  0.2496377079764999 0.1248162461291273 0  0.3120373528657054 0.124765174812709 0  0.3744327806382875 0.1247116644526961 0  0.4368260262551477 0.1246563591388872 0  0.4992214736622734 0.1246006793296346 0  0.5616270521532294 0.1245470299515431 0  0.6240560572537382 0.1244989586521628 0  0.6865300250593905 0.1244611574807984 0  0.7490834716890769 0.124439135993765 0  0.8117719463008346 0.124438346156689 0  0.8746854380295113 0.1244626276181195 0  0.937968087072855 0.1245123152905238 0  1.001843029279905 0.1245820387220066 0  0 0.1875 0  0.06237185654534448 0.1874350129439851 0  0.1247411618155446 0.1873687012551614 0  0.1871054596152334 0.187299817327308 0  0.2494627694654808 0.1872273263008473 0  0.3118119391841422 0.1871505553638412 0  0.3741531575631382 0.1870693952846142 0  0.4364887070056822 0.1869845679136225 0  0.4988240624348351 0.1868979639104495 0  0.5611694813164759 0.1868130329474217 0  0.6235422834618746 0.1867351636433149 0  0.6859700817772502 0.1866719051736491 0  0.748495239294407 0.186632725025754 0  0.8111805591453598 0.1866276895790206 0  0.8741149752969091 0.1866637347088886 0  0.9374145752167062 0.1867350832867109 0  1.001209350282924 0.1867975788394897 0  0 0.25 0  0.06233324571888863 0.2499153468404356 0  0.1246627521756623 0.2498287619777389 0  0.1869848665833051 0.249738392774479 0  0.2492964388733592 0.2496426176217975 0  0.3115952130419805 0.2495402216886581 0  0.3738804141285597 0.2494306504413835 0  0.4361536257502339 0.2493143706377679 0  0.4984200759699083 0.2491933656679115 0  0.5606904690205099 0.249071777370292 0  0.6229834986605776 0.2489566657948151 0  0.6853291093104691 0.2488587665444986 0  0.7477723240808273 0.2487929388388548 0  0.8103768064941265 0.2487776475194566 0  0.8732259183758341 0.2488322330869434 0  0.9364168169251204 0.2489700343508824 0  1.000041685648371 0.249186317571766 0  0 0.3125 0  0.06229858825795011 0.3123976208741368 0  0.1245920308033732 0.3122925964567478 0  0.1868752257867202 0.3121823412848637 0  0.2491434924662128 0.3120644698888153 0  0.3113929355846814 0.3119369715832552 0  0.3736210280360573 0.3117984876699537 0  0.4358275215784406 0.3116487418975667 0  0.4980158215326068 0.3114891866410646 0  0.560194977678196 0.3113239341177803 0  0.6223824211191733 0.3111610303175367 0  0.6846074572465156 0.3110140700164896 0  0.7469152080128963 0.3109039892181097 0  0.8093700632009896 0.3108605201466175 0  0.872056774959311 0.3109221684012293 0  0.9350768118136711 0.3111327460818246 0  0.9985398603208713 0.3115320156252919 0  0 0.375 0  0.06226930358293078 0.3748825504949478 0  0.124531878782061 0.3747616534838041 0  0.1867809606625664 0.3746338763204642 0  0.2490100026647623 0.3744958937410637 0  0.3112129383791772 0.3743446222831413 0  0.3733846677820089 0.3741774721910101 0  0.435521894996085 0.3739927887123772 0  0.4976244885747002 0.3737905871456656 0  0.5596975786225907 0.3735737288168943 0  0.6217546206710728 0.3733497314494145 0  0.6838215870448747 0.3731334316002564 0  0.7459421990679139 0.3729506515278609 0  0.8081835968623367 0.3728427246589554 0  0.8706411466323684 0.3728709698037622 0  0.9334409106940569 0.3731187645885263 0  0.996740473180924 0.3736869301165898 0  0 0.4375 0  0.06224694712368168 0.4373709356042259 0  0.124485506989305 0.4372375798541429 0  0.186707138074452 0.4370955843719961 0  0.2489031937047958 0.4369405487006999 0  0.3110649996379266 0.4367680655504378 0  0.3731841366011238 0.4365738779560456 0  0.4352530699920207 0.4363542322435878 0  0.4972663457988389 0.4361065650918527 0  0.5592226775374811 0.4358307500614793 0  0.6211283733492861 0.4355312596555259 0  0.6830026520985374 0.4352207718633337 0  0.7448853659986251 0.4349259138423047 0  0.8068473006986517 0.4346958010469271 0  0.8690024045576691 0.4346133357487274 0  0.9315203529171499 0.4348071401896646 0  0.9946387305186731 0.4354582769958679 0  0 0.5 0  0.06223310919996969 0.4998636130307829 0  0.1244562522109676 0.4997221268005573 0  0.1866591600698062 0.4995702904505265 0  0.2488310325804531 0.4994025820866855 0  0.3109603516458961 0.4992131146219543 0  0.3730348402129212 0.4989956174024313 0  0.4350417082823821 0.4987435694733247 0  0.4969684436748221 0.4984506278679876 0  0.5588046002461319 0.4981116179393987 0  0.6205453418260943 0.4977245735856362 0  0.6821979257563502 0.497294691282713 0  0.743792768292845 0.4968416391322293 0  0.8054008862571894 0.4964123410097172 0  0.8671585978441211 0.4961014988359135 0  0.9292976161203469 0.4960798770568428 0  0.9921761691879428 0.4966229799270586 0  0 0.5625 0  0.06222926726582972 0.5623613792309351 0  0.1244472708141416 0.562216990912942 0  0.1866422794898993 0.5620608096978708 0  0.2488015444992483 0.5618862850664382 0  0.3109107845006692 0.56168606945441 0  0.3729537037769987 0.561451752148314 0  0.434911647718062 0.5611736381357271 0  0.4967636413062332 0.5608406703470978 0  0.5584873362762476 0.5604407195579101 0  0.6200619205150087 0.559961731806247 0  0.6814749685879947 0.5593947762335644 0  0.7427366374331201 0.5587411467488672 0  0.8039062451758279 0.5580277009969222 0  0.8651365418381471 0.5573374761611698 0  0.9267359297004659 0.5568634843582597 0  0.9892342650870695 0.5569836123590362 0  0 0.625 0  0.06223660192954182 0.6248648879395553 0  0.1244611486794653 0.6247235973831518 0  0.1866609609440971 0.6245695918279375 0  0.2488218649772456 0.6243955618623491 0  0.3109273243067632 0.6241929653616044 0  0.3729574370873007 0.6239514782220626 0  0.4348878107186415 0.6236583300182309 0  0.4966884468058954 0.6232975199466518 0  0.5583230678451074 0.622848975369573 0  0.6197500020618115 0.6222879065657291 0  0.6809272176387647 0.6215851346240218 0  0.7418270165987244 0.6207105664415764 0  0.8024708820958767 0.6196455803745892 0  0.8630008099034914 0.6184183780397799 0  0.9238017385380828 0.617189498310928 0  0.9856655239835275 0.6164101926237662 0  0 0.6875 0  0.06225579577582736 0.6873745348208241 0  0.1244994648719813 0.6872428499229037 0  0.1867181400031737 0.6870982948202142 0  0.2488970860365314 0.6869332576509779 0  0.3110185189640924 0.6867385486952637 0  0.3730600908268878 0.6865025966784607 0  0.4349929028290294 0.6862103547794175 0  0.4967789368007149 0.6858417723149347 0  0.5583679643535154 0.6853696347187822 0  0.6196945705454097 0.6847565324038639 0  0.6806775845083268 0.6839508109738319 0  0.7412285088126518 0.6828820990272181 0  0.8012856710703052 0.6814604349457057 0  0.8609108092052147 0.6795966094815842 0  0.9205041393781759 0.6773074801546081 0  0.9811452390178417 0.67501498808699 0  0 0.75 0  0.06228684337490632 0.7498903481249116 0  0.1245623687359766 0.7497748882937861 0  0.1868144757160958 0.7496473567202383 0  0.2490290275424006 0.7495004507664492 0  0.3111884833847365 0.749325131760591 0  0.3732700183908944 0.7491096717056758 0  0.4352428216209246 0.7488382797506934 0  0.4970641266961243 0.7484890455885558 0  0.5586733839313953 0.7480307562841425 0  0.6199839905806405 0.7474178009683157 0  0.680872785657253 0.7465817203732139 0  0.7411712065365033 0.7454167777291185 0  0.8006752725023494 0.7437555683405892 0  0.8592339323286217 0.7413348293953484 0  0.9170882323076703 0.7378091721777718 0  0.975513009324446 0.7334284875568382 0  0 0.8125 0  0.06232890853081411 0.8124119084016724 0  0.1246482504029508 0.8123189050485758 0  0.1869477361350597 0.8122156580444633 0  0.2492151561910041 0.8120958650035467 0  0.3114350342000668 0.8119515838446399 0  0.3735866846180088 0.8117722942037711 0  0.4356412440242963 0.8115435094799237 0  0.4975569429690329 0.8112446442105247 0  0.5592713425511457 0.810845622321674 0  0.6206883249333524 0.8103012576591221 0  0.6816562132597394 0.8095413805005028 0  0.7419322242424206 0.8084519208395442 0  0.8011327591490178 0.8068343549961929 0  0.8587064976667068 0.8043080728580503 0  0.9141894134612208 0.8000498331929512 0  0.9696625899391476 0.791946866175489 0  0 0.875 0  0.06238026686054969 0.8749383190623102 0  0.1247535933201925 0.8748730717033175 0  0.1871124838476735 0.8748003689911639 0  0.2494479487276024 0.8747155708635063 0  0.3117484261320686 0.8746127606913863 0  0.3739981790933632 0.8744840004324957 0  0.4361747480997439 0.8743182231122177 0  0.4982446829805869 0.8740995397847982 0  0.5601560381659789 0.8738046121400741 0  0.6218245276323573 0.8733985423217332 0  0.6831067032952317 0.8728283626834307 0  0.7437454383250327 0.8720121434320571 0  0.8032543633770138 0.8708170564752383 0  0.8606669960403159 0.8689970012922512 0  0.9140069359261013 0.8659566655839309 0  0.9593571998614537 0.8597569995000781 0  0 0.9375 0  0.06243836398752801 0.9374682420107781 0  0.1248730827911885 0.9374346081023603 0  0.1873002118586201 0.937397047438823 0  0.2497149943793768 0.9373531000140135 0  0.3121112678525959 0.9372996086707388 0  0.3744805692352001 0.9372323099545971 0  0.436810687
[...]
<PointData  Vectors="f_95-0"> 
<DataArray  type="Float64"  Name="f_95-0"  NumberOfComponents="3" format="ascii">0.0000000000000000e+00 0.0000000000000000e+00 0.0000000000000000e+00  -5.4756524397880078e-04 -2.0762718602649787e-02 0.0000000000000000e+00  -1.5249802849258546e-03 -2.6588519679923740e-02 0.0000000000000000e+00  -2.6863782802286911e-03 -2.3911240894928160e-02 0.0000000000000000e+00  -4.0506268978609868e-03 -1.7127022178426054e-02 0.0000000000000000e+00  -5.5887536767700230e-03 -9.1867842150207477e-03 0.0000000000000000e+00  -7.2617290242070667e-03 -1.8567382109845113e-03 0.0000000000000000e+00  -9.0151614378361934e-03 3.9813003288276666e-03 0.0000000000000000e+00  -1.0782132236845350e-02 8.0472673423917628e-03 0.0000000000000000e+00  -1.2485182314691663e-02 1.0424579841756097e-02 0.0000000000000000e+00  -1.4037211656678096e-02 1.1379538163587903e-02 0.0000000000000000e+00  -1.5341168592845797e-02 1.1237283246977710e-02 0.0000000000000000e+00  -1.6290906776666270e-02 1.0307749953085399e-02 0.0000000000000000e+00  -1.6754940725847236e-02 8.8366243845689613e-03 0.0000000000000000e+00  -1.6576795477530291e-02 7.0260480869750522e-03 0.0000000000000000e+00  -1.5853717217426153e-02 4.9831967034209687e-03 0.0000000000000000e+00  -7.0728485160623878e-03 6.4811383692535401e-03 0.0000000000000000e+00  0.0000000000000000e+00 0.0000000000000000e+00 0.0000000000000000e+00  -4.0873266163069145e-04 -1.9908131237642561e-02 0.0000000000000000e+00  -1.2686132210858096e-03 -2.5523345287720014e-02 0.0000000000000000e+00  -2.3400039693237838e-03 -2.2659923111531196e-02 0.0000000000000000e+00  -3.6212531964085653e-03 -1.5704604711743272e-02 0.0000000000000000e+00  -5.0826762495466823e-03 -7.6173983792216524e-03 0.0000000000000000e+00  -6.6875632699016354e-03 -1.8030015266636676e-04 0.0000000000000000e+00  -8.3815953626467810e-03 5.7105299866191828e-03 0.0000000000000000e+00  -1.0099159213451180e-02 9.7624125353186035e-03 0.0000000000000000e+00  -1.1765282609634562e-02 1.2047288876337705e-02 0.0000000000000000e+00  -1.3296706208929645e-02 1.2820580897519947e-02 0.0000000000000000e+00  -1.4602696198529663e-02 1.2396847613302670e-02 0.0000000000000000e+00  -1.5585251052262491e-02 1.1072450296073202e-02 0.0000000000000000e+00  -1.6138567048915458e-02 9.0834263406398830e-03 0.0000000000000000e+00  -1.6191652517122134e-02 6.5868223350219971e-03 0.0000000000000000e+00  -1.5440586483975222e-02 3.5765929622082722e-03 0.0000000000000000e+00  -1.5393737793546618e-02 1.4183219036314712e-03 0.0000000000000000e+00  0.0000000000000000e+00 0.0000000000000000e+00 0.0000000000000000e+00  -2.0317175544797670e-04 -1.9340981075061544e-02 0.0000000000000000e+00  -7.7014692359557359e-04 -2.4672151361281897e-02 0.0000000000000000e+00  -1.6053342421083600e-03 -2.1592243064863067e-02 0.0000000000000000e+00  -2.6888228881332024e-03 -1.4438011749674495e-02 0.0000000000000000e+00  -3.9862409004277396e-03 -6.1792712167678216e-03 0.0000000000000000e+00  -5.4556901054022599e-03 1.3860985208076567e-03 0.0000000000000000e+00  -7.0399897988735879e-03 7.3495402454542003e-03 0.0000000000000000e+00  -8.6742741385098399e-03 1.1408346545394675e-02 0.0000000000000000e+00  -1.0287374120359398e-02 1.3625701158028443e-02 0.0000000000000000e+00  -1.1803045456492668e-02 1.4249200873079446e-02 0.0000000000000000e+00  -1.3141409061964357e-02 1.3587361892408063e-02 0.0000000000000000e+00  -1.4223326949005884e-02 1.1935285823233929e-02 0.0000000000000000e+00  -1.4983725349251225e-02 9.5388162783628782e-03 0.0000000000000000e+00  -1.5383875318792817e-02 6.5879339134513734e-03 0.0000000000000000e+00  -1.5542322280435250e-02 3.3061311078171761e-03 0.0000000000000000e+00  -1.5302491605919831e-02 1.6892918757397039e-04 0.0000000000000000e+00  0.0000000000000000e+00 0.0000000000000000e+00 0.0000000000000000e+00  -3.0864202247708863e-05 -1.9081589770971442e-02 0.0000000000000000e+00  -2.7632510868824320e-04 -2.4124595620485689e-02 0.0000000000000000e+00  -8.1913119597663570e-04 -2.0772872362401280e-02 0.0000000000000000e+00  -1.6653213100115485e-03 -1.3369201525574479e-02 0.0000000000000000e+00  -2.7801071630581512e-03 -4.8982977048099277e-03 0.0000000000000000e+00  -4.1108655274322758e-03 2.8293623764654636e-03 0.0000000000000000e+00  -5.5941681762316144e-03 8.8967671194702894e-03 0.0000000000000000e+00  -7.1633934122876308e-03 1.2995359306359108e-02 0.0000000000000000e+00  -8.7497719636529560e-03 1.5183220785813871e-02 0.0000000000000000e+00  -1.0282552717870541e-02 1.5703381120556973e-02 0.0000000000000000e+00  -1.1689714940993806e-02 1.4862533099587056e-02 0.0000000000000000e+00  -1.2902494676903326e-02 1.2961600495207571e-02 0.0000000000000000e+00  -1.3863948993187252e-02 1.0267417705870266e-02 0.0000000000000000e+00  -1.4548073817931028e-02 7.0216282610880958e-03 0.0000000000000000e+00  -1.4925206736493737e-02 3.4557823041925948e-03 0.0000000000000000e+00  -1.4954104332349472e-02 -1.7093272033543434e-04 0.0000000000000000e+00  0.0000000000000000e+00 0.0000000000000000e+00 0.0000000000000000e+00  1.0604999441873647e-04 -1.9085751807331415e-02 0.0000000000000000e+00  1.3333028648416080e-04 -2.3883398114481157e-02 0.0000000000000000e+00  -1.3874367967537993e-04 -2.0214889696846171e-02 0.0000000000000000e+00  -7.6249135139062386e-04 -1.2503167009550443e-02 0.0000000000000000e+00  -1.7086412207476327e-03 -3.7689459496957870e-03 0.0000000000000000e+00  -2.9157221044661280e-03 4.1628098679952832e-03 0.0000000000000000e+00  -4.3134524162571049e-03 1.0370939192270445e-02 0.0000000000000000e+00  -5.8326669379609852e-03 1.4546154768508878e-02 0.0000000000000000e+00  -7.4062376255741996e-03 1.6745147758552511e-02 0.0000000000000000e+00  -8.9668913806862788e-03 1.7208294374054835e-02 0.0000000000000000e+00  -1.0445323584737905e-02 1.6240661309379567e-02 0.0000000000000000e+00  -1.1771184892581955e-02 1.4146651852269980e-02 0.0000000000000000e+00  -1.2877487343294578e-02 1.1205455175576086e-02 0.0000000000000000e+00  -1.3700865105856264e-02 7.6709277473252565e-03 0.0000000000000000e+00  -1.4175555524892934e-02 3.7777109338111743e-03 0.0000000000000000e+00  -1.4232121910478469e-02 -2.9393862038514483e-04 0.0000000000000000e+00  0.0000000000000000e+00 0.0000000000000000e+00 0.0000000000000000e+00  2.0717443142718236e-04 -1.9297630591683126e-02 0.0000000000000000e+00  4.4085152998525926e-04 -2.3897413468819961e-02 0.0000000000000000e+00  3.8354677399373533e-04 -1.9883922411907878e-02 0.0000000000000000e+00  -5.4388801874805680e-05 -1.1817006750723452e-02 0.0000000000000000e+00  -8.4826470063869620e-04 -2.7769881821556887e-03 0.0000000000000000e+00  -1.9304020132428264e-03 5.3929252109064501e-03 0.0000000000000000e+00  -3.2260625417314479e-03 1.1771701372491691e-02 0.0000000000000000e+00  -4.6665507029790103e-03 1.6054524900779573e-02 0.0000000000000000e+00  -6.1891319875921266e-03 1.8299847381312420e-02 0.0000000000000000e+00  -7.7315842733789207e-03 1.8745436431752555e-02 0.0000000000000000e+00  -9.2267131632550528e-03 1.7691467227911015e-02 0.0000000000000000e+00  -1.0599901268906609e-02 1.5438867144438340e-02 0.0000000000000000e+00  -1.1770076755607055e-02 1.2266174503679870e-02 0.0000000000000000e+00  -1.2651716058150412e-02 8.4275511571608817e-03 0.0000000000000000e+00  -1.3160074654272500e-02 4.1524723589828746e-03 0.0000000000000000e+00  -1.3220352062882025e-02 -3.5061644897098999e-04 0.0000000000000000e+00  0.0000000000000000e+00 0.0000000000000000e+00 0.0000000000000000e+00  2.7531049873883866e-04 -1.9657253024704582e-02 0.0000000000000000e+00  6.4851471535659481e-04 -2.4098136664990343e-02 0.0000000000000000e+00  7.4575323912773838e-04 -1.9730231969465821e-02 0.0000000000000000e+00  4.6327502197131482e-04 -1.1288941840204620e-02 0.0000000000000000e+00  -1.7003461290991339e-04 -1.9296995905123682e-03 0.0000000000000000e+00  -1.0806135396752286e-03 6.4860564777226215e-03 0.0000000000000000e+00  -2.1943373927770025e-03 1.3043558016056995e-02 0.0000000000000000e+00  -3.4506187104960504e-03 1.7448432430118743e-02 0.0000000000000000e+00  -4.7993892287736713e-03 1.9763709928571172e-02 0.0000000000000000e+00  -6.1912184299870530e-03 2.0223622957575196e-02 0.0000000000000000e+00  -7.5680052413645074e-03 1.9119440530167956e-02 0.0000000000000000e+00  -8.8583084862202000e-03 1.6741792007960245e-02 0.0000000000000000e+00  -9.9781489800624627e-03 1.3360691453754344e-02 0.0000000000000000e+00  -1.0834089481407572e-02 9.2259202045800234e-03 0.0000000000000000e+00  -1.1333867864481010e-02 4.5741558513273366e-03 0.0000000000000000e+00  -1.1391185143934638e-02 -3.6385900125655748e-04 0.0000000000000000e+00  0.0000000000000000e+00 0.0000000000000000e+00 0.0000000000000000e+00  3.1081211247276780e-04 -2.0107939614522001e-02 0.0000000000000000e+00  7.5772358071163088e-04 -2.4417918733902335e-02 0.0000000000000000e+00  9.5601438073954876e-04 -1.9711275335371495e-02 0.0000000000000000e+00  8.2084222629206062e-04 -1.0921543298029994e-02 0.0000000000000000e+00  4.0087992001410340e-04 -1.2807701305956631e-03 0.0000000000000000e+00  -2.2325318667215928e-04 7.3406950488785865e-03 0.0000000000000000e+00  -9.8632801910637172e-04 1.4045709746349845e-02 0.0000000000000000e+00  -1.8491151936749380e-03 1.8558577865515794e-02 0.0000000000000000e+00  -2.7890726329810344e-03 2.0950320903012604e-02 0.0000000000000000e+00  -3.7843776324858265e-03 2.1450725627210968e-02 0.0000000000000000e+00  -4.8012619376351963e-03 2.0337754168837215e-02 0.0000000000000000e+00  -5.7877398247607893e-03 1.7886530041381743e-02 0.0000000000000000e+00  -6.6752963483717957e-03 1.4356746577582413e-02 0.0000000000000000e+00  -7.3828427830838327e-03 9.9934735300590306e-03 0.0000000000000000e+00  -7.8240144299685753e-03 5.0295655164557130e-03 0.0000000000000000e+00  -7.8834303411782145e-03 -3.0070670458409065e-04 0.0000000000000000e+00  0.0000000000000000e+00 0.0000000000000000e+00 0.0000000000000000e+00  3.0700658886727365e-04 -2.0588525751016593e-02 0.0000000000000000e+00  7.5192005922508859e-04 -2.4787550926336055e-02 0.0000000000000000e+00  9.9926722625361553e-04 -1.9797624026461277e-02 0.0000000000000000e+00  1.0284264496733700e-03 -1.0754236548283287e-02 0.0000000000000000e+00  9.2901817036062121e-04 -9.4775780776262754e-04 0.0000000000000000e+00  7.8894470662790601e-04 7.7664834010259800e-03 0.0000000000000000e+00  6.5106413175309132e-04 1.4528741518443447e-02 0.0000000000000000e+00  5.1307431465465213e-04 1.9093900496051867e-02 0.0000000000000000e+00  3.4789108501560411e-04 2.1545096190573352e-02 0.0000000000000000e+00  1.2714371277032938e-04 2.2105528268831599e-02 0.0000000000000000e+00  -1.6117109717317366e-04 2.1036372117238855e-02 0.0000000000000000e+00  -5.0519610949917206e-04 1.8599891476212507e-02 0.0000000000000000e+00  -8.8044354827902132e-04 1.5049486767549726e-02 0.0000000000000000e+00  -1.2543859796109885e-03 1.0617329420809167e-02 0.0000000000000000e+00  -1.5751319563338997e-03 5.5091841722226774e-03 0.0000000000000000e+00  -1.6909897005736507e-03 -7.8162729286056161e-05 0.0000000000000000e+00  0.0000000000000000e+00 0.0000000000000000e+00 0.0000000000000000e+00  2.4466528656444419e-04 -2.1017248204753664e-02 0.0000000000000000e+00  5.7908707726284309e-04 -2.5120663857249200e-02 0.0000000000000000e+00  8.0669417199634636e-04 -1.9965590389451698e-02 0.0000000000000000e+00  1.0335690451394744e-03 -1.0864696191931469e-02 0.0000000000000000e+00  1.4148688830502921e-03 -1.1195013155177532e-03 0.0000000000000000e+00  2.0409988081328957e-03 7.4738576797769019e-03 0.0000000000000000e+00  2.9106872760995823e-03 1.4123448514923130e-02 0.0000000000000000e+00  3.9515318188615475e-03 1.8630227468129243e-02 0.0000000000000000e+00  5.0566122205300320e-03 2.1092831221945763e-02 0.0000000000000000e+00  6.1190541999335815e-03 2.1724915565279335e-02 0.0000000000000000e+00  7.0586035678537849e-03 2.0769183392560973e-02 0.0000000000000000e+00  7.8195292930163304e-03 1.8472620342577906e-02 0.0000000000000000e+00  8.3471692353091452e-03 1.5083956042935571e-02 0.0000000000000000e+00  8.5825067252496678e-03 1.0854695266032010e-02 0.0000000000000000e+00  8.4669384903838449e-03 5.9707409097971755e-03 0.0000000000000000e+00  8.1430223438605110e-03 4.6310423580003866e-04 0.0000000000000000e+00  0.0000000000000000e+00 0.0000000000000000e+00 0.0000000000000000e+00  8.5810425765542946e-05 -2.1265433223561753e-02 0.0000000000000000e+00  1.3577321398108215e-04 -2.5286175201934904e-02 0.0000000000000000e+00  2.3150808006191059e-04 -2.0179209842586168e-02 0.0000000000000000e+00  6.8827155737739149e-04 -1.1359401938047830e-02 0.0000000000000000e+00  1.7486785482644924e-03 -2.0497513062345055e-03 0.0000000000000000e+00  3.4892896053934398e-03 6.0821519424760096e-03 0.0000000000000000e+00  5.8312640077213193e-03 1.2352907984721974e-02 0.0000000000000000e+00  8.5945213405868338e-03 1.6626372047784790e-02 0.0000000000000000e+00  1.1556316615928248e-02 1.9018026794206506e-02 0.0000000000000000e+00  1.4501715490886607e-02 1.9724827696449232e-02 0.0000000000000000e+00  1.7253629254692936e-02 1.8954889059899525e-02 0.0000000000000000e+00  1.9664312411650401e-02 1.6933926793737349e-02 0.0000000000000000e+00  2.1608906213165673e-02 1.3975825603201679e-02 0.0000000000000000e+00  2.2867390812067016e-02 1.0445931729497001e-02 0.0000000000000000e+00  2.3077796391817122e-02 6.4436027015124832e-03 0.0000000000000000e+00  2.2200338457188894e-02 1.5773508016528825e-03 0.0000000000000000e+00  0.0000000000000000e+00 0.0000000000000000e+00 0.0000000000000000e+00  -2.3040307775460672e-04 -2.1123573922320237e-02 0.0000000000000000e+00  -7.3730284907767255e-04 -2.5077181184447399e-02 0.0000000000000000e+00  -9.5133088417928731e-04 -2.0369718555835845e-02 0.0000000000000000e+00  -2.5330665919593001e-04 -1.2355197619074505e-02 0.0000000000000000e+00  1.6911452581001019e-03 -4.0304035521375658e-03 0.0000000000000000e+00  4.9078320289251678e-03 3.1603417044467983e-03 0.0000000000000000e+00  9.1941344793594094e-03 8.6876601604105579e-03 0.0000000000000000e+00  1.4220500178796489e-02 1.2491565322138406e-02 0.0000000000000000e+00  1.9614279409377530e-02 1.4700221941392654e-02 0.0000000000000000e+00  2.5020807939263014e-02 1.5476912295288161e-02 0.0000000000000000e+00  3.0134474122535813e-02 1.4972787653272432e-02 0.0000000000000000e+00  3.4736152226719538e-02 1.3394793234080972e-02 0.0000000000000000e+00  3.8652317368825288e-02 1.1110120707882606e-02 0.0000000000000000e+00  4.1407628650612822e-02 8.5718514412761685e-03 0.0000000000000000e+00  4.2335780586075560e-02 6.1592098776410819e-03 0.0000000000000000e+00  4.0622111471594315e-02 3.5620978241674341e-03 0.0000000000000000e+00  0.0000000000000000e+00 0.0000000000000000e+00 0.0000000000000000e+00  -7.8062556926827419e-04 -2.0270534753546975e-02 0.0000000000000000e+00  -2.2199897393530166e-03 -2.4196892662925663e-02 0.0000000000000000e+00  -2.9769375607461073e-03 -2.0427833446786812e-02 0.0000000000000000e+00  -2.0574393185631523e-03 -1.3952636987296863e-02 0.0000000000000000e+00  9.2376756975468704e-04 -7.3298272569151052e-03 0.0000000000000000e+00  5.8774546122481479e-03 -1.6735060707975032e-03 0.0000000000000000e+00  1.2426464343151741e-02 2.6769530312735729e-03 0.0000000000000000e+00  2.0061328097424121e-02 5.7386828004052605e-03 0.0000000000000000e+00  2.8241145388802593e-02 7.6404779294957587e-03 0.0000000000000000e+00  3.6450600513047271e-02 8.4950742771431383e-03 0.0000000000000000e+00  4.4245415873296272e-02 8.3697135915974229e-03 0.0000000000000000e+00  5.1325084163475899e-02 7.3492053572166774e-03 0.0000000000000000e+00  5.7429620320314151e-02 5.7163745372278731e-03 0.0000000000000000e+00  6.2332386488150808e-02 4.5753655819858515e-03 0.0000000000000000e+00  6.5145078232922843e-02 5.6206591840679623e-03 0.0000000000000000e+00  6.3355688036326838e-02 6.2371526874200507e-03 0.0000000000000000e+00  0.0000000000000000e+00 0.0000000000000000e+00 0.0000000000000000e+00  -1.6157886464511272e-03 -1.8293217989204500e-02 0.0000000000000000e+00  -4.3686815280767673e-03 -2.2317415514532347e-02 0.0000000000000000e+00  -5.8600893273529041e-03 -2.0240085192767990e-02 0.0000000000000000e+00  -4.7620680384739813e-03 -1.6199269401129032e-02 0.0000000000000000e+00  -7.5696544726341713e-04 -1.2069045687189946e-02 0.0000000000000000e+00  5.8705548489478678e-03 -8.5522197141734164e-03 0.0000000000000000e+00  1.4542651088050074e-02 -5.7959016768971746e-03 0.0000000000000000e+00  2.4582001622386548e-02 -3.7272973829309930e-03 0.0000000000000000e+00  3.5307153322112400e-02 -2.2345944464723447e-03 0.0000000000000000e+00  4.6070475023878038e-02 -1.2607298498610970e-03 0.0000000000000000e+00  5.6289848773965041e-02 -8.3991690210575632e-04 0.0000000000000000e+00  6.5465040557765947e-02 -1.0695944869428761e-03 0.0000000000000000e+00  7.3307112062979948e-02 -1.8231736340285540e-03 0.0000000000000000e+00  8.0416871252116467e-02 -2.1598166532571417e-03 0.0000000000000000e+00  8.6206989048663418e-02 8.6984260322908096e-04 0.0000000000000000e+00  8.2934016166940475e-02 7.8402127823740016e-03 0.0000000000000000e+00  0.0000000000000000e+00 0.0000000000000000e+00 0.0000000000000000e+00  -2.6068280218107826e-03 -1.4838242560888726e-02 0.0000000000000000e+00  -6.7069573865177305e-03 -1.9288262810945003e-02 0.0000000000000000e+00  -8.8297535977022203e-03 -1.9781428839394457e-02 0.0000000000000000e+00  -7.6146498347029268e-03 -1.9000365667668329e-02 0.0000000000000000e+00  -2.9998476473554075e-03 -1.7967437675025653e-02 0.0000000000000000e+00  4.5023215398643877e-03 -1.6984108594903864e-02 0.0000000000000000e+00  1.4174975248815834e-02 -1.6060659039317724e-02 0.0000000000000000e+00  2.5275729733282747e-02 -1.5115490975878148e-02 0.0000000000000000e+00  3.7097880215218808e-02 -1.4073065833369878e-02 0.0000000000000000e+00  4.8973582896727340e-02 -1.2918758711852914e-02 0.0000000000000000e+00  6.0245591368807652e-02 -1.1739463963902887e-02 0.0000000000000000e+00  7.0247939854880675e-02 -1.0737062526145433e-02 0.0000000000000000e+00  7.8589554289475241e-02 -1.0214617124131102e-02 0.0000000000000000e+00  8.5130745636472188e-02 -1.0499454047257157e-02 0.0000000000000000e+00  9.0235094868901758e-02 -9.8999927352917249e-03 0.0000000000000000e+00  1.0085219465556887e-01 -2.6912700809909812e-03 0.0000000000000000e+00  0.0000000000000000e+00 0.0000000000000000e+00 0.0000000000000000e+00  -2.9820510109172891e-03 -1.0245384938633724e-02 0.0000000000000000e+00  -7.2189405094662418e-03 -1.5727688371092820e-02 0.0000000000000000e+00  -9.1494422611351472e-03 -1.9302102278803603e-02 0.0000000000000000e+00  -8.0287421001279408e-03 -2.1929426994914712e-02 0.0000000000000000e+00  -4.1195269808105830e-03 -2.3894784681055273e-02 0.0000000000000000e+00  2.0156305748965839e-03 -2.5249053419499273e-02 0.0000000000000000e+00  9.7660481653465102e-03 -2.5968540051509330e-02 0.0000000000000000e+00  1.8566702919568256e-02 -2.6014048736502430e-02 0.0000000000000000e+00  2.7910978964502287e-02 -2.5357802060738538e-02 0.0000000000000000e+00  3.7325627494611290e-02 -2.4001182247434347e-02 0.0000000000000000e+00  4.6313337825164870e-02 -2.1992533872874309e-02 0.0000000000000000e+00  5.4311566855941525e-02 -1.9454274299584479e-02 0.0000000000000000e+00  6.0500489550861514e-02 -1.6732272843680590e-02 0.0000000000000000e+00  6.3517414911852310e-02 -1.4291118312717404e-02 0.0000000000000000e+00  6.3915714000714566e-02 -1.2972371603358276e-02 0.0000000000000000e+00  4.4325996666959341e-02 -9.7524245033949065e-03 0.0000000000000000e+00  0.0000000000000000e+00 0.0000000000000000e+00 0.0000000000000000e+00  0.0000000000000000e+00 -7.3437441541528989e-03 0.0000000000000000e+00  0.0000000000000000e+00 -1.3708322421085412e-02 0.0000000000000000e+00  0.0000000000000000e+00 -1.9093734800797537e-02 0.0000000000000000e+00  0.0000000000000000e+00 -2.3499981293289278e-02 0.0000000000000000e+00  0.0000000000000000e+00 -2.6927061898560624e-02 0.0000000000000000e+00  0.0000000000000000e+00 -2.9374976616611599e-02 0.0000000000000000e+00  0.0000000000000000e+00 -3.0843725447442176e-02 0.0000000000000000e+00  0.0000000000000000