<?xml version="1.0"?>
<VTKFile type="UnstructuredGrid"  version="0.1"  >
<UnstructuredGrid>
<Piece  NumberOfPoints="289" NumberOfCells="512">
<Points>
<DataArray  type="Float64"  NumberOfComponents="3"  format="ascii">0 0 0  0.0625 0 0  0.125 0 0  0.1875 0 0  0.25 0 0  0.3125 0 0  0.375 0 0  0.4375 0 0  0.5 0 0  0.5625 0 0  0.625 0 0  0.6875 0 0  0.75 0 0  0.8125 0 0  0.875 0 0  0.9375 0 0  1 0 0  0 0.0625 0  0.06248755666859655 0.06247028292248468 0  0.1249751916298898 0.06244004066814924 0  0.1874630104227524 0.06240878611671419 0  0.2499512822370769 0.06237614284700289 0  0.31244055424508 0.0623419166577661 0  0.3749318151390131 0.06230618506058411 0  0.437426740022303 0.06226940569261791 0  0.4999280713401092 0.0622325371003814 0  0.5624402381086528 0.06219715175070588 0  0.6249704228572261 0.06216549885609767 0  0.6875305431486912 0.06214044281356332 0  0.7501412662134725 0.06212516931709301 0  0.8128408658774505 0.06212255500522883 0  0.8757059752245636 0.06213430953311773 0  0.9389000147601115 0.06216135000843231 0  1.002764254428705 0.06221763594420732 0  0 0.125 0  0.06247503619390992 0.1249410638950921 0  0.1249501678284195 0.1248810210621096 0  0.1874255452542806 0.1248188350420167 0  0.2499016356347697 0.124753677737819 0  0.312379446454088 0.1246850683115382 0  0.3748608464827901 0.1246130524647141 0  0.4373490449302097 0.1245384281638789 0  0.4998493266100635 0.1244630113292188 0  0.5623702119942537 0.1243899103990417 0  0.6249253508896849 0.1243237351091774 0  0.687536734973886 0.1242705960632573 0  0.7502403340270762 0.1242376622418963 0  0.8130960714297547 0.124231984144299 0  0.876204579057005 0.1242584686092365 0  0.9397305178159208 0.1243178914982336 0  1.003924780326218 0.1244070946253141 0  0 0.1875 0  0.06246249605751842 0.1874129391353864 0  0.1249249696632342 0.1873240880852901 0  0.1873874734305586 0.1872317468486632 0  0.2498504903007024 0.1871344931988663 0  0.3123152404056724 0.1870313779005093 0  0.3747841231014316 0.1869221893099497 0  0.4372613719062722 0.1868078060308374 0  0.499754036440795 0.1866906442534431 0  0.5622734627646164 0.1865751780481838 0  0.6248375286387556 0.1864684522766965 0  0.6874739949277435 0.186380395526899 0  0.7502253750587294 0.1863235304389256 0  0.8131553602911323 0.1863112588694026 0  0.8763550924190383 0.1863528805043991 0  0.9399428110700192 0.1864403714783972 0  1.004044512571833 0.1865113037664274 0  0 0.25 0  0.06245012647360774 0.2498866049531787 0  0.1248999228892464 0.2497706034038724 0  0.1873491402052257 0.2496494794049928 0  0.2497980094712545 0.2495210180603674 0  0.3122475911221914 0.2493835352962022 0  0.3747002836284829 0.249236211203736 0  0.4371605768188695 0.2490795672005686 0  0.4996361632712367 0.248916124544905 0  0.562139550686814 0.2487512640504977 0  0.6246903297895787 0.2485942559429882 0  0.6873181900313089 0.2484593108866935 0  0.750066497786977 0.2483662575418787 0  0.8129954589716635 0.2483399742253391 0  0.8761821458273426 0.2484068508187367 0  0.939712066631912 0.2485854316979857 0  1.003656274849914 0.2488692727574284 0  0 0.3125 0  0.06243828612813001 0.3123628867338362 0  0.1248757209359673 0.3122222099941763 0  0.1873115212254245 0.3120744703655509 0  0.2497453535391694 0.3119164274654149 0  0.3121776760035924 0.311745327998385 0  0.3746102515892767 0.3115592703352901 0  0.4370469239301262 0.3113577742203875 0  0.4994947720600263 0.3111426411030525 0  0.5619657767568892 0.3109192025131285 0  0.6244791080724755 0.3106980434471347 0  0.6870640155076964 0.3104972166284554 0  0.749762953667649 0.3103447565840998 0  0.8126338742639226 0.3102808350730124 0  0.8757496447733571 0.3103580346524676 0  0.9391923902348456 0.3106370328392546 0  1.003044751816527 0.3111743167077511 0  0 0.375 0  0.06242750869962498 0.374842744616312 0  0.1248534457337491 0.3746808521646315 0  0.1872762732947661 0.3745096905861404 0  0.2496947850174273 0.3743247631773109 0  0.3121083855160733 0.3741218826929401 0  0.3745175416230249 0.373897502131524 0  0.4369245061925983 0.3736492988815603 0  0.4993344525511755 0.3733771536622457 0  0.5617571934415649 0.3730847259035525 0  0.6242096654344673 0.3727818950747646 0  0.6867192800817226 0.3724883806333144 0  0.7493279831564322 0.3722387822529266 0  0.812096348345544 0.3720889018251833 0  0.8751064375571344 0.3721222037822192 0  0.9384624813059139 0.3724533939527205 0  1.002292165498234 0.3732237588407968 0  0 0.4375 0  0.06241847722124583 0.4373272476244956 0  0.1248345196562789 0.4371487306119843 0  0.1872456704520934 0.4369585962344028 0  0.249649599583677 0.4367509146995985 0  0.3120442636352804 0.4365197346548813 0  0.3744282207190314 0.4362592881051134 0  0.4368012131121681 0.4359644573923213 0  0.4991651962321912 0.4356316907513172 0  0.5615260865024657 0.4352606720109472 0  0.6238966149203866 0.4348572305383058 0  0.6863007690727134 0.4344382204639106 0  0.7487802854333466 0.4340393376222499 0  0.8114033496336233 0.4337268245055348 0  0.8742749726077274 0.4336131188096353 0  0.9375479543549352 0.4338738332030741 0  1.001435365699514 0.4347591966358531 0  0 0.5 0  0.06241196704701433 0.4998175100553742 0  0.1248205893325738 0.4996281772123046 0  0.1872224252677934 0.4994249487318404 0  0.2496138829176436 0.4992004032968812 0  0.3119912039372927 0.4989466213933755 0  0.3743505583306171 0.4986551574406136 0  0.4366883646181282 0.4983172159433481 0  0.4990020536288649 0.4979242253784239 0  0.5612916771086751 0.4974691712238943 0  0.6235630637295033 0.4969493502196975 0  0.6858336664945507 0.4963717232811415 0  0.7481427526945346 0.4957628420801291 0  0.8105678230280057 0.495186267500986 0  0.8732483424625922 0.494770583024933 0  0.9364153406362618 0.4947479982021815 0  1.000423971651289 0.4954940402738473 0  0 0.5625 0  0.06240876151240038 0.5623145887448174 0  0.1248133484301106 0.5621214436597637 0  0.1872094032760887 0.5619124847895098 0  0.2495920984113565 0.5616789250348675 0  0.3119558987482074 0.5614109045213644 0  0.3742943514636898 0.5610971342486289 0  0.4365999901279109 0.5607246035368146 0  0.4988645699326091 0.5602784871740479 0  0.5610801219854105 0.5597425603095408 0  0.6232418527751892 0.5591007919444301 0  0.6853548992681172 0.558341545314155 0  0.7474485180805778 0.5574673441688598 0  0.8096031301344296 0.5565159765131342 0  0.8719960059958211 0.5556025793389497 0  0.9349661594446799 0.5549928488923259 0  0.9990852158763208 0.5552029383641027 0  0 0.625 0  0.06240954778271674 0.6248193475414808 0  0.1248143133220683 0.6246304144895947 0  0.1872092476801069 0.6244244457789225 0  0.2495885179927597 0.6241916484461802 0  0.311945030736607 0.6239205758245167 0  0.3742698562736492 0.623597394756578 0  0.4365515670916135 0.6232050057275211 0  0.4987756132496431 0.6227220187245803 0  0.5609241515988419 0.6221216864233495 0  0.6229774569836396 0.6213711696209883 0  0.6849196449538134 0.6204322457549459 0  0.7467547058108913 0.6192665320478139 0  0.8085444850421631 0.6178533756086387 0  0.870486447266532 0.6162403317946343 0  0.9330455024906325 0.614662956414239 0  0.9971296672450199 0.6137521552754992 0  0 0.6875 0  0.06241480435250777 0.6873323048726557 0  0.1248245745995623 0.6871562765591911 0  0.1872239470966341 0.686963014433817 0  0.2496065306333002 0.6867423270604722 0  0.3119642192695999 0.6864819063141591 0  0.3742862577652437 0.6861662533653786 0  0.4365579476626892 0.6857752241020255 0  0.4987589026926695 0.6852820152126414 0  0.5608609241592226 0.6846503596002733 0  0.6228261674505906 0.6838306833024705 0  0.6846080934690388 0.6827551798796825 0  0.7461626418841663 0.6813329274575516 0  0.8074890352744537 0.6794512533599093 0  0.8687428625115261 0.6770098297427789 0  0.9304772881281447 0.6740844048224387 0  0.994012115317343 0.6713552936593193 0  0 0.75 0  0.06242469608951403 0.7498534893344624 0  0.1248445588749925 0.7496991986171773 0  0.1872544031918755 0.7495287488944631 0  0.2496479088443403 0.7493323645458109 0  0.3120168125952977 0.7490979365583059 0  0.3743497264372975 0.7488097419485531 0  0.4366303297970031 0.7484466027572072 0  0.4988345482215938 0.7479791447890952 0  0.5609261720356645 0.7473655997500045 0  0.6228503536228528 0.7465452031421408 0  0.6845252657743741 0.7454275228327494 0  0.7458364813770518 0.7438748396775116 0  0.8066548768018338 0.7416736487689291 0  0.8669531396434534 0.7384985659171674 0  0.9272433322024753 0.733955590840912 0  0.9891223420056103 0.7286130835890064 0  0 0.8125 0  0.06243899637214937 0.8123823335608941 0  0.1248738462358108 0.8122580885771025 0  0.1873000822452421 0.8121201348820417 0  0.2497121759058689 0.8119600347952481 0  0.312102750840929 0.811767139596787 0  0.3744613767102877 0.8115273178506193 0  0.4367726034479532 0.8112210694383377 0  0.4990126123379142 0.8108206244985344 0  0.5611433160024207 0.810285342632919 0  0.623101732696798 0.8095541691015101 0  0.6847808223508309 0.8085326748133306 0  0.7459964437274567 0.8070691281864821 0  0.8064400037317874 0.8049055863758073 0  0.8656631202343131 0.8015663385209506 0  0.9234352450590309 0.796084641590707 0  0.9833520300485746 0.7862885748656453 0  0 0.875 0  0.0624570563489171 0.8749176352018777 0  0.124911092409646 0.8748304948786654 0  0.1873588499547446 0.8747333800619673 0  0.2497962654223887 0.8746200776515476 0  0.312217860995118 0.874482646956154 0  0.3746157874523884 0.8743103995147851 0  0.4369782078139804 0.8740883649549451 0  0.4992863994698638 0.8737949107612438 0  0.5615092564918568 0.8733979763369917 0  0.6235922599793119 0.8728490373600466 0  0.6854341340722764 0.8720732869104003 0  0.7468351244509819 0.8709528985320341 0  0.8073789828339286 0.8692936677529459 0  0.8661637703828501 0.8667333460612594 0  0.9212212649342125 0.8624027899039709 0  0.9684947733246876 0.8535756269144298 0  0 0.9375 0  0.06247783603578261 0.9374576042941204 0  0.1249540933251991 0.9374126978458475 0  0.1874270717571433 0.9373625403365016 0  0.2498946501167423 0.9373038384095875 0  0.3123539684990942 0.9372323529378381 0  0.3748009281052423 0.9371423332125527 0  0.4372293406640682 
[...]
<PointData  Vectors="f_95-0"> 
<DataArray  type="Float64"  Name="f_95-0"  NumberOfComponents="3" format="ascii">0.0000000000000000e+00 0.0000000000000000e+00 0.0000000000000000e+00  -1.6869386203953579e-04 -3.5476696180393237e-02 0.0000000000000000e+00  -4.5901642614212465e-04 -5.5148801178533949e-02 0.0000000000000000e+00  -7.8627689083666423e-04 -6.3343086824893743e-02 0.0000000000000000e+00  -1.1791469380304273e-03 -6.3876156451095928e-02 0.0000000000000000e+00  -1.6455262789423911e-03 -5.9835051927752521e-02 0.0000000000000000e+00  -2.1808175113909208e-03 -5.3476733331626100e-02 0.0000000000000000e+00  -2.7654895277469229e-03 -4.6293017219926957e-02 0.0000000000000000e+00  -3.3682730013226644e-03 -3.9156018310103881e-02 0.0000000000000000e+00  -3.9496903390118321e-03 -3.2488202246526370e-02 0.0000000000000000e+00  -4.4649579352291774e-03 -2.6421335727888084e-02 0.0000000000000000e+00  -4.8660836256146037e-03 -2.0926526302235324e-02 0.0000000000000000e+00  -5.1039366132171454e-03 -1.5909033827134701e-02 0.0000000000000000e+00  -5.1269643277509751e-03 -1.1272279218603137e-02 0.0000000000000000e+00  -4.8772299427523721e-03 -6.9489536962387671e-03 0.0000000000000000e+00  -4.3211814068881945e-03 -2.8912945902665283e-03 0.0000000000000000e+00  -1.6292164295902032e-03 1.5118891518608542e-03 0.0000000000000000e+00  0.0000000000000000e+00 0.0000000000000000e+00 0.0000000000000000e+00  -8.5482326463771698e-05 -3.5222531559893328e-02 0.0000000000000000e+00  -2.3737658114859816e-04 -5.4864350041432412e-02 0.0000000000000000e+00  -4.0360397519671921e-04 -6.3016749787959139e-02 0.0000000000000000e+00  -6.2218444071910316e-04 -6.3491138028543379e-02 0.0000000000000000e+00  -9.0924837236693772e-04 -5.9385458810136370e-02 0.0000000000000000e+00  -1.2657808308166509e-03 -5.2971896241551610e-02 0.0000000000000000e+00  -1.6753643451180521e-03 -4.5755263805519718e-02 0.0000000000000000e+00  -2.1102451873057358e-03 -3.8617208184209606e-02 0.0000000000000000e+00  -2.5355461141789173e-03 -3.1986526687500245e-02 0.0000000000000000e+00  -2.9124322723461274e-03 -2.5998685555462628e-02 0.0000000000000000e+00  -3.2004789601628942e-03 -2.0626128336721099e-02 0.0000000000000000e+00  -3.3598173307598672e-03 -1.5773590401785192e-02 0.0000000000000000e+00  -3.3532699924771390e-03 -1.1340136416059606e-02 0.0000000000000000e+00  -3.1619667030557625e-03 -7.2524000272896558e-03 0.0000000000000000e+00  -2.7683021965453484e-03 -3.4870808904666939e-03 0.0000000000000000e+00  -2.5730886228871263e-03 2.7451537151518789e-04 0.0000000000000000e+00  0.0000000000000000e+00 0.0000000000000000e+00 0.0000000000000000e+00  8.9711193287236879e-05 -3.5215984755672135e-02 0.0000000000000000e+00  2.8974352486209093e-04 -5.4883494573949344e-02 0.0000000000000000e+00  5.3471297827498111e-04 -6.3024386229207224e-02 0.0000000000000000e+00  7.5513156836488633e-04 -6.3449266785850195e-02 0.0000000000000000e+00  9.1613820965630332e-04 -5.9277866552395649e-02 0.0000000000000000e+00  1.0071786457120789e-03 -5.2802663225348802e-02 0.0000000000000000e+00  1.0375642136727686e-03 -4.5542093072439872e-02 0.0000000000000000e+00  1.0263735093814514e-03 -3.8385664071846085e-02 0.0000000000000000e+00  9.9679426939513734e-04 -3.1765904379066082e-02 0.0000000000000000e+00  9.7247074535118303e-04 -2.5819190770284339e-02 0.0000000000000000e+00  9.7526882181573531e-04 -2.0516424792351336e-02 0.0000000000000000e+00  1.0228283343144994e-03 -1.5757232161556615e-02 0.0000000000000000e+00  1.1226593889744000e-03 -1.1428339806248947e-02 0.0000000000000000e+00  1.2619208763734711e-03 -7.4283809424679796e-03 0.0000000000000000e+00  1.3801829077424335e-03 -3.6463021916524445e-03 0.0000000000000000e+00  1.5269105947150908e-03 -2.0126207095331782e-05 0.0000000000000000e+00  0.0000000000000000e+00 0.0000000000000000e+00 0.0000000000000000e+00  2.9212684187393219e-04 -3.5545793707300925e-02 0.0000000000000000e+00  9.4467526322548000e-04 -5.5365564271643117e-02 0.0000000000000000e+00  1.7411838157771326e-03 -6.3544729546967757e-02 0.0000000000000000e+00  2.5547674241652202e-03 -6.3940009987449045e-02 0.0000000000000000e+00  3.3254857157909543e-03 -5.9709648192392828e-02 0.0000000000000000e+00  4.0324730652181832e-03 -5.3171488713571399e-02 0.0000000000000000e+00  4.6762044531061210e-03 -4.5857078832434853e-02 0.0000000000000000e+00  5.2639124796600035e-03 -3.8660305191406591e-02 0.0000000000000000e+00  5.8020470311894359e-03 -3.2013104887476593e-02 0.0000000000000000e+00  6.2927440345486377e-03 -2.6048838859926961e-02 0.0000000000000000e+00  6.7328689386463528e-03 -2.0733846156304622e-02 0.0000000000000000e+00  7.1136827622054095e-03 -1.5961007411449974e-02 0.0000000000000000e+00  7.4201316118226012e-03 -1.1606199096408181e-02 0.0000000000000000e+00  7.6308557759904288e-03 -7.5510163450778142e-03 0.0000000000000000e+00  7.7323412711040457e-03 -3.6916171302508942e-03 0.0000000000000000e+00  7.7147908380445834e-03 5.3443334102241500e-06 0.0000000000000000e+00  0.0000000000000000e+00 0.0000000000000000e+00 0.0000000000000000e+00  4.9612718841267247e-04 -3.6245407584759415e-02 0.0000000000000000e+00  1.6240502627854511e-03 -5.6390255523978514e-02 0.0000000000000000e+00  3.0256849858685910e-03 -6.4682419680641604e-02 0.0000000000000000e+00  4.5084390768683064e-03 -6.5083255520012179e-02 0.0000000000000000e+00  5.9858026642046688e-03 -6.0813881405525884e-02 0.0000000000000000e+00  7.4261592686711321e-03 -5.4224235937819422e-02 0.0000000000000000e+00  8.8198618941326239e-03 -4.6856912037887700e-02 0.0000000000000000e+00  1.0158906347979257e-02 -3.9604611784711176e-02 0.0000000000000000e+00  1.1427600128680987e-02 -3.2892714491736252e-02 0.0000000000000000e+00  1.2600053203384072e-02 -2.6846815364109086e-02 0.0000000000000000e+00  1.3641567802793181e-02 -2.1426529777834699e-02 0.0000000000000000e+00  1.4512550286889312e-02 -1.6520493070195735e-02 0.0000000000000000e+00  1.5174692960288432e-02 -1.2004631584715562e-02 0.0000000000000000e+00  1.5602413721499120e-02 -7.7708757390314532e-03 0.0000000000000000e+00  1.5791094179908947e-02 -3.7372693073980108e-03 0.0000000000000000e+00  1.5770079781383273e-02 1.3317788886375414e-04 0.0000000000000000e+00  0.0000000000000000e+00 0.0000000000000000e+00 0.0000000000000000e+00  6.8562793256163681e-04 -3.7307099755901262e-02 0.0000000000000000e+00  2.2674342122152506e-03 -5.7967883467575171e-02 0.0000000000000000e+00  4.2704246583611704e-03 -6.6473363697008916e-02 0.0000000000000000e+00  6.4486364795671488e-03 -6.6942456576598003e-02 0.0000000000000000e+00  8.6960150465278368e-03 -6.2683433133177244e-02 0.0000000000000000e+00  1.0972380181379918e-02 -5.6083279816079051e-02 0.0000000000000000e+00  1.3256270673754206e-02 -4.8690716085325741e-02 0.0000000000000000e+00  1.5519037689022011e-02 -4.1389064983232172e-02 0.0000000000000000e+00  1.7714861269660789e-02 -3.4589235791295671e-02 0.0000000000000000e+00  1.9780074475475917e-02 -2.8403362574574261e-02 0.0000000000000000e+00  2.1637438341405451e-02 -2.2782000111367925e-02 0.0000000000000000e+00  2.3204432152944272e-02 -1.7611838622706270e-02 0.0000000000000000e+00  2.4405356444462390e-02 -1.2779094706431572e-02 0.0000000000000000e+00  2.5192252454846659e-02 -8.2038893979308920e-03 0.0000000000000000e+00  2.5562656640667324e-02 -3.8459550357766228e-03 0.0000000000000000e+00  2.5583551186676511e-02 3.1452389654072489e-04 0.0000000000000000e+00  0.0000000000000000e+00 0.0000000000000000e+00 0.0000000000000000e+00  8.4931561516948275e-04 -3.8696483502834597e-02 0.0000000000000000e+00  2.8328552926180982e-03 -6.0063984915165639e-02 0.0000000000000000e+00  5.3953973361705659e-03 -6.8908505227405367e-02 0.0000000000000000e+00  8.2659111696473941e-03 -6.9549908264317784e-02 0.0000000000000000e+00  1.1335594516078584e-02 -6.5399854935254437e-02 0.0000000000000000e+00  1.4561601130556658e-02 -5.8880367990414073e-02 0.0000000000000000e+00  1.7907960764353546e-02 -5.1535832508204607e-02 0.0000000000000000e+00  2.1316687470447831e-02 -4.4228149284648216e-02 0.0000000000000000e+00  2.4699507761056175e-02 -3.7343697303327407e-02 0.0000000000000000e+00  2.7940592051719969e-02 -3.0973656311907082e-02 0.0000000000000000e+00  3.0903781702311929e-02 -2.5053693159186003e-02 0.0000000000000000e+00  3.3442572384873977e-02 -1.9466517363745411e-02 0.0000000000000000e+00  3.5416106983057360e-02 -1.4115543950122270e-02 0.0000000000000000e+00  3.6726418394657109e-02 -8.9678335947200958e-03 0.0000000000000000e+00  3.7356186298321020e-02 -4.0581323281150125e-03 0.0000000000000000e+00  3.7443252007852972e-02 5.6448118355371642e-04 0.0000000000000000e+00  0.0000000000000000e+00 0.0000000000000000e+00 0.0000000000000000e+00  9.7417015936970136e-04 -4.0357163073802035e-02 0.0000000000000000e+00  3.2760593522049917e-03 -6.2609128996041083e-02 0.0000000000000000e+00  6.3220147400581744e-03 -7.1946910745947279e-02 0.0000000000000000e+00  9.8598134020711631e-03 -7.2922416255646744e-02 0.0000000000000000e+00  1.3804252730693816e-02 -6.9052050144972330e-02 0.0000000000000000e+00  1.8118415162028754e-02 -6.2777997630889204e-02 0.0000000000000000e+00  2.2746768021384759e-02 -5.5620803754651109e-02 0.0000000000000000e+00  2.7588423806750972e-02 -4.8403877011695559e-02 0.0000000000000000e+00  3.2495337568909120e-02 -4.1476375238200344e-02 0.0000000000000000e+00  3.7281290734960067e-02 -3.4898474899710256e-02 0.0000000000000000e+00  4.1729893444831377e-02 -2.8582906476755890e-02 0.0000000000000000e+00  4.5602565293723370e-02 -2.2402154381711979e-02 0.0000000000000000e+00  4.8656659984569292e-02 -1.6270369789235115e-02 0.0000000000000000e+00  5.0696931626551554e-02 -1.0210801702741990e-02 0.0000000000000000e+00  5.1647473056786797e-02 -4.3971826875675588e-03 0.0000000000000000e+00  5.1743783680407683e-02 9.4242863244767890e-04 0.0000000000000000e+00  0.0000000000000000e+00 0.0000000000000000e+00 0.0000000000000000e+00  1.0395418015717150e-03 -4.2202907611728332e-02 0.0000000000000000e+00  3.5312608126818125e-03 -6.5492316376125598e-02 0.0000000000000000e+00  6.9387588287781847e-03 -7.5513873054237429e-02 0.0000000000000000e+00  1.1090874406564448e-02 -7.7064079707402824e-02 0.0000000000000000e+00  1.5960671148060945e-02 -7.3742301446123842e-02 0.0000000000000000e+00  2.1525654537341413e-02 -6.7976684314165370e-02 0.0000000000000000e+00  2.7700542245097038e-02 -6.1232053349713191e-02 0.0000000000000000e+00  3.4321544820937230e-02 -5.4270287069868313e-02 0.0000000000000000e+00  4.1158599303641720e-02 -4.7389310795027097e-02 0.0000000000000000e+00  4.7932848799585058e-02 -4.0610952364702343e-02 0.0000000000000000e+00  5.4326271773016577e-02 -3.3815798550915953e-02 0.0000000000000000e+00  5.9986621302768564e-02 -2.6838674597835770e-02 0.0000000000000000e+00  6.4523878021943537e-02 -1.9571952873451717e-02 0.0000000000000000e+00  6.7557491387026297e-02 -1.2112801887292097e-02 0.0000000000000000e+00  6.8863617184483514e-02 -4.8669024307451490e-03 0.0000000000000000e+00  6.8750928843815756e-02 1.6122089601733009e-03 0.0000000000000000e+00  0.0000000000000000e+00 0.0000000000000000e+00 0.0000000000000000e+00  1.0114875675167449e-03 -4.4099781869260557e-02 0.0000000000000000e+00  3.4944125821037902e-03 -6.8541024563502570e-02 0.0000000000000000e+00  7.0730038044642708e-03 -7.9485968001324042e-02 0.0000000000000000e+00  1.1740930512776011e-02 -8.1956254413626917e-02 0.0000000000000000e+00  1.7568987666693365e-02 -7.9577631082972736e-02 0.0000000000000000e+00  2.4552403175767231e-02 -7.4703897223003635e-02 0.0000000000000000e+00  3.2557237132298480e-02 -6.8697547414581894e-02 0.0000000000000000e+00  4.1328976597032017e-02 -6.2231083307819193e-02 0.0000000000000000e+00  5.0526841382433990e-02 -5.5540634095853178e-02 0.0000000000000000e+00  5.9756338447525106e-02 -4.8607049526504104e-02 0.0000000000000000e+00  6.8591037013167808e-02 -4.1264764185171034e-02 0.0000000000000000e+00  7.6552004108465188e-02 -3.3286639493538855e-02 0.0000000000000000e+00  8.3049958578160277e-02 -2.4520111341972739e-02 0.0000000000000000e+00  8.7431381890110807e-02 -1.5064916981962361e-02 0.0000000000000000e+00  8.9151598783908867e-02 -5.5245641856094410e-03 0.0000000000000000e+00  8.8403721188354600e-02 2.9084468098367522e-03 0.0000000000000000e+00  0.0000000000000000e+00 0.0000000000000000e+00 0.0000000000000000e+00  8.3871344715494148e-04 -4.5840007242314212e-02 0.0000000000000000e+00  3.0143499068467344e-03 -7.1492988490018866e-02 0.0000000000000000e+00  6.4793874724327453e-03 -8.3668491037613812e-02 0.0000000000000000e+00  1.1496200198889873e-02 -8.7537032143265456e-02 0.0000000000000000e+00  1.8268599349272337e-02 -8.6644218321445948e-02 0.0000000000000000e+00  2.6799865042199375e-02 -8.3177855764963712e-02 0.0000000000000000e+00  3.6876514454238792e-02 -7.8337646859655136e-02 0.0000000000000000e+00  4.8117030163904125e-02 -7.2677677871333848e-02 0.0000000000000000e+00  6.0037323104777211e-02 -6.6367380056069417e-02 0.0000000000000000e+00  7.2111844518126217e-02 -5.9354871774080477e-02 0.0000000000000000e+00  8.3803536178491123e-02 -5.1449581148582481e-02 0.0000000000000000e+00  9.4509332745621413e-02 -4.2364355988268071e-02 0.0000000000000000e+00  1.0350790927832093e-01 -3.1728799751624619e-02 0.0000000000000000e+00  1.0980799214409299e-01 -1.9346378873013961e-02 0.0000000000000000e+00  1.1207523340576157e-01 -6.1175059058172854e-03 0.0000000000000000e+00  1.0983501152474687e-01 5.4071135997810094e-03 0.0000000000000000e+00  0.0000000000000000e+00 0.0000000000000000e+00 0.0000000000000000e+00  4.5388209553377833e-04 -4.7114850467368206e-02 0.0000000000000000e+00  1.9050794762398723e-03 -7.3973201404071071e-02 0.0000000000000000e+00  4.8676532502247875e-03 -8.7777760335435467e-02 0.0000000000000000e+00  9.9815177183535594e-03 -9.3675789371844856e-02 0.0000000000000000e+00  1.7595919151541767e-02 -9.4961728926530833e-02 0.0000000000000000e+00  2.7689914737251953e-02 -9.3535963428093657e-02 0.0000000000000000e+00  3.9927692743044349e-02 -9.0368237889789732e-02 0.0000000000000000e+00  5.3762832627057763e-02 -8.5869144541616385e-02 0.0000000000000000e+00  6.8542019886769584e-02 -8.0145790003494283e-02 0.0000000000000000e+00  8.3591984745053888e-02 -7.3147121997939712e-02 0.0000000000000000e+00  9.8255896506170323e-02 -6.4706638257931978e-02 0.0000000000000000e+00  1.1191614857971141e-01 -5.4449104922200953e-02 0.0000000000000000e+00  1.2389208516544246e-01 -4.1713201132538756e-02 0.0000000000000000e+00  1.3267994988433798e-01 -2.6058130768790481e-02 0.0000000000000000e+00  1.3604206908142200e-01 -8.1504063424008826e-03 0.0000000000000000e+00  1.3189137126163827e-01 9.6901585765102813e-03 0.0000000000000000e+00  0.0000000000000000e+00 0.0000000000000000e+00 0.0000000000000000e+00  -2.1007031626855488e-04 -4.7503268563556460e-02 0.0000000000000000e+00  7.5699696508743931e-06 -7.5503100835856915e-02 0.0000000000000000e+00  2.0139513637740612e-03 -9.1449166706087798e-02 0.0000000000000000e+00  6.8948620420245131e-03 -1.0014920614092170e-01 0.0000000000000000e+00  1.5103976964716487e-02 -1.0440978445452201e-01 0.0000000000000000e+00  2.6534987835341375e-02 -1.0571034931710124e-01 0.0000000000000000e+00  4.0686244070029624e-02 -1.0473414263349902e-01 0.0000000000000000e+00  5.6827419290493689e-02 -1.0173636688560722e-01 0.0000000000000000e+00  7.4131054350907374e-02 -9.6776193535393532e-02 0.0000000000000000e+00  9.1764333880969731e-02 -8.9839956811955168e-02 0.0000000000000000e+00  1.0897352858287195e-01 -8.0845410247916721e-02 0.0000000000000000e+00  1.2520235805978883e-01 -6.9528739015095542e-02 0.0000000000000000e+00  1.3981949318873524e-01 -5.5262031991210887e-02 0.0000000000000000e+00  1.5174965157541337e-01 -3.6247976333090605e-02 0.0000000000000000e+00  1.5849402151806899e-01 -1.0237995536166533e-02 0.0000000000000000e+00  1.5492777551015957e-01 1.5256092373992813e-02 0.0000000000000000e+00  0.0000000000000000e+00 0.0000000000000000e+00 0.0000000000000000e+00  -1.1680296109527406e-03 -4.6527156056765266e-02 0.0000000000000000e+00  -2.6406298721384281e-03 -7.5599769095496483e-02 0.0000000000000000e+00  -1.9683190443380055e-03 -9.4305226833614836e-02 0.0000000000000000e+00  2.3150190667536570e-03 -1.0662431607246554e-01 0.0000000000000000e+00  1.0640757749986919e-02 -1.1461208927074534e-01 0.0000000000000000e+00  2.2739558736191896e-02 -1.1922634462299336e-01 0.0000000000000000e+00  3.7931850735489755e-02 -1.2084743643111315e-01 0.0000000000000000e+00  5.5338475023354115e-02 -1.1958865760916168e-01 0.0000000000000000e+00  7.4008651030399955e-02 -1.1547695357488226e-01 0.0000000000000000e+00  9.2998199316845206e-02 -1.0854816257396714e-01 0.0000000000000000e+00  1.1147007412730470e-01 -9.8869467758125967e-02 0.0000000000000000e+00  1.2873784913584202e-01 -8.6466232040605495e-02 0.0000000000000000e+00  1.4441121136823415e-01 -7.0751165145703079e-02 0.0000000000000000e+00  1.5932804628071884e-01 -4.9418832381302430e-02 0.0000000000000000e+00  1.7115449777164352e-01 -1.7440428757804952e-02 0.0000000000000000e+00  1.6120658794094875e-01 2.1340089659042376e-02 0.0000000000000000e+00  0.0000000000000000e+00 0.0000000000000000e+00 0.0000000000000000e+00  -2.2328567679374112e-03 -4.3849097910515479e-02 0.0000000000000000e+00  -5.4123498940356089e-03 -7.4028589163671471e-02 0.0000000000000000e+00  -6.0830295664404148e-03 -9.6092762315875463e-02 0.0000000000000000e+00  -2.7333775226748508e-03 -1.1261805448444726e-01 0.0000000000000000e+00  4.8423319982142119e-03 -1.2473449808072007e-01 0.0000000000000000e+00  1.6178297300315198e-02 -1.3288293464650369e-01 0.0000000000000000e+00  3.0496776442070994e-02 -1.3719643559857844e-01 0.0000000000000000e+00  4.6906027360876998e-02 -1.3769319789702383e-01 0.0000000000000000e+00  6.4487508154712311e-02 -1.3438075062991797e-01 0.0000000000000000e+00  8.2332433261924465e-02 -1.2731956500270059e-01 0.0000000000000000e+00  9.9553435929472481e-02 -1.1667347502521649e-01 0.0000000000000000e+00  1.1530804443180642e-01 -1.0269371233183240e-01 0.0000000000000000e+00  1.2950348567601078e-01 -8.5590373056612865e-02 0.0000000000000000e+00  1.4274052769683537e-01 -6.5358162941369063e-02 0.0000000000000000e+00  1.5576370862747524e-01 -3.7906614917105737e-02 0.0000000000000000e+00  1.7579786474196882e-01 7.3810458165582630e-03 0.0000000000000000e+00  0.0000000000000000e+00 0.0000000000000000e+00 0.0000000000000000e+00  -2.6241218026510195e-03 -3.9887569689801873e-02 0.0000000000000000e+00  -6.2615942019806879e-03 -7.1386865638982958e-02 0.0000000000000000e+00  -7.4858630574939434e-03 -9.6918184899211654e-02 0.0000000000000000e+00  -5.4088470380753515e-03 -1.1740774628861218e-01 0.0000000000000000e+00  -1.6072251042734592e-04 -1.3317794455712498e-01 0.0000000000000000e+00  7.7523547643806087e-03 -1.4432250138448247e-01 0.0000000000000000e+00  1.7706919790393107e-02 -1.5085363227888557e-01 0.0000000000000000e+00  2.9070212323483339e-02 -1.5276230142907132e-01 0.0000000000000000e+00  4.1226835149911101e-02 -1.5004922427985037e-01 0.0000000000000000e+00  5.3565093980403398e-02 -1.4274986403941770e-01 0.0000000000000000e+00  6.5419931064617728e-02 -1.3096200160777216e-01 0.0000000000000000e+00  7.6091356492469134e-02 -1.1487525404435260e-01 0.0000000000000000e+00  8.4672870176718859e-02 -9.5045192466094108e-02 0.0000000000000000e+00  8.9402884313542999e-02 -7.1940286906175099e-02 0.0000000000000000e+00  9.3618629691036390e-02 -4.5118283594463543e-02 0.0000000000000000e+00  7.0769562344252454e-02 -1.1520121272648790e-02 0.0000000000000000e+00  0.0000000000000000e+00 -3.4191580726336945e-18 0.0000000000000000e+00  0.0000000000000000e+00 -3.7349061899326401e-02 0.0000000000000000e+00  0.0000000000000000e+00 -6.9718248878742617e-02 0.0000000000000000e+00  0.0000000000000000e+00 -9.7107560938248641e-02 0.0000000000000000e+00  0.0000000000000000e+00 -1.1951699807784448e-01 0.0000000000000000e+00  0.0000000000000000e+00 -1.3694656029753013e-01 0.0000000000000000e+00  0.0000000000000000e+00 -1.4939624759730560e-01 0.0000000000000000e+00  0.0000000000000000e+00 -1.5686605997717087e-01 0.000000000000000