<?xml version="1.0"?>
<VTKFile type="UnstructuredGrid"  version="0.1"  >
<UnstructuredGrid>
<Piece  NumberOfPoints="289" NumberOfCells="512">
<Points>
<DataArray  type="Float64"  NumberOfComponents="3"  format="ascii">0 0 0  0.0625 0 0  0.125 0 0  0.1875 0 0  0.25 0 0  0.3125 0 0  0.375 0 0  0.4375 0 0  0.5 0 0  0.5625 0 0  0.625 0 0  0.6875 0 0  0.75 0 0  0.8125 0 0  0.875 0 0  0.9375 0 0  1 0 0  0 0.0625 0  0.06252493858854984 0.06246322150603904 0  0.1250510661754252 0.06242577336979624 0  0.1875796189174803 0.06238702598503473 0  0.2501120060469235 0.06234648070770718 0  0.3126499249612926 0.06230385497117968 0  0.3751955221720811 0.0622591895937151 0  0.4377516365927477 0.06221297969824274 0  0.5003221937413724 0.06216632145050558 0  0.5629128894111936 0.06212104948134455 0  0.6255324629358585 0.06207980967701703 0  0.688195257655731 0.06204596326538797 0  0.7509268034245817 0.06202314547324677 0  0.8137769791417474 0.06201420616470571 0  0.8768530655456592 0.06201918674530205 0  0.9404050536305486 0.06203248485847004 0  1.005032210808577 0.06204855633775525 0  0 0.125 0  0.0625486681002457 0.124927065396494 0  0.1250996541630905 0.1248527228348228 0  0.1876553742486035 0.1247756376380839 0  0.2502185893457237 0.1246947211322076 0  0.312792635155476 0.124609295857842 0  0.3753817417177165 0.1245193107493096 0  0.4379915092363563 0.1244256145050121 0  0.5006296571265338 0.1243302804706029 0  0.5633072635822484 0.1242369463575431 0  0.6260409144034572 0.1241510776148886 0  0.688856582698432 0.1240799748658046 0  0.7517968233581505 0.124032228038713 0  0.814934052799684 0.1240162473028375 0  0.8783933146715129 0.1240378250000295 0  0.9423823883083621 0.1240986483254064 0  1.007201220986544 0.1242031027613924 0  0 0.1875 0  0.06257012804580832 0.187392292538048 0  0.1251435589307989 0.1872823164253842 0  0.1877237410886937 0.1871678952749288 0  0.2503146126442859 0.1870471791408151 0  0.3129209253791244 0.1869188761668208 0  0.3755486888585663 0.1867825699842073 0  0.4382058137589918 0.1866391472786551 0  0.500903079784656 0.186491346663806 0  0.5636556298971566 0.186344407419964 0  0.6264853091453155 0.1862067277279272 0  0.6894243094080419 0.1860903078999019 0  0.7525206207311941 0.1860105000986933 0  0.8158451952298267 0.1859840702964219 0  0.8794979380416427 0.1860232854437794 0  0.9436017264961877 0.1861195423003782 0  1.008262087569059 0.1861947182951536 0  0 0.25 0  0.06258840423444299 0.2498597833145831 0  0.1251808808063073 0.2497162790425411 0  0.187781685764114 0.2495662881848736 0  0.2503956625372024 0.249406962159724 0  0.3130286271943992 0.2492360739412994 0  0.3756878887873836 0.2490524166500191 0  0.4383829833066684 0.2488563810250917 0  0.5011267303826306 0.2486507624957712 0  0.5639367547557582 0.2484418314153709 0  0.6268376245800451 0.2482406449329345 0  0.6898636682737282 0.2480644449464101 0  0.7530621381751968 0.2479376966114502 0  0.8164952530294733 0.2478917338974541 0  0.8802371209329679 0.2479608688043936 0  0.9443577551785249 0.2481711925112102 0  1.008885952175678 0.2485189882990645 0  0 0.3125 0  0.06260277870332293 0.3123305703772591 0  0.1252101348401462 0.3121566684262456 0  0.1878268542756547 0.3119738756609036 0  0.250458348914218 0.3117780683676379 0  0.3131110656568981 0.3115656835479955 0  0.3757930350569001 0.3113341517068015 0  0.4385146360590156 0.3110825825947221 0  0.5012896740536205 0.3108128141124171 0  0.5641368775111858 0.3105309556384553 0  0.6270818757515093 0.3102495555240304 0  0.6901595429686175 0.3099904528588709 0  0.7534161290817516 0.3097881413605275 0  0.8169096656838783 0.309692911403622 0  0.8807058514112613 0.3097719401626077 0  0.9448665209576962 0.3101049216693435 0  1.009434127004696 0.3107698858540422 0  0 0.375 0  0.06261275897224497 0.3748058429010921 0  0.1252303151028908 0.3746058941215199 0  0.1878576827166389 0.3743943436537642 0  0.2505004768702546 0.3741655216578269 0  0.3131653073198868 0.3739140954044858 0  0.3758603109646839 0.3736354558977692 0  0.4385959045295804 0.373326413657159 0  0.5013858683098585 0.3729863813817901 0  0.5642488950364836 0.3726193022386491 0  0.6272107238863198 0.3722366797628617 0  0.6903068614715131 0.3718621426029394 0  0.7535855634904119 0.3715379253694556 0  0.8171101386109225 0.3713332171714915 0  0.8809590013724562 0.3713531174254197 0  0.9452225993918943 0.3717446806548779 0  1.010001766820597 0.372694030156618 0  0 0.4375 0  0.06261808659961218 0.4372869125752639 0  0.1252409137424845 0.4370666574482442 0  0.187873430232054 0.4368319376829399 0  0.2505210971819775 0.4365753353430024 0  0.3131902271681234 0.4362893613520346 0  0.3758884527348581 0.4359666837978804 0  0.4386254189673864 0.4356006718143133 0  0.5014138526902993 0.4351864850419195 0  0.5642712452939563 0.4347230908260054 0  0.6272224907221111 0.4342168270913165 0  0.6903039075709133 0.4336874561422099 0  0.7535690489197123 0.4331779982233487 0  0.8170964124540312 0.4327696740124167 0  0.8809985683110837 0.4326022338905668 0  0.9454320850746175 0.4328967802326073 0  1.010611122906532 0.4339738491376005 0  0 0.5 0  0.06261872762841732 0.4997751342701524 0  0.1252419001562786 0.4995417948266538 0  0.187874143985102 0.4992912358944065 0  0.2505204537984116 0.4990142359218449 0  0.3131864360362289 0.4987009212065827 0  0.375878654930934 0.4983407077401394 0  0.438605184890556 0.4979224835782055 0  0.5013765715250288 0.4974352665334271 0  0.5642075859238666 0.4968697808815116 0  0.6271204706346856 0.496221777044455 0  0.6901508565101906 0.4954985816480766 0  0.753358117739237 0.4947314123397348 0  0.8168422977963583 0.4939972523694131 0  0.8807691364587434 0.4934543286984326 0  0.9454027196672989 0.4933911058160431 0  1.011145823688017 0.4942769959180264 0  0 0.5625 0  0.06261484857256384 0.5622717803545034 0  0.1252336673898921 0.5620340187150209 0  0.1878605663957868 0.5617767431500741 0  0.2504998414540012 0.5614890974591203 0  0.3131560851524493 0.5611588795611517 0  0.3758343431623429 0.5607720847356602 0  0.4385404045501942 0.5603125164459756 0  0.5012814430443582 0.5597616258241989 0  0.5640675084562833 0.5590989516057476 0  0.6269149486140692 0.5583039830783628 0  0.6898539388930162 0.5573612264823529 0  0.752944089914901 0.5562722291514193 0  0.8163042766149624 0.5550819977601379 0  0.8801635005313621 0.5539322200970236 0  0.9449349840104383 0.553153279805697 0  1.011305982633118 0.5533860826445793 0  0 0.625 0  0.06260678175874507 0.6247778769869271 0  0.1252169529203802 0.6245455704485049 0  0.1878339930827892 0.6242923202852318 0  0.2504613768115439 0.6240060866426251 0  0.3131025307907188 0.6236727890743987 0  0.3757607445849592 0.6232753983466599 0  0.438439063194083 0.6227928412129399 0  0.5011403031897318 0.6221987173801171 0  0.5638676460910483 0.6214599474642105 0  0.6266270454899101 0.6205358072751541 0  0.6894344940857213 0.6193787266077487 0  0.7523349615156448 0.617940745354112 0  0.8154463080399104 0.6161962046406547 0  0.8790481486578462 0.6142069636294812 0  0.943730415208919 0.6122764372938718 0  1.010595795209506 0.6111978681137746 0  0 0.6875 0  0.06259498410316133 0.6872940219927728 0  0.1251927421469723 0.6870778248263765 0  0.1877960925207307 0.6868405089659712 0  0.2504076890373568 0.6865695965123372 0  0.3130298357575967 0.6862500221020507 0  0.3756641439000633 0.6858628202826519 0  0.4383109513923636 0.685383348054831 0  0.5009684487572053 0.6847788260803559 0  0.5636316309129206 0.6840049215797348 0  0.6262918630917877 0.683001084687091 0  0.6889399364525615 0.6816846222179977 0  0.751581291568553 0.6799450077813224 0  0.8142863675288794 0.6776465946836528 0  0.8773261773799476 0.6746754186842022 0  0.9414460181060775 0.6711653855875478 0  1.008280170700479 0.6680668497322872 0  0 0.75 0  0.06257999439787509 0.7498202143216389 0  0.125162166857174 0.7496309111491272 0  0.1877487096828882 0.7494218612848764 0  0.2503415618291301 0.749181137260851 0  0.3129421352380338 0.7488939765092032 0  0.3755507919536999 0.7485412281351913 0  0.4381658711439457 0.7480971228906897 0  0.5007819321938585 0.7475259610289381 0  0.5633867160931777 0.7467770626164322 0  0.6259563153821065 0.7457768818482975 0  0.6884490135619469 0.7444163893864875 0  0.7508033240174841 0.7425305048014176 0  0.8129655774576265 0.7398653672263742 0  0.8750407852802239 0.736038642629093 0  0.9378533287576489 0.730603314740188 0  1.003367057498628 0.7243888865974707 0  0 0.8125 0  0.06256239556309358 0.8123557308499085 0  0.125126416363314 0.812203430756257 0  0.1876936928609346 0.8120344173516356 0  0.2502656045441659 0.8118384246446471 0  0.3128430043446631 0.8116025109960503 0  0.3754256712835058 0.8113095225593692 0  0.4380112225469777 0.8109358161062143 0  0.5005929430237054 0.8104477619007335 0  0.5631554314527105 0.8097962173661619 0  0.6256658703374242 0.8089075305091689 0  0.6880568662512065 0.8076682807844012 0  0.7501950065433953 0.8058976487363747 0  0.8118351481394598 0.8032923233740666 0  0.872616978559843 0.7993049977216402 0  0.9325210737801223 0.792871727115699 0  0.996559563676753 0.7819517439719031 0  0 0.875 0  0.06254278863708941 0.8748990841209026 0  0.125086681161982 0.8747923484910058 0  0.1876327929113765 0.8746734755743228 0  0.2501820667813743 0.8745349230977106 0  0.3127350791528907 0.8743670638238358 0  0.3752916406879266 0.8741569542842962 0  0.4378499635720868 0.8738864799941362 0  0.5004048836576811 0.8735294698140259 0  0.5629439421240604 0.8730471130746982 0  0.6254384340910266 0.8723805833257833 0  0.6878222589613904 0.8714390028434656 0  0.7499407786220768 0.870078957843918 0  0.8114270867453338 0.8680639021260269 0  0.8714147569434321 0.8649522883580794 0  0.9279453419265442 0.8596809962657299 0  0.9770610939039708 0.8489635285085645 0  0 0.9375 0  0.06252178278593193 0.9374480831198676 0  0.1250441420245695 0.9373931108241857 0  0.1875676702229261 0.9373317587597042 0  0.2500928917607117 0.9372600362960632 0  0.3126201843625526 0.9371728138357543 0  0.3751496125831194 0.9370631400144713 0  0.4376805689610241 0.9369
[...]
<PointData  Vectors="f_95-0"> 
<DataArray  type="Float64"  Name="f_95-0"  NumberOfComponents="3" format="ascii">0.0000000000000000e+00 0.0000000000000000e+00 0.0000000000000000e+00  1.3736266555146204e-04 -3.9551923501059801e-02 0.0000000000000000e+00  3.9883246755000702e-04 -6.5466029942558387e-02 0.0000000000000000e+00  7.3736379887949087e-04 -7.9824064819411358e-02 0.0000000000000000e+00  1.1231541492596844e-03 -8.5383377256021992e-02 0.0000000000000000e+00  1.5235663155147604e-03 -8.4800239966553184e-02 0.0000000000000000e+00  1.9175349998686538e-03 -8.0286742541757730e-02 0.0000000000000000e+00  2.2956369004754527e-03 -7.3498729113497419e-02 0.0000000000000000e+00  2.6576152093444791e-03 -6.5561820380056285e-02 0.0000000000000000e+00  3.0088791191599253e-03 -5.7166686011472442e-02 0.0000000000000000e+00  3.3571805225649154e-03 -4.8687451035777290e-02 0.0000000000000000e+00  3.7095265605377689e-03 -4.0295049810108605e-02 0.0000000000000000e+00  4.0698230627071955e-03 -3.2051636947877431e-02 0.0000000000000000e+00  4.4288562125865119e-03 -2.3975137591369277e-02 0.0000000000000000e+00  4.7681390140389872e-03 -1.6103424185414047e-02 0.0000000000000000e+00  5.2061813608063378e-03 -8.4782097970554117e-03 0.0000000000000000e+00  2.8638440352036841e-03 -2.7984852613948188e-03 0.0000000000000000e+00  0.0000000000000000e+00 0.0000000000000000e+00 0.0000000000000000e+00  1.6475440535690606e-04 -3.9794168841976632e-02 0.0000000000000000e+00  5.5383024556127005e-04 -6.5822096079235642e-02 0.0000000000000000e+00  1.0746072551394144e-03 -8.0251435344616248e-02 0.0000000000000000e+00  1.6685428281443639e-03 -8.5839542994859713e-02 0.0000000000000000e+00  2.2901459202153973e-03 -8.5254360900760426e-02 0.0000000000000000e+00  2.9115300363058354e-03 -8.0721367807822783e-02 0.0000000000000000e+00  3.5184336012093515e-03 -7.3907318979298683e-02 0.0000000000000000e+00  4.1059217742508364e-03 -6.5944639809600719e-02 0.0000000000000000e+00  4.6738756834408006e-03 -5.7526761201261739e-02 0.0000000000000000e+00  5.2234719362120987e-03 -4.9027045837005068e-02 0.0000000000000000e+00  5.7546106712703599e-03 -4.0612274799625252e-02 0.0000000000000000e+00  6.2630988113198558e-03 -3.2334996831671736e-02 0.0000000000000000e+00  6.7363122058294424e-03 -2.4199023365404651e-02 0.0000000000000000e+00  7.1605368915563959e-03 -1.6197176951092029e-02 0.0000000000000000e+00  7.3487596542603680e-03 -8.2797361073790494e-03 0.0000000000000000e+00  7.7924760635642741e-03 -1.0375115461422897e-03 0.0000000000000000e+00  0.0000000000000000e+00 0.0000000000000000e+00 0.0000000000000000e+00  2.8477958340747910e-04 -4.0208480311459904e-02 0.0000000000000000e+00  1.0013166198913918e-03 -6.6488275200830574e-02 0.0000000000000000e+00  1.9811201867327806e-03 -8.1057374519879266e-02 0.0000000000000000e+00  3.1051607632451724e-03 -8.6709229284562692e-02 0.0000000000000000e+00  4.2966471278742101e-03 -8.6139263384278325e-02 0.0000000000000000e+00  5.5096435607248796e-03 -8.1593661838448364e-02 0.0000000000000000e+00  6.7168879018281915e-03 -7.4752128554057565e-02 0.0000000000000000e+00  7.9003596043060991e-03 -6.6752994276516986e-02 0.0000000000000000e+00  9.0443404265442146e-03 -5.8290379232995085e-02 0.0000000000000000e+00  1.0131498697706891e-02 -4.9734976143667467e-02 0.0000000000000000e+00  1.1141277312321497e-02 -4.1248727544725944e-02 0.0000000000000000e+00  1.2049932202809430e-02 -3.2877466889670595e-02 0.0000000000000000e+00  1.2831377832861812e-02 -2.4614947940525298e-02 0.0000000000000000e+00  1.3450391438420030e-02 -1.6435346794017147e-02 0.0000000000000000e+00  1.3905643781046913e-02 -8.3226636254793446e-03 0.0000000000000000e+00  1.4162257563340904e-02 -5.4325080025426412e-04 0.0000000000000000e+00  0.0000000000000000e+00 0.0000000000000000e+00 0.0000000000000000e+00  4.7008113335678613e-04 -4.0914262881218806e-02 0.0000000000000000e+00  1.6461892859940006e-03 -6.7641213632323394e-02 0.0000000000000000e+00  3.2576357437703670e-03 -8.2465985048127396e-02 0.0000000000000000e+00  5.1174018162324425e-03 -8.8249747144831234e-02 0.0000000000000000e+00  7.1111064387839838e-03 -8.7736857336121007e-02 0.0000000000000000e+00  9.1699501738841983e-03 -8.3203663225938501e-02 0.0000000000000000e+00  1.1248749690460511e-02 -7.6344291979204934e-02 0.0000000000000000e+00  1.3309754974269542e-02 -6.8300287076341504e-02 0.0000000000000000e+00  1.5312807252162011e-02 -5.9762393529485001e-02 0.0000000000000000e+00  1.7211164531510101e-02 -5.1095281760741997e-02 0.0000000000000000e+00  1.8951753887377736e-02 -4.2455349146893161e-02 0.0000000000000000e+00  2.0479251780221273e-02 -3.3886040993618603e-02 0.0000000000000000e+00  2.1742249584540831e-02 -2.5384289479671390e-02 0.0000000000000000e+00  2.2706952093014647e-02 -1.6940188794603493e-02 0.0000000000000000e+00  2.3350079684467482e-02 -8.5560244330092454e-03 0.0000000000000000e+00  2.3631811215735082e-02 -3.6193801053534529e-04 0.0000000000000000e+00  0.0000000000000000e+00 0.0000000000000000e+00 0.0000000000000000e+00  6.8251754778315748e-04 -4.1992747380528508e-02 0.0000000000000000e+00  2.3862490100273631e-03 -6.9397818595594199e-02 0.0000000000000000e+00  4.7240669077541703e-03 -8.4624239659387493e-02 0.0000000000000000e+00  7.4433423558936136e-03 -9.0637105690337533e-02 0.0000000000000000e+00  1.0394454636286301e-02 -9.0251201644284906e-02 0.0000000000000000e+00  1.3486707186955080e-02 -8.5781141516104428e-02 0.0000000000000000e+00  1.6654765400367848e-02 -7.8934634083479477e-02 0.0000000000000000e+00  1.9835420127741095e-02 -7.0851049322491061e-02 0.0000000000000000e+00  2.2955118975447913e-02 -6.2211084652473776e-02 0.0000000000000000e+00  2.5926010454889497e-02 -5.3367743292871070e-02 0.0000000000000000e+00  2.8648408083841781e-02 -4.4469622564296103e-02 0.0000000000000000e+00  3.1019728203763346e-02 -3.5561856649382766e-02 0.0000000000000000e+00  3.2949358439242481e-02 -2.6658294165503471e-02 0.0000000000000000e+00  3.4379183833205373e-02 -1.7782615695270898e-02 0.0000000000000000e+00  3.5290140951139810e-02 -8.9781257234171890e-03 0.0000000000000000e+00  3.5721352014477313e-02 -3.0283947486431769e-04 0.0000000000000000e+00  0.0000000000000000e+00 0.0000000000000000e+00 0.0000000000000000e+00  8.9742600177377839e-04 -4.3469735036763456e-02 0.0000000000000000e+00  3.1408318992524500e-03 -7.1806498738705399e-02 0.0000000000000000e+00  6.2356376229894773e-03 -8.7606779520420244e-02 0.0000000000000000e+00  9.8765712046959848e-03 -9.3979531156635765e-02 0.0000000000000000e+00  1.3889237165079255e-02 -9.3829353118745892e-02 0.0000000000000000e+00  1.8166569096211397e-02 -8.9513007054562707e-02 0.0000000000000000e+00  2.2622386118822019e-02 -8.2746376544614211e-02 0.0000000000000000e+00  2.7161946714527162e-02 -7.4657122169720411e-02 0.0000000000000000e+00  3.1667943566193874e-02 -6.5905624438607271e-02 0.0000000000000000e+00  3.5997267697262532e-02 -5.6824533948349375e-02 0.0000000000000000e+00  3.9985697266104930e-02 -4.7549440978669304e-02 0.0000000000000000e+00  4.3462056860109850e-02 -3.8127551414968673e-02 0.0000000000000000e+00  4.6271353188986251e-02 -2.8599573896059365e-02 0.0000000000000000e+00  4.8315994168587555e-02 -1.9048077447080033e-02 0.0000000000000000e+00  4.9590332751957837e-02 -9.5939619462212591e-03 0.0000000000000000e+00  5.0234164900903919e-02 -3.4348432533912887e-04 0.0000000000000000e+00  0.0000000000000000e+00 0.0000000000000000e+00 0.0000000000000000e+00  1.0952132224191003e-03 -4.5332728418344841e-02 0.0000000000000000e+00  3.8431810598717813e-03 -7.4858843737759750e-02 0.0000000000000000e+00  7.6696036553312325e-03 -9.1429485706695679e-02 0.0000000000000000e+00  1.2243694051526109e-02 -9.8335556150157460e-02 0.0000000000000000e+00  1.7386036432991803e-02 -9.8584147781270767e-02 0.0000000000000000e+00  2.2982708894433008e-02 -9.4569935355026349e-02 0.0000000000000000e+00  2.8926386700127361e-02 -8.8004287412757704e-02 0.0000000000000000e+00  3.5083112303775532e-02 -7.9988124386638104e-02 0.0000000000000000e+00  4.1278918293770651e-02 -7.1147519975048770e-02 0.0000000000000000e+00  4.7298684580707219e-02 -6.1782388796405241e-02 0.0000000000000000e+00  5.2892835270974110e-02 -5.2003621192471483e-02 0.0000000000000000e+00  5.7793033905287158e-02 -4.1853298341326700e-02 0.0000000000000000e+00  6.1742628947105409e-02 -3.1407302476339126e-02 0.0000000000000000e+00  6.4569946957287447e-02 -2.0841834262849090e-02 0.0000000000000000e+00  6.6264505334009710e-02 -1.0433770893887801e-02 0.0000000000000000e+00  6.7139840884629751e-02 -4.3529102520068190e-04 0.0000000000000000e+00  0.0000000000000000e+00 0.0000000000000000e+00 0.0000000000000000e+00  1.2555175066544754e-03 -4.7532872107167910e-02 0.0000000000000000e+00  4.4239719850091260e-03 -7.8491847053978103e-02 0.0000000000000000e+00  8.8986512355538495e-03 -9.6053611674245268e-02 0.0000000000000000e+00  1.4367056994988078e-02 -1.0372151275917632e-01 0.0000000000000000e+00  2.0674074241085388e-02 -1.0460489697925492e-01 0.0000000000000000e+00  2.7711396912985024e-02 -1.0111901998150413e-01 0.0000000000000000e+00  3.5348983901782198e-02 -9.4947917510144586e-02 0.0000000000000000e+00  4.3402715762058529e-02 -8.7144669246768031e-02 0.0000000000000000e+00  5.1626408781868312e-02 -7.8283419827022249e-02 0.0000000000000000e+00  5.9715895132849958e-02 -6.8614539836105853e-02 0.0000000000000000e+00  6.7314152995202312e-02 -5.8207560664567379e-02 0.0000000000000000e+00  7.4021691852702937e-02 -4.7085789260614797e-02 0.0000000000000000e+00  7.9431708595370049e-02 -3.5351519510945929e-02 0.0000000000000000e+00  8.3230797611377430e-02 -2.3296542468499524e-02 0.0000000000000000e+00  8.5335505479917056e-02 -1.1466659303068158e-02 0.0000000000000000e+00  8.6264155630099912e-02 -4.5789133576987749e-04 0.0000000000000000e+00  0.0000000000000000e+00 0.0000000000000000e+00 0.0000000000000000e+00  1.3515290723027712e-03 -4.9978871332556442e-02 0.0000000000000000e+00  4.7944711790884921e-03 -8.2580027619893345e-02 0.0000000000000000e+00  9.7629384038476642e-03 -1.0137910570555626e-01 0.0000000000000000e+00  1.6025475882824360e-02 -1.1010710270910043e-01 0.0000000000000000e+00  2.3488992613707679e-02 -1.1195407576831432e-01 0.0000000000000000e+00  3.2063600041687179e-02 -1.0931950382225521e-01 0.0000000000000000e+00  4.1590833700626870e-02 -1.0382454652371975e-01 0.0000000000000000e+00  5.1820761971416274e-02 -9.6447063002771338e-02 0.0000000000000000e+00  6.2417646044626157e-02 -8.7690124201638103e-02 0.0000000000000000e+00  7.2971561882806069e-02 -7.7740694750257688e-02 0.0000000000000000e+00  8.3000564950972036e-02 -6.6608980492791625e-02 0.0000000000000000e+00  9.1953740918990085e-02 -5.4256422424890698e-02 0.0000000000000000e+00  9.9218022965964159e-02 -4.0758313574958981e-02 0.0000000000000000e+00  1.0420982387740789e-01 -2.6543189792421037e-02 0.0000000000000000e+00  1.0662541538680624e-01 -1.2578695704587394e-02 0.0000000000000000e+00  1.0710371173533798e-01 -6.8041003622812507e-05 0.0000000000000000e+00  0.0000000000000000e+00 0.0000000000000000e+00 0.0000000000000000e+00  1.3454828080225406e-03 -5.2521793173011741e-02 0.0000000000000000e+00  4.8341490610317233e-03 -8.6916993900281042e-02 0.0000000000000000e+00  1.0050179047610911e-02 -1.0722798052304962e-01 0.0000000000000000e+00  1.6925890934607748e-02 -1.1739979387208810e-01 0.0000000000000000e+00  2.5472277799254636e-02 -1.2064921544050043e-01 0.0000000000000000e+00  3.5625972286593866e-02 -1.1929850207829973e-01 0.0000000000000000e+00  4.7186877011413657e-02 -1.1485593787081828e-01 0.0000000000000000e+00  5.9817869138959499e-02 -1.0819242236114067e-01 0.0000000000000000e+00  7.3072858298399032e-02 -9.9726075837434480e-02 0.0000000000000000e+00  8.6422865110952984e-02 -8.9574008909528491e-02 0.0000000000000000e+00  9.9268696077023960e-02 -7.7661266636310830e-02 0.0000000000000000e+00  1.1091009996779566e-01 -6.3837757116096822e-02 0.0000000000000000e+00  1.2046296615464140e-01 -4.8106680594789938e-02 0.0000000000000000e+00  1.2694309182951699e-01 -3.0949072938923312e-02 0.0000000000000000e+00  1.2957265756941852e-01 -1.3713604539150992e-02 0.0000000000000000e+00  1.2874265913393379e-01 1.3991349687890837e-03 0.0000000000000000e+00  0.0000000000000000e+00 0.0000000000000000e+00 0.0000000000000000e+00  1.1871036624473833e-03 -5.4934907309182622e-02 0.0000000000000000e+00  4.3893139521793984e-03 -9.1193516858508947e-02 0.0000000000000000e+00  9.4967079772543175e-03 -1.1332440656038939e-01 0.0000000000000000e+00  1.6703670912651482e-02 -1.2542188552923156e-01 0.0000000000000000e+00  2.6162142043682772e-02 -1.3062990558396539e-01 0.0000000000000000e+00  3.7831351642404726e-02 -1.3110284603828409e-01 0.0000000000000000e+00  5.1446204733234947e-02 -1.2817305691107608e-01 0.0000000000000000e+00  6.6554541494309588e-02 -1.2257265287780739e-01 0.0000000000000000e+00  8.2577212837873198e-02 -1.1462901749886045e-01 0.0000000000000000e+00  9.8866062342446506e-02 -1.0439652943033090e-01 0.0000000000000000e+00  1.1472748217905805e-01 -9.1731873129948654e-02 0.0000000000000000e+00  1.2933534953654774e-01 -7.6367318767681380e-02 0.0000000000000000e+00  1.4162483822767497e-01 -5.8005784676145311e-02 0.0000000000000000e+00  1.5015583634895902e-01 -3.6729926622746614e-02 0.0000000000000000e+00  1.5301140365619301e-01 -1.4326930225587141e-02 0.0000000000000000e+00  1.4955280268195920e-01 4.9377380402825860e-03 0.0000000000000000e+00  0.0000000000000000e+00 0.0000000000000000e+00 0.0000000000000000e+00  8.1856311498980708e-04 -5.6897695458534334e-02 0.0000000000000000e+00  3.2951679476277847e-03 -9.4986527358882480e-02 0.0000000000000000e+00  7.8308291596480995e-03 -1.1928481204432578e-01 0.0000000000000000e+00  1.4978286874008749e-02 -1.3388780151100529e-01 0.0000000000000000e+00  2.5044259533766638e-02 -1.4171065730432114e-01 0.0000000000000000e+00  3.7986280063633832e-02 -1.4462285293791949e-01 0.0000000000000000e+00  5.3441428696976233e-02 -1.4371191996625945e-01 0.0000000000000000e+00  7.0814677429040046e-02 -1.3954366726377579e-01 0.0000000000000000e+00  8.9379282698374127e-02 -1.3235966317262701e-01 0.0000000000000000e+00  1.0836740023720266e-01 -1.2219208305872860e-01 0.0000000000000000e+00  1.2700332858364874e-01 -1.0889113775350315e-01 0.0000000000000000e+00  1.4449245324527651e-01 -9.2021467042461558e-02 0.0000000000000000e+00  1.5987057960513812e-01 -7.0803258854187118e-02 0.0000000000000000e+00  1.7102692136040984e-01 -4.4909914697648115e-02 0.0000000000000000e+00  1.7458353321518860e-01 -1.6087403172538497e-02 0.0000000000000000e+00  1.6774172377118687e-01 1.1474448770914485e-02 0.0000000000000000e+00  0.0000000000000000e+00 0.0000000000000000e+00 0.0000000000000000e+00  1.9380135274140486e-04 -5.8001231675708059e-02 0.0000000000000000e+00  1.4434800589494012e-03 -9.7784718065258971e-02 0.0000000000000000e+00  4.8920281507142940e-03 -1.2463843020516878e-01 0.0000000000000000e+00  1.1501874985314457e-02 -1.4239080713091196e-01 0.0000000000000000e+00  2.1698761576182213e-02 -1.5351869321716902e-01 0.0000000000000000e+00  3.5389264905195096e-02 -1.5948102412588380e-01 0.0000000000000000e+00  5.2081311620241891e-02 -1.6106206927876507e-01 0.0000000000000000e+00  7.1028950323208107e-02 -1.5864565504394587e-01 0.0000000000000000e+00  9.1362401835559340e-02 -1.5240248811618623e-01 0.0000000000000000e+00  1.1218887144693325e-01 -1.4238924639474831e-01 0.0000000000000000e+00  1.3269101224093591e-01 -1.2852399889290644e-01 0.0000000000000000e+00  1.5224671206588974e-01 -1.1042666150793558e-01 0.0000000000000000e+00  1.7006017689716238e-01 -8.7247593301832280e-02 0.0000000000000000e+00  1.8438209092539340e-01 -5.6984416228330385e-02 0.0000000000000000e+00  1.9149543048197265e-01 -1.7526033381799637e-02 0.0000000000000000e+00  1.8470633316818919e-01 2.0442438006722956e-02 0.0000000000000000e+00  0.0000000000000000e+00 0.0000000000000000e+00 0.0000000000000000e+00  -6.7313902635464937e-04 -5.7817515203992066e-02 0.0000000000000000e+00  -1.0648854127320653e-03 -9.9097802994602815e-02 0.0000000000000000e+00  8.7422709038391811e-04 -1.2890703046934826e-01 0.0000000000000000e+00  6.4443245778828488e-03 -1.5040796146094199e-01 0.0000000000000000e+00  1.6079598570503128e-02 -1.6541331417478333e-01 0.0000000000000000e+00  2.9572672557880021e-02 -1.7487822610144393e-01 0.0000000000000000e+00  4.6300740629461289e-02 -1.7926317759989319e-01 0.0000000000000000e+00  6.5409771034071362e-02 -1.7877716651899661e-01 0.0000000000000000e+00  8.5940862651200073e-02 -1.7353193722896978e-01 0.0000000000000000e+00  1.0692197028549144e-01 -1.6362379385246015e-01 0.0000000000000000e+00  1.2750523664206556e-01 -1.4913481809942727e-01 0.0000000000000000e+00  1.4703302245390565e-01 -1.3001105595480814e-01 0.0000000000000000e+00  1.6516443376433634e-01 -1.0528663734730213e-01 0.0000000000000000e+00  1.8256110100873840e-01 -7.1585246722794191e-02 0.0000000000000000e+00  1.9518074064538826e-01 -2.3155469664789888e-02 0.0000000000000000e+00  1.7802518919681862e-01 3.1641485190289517e-02 0.0000000000000000e+00  0.0000000000000000e+00 0.0000000000000000e+00 0.0000000000000000e+00  -1.5902847643950340e-03 -5.6090293242069461e-02 0.0000000000000000e+00  -3.6146644217654993e-03 -9.8690847386932526e-02 0.0000000000000000e+00  -3.2506311346221428e-03 -1.3174739119330234e-01 0.0000000000000000e+00  8.4473542711221983e-04 -1.5730419570993459e-01 0.0000000000000000e+00  8.9382272915084493e-03 -1.7636494412451209e-01 0.0000000000000000e+00  2.0679628163239271e-02 -1.8938339879594526e-01 0.0000000000000000e+00  3.5391226114478425e-02 -1.9654439127626591e-01 0.0000000000000000e+00  5.2242664450354345e-02 -1.9792180810220744e-01 0.0000000000000000e+00  7.0336992238246993e-02 -1.9357295727422180e-01 0.0000000000000000e+00  8.8759301238604579e-02 -1.8360065955925403e-01 0.0000000000000000e+00  1.0661132228555006e-01 -1.6820334672251441e-01 0.0000000000000000e+00  1.2306723466613685e-01 -1.4762587651400383e-01 0.0000000000000000e+00  1.3832521723797767e-01 -1.2188821355808784e-01 0.0000000000000000e+00  1.5367766590737708e-01 -9.0371993493889677e-02 0.0000000000000000e+00  1.7031328095969128e-01 -4.6522922088848902e-02 0.0000000000000000e+00  1.8977674655946922e-01 2.1593737466096642e-02 0.0000000000000000e+00  0.0000000000000000e+00 0.0000000000000000e+00 0.0000000000000000e+00  -1.9148757292901122e-03 -5.3220270202575186e-02 0.0000000000000000e+00  -4.5173915960379698e-03 -9.7050217827253954e-02 0.0000000000000000e+00  -5.0890056057196964e-03 -1.3317234314023885e-01 0.0000000000000000e+00  -2.8003076265465982e-03 -1.6232491321873260e-01 0.0000000000000000e+00  2.3321238426956869e-03 -1.8479974337884547e-01 0.0000000000000000e+00  9.9291810508831142e-03 -2.0070171282510688e-01 0.0000000000000000e+00  1.9468859454522754e-02 -2.1006125891415059e-01 0.0000000000000000e+00  3.0385015950102581e-02 -2.1288597276728435e-01 0.0000000000000000e+00  4.2095720166936385e-02 -2.0919012167524087e-01 0.0000000000000000e+00  5.3992938287642948e-02 -1.9902165353307938e-01 0.0000000000000000e+00  6.5382606968744789e-02 -1.8249337192663642e-01 0.0000000000000000e+00  7.5535669574250772e-02 -1.5980577643001942e-01 0.0000000000000000e+00  8.3570951257757459e-02 -1.3155725404145502e-01 0.0000000000000000e+00  8.7673074095354811e-02 -9.7925163914869870e-02 0.0000000000000000e+00  9.2900654216791084e-02 -5.6864350601213816e-02 0.0000000000000000e+00  7.2627850421087020e-02 -8.2717270970532539e-03 0.0000000000000000e+00  0.0000000000000000e+00 -3.4192300978935618e-18 0.0000000000000000e+00  0.0000000000000000e+00 -5.1346094533809339e-02 0.0000000000000000e+00  0.0000000000000000e+00 -9.5846043129777445e-02 0.0000000000000000e+00  0.0000000000000000e+00 -1.3349984578790430e-01 0.0000000000000000e+00  0.0000000000000000e+00 -1.6430750250818990e-01 0.0000000000000000e+00  0.0000000000000000e+00 -1.8826901329063428e-01 0.0000000000000000e+00  0.0000000000000000e+00 -2.0538437813523738e-01 0.0000000000000000e+00  0.0000000000000000e+00 -2.1565359704199924e-01 0.0000000000000000e+00  0.0000000000000000e+0