<?xml version="1.0"?>
<VTKFile type="UnstructuredGrid"  version="0.1"  >
<UnstructuredGrid>
<Piece  NumberOfPoints="289" NumberOfCells="512">
<Points>
<DataArray  type="Float64"  NumberOfComponents="3"  format="ascii">0 0 0  0.0625 0 0  0.125 0 0  0.1875 0 0  0.25 0 0  0.3125 0 0  0.375 0 0  0.4375 0 0  0.5 0 0  0.5625 0 0  0.625 0 0  0.6875 0 0  0.75 0 0  0.8125 0 0  0.875 0 0  0.9375 0 0  1 0 0  0 0.0625 0  0.06253712576641637 0.06246330211050267 0  0.1250765226695303 0.06242593908695004 0  0.1876206374057612 0.06238728473189175 0  0.2501723311409925 0.06234684073559317 0  0.3127351451394816 0.06230431828114188 0  0.3753136506929231 0.06225973871091078 0  0.4379139430627635 0.06221355206822269 0  0.5005443907674336 0.06216676086537219 0  0.5632168725896665 0.06212101400647248 0  0.6259490350034006 0.06207859235820658 0  0.6887688942476914 0.0620421192313273 0  0.7517253275376159 0.06201362620217692 0  0.8149146193023087 0.06199204546657465 0  0.8785541591638989 0.06196636287433478 0  0.9432049583999634 0.06189484254779249 0  1.010512618726053 0.06163357681204387 0  0 0.125 0  0.06257196238508717 0.1249272234867254 0  0.1251482974955534 0.12485304936332 0  0.1877337194886897 0.1247761517630179 0  0.2503337500364988 0.1246954462552288 0  0.3129552361297765 0.1246102494474437 0  0.3756070288753965 0.1245204832866469 0  0.438300926316483 0.1244269280796551 0  0.5010530554571382 0.1243315103838463 0  0.563886020202407 0.1242375766987906 0  0.6268324668518547 0.1241500398935828 0  0.6899414138019058 0.1240751796314758 0  0.7532901077858477 0.1240197345905289 0  0.8170066118211573 0.1239888626960335 0  0.8813101988987558 0.1239832904073558 0  0.9465641660227777 0.124001171411176 0  1.013235058704445 0.1240766326673313 0  0 0.1875 0  0.06260246565758582 0.1873925189713649 0  0.1252110488490939 0.1872827873281143 0  0.1878323446928308 0.1871686458506627 0  0.2504740813949797 0.187048258394555 0  0.3131458451550909 0.1869203382292658 0  0.3758600220552821 0.1867844542826768 0  0.4386330760182396 0.1866414370271227 0  0.5014873360969411 0.1864938876175557 0  0.5644535555694575 0.1863467576701304 0  0.6275746408626022 0.1862078954480916 0  0.6909110999681691 0.1860883254801035 0  0.7545486877531633 0.1860018122978412 0  0.8186074056187334 0.1859628878970089 0  0.8832450442466677 0.1859816795006766 0  0.9486291695463052 0.1860507203886586 0  1.014808068448962 0.1861034994848458 0  0 0.25 0  0.06262695755098412 0.24986006108933 0  0.1252612651200276 0.2497168615252493 0  0.1879108407127252 0.2495672302153842 0  0.2505849563298041 0.2494083472614864 0  0.3132951050961179 0.2492380127812417 0  0.3760561235330032 0.2490550384681881 0  0.4388876900331327 0.2488598089790681 0  0.5018163447154089 0.2486550564922951 0  0.5648781840126653 0.2484468706418828 0  0.6281223240616741 0.2482459079290639 0  0.6916149573273666 0.2480686359408226 0  0.7554429770281744 0.247938192076137 0  0.819713860893434 0.2478839603658097 0  0.8845432623503038 0.2479381329564249 0  0.9500126507280102 0.2481263716335226 0  1.016074097372341 0.248450754478028 0  0 0.3125 0  0.06264426245787662 0.3123308735171457 0  0.125296489252395 0.3121573098607731 0  0.1879652461781029 0.3119749293122158 0  0.250660541804113 0.3117796540426907 0  0.3133947606191462 0.3115679770125735 0  0.3761838814204782 0.3113373958716769 0  0.43904911111123 0.3110870949084994 0  0.5020190763819545 0.3108189786919114 0  0.5651326879407244 0.3105391757140704 0  0.6284426518385079 0.3102601183358876 0  0.6920191998805376 0.3100032214830873 0  0.7559526743532063 0.3098019388358015 0  0.8203517682094157 0.309704425585813 0  0.8853314695967993 0.3097740147044221 0  0.950983174254876 0.3100842787260366 0  1.017327589627576 0.3107044900443153 0  0 0.375 0  0.06265379306102298 0.3748061372966442 0  0.1253155040058054 0.374606522846136 0  0.1879936218260247 0.37439539284441 0  0.2506980151723632 0.3741671375951002 0  0.3134408448470181 0.3739165078053345 0  0.3762377869274393 0.373639013169795 0  0.439109725478701 0.3733316324477652 0  0.5020851098615049 0.3729940095005131 0  0.5652031814855438 0.3726303829626028 0  0.6285181956202989 0.3722525759948795 0  0.6921044727023863 0.3718844101118627 0  0.7560614253712219 0.3715677789182149 0  0.8205164965661541 0.3713700639429999 0  0.8856226516942449 0.3713912118625438 0  0.9515479839518155 0.3717664509481313 0  1.018463973763321 0.3726582599744128 0  0 0.4375 0  0.06265557786552124 0.4372871596234859 0  0.1253183960304859 0.4370671899565333 0  0.1879961692041024 0.4368328403858433 0  0.250697765179771 0.4365767580928869 0  0.3134339962551975 0.4362915528155141 0  0.3762187303147211 0.4359700478810107 0  0.4390705239724388 0.4356058588861482 0  0.5020150766629687 0.4351945343580654 0  0.5650889291306784 0.4347356409389689 0  0.6283449534019686 0.4342363946885875 0  0.6918602163127401 0.4337177164515887 0  0.7557465640669825 0.4332238020687158 0  0.8201635519174568 0.4328360517538715 0  0.8853323218203414 0.4326906395593827 0  0.9515497286032979 0.4329951679601944 0  1.0192107478454 0.4340349252760022 0  0 0.5 0  0.06265022636697926 0.4997752973331039 0  0.1253064897856832 0.4995421496759572 0  0.1879751425893469 0.4992918475169798 0  0.2506633033393069 0.4990152246710887 0  0.3133794137907351 0.4987024989661512 0  0.3761340817625962 0.4983432430506239 0  0.4389414458703877 0.4979266169557997 0  0.5018214759172084 0.4974421124396287 0  0.5648039222200599 0.4968812756891809 0  0.6279350941050292 0.4962412594962614 0  0.6912892809282474 0.4955316988817277 0  0.7549872493911065 0.4947873373409335 0  0.8192242906163925 0.4940897077064684 0  0.8843089003046323 0.4936004363482538 0  0.9507113836497105 0.4936028036519478 0  1.01912962051522 0.4945347155579154 0  0 0.5625 0  0.06263883129789395 0.5622718329705696 0  0.1252821473256693 0.5620341350107442 0  0.1879345407624597 0.5617769498808379 0  0.2506008530016874 0.5614894502697431 0  0.3132863838355633 0.5611594897776669 0  0.3759972793624909 0.5607731719207361 0  0.4387413183124572 0.5603145108920038 0  0.5015295608866547 0.5597653688781025 0  0.5643798071394217 0.559106088523371 0  0.6273237214050817 0.5583177328102596 0  0.6904210571717186 0.5573878709964454 0  0.7537867569947529 0.5563238853307858 0  0.8176390238714886 0.555181301520058 0  0.8823756763491762 0.5541184684561326 0  0.9486780206334633 0.5534846136004888 0  1.017636291728171 0.5539202275929127 0  0 0.625 0  0.06262281248200248 0.6247778107283779 0  0.1252484387910961 0.6245454262286453 0  0.187879573171849 0.6242920742257605 0  0.2505185776121678 0.6240057042013181 0  0.3131672625697108 0.6236722305805831 0  0.3758266477454563 0.6232746352889182 0  0.4384968179396004 0.622791898800353 0  0.5011772276715244 0.622197779700072 0  0.5638683751582337 0.6214596118395329 0  0.6265770471781619 0.6205376974325937 0  0.6893300631080145 0.6193869735152823 0  0.7522067342388804 0.6179655447399768 0  0.8154086709173558 0.6162621172323313 0  0.8793920691997136 0.6143706397013468 0  0.9450713242266442 0.6126564160371195 0  1.0140718914958 0.611998459677313 0  0 0.6875 0  0.06260371534400425 0.6872938513180651 0  0.1252087065034997 0.6870774491272773 0  0.1878159233614879 0.6868398531505784 0  0.250425445144799 0.686568531923259 0  0.3130358244388502 0.6862483445620229 0  0.3756431439599816 0.685860215605653 0  0.4382396930309199 0.6853793405753676 0  0.5008122771884845 0.6847727072643237 0  0.5633405739738233 0.6839956692217072 0  0.6257971655265976 0.6829873434639562 0  0.6881542313888589 0.6816650466232176 0  0.7504104489896974 0.6799200862365921 0  0.8126715094167664 0.6776258272098731 0  0.8753534458711187 0.6747022166687199 0  0.9395695799995792 0.671389757128264 0  1.007579677582739 0.6688713622667046 0  0 0.75 0  0.0625829891066627 0.7498199761485127 0  0.1251660740287232 0.7496303841209472 0  0.1877488868144352 0.7494209329090267 0  0.2503298201426437 0.7491796084716889 0  0.3129050381279453 0.7488915162481714 0  0.3754669370978895 0.748537293892597 0  0.4380016981077367 0.748090821383058 0  0.5004854162244426 0.7475157981945124 0  0.5628781804482339 0.7467604807595644 0  0.625115789274392 0.7457493798212471 0  0.6871008810121567 0.744369850912044 0  0.748703638151771 0.7424502555644944 0  0.8098111672405904 0.739726576297621 0  0.8705581865059134 0.7358116986736984 0  0.9321343344539899 0.7303351770495278 0  0.9974490375171762 0.7246890261159472 0  0 0.8125 0  0.06256178228156355 0.812355478004419 0  0.1251229841428104 0.81220286943632 0  0.1876825306074348 0.812033423386075 0  0.2502380174074406 0.8118367756994825 0  0.312784607695267 0.8115998316972018 0  0.3753132315231867 0.8113051872976328 0  0.4378075235352167 0.8109287761518308 0  0.5002384886019008 0.8104362284004736 0  0.562555077005226 0.8097770487581383 0  0.6246674971844187 0.8088749593717511 0  0.6864183282379099 0.8076110383708411 0  0.7475365423377681 0.8057919869072642 0  0.8075835632991638 0.803084496453943 0  0.8659857566760902 0.7988684933541402 0  0.9227178903032361 0.7919153563629858 0  0.984585993073383 0.7799118217430838 0  0 0.875 0  0.06254080038656529 0.8748988738872336 0  0.1250808716782503 0.874791880881416 0  0.1876190788604607 0.8746726452222494 0  0.2501531884741107 0.8745335408176141 0  0.3126789344668905 0.8743648098517999 0  0.3751884481687265 0.8741532978508676 0  0.4376674761589232 0.8738805441175455 0  0.5000902477649568 0.8735198067639132 0  0.5624096440226146 0.8730313328160082 0  0.6245376612330764 0.872354720810649 0  0.6863052900269034 0.8713962932489344 0  0.7473783625491436 0.8700066874934054 0  0.8070819636589776 0.8679325664856363 0  0.8640549802432775 0.8646744347242614 0  0.9156793756328068 0.8589679887520818 0  0.9575364034120194 0.8469509567353355 0  0 0.9375 0  0.06252026597246756 0.9374479639328915 0  0.1250400699100238 0.9373928454839061 0  0.1875587275018182 0.9373312870312916 0  0.2500749490312702 0.9372592501738521 0  0.3125863201013626 0.9371715317075074 0  0.3750884179700534 0.9370610646502846 0  0.4375732154568139 0.936917861142349
[...]
<PointData  Vectors="f_95-0"> 
<DataArray  type="Float64"  Name="f_95-0"  NumberOfComponents="3" format="ascii">0.0000000000000000e+00 0.0000000000000000e+00 0.0000000000000000e+00  -5.1055477567813704e-04 2.8744669068353483e-02 0.0000000000000000e+00  -1.4551477351614440e-03 5.5377987764878615e-02 0.0000000000000000e+00  -2.6202304497388931e-03 7.6189213825447841e-02 0.0000000000000000e+00  -4.0018964587979090e-03 9.0153794505168305e-02 0.0000000000000000e+00  -5.5578208551467856e-03 9.7579540005901813e-02 0.0000000000000000e+00  -7.2497431426758810e-03 9.9431223699160437e-02 0.0000000000000000e+00  -9.0389787169861593e-03 9.6885675137559621e-02 0.0000000000000000e+00  -1.0884984243882274e-02 9.1073158038381979e-02 0.0000000000000000e+00  -1.2742294539078403e-02 8.2952268512722915e-02 0.0000000000000000e+00  -1.4557088096956425e-02 7.3274425691437897e-02 0.0000000000000000e+00  -1.6262761349561103e-02 6.2600138952450854e-02 0.0000000000000000e+00  -1.7778389420474369e-02 5.1342848142087227e-02 0.0000000000000000e+00  -1.8981778587493867e-02 3.9799286472051290e-02 0.0000000000000000e+00  -1.9685675873172916e-02 2.8234038895124425e-02 0.0000000000000000e+00  -1.9944956274206688e-02 1.7118952408991861e-02 0.0000000000000000e+00  -9.9577209731719699e-03 1.0435350477530886e-02 0.0000000000000000e+00  0.0000000000000000e+00 0.0000000000000000e+00 0.0000000000000000e+00  -4.4484643230114751e-04 2.9591821649966162e-02 0.0000000000000000e+00  -1.4354374624796398e-03 5.6508569218757326e-02 0.0000000000000000e+00  -2.7237936596521783e-03 7.7556748557600294e-02 0.0000000000000000e+00  -4.2610279485949072e-03 9.1709852959488275e-02 0.0000000000000000e+00  -5.9907940689868039e-03 9.9277596553750930e-02 0.0000000000000000e+00  -7.8696575497080191e-03 1.0122553577706120e-01 0.0000000000000000e+00  -9.8543352754017540e-03 9.8730034922837301e-02 0.0000000000000000e+00  -1.1900565348721952e-02 9.2917263478964104e-02 0.0000000000000000e+00  -1.3958709059590922e-02 8.4737265069403434e-02 0.0000000000000000e+00  -1.5970042959266482e-02 7.4928230726047471e-02 0.0000000000000000e+00  -1.7864199474740529e-02 6.4032401914765905e-02 0.0000000000000000e+00  -1.9556520802901139e-02 5.2432048241108815e-02 0.0000000000000000e+00  -2.0936018898542127e-02 4.0383269759525664e-02 0.0000000000000000e+00  -2.1925555766579775e-02 2.8036908698281286e-02 0.0000000000000000e+00  -2.2080459965567741e-02 1.5319295516124258e-02 0.0000000000000000e+00  -2.2380575032832691e-02 4.1319965064491966e-03 0.0000000000000000e+00  0.0000000000000000e+00 0.0000000000000000e+00 0.0000000000000000e+00  -4.2692603009665786e-04 3.0401223628725743e-02 0.0000000000000000e+00  -1.5540480702266645e-03 5.7801131791053631e-02 0.0000000000000000e+00  -3.1589823111134001e-03 7.9182517815925335e-02 0.0000000000000000e+00  -5.1160018249317178e-03 9.3582482139627471e-02 0.0000000000000000e+00  -7.3321114358980699e-03 1.0132907518624397e-01 0.0000000000000000e+00  -9.7412600282646439e-03 1.0339677801756150e-01 0.0000000000000000e+00  -1.2284983101395851e-02 1.0096519604664070e-01 0.0000000000000000e+00  -1.4906255469365672e-02 9.5156983105478238e-02 0.0000000000000000e+00  -1.7541527455161209e-02 8.6912726882911961e-02 0.0000000000000000e+00  -2.0116419896834235e-02 7.6957071189167642e-02 0.0000000000000000e+00  -2.2544815224915526e-02 6.5816762329029707e-02 0.0000000000000000e+00  -2.4732403054791123e-02 5.3859327935208326e-02 0.0000000000000000e+00  -2.6588374058094826e-02 4.1329557693220532e-02 0.0000000000000000e+00  -2.8028740179508859e-02 2.8369905746618702e-02 0.0000000000000000e+00  -2.8982013761855829e-02 1.5038465041350594e-02 0.0000000000000000e+00  -2.9352779188626242e-02 1.6574588025089576e-03 0.0000000000000000e+00  0.0000000000000000e+00 0.0000000000000000e+00 0.0000000000000000e+00  -5.0366108608837425e-04 3.1303983578803311e-02 0.0000000000000000e+00  -1.9004259959040143e-03 5.9397061553440149e-02 0.0000000000000000e+00  -3.9847066915668890e-03 8.1274866714102043e-02 0.0000000000000000e+00  -6.5748329600158429e-03 9.6030498755902999e-02 0.0000000000000000e+00  -9.5357432688945500e-03 1.0402987984638165e-01 0.0000000000000000e+00  -1.2768694951621518e-02 1.0626960615810585e-01 0.0000000000000000e+00  -1.6192019006292867e-02 1.0393717430955353e-01 0.0000000000000000e+00  -1.9727016119351334e-02 9.8151358140963846e-02 0.0000000000000000e+00  -2.3285705010115107e-02 8.9840509240226157e-02 0.0000000000000000e+00  -2.6764663775447384e-02 7.9713397204721786e-02 0.0000000000000000e+00  -3.0045182123164493e-02 6.8283541527005512e-02 0.0000000000000000e+00  -3.3002217420792949e-02 5.5915936172917999e-02 0.0000000000000000e+00  -3.5518524917829704e-02 4.2872738655152787e-02 0.0000000000000000e+00  -3.7507875901120785e-02 2.9342415464254416e-02 0.0000000000000000e+00  -3.8895615118293148e-02 1.5404471606964374e-02 0.0000000000000000e+00  -3.9672461046232156e-02 1.1570358525382410e-03 0.0000000000000000e+00  0.0000000000000000e+00 0.0000000000000000e+00 0.0000000000000000e+00  -6.4078544117015276e-04 3.2425923511051627e-02 0.0000000000000000e+00  -2.4305334698743399e-03 6.1437136346287211e-02 0.0000000000000000e+00  -5.1340774096860419e-03 8.4004270013564544e-02 0.0000000000000000e+00  -8.5275044217419226e-03 9.9263361995899288e-02 0.0000000000000000e+00  -1.2438050415588145e-02 1.0762792661402810e-01 0.0000000000000000e+00  -1.6735399911432646e-02 1.1012556796759951e-01 0.0000000000000000e+00  -2.1311468070387390e-02 1.0795468942554468e-01 0.0000000000000000e+00  -2.6059369176286429e-02 1.0222780358735127e-01 0.0000000000000000e+00  -3.0856773995387599e-02 9.3855114580817536e-02 0.0000000000000000e+00  -3.5556683453109646e-02 8.3522723486462835e-02 0.0000000000000000e+00  -3.9986992683662403e-02 7.1726744764214284e-02 0.0000000000000000e+00  -4.3962109418426439e-02 5.8832139160530351e-02 0.0000000000000000e+00  -4.7305899426839305e-02 4.5130255997521254e-02 0.0000000000000000e+00  -4.9890247024570185e-02 3.0867691238823929e-02 0.0000000000000000e+00  -5.1659624081795925e-02 1.6221319385939344e-02 0.0000000000000000e+00  -5.2736313486828577e-02 1.2258353491120650e-03 0.0000000000000000e+00  0.0000000000000000e+00 0.0000000000000000e+00 0.0000000000000000e+00  -8.1260189143132116e-04 3.3846792125760493e-02 0.0000000000000000e+00  -3.0716089295599880e-03 6.4029035334843831e-02 0.0000000000000000e+00  -6.4887923203137774e-03 8.7498633523764940e-02 0.0000000000000000e+00  -1.0802349370059637e-02 1.0343847042603610e-01 0.0000000000000000e+00  -1.5810152064137543e-02 1.1231621480196138e-01 0.0000000000000000e+00  -2.1356975794750831e-02 1.1519462150691490e-01 0.0000000000000000e+00  -2.7309284409456739e-02 1.1328200955472315e-01 0.0000000000000000e+00  -3.3528495961253117e-02 1.0767824654867858e-01 0.0000000000000000e+00  -3.9849771000835976e-02 9.9264839695674470e-02 0.0000000000000000e+00  -4.6068597048537226e-02 8.8692336725719634e-02 0.0000000000000000e+00  -5.1937742902013535e-02 7.6426775091833404e-02 0.0000000000000000e+00  -5.7180421574670806e-02 6.2824560598613730e-02 0.0000000000000000e+00  -6.1522717146202215e-02 4.8209178478573832e-02 0.0000000000000000e+00  -6.4762172410208388e-02 3.2918973003074226e-02 0.0000000000000000e+00  -6.6840802421118173e-02 1.7284186070730307e-02 0.0000000000000000e+00  -6.8010160585869686e-02 1.4420297575506733e-03 0.0000000000000000e+00  0.0000000000000000e+00 0.0000000000000000e+00 0.0000000000000000e+00  -9.9532446949307865e-04 3.5607002529627597e-02 0.0000000000000000e+00  -3.7472951642258966e-03 6.7229558507084966e-02 0.0000000000000000e+00  -7.9108937964371875e-03 9.1829820086456987e-02 0.0000000000000000e+00  -1.3195532317326078e-02 1.0865319157050231e-01 0.0000000000000000e+00  -1.9382339690208045e-02 1.1822788936635589e-01 0.0000000000000000e+00  -2.6300739224301636e-02 1.2165135076807869e-01 0.0000000000000000e+00  -3.3795680397081071e-02 1.2013554718305096e-01 0.0000000000000000e+00  -4.1695883957507382e-02 1.1475668918823811e-01 0.0000000000000000e+00  -4.9788292562706227e-02 1.0635255757011251e-01 0.0000000000000000e+00  -5.7799918539807774e-02 9.5518854352183963e-02 0.0000000000000000e+00  -6.5389633678101008e-02 8.2667948276469422e-02 0.0000000000000000e+00  -7.2157000169817187e-02 6.8125542771142536e-02 0.0000000000000000e+00  -7.7680773381503199e-02 5.2242001828704004e-02 0.0000000000000000e+00  -8.1621185579368066e-02 3.5477752379102820e-02 0.0000000000000000e+00  -8.3852489220613752e-02 1.8406105089467370e-02 0.0000000000000000e+00  -8.4753052874012288e-02 1.4124467295724620e-03 0.0000000000000000e+00  0.0000000000000000e+00 0.0000000000000000e+00 0.0000000000000000e+00  -1.1661046325844805e-03 3.7704210584198414e-02 0.0000000000000000e+00  -4.3789028956163992e-03 7.1033054408071714e-02 0.0000000000000000e+00  -9.2496313408472076e-03 9.7000017919910711e-02 0.0000000000000000e+00  -1.5478195396746318e-02 1.1493340196919964e-01 0.0000000000000000e+00  -2.2846751136035862e-02 1.2542611080381474e-01 0.0000000000000000e+00  -3.1181285791851469e-02 1.2960411896402521e-01 0.0000000000000000e+00  -4.0310687711931185e-02 1.2867126893678310e-01 0.0000000000000000e+00  -5.0031432139800214e-02 1.2366533035185405e-01 0.0000000000000000e+00  -6.0079892546316675e-02 1.1536206105843841e-01 0.0000000000000000e+00  -7.0110190561202906e-02 1.0427725834623691e-01 0.0000000000000000e+00  -7.9675276490131119e-02 9.0736845176634995e-02 0.0000000000000000e+00  -8.8221219035308537e-02 7.4998820581155548e-02 0.0000000000000000e+00  -9.5122156185163467e-02 5.7406691739901705e-02 0.0000000000000000e+00  -9.9801982051848856e-02 3.8545439487844321e-02 0.0000000000000000e+00  -1.0193908726858207e-01 1.9333931844351136e-02 0.0000000000000000e+00  -1.0193420996325267e-01 6.3727738853434305e-04 0.0000000000000000e+00  0.0000000000000000e+00 0.0000000000000000e+00 0.0000000000000000e+00  -1.3010879277702086e-03 4.0093022365658051e-02 0.0000000000000000e+00  -4.8822738380602968e-03 7.5365402549114183e-02 0.0000000000000000e+00  -1.0339889958405540e-02 1.0293086257275419e-01 0.0000000000000000e+00  -1.7394182130948802e-02 1.2221983323500502e-01 0.0000000000000000e+00  -2.5850991479747849e-02 1.3388747831118597e-01 0.0000000000000000e+00  -3.5546083474745901e-02 1.3907430440232268e-01 0.0000000000000000e+00  -4.6297339465842163e-02 1.3895845339730925e-01 0.0000000000000000e+00  -5.7869801053116759e-02 1.3452188289286784e-01 0.0000000000000000e+00  -6.9950950565999592e-02 1.2646014493222418e-01 0.0000000000000000e+00  -8.2125411537146420e-02 1.1518645954919016e-01 0.0000000000000000e+00  -9.3842661867913679e-02 1.0090329274850816e-01 0.0000000000000000e+00  -1.0438865250510447e-01 8.3731813175432240e-02 0.0000000000000000e+00  -1.1287996398474907e-01 6.3922786619432972e-02 0.0000000000000000e+00  -1.1835960911770942e-01 4.2159489090153851e-02 0.0000000000000000e+00  -1.2010825040475481e-01 1.9806143538662599e-02 0.0000000000000000e+00  -1.1831251203848556e-01 -1.5397847379845855e-03 0.0000000000000000e+00  0.0000000000000000e+00 0.0000000000000000e+00 0.0000000000000000e+00  -1.3749249695546629e-03 4.2682028330302178e-02 0.0000000000000000e+00  -5.1679571032046696e-03 8.0077460279899870e-02 0.0000000000000000e+00  -1.1004151929345349e-02 1.0945270202895846e-01 0.0000000000000000e+00  -1.8662367738896082e-02 1.3035216281890319e-01 0.0000000000000000e+00  -2.7997574736207162e-02 1.4347947725565627e-01 0.0000000000000000e+00  -3.8867709830529722e-02 1.4996527095394296e-01 0.0000000000000000e+00  -5.1082449536028585e-02 1.5093797381864266e-01 0.0000000000000000e+00  -6.4375067634055927e-02 1.4730581380199220e-01 0.0000000000000000e+00  -7.8386700283363572e-02 1.3967315198872321e-01 0.0000000000000000e+00  -9.2645192721291153e-02 1.2833719130709068e-01 0.0000000000000000e+00  -1.0653076743932731e-01 1.1333586154751184e-01 0.0000000000000000e+00  -1.1919874594624862e-01 9.4576241867593711e-02 0.0000000000000000e+00  -1.2947705329197379e-01 7.2116454191831811e-02 0.0000000000000000e+00  -1.3590614804353698e-01 4.6587184856693463e-02 0.0000000000000000e+00  -1.3708778964009430e-01 1.9707959932724697e-02 0.0000000000000000e+00  -1.3256126901274448e-01 -5.8014826491863004e-03 0.0000000000000000e+00  0.0000000000000000e+00 0.0000000000000000e+00 0.0000000000000000e+00  -1.3632681565684389e-03 4.5332738465971453e-02 0.0000000000000000e+00  -5.1498107580968807e-03 8.4942718659270749e-02 0.0000000000000000e+00  -1.1067994062217524e-02 1.1629743599448064e-01 0.0000000000000000e+00  -1.8996662818849611e-02 1.3905353241938431e-01 0.0000000000000000e+00  -2.8864265745417523e-02 1.5393412552596689e-01 0.0000000000000000e+00  -4.0560392469743883e-02 1.6202311671074465e-01 0.0000000000000000e+00  -5.3886039128587887e-02 1.6436827772886914e-01 0.0000000000000000e+00  -6.8538439512971616e-02 1.6178736796215892e-01 0.0000000000000000e+00  -8.4112825250601195e-02 1.5479203555859153e-01 0.0000000000000000e+00  -1.0010503793587118e-01 1.4356784167708572e-01 0.0000000000000000e+00  -1.1587860608950938e-01 1.2799316581497230e-01 0.0000000000000000e+00  -1.3052993527613740e-01 1.0772780412144779e-01 0.0000000000000000e+00  -1.4273518594364515e-01 8.2390952685723218e-02 0.0000000000000000e+00  -1.5051498111418291e-01 5.2113379543209708e-02 0.0000000000000000e+00  -1.5124506440264021e-01 1.8903597864788901e-02 0.0000000000000000e+00  -1.4304211776629616e-01 -1.2654558120832844e-02 0.0000000000000000e+00  0.0000000000000000e+00 0.0000000000000000e+00 0.0000000000000000e+00  -1.2500303828287959e-03 4.7866964420460213e-02 0.0000000000000000e+00  -4.7675347500866147e-03 8.9666367533699332e-02 0.0000000000000000e+00  -1.0398026472469509e-02 1.2310086064854625e-01 0.0000000000000000e+00  -1.8154893445722971e-02 1.4792018133804652e-01 0.0000000000000000e+00  -2.8058642716637168e-02 1.6482206662889631e-01 0.0000000000000000e+00  -4.0036512172749131e-02 1.7479455465138102e-01 0.0000000000000000e+00  -5.3878040429742285e-02 1.7876673666522344e-01 0.0000000000000000e+00  -6.9237228575280738e-02 1.7744835192142622e-01 0.0000000000000000e+00  -8.5662657562567010e-02 1.7126595152214000e-01 0.0000000000000000e+00  -1.0263256907997861e-01 1.6033455345390765e-01 0.0000000000000000e+00  -1.1953497033475227e-01 1.4443085440652148e-01 0.0000000000000000e+00  -1.3560254429480420e-01 1.2292200155314083e-01 0.0000000000000000e+00  -1.4966995701498495e-01 9.4827570657633864e-02 0.0000000000000000e+00  -1.5922891989422980e-01 5.9662814348062178e-02 0.0000000000000000e+00  -1.6026180458723704e-01 1.9060528157280883e-02 0.0000000000000000e+00  -1.4866422809362279e-01 -2.1794831699385342e-02 0.0000000000000000e+00  0.0000000000000000e+00 0.0000000000000000e+00 0.0000000000000000e+00  -1.0413821173320375e-03 5.0092349450473500e-02 0.0000000000000000e+00  -4.0270006210071417e-03 9.3916114089590580e-02 0.0000000000000000e+00  -8.9664578928730261e-03 1.2942255688863011e-01 0.0000000000000000e+00  -1.6021482115749892e-02 1.5642266001516028e-01 0.0000000000000000e+00  -2.5313810709420067e-02 1.7553371651168431e-01 0.0000000000000000e+00  -3.6812925913236795e-02 1.8759040015961712e-01 0.0000000000000000e+00  -5.0297590029490628e-02 1.9335901813102221e-01 0.0000000000000000e+00  -6.5377220335092870e-02 1.9341980459059110e-01 0.0000000000000000e+00  -8.1549948405594347e-02 1.8812524985501813e-01 0.0000000000000000e+00  -9.8264857350892854e-02 1.7757220103110308e-01 0.0000000000000000e+00  -1.1498476135937279e-01 1.6152220936567732e-01 0.0000000000000000e+00  -1.3123021799938195e-01 1.3927786524973068e-01 0.0000000000000000e+00  -1.4612481336299099e-01 1.0966315001564826e-01 0.0000000000000000e+00  -1.5780063272560732e-01 7.0571381429346519e-02 0.0000000000000000e+00  -1.6206923367520890e-01 1.9937665466816683e-02 0.0000000000000000e+00  -1.5083022396150958e-01 -3.1318127609073119e-02 0.0000000000000000e+00  0.0000000000000000e+00 0.0000000000000000e+00 0.0000000000000000e+00  -7.8598693010566753e-04 5.1855202300828358e-02 0.0000000000000000e+00  -3.0511392038098167e-03 9.7382073144789555e-02 0.0000000000000000e+00  -6.9289003793626090e-03 1.3478909776498527e-01 0.0000000000000000e+00  -1.2709913473065668e-02 1.6392647611205746e-01 0.0000000000000000e+00  -2.0616366101062326e-02 1.8527820303342366e-01 0.0000000000000000e+00  -3.0666555765218671e-02 1.9946822464876457e-01 0.0000000000000000e+00  -4.2642107147334234e-02 2.0705553636071031e-01 0.0000000000000000e+00  -5.6125763869737812e-02 2.0846504754114958e-01 0.0000000000000000e+00  -7.0573568259465772e-02 2.0397272630692026e-01 0.0000000000000000e+00  -8.5406607509512247e-02 1.9368874889484300e-01 0.0000000000000000e+00  -1.0015651284487108e-01 1.7749199122347176e-01 0.0000000000000000e+00  -1.1448644915220538e-01 1.5487850748478788e-01 0.0000000000000000e+00  -1.2816398395559075e-01 1.2436615220438708e-01 0.0000000000000000e+00  -1.4140185218058479e-01 8.2902702760354344e-02 0.0000000000000000e+00  -1.4973928813987833e-01 2.6065987609318469e-02 0.0000000000000000e+00  -1.3371935953729328e-01 -3.6269223984624004e-02 0.0000000000000000e+00  0.0000000000000000e+00 0.0000000000000000e+00 0.0000000000000000e+00  -5.8278896837057133e-04 5.3127645132509248e-02 0.0000000000000000e+00  -2.0948783096074678e-03 9.9857749397469012e-02 0.0000000000000000e+00  -4.6507127460392655e-03 1.3876157486182214e-01 0.0000000000000000e+00  -8.6251584446143427e-03 1.6974726728580666e-01 0.0000000000000000e+00  -1.4324786770093622e-02 1.9312400550786823e-01 0.0000000000000000e+00  -2.1819673571958065e-02 2.0926268535462975e-01 0.0000000000000000e+00  -3.0926133168173723e-02 2.1848575928406500e-01 0.0000000000000000e+00  -4.1254388631392302e-02 2.2104147201627630e-01 0.0000000000000000e+00  -5.2278453972597713e-02 2.1710853708209116e-01 0.0000000000000000e+00  -6.3430991485357455e-02 2.0680175842247278e-01 0.0000000000000000e+00  -7.4218379876473298e-02 1.9015746060061225e-01 0.0000000000000000e+00  -8.4371927063294438e-02 1.6699510771787468e-01 0.0000000000000000e+00  -9.4708699137193347e-02 1.3665322690437018e-01 0.0000000000000000e+00  -1.0650970246670531e-01 9.8075611220139122e-02 0.0000000000000000e+00  -1.1983295443456406e-01 4.8099145951036891e-02 0.0000000000000000e+00  -1.3725043245095125e-01 -1.6883877772685147e-02 0.0000000000000000e+00  0.0000000000000000e+00 0.0000000000000000e+00 0.0000000000000000e+00  -5.0238177296370150e-04 5.4020606193831748e-02 0.0000000000000000e+00  -1.3457369126272881e-03 1.0126762865284100e-01 0.0000000000000000e+00  -2.4945191038265500e-03 1.4102772580398576e-01 0.0000000000000000e+00  -4.3374870311715281e-03 1.7328005182845330e-01 0.0000000000000000e+00  -7.1772927903233155e-03 1.9813797771777070e-01 0.0000000000000000e+00  -1.1104297097057498e-02 2.1572584753258425e-01 0.0000000000000000e+00  -1.6012019457818077e-02 2.2614790011890520e-01 0.0000000000000000e+00  -2.1639347363732311e-02 2.2948614356352409e-01 0.0000000000000000e+00  -2.7618460246419889e-02 2.2580751740776681e-01 0.0000000000000000e+00  -3.3523471166927395e-02 2.1517740693098991e-01 0.0000000000000000e+00  -3.8915316014400216e-02 1.9766858246808816e-01 0.0000000000000000e+00  -4.3565574753404300e-02 1.7334655634939608e-01 0.0000000000000000e+00  -4.7555666406600097e-02 1.4248476247820932e-01 0.0000000000000000e+00  -5.0906163970940374e-02 1.0483659361959184e-01 0.0000000000000000e+00  -5.8887960434711326e-02 5.9359327424707960e-02 0.0000000000000000e+00  -4.7810032150146523e-02 9.5019252738670033e-03 0.0000000000000000e+00  0.0000000000000000e+00 0.0000000000000000e+00 0.0000000000000000e+00  0.0000000000000000e+00 5.4479090970021932e-02 0.0000000000000000e+00  0.0000000000000000e+00 1.0169430314404093e-01 0.0000000000000000e+00  0.0000000000000000e+00 1.4164563652205703e-01 0.0000000000000000e+00  0.0000000000000000e+00 1.7433309110407016e-01 0.0000000000000000e+00  0.0000000000000000e+00 1.9975666689008040e-01 0.0000000000000000e+00  0.0000000000000000e+00 2.1791636388008773e-01 0.0000000000000000e+00  0.0000000000000000e+00 2.2881218207409210e-01 0.0000000000000000e+00  0.0000000000000000e+00 2.