<?xml version="1.0"?>
<VTKFile type="UnstructuredGrid"  version="0.1"  >
<UnstructuredGrid>
<Piece  NumberOfPoints="289" NumberOfCells="512">
<Points>
<DataArray  type="Float64"  NumberOfComponents="3"  format="ascii">0 0 0  0.0625 0 0  0.125 0 0  0.1875 0 0  0.25 0 0  0.3125 0 0  0.375 0 0  0.4375 0 0  0.5 0 0  0.5625 0 0  0.625 0 0  0.6875 0 0  0.75 0 0  0.8125 0 0  0.875 0 0  0.9375 0 0  1 0 0  0 0.0625 0  0.06244329069342218 0.06248644444553181 0  0.1248853997396654 0.06247264784203142 0  0.18732519595663 0.06245839047485323 0  0.249761722175457 0.06244350430458233 0  0.3121943218017371 0.06242790670435514 0  0.3746228183387909 0.06241164287942702 0  0.4370477730030612 0.06239493761231824 0  0.4994708548189928 0.06237825361758261 0  0.5618953763427945 0.06236234779705216 0  0.6243270908665429 0.06234830735212789 0  0.6867754521138902 0.06233753626149059 0  0.7492558061687031 0.06233165791140471 0  0.811793669055481 0.06233233791474774 0  0.8744338519298281 0.06234125418515624 0  0.9372598411991623 0.0623614952998216 0  1.000422878073706 0.06240797177271392 0  0 0.125 0  0.06238782072503603 0.124973126163496 0  0.124773209015979 0.1249457452614937 0  0.1871538237972104 0.1249173898069415 0  0.2495276462252922 0.1248876893225974 0  0.3118932187955066 0.1248564355781693 0  0.3742499890290812 0.1248236669933208 0  0.4365988068558991 0.1247897752631252 0  0.4989426404067068 0.1247556315347238 0  0.5612876024952796 0.1247227182299556 0  0.6236444338661442 0.1246932328431917 0  0.68603070046929 0.1246700991256299 0  0.7484741877764032 0.1246567804416123 0  0.8110183808149137 0.1246567549527974 0  0.8737314335510823 0.1246725277683993 0  0.9367201825586874 0.1247041277936272 0  1.000153444612411 0.1247457252838306 0  0 0.1875 0  0.06233488088156285 0.1874603142003148 0  0.1246659413537833 0.1874198093804412 0  0.1869894712712359 0.1873777179170029 0  0.2493021728980556 0.1873334010583187 0  0.3116014787733562 0.1872864401456628 0  0.3738860195766814 0.1872367602281206 0  0.4361563111242703 0.1871847948205053 0  0.4984157462349011 0.1871316948880284 0  0.5606719983580217 0.1870795717614895 0  0.622938969401061 0.1870317360346473 0  0.6852394385588307 0.1869928416935099 0  0.7476085596298444 0.1869687469838321 0  0.8100981827329791 0.1869657141027223 0  0.8727812648701488 0.1869881401541567 0  0.935753683701806 0.1870328154152967 0  0.9991276276701638 0.1870741421726205 0  0 0.25 0  0.06228589726805904 0.2499483231779913 0  0.124566409361029 0.2498954553825863 0  0.1868362474870991 0.2498402587860512 0  0.249090539085835 0.2497817346301358 0  0.3113251734028842 0.2497191299876574 0  0.3735373332759408 0.2496520922411999 0  0.4357262996667415 0.2495808897052563 0  0.4978946324875812 0.2495067152419345 0  0.560049843256584 0.2494320808351363 0  0.6222066669040636 0.2493612861918776 0  0.6843899776556744 0.2493008878801673 0  0.7466382033753274 0.2492599808798038 0  0.8090066265533685 0.2492498921729856 0  0.871568989330189 0.2492825406532209 0  0.9344142305944801 0.2493663509465812 0  0.9976336329667723 0.2494992405394755 0  0 0.3125 0  0.06224246237349318 0.3124375269584705 0  0.1244778004030252 0.3123734277577412 0  0.1866989313910492 0.3123061174690178 0  0.2488990845457757 0.3122341301677298 0  0.3110721090285525 0.3121562242104692 0  0.3732129923845973 0.3120715497108004 0  0.4353186935498182 0.3119799093094422 0  0.4973894186344712 0.3118821505894827 0  0.5594304838041159 0.31178073292828 0  0.6214548948714548 0.3116805048327005 0  0.6834866822519464 0.3115896921122796 0  0.7455647853406896 0.3115209993187023 0  0.8077467833891969 0.3114925150291777 0  0.8701109934979397 0.311527735333735 0  0.9327547472484946 0.3116535174620015 0  0.9957873019162545 0.3118944236065026 0  0 0.375 0  0.06220632475837637 0.3749283614521678 0  0.1244036661471065 0.3748546097860841 0  0.1865829826496337 0.3747766448304443 0  0.2487353196695636 0.3746924279437688 0  0.3108520038247951 0.37460006162232 0  0.372925054193366 0.3744979396461856 0  0.4349479327468806 0.3743850112186106 0  0.4969167985716475 0.3742612223963188 0  0.5588324746247211 0.3741282245068306 0  0.6207033602393434 0.3739904682998001 0  0.6825494811646289 0.3738568193739512 0  0.7444076816851807 0.373742795120897 0  0.8063375337659292 0.3736733498264701 0  0.8684268554627098 0.3736856751765815 0  0.9307951359679905 0.3738305736456934 0  0.9935936752941082 0.3741696040887031 0  0 0.4375 0  0.06217932928159859 0.4374213127876024 0  0.1243478082389963 0.437340002805707 0  0.1864943847595865 0.4372534150073727 0  0.248607748732065 0.4371588582597235 0  0.3106763300760464 0.4370536296853921 0  0.3726884926724641 0.4369351050561144 0  0.4346330590769655 0.4368009451727123 0  0.4965003723866239 0.4366495009209761 0  0.5582842001113151 0.436480552538594 0  0.6199849028566762 0.4362965987662596 0  0.6816143936399591 0.436105019628108 0  0.7432034132467048 0.4359215450550208 0  0.8048113757872948 0.4357754628008566 0  0.866538291518514 0.4357166151094459 0  0.9285370868877051 0.4358229615453326 0  0.9910240265900616 0.4362049019099214 0  0 0.5 0  0.06216330444967153 0.4999168880343239 0  0.1243140512599052 0.4998306683323864 0  0.1864393021839564 0.4997381415898154 0  0.2485254156065097 0.4996359397143875 0  0.3105577684027884 0.4995204649048762 0  0.3725206118957189 0.4993878716834703 0  0.4343971914034571 0.4992341357439928 0  0.4961703620961178 0.4990552932370314 0  0.5578241040538251 0.4988480075537485 0  0.6193466026938036 0.4986107530766418 0  0.6807359268353238 0.4983461334283132 0  0.7420097430084894 0.4980652088464295 0  0.80322069407515 0.4977951516060558 0  0.8644784230093755 0.4975917420292878 0  0.925976871230268 0.4975570838914087 0  0.98802198355495 0.4978584404408654 0  0 0.5625 0  0.06215989966899208 0.5624155679351577 0  0.1243059061054019 0.562327630543713 0  0.1864235496885475 0.5622325247344214 0  0.2484971556971544 0.562126266162528 0  0.3105092283041481 0.5620043809020011 0  0.3724398552763057 0.5618617368246733 0  0.434266222321823 0.5616923949704939 0  0.4959624463000726 0.5614895343293187 0  0.5575001688639747 0.5612455750520667 0  0.6188507816418111 0.5609527784592637 0  0.6799908984634043 0.5606049253049548 0  0.740913843601787 0.5602013293172995 0  0.8016513263032843 0.5597556632388095 0  0.8623100675165132 0.5593139038203787 0  0.9231249263798859 0.558986825321094 0  0.9845184731832437 0.5589976399609482 0  0 0.625 0  0.06217038332797684 0.6249177447188565 0  0.1243261434920028 0.6248317443674843 0  0.1864518968405766 0.6247380341733855 0  0.2485305682666883 0.6246321813913612 0  0.3105424165023751 0.6245090050620872 0  0.3724639158517458 0.6243622380923504 0  0.4342664932835957 0.6241841118530383 0  0.4959152179163424 0.6239648515935271 0  0.557367775557487 0.6236921024930879 0  0.6185745911371716 0.6233504045060194 0  0.679482085795831 0.6229211163484669 0  0.7400432692313833 0.6223839612306212 0  0.8002437282893172 0.6217233740321528 0  0.8601561621968716 0.6209475524679029 0  0.9200379058049657 0.6201365705643659 0  0.9804696630784822 0.6195392170241336 0  0 0.6875 0  0.06219542261212744 0.687423652522928 0  0.1243763189002292 0.6873435445073824 0  0.1865272666723917 0.687255651364744 0  0.2486307764023815 0.6871553712848962 0  0.3106660033386927 0.687037153918174 0  0.3726071235953747 0.686894014375798 0  0.4344212349070659 0.686716866646741 0  0.4960656585970525 0.6864935802453807 0  0.5574846394704462 0.686207619010995 0  0.6186058572828755 0.6858360674142956 0  0.6793383506413284 0.685346842785113 0  0.7395765087502323 0.6846951955207311 0  0.7992219865138577 0.6838212718805577 0  0.8582501935716909 0.6826573848814397 0  0.9168682863086622 0.6811771415457235 0  0.9757943691683846 0.6795592380707974 0  0 0.75 0  0.06223487650313552 0.7499333020995801 0  0.1244563147727532 0.7498631006681411 0  0.186649933098783 0.7497856136140892 0  0.2487991197882596 0.7496964399494417 0  0.3108835621411735 0.7495901446413509 0  0.3728772685135923 0.7494596913322729 0  0.4347457885127204 0.7492956235829421 0  0.4964422148320335 0.7490848321231841 0  0.5579014120288328 0.748808625455636 0  0.6190318739127494 0.7484395837262671 0  0.6797050812884333 0.747936197842313 0  0.7397446068360037 0.7472333791136636 0  0.798925812175715 0.7462255866605813 0  0.8570243037034517 0.7447402690546129 0  0.9140263499512457 0.7425259005303313 0  0.9706784570475007 0.7395273222125236 0  0 0.8125 0  0.06228764173545296 0.8124464337124794 0  0.1245639871744756 0.8123899102154054 0  0.1868168671389898 0.8123272165289103 0  0.2490320159081054 0.8122545657048694 0  0.3111916280729204 0.8121672029816269 0  0.3732723266814673 0.8120588568143053 0  0.4352421379846001 0.811920931715717 0  0.4970558073093641 0.8117412731089192 0  0.5586473354427764 0.8115022038083612 0  0.6199178460185324 0.8111772495643325 0  0.680715716796449 0.8107252835242638 0  0.7408046919021913 0.8100789541566337 0  0.799817514427245 0.8091188293368953 0  0.8572140265525827 0.8076082408999787 0  0.9123900643783696 0.8050109318598909 0  0.9658973435719092 0.7998909742387761 0  0 0.875 0  0.06235159345128479 0.8749625010231264 0  0.124695012463997 0.8749228578033746 0  0.1870214081802627 0.8748787304639289 0  0.2493202948961758 0.874827337641531 0  0.3115783897416917 0.8747651506892127 0  0.3737779274434722 0.874687465768359 0  0.4358940531252699 0.8745877779162593 0  0.497890587049204 0.8744568442552567 0  0.5597128420103465 0.8742812709040042 0  0.6212749146981841 0.8740413874184464 0  0.6824361762206111 0.8737080587202345 0  0.7429556534853561 0.8732377043495969 0  0.802398979694274 0.8725627413914728 0  0.8599403020552746 0.8715636142596135 0  0.9139406502506785 0.8699541437118886 0  0.9611791508076227 0.8667357326824697 0  0 0.9375 0  0.06242365371012654 0.9374806938475339 0  0.1248430136803381 0.9374602605963244 0  0.1872534186110824 0.937437467283278 0  0.2496493099089692 0.9374108414208295 0  0.3120235851933615 0.9373785047944994 0  0.3743666434007368 0.9373379418971191 0  0.4366648773174752 0.937285667
[...]
<PointData  Vectors="f_95-0"> 
<DataArray  type="Float64"  Name="f_95-0"  NumberOfComponents="3" format="ascii">0.0000000000000000e+00 0.0000000000000000e+00 0.0000000000000000e+00  -6.9105254231625424e-04 -9.7199532255075379e-03 0.0000000000000000e+00  -1.9296881763663151e-03 -6.9629723854438075e-03 0.0000000000000000e+00  -3.4092941413665992e-03 1.4880973544525368e-03 0.0000000000000000e+00  -5.1395232944897321e-03 1.1483445135065568e-02 0.0000000000000000e+00  -7.0737600671614770e-03 2.0537295974005679e-02 0.0000000000000000e+00  -9.1586400993075769e-03 2.7397429408351673e-02 0.0000000000000000e+00  -1.1327604183789749e-02 3.1649295597342982e-02 0.0000000000000000e+00  -1.3502907980548403e-02 3.3391000919302180e-02 0.0000000000000000e+00  -1.5596231650998250e-02 3.2986519631244118e-02 0.0000000000000000e+00  -1.7508094446221478e-02 3.0896015814671388e-02 0.0000000000000000e+00  -1.9126026416669654e-02 2.7571367761560852e-02 0.0000000000000000e+00  -2.0324492121617216e-02 2.3403523321608735e-02 0.0000000000000000e+00  -2.0942220794448966e-02 1.8687949884045280e-02 0.0000000000000000e+00  -2.0786985761121417e-02 1.3671963478813774e-02 0.0000000000000000e+00  -2.0023686944861192e-02 8.4512972106353858e-03 0.0000000000000000e+00  -9.0700433928374256e-03 8.1640380570995996e-03 0.0000000000000000e+00  0.0000000000000000e+00 0.0000000000000000e+00 0.0000000000000000e+00  -5.3920504556021051e-04 -8.6428456976128422e-03 0.0000000000000000e+00  -1.6883040794923689e-03 -5.6046119842549560e-03 0.0000000000000000e+00  -3.1303179631708773e-03 3.0878930005308366e-03 0.0000000000000000e+00  -4.8397468059589947e-03 1.3295212277876443e-02 0.0000000000000000e+00  -6.7641585902035711e-03 2.2524443918117216e-02 0.0000000000000000e+00  -8.8503893143727051e-03 2.9509066060291474e-02 0.0000000000000000e+00  -1.1030341321990126e-02 3.3821044850603457e-02 0.0000000000000000e+00  -1.3226327256080170e-02 3.5545538389728785e-02 0.0000000000000000e+00  -1.5351211392379719e-02 3.5033382874045102e-02 0.0000000000000000e+00  -1.7307924090454060e-02 3.2730921588559940e-02 0.0000000000000000e+00  -1.8989076843482455e-02 2.9075253008980194e-02 0.0000000000000000e+00  -2.0275829165318917e-02 2.4437400163285720e-02 0.0000000000000000e+00  -2.1036336106191409e-02 1.9097405489029162e-02 0.0000000000000000e+00  -2.1178366100114494e-02 1.3236630877520078e-02 0.0000000000000000e+00  -2.0275312444533233e-02 6.8327310592328321e-03 0.0000000000000000e+00  -2.0265578082083277e-02 1.6128233497035476e-03 0.0000000000000000e+00  0.0000000000000000e+00 0.0000000000000000e+00 0.0000000000000000e+00  -3.4429353292226200e-04 -7.8365468890043491e-03 0.0000000000000000e+00  -1.2741685921881345e-03 -4.3796343343760124e-03 0.0000000000000000e+00  -2.6115133518172496e-03 4.6143070014041769e-03 0.0000000000000000e+00  -4.2857568223972700e-03 1.5077379135276851e-02 0.0000000000000000e+00  -6.2266132137590233e-03 2.4515068953408301e-02 0.0000000000000000e+00  -8.3679384896951474e-03 3.1649535605946459e-02 0.0000000000000000e+00  -1.0633658562460534e-02 3.6042596699323796e-02 0.0000000000000000e+00  -1.2942599609072916e-02 3.7769381315913113e-02 0.0000000000000000e+00  -1.5206973751296359e-02 3.7170151656130919e-02 0.0000000000000000e+00  -1.7331798019525987e-02 3.4680332083899125e-02 0.0000000000000000e+00  -1.9215380977273017e-02 3.0727136904277631e-02 0.0000000000000000e+00  -2.0753894243393377e-02 2.5676495838129556e-02 0.0000000000000000e+00  -2.1857026720057394e-02 1.9815430582848556e-02 0.0000000000000000e+00  -2.2459462728775782e-02 1.3357868722176130e-02 0.0000000000000000e+00  -2.2699261381127277e-02 6.5621084503470709e-03 0.0000000000000000e+00  -2.2384388831637708e-02 6.0899403858382697e-05 0.0000000000000000e+00  0.0000000000000000e+00 0.0000000000000000e+00 0.0000000000000000e+00  -2.1303276531824122e-04 -7.2790122496897260e-03 0.0000000000000000e+00  -9.4056086858969638e-04 -3.3250577790767582e-03 0.0000000000000000e+00  -2.1731977111368512e-03 6.0770888765608478e-03 0.0000000000000000e+00  -3.8437714260862819e-03 1.6877794139644461e-02 0.0000000000000000e+00  -5.8663752898488290e-03 2.6583646583299900e-02 0.0000000000000000e+00  -8.1532742272058378e-03 3.3913541396506326e-02 0.0000000000000000e+00  -1.0614468798616123e-02 3.8424873425077374e-02 0.0000000000000000e+00  -1.3159947030811282e-02 4.0187056295776978e-02 0.0000000000000000e+00  -1.5696575768729164e-02 3.9532807468330260e-02 0.0000000000000000e+00  -1.8125986842392541e-02 3.6889198534746655e-02 0.0000000000000000e+00  -2.0344572517645990e-02 3.2677763915987534e-02 0.0000000000000000e+00  -2.2249111781476035e-02 2.7267932514518110e-02 0.0000000000000000e+00  -2.3747906919271467e-02 2.0969092033907993e-02 0.0000000000000000e+00  -2.4788207751994060e-02 1.4057801579773033e-02 0.0000000000000000e+00  -2.5316855067008610e-02 6.8075671471786699e-03 0.0000000000000000e+00  -2.5270480087049713e-02 -4.3266488522893456e-04 0.0000000000000000e+00  0.0000000000000000e+00 0.0000000000000000e+00 0.0000000000000000e+00  -1.3398926472700789e-04 -6.8866219607399224e-03 0.0000000000000000e+00  -7.4339395631853702e-04 -2.3979207859102206e-03 0.0000000000000000e+00  -1.9343575918939846e-03 7.5186138404818902e-03 0.0000000000000000e+00  -3.6672968579227359e-03 1.8758895604029123e-02 0.0000000000000000e+00  -5.8480746115851428e-03 2.8814714825731912e-02 0.0000000000000000e+00  -8.3695564734985045e-03 3.6403352144881704e-02 0.0000000000000000e+00  -1.1126048097264623e-02 4.1083279101864316e-02 0.0000000000000000e+00  -1.4015595121960234e-02 4.2922822162421548e-02 0.0000000000000000e+00  -1.6935654141970260e-02 4.2249455976976762e-02 0.0000000000000000e+00  -1.9778091052736198e-02 3.9482168266546942e-02 0.0000000000000000e+00  -2.2426553070380179e-02 3.5035731640499189e-02 0.0000000000000000e+00  -2.4758842389817206e-02 2.9280250747478500e-02 0.0000000000000000e+00  -2.6655085067319124e-02 2.2539316285664728e-02 0.0000000000000000e+00  -2.8002933258021629e-02 1.5108218339392281e-02 0.0000000000000000e+00  -2.8693763083924888e-02 7.2734978254678046e-03 0.0000000000000000e+00  -2.8627491576845843e-02 -7.3145409292956094e-04 0.0000000000000000e+00  0.0000000000000000e+00 0.0000000000000000e+00 0.0000000000000000e+00  -9.8736798601507770e-05 -6.5822051797202732e-03 0.0000000000000000e+00  -6.7469321382337424e-04 -1.5167458821584007e-03 0.0000000000000000e+00  -1.9043931846784536e-03 9.0111398943739963e-03 0.0000000000000000e+00  -3.7696578344959160e-03 2.0792090479338929e-02 0.0000000000000000e+00  -6.1704562456521093e-03 3.1283614834415815e-02 0.0000000000000000e+00  -8.9850179834766158e-03 3.9199414359964581e-02 0.0000000000000000e+00  -1.2094223326781976e-02 4.4102976993498397e-02 0.0000000000000000e+00  -1.5385305737374655e-02 4.6064905212813950e-02 0.0000000000000000e+00  -1.8745695678139468e-02 4.5407966519500270e-02 0.0000000000000000e+00  -2.2054319584736613e-02 4.2540247918956331e-02 0.0000000000000000e+00  -2.5175243428422759e-02 3.7863640068647716e-02 0.0000000000000000e+00  -2.7956808253591911e-02 3.1739307822587833e-02 0.0000000000000000e+00  -3.0236900365686509e-02 2.4489937254948121e-02 0.0000000000000000e+00  -3.1853128899284419e-02 1.6418478319808343e-02 0.0000000000000000e+00  -3.2657981291530580e-02 7.8178660973988942e-03 0.0000000000000000e+00  -3.2546795086349729e-02 -1.0299648486893839e-03 0.0000000000000000e+00  0.0000000000000000e+00 0.0000000000000000e+00 0.0000000000000000e+00  -9.6985787217585017e-05 -6.2974894328018637e-03 0.0000000000000000e+00  -7.0797039524416133e-04 -5.9997896900921264e-04 0.0000000000000000e+00  -2.0421053683067113e-03 1.0624288894796292e-02 0.0000000000000000e+00  -4.0850085732658135e-03 2.3030553303243863e-02 0.0000000000000000e+00  -6.7273975071319584e-03 3.4029706785746849e-02 0.0000000000000000e+00  -9.8364134128914264e-03 4.2331435086121201e-02 0.0000000000000000e+00  -1.3285020123677889e-02 4.7507759976409436e-02 0.0000000000000000e+00  -1.6955436945150650e-02 4.9633909832280512e-02 0.0000000000000000e+00  -2.0729752935427719e-02 4.9026838921786060e-02 0.0000000000000000e+00  -2.4476848479801569e-02 4.6078570140387777e-02 0.0000000000000000e+00  -2.8042022202217517e-02 4.1169282081665579e-02 0.0000000000000000e+00  -3.1243323034231840e-02 3.4639816312185608e-02 0.0000000000000000e+00  -3.3877568313632256e-02 2.6801954782131480e-02 0.0000000000000000e+00  -3.5736890467502606e-02 1.7964364556682957e-02 0.0000000000000000e+00  -3.6639586714163105e-02 8.4550820010807406e-03 0.0000000000000000e+00  -3.6468678750158474e-02 -1.3780035582312189e-03 0.0000000000000000e+00  0.0000000000000000e+00 0.0000000000000000e+00 0.0000000000000000e+00  -1.2098359627622748e-04 -5.9811550769961353e-03 0.0000000000000000e+00  -8.1667111099574844e-04 4.1339180080477773e-04 0.0000000000000000e+00  -2.2925826338733098e-03 1.2400138760317946e-02 0.0000000000000000e+00  -4.5154454511526507e-03 2.5485014199008831e-02 0.0000000000000000e+00  -7.3591104779961794e-03 3.7031683552662009e-02 0.0000000000000000e+00  -1.0682618789785299e-02 4.5751474774508250e-02 0.0000000000000000e+00  -1.4359777569851006e-02 5.1230831733849534e-02 0.0000000000000000e+00  -1.8278766350515185e-02 5.3552286038493949e-02 0.0000000000000000e+00  -2.2327427108319718e-02 5.3025155987711459e-02 0.0000000000000000e+00  -2.6374966348479259e-02 5.0019068218690538e-02 0.0000000000000000e+00  -3.0257378367916015e-02 4.4882378493271487e-02 0.0000000000000000e+00  -3.3770800970242945e-02 3.7924173548054468e-02 0.0000000000000000e+00  -3.6678389431781602e-02 2.9436859760958851e-02 0.0000000000000000e+00  -3.8731498958409535e-02 1.9734883229578677e-02 0.0000000000000000e+00  -3.9710507763032400e-02 9.1890796011592554e-03 0.0000000000000000e+00  -3.9464062369766253e-02 -1.7685996167631623e-03 0.0000000000000000e+00  0.0000000000000000e+00 0.0000000000000000e+00 0.0000000000000000e+00  -1.6861535675295338e-04 -5.5922378766006765e-03 0.0000000000000000e+00  -9.8741562143484559e-04 1.5633859322824724e-03 0.0000000000000000e+00  -2.6149040013816504e-03 1.4343599665279328e-02 0.0000000000000000e+00  -4.9693357057992082e-03 2.8107618920723831e-02 0.0000000000000000e+00  -7.8970692277095782e-03 4.0186559462404951e-02 0.0000000000000000e+00  -1.1253481748666531e-02 4.9309005281920885e-02 0.0000000000000000e+00  -1.4926545066432451e-02 5.5086633523195504e-02 0.0000000000000000e+00  -1.8827544592685166e-02 5.7613636485842550e-02 0.0000000000000000e+00  -2.2868307297708924e-02 5.7190023192991685e-02 0.0000000000000000e+00  -2.6936917931038425e-02 5.4156283701503806e-02 0.0000000000000000e+00  -3.0878156880974904e-02 4.8819026355923882e-02 0.0000000000000000e+00  -3.4483494435123815e-02 4.1445177430895590e-02 0.0000000000000000e+00  -3.7499009673147683e-02 3.2298209910559220e-02 0.0000000000000000e+00  -3.9646336146759067e-02 2.1691922656234382e-02 0.0000000000000000e+00  -4.0669191247370035e-02 1.0038109556274457e-02 0.0000000000000000e+00  -4.0361684664318616e-02 -2.1458461896698049e-03 0.0000000000000000e+00  0.0000000000000000e+00 0.0000000000000000e+00 0.0000000000000000e+00  -2.4788695794878828e-04 -5.0875949709344361e-03 0.0000000000000000e+00  -1.2348482598330934e-03 2.8794767430735508e-03 0.0000000000000000e+00  -3.0086178822549014e-03 1.6424047373275800e-02 0.0000000000000000e+00  -5.3976245813883899e-03 3.0784150493713129e-02 0.0000000000000000e+00  -8.2083738764788354e-03 4.3294569131615404e-02 0.0000000000000000e+00  -1.1301497474055585e-02 5.2730770026889612e-02 0.0000000000000000e+00  -1.4599440321503804e-02 5.8747120580475952e-02 0.0000000000000000e+00  -1.8061132433361046e-02 6.1455917887220025e-02 0.0000000000000000e+00  -2.1648111213290723e-02 6.1146506396659292e-02 0.0000000000000000e+00  -2.5293360238254063e-02 5.8124216377006800e-02 0.0000000000000000e+00  -2.8876434068802442e-02 5.2645234337268122e-02 0.0000000000000000e+00  -3.2212626699641145e-02 4.4922315766747982e-02 0.0000000000000000e+00  -3.5057553102603584e-02 3.5179181170545838e-02 0.0000000000000000e+00  -3.7126620327200092e-02 2.3728020181887386e-02 0.0000000000000000e+00  -3.8151301623163845e-02 1.1014139911303161e-02 0.0000000000000000e+00  -3.7870292178610820e-02 -2.3800111928834735e-03 0.0000000000000000e+00  0.0000000000000000e+00 0.0000000000000000e+00 0.0000000000000000e+00  -3.8313901084371623e-04 -4.3999790645237917e-03 0.0000000000000000e+00  -1.6183759730721478e-03 4.4027589078320054e-03 0.0000000000000000e+00  -3.5398026970107671e-03 1.8587156707682271e-02 0.0000000000000000e+00  -5.8284790714664752e-03 3.3335147596716984e-02 0.0000000000000000e+00  -8.2408308124641057e-03 4.6053549794184426e-02 0.0000000000000000e+00  -1.0661223322295207e-02 5.5612186945868634e-02 0.0000000000000000e+00  -1.3076857652991236e-02 6.1732014715070518e-02 0.0000000000000000e+00  -1.5526759237687031e-02 6.4550546964974365e-02 0.0000000000000000e+00  -1.8053831898901217e-02 6.4344715066023267e-02 0.0000000000000000e+00  -2.0667066162361514e-02 6.1378881100603404e-02 0.0000000000000000e+00  -2.3315275260516185e-02 5.5848864200220824e-02 0.0000000000000000e+00  -2.5873274192158912e-02 4.7903926508733735e-02 0.0000000000000000e+00  -2.8133397087074283e-02 3.7734888602682239e-02 0.0000000000000000e+00  -2.9856335886023332e-02 2.5659746299088425e-02 0.0000000000000000e+00  -3.0824256771872914e-02 1.2132013927604282e-02 0.0000000000000000e+00  -3.0746160773346173e-02 -2.2636851722586939e-03 0.0000000000000000e+00  0.0000000000000000e+00 0.0000000000000000e+00 0.0000000000000000e+00  -6.2130945943687484e-04 -3.4064143035644119e-03 0.0000000000000000e+00  -2.2542927464509937e-03 6.2153119994718536e-03 0.0000000000000000e+00  -4.3551499173512948e-03 2.0772105454066322e-02 0.0000000000000000e+00  -6.3866248943643148e-03 3.5525971484996206e-02 0.0000000000000000e+00  -8.0579077435488870e-03 4.8069766059805639e-02 0.0000000000000000e+00  -9.3125711642734008e-03 5.7433726433273290e-02 0.0000000000000000e+00  -1.0244420619833845e-02 6.3431568897547905e-02 0.0000000000000000e+00  -1.1010079237831417e-02 6.6229670448436126e-02 0.0000000000000000e+00  -1.1766288659530780e-02 6.6087790438855099e-02 0.0000000000000000e+00  -1.2630709155013834e-02 6.3222474619130054e-02 0.0000000000000000e+00  -1.3658724468132776e-02 5.7762463886727462e-02 0.0000000000000000e+00  -1.4814624962426455e-02 4.9789120427857374e-02 0.0000000000000000e+00  -1.5968535665418844e-02 3.9440335799949329e-02 0.0000000000000000e+00  -1.6983729680520872e-02 2.7030055974370495e-02 0.0000000000000000e+00  -1.7713067339383617e-02 1.3154630914756795e-02 0.0000000000000000e+00  -1.8135797750201049e-02 -1.5130849584432254e-03 0.0000000000000000e+00  0.0000000000000000e+00 0.0000000000000000e+00 0.0000000000000000e+00  -1.0310502871333355e-03 -1.8924773598886779e-03 0.0000000000000000e+00  -3.3003060188006080e-03 8.4629558740347902e-03 0.0000000000000000e+00  -5.6471231766134075e-03 2.2924207858637420e-02 0.0000000000000000e+00  -7.2572778072161276e-03 3.7087938164752532e-02 0.0000000000000000e+00  -7.8305589792549597e-03 4.8900512573672020e-02 0.0000000000000000e+00  -7.4283368468024431e-03 5.7627987494925162e-02 0.0000000000000000e+00  -6.2990625765295101e-03 6.3194391002046338e-02 0.0000000000000000e+00  -4.7489821912893382e-03 6.5787917820460118e-02 0.0000000000000000e+00  -3.0709163439869977e-03 6.5640370766872153e-02 0.0000000000000000e+00  -1.5135578491575670e-03 6.2914933037641868e-02 0.0000000000000000e+00  -2.6495351480587345e-04 5.7669976375416307e-02 0.0000000000000000e+00  5.7919305103349198e-04 4.9891279303658546e-02 0.0000000000000000e+00  1.0122446813576205e-03 3.9622947521018366e-02 0.0000000000000000e+00  1.1878543301188252e-03 2.7320056324396255e-02 0.0000000000000000e+00  1.1417090720125265e-03 1.3996332470387677e-02 0.0000000000000000e+00  2.1366114093067178e-04 -5.8079852162042425e-05 0.0000000000000000e+00  0.0000000000000000e+00 0.0000000000000000e+00 0.0000000000000000e+00  -1.6738114721796707e-03 4.4990380114169983e-04 0.0000000000000000e+00  -4.8488551748503989e-03 1.1325886588238096e-02 0.0000000000000000e+00  -7.4826607772107614e-03 2.4978657826231775e-02 0.0000000000000000e+00  -8.5092344946806706e-03 3.7756287057470514e-02 0.0000000000000000e+00  -7.7190673987548464e-03 4.8158099377490368e-02 0.0000000000000000e+00  -5.3636535550411002e-03 5.5741441301461948e-02 0.0000000000000000e+00  -1.8770025358648384e-03 6.0531564614048149e-02 0.0000000000000000e+00  2.2824194325587097e-03 6.2713268149134790e-02 0.0000000000000000e+00  6.6956965255677570e-03 6.2472756983929699e-02 0.0000000000000000e+00  1.0993970975127309e-02 5.9918300034137527e-02 0.0000000000000000e+00  1.4850416249615910e-02 5.5045132165802306e-02 0.0000000000000000e+00  1.7981253026415900e-02 4.7743398216487688e-02 0.0000000000000000e+00  2.0218830008799139e-02 3.7926051155151186e-02 0.0000000000000000e+00  2.1829376525666504e-02 2.5848648055881152e-02 0.0000000000000000e+00  2.2940195987867434e-02 1.2811732942140842e-02 0.0000000000000000e+00  2.1805996982267650e-02 9.7664121820295493e-04 0.0000000000000000e+00  0.0000000000000000e+00 0.0000000000000000e+00 0.0000000000000000e+00  -2.4713094035235987e-03 3.9201773312377477e-03 0.0000000000000000e+00  -6.5734626970856561e-03 1.4866052558759510e-02 0.0000000000000000e+00  -9.3176482201178627e-03 2.6805072509471107e-02 0.0000000000000000e+00  -9.6274467026851752e-03 3.7369171382738035e-02 0.0000000000000000e+00  -7.5384801948651338e-03 4.5747460510721531e-02 0.0000000000000000e+00  -3.5202234442473679e-03 5.1772699802075127e-02 0.0000000000000000e+00  1.8496936157656213e-03 5.5519872835928373e-02 0.0000000000000000e+00  8.0285056210398498e-03 5.7127653042105757e-02 0.0000000000000000e+00  1.4544305355482106e-02 5.6716061654052179e-02 0.0000000000000000e+00  2.0978346425170491e-02 5.4344060498535497e-02 0.0000000000000000e+00  2.6918560440013870e-02 4.9980465858442284e-02 0.0000000000000000e+00  3.1922044412992963e-02 4.3482147667663382e-02 0.0000000000000000e+00  3.5566231051839675e-02 3.4579375340949965e-02 0.0000000000000000e+00  3.7551098473149455e-02 2.2959820998391965e-02 0.0000000000000000e+00  3.8058286671334686e-02 9.3488759142558147e-03 0.0000000000000000e+00  4.0597395415240149e-02 -2.7593026405172234e-03 0.0000000000000000e+00  0.0000000000000000e+00 0.0000000000000000e+00 0.0000000000000000e+00  -2.7711214689401190e-03 8.2617874481077935e-03 0.0000000000000000e+00  -6.7735490370354747e-03 1.8522353411981562e-02 0.0000000000000000e+00  -8.8801643232251960e-03 2.8078510042905541e-02 0.0000000000000000e+00  -8.5443749026764999e-03 3.6084563621767388e-02 0.0000000000000000e+00  -6.0780705958437230e-03 4.2319613254418430e-02 0.0000000000000000e+00  -2.0021030237785979e-03 4.6769578196784213e-02 0.0000000000000000e+00  3.1679275297470970e-03 4.9481183065033137e-02 0.0000000000000000e+00  8.9929559554333752e-03 5.0510687082604581e-02 0.0000000000000000e+00  1.5110418403165531e-02 4.9902706822659779e-02 0.0000000000000000e+00  2.1202229194929152e-02 4.7679026913526844e-02 0.0000000000000000e+00  2.6939224804124296e-02 4.3828441104052304e-02 0.0000000000000000e+00  3.1911878597987484e-02 3.8285980207690314e-02 0.0000000000000000e+00  3.5462164238377086e-02 3.0868270275890338e-02 0.0000000000000000e+00  3.6601695311875918e-02 2.1284003585394499e-02 0.0000000000000000e+00  3.4542445443166266e-02 8.8590087858940007e-03 0.0000000000000000e+00  2.2313719887643947e-02 -4.8953889962663035e-03 0.0000000000000000e+00  0.0000000000000000e+00 0.0000000000000000e+00 0.0000000000000000e+00  0.0000000000000000e+00 1.0979373901506858e-02 0.0000000000000000e+00  0.0000000000000000e+00 2.0494831282812799e-02 0.0000000000000000e+00  0.0000000000000000e+00 2.8546372143917829e-02 0.0000000000000000e+00  0.0000000000000000e+00 3.5133996484821940e-02 0.0000000000000000e+00  0.0000000000000000e+00 4.0257704305525145e-02 0.0000000000000000e+00  0.0000000000000000e+00 4.3917495606027430e-02 0.0000000000000000e+00  0.0000000000000000e+00 4.6113370386328796e-02 0.0000000000000000e+00  0.0000000000000000e+00 4.684532864