<?xml version="1.0"?>
<VTKFile type="UnstructuredGrid"  version="0.1"  >
<UnstructuredGrid>
<Piece  NumberOfPoints="289" NumberOfCells="512">
<Points>
<DataArray  type="Float64"  NumberOfComponents="3"  format="ascii">0 0 0  0.0625 0 0  0.125 0 0  0.1875 0 0  0.25 0 0  0.3125 0 0  0.375 0 0  0.4375 0 0  0.5 0 0  0.5625 0 0  0.625 0 0  0.6875 0 0  0.75 0 0  0.8125 0 0  0.875 0 0  0.9375 0 0  1 0 0  0 0.0625 0  0.06252202314870327 0.06249396810391288 0  0.1250444064496134 0.06248783222165839 0  0.1875674653324101 0.06248149870117293 0  0.2500914105330345 0.06247489701390116 0  0.3126162745437902 0.06246799450095564 0  0.3751418102462343 0.06246081440994915 0  0.4376673480785416 0.06245345704535162 0  0.5001915918090611 0.06244612202076226 0  0.5627123183088031 0.06243912628850655 0  0.6252259081260564 0.06243290711756588 0  0.6877265232346654 0.06242799094049754 0  0.7502044088647721 0.06242489865686287 0  0.8126416707947638 0.06242395125315015 0  0.8749998232815293 0.06242496433919983 0  0.9371775214489979 0.06242704552566673 0  0.9988503278810327 0.06243083163692374 0  0 0.125 0  0.06254367412498642 0.1249880402577298 0  0.125088120685806 0.1249758615559485 0  0.1876340324073518 0.1249632642916884 0  0.2501819135955798 0.1249500925680039 0  0.3127319469321063 0.1249362629378279 0  0.375283809855449 0.1249218006917884 0  0.437836418062836 0.1249068842654343 0  0.5003875674543923 0.1248918952767014 0  0.5629334340059919 0.1248774658395573 0  0.6254678645817369 0.1248645044742899 0  0.68798132708674 0.1248541652921644 0  0.7504592309028575 0.1248477013663207 0  0.8128789842087967 0.1248461163826999 0  0.875204690722276 0.1248495148802177 0  0.937379946677514 0.1248560470697502 0  0.9993407822583353 0.1248596375350248 0  0 0.1875 0  0.06256454381417899 0.1874823320522031 0  0.1251303626977079 0.1874643096364573 0  0.1876986334802454 0.1874456038911488 0  0.2502702960286051 0.1874259447351139 0  0.3128458821892574 0.18740516159404 0  0.3754252773439474 0.1873832374210252 0  0.4380073868211906 0.1873603789874669 0  0.5005896765336275 0.187337103354236 0  0.5631675562177291 0.1873143337242233 0  0.6257335773337056 0.1872934846080312 0  0.688276432680158 0.1872764917197331 0  0.7507797938550954 0.1872656984038261 0  0.8132211986776093 0.1872634316529852 0  0.8755718808100094 0.1872709424497563 0  0.9378009899762101 0.1872860060386386 0  0.9998956777091114 0.1872975726010135 0  0 0.25 0  0.06258413507548667 0.2499769795571891 0  0.1251701596795699 0.2499534419230968 0  0.187759868030668 0.2499288973162341 0  0.2503548148747028 0.24990292070599 0  0.3129561340832666 0.2498752003817655 0  0.3755642777714259 0.2498456068182029 0  0.4381786433734516 0.2498142891410346 0  0.5007970546138928 0.2497818052505493 0  0.5634150672552788 0.2497492870785705 0  0.6260250906773177 0.2497186309045793 0  0.6886153691573532 0.24969267767381 0  0.7511689884459667 0.2496752988326979 0  0.8136633444074389 0.2496712119215691 0  0.876071110754057 0.249685196013336 0  0.9383649862434997 0.2497201711356164 0  1.000530255652645 0.2497735727288221 0  0 0.3125 0  0.06260183849615071 0.3124721459193954 0  0.1252062921881434 0.3124435826217666 0  0.1878159084010007 0.3124136239158112 0  0.2504330458612081 0.3123816412560033 0  0.3130597149114587 0.3123471130227866 0  0.3756973313548492 0.3123097010563319 0  0.4383463455058302 0.3122693675248151 0  0.5010057031685964 0.312226547810566 0  0.5636720958481302 0.3121823963587545 0  0.6263389721268867 0.3121391190671961 0  0.6889953264872144 0.3121003909553665 0  0.7516243834892413 0.3120718184523982 0  0.814202501515606 0.3120613196346275 0  0.876699007670025 0.3120791344363424 0  0.9390783291030903 0.3121369272804732 0  1.001306612998759 0.312245164327988 0  0 0.375 0  0.06261693043653727 0.3749680233648257 0  0.1252372866516691 0.3749351204817591 0  0.1878644792844985 0.3749003761285164 0  0.2505018378660989 0.3748629090157614 0  0.3131525081107709 0.37482191126647 0  0.375819263797351 0.3747767197145901 0  0.438504189347051 0.3747269378810251 0  0.5012081769760542 0.3746726354823574 0  0.5639301700788555 0.3746146628487561 0  0.6266660772682922 0.3745551293739991 0  0.6894072887489301 0.3744981032078752 0  0.7521387650333481 0.3744505805673815 0  0.8148367649826176 0.37442371687287 0  0.8774664784573151 0.3744341485780022 0  0.9399801795311999 0.374504867809081 0  1.002317020605457 0.3746644317545377 0  0 0.4375 0  0.06262859776814023 0.4374648288320822 0  0.125261463423931 0.4374285015347461 0  0.1879029256432129 0.4373898528498167 0  0.2505573936048306 0.4373477093617547 0  0.3132293482561126 0.4373009059146834 0  0.3759232615278154 0.4372483330499282 0  0.438643398545863 0.4371890377474216 0  0.5013934375105571 0.4371224132674215 0  0.5641758144147162 0.4370485351975751 0  0.6269906653885406 0.436968732816748 0  0.6898342004783071 0.4368865291530709 0  0.7526963047331295 0.4368091341154267 0  0.8155571359145801 0.4367497050043838 0  0.8783824882934762 0.4367305147068002 0  0.9411177350379029 0.4367868023612292 0  1.003680260050112 0.4369701179692524 0  0 0.5 0  0.0626359912745901 0.4999627917874161 0  0.1252770450902243 0.4999242052863392 0  0.1879283781221036 0.4998828257592372 0  0.2505954926735091 0.4998371713789906 0  0.313284295841724 0.4997856726230256 0  0.3760011769847833 0.4997266738496741 0  0.4387530069059983 0.499658477652875 0  0.5015469972824144 0.4995794693564216 0  0.5643903213397787 0.499488388614064 0  0.6272893431539446 0.4993848664386183 0  0.6902482302501181 0.4992704326572118 0  0.7532666290323214 0.4991503373006472 0  0.8163359546613268 0.4990367255338337 0  0.8794336493614942 0.4989539038926218 0  0.9425144009332604 0.4989463876615794 0  1.005496658782247 0.4990894750403568 0  0 0.5625 0  0.06263830631665553 0.5624621336819491 0  0.1252823232758383 0.5624227026290248 0  0.1879380163207988 0.5623800741475472 0  0.2506118642581381 0.562332478752858 0  0.3133111301533557 0.5622779413617278 0  0.3760441399062719 0.5622142167237071 0  0.4388205536500467 0.5621387407694967 0  0.501651593514245 0.5620486245342556 0  0.5645501563597008 0.5619407470138498 0  0.6275306883601756 0.5618120618825621 0  0.6906086294261843 0.5616603480232185 0  0.7537991524710025 0.5614858570133056 0  0.8171148151621688 0.561294728057109 0  0.8805615162364162 0.5611057463113297 0  0.944131464986646 0.5609629135880092 0  1.00779000163453 0.5609564202372184 0  0 0.625 0  0.06263488485069778 0.6249630400641737 0  0.1252758730448222 0.6249243970274512 0  0.1879294163470378 0.6248822891071296 0  0.250602698423427 0.6248347281171583 0  0.3133040622242509 0.6247793983513105 0  0.3760435103945979 0.6247135144870329 0  0.4388332997067761 0.6246336540044459 0  0.5016886424885101 0.6245355660378443 0  0.5646285127021514 0.6244139752991212 0  0.6276765336626761 0.624262440592591 0  0.6908619152440842 0.6240734252871553 0  0.7542204615642666 0.6238389712447628 0  0.8177958775594923 0.6235529276907724 0  0.8816419861115108 0.6232169829308767 0  0.9458264574346018 0.6228553723170823 0  1.010434167496456 0.6225463355787646 0  0 0.6875 0  0.06262532750087788 0.6874656283799351 0  0.1252567924234837 0.6874295550234854 0  0.1879009497898364 0.6873899559024521 0  0.2505652554975213 0.6873447453969299 0  0.3132586271805303 0.6872914096117384 0  0.3759921495982962 0.6872267914837656 0  0.4387799915338889 0.687146802919211 0  0.5016406167997459 0.6870460314529234 0  0.5645983926753088 0.6869172000596685 0  0.6276857354058187 0.6867504330012215 0  0.6909460287947209 0.686532293612842 0  0.7544378581751916 0.686244648232502 0  0.8182420315553546 0.6858637793339813 0  0.88247525730983 0.685361550947273 0  0.9473187176843447 0.6847151464609786 0  1.01307112375775 0.6839438369969623 0  0 0.75 0  0.0626095990772812 0.7499699165239712 0  0.1252249325521439 0.7499382368486395 0  0.1878521794565344 0.7499032323340992 0  0.2504984963467779 0.7498628867975475 0  0.3131726555734481 0.7498147034097613 0  0.3758858890993386 0.7497554419098318 0  0.4386530513884572 0.7496807432497959 0  0.5014942607416061 0.7495845761010635 0  0.5644372465406926 0.7494584017478418 0  0.6275207363227145 0.749289889231127 0  0.6907994182490723 0.7490608984053587 0  0.7543515346998254 0.7487442425609567 0  0.8182918516383082 0.7482984020335883 0  0.8827985279705857 0.7476591393124316 0  0.9481801016140485 0.7467297133492531 0  1.015038691277937 0.7453994206783018 0  0 0.8125 0  0.06258810732020481 0.812475798584258 0  0.1251810749505843 0.8124502413829024 0  0.1877841787930419 0.8124218481159067 0  0.2504036212947129 0.8123888654308467 0  0.3130471597019507 0.8123490768838618 0  0.3757249692685009 0.8122995353031768 0  0.4384508868511456 0.8122361656522925 0  0.5012442553042624 0.8121531547184525 0  0.5641327069611533 0.81204198796408 0  0.6271564050786063 0.8118898923090461 0  0.6903745405366665 0.8116772477138036 0  0.7538753803611383 0.8113731131310813 0  0.8177925705699352 0.8109270039995885 0  0.8823367701844839 0.8102523338569307 0  0.9478864917092372 0.809189287102283 0  1.015380916728114 0.8074173084037423 0  0 0.875 0  0.06256173463507801 0.8749830342554284 0  0.1251270107214236 0.8749650801945291 0  0.1876996947232583 0.874945052347592 0  0.2502843850825693 0.8749216506703872 0  0.3128869235321202 0.8748932076330215 0  0.3755151192604715 0.8748574679890164 0  0.438179829833524 0.8748112540927363 0  0.5008966309782058 0.8747499388519191 0  0.5636884562012372 0.8746665940042325 0  0.6265898290220211 0.8745505846930338 0  0.689653671782853 0.8743852046296785 0  0.7529621041499134 0.8741435945922735 0  0.816642773371142 0.8737813294731859 0  0.8808910046936048 0.8732212400014884 0  0.9459975255759621 0.8723142283200196 0  1.012470071492631 0.8706983237117887 0  0 0.9375 0  0.06253180766584897 0.9374912566688006 0  0.1250654860041661 0.937481991827764 0  0.1876030854423766 0.9374716306157148 0  0.2501470639186767 0.937459479853336 0  0.3127005777372341 0.9374446424972999 0  0.3752679027579751 0.9374258927468171 0  0.4378550800859771 0.9374014834330424 0  0
[...]
<PointData  Vectors="f_95-0"> 
<DataArray  type="Float64"  Name="f_95-0"  NumberOfComponents="3" format="ascii">0.0000000000000000e+00 0.0000000000000000e+00 0.0000000000000000e+00  6.5064369151032124e-04 -2.9596819519868933e-02 0.0000000000000000e+00  1.8357652374470419e-03 -5.5799045263574903e-02 0.0000000000000000e+00  3.2846407696423105e-03 -7.5431790131124360e-02 0.0000000000000000e+00  4.9803030074513522e-03 -8.7986678817345274e-02 0.0000000000000000e+00  6.8587291882125177e-03 -9.4119431666676856e-02 0.0000000000000000e+00  8.8592930512307391e-03 -9.4983794339812064e-02 0.0000000000000000e+00  1.0919929932087236e-02 -9.1823974988222951e-02 0.0000000000000000e+00  1.2976663835943437e-02 -8.5758269998238587e-02 0.0000000000000000e+00  1.4961172799429972e-02 -7.7689040510608431e-02 0.0000000000000000e+00  1.6797222352638377e-02 -6.8291638091018875e-02 0.0000000000000000e+00  1.8395843041382236e-02 -5.8045821455033446e-02 0.0000000000000000e+00  1.9651210126993029e-02 -4.7285628895674427e-02 0.0000000000000000e+00  2.0410643946697449e-02 -3.6231873374580857e-02 0.0000000000000000e+00  2.0495571874815613e-02 -2.5089872591663853e-02 0.0000000000000000e+00  2.0202396597087266e-02 -1.3749897857585739e-02 0.0000000000000000e+00  9.5035414158908121e-03 -8.3655786413819218e-03 0.0000000000000000e+00  0.0000000000000000e+00 0.0000000000000000e+00 0.0000000000000000e+00  5.6435650194931720e-04 -3.0636913071676087e-02 0.0000000000000000e+00  1.8071770805532469e-03 -5.7178795691656140e-02 0.0000000000000000e+00  3.4071668182660544e-03 -7.7088862927089621e-02 0.0000000000000000e+00  5.2937370808177403e-03 -8.9857802883815993e-02 0.0000000000000000e+00  7.3862828562162074e-03 -9.6141941283295076e-02 0.0000000000000000e+00  9.6174401212399535e-03 -9.7094340368601872e-02 0.0000000000000000e+00  1.1918607165160078e-02 -9.3958762376336130e-02 0.0000000000000000e+00  1.4220503184651505e-02 -8.7851057285006334e-02 0.0000000000000000e+00  1.6449733344477312e-02 -7.9668113284702330e-02 0.0000000000000000e+00  1.8525497411675307e-02 -7.0076336867233191e-02 0.0000000000000000e+00  2.0356585890957381e-02 -5.9542340170282933e-02 0.0000000000000000e+00  2.1836195941878325e-02 -4.8378259013585827e-02 0.0000000000000000e+00  2.2837689205168901e-02 -3.6785255650096396e-02 0.0000000000000000e+00  2.3254789366001345e-02 -2.4880695425960411e-02 0.0000000000000000e+00  2.2514872546676373e-02 -1.2579406241777356e-02 0.0000000000000000e+00  2.2759085752572922e-02 -1.6051405310240818e-03 0.0000000000000000e+00  0.0000000000000000e+00 0.0000000000000000e+00 0.0000000000000000e+00  5.3625879985497421e-04 -3.1641815531606825e-02 0.0000000000000000e+00  1.9357618553490598e-03 -5.8761681723193813e-02 0.0000000000000000e+00  3.9082459697656405e-03 -7.9062466539469162e-02 0.0000000000000000e+00  6.2919197406281369e-03 -9.2114881912843227e-02 0.0000000000000000e+00  8.9632212884285314e-03 -9.8594590380918140e-02 0.0000000000000000e+00  1.1827289421097502e-02 -9.9662620120713627e-02 0.0000000000000000e+00  1.4796019328339328e-02 -9.6566377687448315e-02 0.0000000000000000e+00  1.7783908572292995e-02 -9.0420726723904096e-02 0.0000000000000000e+00  2.0701909225822768e-02 -8.2117774535025348e-02 0.0000000000000000e+00  2.3454628915905405e-02 -7.2316583311060972e-02 0.0000000000000000e+00  2.5939771922729636e-02 -6.1475190804351883e-02 0.0000000000000000e+00  2.8051441837230365e-02 -4.9898493634698442e-02 0.0000000000000000e+00  2.9693521967339084e-02 -3.7786687443092624e-02 0.0000000000000000e+00  3.0782513572905901e-02 -2.5273496459675696e-02 0.0000000000000000e+00  3.1514728596474070e-02 -1.2579940304468221e-02 0.0000000000000000e+00  3.1703777616610376e-02 -5.1368370497137579e-04 0.0000000000000000e+00  0.0000000000000000e+00 0.0000000000000000e+00 0.0000000000000000e+00  6.1968769106302858e-04 -3.2747590024991405e-02 0.0000000000000000e+00  2.3184383636373858e-03 -6.0695110465260591e-02 0.0000000000000000e+00  4.8329140608394661e-03 -8.1581069182705787e-02 0.0000000000000000e+00  7.9387661584434943e-03 -9.5047448271675231e-02 0.0000000000000000e+00  1.1464913122573766e-02 -1.0181131511792844e-01 0.0000000000000000e+00  1.5277924689042210e-02 -1.0305584790566802e-01 0.0000000000000000e+00  1.9261061704164095e-02 -1.0003728403073871e-01 0.0000000000000000e+00  2.3302467102596730e-02 -9.3870510711750677e-02 0.0000000000000000e+00  2.7286313749611612e-02 -8.5442674165742527e-02 0.0000000000000000e+00  3.1090062574614705e-02 -7.5406661811435988e-02 0.0000000000000000e+00  3.4586682702511543e-02 -6.4217442656134438e-02 0.0000000000000000e+00  3.7653182934663805e-02 -5.2186089329394662e-02 0.0000000000000000e+00  4.0185145288444579e-02 -3.9537881457290751e-02 0.0000000000000000e+00  4.2134802423841357e-02 -2.6481904643605336e-02 0.0000000000000000e+00  4.3474527676136875e-02 -1.3283182917711871e-02 0.0000000000000000e+00  4.4129977531271049e-02 -3.9391203773011873e-04 0.0000000000000000e+00  0.0000000000000000e+00 0.0000000000000000e+00 0.0000000000000000e+00  7.6844491421185223e-04 -3.4096426811877231e-02 0.0000000000000000e+00  2.8948818643648273e-03 -6.3125640319403056e-02 0.0000000000000000e+00  6.0889803947685025e-03 -8.4819050540285892e-02 0.0000000000000000e+00  1.0083753768831213e-02 -9.8871651273394021e-02 0.0000000000000000e+00  1.4667984419546863e-02 -1.0605050009208090e-01 0.0000000000000000e+00  1.9672114365533840e-02 -1.0756914708077221e-01 0.0000000000000000e+00  2.4947314422573155e-02 -1.0469548799546644e-01 0.0000000000000000e+00  3.0347799557390771e-02 -9.8543282128861889e-02 0.0000000000000000e+00  3.5720103623338939e-02 -8.9992169404513420e-02 0.0000000000000000e+00  4.0900350786063647e-02 -7.9687496595592378e-02 0.0000000000000000e+00  4.5718374669022122e-02 -6.8082843193746467e-02 0.0000000000000000e+00  5.0008129759270499e-02 -5.5500331937469796e-02 0.0000000000000000e+00  5.3623622111410474e-02 -4.2195039200226818e-02 0.0000000000000000e+00  5.6446902479838280e-02 -2.8414234263171523e-02 0.0000000000000000e+00  5.8376045786443967e-02 -1.4441119161758562e-02 0.0000000000000000e+00  5.9298339718095068e-02 -5.4358446046285746e-04 0.0000000000000000e+00  0.0000000000000000e+00 0.0000000000000000e+00 0.0000000000000000e+00  9.5154588933385497e-04 -3.5770109957661243e-02 0.0000000000000000e+00  3.5780290024560214e-03 -6.6158483610506968e-02 0.0000000000000000e+00  7.5367046969537933e-03 -8.8897900341379371e-02 0.0000000000000000e+00  1.2525404054643705e-02 -1.0373816375364039e-01 0.0000000000000000e+00  1.8304224872689928e-02 -1.1150042958053667e-01 0.0000000000000000e+00  2.4676149974121656e-02 -1.1343021857480040e-01 0.0000000000000000e+00  3.1461198100663369e-02 -1.1080431956806587e-01 0.0000000000000000e+00  3.8474635268020717e-02 -1.0472938781575519e-01 0.0000000000000000e+00  4.5515196513227135e-02 -9.6070919755306711e-02 0.0000000000000000e+00  5.2363155799285327e-02 -8.5461417965611311e-02 0.0000000000000000e+00  5.8786477388326625e-02 -7.3349941883327358e-02 0.0000000000000000e+00  6.4553765775483704e-02 -6.0067914037640426e-02 0.0000000000000000e+00  6.9449957220011876e-02 -4.5894867437887545e-02 0.0000000000000000e+00  7.3291830076887263e-02 -3.1110097551571389e-02 0.0000000000000000e+00  7.5935491766751670e-02 -1.6005368771206448e-02 0.0000000000000000e+00  7.7279717876043000e-02 -9.0058334931789031e-04 0.0000000000000000e+00  0.0000000000000000e+00 0.0000000000000000e+00 0.0000000000000000e+00  1.1419593864134599e-03 -3.7805111525918388e-02 0.0000000000000000e+00  4.2818513245369135e-03 -6.9840803393992790e-02 0.0000000000000000e+00  9.0224151126012866e-03 -9.3875631391814193e-02 0.0000000000000000e+00  1.5038647824602930e-02 -1.0972983166759361e-01 0.0000000000000000e+00  2.2078095651266318e-02 -1.1828183758914265e-01 0.0000000000000000e+00  2.9927985225231386e-02 -1.2080411601617290e-01 0.0000000000000000e+00  3.8380941421317510e-02 -1.1857208606641501e-01 0.0000000000000000e+00  4.7209871136430416e-02 -1.1267303495048597e-01 0.0000000000000000e+00  5.6156455346436686e-02 -1.0394680560201180e-01 0.0000000000000000e+00  6.4931647826373742e-02 -9.3003789013716157e-02 0.0000000000000000e+00  7.3225015398575011e-02 -8.0281868715351631e-02 0.0000000000000000e+00  8.0721446081394796e-02 -6.6117974160922507e-02 0.0000000000000000e+00  8.7122178982926748e-02 -5.0818224203995829e-02 0.0000000000000000e+00  9.2177371376667983e-02 -3.4709484837064812e-02 0.0000000000000000e+00  9.5713093676379923e-02 -1.8154185396225441e-02 0.0000000000000000e+00  9.7678376505869330e-02 -1.5613836233710039e-03 0.0000000000000000e+00  0.0000000000000000e+00 0.0000000000000000e+00 0.0000000000000000e+00  1.3144161840876285e-03 -4.0189524794294815e-02 0.0000000000000000e+00  4.9198172962523672e-03 -7.4150055572478168e-02 0.0000000000000000e+00  1.0381561422816788e-02 -9.9733829687764744e-02 0.0000000000000000e+00  1.7375875936755474e-02 -1.1685237839971467e-01 0.0000000000000000e+00  2.5659834771967101e-02 -1.2644135052047709e-01 0.0000000000000000e+00  3.5019325936396797e-02 -1.2978722430336259e-01 0.0000000000000000e+00  4.5224900898961001e-02 -1.2814537318330510e-01 0.0000000000000000e+00  5.6004606133568273e-02 -1.2256471748596777e-01 0.0000000000000000e+00  6.7035107004456640e-02 -1.1384320990192777e-01 0.0000000000000000e+00  7.7946899650627691e-02 -1.0255654820490874e-01 0.0000000000000000e+00  8.8337886120681636e-02 -8.9122454422987121e-02 0.0000000000000000e+00  9.7794262071968147e-02 -7.3879044134959701e-02 0.0000000000000000e+00  1.0591716793899524e-01 -5.7163888647844725e-02 0.0000000000000000e+00  1.1237527562674118e-01 -3.9379103074913963e-02 0.0000000000000000e+00  1.1695320289569817e-01 -2.1018750591131570e-02 0.0000000000000000e+00  1.1968715763293994e-01 -2.6463240020179221e-03 0.0000000000000000e+00  0.0000000000000000e+00 0.0000000000000000e+00 0.0000000000000000e+00  1.4424089469328957e-03 -4.2863434806618889e-02 0.0000000000000000e+00  5.3990908936045459e-03 -7.8988130065517692e-02 0.0000000000000000e+00  1.1433532414158140e-02 -1.0636646836176830e-01 0.0000000000000000e+00  1.9259508953173941e-02 -1.2502065187035344e-01 0.0000000000000000e+00  2.8671392285963614e-02 -1.3593538543402606e-01 0.0000000000000000e+00  3.9470066734608865e-02 -1.4038786241134615e-01 0.0000000000000000e+00  5.1409827217526280e-02 -1.3958560740144449e-01 0.0000000000000000e+00  6.4172135884818529e-02 -1.3451379774009439e-01 0.0000000000000000e+00  7.7362956952763545e-02 -1.2590862354148530e-01 0.0000000000000000e+00  9.0525160888766748e-02 -1.1429691488149026e-01 0.0000000000000000e+00  1.0315722589339740e-01 -1.0006612862179216e-01 0.0000000000000000e+00  1.1473712910035146e-01 -8.3547130526371000e-02 0.0000000000000000e+00  1.2474823134332157e-01 -6.5106016758115615e-02 0.0000000000000000e+00  1.3274442536683773e-01 -4.5241353844863101e-02 0.0000000000000000e+00  1.3842355634770384e-01 -2.4652819945283334e-02 0.0000000000000000e+00  1.4191775089269951e-01 -4.1628779925261929e-03 0.0000000000000000e+00  0.0000000000000000e+00 0.0000000000000000e+00 0.0000000000000000e+00  1.4972914310889148e-03 -4.5715207845695105e-02 0.0000000000000000e+00  5.6200312092447103e-03 -8.4173958903693405e-02 0.0000000000000000e+00  1.1983113731099875e-02 -1.1356835097912117e-01 0.0000000000000000e+00  2.0383660056836513e-02 -1.3404154763370968e-01 0.0000000000000000e+00  3.0683828749197038e-02 -1.4660576448761117e-01 0.0000000000000000e+00  4.2715425937640154e-02 -1.5249320218355217e-01 0.0000000000000000e+00  5.6221810319724466e-02 -1.5282687298706246e-01 0.0000000000000000e+00  7.0837510562212658e-02 -1.4849803729109654e-01 0.0000000000000000e+00  8.6095956940959617e-02 -1.4016000372612564e-01 0.0000000000000000e+00  1.0145159383050266e-01 -1.2827744756045553e-01 0.0000000000000000e+00  1.1630629579752956e-01 -1.1319670880231945e-01 0.0000000000000000e+00  1.3003196795322672e-01 -9.5227061734244764e-02 0.0000000000000000e+00  1.4198247939002051e-01 -7.4746457615470746e-02 0.0000000000000000e+00  1.5155154740895518e-01 -5.2341188457171749e-02 0.0000000000000000e+00  1.5825214221869138e-01 -2.8962662363902734e-02 0.0000000000000000e+00  1.6219650465164523e-01 -5.8292745927226450e-03 0.0000000000000000e+00  0.0000000000000000e+00 0.0000000000000000e+00 0.0000000000000000e+00  1.4511107684471887e-03 -4.8579907711358207e-02 0.0000000000000000e+00  5.4865282856763099e-03 -8.9441561462557662e-02 0.0000000000000000e+00  1.1840058341711396e-02 -1.2102865543108346e-01 0.0000000000000000e+00  2.0440365243061961e-02 -1.4359794687827612e-01 0.0000000000000000e+00  3.1244436256031547e-02 -1.5815019643910855e-01 0.0000000000000000e+00  4.4127018386722242e-02 -1.6582448571968600e-01 0.0000000000000000e+00  5.8824830144858446e-02 -1.6761618432594785e-01 0.0000000000000000e+00  7.4928130224182307e-02 -1.6429088548809789e-01 0.0000000000000000e+00  9.1902333168459277e-02 -1.5639964311634441e-01 0.0000000000000000e+00  1.0912272871802220e-01 -1.4433513925782196e-01 0.0000000000000000e+00  1.2591124336303477e-01 -1.2839682503195968e-01 0.0000000000000000e+00  1.4155195672893658e-01 -1.0886158686792378e-01 0.0000000000000000e+00  1.5529021994867970e-01 -8.6075554698573739e-02 0.0000000000000000e+00  1.6632996965097535e-01 -6.0619753917223546e-02 0.0000000000000000e+00  1.7383343080721614e-01 -3.3653876580678817e-02 0.0000000000000000e+00  1.7753872808286406e-01 -6.9121075355250885e-03 0.0000000000000000e+00  0.0000000000000000e+00 0.0000000000000000e+00 0.0000000000000000e+00  1.2846976704821501e-03 -5.1247640302311860e-02 0.0000000000000000e+00  4.9323984079932123e-03 -9.4452640972646926e-02 0.0000000000000000e+00  1.0865649122486559e-02 -1.2833787102434252e-01 0.0000000000000000e+00  1.9182075599157338e-02 -1.5324081158090963e-01 0.0000000000000000e+00  2.9948372731520085e-02 -1.7009393559526545e-01 0.0000000000000000e+00  4.3086867119230883e-02 -1.7988669503964511e-01 0.0000000000000000e+00  5.8331792251383442e-02 -1.8344287843788162e-01 0.0000000000000000e+00  7.5238290263715937e-02 -1.8137403873048624e-01 0.0000000000000000e+00  9.3219075213301403e-02 -1.7411437534157254e-01 0.0000000000000000e+00  1.1159200437162196e-01 -1.6198108774569978e-01 0.0000000000000000e+00  1.2962509459724336e-01 -1.4523132849827916e-01 0.0000000000000000e+00  1.4655784420626561e-01 -1.2410261517101522e-01 0.0000000000000000e+00  1.6160783628755523e-01 -9.8846394788787928e-02 0.0000000000000000e+00  1.7380132557722258e-01 -6.9897411417051677e-02 0.0000000000000000e+00  1.8183180888430975e-01 -3.8382274241177169e-02 0.0000000000000000e+00  1.8443372448513104e-01 -6.2771691444404231e-03 0.0000000000000000e+00  0.0000000000000000e+00 0.0000000000000000e+00 0.0000000000000000e+00  1.0025225909646271e-03 -5.3491972069956054e-02 0.0000000000000000e+00  3.9663539145448744e-03 -9.8835632754722486e-02 0.0000000000000000e+00  9.0481909659542621e-03 -1.3501837816698334e-01 0.0000000000000000e+00  1.6522309908035205e-02 -1.6239862251797890e-01 0.0000000000000000e+00  2.6559140407955737e-02 -1.8177256322048707e-01 0.0000000000000000e+00  3.9124459519764045e-02 -1.9392474489550710e-01 0.0000000000000000e+00  5.3957277916663784e-02 -1.9947201433114961e-01 0.0000000000000000e+00  7.0599061470802749e-02 -1.9885356405035154e-01 0.0000000000000000e+00  8.8442153028853568e-02 -1.9237932461110882e-01 0.0000000000000000e+00  1.0678263813804276e-01 -1.8029128167362116e-01 0.0000000000000000e+00  1.2486729256790061e-01 -1.6281365703600989e-01 0.0000000000000000e+00  1.4194567174093067e-01 -1.4016769830133927e-01 0.0000000000000000e+00  1.5728530936874968e-01 -1.1254292417778383e-01 0.0000000000000000e+00  1.6991536897381940e-01 -8.0058670198570492e-02 0.0000000000000000e+00  1.7833850632902676e-01 -4.3002829086854127e-02 0.0000000000000000e+00  1.7943021492372255e-01 -2.9316816602707207e-03 0.0000000000000000e+00  0.0000000000000000e+00 0.0000000000000000e+00 0.0000000000000000e+00  6.5352338918295142e-04 -5.5128517914521759e-02 0.0000000000000000e+00  2.7279407466347019e-03 -1.0225971658978589e-01 0.0000000000000000e+00  6.5912568813685131e-03 -1.4058513627251470e-01 0.0000000000000000e+00  1.2653725086906554e-02 -1.7041338497314620e-01 0.0000000000000000e+00  2.1159485736460513e-02 -1.9234093510170910e-01 0.0000000000000000e+00  3.2107120899180108e-02 -2.0690798845538258e-01 0.0000000000000000e+00  4.5255720477619901e-02 -2.1450994068076221e-01 0.0000000000000000e+00  6.0172970299511082e-02 -2.1541339568892426e-01 0.0000000000000000e+00  7.6287056668449996e-02 -2.0980608705926987e-01 0.0000000000000000e+00  9.2930050302531514e-02 -1.9785257249687835e-01 0.0000000000000000e+00  1.0937055220036264e-01 -1.7974372908057210e-01 0.0000000000000000e+00  1.2487544275310095e-01 -1.5571828650275088e-01 0.0000000000000000e+00  1.3874839851161472e-01 -1.2598569813616819e-01 0.0000000000000000e+00  1.5044514706393394e-01 -9.0302775138044897e-02 0.0000000000000000e+00  1.5899301176630964e-01 -4.7421812528417047e-02 0.0000000000000000e+00  1.5871569133814553e-01 3.1182690822459508e-03 0.0000000000000000e+00  0.0000000000000000e+00 0.0000000000000000e+00 0.0000000000000000e+00  3.4571154653163940e-04 -5.6109521261878396e-02 0.0000000000000000e+00  1.5184730885988702e-03 -1.0453364485497474e-01 0.0000000000000000e+00  3.9566130486460528e-03 -1.4463056206017630e-01 0.0000000000000000e+00  8.1197483796225847e-03 -1.7661079941724117e-01 0.0000000000000000e+00  1.4275301893578738e-02 -2.0083005452661823e-01 0.0000000000000000e+00  2.2440557781293051e-02 -2.1757753308282332e-01 0.0000000000000000e+00  3.2421056855980575e-02 -2.2704590758704765e-01 0.0000000000000000e+00  4.3869926721770730e-02 -2.2935470020954107e-01 0.0000000000000000e+00  5.6332452301174320e-02 -2.2458605252279848e-01 0.0000000000000000e+00  6.9267239453078583e-02 -2.1282264846139481e-01 0.0000000000000000e+00  8.2043364225679191e-02 -1.9418911172613609e-01 0.0000000000000000e+00  9.3944597774395858e-02 -1.6890032862712043e-01 0.0000000000000000e+00  1.0417674244702227e-01 -1.3729120110321419e-01 0.0000000000000000e+00  1.1234075852977032e-01 -9.9592969108667953e-02 0.0000000000000000e+00  1.1844273408839849e-01 -5.4206300339751670e-02 0.0000000000000000e+00  1.2040802022880767e-01 8.3754528210694349e-03 0.0000000000000000e+00  0.0000000000000000e+00 0.0000000000000000e+00 0.0000000000000000e+00  2.0840387006469091e-04 -5.6580961470794000e-02 0.0000000000000000e+00  6.8150980641909758e-04 -1.0567188503520959e-01 0.0000000000000000e+00  1.7198929505738432e-03 -1.4692323741046487e-01 0.0000000000000000e+00  3.7112231556672664e-03 -1.8042382958293093e-01 0.0000000000000000e+00  6.8628746578659854e-03 -2.0629305662809364e-01 0.0000000000000000e+00  1.1191952776334514e-02 -2.2461632459454597e-01 0.0000000000000000e+00  1.6585018046745850e-02 -2.3544341808167257e-01 0.0000000000000000e+00  2.2846717805730280e-02 -2.3880032933686809e-01 0.0000000000000000e+00  2.9726684895878569e-02 -2.3470162443035336e-01 0.0000000000000000e+00  3.6922040525135084e-02 -2.2316241027595274e-01 0.0000000000000000e+00  4.4052438586478872e-02 -2.0421275907607897e-01 0.0000000000000000e+00  5.0596662538213030e-02 -1.7792689705867873e-01 0.0000000000000000e+00  5.5740918293242764e-02 -1.4447471262151229e-01 0.0000000000000000e+00  5.8360230391795484e-02 -1.0414922906468482e-01 0.0000000000000000e+00  5.7040224379064794e-02 -5.7331555320559266e-02 0.0000000000000000e+00  5.4085640705071450e-02 6.8869685368529582e-03 0.0000000000000000e+00  0.0000000000000000e+00 0.0000000000000000e+00 0.0000000000000000e+00  0.0000000000000000e+00 -5.6752919597380672e-02 0.0000000000000000e+00  0.0000000000000000e+00 -1.0593878324844389e-01 0.0000000000000000e+00  0.0000000000000000e+00 -1.4755759095318971e-01 0.0000000000000000e+00  0.0000000000000000e+00 -1.8160934271161810e-01 0.0000000000000000e+00  0.0000000000000000e+00 -2.0809403852372912e-01 0.0000000000000000e+00  0.0000000000000000e+00 -2.2701167838952266e-01 0.0000000000000000e+00  0.0000000000000000e+00 -2.3836226230899879e-01 0.0000000000000000e+00  0.0000000000000000e+00 -2.42