<?xml version="1.0"?>
<VTKFile type="UnstructuredGrid"  version="0.1"  >
<UnstructuredGrid>
<Piece  NumberOfPoints="289" NumberOfCells="512">
<Points>
<DataArray  type="Float64"  NumberOfComponents="3"  format="ascii">0 0 0  0.0625 0 0  0.125 0 0  0.1875 0 0  0.25 0 0  0.3125 0 0  0.375 0 0  0.4375 0 0  0.5 0 0  0.5625 0 0  0.625 0 0  0.6875 0 0  0.75 0 0  0.8125 0 0  0.875 0 0  0.9375 0 0  1 0 0  0 0.0625 0  0.06259574031007012 0.0624674927523819 0  0.125195315119437 0.06243433408423311 0  0.1878027774251457 0.06239989996801119 0  0.2504225484795827 0.06236366047125302 0  0.3130596432135957 0.06232524083177401 0  0.3757199549695368 0.0622844976737983 0  0.4384106504521026 0.06224160915546986 0  0.5011407785311099 0.06219716785859145 0  0.5639223225860832 0.06215224455406101 0  0.6267722432464489 0.06210834752440688 0  0.6897169048467979 0.06206710403676698 0  0.7528026848284644 0.06202923875921173 0  0.8161238455526935 0.06199166981198209 0  0.8799021586792981 0.06193895269657824 0  0.9447336930644699 0.06181534879476622 0  1.012441900592678 0.06142001327484032 0  0 0.125 0  0.06268769365991184 0.1249355954277924 0  0.1253829262078388 0.1248698373145473 0  0.1880936671252329 0.1248014219674368 0  0.2508286209563705 0.1247292220509597 0  0.3135976752402637 0.1246524055957048 0  0.3764124594333044 0.1245705905629962 0  0.4392870984963568 0.1244840381257476 0  0.5022393159784437 0.1243938731188408 0  0.5652921939890414 0.1243022902906131 0  0.62847722748807 0.1242126489746823 0  0.6918400162631747 0.1241292630420476 0  0.7554513611644786 0.1240565613644449 0  0.8194288884902327 0.1239972674359113 0  0.8839754538836411 0.1239502242799901 0  0.9494235138872342 0.1239151976518972 0  1.016146612431662 0.1239476811088366 0  0 0.1875 0  0.06277215156055678 0.1874050274285995 0  0.1255552417734571 0.1873079101063402 0  0.1883608266859494 0.1872065651647294 0  0.2512015327604636 0.1870991425533979 0  0.314091701912889 0.1869841926788606 0  0.3770481799445674 0.1868608975004677 0  0.4400913362145912 0.1867293812889765 0  0.5032464510920516 0.1865911051294501 0  0.5665456895556151 0.1864493216985788 0  0.6300310005545865 0.1863095123921474 0  0.6937583935829853 0.1861796327681906 0  0.7578038465387631 0.1860698393818471 0  0.8222693897618198 0.1859911352302406 0  0.8872808001807839 0.185951844122056 0  0.9529460858551346 0.1859483501976399 0  1.019195448487098 0.1859314931018009 0  0 0.25 0  0.06284573208087024 0.249876594674237 0  0.1257053370688578 0.2497501393810296 0  0.1885934517125264 0.2496176411142798 0  0.2515260644311092 0.2494763533117531 0  0.3145213213639624 0.2493239723763555 0  0.3776004945363795 0.2491589310379559 0  0.4407891902555001 0.2489808266368997 0  0.5041188894979604 0.2487910210561395 0  0.5676289062776684 0.2485934359491354 0  0.6313687680703421 0.248395529005088 0  0.6954007045985758 0.2482093524914848 0  0.7598009645141821 0.2480524291985566 0  0.8246561253410856 0.2479478743437811 0  0.890044813775861 0.2479226460870118 0  0.955985765245287 0.2480020280187616 0  1.022330356562962 0.2481994452887283 0  0 0.3125 0  0.06290552904501623 0.3123512121590566 0  0.1258272633419769 0.3121983518394367 0  0.1887822674918632 0.3120373747733474 0  0.2517891688058038 0.3118644353836093 0  0.3148690850407396 0.311676078144682 0  0.3780467326065462 0.3114695578211532 0  0.4413517922414461 0.3112433543068143 0  0.5048206056739182 0.3109979654936532 0  0.5684982305964775 0.3107370770101505 0  0.632440720604677 0.3104692075210922 0  0.6967170691047964 0.3102098830166525 0  0.761409281479968 0.3099842438125722 0  0.8266071486432772 0.3098296304455647 0  0.8923915341320283 0.3097969976632972 0  0.9587988529679542 0.3099489631132125 0  1.025769750792682 0.3103514181748124 0  0 0.375 0  0.06294923479529921 0.3748299048561177 0  0.1259163014458927 0.3746546241289882 0  0.1889199287936735 0.3744689423550128 0  0.2519805352580236 0.3742677177380181 0  0.3151212343448953 0.3740460188004884 0  0.3783690462133726 0.3737994093982494 0  0.4417564134084581 0.3735244745032407 0  0.5053231318661616 0.3732197225320156 0  0.5691187928283281 0.3728870585340769 0  0.6332057325821948 0.3725340890015509 0  0.6976621988177336 0.3721775626203794 0  0.7625848085802627 0.3718481860408739 0  0.8280883099872777 0.3715966922642874 0  0.8942996694803261 0.3715000829490491 0  0.9613449936069854 0.3716652130022717 0  1.029337844014981 0.3722248641396841 0  0 0.4375 0  0.06297523270679335 0.4373137790916123 0  0.1259691533317561 0.4371212321762772 0  0.1890013229208968 0.4369159142450619 0  0.2520930206830965 0.4366912447309538 0  0.3152682718355158 0.436440527999056 0  0.3785551079341304 0.4361571154797163 0  0.441987198056281 0.4358348171259545 0  0.5056060516825331 0.4354687402369071 0  0.5694640778640088 0.4350568453986803 0  0.6336288748011261 0.4346026742339791 0  0.698189168359292 0.4341199134853378 0  0.7632627134880088 0.4336396303974832 0  0.82900611882693 0.4332208606076542 0  0.8956262236672526 0.4329641017244698 0  0.9633941699547046 0.4330243012150954 0  1.032672387566868 0.4336154915132389 0  0 0.5 0  0.06298265657118528 0.4998039584545623 0  0.1259840662048131 0.4996005249810704 0  0.1890237708177395 0.499382073232598 0  0.2521229498484687 0.4991405569563451 0  0.3153053986313892 0.4988673509654702 0  0.3785987462871692 0.4985531886640273 0  0.4420360907443451 0.4981882949725947 0  0.5056583580971974 0.4977629016718215 0  0.5695179242459778 0.4972684915200066 0  0.6336844246457214 0.4967003968866671 0  0.698254270491546 0.4960628401504767 0  0.7633661481544407 0.4953781660490167 0  0.8292254325362217 0.4947026286559327 0  0.8961405154870542 0.4941505062214215 0  0.9645742779801713 0.493923581588275 0  1.035222227987822 0.4943305488921517 0  0 0.5625 0  0.06297141335612365 0.5623014829269875 0  0.1259608810784382 0.5620947172514703 0  0.1889871103389678 0.5618710911884973 0  0.2520702567163033 0.5616212440712973 0  0.3152327698872051 0.5613346789198415 0  0.3785004409782414 0.5609993833785903 0  0.441903835547152 0.5606015142671404 0  0.5054804795730894 0.5601252831165854 0  0.569278543688898 0.559553351707215 0  0.6333635188180454 0.5588684026537739 0  0.6978307635795448 0.5580572774670568 0  0.7628290979461765 0.5571204961828746 0  0.8286036220605284 0.5560924117809267 0  0.8955679062668204 0.5550798791066693 0  0.9644135067341509 0.5543240320832525 0  1.036265074377111 0.5542662927627825 0  0 0.625 0  0.06294216573455491 0.6248071772720329 0  0.1259009956724775 0.6246056109102044 0  0.1888936375759025 0.6243860730017826 0  0.2519384117064473 0.6241382657279599 0  0.315055447675175 0.6238501910845109 0  0.3782674248487608 0.6235074067971051 0  0.4416005428663196 0.6230921440471323 0  0.5050860289391068 0.6225823028641598 0  0.5687629252312693 0.6219504549716849 0  0.6326839196981978 0.6211632870142088 0  0.6969282542031544 0.6201827081038154 0  0.7616304266509225 0.6189718951474013 0  0.8270417424471016 0.6175146997246088 0  0.8936518084420956 0.6158680885082863 0  0.9623948925504204 0.6142791961413567 0  1.034944547936788 0.6133557660640013 0  0 0.6875 0  0.06289627320961884 0.687321503817829 0  0.1258072366099896 0.6871342759391318 0  0.1887478891951873 0.6869290130868476 0  0.2517340852407117 0.6866950969042064 0  0.3147829211388414 0.6864197581586637 0  0.3779130792874991 0.6860869970791844 0  0.4411451259323041 0.685676135268061 0  0.504501841235828 0.6851598403496778 0  0.5680089543094157 0.6845014412692918 0  0.6316975722480227 0.6836514057477547 0  0.6956122158039493 0.6825432219303701 0  0.7598354024713841 0.6810904990374682 0  0.8245570165902564 0.6791932099653825 0  0.8902518635283185 0.6767840123063045 0  0.9580515545108377 0.6740211825828092 0  1.030295775295861 0.6717733048150127 0  0 0.75 0  0.06283569636928209 0.7498444234882682 0  0.1256836498685051 0.7496807416866402 0  0.1885562769587568 0.7495002496825705 0  0.2514665504224019 0.7492928265555363 0  0.3144281539968892 0.7490459894255374 0  0.3774554460921456 0.748743604250393 0  0.4405630638328584 0.7483640405540979 0  0.5037648928944535 0.7478774431158636 0  0.5670720316595832 0.7472416044546122 0  0.6304895349304334 0.7463956093749565 0  0.6940131245460576 0.7452499260667248 0  0.7576332570967976 0.7436710191375574 0  0.8213769057694792 0.7414592830037893 0  0.8854955315636625 0.7383320433845 0  0.9511393244930484 0.7340268421266669 0  1.021337667394851 0.7293770682302387 0  0 0.8125 0  0.06276287637849851 0.8123752942926274 0  0.1255352379866767 0.8122437637491278 0  0.1883266285791319 0.8120980325990893 0  0.2511469185293653 0.8119294014382059 0  0.314006305226453 0.8117269328402139 0  0.3769150398996161 0.8114761624346103 0  0.4398825916176004 0.8111571829699805 0  0.5029156663620015 0.8107416899189238 0  0.5660139162703255 0.8101882913879456 0  0.6291610806507991 0.8094348458826796 0  0.6923075719228724 0.8083854787309319 0  0.7553393732000796 0.8068873418954536 0  0.8180363974945205 0.8046856160154415 0  0.8800876729407809 0.80132960347194 0  0.9416093765875632 0.7959901588279438 0  1.007883875942095 0.7875665955183121 0  0 0.875 0  0.06268060779097939 0.8749128355777049 0  0.1253676883987464 0.8748207315609812 0  0.1880677264413245 0.8747183258406316 0  0.2507873891315353 0.874599229860111 0  0.3135334770129621 0.8744553040136619 0  0.3763126287757508 0.8742756148127186 0  0.4391304948968417 0.8740448507451388 0  0.5019897510932988 0.8737408275577068 0  0.5648855202431002 0.8733304570038719 0  0.6277948558799465 0.8727630983041645 0  0.690652322841448 0.8719593483621012 0  0.7532928143370761 0.8707912616174754 0  0.815319278055329 0.8690426804540603 0  0.8758152842132323 0.8663046677743687 0  0.9328214363896297 0.8616038565830818 0  0.9827634300328009 0.8519451630409127 0  0 0.9375 0  0.06259192308441018 0.9374551775761134 0  0.1251871381283687 0.9374077633955114 0  0.1877889398011184 0.9373549368410226 0  0.2504007169187791 0.9372933177560437 0  0.3130259277693928 0.937218566622309 0  0.3756679479565356 0.9371248024547839 0  0.4383296351077954 0.9
[...]
<PointData  Vectors="f_95-0"> 
<DataArray  type="Float64"  Name="f_95-0"  NumberOfComponents="3" format="ascii">0.0000000000000000e+00 0.0000000000000000e+00 0.0000000000000000e+00  1.2929268704012979e-04 4.2825198196745205e-02 0.0000000000000000e+00  3.2187113949810187e-04 7.1135065951061519e-02 0.0000000000000000e+00  5.0392132215144230e-04 8.7243485255187048e-02 0.0000000000000000e+00  6.8594359190329575e-04 9.3967136275677654e-02 0.0000000000000000e+00  8.6896069229283179e-04 9.4043459482833283e-02 0.0000000000000000e+00  1.0459478024675338e-03 8.9774964270748034e-02 0.0000000000000000e+00  1.1993812172724719e-03 8.2902947554656423e-02 0.0000000000000000e+00  1.3040173238739665e-03 7.4622996150487592e-02 0.0000000000000000e+00  1.3303721256032607e-03 6.5675679968943163e-02 0.0000000000000000e+00  1.2476189553584371e-03 5.6464826142981046e-02 0.0000000000000000e+00  1.0258004113615326e-03 4.7174013376274110e-02 0.0000000000000000e+00  6.3672102911113844e-04 3.7866509208029302e-02 0.0000000000000000e+00  5.9342312792169169e-05 2.8557897870369012e-02 0.0000000000000000e+00  -7.2271376188621573e-04 1.9279295998550647e-02 0.0000000000000000e+00  -1.7993353872091467e-03 1.0138203736226935e-02 0.0000000000000000e+00  -1.7429785428538520e-03 1.9004971727151097e-03 0.0000000000000000e+00  0.0000000000000000e+00 0.0000000000000000e+00 0.0000000000000000e+00  5.5819358504289930e-05 4.2719976380912579e-02 0.0000000000000000e+00  1.2046226926896505e-04 7.1052164179754282e-02 0.0000000000000000e+00  1.4019900944587063e-04 8.7156297268747782e-02 0.0000000000000000e+00  1.3878932942117334e-04 9.3851013330383662e-02 0.0000000000000000e+00  1.2655309368586791e-04 9.3889880897848624e-02 0.0000000000000000e+00  1.0218157958715544e-04 8.9592473040999737e-02 0.0000000000000000e+00  5.1333842627139990e-05 8.2711854853104144e-02 0.0000000000000000e+00  -4.7875127785983670e-05 7.4449030656864201e-02 0.0000000000000000e+00  -2.2048242781996062e-04 6.5544488935253664e-02 0.0000000000000000e+00  -4.9147175747559478e-04 5.6397815402473656e-02 0.0000000000000000e+00  -8.8389226961257201e-04 4.7185121594588847e-02 0.0000000000000000e+00  -1.4175174843620770e-03 3.7957429713425389e-02 0.0000000000000000e+00  -2.1052710855668914e-03 2.8712122622212004e-02 0.0000000000000000e+00  -2.9604283626912180e-03 1.9433367021517097e-02 0.0000000000000000e+00  -3.8823678956884868e-03 1.0062426304679814e-02 0.0000000000000000e+00  -5.0399212578190857e-03 1.0671092206386928e-03 0.0000000000000000e+00  0.0000000000000000e+00 0.0000000000000000e+00 0.0000000000000000e+00  -1.1067013697906399e-04 4.2825242306650427e-02 0.0000000000000000e+00  -3.9888206752511590e-04 7.1264483669773324e-02 0.0000000000000000e+00  -8.1878707989987444e-04 8.7416609313799257e-02 0.0000000000000000e+00  -1.3108091655295714e-03 9.4110237243715242e-02 0.0000000000000000e+00  -1.8432247672049188e-03 9.4126523563909215e-02 0.0000000000000000e+00  -2.4055159217038400e-03 8.9808072302810404e-02 0.0000000000000000e+00  -3.0034942382903243e-03 8.2921038418213910e-02 0.0000000000000000e+00  -3.6492235480370494e-03 7.4670427686046884e-02 0.0000000000000000e+00  -4.3544947692767764e-03 6.5794026922723250e-02 0.0000000000000000e+00  -5.1269711684128125e-03 5.6684673042564387e-02 0.0000000000000000e+00  -5.9689236924686320e-03 4.7509711366371922e-02 0.0000000000000000e+00  -6.8777666635019214e-03 3.8310230087620196e-02 0.0000000000000000e+00  -7.8459280839585505e-03 2.9070983766011596e-02 0.0000000000000000e+00  -8.8531103205546722e-03 1.9754831689536106e-02 0.0000000000000000e+00  -9.8460529799694278e-03 1.0299266407438347e-02 0.0000000000000000e+00  -1.0782668761226022e-02 8.1261074577913090e-04 0.0000000000000000e+00  0.0000000000000000e+00 0.0000000000000000e+00 0.0000000000000000e+00  -3.2022370613985851e-04 4.3266146577549562e-02 0.0000000000000000e+00  -1.0977531210048571e-03 7.1966376441268742e-02 0.0000000000000000e+00  -2.1452892667694263e-03 8.8249021290036866e-02 0.0000000000000000e+00  -3.3426034873920989e-03 9.4991590745318044e-02 0.0000000000000000e+00  -4.6286729733688876e-03 9.5019036675198662e-02 0.0000000000000000e+00  -5.9786215913667680e-03 9.0702811335932249e-02 0.0000000000000000e+00  -7.3864729077211984e-03 8.3821905543853339e-02 0.0000000000000000e+00  -8.8493724425717565e-03 7.5581447059860737e-02 0.0000000000000000e+00  -1.0358157994121566e-02 6.6711361997015245e-02 0.0000000000000000e+00  -1.1893029874426730e-02 5.7593302032904199e-02 0.0000000000000000e+00  -1.3423976566308995e-02 4.8384210143908563e-02 0.0000000000000000e+00  -1.4915766559429987e-02 3.9119165243025042e-02 0.0000000000000000e+00  -1.6334976106469546e-02 2.9784149848378929e-02 0.0000000000000000e+00  -1.7664316324613866e-02 2.0353421754996305e-02 0.0000000000000000e+00  -1.8907698221426589e-02 1.0789418736716445e-02 0.0000000000000000e+00  -2.0080884774801574e-02 1.1102719471139219e-03 0.0000000000000000e+00  0.0000000000000000e+00 0.0000000000000000e+00 0.0000000000000000e+00  -5.4796288839980211e-04 4.4102004509198808e-02 0.0000000000000000e+00  -1.8758553260104362e-03 7.3277805472549598e-02 0.0000000000000000e+00  -3.6546963151573510e-03 8.9809944553820187e-02 0.0000000000000000e+00  -5.6933998478975916e-03 9.6677638202982183e-02 0.0000000000000000e+00  -7.8986952814114556e-03 9.6773154806262085e-02 0.0000000000000000e+00  -1.0230115192307024e-02 9.2503707299522980e-02 0.0000000000000000e+00  -1.2667460051847119e-02 8.5658874015774392e-02 0.0000000000000000e+00  -1.5187784857818703e-02 7.7437224437849464e-02 0.0000000000000000e+00  -1.7752683154236722e-02 6.8552895489557619e-02 0.0000000000000000e+00  -2.0303777270502220e-02 5.9369518233752590e-02 0.0000000000000000e+00  -2.2765297143107342e-02 5.0030599987819231e-02 0.0000000000000000e+00  -2.5054897578846713e-02 4.0569942824204390e-02 0.0000000000000000e+00  -2.7102302846510624e-02 3.0992963809711161e-02 0.0000000000000000e+00  -2.8884284674960986e-02 2.1321472411261696e-02 0.0000000000000000e+00  -3.0444789015840180e-02 1.1590265844824267e-02 0.0000000000000000e+00  -3.1958425990800128e-02 1.7642284744573660e-03 0.0000000000000000e+00  0.0000000000000000e+00 0.0000000000000000e+00 0.0000000000000000e+00  -7.7374770398933696e-04 4.5349386875203256e-02 0.0000000000000000e+00  -2.6603935747348700e-03 7.5246005988110001e-02 0.0000000000000000e+00  -5.2065597039702895e-03 9.2181302716528662e-02 0.0000000000000000e+00  -8.1599869095090750e-03 9.9286218156698566e-02 0.0000000000000000e+00  -1.1401350081405930e-02 9.9543847593023038e-02 0.0000000000000000e+00  -1.4876587614506968e-02 9.5401996868090533e-02 0.0000000000000000e+00  -1.8549118447532941e-02 8.8655177525078649e-02 0.0000000000000000e+00  -2.2369409137552879e-02 8.0485174085674988e-02 0.0000000000000000e+00  -2.6259511302982434e-02 7.1579012832112487e-02 0.0000000000000000e+00  -3.0108384501450938e-02 6.2272251052719552e-02 0.0000000000000000e+00  -3.3776043958811001e-02 5.2688491098932193e-02 0.0000000000000000e+00  -3.7109316476478020e-02 4.2860875202780084e-02 0.0000000000000000e+00  -3.9970680861634224e-02 3.2828468819357248e-02 0.0000000000000000e+00  -4.2297644460791657e-02 2.2695710980666708e-02 0.0000000000000000e+00  -4.4157107004018363e-02 1.2624524393787216e-02 0.0000000000000000e+00  -4.5891542844751214e-02 2.6538279976823743e-03 0.0000000000000000e+00  0.0000000000000000e+00 0.0000000000000000e+00 0.0000000000000000e+00  -9.8094187846118003e-04 4.6989720833958915e-02 0.0000000000000000e+00  -3.3912286358770581e-03 7.7861415741840953e-02 0.0000000000000000e+00  -6.6852298542725399e-03 9.5385313345102862e-02 0.0000000000000000e+00  -1.0576272491681761e-02 1.0288638437215461e-01 0.0000000000000000e+00  -1.4935678764998907e-02 1.0345465457527883e-01 0.0000000000000000e+00  -1.9702154678713620e-02 9.9576366461040802e-02 0.0000000000000000e+00  -2.4820504396717891e-02 9.3039338275664712e-02 0.0000000000000000e+00  -3.0205995926580621e-02 8.4993713185605183e-02 0.0000000000000000e+00  -3.5727961966522191e-02 7.6084612429369633e-02 0.0000000000000000e+00  -4.1205579029650878e-02 6.6605455378525302e-02 0.0000000000000000e+00  -4.6411911092058396e-02 5.6646167811569455e-02 0.0000000000000000e+00  -5.1089121715790962e-02 4.6229584166487661e-02 0.0000000000000000e+00  -5.4983133552514919e-02 3.5433581891405705e-02 0.0000000000000000e+00  -5.7932651120822923e-02 2.4480059666671126e-02 0.0000000000000000e+00  -5.9972657679513187e-02 1.3747148581981726e-02 0.0000000000000000e+00  -6.1621094973151588e-02 3.5000492783146277e-03 0.0000000000000000e+00  0.0000000000000000e+00 0.0000000000000000e+00 0.0000000000000000e+00  -1.1511631054285125e-03 4.8972995969955961e-02 0.0000000000000000e+00  -4.0046320159344119e-03 8.1064009696051167e-02 0.0000000000000000e+00  -7.9720383137421389e-03 9.9392006788928025e-02 0.0000000000000000e+00  -1.2775673859468314e-02 1.0750715888740664e-01 0.0000000000000000e+00  -1.8304423786291255e-02 1.0860820980085301e-01 0.0000000000000000e+00  -2.4499576479077717e-02 1.0520499263048445e-01 0.0000000000000000e+00  -3.1283811880503089e-02 9.9057927575599378e-02 0.0000000000000000e+00  -3.8525269029747677e-02 9.1265496852015029e-02 0.0000000000000000e+00  -4.6024701630060900e-02 8.2413050846410041e-02 0.0000000000000000e+00  -5.3513944933543299e-02 7.2733254920531579e-02 0.0000000000000000e+00  -6.0655092464690911e-02 6.2261120577940199e-02 0.0000000000000000e+00  -6.7046324791437725e-02 5.0986661923281329e-02 0.0000000000000000e+00  -7.2252534515709912e-02 3.9007829740405182e-02 0.0000000000000000e+00  -7.5913245661437367e-02 2.6680322951455941e-02 0.0000000000000000e+00  -7.7912768441248170e-02 1.4713775128964631e-02 0.0000000000000000e+00  -7.8875100695050576e-02 3.8271694683995150e-03 0.0000000000000000e+00  0.0000000000000000e+00 0.0000000000000000e+00 0.0000000000000000e+00  -1.2592124210638329e-03 5.1210500797649910e-02 0.0000000000000000e+00  -4.4172089501543872e-03 8.4736019839623034e-02 0.0000000000000000e+00  -8.9167826881454432e-03 1.0411463169956528e-01 0.0000000000000000e+00  -1.4550928943885435e-02 1.1313513301597007e-01 0.0000000000000000e+00  -2.1261576938993824e-02 1.1508444587792975e-01 0.0000000000000000e+00  -2.9002989104947762e-02 1.1246248005120082e-01 0.0000000000000000e+00  -3.7668138903026692e-02 1.0696979717576775e-01 0.0000000000000000e+00  -4.7061295570763682e-02 9.9628010632764843e-02 0.0000000000000000e+00  -5.6896972353311960e-02 9.0943949829501339e-02 0.0000000000000000e+00  -6.6803100610742391e-02 8.1073025657998968e-02 0.0000000000000000e+00  -7.6313330675450500e-02 6.9970725128783676e-02 0.0000000000000000e+00  -8.4856251075844269e-02 5.7541493119574252e-02 0.0000000000000000e+00  -9.1742182092290070e-02 4.3834182468667278e-02 0.0000000000000000e+00  -9.6253587889228526e-02 2.9326732566076891e-02 0.0000000000000000e+00  -9.7910303751673686e-02 1.5186005892376762e-02 0.0000000000000000e+00  -9.7237190778706920e-02 2.8859605374222498e-03 0.0000000000000000e+00  0.0000000000000000e+00 0.0000000000000000e+00 0.0000000000000000e+00  -1.2685888025348617e-03 5.3559414311907624e-02 0.0000000000000000e+00  -4.5128096470092964e-03 8.8684028132564999e-02 0.0000000000000000e+00  -9.3157664415052556e-03 1.0939424157146098e-01 0.0000000000000000e+00  -1.5622744356809571e-02 1.1970056199259591e-01 0.0000000000000000e+00  -2.3468810449712711e-02 1.2292467766217544e-01 0.0000000000000000e+00  -3.2827083162192731e-02 1.2149837471093927e-01 0.0000000000000000e+00  -4.3545423200825467e-02 1.1701625964109637e-01 0.0000000000000000e+00  -5.5341046280788550e-02 1.1039441506623349e-01 0.0000000000000000e+00  -6.7820564199657887e-02 1.0204855994337862e-01 0.0000000000000000e+00  -8.0495169449460571e-02 9.2049490609300802e-02 0.0000000000000000e+00  -9.2778906203612121e-02 8.0242422445494843e-02 0.0000000000000000e+00  -1.0393148686833964e-01 6.6378015575362367e-02 0.0000000000000000e+00  -1.1294324685457133e-01 5.0363747457232870e-02 0.0000000000000000e+00  -1.1857513164434653e-01 3.2666093224130416e-02 0.0000000000000000e+00  -1.1962546077999044e-01 1.4881460597912009e-02 0.0000000000000000e+00  -1.1607664979740466e-01 -3.2140647466424692e-04 0.0000000000000000e+00  0.0000000000000000e+00 0.0000000000000000e+00 0.0000000000000000e+00  -1.1291268379095649e-03 5.5801555582080747e-02 0.0000000000000000e+00  -4.1383888781404386e-03 9.2615484952087629e-02 0.0000000000000000e+00  -8.9076248538929401e-03 1.1497884043845055e-01 0.0000000000000000e+00  -1.5632937613341627e-02 1.2705500790901081e-01 0.0000000000000000e+00  -2.4478742018904605e-02 1.3210127407355912e-01 0.0000000000000000e+00  -3.5431308646299536e-02 1.3239383975722668e-01 0.0000000000000000e+00  -4.8266889229230316e-02 1.2936218382725204e-01 0.0000000000000000e+00  -6.2583808904625490e-02 1.2378866107907241e-01 0.0000000000000000e+00  -7.7854107477928827e-02 1.1599545227752275e-01 0.0000000000000000e+00  -9.3470570424887267e-02 1.0597713186578389e-01 0.0000000000000000e+00  -1.0875386723225358e-01 9.3478452151330993e-02 0.0000000000000000e+00  -1.2283028890011438e-01 7.8071778426213184e-02 0.0000000000000000e+00  -1.3446978870308837e-01 5.9277142062445276e-02 0.0000000000000000e+00  -1.4180051721950876e-01 3.7070727323833277e-02 0.0000000000000000e+00  -1.4220183185997107e-01 1.3415159725011890e-02 0.0000000000000000e+00  -1.3435683152108846e-01 -6.8818175025794565e-03 0.0000000000000000e+00  0.0000000000000000e+00 0.0000000000000000e+00 0.0000000000000000e+00  -7.8024164575730504e-04 5.7623835729730219e-02 0.0000000000000000e+00  -3.1206193234756762e-03 9.6122568688161811e-02 0.0000000000000000e+00  -7.4070223328668956e-03 1.2050905914639391e-01 0.0000000000000000e+00  -1.4187064908855537e-02 1.3494704808747440e-01 0.0000000000000000e+00  -2.3771052342238606e-02 1.4247315787592366e-01 0.0000000000000000e+00  -3.6133522979939423e-02 1.4509242149828069e-01 0.0000000000000000e+00  -5.0941443181912023e-02 1.4400217043837876e-01 0.0000000000000000e+00  -6.7637631145272784e-02 1.3982631805261539e-01 0.0000000000000000e+00  -8.5534783476566220e-02 1.3280259684407350e-01 0.0000000000000000e+00  -1.0390021933771483e-01 1.2289510614511025e-01 0.0000000000000000e+00  -1.2197387060600054e-01 1.0981965334259514e-01 0.0000000000000000e+00  -1.3892111811831065e-01 9.2928028038287300e-02 0.0000000000000000e+00  -1.5359331754626920e-01 7.1116498523124239e-02 0.0000000000000000e+00  -1.6335446330842532e-01 4.3618706707513617e-02 0.0000000000000000e+00  -1.6382592348592290e-01 1.2013631813633980e-02 0.0000000000000000e+00  -1.5080380454002240e-01 -1.7518542859729661e-02 0.0000000000000000e+00  0.0000000000000000e+00 0.0000000000000000e+00 0.0000000000000000e+00  -1.6800245119539536e-04 5.8616325900682095e-02 0.0000000000000000e+00  -1.3269355343472793e-03 9.8697493214008822e-02 0.0000000000000000e+00  -4.6120703434600341e-03 1.2552915804625345e-01 0.0000000000000000e+00  -1.0986164878555799e-02 1.4300361493582722e-01 0.0000000000000000e+00  -2.0878374638441499e-02 1.5372447947775389e-01 0.0000000000000000e+00  -3.4203945556487182e-02 1.5929617728064016e-01 0.0000000000000000e+00  -5.0482107325779915e-02 1.6062161616329809e-01 0.0000000000000000e+00  -6.8977344330853521e-02 1.5814928162832018e-01 0.0000000000000000e+00  -8.8829074119274584e-02 1.5205118214382263e-01 0.0000000000000000e+00  -1.0915330120899948e-01 1.4232098590074613e-01 0.0000000000000000e+00  -1.2913642283382359e-01 1.2873893357804050e-01 0.0000000000000000e+00  -1.4814592686323083e-01 1.1066010211190025e-01 0.0000000000000000e+00  -1.6525361656722135e-01 8.6777686717524602e-02 0.0000000000000000e+00  -1.7821644365716374e-01 5.4510766630794301e-02 0.0000000000000000e+00  -1.8195424925986836e-01 1.1102253144839595e-02 0.0000000000000000e+00  -1.6566865154271826e-01 -3.1816388226335333e-02 0.0000000000000000e+00  0.0000000000000000e+00 0.0000000000000000e+00 0.0000000000000000e+00  7.0620305878169498e-04 5.8330405291475380e-02 0.0000000000000000e+00  1.1818241657027885e-03 9.9827027872381999e-02 0.0000000000000000e+00  -6.4613827102777703e-04 1.2955207302530330e-01 0.0000000000000000e+00  -6.1053468862014432e-03 1.5072358644619505e-01 0.0000000000000000e+00  -1.5649445157701721e-02 1.6527754188511920e-01 0.0000000000000000e+00  -2.9075933763559030e-02 1.7431036434611588e-01 0.0000000000000000e+00  -4.5746577689678249e-02 1.7839614749672941e-01 0.0000000000000000e+00  -6.4772720764624273e-02 1.7780655218336680e-01 0.0000000000000000e+00  -8.5149158974019076e-02 1.7266015954969943e-01 0.0000000000000000e+00  -1.0585405677237561e-01 1.6300659283196314e-01 0.0000000000000000e+00  -1.2600762371018848e-01 1.4881755490575105e-01 0.0000000000000000e+00  -1.4495795867961847e-01 1.2982983944388132e-01 0.0000000000000000e+00  -1.6237053099847429e-01 1.0463440109662948e-01 0.0000000000000000e+00  -1.7868713477697440e-01 6.8748845331287681e-02 0.0000000000000000e+00  -1.8807946136974008e-01 1.5314444703924034e-02 0.0000000000000000e+00  -1.6649349864105320e-01 -4.5254768753478579e-02 0.0000000000000000e+00  0.0000000000000000e+00 0.0000000000000000e+00 0.0000000000000000e+00  1.6577149475049335e-03 5.6469479944434416e-02 0.0000000000000000e+00  3.8166838282868635e-03 9.9221619801971903e-02 0.0000000000000000e+00  3.5757375952950865e-03 1.3219056621144068e-01 0.0000000000000000e+00  -4.8904063848515531e-04 1.5746444168069099e-01 0.0000000000000000e+00  -8.6981816334641224e-03 1.7614686317891906e-01 0.0000000000000000e+00  -2.0707758218303719e-02 1.8880077981391646e-01 0.0000000000000000e+00  -3.5793783312190131e-02 1.9569520430456799e-01 0.0000000000000000e+00  -5.3037500068134229e-02 1.9694935830817958e-01 0.0000000000000000e+00  -7.1427806399243121e-02 1.9262696091968104e-01 0.0000000000000000e+00  -8.9927717775741406e-02 1.8280267860830368e-01 0.0000000000000000e+00  -1.0753440051979576e-01 1.6761449363168079e-01 0.0000000000000000e+00  -1.2333597604886980e-01 1.4719835784867294e-01 0.0000000000000000e+00  -1.3759348729864099e-01 1.2128553860054793e-01 0.0000000000000000e+00  -1.5200143673314082e-01 8.8609094903997404e-02 0.0000000000000000e+00  -1.6824901149799135e-01 4.0704485183015962e-02 0.0000000000000000e+00  -1.8187220152645053e-01 -3.6744661413367713e-02 0.0000000000000000e+00  0.0000000000000000e+00 0.0000000000000000e+00 0.0000000000000000e+00  2.0054066025223020e-03 5.3393595253498669e-02 0.0000000000000000e+00  4.8059466256797643e-03 9.7301287203900452e-02 0.0000000000000000e+00  5.5519242584328747e-03 1.3338720522339340e-01 0.0000000000000000e+00  3.2839867177677749e-03 1.6241310158467992e-01 0.0000000000000000e+00  -2.0609998581042760e-03 1.8471652119973445e-01 0.0000000000000000e+00  -1.0110288644965586e-02 2.0044795928422204e-01 0.0000000000000000e+00  -2.0279607662233998e-02 2.0967052439970602e-01 0.0000000000000000e+00  -3.1891319848169605e-02 2.1240766470731981e-01 0.0000000000000000e+00  -4.4224114392724820e-02 2.0867382768166390e-01 0.0000000000000000e+00  -5.6522360430419055e-02 1.9850446532374447e-01 0.0000000000000000e+00  -6.7945777681090558e-02 1.8199302373835291e-01 0.0000000000000000e+00  -7.7645018264967752e-02 1.5930019053858643e-01 0.0000000000000000e+00  -8.4759902667359333e-02 1.3095482992237048e-01 0.0000000000000000e+00  -8.7461847454689393e-02 9.6948380907125389e-02 0.0000000000000000e+00  -9.2003212630541356e-02 5.4145223536572695e-02 0.0000000000000000e+00  -7.2548982908055004e-02 4.2548016530798019e-03 0.0000000000000000e+00  0.0000000000000000e+00 0.0000000000000000e+00 0.0000000000000000e+00  0.0000000000000000e+00 5.1346094533811254e-02 0.0000000000000000e+00  0.0000000000000000e+00 9.5846043129781011e-02 0.0000000000000000e+00  0.0000000000000000e+00 1.3349984578790927e-01 0.0000000000000000e+00  0.0000000000000000e+00 1.6430750250819603e-01 0.0000000000000000e+00  0.0000000000000000e+00 1.8826901329064127e-01 0.0000000000000000e+00  0.0000000000000000e+00 2.0538437813524504e-01 0.0000000000000000e+00  0.0000000000000000e+00 2.1565359704200729e-01 0.0000000000000000e+00  0.0000000000000000e+00 2.1907667001092807e-01 0.0000000