<?xml version="1.0"?>
<VTKFile type="UnstructuredGrid"  version="0.1"  >
<UnstructuredGrid>
<Piece  NumberOfPoints="289" NumberOfCells="512">
<Points>
<DataArray  type="Float64"  NumberOfComponents="3"  format="ascii">0 0 0  0.0625 0 0  0.125 0 0  0.1875 0 0  0.25 0 0  0.3125 0 0  0.375 0 0  0.4375 0 0  0.5 0 0  0.5625 0 0  0.625 0 0  0.6875 0 0  0.75 0 0  0.8125 0 0  0.875 0 0  0.9375 0 0  1 0 0  0 0.0625 0  0.06251115109696326 0.06247952594393556 0  0.1250226829258806 0.06245868892240194 0  0.1875349763990473 0.06243715508121255 0  0.250048438847306 0.06241466666760619 0  0.3125635229431407 0.06239109121739778 0  0.3750807564568874 0.062366482929747 0  0.4376007934537705 0.06234115674892526 0  0.5001245074388823 0.06231577044026609 0  0.5626531668090544 0.06229140051934212 0  0.6251887740694028 0.06226958267609696 0  0.6877347381911292 0.06225226656404113 0  0.7502972367884508 0.06224161693167416 0  0.8128879678119252 0.06223961711993128 0  0.8755291263457932 0.06224765756120343 0  0.9382571978804503 0.06226751263799235 0  1.001080949911417 0.06231359791833956 0  0 0.125 0  0.06252189450267509 0.1249594005694689 0  0.1250445495952393 0.1249180372364697 0  0.1875687316630721 0.1248752001096805 0  0.2500952676942416 0.1248303225792 0  0.3126250890318089 0.1247830768329461 0  0.3751592991610979 0.1247334967406379 0  0.4376992872591929 0.1246821319732876 0  0.5002469277285727 0.1246302284076362 0  0.5628049408768674 0.1245799126058825 0  0.6253775556110991 0.1245343275486671 0  0.6879717351462548 0.1244976181024839 0  0.7505994251061539 0.1244745995226634 0  0.8132815134825532 0.1244698892088828 0  0.8760540913001338 0.1244863541344144 0  0.9389765351031167 0.1245231739249119 0  1.002148147657514 0.1245734927560009 0  0 0.1875 0  0.06253188262275108 0.1874400318375365 0  0.1250648873822493 0.1873788296315869 0  0.1876001518055928 0.1873152293857689 0  0.2501389083775877 0.1872482582786268 0  0.3126825520126216 0.1871772689730237 0  0.3752327416087418 0.1871021209678057 0  0.4377915635650336 0.1870234213329516 0  0.5003618050446457 0.1869428285755176 0  0.5629474174991878 0.1868634033318749 0  0.6255543005205911 0.186789948122262 0  0.688191597152818 0.1867291983783083 0  0.7508737190535634 0.1866895753412776 0  0.8136231496520553 0.1866799060567234 0  0.8764733329678314 0.1867057871077405 0  0.9394695308893897 0.1867601295398322 0  1.002667016656048 0.1867976085815049 0  0 0.25 0  0.06254078881886017 0.2499218960663902 0  0.1250830254996275 0.2498419974627173 0  0.1876281851937136 0.24975858152459 0  0.2501778660406761 0.249670133179607 0  0.3127338743126132 0.2495755032261318 0  0.3752983483245554 0.2494741368870178 0  0.4378739497075746 0.2493663995756202 0  0.5004641665129036 0.2492540245191655 0  0.5630737927910203 0.249140694173555 0  0.6257096660189059 0.2490327316612355 0  0.6883817304577674 0.2489397963617971 0  0.7511043820208576 0.2488753070934382 0  0.8138977016169495 0.2488559857595354 0  0.8767874606277918 0.2488993342866718 0  0.9398020123153737 0.2490171246828032 0  1.002965161420724 0.2492036545684769 0  0 0.3125 0  0.06254831338717678 0.3124055582526721 0  0.1250983498643241 0.3123086652356134 0  0.1876518725946303 0.3122069242914896 0  0.2502107855424902 0.3120981182181148 0  0.3127772282904671 0.3119803667935653 0  0.3753537099973117 0.3118523769962258 0  0.4379433098609122 0.311713832015697 0  0.5005499838147933 0.3115659760766544 0  0.5631790282374084 0.311412459607369 0  0.6258377480855424 0.3112605020907381 0  0.6885363283169368 0.3111223834880955 0  0.7512887585798792 0.3110171415060867 0  0.814113357551042 0.3109720518360266 0  0.8770320835777633 0.3110229136455249 0  0.9400681114738776 0.3112113912746262 0  1.003244150845929 0.311577133893281 0  0 0.375 0  0.06255418761155908 0.3748916765276422 0  0.1251103129004579 0.3747801654262739 0  0.1876703661311221 0.3746622928067666 0  0.250236484693005 0.3745349803344207 0  0.3128110495575417 0.3743953663739684 0  0.375396818857365 0.3742410336002419 0  0.4379971266185795 0.3740704080180097 0  0.5006161895036586 0.3738834237616971 0  0.5632595805525469 0.3736825877102007 0  0.6259349355372162 0.373474623560505 0  0.6886529291849006 0.3732729080856289 0  0.7514284528054683 0.3731008809903369 0  0.814281711171112 0.3729963978807737 0  0.8772387384072303 0.3730164006773676 0  0.9403311363420054 0.3732400808489352 0  1.003596901614088 0.3737669391320201 0  0 0.4375 0  0.06255817734342214 0.437380985050776 0  0.1251184409815855 0.4372580089185292 0  0.1876829410185386 0.4371270586191843 0  0.2502539702480471 0.4369840721074784 0  0.3128340545575281 0.4368249789158448 0  0.3754260762303143 0.4366458425476872 0  0.438033461659721 0.4364431801582601 0  0.5006604903698857 0.4362145834048274 0  0.5633128227870181 0.435959841924563 0  0.6259984009816723 0.4356828888843192 0  0.6887289387283425 0.435395050523771 0  0.7515222467517332 0.4351202578394993 0  0.814405558105605 0.4349029340834705 0  0.8774197404269907 0.4348188498549151 0  0.9406238990510394 0.4349877190664219 0  1.004100215012284 0.4355833791486294 0  0 0.5 0  0.06256008820683463 0.4998742509816374 0  0.1251223438650296 0.4997438003801317 0  0.1876890073643098 0.4996038082715831 0  0.2502624490254982 0.4994491866754758 0  0.312845245958032 0.4992745141718192 0  0.3754402828457255 0.4990740204291594 0  0.438050910702278 0.4988417091981774 0  0.5006812385556821 0.4985717477346635 0  0.5633367145259126 0.4982593581677364 0  0.6260253033138519 0.4979026372428803 0  0.688759816978435 0.497506057476674 0  0.7515623014327073 0.4970869178821629 0  0.8144716889792692 0.4966866762994744 0  0.8775557712874942 0.496389474712464 0  0.9409271988006958 0.4963488473270841 0  1.004760881001973 0.4968181290664828 0  0 0.5625 0  0.06255977429708373 0.5623722044047117 0  0.1251217301266671 0.5622390942140586 0  0.1876881287864109 0.5620951187836639 0  0.2502613448583536 0.5619342474993065 0  0.3128439232658433 0.5617497232142731 0  0.3754386428553044 0.5615338236398216 0  0.4380486143072719 0.5612776676640119 0  0.5006774917637835 0.5609711562914952 0  0.5633300001390784 0.5606032467843699 0  0.6260132500416217 0.5601629827693946 0  0.6887398569751438 0.5596421619279087 0  0.7515348528037692 0.5590414407092333 0  0.8144497666538957 0.5583833848136365 0  0.8775883220965303 0.5577385530984738 0  0.9411465282845971 0.5572722376596506 0  1.005461783267757 0.5573130243221758 0  0 0.625 0  0.06255715120238989 0.6248754453127754 0  0.1251164305861267 0.6247451978458701 0  0.1876800512804748 0.6246032357117244 0  0.2502503256923672 0.6244428292016904 0  0.3128297009157911 0.6242561223866981 0  0.3754207741058458 0.6240336376143902 0  0.4380262930444122 0.623763684053064 0  0.5006491893167482 0.6234316733796137 0  0.5632928208227465 0.6230194081742051 0  0.6259619500076189 0.6225045738881655 0  0.688665844909139 0.6218610933033244 0  0.751426808849864 0.6210621078116759 0  0.8143011506288382 0.6200901641977434 0  0.8774249769037098 0.6189657992470484 0  0.9410996835146072 0.6178168508087413 0  1.005920174117987 0.6170084206393812 0  0 0.6875 0  0.06255221267794271 0.6873843383003874 0  0.125106428968912 0.6872629437988903 0  0.1876647420332022 0.6871296857237785 0  0.2502293399406852 0.6869775492891802 0  0.3128025259736321 0.6867980712410409 0  0.3753866900013643 0.6865806087309658 0  0.4379841978617151 0.6863113544494137 0  0.5005971668403135 0.6859719826643051 0  0.5632271556067612 0.6855377799754644 0  0.6258750678554615 0.6849751055151273 0  0.6885424876015731 0.6842381358960423 0  0.7512383813118687 0.6832654613329494 0  0.8140022552221829 0.6819796889247836 0  0.8769706601271751 0.6803034004995839 0  0.9405349104065422 0.6782408988305417 0  1.005629810283023 0.6761282180989814 0  0 0.75 0  0.06254504877606552 0.7498989119238783 0  0.1250918965518203 0.7497924668973521 0  0.1876424358032364 0.7496748843258857 0  0.2501986623105755 0.7495394228594761 0  0.3127626959219627 0.7493777360251284 0  0.3753367359436472 0.7491789934671009 0  0.4379228799931477 0.7489286223122692 0  0.5005226725472078 0.7486064442457447 0  0.5631361582211868 0.7481838499630422 0  0.6257601543040382 0.7476194204557096 0  0.6883857579375805 0.7468519932102226 0  0.7509971256876293 0.7457894734835697 0  0.8135822207349326 0.7442909270547402 0  0.8761974448856368 0.7421421941266486 0  0.9392199907296933 0.7390616467481356 0  1.003878824117796 0.7351230149770642 0  0 0.8125 0  0.06253586199059794 0.8124187835858263 0  0.12507322557646 0.8123330329830177 0  0.1876136858633751 0.8122378209766833 0  0.2501589559419847 0.8121273166626205 0  0.3127109051546513 0.811994159268082 0  0.3752715420209252 0.8118285765029063 0  0.4378428594341972 0.8116170768325578 0  0.5004263502249316 0.8113404398637465 0  0.5630217577212697 0.810970541662925 0  0.6256241052655093 0.8104652023652832 0  0.688217037521477 0.8097595306062979 0  0.7507590652994521 0.8087505846659231 0  0.8131601918809624 0.8072678020561914 0  0.8752689130808368 0.8050093118498218 0  0.9370533904975648 0.8013910251062163 0  1.000454392659167 0.7951920356930325 0  0 0.875 0  0.0625249770835716 0.8749431302127602 0  0.1250510541759689 0.8748829655525021 0  0.1875794139475075 0.8748159076013597 0  0.2501113594543916 0.8747376537324302 0  0.3126483727402817 0.8746426987411556 0  0.3751921519082595 0.8745236191735386 0  0.4377445735065664 0.8743699901572438 0  0.5003074310141021 0.8741666891966194 0  0.5628815430395377 0.8738911771905498 0  0.6254641293704932 0.8735090649975965 0  0.6880414557201954 0.8729667701199055 0  0.7505685611275296 0.8721789848037174 0  0.8129138774105871 0.8710052076672826 0  0.8747103575560413 0.8691939540911108 0  0.9349732049123516 0.8661963369986502 0  0.9912652219999774 0.8603760373524578 0  0 0.9375 0  0.0625128397881783 0.9374707188248965 0  0.1250262728105298 0.9374397037120666 0  0.1875409450641002 0.9374050553760435 0  0.2500575886446324 0.9373644889631295 0  0.3125770755826865 0.9373150578239104 0  0.3751004802093845 0.9372527522960701 0  0.4376291410632107 0.93
[...]
<PointData  Vectors="f_95-0"> 
<DataArray  type="Float64"  Name="f_95-0"  NumberOfComponents="3" format="ascii">0.0000000000000000e+00 0.0000000000000000e+00 0.0000000000000000e+00  3.5374291234418364e-04 -3.8379913564777102e-02 0.0000000000000000e+00  1.0034440004781549e-03 -6.6046541190827382e-02 0.0000000000000000e+00  1.8078149317735117e-03 -8.3258000020701994e-02 0.0000000000000000e+00  2.7385745693270379e-03 -9.1741201864410621e-02 0.0000000000000000e+00  3.7478292861262432e-03 -9.3583102699324280e-02 0.0000000000000000e+00  4.7976628065764691e-03 -9.0746359229188708e-02 0.0000000000000000e+00  5.8579888371503835e-03 -8.4841301283052825e-02 0.0000000000000000e+00  6.9043624689736488e-03 -7.7064321793654175e-02 0.0000000000000000e+00  7.9143052912486918e-03 -6.8230786820349165e-02 0.0000000000000000e+00  8.8633122729645554e-03 -5.8853044135647112e-02 0.0000000000000000e+00  9.7205472792310805e-03 -4.9230550442752881e-02 0.0000000000000000e+00  1.0445290661305978e-02 -3.9533632749393810e-02 0.0000000000000000e+00  1.0968369468849198e-02 -2.9860110867524020e-02 0.0000000000000000e+00  1.1202152466172378e-02 -2.0316185772338624e-02 0.0000000000000000e+00  1.1329107656419051e-02 -1.0890484836959757e-02 0.0000000000000000e+00  5.5588560656291870e-03 -5.0848717889836513e-03 0.0000000000000000e+00  0.0000000000000000e+00 0.0000000000000000e+00 0.0000000000000000e+00  3.3792861154129019e-04 -3.8951817778392538e-02 0.0000000000000000e+00  1.0976422162548335e-03 -6.6826823026430504e-02 0.0000000000000000e+00  2.0855342364458039e-03 -8.4194878888480928e-02 0.0000000000000000e+00  3.2324258408293273e-03 -9.2782503685300291e-02 0.0000000000000000e+00  4.4752126158145149e-03 -9.4684647839934383e-02 0.0000000000000000e+00  5.7688346387686868e-03 -9.1872630049164447e-02 0.0000000000000000e+00  7.0775094372803144e-03 -8.5963862304454075e-02 0.0000000000000000e+00  8.3716805308130804e-03 -7.8158200231553759e-02 0.0000000000000000e+00  9.6232211448607722e-03 -6.9270432176220781e-02 0.0000000000000000e+00  1.0801359932453633e-02 -5.9808414034638609e-02 0.0000000000000000e+00  1.1869356463936694e-02 -5.0062976977820924e-02 0.0000000000000000e+00  1.2780191502933868e-02 -4.0188577240866448e-02 0.0000000000000000e+00  1.3471549690914851e-02 -3.0264787295694866e-02 0.0000000000000000e+00  1.3884973102521755e-02 -2.0332707880950159e-02 0.0000000000000000e+00  1.3663823738707410e-02 -1.0329449714223182e-02 0.0000000000000000e+00  1.3932200406601824e-02 -1.2898199475383165e-03 0.0000000000000000e+00  0.0000000000000000e+00 0.0000000000000000e+00 0.0000000000000000e+00  4.0807350126829034e-04 -3.9628203440866504e-02 0.0000000000000000e+00  1.4513891567117091e-03 -6.7898770460004435e-02 0.0000000000000000e+00  2.8961019964083854e-03 -8.5513213905673305e-02 0.0000000000000000e+00  4.5955341053816375e-03 -9.4254875179113184e-02 0.0000000000000000e+00  6.4484726612315212e-03 -9.6245114088818640e-02 0.0000000000000000e+00  8.3870913589809831e-03 -9.3472404079922924e-02 0.0000000000000000e+00  1.0359511220720867e-02 -8.7564255323602180e-02 0.0000000000000000e+00  1.2321306356530590e-02 -7.9723894994267810e-02 0.0000000000000000e+00  1.4227895261834404e-02 -7.0764257337496014e-02 0.0000000000000000e+00  1.6030279060436810e-02 -6.1187775398948471e-02 0.0000000000000000e+00  1.7673196115630514e-02 -5.1277522606020469e-02 0.0000000000000000e+00  1.9095876106057355e-02 -4.1178957101504605e-02 0.0000000000000000e+00  2.0237226872526822e-02 -3.0962133887609045e-02 0.0000000000000000e+00  2.1032460560967230e-02 -2.0658359869154309e-02 0.0000000000000000e+00  2.1546282631993655e-02 -1.0338432157586968e-02 0.0000000000000000e+00  2.1679708070650963e-02 -4.8073483767122668e-04 0.0000000000000000e+00  0.0000000000000000e+00 0.0000000000000000e+00 0.0000000000000000e+00  5.6591844855865040e-04 -4.0541811855278956e-02 0.0000000000000000e+00  2.0361111633670176e-03 -6.9437823346341854e-02 0.0000000000000000e+00  4.1177209530567204e-03 -8.7451936527200166e-02 0.0000000000000000e+00  6.5931684604280489e-03 -9.6443007630825375e-02 0.0000000000000000e+00  9.3172657937708164e-03 -9.8582547213424881e-02 0.0000000000000000e+00  1.2191961780779600e-02 -9.5888453991781142e-02 0.0000000000000000e+00  1.5142544170185372e-02 -9.0001491146505200e-02 0.0000000000000000e+00  1.8101445942003143e-02 -8.2126815044829896e-02 0.0000000000000000e+00  2.0997508797354732e-02 -7.3072521953145411e-02 0.0000000000000000e+00  2.3751443781953645e-02 -6.3333464095792713e-02 0.0000000000000000e+00  2.6276162344261764e-02 -5.3186052233545014e-02 0.0000000000000000e+00  2.8482070729429459e-02 -4.2774031681017698e-02 0.0000000000000000e+00  3.0286290571652209e-02 -3.2175989523041036e-02 0.0000000000000000e+00  3.1636648641907454e-02 -2.1459475198926721e-02 0.0000000000000000e+00  3.2495420813823200e-02 -1.0723564176012890e-02 0.0000000000000000e+00  3.2806767235779064e-02 -2.2962405456168107e-04 0.0000000000000000e+00  0.0000000000000000e+00 0.0000000000000000e+00 0.0000000000000000e+00  7.6689828168708188e-04 -4.1802532480193534e-02 0.0000000000000000e+00  2.7580806717171160e-03 -7.1578188433506121e-02 0.0000000000000000e+00  5.5911376669330005e-03 -9.0175580366543523e-02 0.0000000000000000e+00  8.9875344030276288e-03 -9.9546843304645832e-02 0.0000000000000000e+00  1.2762898943481369e-02 -1.0193198112314830e-01 0.0000000000000000e+00  1.6790760564646484e-02 -9.9387336663944392e-02 0.0000000000000000e+00  2.0970868358876269e-02 -9.3567637670221498e-02 0.0000000000000000e+00  2.5205863255894828e-02 -8.5675916079096026e-02 0.0000000000000000e+00  2.9387986893448598e-02 -7.6509836523357369e-02 0.0000000000000000e+00  3.3394615219134394e-02 -6.6552112776947212e-02 0.0000000000000000e+00  3.7090726699659689e-02 -5.6071199892974530e-02 0.0000000000000000e+00  4.0337930513006527e-02 -4.5212999636763763e-02 0.0000000000000000e+00  4.3009623292726673e-02 -3.4074743240934555e-02 0.0000000000000000e+00  4.5006974212731830e-02 -2.2757337476096449e-02 0.0000000000000000e+00  4.6261030510071355e-02 -1.1394504576436629e-02 0.0000000000000000e+00  4.6740413931753565e-02 -1.4196952349667091e-04 0.0000000000000000e+00  0.0000000000000000e+00 0.0000000000000000e+00 0.0000000000000000e+00  9.8223276551990309e-04 -4.3458573254926781e-02 0.0000000000000000e+00  3.5289206035974746e-03 -7.4391570522340938e-02 0.0000000000000000e+00  7.1646279064430628e-03 -9.3779280893774242e-02 0.0000000000000000e+00  1.1561949369993446e-02 -1.0369527882529403e-01 0.0000000000000000e+00  1.6509171568910158e-02 -1.0646314307412617e-01 0.0000000000000000e+00  2.1858711981682200e-02 -1.0418117453063079e-01 0.0000000000000000e+00  2.7484784270353509e-02 -9.8513501304364204e-02 0.0000000000000000e+00  3.3254292315562817e-02 -9.0652372410068544e-02 0.0000000000000000e+00  3.9012142989863573e-02 -8.1375620542563046e-02 0.0000000000000000e+00  4.4577705882895002e-02 -7.1145951387913617e-02 0.0000000000000000e+00  4.9749630954436651e-02 -6.0218938815260178e-02 0.0000000000000000e+00  5.4318927371499688e-02 -4.8741715564843170e-02 0.0000000000000000e+00  5.8088732899003404e-02 -3.6833644837349661e-02 0.0000000000000000e+00  6.0904527079629331e-02 -2.4640857783564299e-02 0.0000000000000000e+00  6.2679156892415391e-02 -1.2347130569980786e-02 0.0000000000000000e+00  6.3426810048352961e-02 -1.6632825167652387e-04 0.0000000000000000e+00  0.0000000000000000e+00 0.0000000000000000e+00 0.0000000000000000e+00  1.1883429122649058e-03 -4.5514841284431000e-02 0.0000000000000000e+00  4.2707814927991569e-03 -7.7889198649711680e-02 0.0000000000000000e+00  8.6971973263669441e-03 -9.8294609003884120e-02 0.0000000000000000e+00  1.4114833633273849e-02 -1.0895841350982942e-01 0.0000000000000000e+00  2.0304547424804972e-02 -1.1229785010204354e-01 0.0000000000000000e+00  2.7108755014261712e-02 -1.1044850138475659e-01 0.0000000000000000e+00  3.4377380400455453e-02 -1.0507143329732609e-01 0.0000000000000000e+00  4.1934995700098003e-02 -9.7333365703805283e-02 0.0000000000000000e+00  4.9566946924312169e-02 -8.7978653787075353e-02 0.0000000000000000e+00  5.7018580037695381e-02 -7.7438448113129277e-02 0.0000000000000000e+00  6.4002799541152233e-02 -6.5945754840103579e-02 0.0000000000000000e+00  7.0215695305664974e-02 -5.3643100245203759e-02 0.0000000000000000e+00  7.5362323796480474e-02 -4.0676262824295324e-02 0.0000000000000000e+00  7.9209811300986130e-02 -2.7259731541738833e-02 0.0000000000000000e+00  8.1642075268850534e-02 -1.3692872257451189e-02 0.0000000000000000e+00  8.2768250756743017e-02 -3.1291128258836148e-04 0.0000000000000000e+00  0.0000000000000000e+00 0.0000000000000000e+00 0.0000000000000000e+00  1.3618726191817279e-03 -4.7933179401005145e-02 0.0000000000000000e+00  4.9040749340833866e-03 -8.2019022822470242e-02 0.0000000000000000e+00  1.0040911542798037e-02 -1.0368772845095552e-01 0.0000000000000000e+00  1.6433690681925649e-02 -1.1534958686576140e-01 0.0000000000000000e+00  2.3884527667583585e-02 -1.1951541633592158e-01 0.0000000000000000e+00  3.2239900860634906e-02 -1.1834126670104936e-01 0.0000000000000000e+00  4.1326232285061493e-02 -1.1346239742858172e-01 0.0000000000000000e+00  5.0917067743153584e-02 -1.0599844318428663e-01 0.0000000000000000e+00  6.0724370642081270e-02 -9.6642558858671984e-02 0.0000000000000000e+00  7.0403578621283408e-02 -8.5779522894453022e-02 0.0000000000000000e+00  7.9562939693740495e-02 -7.3606956694755338e-02 0.0000000000000000e+00  8.7778696983722149e-02 -6.0252350357619340e-02 0.0000000000000000e+00  9.4623840272772847e-02 -4.5882665817770146e-02 0.0000000000000000e+00  9.9741590758508025e-02 -3.0801548244795338e-02 0.0000000000000000e+00  1.0294060788243792e-01 -1.5505580755181237e-02 0.0000000000000000e+00  1.0444854827223297e-01 -5.8230415076449276e-04 0.0000000000000000e+00  0.0000000000000000e+00 0.0000000000000000e+00 0.0000000000000000e+00  1.4745262459936331e-03 -5.0628371099971890e-02 0.0000000000000000e+00  5.3333528753379232e-03 -8.6658104158937599e-02 0.0000000000000000e+00  1.1019183435191119e-02 -1.0985063437337463e-01 0.0000000000000000e+00  1.8264564811052795e-02 -1.2281732785622103e-01 0.0000000000000000e+00  2.6929488291738857e-02 -1.2814463775405449e-01 0.0000000000000000e+00  3.6879417166038118e-02 -1.2797500745063420e-01 0.0000000000000000e+00  4.7915254672827687e-02 -1.2388265843838342e-01 0.0000000000000000e+00  5.9747621650849632e-02 -1.1691172055121539e-01 0.0000000000000000e+00  7.2000253076637308e-02 -1.0768421569007865e-01 0.0000000000000000e+00  8.4224032794776776e-02 -9.6525128002393018e-02 0.0000000000000000e+00  9.5909188539574072e-02 -8.3582886831624681e-02 0.0000000000000000e+00  1.0649723772968193e-01 -6.8944043505926395e-02 0.0000000000000000e+00  1.1539229635770849e-01 -5.2768038608491351e-02 0.0000000000000000e+00  1.2203419057373205e-01 -3.5459988948437382e-02 0.0000000000000000e+00  1.2605288185352723e-01 -1.7808982103409858e-02 0.0000000000000000e+00  1.2773730865797722e-01 -8.2990286553466573e-04 0.0000000000000000e+00  0.0000000000000000e+00 0.0000000000000000e+00 0.0000000000000000e+00  1.4895259021057853e-03 -5.3456114111114048e-02 0.0000000000000000e+00  5.4383084325982231e-03 -9.1596930710266394e-02 0.0000000000000000e+00  1.1413144738990659e-02 -1.1658521604858853e-01 0.0000000000000000e+00  1.9292483378999956e-02 -1.3122816888780081e-01 0.0000000000000000e+00  2.9034838656193409e-02 -1.3814223756185509e-01 0.0000000000000000e+00  4.0536124570327979e-02 -1.3939984893961607e-01 0.0000000000000000e+00  5.3564224299846475e-02 -1.3646531903683268e-01 0.0000000000000000e+00  6.7751216159509506e-02 -1.3027370320520121e-01 0.0000000000000000e+00  8.2616623671981623e-02 -1.2135834595688838e-01 0.0000000000000000e+00  9.7596564923711354e-02 -1.0997639445587723e-01 0.0000000000000000e+00  1.1206725797999666e-01 -9.6212681233135006e-02 0.0000000000000000e+00  1.2533770298997146e-01 -8.0085625996513601e-02 0.0000000000000000e+00  1.3661543935559753e-01 -6.1710292316297079e-02 0.0000000000000000e+00  1.4505691552586236e-01 -4.1525441909982495e-02 0.0000000000000000e+00  1.4992603340043253e-01 -2.0600074382240801e-02 0.0000000000000000e+00  1.5130446981980883e-01 -6.4325111317977139e-04 0.0000000000000000e+00  0.0000000000000000e+00 0.0000000000000000e+00 0.0000000000000000e+00  1.3615342828131984e-03 -5.6198247239203025e-02 0.0000000000000000e+00  5.0765345793358785e-03 -9.6523252724154435e-02 0.0000000000000000e+00  1.0969444881619321e-02 -1.2358684471216960e-01 0.0000000000000000e+00  1.9151061931158973e-02 -1.4034454570670912e-01 0.0000000000000000e+00  2.9714114966070945e-02 -1.4935870819736458e-01 0.0000000000000000e+00  4.2586524133771814e-02 -1.5255011064564414e-01 0.0000000000000000e+00  5.7488157667631004e-02 -1.5121251026731439e-01 0.0000000000000000e+00  7.3953826015656837e-02 -1.4613709351257659e-01 0.0000000000000000e+00  9.1384167082066217e-02 -1.3775678990025550e-01 0.0000000000000000e+00  1.0910109169650974e-01 -1.2626378650453809e-01 0.0000000000000000e+00  1.2638407548055078e-01 -1.1169075062454656e-01 0.0000000000000000e+00  1.4243670839961917e-01 -9.3981755310930476e-02 0.0000000000000000e+00  1.5634090716926924e-01 -7.3076404963994271e-02 0.0000000000000000e+00  1.6693004847310361e-01 -4.9196584246525336e-02 0.0000000000000000e+00  1.7273843203793970e-01 -2.3653322829189374e-02 0.0000000000000000e+00  1.7300369133883639e-01 7.3107168979412516e-04 0.0000000000000000e+00  0.0000000000000000e+00 0.0000000000000000e+00 0.0000000000000000e+00  1.0430893088177267e-03 -5.8554540815847662e-02 0.0000000000000000e+00  4.1086662063902065e-03 -1.0101891647049976e-01 0.0000000000000000e+00  9.4477321393134465e-03 -1.3043983543461887e-01 0.0000000000000000e+00  1.7484398245076749e-02 -1.4980562887779006e-01 0.0000000000000000e+00  2.8460452612339964e-02 -1.6149420221842417e-01 0.0000000000000000e+00  4.2320194398985066e-02 -1.6717142368073529e-01 0.0000000000000000e+00  5.8713953872719445e-02 -1.6789542882074188e-01 0.0000000000000000e+00  7.7063447284552555e-02 -1.6428299463164034e-01 0.0000000000000000e+00  9.6645378109379912e-02 -1.5666349907515634e-01 0.0000000000000000e+00  1.1667400535482141e-01 -1.4518729695732302e-01 0.0000000000000000e+00  1.3634946700118813e-01 -1.2987668361665825e-01 0.0000000000000000e+00  1.5487541804701185e-01 -1.1059499429069529e-01 0.0000000000000000e+00  1.7138726697332923e-01 -8.7022590000633351e-02 0.0000000000000000e+00  1.8436004240729328e-01 -5.9063819634461487e-02 0.0000000000000000e+00  1.9152311102411104e-01 -2.7749536102764611e-02 0.0000000000000000e+00  1.9025203902023805e-01 4.1378986924067267e-03 0.0000000000000000e+00  0.0000000000000000e+00 0.0000000000000000e+00 0.0000000000000000e+00  5.0357344837157619e-04 -6.0156848546620470e-02 0.0000000000000000e+00  2.4622899431400399e-03 -1.0459209718538855e-01 0.0000000000000000e+00  6.7319332601318248e-03 -1.3664288945480549e-01 0.0000000000000000e+00  1.4088110647471537e-02 -1.5912087976457212e-01 0.0000000000000000e+00  2.4893535862760538e-02 -1.7404740107121819e-01 0.0000000000000000e+00  3.9072189016184443e-02 -1.8272483974603621e-01 0.0000000000000000e+00  5.6185577603558017e-02 -1.8592169901791436e-01 0.0000000000000000e+00  7.5545002690204879e-02 -1.8406236817671109e-01 0.0000000000000000e+00  9.6319735853641092e-02 -1.7737836413890620e-01 0.0000000000000000e+00  1.1762916245374729e-01 -1.6600700265249804e-01 0.0000000000000000e+00  1.3862532038867592e-01 -1.5001481339449715e-01 0.0000000000000000e+00  1.5860696741744662e-01 -1.2931875916831453e-01 0.0000000000000000e+00  1.7685354440086465e-01 -1.0354384975491439e-01 0.0000000000000000e+00  1.9216661866496448e-01 -7.1613173775122663e-02 0.0000000000000000e+00  2.0208982324468935e-01 -3.2290133269802831e-02 0.0000000000000000e+00  2.0091768499970838e-01 9.5182259423444680e-03 0.0000000000000000e+00  0.0000000000000000e+00 0.0000000000000000e+00 0.0000000000000000e+00  -2.2946071549576595e-04 -6.0639092275504874e-02 0.0000000000000000e+00  2.5895885902940880e-04 -1.0678090642482549e-01 0.0000000000000000e+00  3.0324995198633491e-03 -1.4168690632561945e-01 0.0000000000000000e+00  9.1516305917685448e-03 -1.6768589955925417e-01 0.0000000000000000e+00  1.9009842515845143e-02 -1.8626089436824556e-01 0.0000000000000000e+00  3.2461727300731644e-02 -1.9827154377065784e-01 0.0000000000000000e+00  4.8984322749257708e-02 -2.0417807047288353e-01 0.0000000000000000e+00  6.7823983127898474e-02 -2.0421826156550840e-01 0.0000000000000000e+00  8.8103902684578794e-02 -1.9853471461900657e-01 0.0000000000000000e+00  1.0890156363498377e-01 -1.8725891509930723e-01 0.0000000000000000e+00  1.2934259609108889e-01 -1.7054694371114301e-01 0.0000000000000000e+00  1.4870206459669696e-01 -1.4854063624967853e-01 0.0000000000000000e+00  1.6650647669795524e-01 -1.2097902283257948e-01 0.0000000000000000e+00  1.8317475998246624e-01 -8.6104624215233475e-02 0.0000000000000000e+00  1.9689776012939691e-01 -3.9998023320233299e-02 0.0000000000000000e+00  1.9306374345751479e-01 1.6559359659057048e-02 0.0000000000000000e+00  0.0000000000000000e+00 0.0000000000000000e+00 0.0000000000000000e+00  -9.8288799503465276e-04 -5.9804757435901593e-02 0.0000000000000000e+00  -1.9620611908840943e-03 -1.0735298958670146e-01 0.0000000000000000e+00  -8.0369433417268321e-04 -1.4518496474064105e-01 0.0000000000000000e+00  3.5971739434368182e-03 -1.7481001193269044e-01 0.0000000000000000e+00  1.1521379926277405e-02 -1.9705678031311469e-01 0.0000000000000000e+00  2.2728045608707538e-02 -2.1234320580176058e-01 0.0000000000000000e+00  3.6672466051085165e-02 -2.2086395334579367e-01 0.0000000000000000e+00  5.2650586029456770e-02 -2.2270965532159454e-01 0.0000000000000000e+00  6.9875458315038497e-02 -2.1794583239589013e-01 0.0000000000000000e+00  8.7513505429417549e-02 -2.0667179901612759e-01 0.0000000000000000e+00  1.0470534191754956e-01 -1.8907728448841266e-01 0.0000000000000000e+00  1.2058760435642296e-01 -1.6547364130173711e-01 0.0000000000000000e+00  1.3474236742498644e-01 -1.3618565236186037e-01 0.0000000000000000e+00  1.4779746227647414e-01 -1.0115603315167911e-01 0.0000000000000000e+00  1.6090666873380460e-01 -5.6231250139198642e-02 0.0000000000000000e+00  1.7753374570424968e-01 1.0929803854459600e-02 0.0000000000000000e+00  0.0000000000000000e+00 0.0000000000000000e+00 0.0000000000000000e+00  -1.2616536962049864e-03 -5.7986638125114134e-02 0.0000000000000000e+00  -2.8988159222725920e-03 -1.0665417160737929e-01 0.0000000000000000e+00  -2.9016417801704516e-03 -1.4706052365347846e-01 0.0000000000000000e+00  -5.5528066650264985e-04 -1.7975485541752645e-01 0.0000000000000000e+00  4.1979618580860042e-03 -2.0498302929891599e-01 0.0000000000000000e+00  1.1095980062302127e-02 -2.2284745711575785e-01 0.0000000000000000e+00  1.9732689365470586e-02 -2.3338585964913278e-01 0.0000000000000000e+00  2.9644741061168926e-02 -2.3661152824340972e-01 0.0000000000000000e+00  4.0340590896324940e-02 -2.3253807474968780e-01 0.0000000000000000e+00  5.1293798947174618e-02 -2.2120119607393746e-01 0.0000000000000000e+00  6.1893686428907350e-02 -2.0268852106445734e-01 0.0000000000000000e+00  7.1400983486615541e-02 -1.7717530449932786e-01 0.0000000000000000e+00  7.8867394455492928e-02 -1.4509961857541703e-01 0.0000000000000000e+00  8.2674524628805604e-02 -1.0708152237271132e-01 0.0000000000000000e+00  8.4675889773893773e-02 -6.2559348927629266e-02 0.0000000000000000e+00  7.4161815994520652e-02 -1.9663853923527160e-03 0.0000000000000000e+00  0.0000000000000000e+00 -6.8385201264309604e-18 0.0000000000000000e+00  0.0000000000000000e+00 -5.6752919597378985e-02 0.0000000000000000e+00  0.0000000000000000e+00 -1.0593878324844076e-01 0.0000000000000000e+00  0.0000000000000000e+00 -1.4755759095318535e-01 0.0000000000000000e+00  0.0000000000000000e+00 -1.8160934271161272e-01 0.0000000000000000e+00  0.0000000000000000e+00 -2.0809403852372291e-01 0.0000000000000000e+00  0.0000000000000000e+00 -2.2701167838951591e-01 0.0000000000000000e+00  0.0000000000000000e+00 -2.3836226230899168e-01 0.0000000000000000e+00  0.0000000000000000e+0