<?xml version="1.0"?>
<VTKFile type="UnstructuredGrid"  version="0.1"  >
<UnstructuredGrid>
<Piece  NumberOfPoints="289" NumberOfCells="512">
<Points>
<DataArray  type="Float64"  NumberOfComponents="3"  format="ascii">0 0 0  0.0625 0 0  0.125 0 0  0.1875 0 0  0.25 0 0  0.3125 0 0  0.375 0 0  0.4375 0 0  0.5 0 0  0.5625 0 0  0.625 0 0  0.6875 0 0  0.75 0 0  0.8125 0 0  0.875 0 0  0.9375 0 0  1 0 0  0 0.0625 0  0.06259742012167764 0.06247212027341199 0  0.1251980049614701 0.06244367973253179 0  0.1878050226524142 0.06241414484270311 0  0.2504218547675878 0.06238306707771619 0  0.3130520536099164 0.06235013987701214 0  0.3756994031698805 0.06231527217611011 0  0.4383680000485265 0.06227868026365217 0  0.5010623974274726 0.06224099335421798 0  0.5637879193778836 0.06220335535978967 0  0.6265514120442435 0.06216748050133333 0  0.6893631135751705 0.06213557315120129 0  0.7522414714386473 0.06210992756043231 0  0.8152260725357243 0.06209180407385595 0  0.8784139448385319 0.06207856132566758 0  0.9420656475804716 0.06205607787446935 0  1.00692307450275 0.0619796541962237 0  0 0.125 0  0.0626917230338026 0.124944772561996 0  0.1253897569630436 0.124888379165072 0  0.1881006262544254 0.1248297032191429 0  0.2508311056960325 0.1247677861304058 0  0.3135883481534919 0.1247019368982646 0  0.3763800187886428 0.1246318783333119 0  0.4392144605131228 0.1245579372696979 0  0.5021009527065334 0.1244812765855402 0  0.5650502064717141 0.124404146446962 0  0.6280754134852917 0.124330093123947 0  0.6911945253043474 0.1242639968970646 0  0.7544351246574056 0.1242117174018915 0  0.817844245858371 0.1241790763451197 0  0.8815053792938642 0.1241703089937673 0  0.9455550976881901 0.1241887839124855 0  1.010137345052929 0.1242542034250494 0  0 0.1875 0  0.06277974845535934 0.1874185747137878 0  0.1255688683640119 0.1873353002453052 0  0.1883770574608517 0.1872483882127421 0  0.2512144238004544 0.1871562558552161 0  0.314091693583501 0.1870576774479893 0  0.3770204210346982 0.1869519970379476 0  0.4400132183923894 0.186839421775537 0  0.5030840490392166 0.1867214078890528 0  0.5662486721676246 0.1866011317676434 0  0.6295253969211325 0.186483994927888 0  0.6929363678914481 0.1863780234087016 0  0.7565094906196033 0.1862938503407914 0  0.8202801730531866 0.1862436139067354 0  0.8842884304538305 0.1862371802153132 0  0.9485568156211657 0.1862709028348671 0  1.013018435546514 0.186291146387613 0  0 0.25 0  0.06285844028270168 0.2498942207422922 0  0.1257291480240753 0.249785810199064 0  0.1886248284376779 0.2496721927410055 0  0.2515587815022624 0.2495510056457398 0  0.3145452015414402 0.2494202720809617 0  0.3775994710406024 0.2492786626926451 0  0.4407384516413583 0.2491258834938646 0  0.5039807782039786 0.2489632301195344 0  0.5673471570739639 0.2487943421817785 0  0.6308606289770923 0.248626163587966 0  0.6945465960535161 0.2484700400053954 0  0.7584319142460925 0.2483427142768405 0  0.8225410525978771 0.2482666222252606 0  0.8868845656644186 0.2482682004780593 0  0.9514312968958519 0.2483719360640164 0  1.016057101265067 0.248588871231062 0  0 0.3125 0  0.06292491643990183 0.312372499878492 0  0.1258647402382156 0.3122414867520121 0  0.1888349232889365 0.3121034759066172 0  0.2518517228324388 0.3119551474426694 0  0.3149326100135562 0.3117935087066308 0  0.3780966714384953 0.3116161691613037 0  0.441364996134478 0.3114217873611407 0  0.5047610277592439 0.3112107687628953 0  0.5683108272093144 0.3109863136673365 0  0.6320430987625985 0.3107559273675997 0  0.6959886070525301 0.3105334861352665 0  0.7601781148716207 0.3103418515657695 0  0.8246370486117482 0.3102157467162568 0  0.8893739161326453 0.3102040271039374 0  0.9543597118699731 0.3103696109816138 0  1.019502543801361 0.3107847366789542 0  0 0.375 0  0.06297655082998165 0.3748542955641345 0  0.125970287987275 0.3747041228480597 0  0.1889990403578015 0.3745449883808057 0  0.2520816767150833 0.3743724485346102 0  0.3152386437870059 0.3741822173882059 0  0.3784925116285882 0.3739703979756728 0  0.4418685229701946 0.3737339156396105 0  0.5053951314661989 0.3734712720655894 0  0.569104484450043 0.3731837965255825 0  0.6330327343024561 0.3728776474659291 0  0.6972199020313087 0.3725669000198447 0  0.7617087029179249 0.3722780936179494 0  0.8265412662798243 0.3720564812669175 0  0.8917523467167918 0.3719736849847794 0  0.9573586694498483 0.3721352997460742 0  1.023349208234768 0.3726854574288491 0  0 0.4375 0  0.06301107135724807 0.4373405580279601 0  0.1260411299842031 0.4371756764626059 0  0.1891098895152618 0.436999810757348 0  0.252238351775407 0.4368072815342096 0  0.3154494908473389 0.4365922761646887 0  0.3787689767875373 0.4363489612040591 0  0.4422259572580061 0.4360717914334576 0  0.505853922580885 0.4357561598097981 0  0.5696916925922149 0.4353996297482268 0  0.633784580733541 0.4350041457899798 0  0.6981858026285024 0.4345798465114206 0  0.7629581827214693 0.4341513847405817 0  0.828176165441777 0.4337678517636975 0  0.8939281808731268 0.4335170849396844 0  0.9603201783702761 0.4335436179856534 0  1.027484645950689 0.4340668725956171 0  0 0.5 0  0.06302667530125118 0.4998322462630879 0  0.1260735357616225 0.4996581548875388 0  0.1891615558280257 0.4994711827108596 0  0.2523132403920981 0.4992644084815234 0  0.3155534582743559 0.4990303781053367 0  0.3789103600934207 0.4987610168123038 0  0.4424164314067366 0.4984476797022209 0  0.5061097707048128 0.4980814782519806 0  0.5700357655193964 0.4976541428475281 0  0.634249507543964 0.4971599049923595 0  0.6988195936308391 0.4965992782533388 0  0.7638344512751224 0.495986264073856 0  0.829412979604384 0.4953613720795739 0  0.8957219363735907 0.494813331958682 0  0.9630030749641586 0.4945104336243239 0  1.031615853234437 0.4947344682824739 0  0 0.5625 0  0.06302215821488609 0.5623302395360795 0  0.1260649720891162 0.5621534315683004 0  0.1891499219347578 0.5619622138102208 0  0.2523002270761957 0.5617485724041199 0  0.3155418124997352 0.561503496165881 0  0.3789044057242157 0.5612166218161299 0  0.4424228451773715 0.5608759005777801 0  0.5061387502708364 0.560467369851771 0  0.5701028638969028 0.5599752271394259 0  0.6343787336391804 0.5593826445388105 0  0.6990491323958056 0.5586742736221055 0  0.7642279885598035 0.5578424527622183 0  0.8300827648147329 0.5569011659271267 0  0.8968747833456298 0.55591479921545 0  0.9650266217730413 0.5550493611309947 0  1.035226984713634 0.5546408750951743 0  0 0.625 0  0.062997046085718 0.624835224860229 0  0.1260143800339268 0.624663007181114 0  0.1890731169106231 0.6244754897700362 0  0.252196254288253 0.6242639047954892 0  0.3154097347593824 0.6240180327561855 0  0.3787436745168301 0.6237255549314608 0  0.4422338530370714 0.6233712650915471 0  0.5059236367313075 0.6229361224437345 0  0.5698667094359945 0.6223961824598163 0  0.6341314847920729 0.6217216006546733 0  0.6988092793825726 0.6208763440375357 0  0.7640310034877831 0.6198204564018125 0  0.8300023741748001 0.6185200064092538 0  0.8970756357340814 0.6169778991832492 0  0.9658822033314275 0.6153108719922017 0  1.037549939693883 0.6138792502932426 0  0 0.6875 0  0.06295171441100506 0.6873475741440496 0  0.1259224288820077 0.6871877431218367 0  0.1889319371034741 0.6870126178373327 0  0.2520019626545738 0.6868132081497288 0  0.3151572624524369 0.6865787238441771 0  0.378426917779877 0.6862956716987333 0  0.4418458991884721 0.6859466410874763 0  0.5054570407552978 0.6855086332107889 0  0.5693137080207074 0.6849507434694435 0  0.6334839030858965 0.6842309732683085 0  0.6980579251999204 0.683292022200253 0  0.7631656037468791 0.6820565057741909 0  0.8290192768652974 0.6804249149555095 0  0.8960209651228205 0.6782922264445339 0  0.9649984668930565 0.6756492176466213 0  1.037642954785366 0.6728997595789363 0  0 0.75 0  0.0628874738079606 0.7498672311459874 0  0.1257917046266022 0.7497276108573359 0  0.1887301710568686 0.7495737847532679 0  0.2517222044426288 0.7493972275588757 0  0.3147900648204895 0.7491874666098919 0  0.3779602158338419 0.7489310319395307 0  0.4412648649837178 0.7486099665369753 0  0.5047438260097618 0.7481996437066427 0  0.568446753584062 0.7476654942090218 0  0.6324358983450825 0.7469579997517815 0  0.6967902206666993 0.7460048737585796 0  0.7616149376814765 0.7446985830271183 0  0.8270734425489221 0.7428763442044705 0  0.8935045273397099 0.7402915279978178 0  0.9618256942365551 0.7366103608584836 0  1.034251239948544 0.7319094140151237 0  0 0.8125 0  0.06280660108538071 0.812393631683929 0  0.1256267891372214 0.8122815093684546 0  0.1884747591534012 0.8121574200967234 0  0.2513663325731226 0.8120140658966735 0  0.3143199234975488 0.8118423225499749 0  0.3773577094672197 0.8116302074787808 0  0.4405070653184585 0.8113613676761505 0  0.5038022631476788 0.8110127885680671 0  0.5672862671715571 0.8105512362812142 0  0.6310120087787462 0.8099276125722662 0  0.695041610545964 0.8090677610795097 0  0.7594409230650988 0.8078568456616314 0  0.8242697438073832 0.806110802185141 0  0.8896027043273098 0.8035188184723994 0  0.9558448776119951 0.7995218724419572 0  1.026385801645423 0.7931156090347463 0  0 0.875 0  0.06271229790017437 0.8749256788490132 0  0.1254341918768512 0.8748472004080674 0  0.1881757271070758 0.8747600568194657 0  0.2509481830980196 0.8746589030803995 0  0.3137648298837665 0.8745369735806705 0  0.3766418773522168 0.8743852537642459 0  0.4395996882227251 0.8741912413513566 0  0.5026642816269206 0.8739370305226027 0  0.5658689571423703 0.8735962832504027 0  0.6292551917177046 0.8731293749128549 0  0.6928698667423977 0.8724755411205817 0  0.7567498415682136 0.8715399122544173 0  0.8208690078777447 0.8701701031554416 0  0.8849889490150198 0.8681012681401906 0  0.9483253167230182 0.8647724889691181 0  1.00919166980493 0.8585810802684731 0  0 0.9375 0  0.06260856616775232 0.9374617875003347 0  0.1252221085013278 0.937421395356425 0  0.1878458468896911 0.9373764542575421 0  0.2504856805077424 0.9373241393050983 0  0.3131486185879217 0.9372608485602152 0  0.3758433446566797 0.9371817409681917 0  0.4385809823867453 0.93708003
[...]
<PointData  Vectors="f_95-0"> 
<DataArray  type="Float64"  Name="f_95-0"  NumberOfComponents="3" format="ascii">0.0000000000000000e+00 0.0000000000000000e+00 0.0000000000000000e+00  9.2716906032920283e-04 -1.3018830744522441e-02 0.0000000000000000e+00  2.5916740767669968e-03 -3.1192363824903861e-02 0.0000000000000000e+00  4.5926712261489611e-03 -4.8432712636650353e-02 0.0000000000000000e+00  6.9207626855501353e-03 -6.2050620045617948e-02 0.0000000000000000e+00  9.5003580784166798e-03 -7.1084805694895392e-02 0.0000000000000000e+00  1.2256367369291433e-02 -7.5591480322073884e-02 0.0000000000000000e+00  1.5105882941753615e-02 -7.6142489903101865e-02 0.0000000000000000e+00  1.7959680693625558e-02 -7.3501268975582817e-02 0.0000000000000000e+00  2.0722257037740648e-02 -6.8431129486961728e-02 0.0000000000000000e+00  2.3290661016608122e-02 -6.1600146274647216e-02 0.0000000000000000e+00  2.5551054708842239e-02 -5.3549278248282629e-02 0.0000000000000000e+00  2.7376740423614637e-02 -4.4701053269662845e-02 0.0000000000000000e+00  2.8590168521364243e-02 -3.5361465766529598e-02 0.0000000000000000e+00  2.8955692226815714e-02 -2.5817059077815029e-02 0.0000000000000000e+00  2.8658653501156459e-02 -1.6379033952992852e-02 0.0000000000000000e+00  1.3528912328966121e-02 -1.3487926813891308e-02 0.0000000000000000e+00  0.0000000000000000e+00 0.0000000000000000e+00 0.0000000000000000e+00  7.6842606845399226e-04 -1.4492940620823427e-02 0.0000000000000000e+00  2.4222375571451094e-03 -3.3122336340838464e-02 0.0000000000000000e+00  4.5103574948028042e-03 -5.0732816314932316e-02 0.0000000000000000e+00  6.9624440530775588e-03 -6.4636580600874571e-02 0.0000000000000000e+00  9.6882911785100348e-03 -7.3869279463511420e-02 0.0000000000000000e+00  1.2608675816190061e-02 -7.8481171590548085e-02 0.0000000000000000e+00  1.5634780615759267e-02 -7.9040437662557056e-02 0.0000000000000000e+00  1.8672637634061323e-02 -7.6306956827615763e-02 0.0000000000000000e+00  2.1622339237084176e-02 -7.1039179195470314e-02 0.0000000000000000e+00  2.4377374347508782e-02 -6.3897936338058431e-02 0.0000000000000000e+00  2.6824010187118250e-02 -5.5413091534507852e-02 0.0000000000000000e+00  2.8838285532049698e-02 -4.5983014389520682e-02 0.0000000000000000e+00  3.0275672327382055e-02 -3.5885163076523063e-02 0.0000000000000000e+00  3.1043035789586459e-02 -2.5284019756108507e-02 0.0000000000000000e+00  3.0516652103762809e-02 -1.4057135731802615e-02 0.0000000000000000e+00  3.1021671203865009e-02 -4.8202675876888304e-03 0.0000000000000000e+00  0.0000000000000000e+00 0.0000000000000000e+00 0.0000000000000000e+00  6.2244100286021255e-04 -1.5774175271745350e-02 0.0000000000000000e+00  2.2454060095932482e-03 -3.5111707371022177e-02 0.0000000000000000e+00  4.5237662509888124e-03 -5.3203521080170589e-02 0.0000000000000000e+00  7.2924275201005162e-03 -6.7464498252084698e-02 0.0000000000000000e+00  1.0420942214887473e-02 -7.6944124763588972e-02 0.0000000000000000e+00  1.3803665867945816e-02 -8.1693641381023460e-02 0.0000000000000000e+00  1.7333024533692266e-02 -8.2281200892421941e-02 0.0000000000000000e+00  2.0900324602129799e-02 -7.9464844383578898e-02 0.0000000000000000e+00  2.4392469569347906e-02 -7.3999633354782421e-02 0.0000000000000000e+00  2.7692468122545465e-02 -6.6542372952665602e-02 0.0000000000000000e+00  3.0682347682079919e-02 -5.7619585912024950e-02 0.0000000000000000e+00  3.3250748771925631e-02 -4.7629926055261361e-02 0.0000000000000000e+00  3.5313273264884253e-02 -3.6860533842359045e-02 0.0000000000000000e+00  3.6823621091430489e-02 -2.5504207769826863e-02 0.0000000000000000e+00  3.7954803801243130e-02 -1.3773818122289078e-02 0.0000000000000000e+00  3.8614515192855609e-02 -2.4566291129876636e-03 0.0000000000000000e+00  0.0000000000000000e+00 0.0000000000000000e+00 0.0000000000000000e+00  5.9389745459642086e-04 -1.6961189941492039e-02 0.0000000000000000e+00  2.2853968735096312e-03 -3.7224050253308216e-02 0.0000000000000000e+00  4.8560546739706226e-03 -5.5991594424049065e-02 0.0000000000000000e+00  8.0992987726238534e-03 -7.0745242886663881e-02 0.0000000000000000e+00  1.1843448240938029e-02 -8.0566428373483615e-02 0.0000000000000000e+00  1.5943741207643851e-02 -8.5521259794267585e-02 0.0000000000000000e+00  2.0264282035332239e-02 -8.6183386010663943e-02 0.0000000000000000e+00  2.4671736377197887e-02 -8.3311036337779865e-02 0.0000000000000000e+00  2.9029680758805642e-02 -7.7657153879295837e-02 0.0000000000000000e+00  3.3199181018974844e-02 -6.9877902367326064e-02 0.0000000000000000e+00  3.7044763992195390e-02 -6.0506275092755496e-02 0.0000000000000000e+00  4.0449154162026740e-02 -4.9963094112431543e-02 0.0000000000000000e+00  4.3334337435489950e-02 -3.8585759692576140e-02 0.0000000000000000e+00  4.5701621913866702e-02 -2.6671308005040854e-02 0.0000000000000000e+00  4.7587234197238766e-02 -1.4489546863029135e-02 0.0000000000000000e+00  4.9007142827909016e-02 -2.4076129777468344e-03 0.0000000000000000e+00  0.0000000000000000e+00 0.0000000000000000e+00 0.0000000000000000e+00  6.4044743280414586e-04 -1.8199775975804525e-02 0.0000000000000000e+00  2.5322236320957934e-03 -3.9572237247025389e-02 0.0000000000000000e+00  5.5129174700264110e-03 -5.9223042571403484e-02 0.0000000000000000e+00  9.3667757108394662e-03 -7.4643079061603210e-02 0.0000000000000000e+00  1.3892105796288049e-02 -8.4941713597561017e-02 0.0000000000000000e+00  1.8909061189842730e-02 -9.0205362421011528e-02 0.0000000000000000e+00  2.4250809858500859e-02 -9.1016802416284917e-02 0.0000000000000000e+00  2.9753107808446144e-02 -8.8135031433961925e-02 0.0000000000000000e+00  3.5246963120845506e-02 -8.2309839472777521e-02 0.0000000000000000e+00  4.0558077975892830e-02 -7.4196659168080867e-02 0.0000000000000000e+00  4.5513707392517068e-02 -6.4338475124518762e-02 0.0000000000000000e+00  4.9959273808752994e-02 -5.3186825732136317e-02 0.0000000000000000e+00  5.3782306553630803e-02 -4.1139926887995962e-02 0.0000000000000000e+00  5.6937835502124876e-02 -2.8573187300270721e-02 0.0000000000000000e+00  5.9442269390068851e-02 -1.5828914422047365e-02 0.0000000000000000e+00  6.1419757124982169e-02 -3.1114936264600413e-03 0.0000000000000000e+00  0.0000000000000000e+00 0.0000000000000000e+00 0.0000000000000000e+00  7.3438852522761486e-04 -1.9586158347490775e-02 0.0000000000000000e+00  2.9185942898297406e-03 -4.2262984660287307e-02 0.0000000000000000e+00  6.4011659715227515e-03 -6.3003780215258584e-02 0.0000000000000000e+00  1.0960295964643239e-02 -7.9279522497020749e-02 0.0000000000000000e+00  1.6374981268237183e-02 -9.0217548164268468e-02 0.0000000000000000e+00  2.2440465758540980e-02 -9.5922962158472000e-02 0.0000000000000000e+00  2.8962276024844878e-02 -9.6986424098570861e-02 0.0000000000000000e+00  3.5743875576074821e-02 -9.4163992560674814e-02 0.0000000000000000e+00  4.2577493415780723e-02 -8.8196775429004587e-02 0.0000000000000000e+00  4.9241718772822664e-02 -7.9733522112851646e-02 0.0000000000000000e+00  5.5507635418040289e-02 -6.9322146605880333e-02 0.0000000000000000e+00  6.1156527508574116e-02 -5.7441622427927594e-02 0.0000000000000000e+00  6.6006616091700610e-02 -4.4548619527364761e-02 0.0000000000000000e+00  6.9959545760687858e-02 -3.1109216472985316e-02 0.0000000000000000e+00  7.3035611044701812e-02 -1.7570975189744580e-02 0.0000000000000000e+00  7.5486836391555234e-02 -4.2399794078184800e-03 0.0000000000000000e+00  0.0000000000000000e+00 0.0000000000000000e+00 0.0000000000000000e+00  8.5030629320147189e-04 -2.1179251120484414e-02 0.0000000000000000e+00  3.3683208530670495e-03 -4.5362939761831728e-02 0.0000000000000000e+00  7.3896070695411691e-03 -6.7394078176573127e-02 0.0000000000000000e+00  1.2684539269544368e-02 -8.4717008988639195e-02 0.0000000000000000e+00  1.9022554809760565e-02 -9.6470705288327935e-02 0.0000000000000000e+00  2.6185252750691248e-02 -1.0277376961623653e-01 0.0000000000000000e+00  3.3957976790666158e-02 -1.0421826925413079e-01 0.0000000000000000e+00  4.2115073287884358e-02 -1.0154867919097968e-01 0.0000000000000000e+00  5.0408441293260879e-02 -9.5486942221330792e-02 0.0000000000000000e+00  5.8562963863591895e-02 -8.6663129250194593e-02 0.0000000000000000e+00  6.6280757983110283e-02 -7.5616948640621143e-02 0.0000000000000000e+00  7.3257940854969103e-02 -6.2842805781764419e-02 0.0000000000000000e+00  7.9216792358650923e-02 -4.8853636754009111e-02 0.0000000000000000e+00  8.3977170229156295e-02 -3.4231552662276621e-02 0.0000000000000000e+00  8.7531502877385578e-02 -1.9623446281422142e-02 0.0000000000000000e+00  9.0284096092805299e-02 -5.5489357213260159e-03 0.0000000000000000e+00  0.0000000000000000e+00 0.0000000000000000e+00 0.0000000000000000e+00  9.6637788557384985e-04 -2.2994374509847426e-02 0.0000000000000000e+00  3.8072894437212825e-03 -4.8879370803161466e-02 0.0000000000000000e+00  8.3353894452027847e-03 -7.2386471733724006e-02 0.0000000000000000e+00  1.4315452079412427e-02 -9.0940178851152909e-02 0.0000000000000000e+00  2.1517603470115745e-02 -1.0369002873464356e-01 0.0000000000000000e+00  2.9721974530007723e-02 -1.1076179231813577e-01 0.0000000000000000e+00  3.8704190511445261e-02 -1.1273884185372864e-01 0.0000000000000000e+00  4.8216906217065383e-02 -1.1034154585891859e-01 0.0000000000000000e+00  5.7976082942173462e-02 -1.0425829161864054e-01 0.0000000000000000e+00  6.7654292977398126e-02 -9.5083567567318103e-02 0.0000000000000000e+00  7.6881087210096802e-02 -8.3328891491793233e-02 0.0000000000000000e+00  8.5254227727789830e-02 -6.9483099089584194e-02 0.0000000000000000e+00  9.2371481403569308e-02 -5.4101182000870857e-02 0.0000000000000000e+00  9.7914176753380516e-02 -3.7896213758640128e-02 0.0000000000000000e+00  1.0176186870336024e-01 -2.1790807721007419e-02 0.0000000000000000e+00  1.0436482616326427e-01 -6.6646953816148422e-03 0.0000000000000000e+00  0.0000000000000000e+00 0.0000000000000000e+00 0.0000000000000000e+00  1.0642974905673776e-03 -2.5009372159018130e-02 0.0000000000000000e+00  4.1681312743502338e-03 -5.2758495973737399e-02 0.0000000000000000e+00  9.0990442063581724e-03 -7.7895367355086217e-02 0.0000000000000000e+00  1.5621642133250568e-02 -9.7840276847595289e-02 0.0000000000000000e+00  2.3517944997081156e-02 -1.1175655865012209e-01 0.0000000000000000e+00  3.2580080722442048e-02 -1.1977080969607193e-01 0.0000000000000000e+00  4.2586963104735989e-02 -1.2244563835449085e-01 0.0000000000000000e+00  5.3281253415408188e-02 -1.2046266245047789e-01 0.0000000000000000e+00  6.4354196582649598e-02 -1.1446067598274950e-01 0.0000000000000000e+00  7.5437162122160228e-02 -1.0498012295475009e-01 0.0000000000000000e+00  8.6096547335590870e-02 -9.2479995902190706e-02 0.0000000000000000e+00  9.5833711495796489e-02 -7.7408166672052525e-02 0.0000000000000000e+00  1.0410003052471388e-01 -6.0319236999158581e-02 0.0000000000000000e+00  1.1036277166426692e-01 -4.2033348675610781e-02 0.0000000000000000e+00  1.1424745268821036e-01 -2.3786436581593535e-02 0.0000000000000000e+00  1.1598511290397767e-01 -6.9505162258342535e-03 0.0000000000000000e+00  0.0000000000000000e+00 0.0000000000000000e+00 0.0000000000000000e+00  1.1312759546498925e-03 -2.7171394591958376e-02 0.0000000000000000e+00  4.3988725727646585e-03 -5.6889640712506288e-02 0.0000000000000000e+00  9.5622259385457417e-03 -8.3754255162221306e-02 0.0000000000000000e+00  1.6389847831461947e-02 -1.0520420498183698e-01 0.0000000000000000e+00  2.4686695393173454e-02 -1.2042429146554370e-01 0.0000000000000000e+00  3.4271602908539645e-02 -1.2953683656496351e-01 0.0000000000000000e+00  4.4942377195902973e-02 -1.3307119641227080e-01 0.0000000000000000e+00  5.6447648291814825e-02 -1.3165543860495427e-01 0.0000000000000000e+00  6.8471454148570934e-02 -1.2586439570377092e-01 0.0000000000000000e+00  8.0625109666415284e-02 -1.1616884032541284e-01 0.0000000000000000e+00  9.2439597822045846e-02 -1.0294960600736323e-01 0.0000000000000000e+00  1.0334654928175149e-01 -8.6568117605234890e-02 0.0000000000000000e+00  1.1265281430899557e-01 -6.7511287139789253e-02 0.0000000000000000e+00  1.1955274673730049e-01 -4.6618036209579349e-02 0.0000000000000000e+00  1.2325177296784527e-01 -2.5362245021847040e-02 0.0000000000000000e+00  1.2333982223349525e-01 -5.6087262526510534e-03 0.0000000000000000e+00  0.0000000000000000e+00 0.0000000000000000e+00 0.0000000000000000e+00  1.1650301482523013e-03 -2.9410153588750664e-02 0.0000000000000000e+00  4.4782134968732960e-03 -6.1119844428301706e-02 0.0000000000000000e+00  9.6544467818046251e-03 -8.9723205136230028e-02 0.0000000000000000e+00  1.6462486934613389e-02 -1.1271167672039586e-01 0.0000000000000000e+00  2.4739785116291789e-02 -1.2930675805279923e-01 0.0000000000000000e+00  3.4348370781004424e-02 -1.3962454772700425e-01 0.0000000000000000e+00  4.5123700187004769e-02 -1.4414946459944095e-01 0.0000000000000000e+00  5.6839939319032161e-02 -1.4344249111616597e-01 0.0000000000000000e+00  6.9195600906004531e-02 -1.3800392913382065e-01 0.0000000000000000e+00  8.1811518014490534e-02 -1.2822612245745219e-01 0.0000000000000000e+00  9.4226061088311455e-02 -1.1439808307242408e-01 0.0000000000000000e+00  1.0585530264736430e-01 -9.6759190934530809e-02 0.0000000000000000e+00  1.1592886235845894e-01 -7.5622225715669331e-02 0.0000000000000000e+00  1.2338407079665328e-01 -5.1639867867682987e-02 0.0000000000000000e+00  1.2684247502250023e-01 -2.6327937009541967e-02 0.0000000000000000e+00  1.2483835271349188e-01 -2.0492590595068780e-03 0.0000000000000000e+00  0.0000000000000000e+00 0.0000000000000000e+00 0.0000000000000000e+00  1.1812490704239675e-03 -3.1661679978656272e-02 0.0000000000000000e+00  4.4357692416595387e-03 -6.5280641436323672e-02 0.0000000000000000e+00  9.3857818213547231e-03 -9.5508006194527900e-02 0.0000000000000000e+00  1.5783757846963658e-02 -1.1994449978758484e-01 0.0000000000000000e+00  2.3509315515546466e-02 -1.3787749359772911e-01 0.0000000000000000e+00  3.2488145984832267e-02 -1.4942006245085668e-01 0.0000000000000000e+00  4.2615968000735915e-02 -1.5500102939139984e-01 0.0000000000000000e+00  5.3714446509628415e-02 -1.5510154327135539e-01 0.0000000000000000e+00  6.5519530782618754e-02 -1.5014001285709014e-01 0.0000000000000000e+00  7.7690270578804316e-02 -1.4043261158358750e-01 0.0000000000000000e+00  8.9813142219106773e-02 -1.2618598687079191e-01 0.0000000000000000e+00  1.0137528255321646e-01 -1.0750016648880739e-01 0.0000000000000000e+00  1.1167791543888413e-01 -8.4418974790289994e-02 0.0000000000000000e+00  1.1950760446957856e-01 -5.7230428463774775e-02 0.0000000000000000e+00  1.2293602889544285e-01 -2.7145307908331945e-02 0.0000000000000000e+00  1.1904541484863282e-01 3.6571965610182962e-03 0.0000000000000000e+00  0.0000000000000000e+00 0.0000000000000000e+00 0.0000000000000000e+00  1.2202842918700287e-03 -3.3904294320083538e-02 0.0000000000000000e+00  4.3656613557118687e-03 -6.9225010194396405e-02 0.0000000000000000e+00  8.8653352034549961e-03 -1.0078996017030974e-01 0.0000000000000000e+00  1.4430932353426544e-02 -1.2641282889407263e-01 0.0000000000000000e+00  2.1002061791475322e-02 -1.4549684851846073e-01 0.0000000000000000e+00  2.8595545548986856e-02 -1.5815964705365851e-01 0.0000000000000000e+00  3.7192861464915600e-02 -1.6476287078931479e-01 0.0000000000000000e+00  4.6685345298861418e-02 -1.6569371156391710e-01 0.0000000000000000e+00  5.6866052919538092e-02 -1.6128158541967888e-01 0.0000000000000000e+00  6.7447603112858828e-02 -1.5177411278626210e-01 0.0000000000000000e+00  7.8088793219417238e-02 -1.3732076000028692e-01 0.0000000000000000e+00  8.8418930212855101e-02 -1.1793019708022745e-01 0.0000000000000000e+00  9.7936951519994195e-02 -9.3434151683306862e-02 0.0000000000000000e+00  1.0564375942720583e-01 -6.3511275605285133e-02 0.0000000000000000e+00  1.0956695990533673e-01 -2.8208414143114854e-02 0.0000000000000000e+00  1.0565897633843727e-01 1.0151298371139879e-02 0.0000000000000000e+00  0.0000000000000000e+00 0.0000000000000000e+00 0.0000000000000000e+00  1.3421622793731429e-03 -3.6191341113915927e-02 0.0000000000000000e+00  4.3968063763598474e-03 -7.2853556598391975e-02 0.0000000000000000e+00  8.2516350036210325e-03 -1.0525453532501665e-01 0.0000000000000000e+00  1.2574219459071020e-02 -1.3160273726521421e-01 0.0000000000000000e+00  1.7403797711416303e-02 -1.5148373110396571e-01 0.0000000000000000e+00  2.2879490179053153e-02 -1.6502269801582775e-01 0.0000000000000000e+00  2.9088465883123762e-02 -1.7249780102112500e-01 0.0000000000000000e+00  3.6007445434501115e-02 -1.7418603961331389e-01 0.0000000000000000e+00  4.3499103174540532e-02 -1.7031748109005510e-01 0.0000000000000000e+00  5.1333842053645266e-02 -1.6107010067372490e-01 0.0000000000000000e+00  5.9235483728182756e-02 -1.4656197324699935e-01 0.0000000000000000e+00  6.6928880037636307e-02 -1.2681072058641057e-01 0.0000000000000000e+00  7.4149760296094630e-02 -1.0157735129225420e-01 0.0000000000000000e+00  8.0648924527131294e-02 -7.0015735603687096e-02 0.0000000000000000e+00  8.4990260248356306e-02 -3.0802639324828164e-02 0.0000000000000000e+00  8.0154542084142605e-02 1.4861395495447656e-02 0.0000000000000000e+00  0.0000000000000000e+00 0.0000000000000000e+00 0.0000000000000000e+00  1.5648854746355698e-03 -3.8649743324975942e-02 0.0000000000000000e+00  4.5234979253749386e-03 -7.6087748993780249e-02 0.0000000000000000e+00  7.5174064395705257e-03 -1.0860795840147924e-01 0.0000000000000000e+00  1.0259554239841123e-02 -1.3506637444654376e-01 0.0000000000000000e+00  1.2946030857834046e-02 -1.5527140512548393e-01 0.0000000000000000e+00  1.5843207022530087e-02 -1.6933575493352118e-01 0.0000000000000000e+00  1.9132726854250052e-02 -1.7743258760520167e-01 0.0000000000000000e+00  2.2870555417193118e-02 -1.7971677945359407e-01 0.0000000000000000e+00  2.6992475181255325e-02 -1.7631085917872935e-01 0.0000000000000000e+00  3.1333709759514730e-02 -1.6731225140965258e-01 0.0000000000000000e+00  3.5658381043855068e-02 -1.5280218079290767e-01 0.0000000000000000e+00  3.9685842162992112e-02 -1.3282914217382111e-01 0.0000000000000000e+00  4.3270230260337307e-02 -1.0728570693220146e-01 0.0000000000000000e+00  4.6570016079705429e-02 -7.5681492045750365e-02 0.0000000000000000e+00  4.9614172726574042e-02 -3.6407549601346678e-02 0.0000000000000000e+00  5.2660301230371173e-02 1.1057377282798849e-02 0.0000000000000000e+00  0.0000000000000000e+00 0.0000000000000000e+00 0.0000000000000000e+00  1.6195229617847714e-03 -4.1220784393865798e-02 0.0000000000000000e+00  4.0465588654823477e-03 -7.8636374867498179e-02 0.0000000000000000e+00  5.7991378274887886e-03 -1.1055771809919851e-01 0.0000000000000000e+00  6.8540514781440095e-03 -1.3658929083800128e-01 0.0000000000000000e+00  7.5266296873453577e-03 -1.5669834830266766e-01 0.0000000000000000e+00  8.1070567476018082e-03 -1.7093957380468494e-01 0.0000000000000000e+00  8.7846824515508369e-03 -1.7937228824794535e-01 0.0000000000000000e+00  9.6434355262019159e-03 -1.8204161069655755e-01 0.0000000000000000e+00  1.0677400184628703e-02 -1.7897790807111960e-01 0.0000000000000000e+00  1.1802898486956242e-02 -1.7020185935736279e-01 0.0000000000000000e+00  1.2857055989377473e-02 -1.5573196827508090e-01 0.0000000000000000e+00  1.3601894867262567e-02 -1.3558218441926037e-01 0.0000000000000000e+00  1.3799412947443105e-02 -1.0978453934552249e-01 0.0000000000000000e+00  1.3129760926580854e-02 -7.8391214513598748e-02 0.0000000000000000e+00  1.2649932524812186e-02 -4.1104400684372495e-02 0.0000000000000000e+00  1.0362129680251200e-02 7.6322227890974071e-04 0.0000000000000000e+00  0.0000000000000000e+00 0.0000000000000000e+00 0.0000000000000000e+00  0.0000000000000000e+00 -4.2713005512984376e-02 0.0000000000000000e+00  0.0000000000000000e+00 -7.9730943624237494e-02 0.0000000000000000e+00  0.0000000000000000e+00 -1.1105381433375937e-01 0.0000000000000000e+00  0.0000000000000000e+00 -1.3668161764154999e-01 0.0000000000000000e+00  0.0000000000000000e+00 -1.5661435354760936e-01 0.0000000000000000e+00  0.0000000000000000e+00 -1.7085202205193750e-01 0.0000000000000000e+00  0.0000000000000000e+00 -1.7939462315453436e-01 0.0000000000000000e+00  0.0000000000000000e+00 -1.8224