<?xml version="1.0"?>
<VTKFile type="UnstructuredGrid"  version="0.1"  >
<UnstructuredGrid>
<Piece  NumberOfPoints="289" NumberOfCells="512">
<Points>
<DataArray  type="Float64"  NumberOfComponents="3"  format="ascii">0 0 0  0.0625 0 0  0.125 0 0  0.1875 0 0  0.25 0 0  0.3125 0 0  0.375 0 0  0.4375 0 0  0.5 0 0  0.5625 0 0  0.625 0 0  0.6875 0 0  0.75 0 0  0.8125 0 0  0.875 0 0  0.9375 0 0  1 0 0  0 0.0625 0  0.06243786969098636 0.0624951278538381 0  0.124874345853684 0.06249015889645701 0  0.1873080990498811 0.062485003798757 0  0.2497379639133488 0.06247959026135898 0  0.312163062588904 0.0624738747872974 0  0.3745829824475612 0.06246785822525008 0  0.4369980335997483 0.06246160584917625 0  0.4994096204251874 0.06245527183796933 0  0.5618207783652437 0.06244912629137016 0  0.6242369656669708 0.06244358021449439 0  0.6866672963671895 0.0624392011193846 0  0.7491266602826038 0.06243671412865326 0  0.8116399041934488 0.062437011670486 0  0.8742513599165628 0.06244133339464816 0  0.9370492165273 0.0624524098880163 0  1.000231645945554 0.06248087407588652 0  0 0.125 0  0.06237719552480742 0.124990351247293 0  0.1247515371605876 0.1249805008788308 0  0.1871202850424073 0.1249702609592256 0  0.2494809956787538 0.1249594750169634 0  0.3118317497117638 0.1249480404528406 0  0.3741714839113551 0.1249359388993816 0  0.4365004755260219 0.1249232765820146 0  0.4988210407367749 0.1249103352471848 0  0.5611385317204871 0.124897630935706 0  0.6234627600945889 0.1248859716668602 0  0.6858100655963145 0.1248764949314992 0  0.7482064463224251 0.1248706520791129 0  0.810692571931535 0.1248700933735633 0  0.8733321885873265 0.1248764007531114 0  0.9362259785322484 0.1248905477001575 0  0.9995311235065982 0.124910862186818 0  0 0.1875 0  0.062319451468571 0.1874857754565556 0  0.1246344628341756 0.1874712299492943 0  0.1869407299765804 0.187456059793541 0  0.2492343146124201 0.1874400018666334 0  0.3115119385015677 0.18742286411448 0  0.3737714236164247 0.1874045687587057 0  0.4360123446673222 0.1873852125261787 0  0.4982369748562421 0.1873651470191789 0  0.5604516228651868 0.1873450786571785 0  0.6226684780649644 0.1873261789685864 0  0.6849080983134103 0.1873101780412056 0  0.7472026722779785 0.1872993783956696 0  0.8096000862618856 0.1872964537606585 0  0.8721683401488201 0.1873037258061269 0  0.9349981746001237 0.1873211282890641 0  0.9981971397773142 0.1873406401835244 0  0 0.25 0  0.06226623679779628 0.2499815202787379 0  0.1245262928169848 0.2499625818249941 0  0.1867741058955227 0.2499427428720927 0  0.2490039605944562 0.2499216031131894 0  0.3112107953514685 0.2498988379404889 0  0.3733906866108032 0.2498742503241375 0  0.4355415917706996 0.24984784806699 0  0.4976644485948579 0.2498199546826891 0  0.5597647403951959 0.2497913605738299 0  0.6218546316113061 0.2497635144053854 0  0.6839557315120994 0.249738736587937 0  0.746102400111585 0.24972039701392 0  0.8083451586924321 0.2497129213801225 0  0.8707530046467701 0.249721360700224 0  0.9334119967450355 0.2497501301069227 0  0.9964154276726317 0.2498008615329045 0  0 0.3125 0  0.06221930211129781 0.3124777238233192 0  0.1244305423957477 0.3124548328695317 0  0.1866257131886108 0.3124307239566921 0  0.2487970276551439 0.3124048253828693 0  0.3109371742327025 0.3123766283428246 0  0.3730397655412522 0.3123457399701407 0  0.4351000779899964 0.312311969805932 0  0.4971162011065672 0.3122754653025201 0  0.5590907335735994 0.3122369156919093 0  0.6210331587716381 0.3121978445449487 0  0.6829629716728242 0.3121610033413445 0  0.7449134494499744 0.3121308485194564 0  0.8069355676950826 0.312114010855839 0  0.8691008721468235 0.3121195224131978 0  0.9315011757046274 0.3121583515321931 0  0.9942423077648227 0.3122415858931535 0  0 0.375 0  0.06218053291365117 0.3749745422729696 0  0.1243510478166648 0.3749483007916542 0  0.1865014663503441 0.3749204923060254 0  0.2486216901120247 0.3748903423890401 0  0.3107017283982368 0.3748571053712816 0  0.3727320191768796 0.374820107072543 0  0.4347040517833923 0.3747788255180404 0  0.4966114377401751 0.3747330329373265 0  0.5584516179943525 0.3746830340953284 0  0.620228425865702 0.3746300510118308 0  0.6819557115052445 0.3745768183037972 0  0.7436621124252433 0.3745284531340208 0  0.805396729550432 0.3744936154253053 0  0.8672348438371497 0.3744858109830547 0  0.9292819114495363 0.374524313775711 0  0.9916732681695249 0.3746335186692915 0  0 0.4375 0  0.0621518829221909 0.4374721444563727 0  0.124291836164721 0.4374433344740519 0  0.1864077085036251 0.4374125995437896 0  0.2484869780705144 0.4373789427147551 0  0.3105166766508569 0.4373413392302035 0  0.3724834789412712 0.4372987542022571 0  0.4343740697714603 0.4372501951742614 0  0.4961759614154736 0.4371948273141575 0  0.5578790153350958 0.4371321993860561 0  0.6194780246210591 0.4370626619192153 0  0.6809768136118708 0.436988108558034 0  0.7423943489057262 0.4369132323704232 0  0.8037732009033417 0.4368475267723039 0  0.86519013018601 0.4368081694286022 0  0.9267673706324299 0.436823472589344 0  0.9886814298617804 0.4369354321750203 0  0 0.5 0  0.06213525433723095 0.4999707005771374 0  0.1242568822936358 0.4999402911941317 0  0.1863508395780188 0.4999076252780035 0  0.2484022740929587 0.4998714848754853 0  0.3103951766317962 0.4998305490680626 0  0.3723121316494336 0.4997833713005318 0  0.4341342678223589 0.4997283772340547 0  0.4958415872173327 0.499663907435707 0  0.5574139810171069 0.4995883544398125 0  0.6188334390710741 0.4995004925762979 0  0.6800882421405862 0.499400189545911 0  0.7411802599996616 0.4992898435613631 0  0.8021367147206827 0.4991771140628518 0  0.8630274925353767 0.4990797162059939 0  0.9239875106897356 0.4990328463996038 0  0.9852400532411596 0.4990982610767953 0  0 0.5625 0  0.06213232894664142 0.5624703653640882 0  0.1242497586302293 0.5624395013784161 0  0.1863367615061448 0.5624061204996775 0  0.2483765237671264 0.5623688154821497 0  0.3103502734968599 0.5623259925202209 0  0.3722366011770462 0.5622757972763668 0  0.4340108293293624 0.5622160351850329 0  0.4956445731501917 0.5621440953348805 0  0.5571057956545478 0.5620569071804387 0  0.6183599554363318 0.5619510076386224 0  0.6793733524956065 0.5618229084019141 0  0.74012057494796 0.5616702005813249 0  0.8005989943451425 0.5614943335586792 0  0.8608540406204791 0.5613068619191348 0  0.9210178005442374 0.5611419011162708 0  0.9813567321308583 0.5610768159903629 0  0 0.625 0  0.06214436235739231 0.6249712572067079 0  0.124273200926858 0.6249412238826829 0  0.1863701701674498 0.6249085326966735 0  0.2484171872061545 0.6248716539828187 0  0.310393429114725 0.6248287954817282 0  0.372274176035623 0.6247777763742848 0  0.4340294764237507 0.6247158623994927 0  0.4956226718902053 0.6246395455930013 0  0.5570089665590955 0.6245442522259312 0  0.6181345543671045 0.6244239785401806 0  0.6789375055753994 0.6242709254111367 0  0.7393529605905099 0.6240754422875403 0  0.7993275681178351 0.623827284765288 0  0.8588515800605451 0.6235209603250704 0  0.9180196090644953 0.6231716231804391 0  0.9771251231992383 0.622852337943426 0  0 0.6875 0  0.06217196350114158 0.6874734362602993 0  0.1243286342984893 0.6874455981021443 0  0.1864537593400073 0.6874151228926049 0  0.2485290116829047 0.6873804586143121 0  0.3105327093828741 0.6873397406451361 0  0.3724382162187452 0.68729062763767 0  0.434211887008035 0.6872300695636263 0  0.4958104165975015 0.6871539639295301 0  0.5571775044197385 0.6870566259922526 0  0.618239962275698 0.6869299491824128 0  0.6789040270451915 0.6867620671606173 0  0.7390542735042078 0.6865353170423725 0  0.7985613676629109 0.6862236758314053 0  0.8573129967127346 0.685791843946759 0  0.9152956136710018 0.685205587903849 0  0.9727594953205606 0.6844817753353488 0  0 0.75 0  0.06221489141338635 0.7499768855828612 0  0.1244157265025362 0.7499526019271018 0  0.1865874435243286 0.7499258905516087 0  0.2487127763036708 0.7498952998196774 0  0.3107708210224908 0.7498590564377416 0  0.372735144387556 0.7498148905210361 0  0.4345711749496597 0.7497597818343491 0  0.4962325166967294 0.7496895703576488 0  0.5576556955108528 0.7495983230247688 0  0.6187527446380557 0.7494772369414133 0  0.6794011507587167 0.7493126144059024 0  0.7394316656207018 0.7490819285962529 0  0.7986183270754494 0.7487460709796373 0  0.8566874221803945 0.7482351357518995 0  0.9133970583629427 0.7474308289821674 0  0.968807046047473 0.7462051478062972 0  0 0.8125 0  0.06227190839848091 0.8124814995564105 0  0.1245320535020706 0.8124620253054375 0  0.1867677445446411 0.8124405246343404 0  0.248964234588384 0.8124157739401716 0  0.311103330351512 0.8123862650215065 0  0.3731614797929467 0.8123500516976 0  0.435106997816922 0.8123045314766277 0  0.4968958922605179 0.8122461205223429 0  0.5584654169194996 0.8121697437137143 0  0.6197239220028353 0.8120679697256716 0  0.6805346964758954 0.8119293617099498 0  0.7406903422522192 0.8117348297029051 0  0.7998738174473873 0.8114483289936516 0  0.8576088028594822 0.8109906219401735 0  0.913246896765204 0.8101609185242876 0  0.9662890208277324 0.8083903612512842 0  0 0.875 0  0.06234072937640532 0.8749870828020067 0  0.1246729672003059 0.8749734669407535 0  0.1869875048471509 0.8749583954843131 0  0.2492735316324522 0.8749409852637697 0  0.3115175204554249 0.8749201445636465 0  0.3737016491513859 0.8748944658256103 0  0.4358014279169463 0.8748620833659996 0  0.4977819739976407 0.8748204891465577 0  0.5595919446892711 0.8747663143218473 0  0.6211533096332236 0.8746951290338619 0  0.6823434738502301 0.8746014215394453 0  0.7429627086538332 0.8744791113521947 0  0.8026717478273089 0.8743229895386334 0  0.8608651514913536 0.8741294534857293 0  0.9164054079591117 0.8738798297728692 0  0.9671221312958825 0.8733923193176021 0  0 0.9375 0  0.06241809801809107 0.9374933606767283 0  0.1248317378850798 0.9374863566496753 0  0.1872360688934735 0.9374785924494341 0  0.2496253592147338 0.937469606166127 0  0.3119923720294756 0.9374588271904252 0  0.3743274656700779 0.937445523692742 0  0.4366172122890138 0.9374287403905178
[...]
<PointData  Vectors="f_95-0"> 
<DataArray  type="Float64"  Name="f_95-0"  NumberOfComponents="3" format="ascii">0.0000000000000000e+00 0.0000000000000000e+00 0.0000000000000000e+00  -8.7529566180495210e-04 -1.0071049899986282e-03 0.0000000000000000e+00  -2.4349881199667066e-03 8.0304099782761255e-03 0.0000000000000000e+00  -4.2892006502170321e-03 2.0334644113968094e-02 0.0000000000000000e+00  -6.4323796434201828e-03 3.2185196970048298e-02 0.0000000000000000e+00  -8.7962416305535258e-03 4.1604691201980716e-02 0.0000000000000000e+00  -1.1311431976688702e-02 4.7808091132916695e-02 0.0000000000000000e+00  -1.3898724260858409e-02 5.0752063646821131e-02 0.0000000000000000e+00  -1.6469895780892634e-02 5.0798139395015991e-02 0.0000000000000000e+00  -1.8926985918544588e-02 4.8478114253937263e-02 0.0000000000000000e+00  -2.1160363991844122e-02 4.4347812192938429e-02 0.0000000000000000e+00  -2.3045430237180399e-02 3.8908407642905908e-02 0.0000000000000000e+00  -2.4441569821436745e-02 3.2577159094113774e-02 0.0000000000000000e+00  -2.5162987014144916e-02 2.5666675332669562e-02 0.0000000000000000e+00  -2.4983580577210101e-02 1.8455233373818412e-02 0.0000000000000000e+00  -2.4114460226954050e-02 1.1068884962987042e-02 0.0000000000000000e+00  -1.0998982230850154e-02 9.8507291995420920e-03 0.0000000000000000e+00  0.0000000000000000e+00 0.0000000000000000e+00 0.0000000000000000e+00  -7.0208482798193405e-04 3.4431204988078179e-04 0.0000000000000000e+00  -2.1959708594247018e-03 9.7403524958846275e-03 0.0000000000000000e+00  -4.0579961201961780e-03 2.2337190851323244e-02 0.0000000000000000e+00  -6.2317623243243825e-03 3.4430081591257891e-02 0.0000000000000000e+00  -8.6388499395161477e-03 4.4038945556374977e-02 0.0000000000000000e+00  -1.1208949462275367e-02 5.0367423676051327e-02 0.0000000000000000e+00  -1.3860386307393582e-02 5.3360837861730882e-02 0.0000000000000000e+00  -1.6504369974499354e-02 5.3368805877156415e-02 0.0000000000000000e+00  -1.9043449010844937e-02 5.0909858806486429e-02 0.0000000000000000e+00  -2.1369668949106420e-02 4.6524653655226962e-02 0.0000000000000000e+00  -2.3363070783487833e-02 4.0696847921145869e-02 0.0000000000000000e+00  -2.4889119092939723e-02 3.3818426052922283e-02 0.0000000000000000e+00  -2.5795208226405804e-02 2.6180940981611542e-02 0.0000000000000000e+00  -2.5974256564310811e-02 1.7977030757805962e-02 0.0000000000000000e+00  -2.4895602106893625e-02 9.1751275086431362e-03 0.0000000000000000e+00  -2.4823636522995664e-02 1.8663460927584182e-03 0.0000000000000000e+00  0.0000000000000000e+00 0.0000000000000000e+00 0.0000000000000000e+00  -5.0546814749801024e-04 1.4333788879975222e-03 0.0000000000000000e+00  -1.8324300663890125e-03 1.1385578382270988e-02 0.0000000000000000e+00  -3.6931626888946426e-03 2.4357019332394116e-02 0.0000000000000000e+00  -5.9578164476661154e-03 3.6745298954113180e-02 0.0000000000000000e+00  -8.5180502955772737e-03 4.6580046903062916e-02 0.0000000000000000e+00  -1.1284407270485798e-02 5.3059536555322605e-02 0.0000000000000000e+00  -1.4163771443065539e-02 5.6122299815973789e-02 0.0000000000000000e+00  -1.7061349361828668e-02 5.6109256947309095e-02 0.0000000000000000e+00  -1.9876502018624641e-02 5.3528212871603968e-02 0.0000000000000000e+00  -2.2500684058604076e-02 4.8907628431388829e-02 0.0000000000000000e+00  -2.4817011791262129e-02 4.2719056436502457e-02 0.0000000000000000e+00  -2.6704483486425953e-02 3.5346577711013183e-02 0.0000000000000000e+00  -2.8055040370272125e-02 2.7086046627660967e-02 0.0000000000000000e+00  -2.8783088678800091e-02 1.8161168661008663e-02 0.0000000000000000e+00  -2.9032376173788652e-02 8.8573621899548181e-03 0.0000000000000000e+00  -2.8598376261477553e-02 -7.7314504248389394e-05 0.0000000000000000e+00  0.0000000000000000e+00 0.0000000000000000e+00 0.0000000000000000e+00  -4.0116405542661325e-04 2.3090232200641482e-03 0.0000000000000000e+00  -1.6085559436152467e-03 1.2958949266091715e-02 0.0000000000000000e+00  -3.5012726036670102e-03 2.6452625070683775e-02 0.0000000000000000e+00  -5.9323087807313111e-03 3.9239686275371242e-02 0.0000000000000000e+00  -8.7645151219936223e-03 4.9370862109890980e-02 0.0000000000000000e+00  -1.1877874213483405e-02 5.6052156576546268e-02 0.0000000000000000e+00  -1.5159804857666588e-02 5.9222925969676363e-02 0.0000000000000000e+00  -1.8502071242437263e-02 5.9220115188750561e-02 0.0000000000000000e+00  -2.1793992650650146e-02 5.6543681382490017e-02 0.0000000000000000e+00  -2.4918512095489148e-02 5.1712313065179684e-02 0.0000000000000000e+00  -2.7751372748659763e-02 4.5189998122995532e-02 0.0000000000000000e+00  -3.0166811127874719e-02 3.7362719093446566e-02 0.0000000000000000e+00  -3.2049261289344405e-02 2.8548653712898695e-02 0.0000000000000000e+00  -3.3324676019877750e-02 1.9039568753252887e-02 0.0000000000000000e+00  -3.3919699507886571e-02 9.1383780657455799e-03 0.0000000000000000e+00  -3.3758632570167958e-02 -7.3231745599808566e-04 0.0000000000000000e+00  0.0000000000000000e+00 0.0000000000000000e+00 0.0000000000000000e+00  -3.6266339012551994e-04 3.0881407768498267e-03 0.0000000000000000e+00  -1.5594607327116309e-03 1.4531748449290293e-02 0.0000000000000000e+00  -3.5701262906189940e-03 2.8698181646835710e-02 0.0000000000000000e+00  -6.2613163258660436e-03 4.2015412738128935e-02 0.0000000000000000e+00  -9.4770609110272613e-03 5.2543874900576028e-02 0.0000000000000000e+00  -1.3069749516391189e-02 5.9502410732055373e-02 0.0000000000000000e+00  -1.6904747535059470e-02 6.2838165336487034e-02 0.0000000000000000e+00  -2.0855530568514444e-02 6.2888849647654357e-02 0.0000000000000000e+00  -2.4794988581511135e-02 6.0148360541200700e-02 0.0000000000000000e+00  -2.8588287338594254e-02 5.5125269131331540e-02 0.0000000000000000e+00  -3.2089368629217352e-02 4.8274417042659008e-02 0.0000000000000000e+00  -3.5143120469630376e-02 3.9980344466653911e-02 0.0000000000000000e+00  -3.7594040619646343e-02 3.0574465209393231e-02 0.0000000000000000e+00  -3.9292265887061473e-02 2.0367573747615612e-02 0.0000000000000000e+00  -4.0091316627401598e-02 9.6809231971499085e-03 0.0000000000000000e+00  -3.9858445650803098e-02 -1.1994236320196385e-03 0.0000000000000000e+00  0.0000000000000000e+00 0.0000000000000000e+00 0.0000000000000000e+00  -3.7348032362800258e-04 3.8628807979549521e-03 0.0000000000000000e+00  -1.6551768196669822e-03 1.6202897309286150e-02 0.0000000000000000e+00  -3.8759505913375297e-03 3.1185353800629735e-02 0.0000000000000000e+00  -6.9133890615016812e-03 4.5169492154067452e-02 0.0000000000000000e+00  -1.0598685499802736e-02 5.6208788719588787e-02 0.0000000000000000e+00  -1.4763753397791703e-02 6.3534377973643766e-02 0.0000000000000000e+00  -1.9254227214086986e-02 6.7105137959113187e-02 0.0000000000000000e+00  -2.3924950071415336e-02 6.7261977898934608e-02 0.0000000000000000e+00  -2.8629203933918709e-02 6.4492027279675984e-02 0.0000000000000000e+00  -3.3207882992339524e-02 5.9289691783885171e-02 0.0000000000000000e+00  -3.7482323177488314e-02 5.2093230789424759e-02 0.0000000000000000e+00  -4.1252936063930677e-02 4.3274392212835605e-02 0.0000000000000000e+00  -4.4304282624910728e-02 3.3160101571806717e-02 0.0000000000000000e+00  -4.6415716309646124e-02 2.2066938604892235e-02 0.0000000000000000e+00  -4.7380295921855352e-02 1.0322784844911677e-02 0.0000000000000000e+00  -4.7045180173137101e-02 -1.7248962356242960e-03 0.0000000000000000e+00  0.0000000000000000e+00 0.0000000000000000e+00 0.0000000000000000e+00  -4.1714299323821825e-04 4.7062060857495204e-03 0.0000000000000000e+00  -1.8504505584321124e-03 1.8059457562734953e-02 0.0000000000000000e+00  -4.3465182307861521e-03 3.3991957681053772e-02 0.0000000000000000e+00  -7.7812627363009340e-03 4.8770743252351659e-02 0.0000000000000000e+00  -1.1974624209802250e-02 6.0431800676730152e-02 0.0000000000000000e+00  -1.6744515117560768e-02 6.8217275416234652e-02 0.0000000000000000e+00  -2.1922671499319583e-02 7.2099164557145851e-02 0.0000000000000000e+00  -2.7349408785965063e-02 7.2421478231689415e-02 0.0000000000000000e+00  -3.2860016310553866e-02 6.9661282642913130e-02 0.0000000000000000e+00  -3.8270220027511438e-02 6.4291739110433996e-02 0.0000000000000000e+00  -4.3365322600892341e-02 5.6723755527439690e-02 0.0000000000000000e+00  -4.7895666364846684e-02 4.7302665221850303e-02 0.0000000000000000e+00  -5.1581980200402069e-02 3.6338261201966045e-02 0.0000000000000000e+00  -5.4131768293075914e-02 2.4148283926286068e-02 0.0000000000000000e+00  -5.5276519117863965e-02 1.1098619202479234e-02 0.0000000000000000e+00  -5.4824402067631339e-02 -2.3738529914692631e-03 0.0000000000000000e+00  0.0000000000000000e+00 0.0000000000000000e+00 0.0000000000000000e+00  -4.8026553090211183e-04 5.6634245231558583e-03 0.0000000000000000e+00  -2.1004190659032040e-03 2.0154170041785043e-02 0.0000000000000000e+00  -4.8947954068428333e-03 3.7156034979992945e-02 0.0000000000000000e+00  -8.7238494187665966e-03 5.2836746480022921e-02 0.0000000000000000e+00  -1.3395423023704035e-02 6.5213963860641391e-02 0.0000000000000000e+00  -1.8719753718046028e-02 7.3542738987652720e-02 0.0000000000000000e+00  -2.4523464301570840e-02 7.7809324772916189e-02 0.0000000000000000e+00  -3.0640875839123959e-02 7.8359261468318189e-02 0.0000000000000000e+00  -3.6896564796416641e-02 7.5654476564098988e-02 0.0000000000000000e+00  -4.3087082186204849e-02 7.0138173536305165e-02 0.0000000000000000e+00  -4.8966537057142413e-02 6.2181864986052229e-02 0.0000000000000000e+00  -5.4239047046368040e-02 5.2090396711613161e-02 0.0000000000000000e+00  -5.8563770498410717e-02 4.0143861219424058e-02 0.0000000000000000e+00  -6.1574069476080559e-02 2.6657950120796747e-02 0.0000000000000000e+00  -6.2927352870228187e-02 1.2043956976979190e-02 0.0000000000000000e+00  -6.2360019895775561e-02 -3.1441366857221879e-03 0.0000000000000000e+00  0.0000000000000000e+00 0.0000000000000000e+00 0.0000000000000000e+00  -5.5401782866530767e-04 6.7584284061605465e-03 0.0000000000000000e+00  -2.3696210669122749e-03 2.2503276798687737e-02 0.0000000000000000e+00  -5.4406602997369401e-03 4.0664045131370868e-02 0.0000000000000000e+00  -9.5963261858791581e-03 5.7316337050162161e-02 0.0000000000000000e+00  -1.4630581805747046e-02 7.0469832713438305e-02 0.0000000000000000e+00  -2.0353902918774820e-02 7.9400133355563132e-02 0.0000000000000000e+00  -2.6600260431490035e-02 8.4110585213051273e-02 0.0000000000000000e+00  -3.3211546774606623e-02 8.4946407151111861e-02 0.0000000000000000e+00  -4.0015056379026921e-02 8.2348721107406236e-02 0.0000000000000000e+00  -4.6801617981602470e-02 7.6721886975059675e-02 0.0000000000000000e+00  -5.3308106894323977e-02 6.8385987269429793e-02 0.0000000000000000e+00  -5.9206256404077715e-02 5.7590899593010024e-02 0.0000000000000000e+00  -6.4104843197691691e-02 4.4572856906907841e-02 0.0000000000000000e+00  -6.7566757431044303e-02 2.9634979368154457e-02 0.0000000000000000e+00  -6.9167261150753265e-02 1.3228339721166700e-02 0.0000000000000000e+00  -6.8542724392357479e-02 -3.9615674283115599e-03 0.0000000000000000e+00  0.0000000000000000e+00 0.0000000000000000e+00 0.0000000000000000e+00  -6.3722373800793473e-04 8.0029510501082434e-03 0.0000000000000000e+00  -2.6432244751288317e-03 2.5092404588718451e-02 0.0000000000000000e+00  -5.9317582242761555e-03 4.4448029360303537e-02 0.0000000000000000e+00  -1.0278526012943301e-02 6.2077768974775883e-02 0.0000000000000000e+00  -1.5461665630432759e-02 7.6008276768964489e-02 0.0000000000000000e+00  -2.1303601971256123e-02 8.5551632428325586e-02 0.0000000000000000e+00  -2.7663604036158824e-02 9.0734054039225520e-02 0.0000000000000000e+00  -3.4410673128172371e-02 9.1898938600970898e-02 0.0000000000000000e+00  -4.1394612560287418e-02 8.9461126517817791e-02 0.0000000000000000e+00  -4.8421590785349175e-02 8.3778447053017777e-02 0.0000000000000000e+00  -5.5234728443942775e-02 7.5109841374562406e-02 0.0000000000000000e+00  -6.1499147794841044e-02 6.3637816253625759e-02 0.0000000000000000e+00  -6.6798792137595528e-02 4.9538501991783904e-02 0.0000000000000000e+00  -7.0646351941696786e-02 3.3083331947780889e-02 0.0000000000000000e+00  -7.2542521207717175e-02 1.4746270792487397e-02 0.0000000000000000e+00  -7.2013891366512442e-02 -4.6424539352896187e-03 0.0000000000000000e+00  0.0000000000000000e+00 0.0000000000000000e+00 0.0000000000000000e+00  -7.4188364475521204e-04 9.4135270789336891e-03 0.0000000000000000e+00  -2.9423725371976904e-03 2.7892918829032907e-02 0.0000000000000000e+00  -6.3678401970207561e-03 4.8391737000463356e-02 0.0000000000000000e+00  -1.0706665615203238e-02 6.6903385796299966e-02 0.0000000000000000e+00  -1.5721069494627139e-02 8.1518394816940606e-02 0.0000000000000000e+00  -2.1264589618825838e-02 9.1612176802098516e-02 0.0000000000000000e+00  -2.7247713082548003e-02 9.7242453189343867e-02 0.0000000000000000e+00  -3.3592731367265406e-02 9.8748875875501574e-02 0.0000000000000000e+00  -4.0197494783045372e-02 9.6514584753050608e-02 0.0000000000000000e+00  -4.6910768313310591e-02 9.0845702902818570e-02 0.0000000000000000e+00  -5.3513784068992910e-02 8.1934826862521098e-02 0.0000000000000000e+00  -5.9704455616762367e-02 6.9887944654181258e-02 0.0000000000000000e+00  -6.5085411283550137e-02 5.4806693706529359e-02 0.0000000000000000e+00  -6.9161953895134312e-02 3.6917518003352960e-02 0.0000000000000000e+00  -7.1395144931856155e-02 1.6702407906997403e-02 0.0000000000000000e+00  -7.1214865207291936e-02 -4.8771231571698159e-03 0.0000000000000000e+00  0.0000000000000000e+00 0.0000000000000000e+00 0.0000000000000000e+00  -9.0031827085999025e-04 1.1038560582798106e-02 0.0000000000000000e+00  -3.3404208510944308e-03 3.0887116441576028e-02 0.0000000000000000e+00  -6.8227705563131767e-03 5.2343307557584581e-02 0.0000000000000000e+00  -1.0901947993801472e-02 7.1491898892250161e-02 0.0000000000000000e+00  -1.5333139846871641e-02 8.6566839889281474e-02 0.0000000000000000e+00  -2.0033265620100070e-02 9.7045626993526923e-02 0.0000000000000000e+00  -2.4999758702529986e-02 1.0302618243147729e-01 0.0000000000000000e+00  -3.0239880016860104e-02 1.0483915967048502e-01 0.0000000000000000e+00  -3.5727851178324811e-02 1.0282904242192445e-01 0.0000000000000000e+00  -4.1384426483184911e-02 9.7247548300257711e-02 0.0000000000000000e+00  -4.7065798537196363e-02 8.8222300093447947e-02 0.0000000000000000e+00  -5.2551689588702453e-02 7.5784906411479641e-02 0.0000000000000000e+00  -5.7520524872035433e-02 5.9961615234654028e-02 0.0000000000000000e+00  -6.1538344311383768e-02 4.0921614158742806e-02 0.0000000000000000e+00  -6.4092900610578374e-02 1.9142590852589143e-02 0.0000000000000000e+00  -6.4654588472868119e-02 -4.2537813636923790e-03 0.0000000000000000e+00  0.0000000000000000e+00 0.0000000000000000e+00 0.0000000000000000e+00  -1.1688556578836390e-03 1.2994250094978010e-02 0.0000000000000000e+00  -3.9630721392337268e-03 3.4094679936204485e-02 0.0000000000000000e+00  -7.4364523799071124e-03 5.6129283968629214e-02 0.0000000000000000e+00  -1.0966552811702276e-02 7.5472139573950325e-02 0.0000000000000000e+00  -1.4335318149732778e-02 9.0620877023452714e-02 0.0000000000000000e+00  -1.7573430096718048e-02 1.0119992647173350e-01 0.0000000000000000e+00  -2.0807771789838832e-02 1.0734873061758143e-01 0.0000000000000000e+00  -2.4161409434978444e-02 1.0937527176711638e-01 0.0000000000000000e+00  -2.7708781907838178e-02 1.0757416453490096e-01 0.0000000000000000e+00  -3.1466414982320730e-02 1.0214189117671314e-01 0.0000000000000000e+00  -3.5397730048699505e-02 9.3151071310667924e-02 0.0000000000000000e+00  -3.9410955304396117e-02 8.0571104178175396e-02 0.0000000000000000e+00  -4.3331386094433690e-02 6.4346895166925752e-02 0.0000000000000000e+00  -4.6871452525225586e-02 4.4573760864241432e-02 0.0000000000000000e+00  -4.9588640775515586e-02 2.1793509330399960e-02 0.0000000000000000e+00  -5.1128258745214449e-02 -2.5091126382203940e-03 0.0000000000000000e+00  0.0000000000000000e+00 0.0000000000000000e+00 0.0000000000000000e+00  -1.6109344041804312e-03 1.5482369296594359e-02 0.0000000000000000e+00  -4.9187443103578428e-03 3.7566560818880747e-02 0.0000000000000000e+00  -8.3020104357278621e-03 5.9552879815570968e-02 0.0000000000000000e+00  -1.0974554170580990e-02 7.8436356251477879e-02 0.0000000000000000e+00  -1.2824842830015292e-02 9.3125696424973606e-02 0.0000000000000000e+00  -1.4058343850871976e-02 1.0342252164924526e-01 0.0000000000000000e+00  -1.4963212004914879e-02 1.0948970971276550e-01 0.0000000000000000e+00  -1.5791453474317436e-02 1.1158590005407228e-01 0.0000000000000000e+00  -1.6723042797392760e-02 1.0993890909720859e-01 0.0000000000000000e+00  -1.7875261457516823e-02 1.0468966279295880e-01 0.0000000000000000e+00  -1.9331169088916220e-02 9.5872100485001610e-02 0.0000000000000000e+00  -2.1158274493934245e-02 8.3420342489412283e-02 0.0000000000000000e+00  -2.3395628038228169e-02 6.7228073199203722e-02 0.0000000000000000e+00  -2.5963690040967508e-02 4.7333156053762489e-02 0.0000000000000000e+00  -2.8537957840270616e-02 2.4277979685484730e-02 0.0000000000000000e+00  -3.0871449057599969e-02 -1.2954034197319413e-04 0.0000000000000000e+00  0.0000000000000000e+00 0.0000000000000000e+00 0.0000000000000000e+00  -2.1923915578874920e-03 1.8733894162078990e-02 0.0000000000000000e+00  -6.0175129627000438e-03 4.1286248354944911e-02 0.0000000000000000e+00  -9.0827481040444708e-03 6.2369196089567501e-02 0.0000000000000000e+00  -1.0616894489866505e-02 8.0035210824112177e-02 0.0000000000000000e+00  -1.0732512843105290e-02 9.3704980404751045e-02 0.0000000000000000e+00  -9.8319645598198384e-03 1.0333570178433199e-01 0.0000000000000000e+00  -8.3400690138035229e-03 1.0906768775006796e-01 0.0000000000000000e+00  -6.6009307328908518e-03 1.1107397127478333e-01 0.0000000000000000e+00  -4.8650594980320667e-03 1.0949712443469194e-01 0.0000000000000000e+00  -3.3194947050825940e-03 1.0442302666846939e-01 0.0000000000000000e+00  -2.1389433219920566e-03 9.5868784176119798e-02 0.0000000000000000e+00  -1.5318825973725566e-03 8.3775301423997681e-02 0.0000000000000000e+00  -1.7726728427174935e-03 6.8005368313659831e-02 0.0000000000000000e+00  -3.1049606982588903e-03 4.8407887879528447e-02 0.0000000000000000e+00  -5.5633213854805715e-03 2.5275544615887022e-02 0.0000000000000000e+00  -7.9695424920215915e-03 1.0719434487951774e-03 0.0000000000000000e+00  0.0000000000000000e+00 0.0000000000000000e+00 0.0000000000000000e+00  -2.4042016787949711e-03 2.2571390116799536e-02 0.0000000000000000e+00  -5.9343866073102679e-03 4.4771384081720822e-02 0.0000000000000000e+00  -8.0393836028240604e-03 6.4210157852238686e-02 0.0000000000000000e+00  -8.3773049019990505e-03 8.0195048019066406e-02 0.0000000000000000e+00  -7.2823546495854648e-03 9.2574817632205708e-02 0.0000000000000000e+00  -5.2064107845578135e-03 1.0136848786986576e-01 0.0000000000000000e+00  -2.5507279789914587e-03 1.0663934860230211e-01 0.0000000000000000e+00  3.8023463990889569e-04 1.0845300758575700e-01 0.0000000000000000e+00  3.3667094168499810e-03 1.0686242280246300e-01 0.0000000000000000e+00  6.2382375364104965e-03 1.0190310462133124e-01 0.0000000000000000e+00  8.8245182872358930e-03 9.3591429420606789e-02 0.0000000000000000e+00  1.0893440002421893e-02 8.1918111349956191e-02 0.0000000000000000e+00  1.2033525300384356e-02 6.6829155582698530e-02 0.0000000000000000e+00  1.1617556092582420e-02 4.8238958647725670e-02 0.0000000000000000e+00  8.6607379906761903e-03 2.6018477083846251e-02 0.0000000000000000e+00  2.1627591582250218e-03 -5.2951082085773808e-04 0.0000000000000000e+00  0.0000000000000000e+00 0.0000000000000000e+00 0.0000000000000000e+00  0.0000000000000000e+00 2.4948005365140854e-02 0.0000000000000000e+00  0.0000000000000000e+00 4.6569610014929590e-02 0.0000000000000000e+00  0.0000000000000000e+00 6.4864813949366218e-02 0.0000000000000000e+00  0.0000000000000000e+00 7.9833617168450721e-02 0.0000000000000000e+00  0.0000000000000000e+00 9.1476019672183120e-02 0.0000000000000000e+00  0.0000000000000000e+00 9.9792021460563415e-02 0.0000000000000000e+00  0.0000000000000000e+00 1.0478162253359159e-01 0.0000000000000000e+00  0.0000000000000000e+00 1.06