<?xml version="1.0"?>
<VTKFile type="UnstructuredGrid"  version="0.1"  >
<UnstructuredGrid>
<Piece  NumberOfPoints="289" NumberOfCells="512">
<Points>
<DataArray  type="Float64"  NumberOfComponents="3"  format="ascii">0 0 0  0.0625 0 0  0.125 0 0  0.1875 0 0  0.25 0 0  0.3125 0 0  0.375 0 0  0.4375 0 0  0.5 0 0  0.5625 0 0  0.625 0 0  0.6875 0 0  0.75 0 0  0.8125 0 0  0.875 0 0  0.9375 0 0  1 0 0  0 0.0625 0  0.06252156651035323 0.06249983554347002 0  0.1250437123589948 0.06249966824425192 0  0.1875670091208193 0.06249949552661305 0  0.2500920099201608 0.06249931538001362 0  0.312619233484862 0.06249912671207434 0  0.3751491403740967 0.06249892977617937 0  0.4376820995531809 0.06249872667861955 0  0.5002183450257652 0.06249852194443173 0  0.5627579256339307 0.06249832306832252 0  0.6253006585351801 0.06249814083309131 0  0.6878461140620827 0.06249798864697802 0  0.7503937052980509 0.06249787785505952 0  0.8129430966933049 0.06249779548109926 0  0.8754956407742008 0.0624976018478338 0  0.9380594527800376 0.06249655347009003 0  1.000668534125079 0.0624910411150787 0  0 0.125 0  0.06254255968993311 0.1249996738743097 0  0.1250862865967381 0.124999341790421 0  0.1876323351422408 0.1249989982948375 0  0.2501818282710268 0.1249986390092098 0  0.3127358280118787 0.1249982613180198 0  0.375295289720856 0.1249978652201825 0  0.4378609954241927 0.1249974543663201 0  0.5004334638011939 0.1249970372672551 0  0.5630128390242585 0.1249966286179683 0  0.6255987696959017 0.1249962506901844 0  0.6881903048925684 0.1249959350704189 0  0.7507858584290296 0.1249957269066051 0  0.8133833145420787 0.1249957033576919 0  0.8759802780511419 0.1249960655533212 0  0.9385737606969776 0.124997603757806 0  1.001154208296158 0.1250040621289454 0  0 0.1875 0  0.06256239157939361 0.18749951810919 0  0.125126551950402 0.187499026632898 0  0.1876942375722509 0.1874985166662017 0  0.250267171438011 0.1874979807704819 0  0.3128470054915112 0.1874974139516784 0  0.3754352574314765 0.1874968149154101 0  0.4380332131822288 0.1874961876510135 0  0.5006417878164688 0.1874955433417223 0  0.5632613418767183 0.1874949025128278 0  0.6258914582846646 0.1874942972262464 0  0.6885306977445956 0.1874937730578955 0  0.7511763632790213 0.1874933905666761 0  0.8138242972813894 0.1874932249938359 0  0.87646864752367 0.1874933518506091 0  0.9391012553619505 0.1874937212613761 0  1.001709974272308 0.1874932678480531 0  0 0.25 0  0.06258046057370405 0.249999371876247 0  0.1251633048653912 0.249998729850867 0  0.1877509129724736 0.2499980607788135 0  0.2503456463731167 0.2499973531774118 0  0.3129498110717644 0.2499965984140787 0  0.3755655856585293 0.2499957923141233 0  0.4381949000255321 0.2499949372965213 0  0.5008392500749344 0.2499940450773753 0  0.5634994359611013 0.2499931398383915 0  0.6261752184728973 0.2499922614911678 0  0.6888649022873533 0.2499914681832559 0  0.7515648762185899 0.2499908362252268 0  0.8142691639465488 0.2499904532854713 0  0.8769690529161228 0.2499903945207964 0  0.9396528855740323 0.2499906597104461 0  1.002306280877791 0.2499910837384704 0  0 0.3125 0  0.0625961517985308 0.3124992394915854 0  0.1251953069829309 0.312498459999349 0  0.1878004847600504 0.3124976432292254 0  0.2504147228909851 0.3124967724601697 0  0.3130410544645459 0.3124958338068883 0  0.3756824414616493 0.3124948180735011 0  0.4383416443030955 0.3124937234035104 0  0.5010210025964584 0.3124925588829459 0  0.5637221002925255 0.3124913491039178 0  0.6264452921318575 0.3124901393594122 0  0.6891890836288189 0.3124890005040131 0  0.7519493923780638 0.3124880314911433 0  0.8147187841364286 0.3124873563955396 0  0.8774858824531817 0.3124871131344372 0  0.940235303866267 0.3124874418427557 0  1.00294867401743 0.3124885354973528 0  0 0.375 0  0.06260884575378657 0.3749991260358203 0  0.1252212999371123 0.374998227305386 0  0.1878410186708791 0.3749972794785434 0  0.2504717402876941 0.374996259325135 0  0.3131172926600537 0.3749951458450227 0  0.3757815531031417 0.3749939221630361 0  0.4384683334974505 0.3749925785382662 0  0.5011811536952767 0.3749911168636446 0  0.5639228563194006 0.3749895569607055 0  0.6266950102893377 0.3749879446811674 0  0.6894970585679457 0.3749863611272485 0  0.7523252055400816 0.3749849310104961 0  0.8151711384772707 0.3749838263149888 0  0.8780208668138676 0.3749832596860555 0  0.9408542515007078 0.3749834613466403 0  1.00364610473151 0.3749846271596561 0  0 0.4375 0  0.06261793770604371 0.4374990372877162 0  0.1252400424337514 0.4374980435793828 0  0.187870573373859 0.437496987839621 0  0.250513963316309 0.4374958391892845 0  0.3131748765145132 0.4374945676071883 0  0.3758582223584923 0.4374931455172426 0  0.4385690930366815 0.4374915507826467 0  0.5013125764095059 0.4374897718008012 0  0.5640933728027565 0.4374878155256059 0  0.6269151193939255 0.4374857191791253 0  0.6897793089143985 0.4374835658386992 0  0.7526837063660829 0.4374815024950717 0  0.8156202691554432 0.4374797559925861 0  0.8785728413512536 0.4374786373146432 0  0.9415153981218122 0.4374785192868861 0  1.004412315640017 0.4374797717998183 0  0 0.5 0  0.06262286952604271 0.4999989794710408 0  0.1252503737450997 0.4999979217437929 0  0.1878872943855431 0.4999967888744806 0  0.2505387022362265 0.499995541621004 0  0.313210086063018 0.499994139339049 0  0.3759074520244991 0.4999925407392953 0  0.4386373627894584 0.4999907061733481 0  0.501406861243982 0.4999886025000117 0  0.5642231854990689 0.4999862120805871 0  0.627093126886231 0.4999835479318878 0  0.6900218145058327 0.499980677121759 0  0.7530106527704286 0.4999777531891065 0  0.8160541635736205 0.499975054024539 0  0.8791357502903482 0.4999730121337375 0  0.9422231734485395 0.4999722090231785 0  1.005266071537731 0.4999732921779105 0  0 0.5625 0  0.06262317414259595 0.5624989587798261 0  0.1252513048421347 0.5624978748925471 0  0.1878895555463371 0.5624967040277756 0  0.2505435077728677 0.5624953986690135 0  0.3132193775803315 0.5624939067717274 0  0.3759242317823846 0.5624921710213261 0  0.4386661839410452 0.562490129357906 0  0.5014545225348901 0.5624877180653054 0  0.5642996727896993 0.5624848797147681 0  0.6272128047658376 0.5624815796885706 0  0.6902047565495066 0.5624778366406565 0  0.7532837379450427 0.5624737729407919 0  0.8164510686122635 0.5624696878052924 0  0.8796942009928955 0.562466142260784 0  0.9429770574589523 0.5624640122487539 0  1.006230383008848 0.5624643992287858 0  0 0.625 0  0.06261853038314935 0.6249989806732162 0  0.1252421334898137 0.624997914841528 0  0.1878761449011871 0.6249967533751802 0  0.2505264423380969 0.6249954417858564 0  0.3131997556354686 0.6249939173443083 0  0.3759040201298416 0.6249921061486641 0  0.4386487776931903 0.6249899205860898 0  0.5014456086311907 0.6249872583495597 0  0.5643085287344957 0.6249840056007532 0  0.6272541798334114 0.6249800495084799 0  0.6903014274623189 0.6249753097464189 0  0.7534695767021914 0.6249698043361739 0  0.8167737490395589 0.6249637691696406 0  0.8802151025295473 0.6249578423758084 0  0.9437632312736206 0.6249532901068544 0  1.007330702017916 0.6249522347294847 0  0 0.6875 0  0.06260882278872369 0.6874990489790824 0  0.1252225727772186 0.6874980502277224 0  0.1878464804270387 0.687496952509536 0  0.2504864119952926 0.6874956972223383 0  0.3131492610375852 0.6874942138485227 0  0.3758434353704394 0.6874924143844119 0  0.4385794808782807 0.6874901865675093 0  0.5013708842867625 0.687487386216309 0  0.564235079247384 0.6874838303639649 0  0.6271946090557877 0.6874792962013822 0  0.6902781929557499 0.6874735381885494 0  0.7535209198337339 0.6874663499116311 0  0.8169615927912308 0.687457718830239 0  0.8806328016894087 0.6874481340151979 0  0.94453527019701 0.6874390266244366 0  1.00858457642395 0.6874328972774448 0  0 0.75 0  0.06259419751433294 0.7499991649142559 0  0.1251928746188525 0.7499982843651963 0  0.1878008265848124 0.7499973088430107 0  0.2504235194267266 0.7499961801507807 0  0.3130675275577832 0.7499948255066565 0  0.3757411139024835 0.749993149503919 0  0.438455035921228 0.7499910227705894 0  0.5012236975022387 0.749988265920424 0  0.5640668150517605 0.749984627591512 0  0.6270118126065861 0.7499797573506255 0  0.6900971454939457 0.749973181684793 0  0.7533764730246552 0.749964313377655 0  0.8169224515179005 0.7499525804130313 0  0.8808252511808687 0.7499378747269542 0  0.9451709211543973 0.749921651366198 0  1.00996318872044 0.7499086810635862 0  0 0.8125 0  0.06257510263492615 0.8124993262054864 0  0.1251539228111172 0.8124986132467572 0  0.1877404683751678 0.8124978179494288 0  0.2503393706046537 0.8124968883826152 0  0.3129563096074137 0.8124957574806791 0  0.3755986055285615 0.8124943336740736 0  0.4382760893175071 0.81249248635643 0  0.5010024399196921 0.8124900225894217 0  0.5637973038823784 0.8124866491533649 0  0.6266897388505107 0.8124819109719124 0  0.6897239032132916 0.8124750952490414 0  0.7529684936707802 0.8124651012513503 0  0.8165320187658835 0.812450340382739 0  0.8805850987113933 0.8124289855127916 0  0.9453811093980145 0.8124006681973714 0  1.011215475693308 0.8123722449990959 0  0 0.875 0  0.0625523004372162 0.8749995265509373 0  0.125107267437347 0.8749990242305306 0  0.1876677913480786 0.8749984609109065 0  0.2502372468685374 0.8749977972622794 0  0.3128198343556142 0.8749969812321062 0  0.3754210702700165 0.8749959394930339 0  0.4380485394427504 0.8749945632637112 0  0.5007131087969012 0.8749926835525412 0  0.5634309739495681 0.8749900259644584 0  0.6262272609394713 0.8749861248060899 0  0.6891426511241735 0.8749801542727139 0  0.7522461556913933 0.8749705910136609 0  0.8156610444014181 0.8749545568607554 0  0.8796205583562378 0.8749267278987398 0  0.9445958611895191 0.8748788213625692 0  1.011616221657727 0.8748089566570798 0  0 0.9375 0  0.06252684189648808 0.9374997556583199 0  0.1250550771656934 0.9374994959759039 0  0.1875862211726782 0.9374992037804317 0  0.2501220545740058 0.9374988578164087 0  0.3126648138956307 0.9374984295143605 0  0.3752174708573021 0.9374978778179321 0  0.4377841711668194 0.9374971402375885 
[...]
<PointData  Vectors="f_95-0"> 
<DataArray  type="Float64"  Name="f_95-0"  NumberOfComponents="3" format="ascii">0.0000000000000000e+00 0.0000000000000000e+00 0.0000000000000000e+00  5.4755837573321425e-04 -4.0646702946784539e-02 0.0000000000000000e+00  1.5906209684398156e-03 -6.9931780709791613e-02 0.0000000000000000e+00  2.8088753916544751e-03 -8.5174820251153777e-02 0.0000000000000000e+00  4.1597574419565244e-03 -9.0545573201811905e-02 0.0000000000000000e+00  5.5811059277641201e-03 -9.0433885352800614e-02 0.0000000000000000e+00  7.0365768288072426e-03 -8.7451901711330965e-02 0.0000000000000000e+00  8.4972461439929963e-03 -8.2789045428057859e-02 0.0000000000000000e+00  9.9344746638398915e-03 -7.6912202053165013e-02 0.0000000000000000e+00  1.1315825961615577e-02 -7.0002342874143100e-02 0.0000000000000000e+00  1.2602643494783572e-02 -6.2153943324011127e-02 0.0000000000000000e+00  1.3747300533792441e-02 -5.3453801503859609e-02 0.0000000000000000e+00  1.4690465599758932e-02 -4.4013606907782714e-02 0.0000000000000000e+00  1.5334813905966070e-02 -3.3971887055953602e-02 0.0000000000000000e+00  1.5553247063421158e-02 -2.3551040219320227e-02 0.0000000000000000e+00  1.5552589218997171e-02 -1.2875728925893084e-02 0.0000000000000000e+00  7.4913148059026161e-03 -6.7626339974504630e-03 0.0000000000000000e+00  0.0000000000000000e+00 0.0000000000000000e+00 0.0000000000000000e+00  5.1170565576260556e-04 -4.1614922844213156e-02 0.0000000000000000e+00  1.6581148143739223e-03 -7.1131127757946222e-02 0.0000000000000000e+00  3.0789791827778904e-03 -8.6527209334656310e-02 0.0000000000000000e+00  4.6583131112698604e-03 -9.1997920841962469e-02 0.0000000000000000e+00  6.3158539561636697e-03 -9.1944214245587061e-02 0.0000000000000000e+00  8.0123783405838794e-03 -8.8984225771821371e-02 0.0000000000000000e+00  9.7160826714686750e-03 -8.4310783538951981e-02 0.0000000000000000e+00  1.1395413866187191e-02 -7.8389536411835950e-02 0.0000000000000000e+00  1.3013794677941891e-02 -7.1396757798471461e-02 0.0000000000000000e+00  1.4527601762520794e-02 -6.3420001356248118e-02 0.0000000000000000e+00  1.5885030947609288e-02 -5.4536384300565503e-02 0.0000000000000000e+00  1.7022161305097747e-02 -4.4839411413967661e-02 0.0000000000000000e+00  1.7855670896788634e-02 -3.4446361712502732e-02 0.0000000000000000e+00  1.8311765330963577e-02 -2.3493981234404146e-02 0.0000000000000000e+00  1.7926029673051062e-02 -1.2022398470785324e-02 0.0000000000000000e+00  1.8165220893991665e-02 -1.5486283179000724e-03 0.0000000000000000e+00  0.0000000000000000e+00 0.0000000000000000e+00 0.0000000000000000e+00  5.6415960268315333e-04 -4.2600673594463435e-02 0.0000000000000000e+00  1.9945586654904189e-03 -7.2647643562340672e-02 0.0000000000000000e+00  3.9015011945883948e-03 -8.8301585772323776e-02 0.0000000000000000e+00  6.0501613762142517e-03 -9.3899367465124339e-02 0.0000000000000000e+00  8.3160464650519628e-03 -9.3908324224386872e-02 0.0000000000000000e+00  1.0641048677783913e-02 -9.0972064682587700e-02 0.0000000000000000e+00  1.2984194733380893e-02 -8.6288252900721313e-02 0.0000000000000000e+00  1.5305098643623847e-02 -8.0317748811501305e-02 0.0000000000000000e+00  1.7555419888822862e-02 -7.3228959088723705e-02 0.0000000000000000e+00  1.9677723751108704e-02 -6.5101268492628428e-02 0.0000000000000000e+00  2.1606591007401640e-02 -5.6003749426306426e-02 0.0000000000000000e+00  2.3271074615514774e-02 -4.6021619030155031e-02 0.0000000000000000e+00  2.4601634235490798e-02 -3.5263218413111981e-02 0.0000000000000000e+00  2.5523852823121924e-02 -2.3857804641069808e-02 0.0000000000000000e+00  2.6125564869312588e-02 -1.2029192319748879e-02 0.0000000000000000e+00  2.6310460684731005e-02 -4.7672686969790561e-04 0.0000000000000000e+00  0.0000000000000000e+00 0.0000000000000000e+00 0.0000000000000000e+00  7.1519984918818854e-04 -4.3816069219352709e-02 0.0000000000000000e+00  2.5721506402712354e-03 -7.4644864959813442e-02 0.0000000000000000e+00  5.1170154795495094e-03 -9.0708163032318573e-02 0.0000000000000000e+00  8.0202229079505988e-03 -9.6506108613840055e-02 0.0000000000000000e+00  1.1108198899090954e-02 -9.6615827311206187e-02 0.0000000000000000e+00  1.4296946650365202e-02 -9.3727370958409328e-02 0.0000000000000000e+00  1.7531839411521696e-02 -8.9046531514136898e-02 0.0000000000000000e+00  2.0757880205715964e-02 -8.3026630707830992e-02 0.0000000000000000e+00  2.3908130788480645e-02 -7.5824726515955940e-02 0.0000000000000000e+00  2.6903138030548328e-02 -6.7510293572421456e-02 0.0000000000000000e+00  2.9654775797554361e-02 -5.8146427243331425e-02 0.0000000000000000e+00  3.2073280208630074e-02 -4.7818599972882188e-02 0.0000000000000000e+00  3.4076160601461618e-02 -3.6646041279299310e-02 0.0000000000000000e+00  3.5613844289023998e-02 -2.4800807255600812e-02 0.0000000000000000e+00  3.6654461183978956e-02 -1.2541140806649092e-02 0.0000000000000000e+00  3.7158007146489612e-02 -3.3568514257175031e-04 0.0000000000000000e+00  0.0000000000000000e+00 0.0000000000000000e+00 0.0000000000000000e+00  9.0544167907200012e-04 -4.5367166783248501e-02 0.0000000000000000e+00  3.2600541797547021e-03 -7.7229551831131060e-02 0.0000000000000000e+00  6.5084804944953965e-03 -9.3862766200890430e-02 0.0000000000000000e+00  1.0245484965556191e-02 -9.9956494566913134e-02 0.0000000000000000e+00  1.4256267142761984e-02 -1.0023064953032654e-01 0.0000000000000000e+00  1.8435227148774061e-02 -9.7436666452170015e-02 0.0000000000000000e+00  2.2712276542252687e-02 -9.2790140755299594e-02 0.0000000000000000e+00  2.7013041286165232e-02 -8.6732740949285375e-02 0.0000000000000000e+00  3.1245314349536025e-02 -7.9405161610558883e-02 0.0000000000000000e+00  3.5299164062442059e-02 -7.0863683382252241e-02 0.0000000000000000e+00  3.9053031877752747e-02 -6.1165120264104998e-02 0.0000000000000000e+00  4.2382735734705496e-02 -5.0398226233161723e-02 0.0000000000000000e+00  4.5172891250790798e-02 -3.8698596115548788e-02 0.0000000000000000e+00  4.7324982475999040e-02 -2.6264115966352645e-02 0.0000000000000000e+00  4.8754300552560491e-02 -1.3381651032645594e-02 0.0000000000000000e+00  4.9396409030538414e-02 -4.0225548854301720e-04 0.0000000000000000e+00  0.0000000000000000e+00 0.0000000000000000e+00 0.0000000000000000e+00  1.1008437578008310e-03 -4.7286298494593308e-02 0.0000000000000000e+00  3.9580875916171068e-03 -8.0433407010138833e-02 0.0000000000000000e+00  7.9115292690866007e-03 -9.7799779719353691e-02 0.0000000000000000e+00  1.2495370126893234e-02 -1.0430347605827411e-01 0.0000000000000000e+00  1.7467511210315406e-02 -1.0483290235011652e-01 0.0000000000000000e+00  2.2708369643851839e-02 -1.0220908179876383e-01 0.0000000000000000e+00  2.8132034386645386e-02 -9.7654387277431823e-02 0.0000000000000000e+00  3.3639960492704693e-02 -9.1591488464322302e-02 0.0000000000000000e+00  3.9106881687426286e-02 -8.4137589751288849e-02 0.0000000000000000e+00  4.4382655811775702e-02 -7.5330644362051863e-02 0.0000000000000000e+00  4.9300664048366215e-02 -6.5218257014620348e-02 0.0000000000000000e+00  5.3688508425702032e-02 -5.3890816560844504e-02 0.0000000000000000e+00  5.7378819040840245e-02 -4.1496297785678378e-02 0.0000000000000000e+00  6.0218961763191969e-02 -2.8253313715362074e-02 0.0000000000000000e+00  6.2081237525777662e-02 -1.4464482571576766e-02 0.0000000000000000e+00  6.2890714553546861e-02 -5.3808683677554730e-04 0.0000000000000000e+00  0.0000000000000000e+00 0.0000000000000000e+00 0.0000000000000000e+00  1.2799214748981783e-03 -4.9560305362280122e-02 0.0000000000000000e+00  4.5964614954667879e-03 -8.4230665844962929e-02 0.0000000000000000e+00  9.2043346171763758e-03 -1.0249762259671631e-01 0.0000000000000000e+00  1.4602818590724513e-02 -1.0954954219603727e-01 0.0000000000000000e+00  2.0542180199145863e-02 -1.1046182452328374e-01 0.0000000000000000e+00  2.6897540040917173e-02 -1.0812410030594960e-01 0.0000000000000000e+00  3.3566230497416437e-02 -1.0375538984686411e-01 0.0000000000000000e+00  4.0418497465175923e-02 -9.7747848969529608e-02 0.0000000000000000e+00  4.7285627867810813e-02 -9.0185826107238951e-02 0.0000000000000000e+00  5.3965456784794787e-02 -8.1082483613554662e-02 0.0000000000000000e+00  6.0233921864467257e-02 -7.0471949528469399e-02 0.0000000000000000e+00  6.5857481322910347e-02 -5.8442901041477778e-02 0.0000000000000000e+00  7.0605224834935407e-02 -4.5153519801824124e-02 0.0000000000000000e+00  7.4262885885024110e-02 -3.0845339887820795e-02 0.0000000000000000e+00  7.6654949245733350e-02 -1.5868086288625773e-02 0.0000000000000000e+00  7.7687431418543687e-02 -7.2309852088968765e-04 0.0000000000000000e+00  0.0000000000000000e+00 0.0000000000000000e+00 0.0000000000000000e+00  1.4228977315607844e-03 -5.2138754033221719e-02 0.0000000000000000e+00  5.1073623402202364e-03 -8.8542902757107342e-02 0.0000000000000000e+00  1.0265213804533093e-02 -1.0788599327684785e-01 0.0000000000000000e+00  1.6404632698272550e-02 -1.1566274211537431e-01 0.0000000000000000e+00  2.3296056004976754e-02 -1.1713985582806777e-01 0.0000000000000000e+00  3.0818616657634426e-02 -1.1526105582966112e-01 0.0000000000000000e+00  3.8848666177164072e-02 -1.1122279073201372e-01 0.0000000000000000e+00  4.7213445649780673e-02 -1.0537043182187272e-01 0.0000000000000000e+00  5.5686037669712155e-02 -9.7744350264712773e-02 0.0000000000000000e+00  6.3997473840821384e-02 -8.8326216104146676e-02 0.0000000000000000e+00  7.1852577281012603e-02 -7.7132537575279284e-02 0.0000000000000000e+00  7.8943940666427806e-02 -6.4247467426836818e-02 0.0000000000000000e+00  8.4964480129489234e-02 -4.9838215926263973e-02 0.0000000000000000e+00  8.9624024238395161e-02 -3.4175124435710462e-02 0.0000000000000000e+00  9.2680691400204795e-02 -1.7674413137507238e-02 0.0000000000000000e+00  9.4002491945041525e-02 -9.6817217787292657e-04 0.0000000000000000e+00  0.0000000000000000e+00 0.0000000000000000e+00 0.0000000000000000e+00  1.5023143951904067e-03 -5.4928411237965928e-02 0.0000000000000000e+00  5.3985303933566427e-03 -9.3229413918457488e-02 0.0000000000000000e+00  1.0932073262421986e-02 -1.1383953886898017e-01 0.0000000000000000e+00  1.7689747778976410e-02 -1.2257886772240620e-01 0.0000000000000000e+00  2.5500102273843535e-02 -1.2488364787765444e-01 0.0000000000000000e+00  3.4253967186018780e-02 -1.2371655205339471e-01 0.0000000000000000e+00  4.3795373588936426e-02 -1.2022044051970798e-01 0.0000000000000000e+00  5.3888784457564315e-02 -1.1467295101723132e-01 0.0000000000000000e+00  6.4227951983767295e-02 -1.0705906310764286e-01 0.0000000000000000e+00  7.4458463142602904e-02 -9.7324145616823135e-02 0.0000000000000000e+00  8.4198720351845002e-02 -8.5465774306492104e-02 0.0000000000000000e+00  9.3055600771875524e-02 -7.1561872586473660e-02 0.0000000000000000e+00  1.0063314078548015e-01 -5.5783639661664601e-02 0.0000000000000000e+00  1.0654460706405718e-01 -3.8428361074172128e-02 0.0000000000000000e+00  1.1045002861043610e-01 -1.9995549592545434e-02 0.0000000000000000e+00  1.1215489666544833e-01 -1.2969043127536218e-03 0.0000000000000000e+00  0.0000000000000000e+00 0.0000000000000000e+00 0.0000000000000000e+00  1.4743105597993676e-03 -5.7772070779724634e-02 0.0000000000000000e+00  5.3291538472077810e-03 -9.8061574926468636e-02 0.0000000000000000e+00  1.0966981684490808e-02 -1.2016077511467567e-01 0.0000000000000000e+00  1.8158354385034100e-02 -1.3019721159752370e-01 0.0000000000000000e+00  2.6836815321717496e-02 -1.3371029283201152e-01 0.0000000000000000e+00  3.6905053480186599e-02 -1.3361628993315761e-01 0.0000000000000000e+00  4.8150554965759873e-02 -1.3095953718914788e-01 0.0000000000000000e+00  6.0243600499056311e-02 -1.2592600268754353e-01 0.0000000000000000e+00  7.2769507022946114e-02 -1.1843650150471677e-01 0.0000000000000000e+00  8.5265032803919324e-02 -1.0840063663164118e-01 0.0000000000000000e+00  9.7246571677254451e-02 -9.5800937659631880e-02 0.0000000000000000e+00  1.0822864825717081e-01 -8.0708090855194120e-02 0.0000000000000000e+00  1.1771702177086675e-01 -6.3288308172794197e-02 0.0000000000000000e+00  1.2520781960026570e-01 -4.3853053833299745e-02 0.0000000000000000e+00  1.3021291573386476e-01 -2.2985959430601877e-02 0.0000000000000000e+00  1.3243161947640272e-01 -1.7398547747106156e-03 0.0000000000000000e+00  0.0000000000000000e+00 0.0000000000000000e+00 0.0000000000000000e+00  1.2702529259075183e-03 -6.0413082025590793e-02 0.0000000000000000e+00  4.6905956441499015e-03 -1.0268569642741497e-01 0.0000000000000000e+00  1.0033629122356986e-02 -1.2655859324145705e-01 0.0000000000000000e+00  1.7400079210250038e-02 -1.3837495910706313e-01 0.0000000000000000e+00  2.6875308936539662e-02 -1.4363977395942831e-01 0.0000000000000000e+00  3.8355581940223808e-02 -1.4511770089717549e-01 0.0000000000000000e+00  5.1528109050233896e-02 -1.4369681976756024e-01 0.0000000000000000e+00  6.5924295919636597e-02 -1.3944919126870983e-01 0.0000000000000000e+00  8.0984575506688056e-02 -1.3222994016460976e-01 0.0000000000000000e+00  9.6110171544248821e-02 -1.2192248819234454e-01 0.0000000000000000e+00  1.1070253232625527e-01 -1.0850811074604072e-01 0.0000000000000000e+00  1.2418172517227358e-01 -9.2062655330533358e-02 0.0000000000000000e+00  1.3596226132366926e-01 -7.2740737374513587e-02 0.0000000000000000e+00  1.4543015430040393e-01 -5.0805665813095230e-02 0.0000000000000000e+00  1.5186254077647701e-01 -2.6867036703008156e-02 0.0000000000000000e+00  1.5476749760528050e-01 -2.3177317285169156e-03 0.0000000000000000e+00  0.0000000000000000e+00 0.0000000000000000e+00 0.0000000000000000e+00  7.9771840765478991e-04 -6.2453833970250984e-02 0.0000000000000000e+00  3.2212196939578638e-03 -1.0658991044524951e-01 0.0000000000000000e+00  7.7335034531683311e-03 -1.3263473294449621e-01 0.0000000000000000e+00  1.4938667915921558e-02 -1.4692073482862675e-01 0.0000000000000000e+00  2.5097743432109413e-02 -1.5467986791775287e-01 0.0000000000000000e+00  3.8050314761035500e-02 -1.5837744473035528e-01 0.0000000000000000e+00  5.3318819275803724e-02 -1.5868373777969697e-01 0.0000000000000000e+00  7.0244449470138040e-02 -1.5554585888280184e-01 0.0000000000000000e+00  8.8087770432079493e-02 -1.4876454558238109e-01 0.0000000000000000e+00  1.0609271989770787e-01 -1.3821709504154125e-01 0.0000000000000000e+00  1.2353369462472551e-01 -1.2391064287257404e-01 0.0000000000000000e+00  1.3973475454191611e-01 -1.0595684810073000e-01 0.0000000000000000e+00  1.5407577241040701e-01 -8.4483928567863881e-02 0.0000000000000000e+00  1.6587827565033308e-01 -5.9603772185915588e-02 0.0000000000000000e+00  1.7407916206231711e-01 -3.1837533166053818e-02 0.0000000000000000e+00  1.7782117131620168e-01 -2.9601258691530031e-03 0.0000000000000000e+00  0.0000000000000000e+00 0.0000000000000000e+00 0.0000000000000000e+00  -1.5477336925401849e-05 -6.3347794800793611e-02 0.0000000000000000e+00  7.4441235516681833e-04 -1.0912539625591917e-01 0.0000000000000000e+00  3.8228481302595729e-03 -1.3790388940473527e-01 0.0000000000000000e+00  1.0461758980029117e-02 -1.5557533972875867e-01 0.0000000000000000e+00  2.1063432913127247e-02 -1.6674779184744012e-01 0.0000000000000000e+00  3.5326745986974273e-02 -1.7341410792122322e-01 0.0000000000000000e+00  5.2542863674553505e-02 -1.7598306315361303e-01 0.0000000000000000e+00  7.1831371573263914e-02 -1.7429121518522733e-01 0.0000000000000000e+00  9.2266824608196268e-02 -1.6811236496055187e-01 0.0000000000000000e+00  1.1293953304717995e-01 -1.5734269036726006e-01 0.0000000000000000e+00  1.3298694240189060e-01 -1.4204807805277012e-01 0.0000000000000000e+00  1.5163690739922439e-01 -1.2243154766932333e-01 0.0000000000000000e+00  1.6828958499135566e-01 -9.8673934366393171e-02 0.0000000000000000e+00  1.8227818717634275e-01 -7.0728724712195989e-02 0.0000000000000000e+00  1.9245235587333057e-01 -3.8477874533148479e-02 0.0000000000000000e+00  1.9700076774962891e-01 -3.2043393874977102e-03 0.0000000000000000e+00  0.0000000000000000e+00 0.0000000000000000e+00 0.0000000000000000e+00  -1.0691088403826112e-03 -6.2550337243428317e-02 0.0000000000000000e+00  -2.4227572276454045e-03 -1.0969497205560566e-01 0.0000000000000000e+00  -1.2166845007613083e-03 -1.4188144653744519e-01 0.0000000000000000e+00  4.3891803821249726e-03 -1.6393987254485712e-01 0.0000000000000000e+00  1.4831326248148419e-02 -1.7943779090677806e-01 0.0000000000000000e+00  2.9590185327380756e-02 -1.8974570142513950e-01 0.0000000000000000e+00  4.7715580338784348e-02 -1.9501815939548287e-01 0.0000000000000000e+00  6.8151282080303147e-02 -1.9503433305702406e-01 0.0000000000000000e+00  8.9859192862290521e-02 -1.8958362226281372e-01 0.0000000000000000e+00  1.1184490642274092e-01 -1.7859894115908395e-01 0.0000000000000000e+00  1.3313879449639174e-01 -1.6220738080937053e-01 0.0000000000000000e+00  1.5286112463686552e-01 -1.4072630562527072e-01 0.0000000000000000e+00  1.7029890398306821e-01 -1.1452742263401629e-01 0.0000000000000000e+00  1.8499013317578575e-01 -8.3457411528186032e-02 0.0000000000000000e+00  1.9655153722704227e-01 -4.5883899340743287e-02 0.0000000000000000e+00  2.0102707540276937e-01 -1.5826594312448082e-03 0.0000000000000000e+00  0.0000000000000000e+00 0.0000000000000000e+00 0.0000000000000000e+00  -1.8218760729495700e-03 -6.0042557022028931e-02 0.0000000000000000e+00  -4.8302293201991789e-03 -1.0820017819131131e-01 0.0000000000000000e+00  -5.3839436318170375e-03 -1.4423587375385835e-01 0.0000000000000000e+00  -1.3571573083613483e-03 -1.7130552223568515e-01 0.0000000000000000e+00  7.5946054681730437e-03 -1.9157647511367759e-01 0.0000000000000000e+00  2.0761454354124093e-02 -2.0575043991920239e-01 0.0000000000000000e+00  3.7096150956453085e-02 -2.1381398503590160e-01 0.0000000000000000e+00  5.5560263724553763e-02 -2.1557779851007128e-01 0.0000000000000000e+00  7.5203321243930199e-02 -2.1089476155770936e-01 0.0000000000000000e+00  9.5129300466700414e-02 -1.9973054366065265e-01 0.0000000000000000e+00  1.1441729422448471e-01 -1.8220624286894554e-01 0.0000000000000000e+00  1.3210758560792416e-01 -1.5866724765251719e-01 0.0000000000000000e+00  1.4706634254583936e-01 -1.2976720013211823e-01 0.0000000000000000e+00  1.5878300215056082e-01 -9.6001517437822217e-02 0.0000000000000000e+00  1.6779303832901429e-01 -5.5426741055340442e-02 0.0000000000000000e+00  1.7031501851214564e-01 4.9146641784507160e-03 0.0000000000000000e+00  0.0000000000000000e+00 0.0000000000000000e+00 0.0000000000000000e+00  -1.2862322539479330e-03 -5.7019172310900430e-02 0.0000000000000000e+00  -4.0878940054028977e-03 -1.0556825852163818e-01 0.0000000000000000e+00  -5.4209550729693743e-03 -1.4500148678560565e-01 0.0000000000000000e+00  -3.4900087467591256e-03 -1.7651676407339079e-01 0.0000000000000000e+00  1.8609140588014220e-03 -2.0083834221893798e-01 0.0000000000000000e+00  9.9869532114001142e-03 -2.1815597690384858e-01 0.0000000000000000e+00  2.0114702890013762e-02 -2.2843119385586910e-01 0.0000000000000000e+00  3.1566929492196749e-02 -2.3158444497462657e-01 0.0000000000000000e+00  4.3773062697692017e-02 -2.2755964372126833e-01 0.0000000000000000e+00  5.6208434387557960e-02 -2.1634140007803063e-01 0.0000000000000000e+00  6.8308385089714430e-02 -1.9796872221043649e-01 0.0000000000000000e+00  7.9327611387820643e-02 -1.7259468352925866e-01 0.0000000000000000e+00  8.7993085677628369e-02 -1.4055390208695406e-01 0.0000000000000000e+00  9.2903448813890233e-02 -1.0231935320771329e-01 0.0000000000000000e+00  9.0882837620574475e-02 -5.9257188526399017e-02 0.0000000000000000e+00  8.9372921440315112e-02 1.0952184246608695e-02 0.0000000000000000e+00  0.0000000000000000e+00 6.8385299681595765e-18 0.0000000000000000e+00  0.0000000000000000e+00 -5.5725967751669145e-02 0.0000000000000000e+00  0.0000000000000000e+00 -1.0402180646978242e-01 0.0000000000000000e+00  0.0000000000000000e+00 -1.4488751615433978e-01 0.0000000000000000e+00  0.0000000000000000e+00 -1.7832309680534128e-01 0.0000000000000000e+00  0.0000000000000000e+00 -2.0432854842278689e-01 0.0000000000000000e+00  0.0000000000000000e+00 -2.2290387100667661e-01 0.0000000000000000e+00  0.0000000000000000e+00 -2.3404906455701044e-01 0.0000000000000000e+00  0.0000000000000