<?xml version="1.0"?>
<VTKFile type="UnstructuredGrid"  version="0.1"  >
<UnstructuredGrid>
<Piece  NumberOfPoints="289" NumberOfCells="512">
<Points>
<DataArray  type="Float64"  NumberOfComponents="3"  format="ascii">0 0 0  0.0625 0 0  0.125 0 0  0.1875 0 0  0.25 0 0  0.3125 0 0  0.375 0 0  0.4375 0 0  0.5 0 0  0.5625 0 0  0.625 0 0  0.6875 0 0  0.75 0 0  0.8125 0 0  0.875 0 0  0.9375 0 0  1 0 0  0 0.0625 0  0.06244146729555806 0.06248634623585034 0  0.1248816534309541 0.06247244815568041 0  0.1873193198746604 0.0624580826900542 0  0.2497533871944293 0.06244307835680479 0  0.3121830527025022 0.06242734899215224 0  0.3746079591108235 0.06241093622725736 0  0.4370284380117203 0.06239406140490241 0  0.4994458599130951 0.06237718430665776 0  0.5618631377413094 0.0623610601251575 0  0.6242854637026051 0.06234677688521061 0  0.686721437191435 0.0623357443152477 0  0.7491849290765324 0.06232960129314951 0  0.8116984543620251 0.06233005086263556 0  0.8742995545389035 0.0623388717497738 0  0.937051086301335 0.06235949061607171 0  1.000037467809238 0.06240820201663138 0  0 0.125 0  0.06238427766964974 0.1249729332364734 0  0.1247659316242389 0.1249453529442445 0  0.1871424145929485 0.1249167849898156 0  0.2495114730554371 0.1248868520434272 0  0.3118713694390776 0.1248553387736372 0  0.3742212055091455 0.1248222763113257 0  0.4365613942449922 0.1247880491266644 0  0.4988943417642106 0.1247535217952625 0  0.561225425079515 0.1247201719869174 0  0.6235643970328453 0.124690196359082 0  0.6859274413396443 0.1246665251794249 0  0.7483402826131161 0.1246526404856578 0  0.8108430776829406 0.1246520546441973 0  0.8734982455403286 0.1246673061666546 0  0.9364029904666571 0.1246983190392334 0  0.9997155770020444 0.1247382038335826 0  0 0.1875 0  0.06232981434950626 0.1874600332811364 0  0.1246555394503616 0.1874192380146937 0  0.1869731756441105 0.1873768367596682 0  0.2492790959002183 0.187332180572603 0  0.3115703401791085 0.1872848401003124 0  0.3738450554861481 0.1872347291723704 0  0.436103149172393 0.1871822697400597 0  0.4983472394546252 0.1871286014213816 0  0.5605840078551769 0.1870758256638939 0  0.6228260830593153 0.1870272470881104 0  0.6850946098901003 0.1869875220468445 0  0.7474226544220373 0.1869625270233693 0  0.8098594660814059 0.1869585707422044 0  0.8724750855981805 0.1869801485355508 0  0.9353634707741274 0.1870242740198022 0  0.9986408815715061 0.1870660883355628 0  0 0.25 0  0.06227958146840744 0.2499479640849453 0  0.1245534509620317 0.2498947248196259 0  0.1868159682178762 0.2498391315948814 0  0.2490618611026113 0.2497801722798109 0  0.3112865426673465 0.249717079717257 0  0.3734866092525948 0.2496494860008168 0  0.4356606048885343 0.2495776430319185 0  0.4978101552380444 0.2495027263572694 0  0.5599415886982266 0.2494272305570836 0  0.6220681595285307 0.2493554398508057 0  0.6842129379537076 0.2492939015380906 0  0.7464122705532659 0.2492517160552903 0  0.8087193152661202 0.2492402461820872 0  0.871206333998558 0.2492715029464449 0  0.9339631187454703 0.249354092714844 0  0.997087658410364 0.2494861818991958 0  0 0.3125 0  0.06223522961203139 0.3124371023763015 0  0.1244629736555148 0.3123725636852356 0  0.1866757616659218 0.3123047835762007 0  0.2488663823063244 0.3122322798694878 0  0.311028159610586 0.312153793397616 0  0.373155433211825 0.3120684550311593 0  0.4352443450613397 0.3119760459918242 0  0.4972940604768334 0.3118773898517634 0  0.5593085708478195 0.3117749191789457 0  0.6212992182003954 0.311673453347205 0  0.6832880066314044 0.3115811890212325 0  0.7453115517000776 0.3115108082521943 0  0.8074250768156547 0.3114803994868562 0  0.8697051738715583 0.3115135129941654 0  0.9322494221444078 0.3116371687873398 0  0.9951715386407064 0.3118762704434581 0  0 0.375 0  0.06219854149225783 0.3749278865989607 0  0.1243877296370766 0.374853643072342 0  0.1865581269782812 0.3747751516414163 0  0.2487003299384056 0.3746903549977261 0  0.3108051301961505 0.3745973353136684 0  0.3728638849500416 0.3744944636880845 0  0.4348692152636809 0.374380663396143 0  0.4968161945414185 0.3742558501126356 0  0.558704235464363 0.3741216386591527 0  0.620539913924643 0.3739824350021262 0  0.6823409398063874 0.3738470495991577 0  0.7441413219233776 0.3737309345944848 0  0.8059973862419679 0.3736589777944275 0  0.8679936788965754 0.3736683347528712 0  0.930247228937413 0.3738098823030689 0  0.9929090924340013 0.3741455320601287 0  0 0.4375 0  0.06217137003834137 0.4374208049666117 0  0.1243315366573284 0.4373389685969228 0  0.1864690719731177 0.4372518166281819 0  0.2485722420467154 0.4371566374839619 0  0.3106289738565976 0.4370507059124862 0  0.3726270085531775 0.4369313725212143 0  0.4345543708391154 0.4367962689739968 0  0.4964003544215307 0.4366437112145946 0  0.5581573209150954 0.4364734356637381 0  0.6198237281792713 0.4362878831303852 0  0.6814089123349875 0.4360943530666996 0  0.7429401624492641 0.4359084601368244 0  0.8044723882824004 0.4357593306195545 0  0.8660999893793252 0.4356966047143861 0  0.9279694082880444 0.4357980652580711 0  0.9902902387038278 0.4361741676791765 0  0 0.5 0  0.06215552586806557 0.4999163660797079 0  0.1242981809563533 0.4998296049211013 0  0.186414697245759 0.4997364970607288 0  0.2484910661061034 0.4996336529302045 0  0.3105122348627603 0.4995174512151139 0  0.3724619274463758 0.4993840200441276 0  0.4343227117671408 0.4992293046965023 0  0.4960765358759325 0.4990493050362355 0  0.5577061196085434 0.4988406388022265 0  0.6191978445462539 0.4986017182603614 0  0.6805471442009561 0.4983350540186535 0  0.7417678014342531 0.4980515546804616 0  0.8029067677236145 0.4977781351419117 0  0.8640655326153632 0.4975701507617242 0  0.9254268384988212 0.4975290824329104 0  0.9872821392276767 0.4978215051368857 0  0 0.5625 0  0.06215261726603438 0.5624150515774727 0  0.124291085901122 0.5623265780695346 0  0.1864006727059529 0.5622308959875162 0  0.2484654185630645 0.562123999241669 0  0.3104675073679207 0.5620013901536874 0  0.3723866476218795 0.5618579101874158 0  0.4341995483260303 0.5616875906387224 0  0.4958796851772821 0.5614835764862877 0  0.5573977752700801 0.5612382476597163 0  0.6187237915514083 0.5609438138666287 0  0.6798320681690574 0.5605939786713335 0  0.7407121707728581 0.5601879165574409 0  0.8013895851627897 0.5597390140177753 0  0.8619609062441911 0.5592926437756901 0  0.9226451692745347 0.5589583982917528 0  0.9838416941881827 0.5589575814898413 0  0 0.625 0  0.06216385376032271 0.6249172539031181 0  0.1243128966827755 0.6248307434315324 0  0.1864315591710505 0.6247364838853267 0  0.2485025797983106 0.6246300212124402 0  0.3105060297732925 0.624506151170817 0  0.3724181909832718 0.6243585810009777 0  0.4342102813283517 0.6241795140196416 0  0.4958471126986966 0.6239591457654559 0  0.5572859897528109 0.623685091824401 0  0.6184766634411957 0.6233418650224626 0  0.6793642330018075 0.6229107984473177 0  0.7398990297730922 0.6223715718180128 0  0.8000612679877844 0.6217084748304945 0  0.8599132334420679 0.6209291930482801 0  0.9196931774683544 0.6201122561283522 0  0.9799495880529061 0.6195027142694692 0  0 0.6875 0  0.06218983395278037 0.687423206702366 0  0.1243650221182077 0.687342634760109 0  0.1865100343192093 0.6872542408414731 0  0.2486072938456745 0.6871534029159182 0  0.3106359049568405 0.6870345482938449 0  0.3725700497048173 0.686890667244838 0  0.4343769148482517 0.6867126467380772 0  0.4960140212994916 0.6864883291185161 0  0.5574259380271221 0.6862011566920218 0  0.6185407541480342 0.6858282113000831 0  0.6792678143764581 0.6853374524909221 0  0.7395011596670702 0.6846842576991609 0  0.7991400787954063 0.6838090105452626 0  0.8581525436131441 0.682644226711087 0  0.9167270787972847 0.6811627778060739 0  0.9755426714506209 0.6795387210888127 0  0 0.75 0  0.06223034817275474 0.7499329195045354 0  0.1244471977110185 0.7498623193668498 0  0.1866361254672679 0.7497844007050528 0  0.2487805163238174 0.7496947440984715 0  0.3108601220756578 0.7495878935750858 0  0.3728491281679586 0.749456788525689 0  0.4347134412277514 0.7492919445676312 0  0.4964067903501927 0.7490802219532061 0  0.5578650955910368 0.7488029018893871 0  0.6189985018540393 0.7484325583811073 0  0.6796809046053278 0.7479277458848224 0  0.7397390464566618 0.7472236274097258 0  0.7989515337786637 0.7462153595642647 0  0.8570945945867744 0.7447319840035855 0  0.9141442706628431 0.7425246816990893 0  0.970805183313601 0.7395370438846801 0  0 0.8125 0  0.06228423412975331 0.8124461305726633 0  0.1245571538140708 0.8123892906799852 0  0.1868065938233223 0.8123262533858434 0  0.2490183386239098 0.8122532160316218 0  0.3111747172585339 0.8121654052192685 0  0.3732526314875247 0.8120565262438251 0  0.4352206280398031 0.8119179537062261 0  0.4970343744248864 0.8117374934587656 0  0.5586294569950579 0.8114974164120169 0  0.6199096698620632 0.8111711864356184 0  0.6807277994860252 0.8107176304870647 0  0.7408546613380154 0.8100694763429637 0  0.799933742452518 0.8091078758633516 0  0.8574393142048343 0.8075984326918788 0  0.9127800207054616 0.8050125019248594 0  0.9664900677048224 0.7999417322894097 0  0 0.875 0  0.062349325178108 0.874962290728647 0  0.1246904796749725 0.8749224276958198 0  0.1870146379492725 0.8748780608868013 0  0.2493113795735817 0.8748263972076575 0  0.3115675646409247 0.8747638934058477 0  0.3737657071073004 0.8746858260015213 0  0.4358814676219254 0.8745856613400862 0  0.4978795931823346 0.8744541108244731 0  0.5597070457118519 0.8742777013319272 0  0.6212808544101367 0.8740366151458909 0  0.6824656255400354 0.8737014314825384 0  0.7430297716749065 0.873228013966832 0  0.802555729878321 0.8725477553175605 0  0.860247109785363 0.8715394654334659 0  0.9145122259685236 0.8699150593921654 0  0.9621833802750852 0.8666758623965435 0  0 0.9375 0  0.06242252221524133 0.9374805860873296 0  0.124840758014927 0.9374600400715652 0  0.1872500649545656 0.937437123608609 0  0.2496449283965731 0.9374103578444741 0  0.3120183369241639 0.9373778563231757 0  0.3743608643168068 0.9373370917451124 0  0.43665922713
[...]
<PointData  Vectors="f_95-0"> 
<DataArray  type="Float64"  Name="f_95-0"  NumberOfComponents="3" format="ascii">0.0000000000000000e+00 0.0000000000000000e+00 0.0000000000000000e+00  -6.4875588516216090e-04 -1.4370452844262147e-02 0.0000000000000000e+00  -1.8089062487644761e-03 -1.5129136053267260e-02 0.0000000000000000e+00  -3.1910903404209325e-03 -8.9860580552363831e-03 0.0000000000000000e+00  -4.8078552940650056e-03 -2.2962196142328113e-04 0.0000000000000000e+00  -6.6178585302035841e-03 8.4413224896152262e-03 0.0000000000000000e+00  -8.5716773016082538e-03 1.5552432390152993e-02 0.0000000000000000e+00  -1.0605733930907446e-02 2.0493529982108082e-02 0.0000000000000000e+00  -1.2644725117334752e-02 2.3207976699406233e-02 0.0000000000000000e+00  -1.4602845101573973e-02 2.3947027734107153e-02 0.0000000000000000e+00  -1.6383824944362177e-02 2.3094032952618852e-02 0.0000000000000000e+00  -1.7879747700703236e-02 2.1050997729578472e-02 0.0000000000000000e+00  -1.8971366770904899e-02 1.8176758775775251e-02 0.0000000000000000e+00  -1.9507805709684852e-02 1.4746280057489968e-02 0.0000000000000000e+00  -1.9311583972003200e-02 1.0988489560724233e-02 0.0000000000000000e+00  -1.8536529756378164e-02 6.9784107149688055e-03 0.0000000000000000e+00  -8.3427655867287041e-03 7.4651618252094092e-03 0.0000000000000000e+00  0.0000000000000000e+00 0.0000000000000000e+00 0.0000000000000000e+00  -4.9873317130645709e-04 -1.3358704716112380e-02 0.0000000000000000e+00  -1.5563451480856902e-03 -1.3860090535012193e-02 0.0000000000000000e+00  -2.8790661764664348e-03 -7.4960239774820303e-03 0.0000000000000000e+00  -4.4494298039685467e-03 1.4563178597117594e-03 0.0000000000000000e+00  -6.2222107148721135e-03 1.0290626073011420e-02 0.0000000000000000e+00  -8.1490535337003026e-03 1.7517709035331609e-02 0.0000000000000000e+00  -1.0165484331182865e-02 2.2513487333100764e-02 0.0000000000000000e+00  -1.2196812740967579e-02 2.5208401203999291e-02 0.0000000000000000e+00  -1.4159059750382641e-02 2.5841143023173092e-02 0.0000000000000000e+00  -1.5959144139233456e-02 2.4782388190700177e-02 0.0000000000000000e+00  -1.7495022012290640e-02 2.2421107415718414e-02 0.0000000000000000e+00  -1.8655095623230956e-02 1.9099047279903431e-02 0.0000000000000000e+00  -1.9317595547528977e-02 1.5079031082554479e-02 0.0000000000000000e+00  -1.9399441950917615e-02 1.0533039586103542e-02 0.0000000000000000e+00  -1.8518157833253758e-02 5.4445735226077438e-03 0.0000000000000000e+00  -1.8516005798668782e-02 1.4063053937798050e-03 0.0000000000000000e+00  0.0000000000000000e+00 0.0000000000000000e+00 0.0000000000000000e+00  -2.9541652705378278e-04 -1.2629408848662304e-02 0.0000000000000000e+00  -1.0995868377053778e-03 -1.2759115113461282e-02 0.0000000000000000e+00  -2.2623319358243341e-03 -6.1249625009397101e-03 0.0000000000000000e+00  -3.7308883794630746e-03 3.0613413895786922e-03 0.0000000000000000e+00  -5.4470773519768555e-03 1.2089176403232161e-02 0.0000000000000000e+00  -7.3524346293705207e-03 1.9456316396679885e-02 0.0000000000000000e+00  -9.3764287840023414e-03 2.4527652704404629e-02 0.0000000000000000e+00  -1.1442583148067559e-02 2.7223604978239568e-02 0.0000000000000000e+00  -1.3468186582767607e-02 2.7773059131832607e-02 0.0000000000000000e+00  -1.5364497334594360e-02 2.6537115041940135e-02 0.0000000000000000e+00  -1.7037657231587476e-02 2.3896619192460149e-02 0.0000000000000000e+00  -1.8393312319618486e-02 2.0190225263824128e-02 0.0000000000000000e+00  -1.9351707741252371e-02 1.5689863801129498e-02 0.0000000000000000e+00  -1.9859594201163854e-02 1.0602548301732521e-02 0.0000000000000000e+00  -2.0061373372508920e-02 5.1829636246860733e-03 0.0000000000000000e+00  -1.9773584091782259e-02 2.8164657987551533e-05 0.0000000000000000e+00  0.0000000000000000e+00 0.0000000000000000e+00 0.0000000000000000e+00  -1.4488786732735185e-04 -1.2178069404945103e-02 0.0000000000000000e+00  -6.9417639080906134e-04 -1.1886050961400458e-02 0.0000000000000000e+00  -1.6736994812819302e-03 -4.8936665235753954e-03 0.0000000000000000e+00  -3.0432289230685789e-03 4.5973934407208504e-03 0.0000000000000000e+00  -4.7347703496853598e-03 1.3871822292186418e-02 0.0000000000000000e+00  -6.6721982066351221e-03 2.1420660760957867e-02 0.0000000000000000e+00  -8.7738610153546750e-03 2.6602929849193040e-02 0.0000000000000000e+00  -1.0957154987974673e-02 2.9333452495640979e-02 0.0000000000000000e+00  -1.3137157821710311e-02 2.9834761630615755e-02 0.0000000000000000e+00  -1.5225490275370179e-02 2.8461388021461254e-02 0.0000000000000000e+00  -1.7130639655075140e-02 2.5590392178572587e-02 0.0000000000000000e+00  -1.8763214617536175e-02 2.1565384017027320e-02 0.0000000000000000e+00  -2.0046228565392680e-02 1.6681003289187778e-02 0.0000000000000000e+00  -2.0940191826958953e-02 1.1204649576419388e-02 0.0000000000000000e+00  -2.1404157294192708e-02 5.4039482645283207e-03 0.0000000000000000e+00  -2.1382109335915989e-02 -3.9046295584022875e-04 0.0000000000000000e+00  0.0000000000000000e+00 0.0000000000000000e+00 0.0000000000000000e+00  -4.0755920792627766e-05 -1.1935364910582761e-02 0.0000000000000000e+00  -4.0651466969640013e-04 -1.1216002675630785e-02 0.0000000000000000e+00  -1.2499267304081618e-03 -3.7819456980704349e-03 0.0000000000000000e+00  -2.5665138698803087e-03 6.1002462809383309e-03 0.0000000000000000e+00  -4.2854718406043759e-03 1.5692159615320875e-02 0.0000000000000000e+00  -6.3151178704571971e-03 2.3478307676707284e-02 0.0000000000000000e+00  -8.5612960169052198e-03 2.8816978815513667e-02 0.0000000000000000e+00  -1.0932965585461193e-02 3.1622393523132612e-02 0.0000000000000000e+00  -1.3340097906218439e-02 3.2113774855523886e-02 0.0000000000000000e+00  -1.5689869535130057e-02 3.0640161495113890e-02 0.0000000000000000e+00  -1.7884337309016833e-02 2.7574336625519114e-02 0.0000000000000000e+00  -1.9822214782754539e-02 2.3262134155986970e-02 0.0000000000000000e+00  -2.1405523704982481e-02 1.8012051830495528e-02 0.0000000000000000e+00  -2.2542294730508766e-02 1.2107498771232067e-02 0.0000000000000000e+00  -2.3140901936768685e-02 5.8229174484523078e-03 0.0000000000000000e+00  -2.3107800944188569e-02 -6.2050814362678676e-04 0.0000000000000000e+00  0.0000000000000000e+00 0.0000000000000000e+00 0.0000000000000000e+00  2.2023914910680954e-05 -1.1831414699082275e-02 0.0000000000000000e+00  -2.3898339117728131e-04 -1.0678442465394558e-02 0.0000000000000000e+00  -1.0181905614158023e-03 -2.7317832639177876e-03 0.0000000000000000e+00  -2.3395062106720300e-03 7.6227584386284308e-03 0.0000000000000000e+00  -4.1304078004236371e-03 1.7601970471029963e-02 0.0000000000000000e+00  -6.2876380052898188e-03 2.5680997304169857e-02 0.0000000000000000e+00  -8.7068227405383489e-03 3.1221510271883260e-02 0.0000000000000000e+00  -1.1290269241637471e-02 3.4141344311583402e-02 0.0000000000000000e+00  -1.3943421037433861e-02 3.4658134672910783e-02 0.0000000000000000e+00  -1.6567533931415454e-02 3.3113893785708677e-02 0.0000000000000000e+00  -1.9053668514016780e-02 2.9872231172790881e-02 0.0000000000000000e+00  -2.1281124637889740e-02 2.5272545209887972e-02 0.0000000000000000e+00  -2.3120766387988316e-02 1.9622427760439768e-02 0.0000000000000000e+00  -2.4441334050254979e-02 1.3209036557069703e-02 0.0000000000000000e+00  -2.5119783586142742e-02 6.3053477702090504e-03 0.0000000000000000e+00  -2.5059146009239398e-02 -8.2818011098425009e-04 0.0000000000000000e+00  0.0000000000000000e+00 0.0000000000000000e+00 0.0000000000000000e+00  5.0895382201417250e-05 -1.1800049031422070e-02 0.0000000000000000e+00  -1.7449840052501125e-04 -1.0195541382877104e-02 0.0000000000000000e+00  -9.5437340932072619e-04 -1.6801724786309541e-03 0.0000000000000000e+00  -2.3208868107690590e-03 9.2066681721141904e-03 0.0000000000000000e+00  -4.1942239556951554e-03 1.9622893217230122e-02 0.0000000000000000e+00  -6.4618386861816654e-03 2.8033831367753333e-02 0.0000000000000000e+00  -9.0144727021121609e-03 3.3809074458958394e-02 0.0000000000000000e+00  -1.1754263607150260e-02 3.6873923158982101e-02 0.0000000000000000e+00  -1.4588115576838692e-02 3.7444993141514595e-02 0.0000000000000000e+00  -1.7416016116835138e-02 3.5853916186966178e-02 0.0000000000000000e+00  -2.0121148707830563e-02 3.2448271308833820e-02 0.0000000000000000e+00  -2.2565788542891201e-02 2.7551530313918712e-02 0.0000000000000000e+00  -2.4595155963962646e-02 2.1461547773470945e-02 0.0000000000000000e+00  -2.6048635567281118e-02 1.4466759229009160e-02 0.0000000000000000e+00  -2.6782142651295141e-02 6.8626939234068774e-03 0.0000000000000000e+00  -2.6690775821668108e-02 -1.0425260903193087e-03 0.0000000000000000e+00  0.0000000000000000e+00 0.0000000000000000e+00 0.0000000000000000e+00  5.0766141872207905e-05 -1.1786806017631424e-02 0.0000000000000000e+00  -1.9623675823134961e-04 -9.7022629094018851e-03 0.0000000000000000e+00  -1.0217296986961336e-03 -5.8355892686249309e-04 0.0000000000000000e+00  -2.4389827554084451e-03 1.0858390337556837e-02 0.0000000000000000e+00  -4.3499808378020784e-03 2.1721343376508832e-02 0.0000000000000000e+00  -6.6342328301360470e-03 3.0467797097384362e-02 0.0000000000000000e+00  -9.1862189310460852e-03 3.6483296769470590e-02 0.0000000000000000e+00  -1.1919801158069314e-02 3.9705519608470553e-02 0.0000000000000000e+00  -1.4755888509604215e-02 4.0350356536333232e-02 0.0000000000000000e+00  -1.7605261659972046e-02 3.8734877332163797e-02 0.0000000000000000e+00  -2.0354752370236377e-02 3.5182919770372544e-02 0.0000000000000000e+00  -2.2860854565322435e-02 2.9993569106157764e-02 0.0000000000000000e+00  -2.4955047363766754e-02 2.3449828123672144e-02 0.0000000000000000e+00  -2.6459376206964546e-02 1.5842788663781433e-02 0.0000000000000000e+00  -2.7214443063893062e-02 7.4938418525821128e-03 0.0000000000000000e+00  -2.7094174656499544e-02 -1.2362358030772746e-03 0.0000000000000000e+00  0.0000000000000000e+00 0.0000000000000000e+00 0.0000000000000000e+00  2.0308595246729734e-05 -1.1741800619707234e-02 0.0000000000000000e+00  -3.0250909797234157e-04 -9.1457811289359734e-03 0.0000000000000000e+00  -1.2010920939495408e-03 5.7371785715362071e-04 0.0000000000000000e+00  -2.6335969760006321e-03 1.2533941758017657e-02 0.0000000000000000e+00  -4.4688581140786129e-03 2.3788512975841353e-02 0.0000000000000000e+00  -6.5810838772586361e-03 3.2816017599896441e-02 0.0000000000000000e+00  -8.8820255752163606e-03 3.9032339734811933e-02 0.0000000000000000e+00  -1.1315768502821000e-02 4.2394871580765214e-02 0.0000000000000000e+00  -1.3837127782517363e-02 4.3119345258812350e-02 0.0000000000000000e+00  -1.6387766389677944e-02 4.1503387589547316e-02 0.0000000000000000e+00  -1.8877259003372341e-02 3.7839811333052573e-02 0.0000000000000000e+00  -2.1174709805049038e-02 3.2397586691839418e-02 0.0000000000000000e+00  -2.3118086021972961e-02 2.5440854680082257e-02 0.0000000000000000e+00  -2.4531717337186978e-02 1.7260546258223937e-02 0.0000000000000000e+00  -2.5255093609254098e-02 8.2011715923709476e-03 0.0000000000000000e+00  -2.5137543332738776e-02 -1.3353880175262893e-03 0.0000000000000000e+00  0.0000000000000000e+00 0.0000000000000000e+00 0.0000000000000000e+00  -5.2979029060557145e-05 -1.1605677086629421e-02 0.0000000000000000e+00  -5.2280863612406210e-04 -8.4730014496576592e-03 0.0000000000000000e+00  -1.5192277980878147e-03 1.7831373389344597e-03 0.0000000000000000e+00  -2.8950166789146739e-03 1.4133323683321647e-02 0.0000000000000000e+00  -4.4685090031282015e-03 2.5627833836968247e-02 0.0000000000000000e+00  -6.1160571269125068e-03 3.4796969761807017e-02 0.0000000000000000e+00  -7.7878991600964413e-03 4.1109662790761364e-02 0.0000000000000000e+00  -9.4848727390734223e-03 4.4553036955077355e-02 0.0000000000000000e+00  -1.1223484003664599e-02 4.5343159842183789e-02 0.0000000000000000e+00  -1.3003285063227121e-02 4.3753240178544289e-02 0.0000000000000000e+00  -1.4781594373736755e-02 4.0038164796234899e-02 0.0000000000000000e+00  -1.6467420875152291e-02 3.4427845697221848e-02 0.0000000000000000e+00  -1.7931187226274556e-02 2.7163820796947024e-02 0.0000000000000000e+00  -1.9027426554772315e-02 1.8551221843847117e-02 0.0000000000000000e+00  -1.9636083544119311e-02 8.9614391161106366e-03 0.0000000000000000e+00  -1.9609182831275399e-02 -1.2074762212517796e-03 0.0000000000000000e+00  0.0000000000000000e+00 0.0000000000000000e+00 0.0000000000000000e+00  -1.9906692696140251e-04 -1.1285732117099706e-02 0.0000000000000000e+00  -9.3448473628253599e-04 -7.6061206605593677e-03 0.0000000000000000e+00  -2.0745169836584600e-03 3.0261821522159769e-03 0.0000000000000000e+00  -3.2983893047269651e-03 1.5504589089045026e-02 0.0000000000000000e+00  -4.3589670038069496e-03 2.6953583453540906e-02 0.0000000000000000e+00  -5.1527415177426922e-03 3.6011894042812971e-02 0.0000000000000000e+00  -5.7005841818857797e-03 4.2232326201989731e-02 0.0000000000000000e+00  -6.0952066923428451e-03 4.5642735030518619e-02 0.0000000000000000e+00  -6.4486986418669763e-03 4.6458863799206003e-02 0.0000000000000000e+00  -6.8498032550210041e-03 4.4922716486897975e-02 0.0000000000000000e+00  -7.3362001300463307e-03 4.1238949912128009e-02 0.0000000000000000e+00  -7.8862535486440670e-03 3.5590463030535320e-02 0.0000000000000000e+00  -8.4164034888716821e-03 2.8218478357303643e-02 0.0000000000000000e+00  -8.8615617474886478e-03 1.9470809026214734e-02 0.0000000000000000e+00  -9.2236884100061513e-03 9.7314684146238943e-03 0.0000000000000000e+00  -9.4420244994495254e-03 -6.7614985737139948e-04 0.0000000000000000e+00  0.0000000000000000e+00 0.0000000000000000e+00 0.0000000000000000e+00  -4.7092935870751771e-04 -1.0623000795089710e-02 0.0000000000000000e+00  -1.6720816240420884e-03 -6.4123025595717803e-03 0.0000000000000000e+00  -3.0459293660865514e-03 4.2928338088363436e-03 0.0000000000000000e+00  -4.0167479501136945e-03 1.6456956504356628e-02 0.0000000000000000e+00  -4.2719876503869662e-03 2.7407619701772239e-02 0.0000000000000000e+00  -3.7649855276757679e-03 3.5970381926508165e-02 0.0000000000000000e+00  -2.6317470271429548e-03 4.1816176056728493e-02 0.0000000000000000e+00  -1.0969864191804155e-03 4.5021056949085481e-02 0.0000000000000000e+00  5.9750326177866004e-04 4.5795711685971810e-02 0.0000000000000000e+00  2.2407761852576776e-03 4.4340351590232183e-02 0.0000000000000000e+00  3.6799895214917294e-03 4.0796685389783413e-02 0.0000000000000000e+00  4.8527277977395257e-03 3.5292400780553478e-02 0.0000000000000000e+00  5.7739673527535118e-03 2.8042016104550333e-02 0.0000000000000000e+00  6.3880361048097387e-03 1.9431430580874206e-02 0.0000000000000000e+00  6.5874643242141420e-03 1.0080710524280922e-02 0.0000000000000000e+00  5.9864914283900717e-03 4.2499986743674560e-04 0.0000000000000000e+00  0.0000000000000000e+00 0.0000000000000000e+00 0.0000000000000000e+00  -9.4127596619915496e-04 -9.3579692173305848e-03 0.0000000000000000e+00  -2.9040361384277858e-03 -4.6840784391823471e-03 0.0000000000000000e+00  -4.6448818910436512e-03 5.5922869284344284e-03 0.0000000000000000e+00  -5.2686138357656009e-03 1.6784122501583235e-02 0.0000000000000000e+00  -4.4367611500122370e-03 2.6609661211090412e-02 0.0000000000000000e+00  -2.2213798365175058e-03 3.4170560489983320e-02 0.0000000000000000e+00  1.0761103547000342e-03 3.9281223055554856e-02 0.0000000000000000e+00  5.0663892950027923e-03 4.2061951538245788e-02 0.0000000000000000e+00  9.3562017156398301e-03 4.2706877197310048e-02 0.0000000000000000e+00  1.3590478877003454e-02 4.1364274934908483e-02 0.0000000000000000e+00  1.7479166905844133e-02 3.8099762583812292e-02 0.0000000000000000e+00  2.0841816863963542e-02 3.2935529446789027e-02 0.0000000000000000e+00  2.3580242150014571e-02 2.5997568562253180e-02 0.0000000000000000e+00  2.5750160574371132e-02 1.7929508753433195e-02 0.0000000000000000e+00  2.7145357703929080e-02 9.9631363020045785e-03 0.0000000000000000e+00  2.6514233607963837e-02 1.8779011726461933e-03 0.0000000000000000e+00  0.0000000000000000e+00 0.0000000000000000e+00 0.0000000000000000e+00  -1.6683343679029803e-03 -7.1368455861344588e-03 0.0000000000000000e+00  -4.7100237945052938e-03 -2.1805972124115808e-03 0.0000000000000000e+00  -6.9187263251074237e-03 6.9286568622969873e-03 0.0000000000000000e+00  -7.1111546146232253e-03 1.6302355340099172e-02 0.0000000000000000e+00  -5.0315444749968177e-03 2.4270569172212052e-02 0.0000000000000000e+00  -9.4738546592159462e-04 3.0278029566422504e-02 0.0000000000000000e+00  4.6444890937961973e-03 3.4278349066440061e-02 0.0000000000000000e+00  1.1192427170098730e-02 3.6412154719779544e-02 0.0000000000000000e+00  1.8167967213498122e-02 3.6838865163336253e-02 0.0000000000000000e+00  2.5088303823869035e-02 3.5650945400392743e-02 0.0000000000000000e+00  3.1521419987809239e-02 3.2836884471694146e-02 0.0000000000000000e+00  3.7099114857191841e-02 2.8293436908393473e-02 0.0000000000000000e+00  4.1606818012181468e-02 2.1982773498633958e-02 0.0000000000000000e+00  4.5403559970795995e-02 1.4302900757678318e-02 0.0000000000000000e+00  4.8500482196131067e-02 6.9122586031771941e-03 0.0000000000000000e+00  4.8124622928095565e-02 2.1065298108874737e-03 0.0000000000000000e+00  0.0000000000000000e+00 0.0000000000000000e+00 0.0000000000000000e+00  -2.5529870639283561e-03 -3.6345609417363675e-03 0.0000000000000000e+00  -6.7006879420317004e-03 1.1959213407751453e-03 0.0000000000000000e+00  -9.2275648019862228e-03 8.2306482867384335e-03 0.0000000000000000e+00  -8.9301995743044631e-03 1.4947802454300305e-02 0.0000000000000000e+00  -5.8053228431187822e-03 2.0440707268019821e-02 0.0000000000000000e+00  -3.4584317701339686e-04 2.4484162480781963e-02 0.0000000000000000e+00  6.8061365457915699e-03 2.7117837204471348e-02 0.0000000000000000e+00  1.5018900892273495e-02 2.8458016466669150e-02 0.0000000000000000e+00  2.3718619823452036e-02 2.8608678394286494e-02 0.0000000000000000e+00  3.2380548642243649e-02 2.7614235876019189e-02 0.0000000000000000e+00  4.0490639553018022e-02 2.5426518969581865e-02 0.0000000000000000e+00  4.7518265418835227e-02 2.1881824625544444e-02 0.0000000000000000e+00  5.3008472796727532e-02 1.6686596926396749e-02 0.0000000000000000e+00  5.6697728400433731e-02 9.4935190991738694e-03 0.0000000000000000e+00  5.8864356565892249e-02 1.1711289751011932e-03 0.0000000000000000e+00  6.4378342271608727e-02 -4.6970192358272624e-03 0.0000000000000000e+00  0.0000000000000000e+00 0.0000000000000000e+00 0.0000000000000000e+00  -2.8875284502661316e-03 8.5679003786805479e-04 0.0000000000000000e+00  -7.0296659432214394e-03 4.8550925288600869e-03 0.0000000000000000e+00  -9.0884560563488977e-03 9.1991516887846830e-03 0.0000000000000000e+00  -8.4306874966564617e-03 1.2987212447921250e-02 0.0000000000000000e+00  -5.3520658650872436e-03 1.5969468625066593e-02 0.0000000000000000e+00  -3.9740061215941220e-04 1.8116095387230680e-02 0.0000000000000000e+00  5.8709990255080939e-03 1.9464339390835198e-02 0.0000000000000000e+00  1.2954756266570991e-02 2.0063757095287561e-02 0.0000000000000000e+00  2.0425100646684579e-02 1.9952687490962413e-02 0.0000000000000000e+00  2.7894196390032943e-02 1.9144778463756871e-02 0.0000000000000000e+00  3.4961010095139695e-02 1.7616070320275169e-02 0.0000000000000000e+00  4.1147462579956738e-02 1.5280502284210755e-02 0.0000000000000000e+00  4.5728626028431134e-02 1.1907644325353505e-02 0.0000000000000000e+00  4.7637463911910462e-02 7.1155543474150573e-03 0.0000000000000000e+00  4.6240833886464522e-02 -4.9530770184014955e-05 0.0000000000000000e+00  3.2371171254998242e-02 -6.8964740618507247e-03 0.0000000000000000e+00  0.0000000000000000e+00 0.0000000000000000e+00 0.0000000000000000e+00  0.0000000000000000e+00 3.6791320036702936e-03 0.0000000000000000e+00  0.0000000000000000e+00 6.8677130735178829e-03 0.0000000000000000e+00  0.0000000000000000e+00 9.5657432095427649e-03 0.0000000000000000e+00  0.0000000000000000e+00 1.1773222411744940e-02 0.0000000000000000e+00  0.0000000000000000e+00 1.3490150680124411e-02 0.0000000000000000e+00  0.0000000000000000e+00 1.4716528014681178e-02 0.0000000000000000e+00  0.0000000000000000e+00 1.5452354415415235e-02 0.0000000000000000e+00  0.0000000000000000e+00 1.5697629882