<?xml version="1.0"?>
<VTKFile type="UnstructuredGrid"  version="0.1"  >
<UnstructuredGrid>
<Piece  NumberOfPoints="289" NumberOfCells="512">
<Points>
<DataArray  type="Float64"  NumberOfComponents="3"  format="ascii">0 0 0  0.0625 0 0  0.125 0 0  0.1875 0 0  0.25 0 0  0.3125 0 0  0.375 0 0  0.4375 0 0  0.5 0 0  0.5625 0 0  0.625 0 0  0.6875 0 0  0.75 0 0  0.8125 0 0  0.875 0 0  0.9375 0 0  1 0 0  0 0.0625 0  0.06253499251360871 0.0624797097666245 0  0.125071032868312 0.0624590520058176 0  0.1876091782086512 0.0624376871581829 0  0.2501504975479879 0.06241534920228264 0  0.3126960751459318 0.06239189350964125 0  0.3752470133831337 0.06236735693161728 0  0.4378044414048745 0.06234203083981507 0  0.5003695461742671 0.06231654276548096 0  0.562943665201467 0.06229193295427275 0  0.6255285307301519 0.06226969666799702 0  0.6881268721306963 0.06225174068260352 0  0.7507438615535955 0.06224017841763905 0  0.8133905325100912 0.06223689029219778 0  0.8760915066828264 0.06224292052585257 0  0.9388991705969122 0.06225867093219661 0  1.001891325620224 0.06229292115242466 0  0 0.125 0  0.06256891093982259 0.1249597727472135 0  0.1251399249727847 0.1249187737179552 0  0.1877151713009194 0.1248762828913945 0  0.2502968181608214 0.1248317184196181 0  0.3128870896708518 0.1247847293925139 0  0.375488284236183 0.1247353159315704 0  0.4381028067975229 0.1246839808543547 0  0.5007332450486618 0.1246319087349375 0  0.5633825558944746 0.1245811514357758 0  0.6260544999906639 0.1245347690149051 0  0.6887545981259321 0.1244968261578822 0  0.7514921145203407 0.1244720781570876 0  0.814283844586615 0.1244651284194215 0  0.8771602915640001 0.1244789407583079 0  0.9401725238483837 0.1245132527209539 0  1.003397035725246 0.1245643903252701 0  0 0.1875 0  0.06260071854554007 0.1874406000750432 0  0.1252045881305185 0.1873799574035375 0  0.1878148105376277 0.1873168960188474 0  0.2504346684240073 0.187250423604732 0  0.3130675629657738 0.1871798615141335 0  0.3757170530658752 0.1871050214397256 0  0.4383869089152813 0.1870264414864853 0  0.5010812093804556 0.1869456864828634 0  0.5638045421028701 0.1868656984177741 0  0.6265624113302245 0.1867911430289136 0  0.6893620135219886 0.1867286204865746 0  0.752213546682072 0.1866864580255271 0  0.8151319658201946 0.1866734954189818 0  0.878138067109811 0.1866955292206515 0  0.9412555163355784 0.1867458443908199 0  1.004500276402665 0.1867788490018729 0  0 0.25 0  0.06262939178249428 0.2499226687479479 0  0.1252629533761617 0.2498435369138122 0  0.1879049375328466 0.2497608718731037 0  0.2505597339159713 0.249673139046245 0  0.3132319340488398 0.2495791543085568 0  0.3759263951588645 0.2494783055434048 0  0.4386483112084244 0.2493708704228931 0  0.5014033089837433 0.2492584560446375 0  0.564197599132247 0.2491445749757845 0  0.627038217805207 0.2490353394930931 0  0.6899333641132303 0.2489401785235844 0  0.7528926929482744 0.2488723180090461 0  0.8159270029747911 0.2488484425487166 0  0.8790458981913724 0.2488863795837568 0  0.9422510744339273 0.2489989068855682 0  1.005524198777937 0.2491824930811708 0  0 0.3125 0  0.06265393213258126 0.3124065408250776 0  0.1253129946990094 0.3123106317817569 0  0.187982440153282 0.3122098732189928 0  0.2506677283152876 0.3121020342284325 0  0.3133746265227285 0.3119852029515068 0  0.3761093063378847 0.3118580273053094 0  0.4388784402540142 0.3117200916625069 0  0.5016893049438824 0.3115724865874326 0  0.5645498962752837 0.3114186379072806 0  0.6274690420449294 0.3112654579572924 0  0.690456429696547 0.3111248430026937 0  0.7535222920118657 0.3110154211812277 0  0.8166761608267513 0.3109641778326623 0  0.8799237250434983 0.3110070607533444 0  0.9432612151980594 0.3111869238121073 0  1.006670203630338 0.3115466242093074 0  0 0.375 0  0.06267338568172244 0.3748928670059871 0  0.1253527680020294 0.3747825600652371 0  0.1880443101765178 0.3746659149191136 0  0.2507544674560509 0.3745398524786804 0  0.3134901321219778 0.3744014921263186 0  0.3762587768764155 0.3742483678599807 0  0.4390685998496574 0.3740788104939855 0  0.5019286773479135 0.3738925884285477 0  0.5648491302935571 0.373691939809635 0  0.6278412964088219 0.3734831773323785 0  0.6909178490899704 0.3732790880337415 0  0.7540926791520177 0.3731023380608022 0  0.8173801395134543 0.3729899196811877 0  0.8807930720817586 0.37299815259165 0  0.9443394450973674 0.3732066541838932 0  1.008019646807549 0.3737180203607176 0  0 0.4375 0  0.06268687352493632 0.437382369114147 0  0.1253804718209462 0.4372608076806809 0  0.1880877337379433 0.4371313305757233 0  0.250815986684408 0.4369898957141616 0  0.3135731458265039 0.4368324376080435 0  0.3763679195213128 0.4366549979923351 0  0.4392100306749311 0.4364540259565874 0  0.5021104751469783 0.4362269668675578 0  0.5650818586601598 0.4359733351506053 0  0.6281388837236351 0.4356965828480772 0  0.6912990901303798 0.4354072409603105 0  0.754583959728562 0.4351280013024327 0  0.8180204249581858 0.4349015067673176 0  0.8816426195997833 0.4348013040368482 0  0.9454934777278654 0.4349451089765478 0  1.00962619559038 0.4355069537024113 0  0 0.5 0  0.06269363520114749 0.4998757974020266 0  0.1253945348809448 0.4997469441726688 0  0.1881102243053043 0.4996086508913917 0  0.2508487199957289 0.4994558772383124 0  0.313618788927596 0.4992832423073238 0  0.376430226174731 0.4990850000735803 0  0.4392941713226157 0.4988551445421459 0  0.502223510420677 0.4985877654376759 0  0.5652334684905336 0.4982778776155548 0  0.6283426137048941 0.4979231300111325 0  0.6915746999313438 0.4975271153361858 0  0.754962079475449 0.497105507617131 0  0.8185517320338014 0.4966969313758064 0  0.8824149445227063 0.4963809362788201 0  0.9466607243935415 0.4963044047503435 0  1.01145126420615 0.4967127925085302 0  0 0.5625 0  0.06269308511535038 0.5623738618122995 0  0.1253937310693542 0.5622424811994182 0  0.1881098008316484 0.5621003824759256 0  0.2508497484834734 0.5619416145908345 0  0.3136229379491068 0.5617595052806917 0  0.376439992621786 0.5615464200129187 0  0.4393132042731303 0.5612935590192663 0  0.5022570693697522 0.560990874525143 0  0.5652891206398749 0.5606272912539805 0  0.6284314511499283 0.5601916216606426 0  0.6917138090618209 0.5596749955708706 0  0.7551800327223877 0.5590764864857108 0  0.8189009449600884 0.5584152421876536 0  0.8829980870711015 0.5577549337840098 0  0.9476819032038882 0.5572479878687405 0  1.013302227915891 0.5572011895098911 0  0 0.625 0  0.06268487856707129 0.6248771414233317 0  0.1253773154897533 0.6247486808836586 0  0.1880852023588392 0.6246086937623445 0  0.2508171072787706 0.6244505610052598 0  0.3135826456638667 0.6242665581514318 0  0.3763928911761639 0.6240473675196099 0  0.439260853294382 0.6237814932731442 0  0.5022020862382297 0.6234545781542776 0  0.5652356087660703 0.623048676117918 0  0.6283856270650067 0.6225416832064153 0  0.6916853356344288 0.6219075149792026 0  0.7551858525370306 0.6211186225018399 0  0.8189768794084656 0.6201550181761583 0  0.8832310661572097 0.6190301173742432 0  0.9482876473478282 0.6178541655503311 0  1.014783082437568 0.6169533877000976 0  0 0.6875 0  0.06266898022347191 0.6873859825784847 0  0.1253451674695995 0.6872663352741438 0  0.1880361178399184 0.6871350399790719 0  0.2507501210979779 0.6869852161566204 0  0.3134966098215856 0.6868085707212287 0  0.3762866157370904 0.6865946860083958 0  0.4391332864738891 0.6863300611545927 0  0.5020524878085815 0.6859967943152405 0  0.565063583652571 0.6855707616091754 0  0.6281907463443943 0.6850191340822664 0  0.6914660089476481 0.6842971609475691 0  0.7549378199198229 0.6833446705324286 0  0.8186956613601285 0.6820850219028124 0  0.8829366501714403 0.6804384234147099 0  0.9481218030665691 0.6783949594929222 0  1.015269923186418 0.6762458382492026 0  0 0.75 0  0.06264572454900975 0.7499004021397228 0  0.1252979196147424 0.7497955521968587 0  0.1879633997393386 0.7496797861918962 0  0.2506497253935943 0.7495465062648405 0  0.3133656300731523 0.7493875556074669 0  0.3761215051432476 0.7491923676902743 0  0.4389299414011063 0.7489467504840022 0  0.5018062942539002 0.7486310918764334 0  0.5647691908463877 0.7482176471961652 0  0.6278408870074722 0.7476663546230343 0  0.6910477137104195 0.7469182454022304 0  0.7544227990084389 0.7458848664268914 0  0.818021495054671 0.7444313496801418 0  0.881989954204909 0.742352698333835 0  0.9468172592946461 0.7393729686850679 0  1.013877122274595 0.7355022863138015 0  0 0.8125 0  0.06261585572020283 0.8124200158792932 0  0.1252370478183072 0.8123355919896387 0  0.1878692239916255 0.8122419072652081 0  0.2505187251955462 0.8121332642754714 0  0.3131929988108327 0.8120024834384014 0  0.3759010871044452 0.8118400520068721 0  0.438654192063548 0.8116328650129908 0  0.5014662566284773 0.8113622963926234 0  0.5643543408763985 0.8110011643813744 0  0.6273381864390156 0.8105088367218499 0  0.6904375617762963 0.809823088681908 0  0.753664813035083 0.8088459007491743 0  0.8170110626754638 0.8074167035632822 0  0.8804459475313565 0.805256365934412 0  0.944106558851449 0.8018387898770734 0  1.010059573004227 0.7961116716384262 0  0 0.875 0  0.06258053459831206 0.8749440113076281 0  0.125164896406796 0.8748847992502814 0  0.1877571566539339 0.8748188463628616 0  0.2503619416299745 0.8747419531905992 0  0.3129847808669955 0.8746487567606404 0  0.3756325444958537 0.8745320404232311 0  0.4383139930856942 0.8743816911522411 0  0.5010404195065284 0.8741830691848776 0  0.563826203051256 0.8739143978166506 0  0.6266885879014964 0.873542512207155 0  0.689644469055807 0.8730158312183954 0  0.7526975319112472 0.8722524274198394 0  0.8157967221033731 0.871118023546592 0  0.878715023735594 0.8693752030981904 0  0.9407303308572554 0.866518307632872 0  0.9999751947766758 0.8610763664514117 0  0 0.9375 0  0.06254130288182215 0.9374711782633631 0  0.1250846159410069 0.9374406611238512 0  0.1876320879159583 0.9374065930817977 0  0.2501861874821798 0.9373667454779503 0  0.3127499148861201 0.9373182496936703 0  0.3753270856000646 0.937257210136329 0  0.4379227227421381 0.9371781119
[...]
<PointData  Vectors="f_54"> 
<DataArray  type="Float64"  Name="f_54"  NumberOfComponents="3" format="ascii">0.0000000000000000e+00 0.0000000000000000e+00 0.0000000000000000e+00  0.0000000000000000e+00 0.0000000000000000e+00 0.0000000000000000e+00  0.0000000000000000e+00 0.0000000000000000e+00 0.0000000000000000e+00  0.0000000000000000e+00 0.0000000000000000e+00 0.0000000000000000e+00  0.0000000000000000e+00 0.0000000000000000e+00 0.0000000000000000e+00  0.0000000000000000e+00 0.0000000000000000e+00 0.0000000000000000e+00  0.0000000000000000e+00 0.0000000000000000e+00 0.0000000000000000e+00  0.0000000000000000e+00 0.0000000000000000e+00 0.0000000000000000e+00  0.0000000000000000e+00 0.0000000000000000e+00 0.0000000000000000e+00  0.0000000000000000e+00 0.0000000000000000e+00 0.0000000000000000e+00  0.0000000000000000e+00 0.0000000000000000e+00 0.0000000000000000e+00  0.0000000000000000e+00 0.0000000000000000e+00 0.0000000000000000e+00  0.0000000000000000e+00 0.0000000000000000e+00 0.0000000000000000e+00  0.0000000000000000e+00 0.0000000000000000e+00 0.0000000000000000e+00  0.0000000000000000e+00 0.0000000000000000e+00 0.0000000000000000e+00  0.0000000000000000e+00 0.0000000000000000e+00 0.0000000000000000e+00  0.0000000000000000e+00 0.0000000000000000e+00 0.0000000000000000e+00  0.0000000000000000e+00 0.0000000000000000e+00 0.0000000000000000e+00  4.7995872509138112e-06 3.9535376621875113e-09 0.0000000000000000e+00  9.7404663362942127e-06 5.7144243687896892e-09 0.0000000000000000e+00  1.4966898292564977e-05 2.8075729883901770e-09 0.0000000000000000e+00  2.0622579168188726e-05 -7.8161292848061680e-09 0.0000000000000000e+00  2.6849010057418589e-05 -3.0060195304189647e-08 0.0000000000000000e+00  3.3781991157813817e-05 -6.8925884613302723e-08 0.0000000000000000e+00  4.1545574650798398e-05 -1.3065695276147578e-07 0.0000000000000000e+00  5.0243034599168623e-05 -2.2268263124397923e-07 0.0000000000000000e+00  5.9945309208682431e-05 -3.5322640947248646e-07 0.0000000000000000e+00  7.0680207866767426e-05 -5.3050835825301401e-07 0.0000000000000000e+00  8.2434254375676533e-05 -7.6186890165786213e-07 0.0000000000000000e+00  9.5205642720839502e-05 -1.0547143922893746e-06 0.0000000000000000e+00  1.0923400559181100e-04 -1.4269225925036909e-06 0.0000000000000000e+00  1.2583823203792568e-04 -1.9560385300217762e-06 0.0000000000000000e+00  1.5043743117334530e-04 -2.9843590173004829e-06 0.0000000000000000e+00  2.0386409297450003e-04 -5.9745511861250662e-06 0.0000000000000000e+00  0.0000000000000000e+00 0.0000000000000000e+00 0.0000000000000000e+00  9.4602792168109992e-06 1.0097685037301539e-08 0.0000000000000000e+00  1.9203977562178069e-05 1.6086303700676367e-08 0.0000000000000000e+00  2.9520762978786283e-05 1.3293222008329667e-08 0.0000000000000000e+00  4.0700487374786355e-05 -4.1164218632179482e-09 0.0000000000000000e+00  5.3030635426048847e-05 -4.3733017852923480e-08 0.0000000000000000e+00  6.6790001342989673e-05 -1.1545507442404108e-07 0.0000000000000000e+00  8.2237027900473184e-05 -2.3188614832284229e-07 0.0000000000000000e+00  9.9591234651063827e-05 -4.0835553733084000e-07 0.0000000000000000e+00  1.1900669940249853e-04 -6.6220483292223194e-07 0.0000000000000000e+00  1.4053846354604563e-04 -1.0108499488548350e-06 0.0000000000000000e+00  1.6410766779335054e-04 -1.4680910242501655e-06 0.0000000000000000e+00  1.8948177825354993e-04 -2.0382605285202879e-06 0.0000000000000000e+00  2.1630183391962773e-04 -2.7072572243955057e-06 0.0000000000000000e+00  2.4417324578552830e-04 -3.4214775936543733e-06 0.0000000000000000e+00  2.7252619550133738e-04 -3.9891897500518572e-06 0.0000000000000000e+00  2.9778294804478722e-04 -3.5080150008166311e-06 0.0000000000000000e+00  0.0000000000000000e+00 0.0000000000000000e+00 0.0000000000000000e+00  1.3837193471380516e-05 2.0337492029261766e-08 0.0000000000000000e+00  2.8100305756197001e-05 3.5212469589383940e-08 0.0000000000000000e+00  4.3225336243920687e-05 3.8331523642485282e-08 0.0000000000000000e+00  5.9651717640211622e-05 2.1648680000201139e-08 0.0000000000000000e+00  7.7820291043389947e-05 -2.5590684508121571e-08 0.0000000000000000e+00  9.8165771432290260e-05 -1.1783207221623122e-07 0.0000000000000000e+00  1.2110105565623562e-04 -2.7408755851906023e-07 0.0000000000000000e+00  1.4699009013233614e-04 -5.1839646209804328e-07 0.0000000000000000e+00  1.7610532822087902e-04 -8.7927677851978561e-07 0.0000000000000000e+00  2.0856500957716178e-04 -1.3871484971312629e-06 0.0000000000000000e+00  2.4424383824960466e-04 -2.0681519733544847e-06 0.0000000000000000e+00  2.8264459408066810e-04 -2.9322036579238365e-06 0.0000000000000000e+00  3.2269473446027368e-04 -3.9530078982223798e-06 0.0000000000000000e+00  3.6235011123873204e-04 -5.0405993194032260e-06 0.0000000000000000e+00  3.9764584363712296e-04 -6.0288534054105351e-06 0.0000000000000000e+00  4.2033908016486302e-04 -6.8451077398031034e-06 0.0000000000000000e+00  0.0000000000000000e+00 0.0000000000000000e+00 0.0000000000000000e+00  1.7785761822108195e-05 3.6006869758491290e-08 0.0000000000000000e+00  3.6138630484738404e-05 6.6040293038455552e-08 0.0000000000000000e+00  5.5640365422965402e-05 8.3071007483348964e-08 0.0000000000000000e+00  7.6882936975289430e-05 7.7777388347981861e-08 0.0000000000000000e+00  1.0046922119711664e-04 3.7188713200883651e-08 0.0000000000000000e+00  1.2700696392793095e-04 -5.6866710784308340e-08 0.0000000000000000e+00  1.5709237603333618e-04 -2.2943380847113270e-07 0.0000000000000000e+00  1.9127837091383211e-04 -5.1393512939803181e-07 0.0000000000000000e+00  2.3002052497509421e-04 -9.5280890223664990e-07 0.0000000000000000e+00  2.7359088367915301e-04 -1.5958455541689228e-06 0.0000000000000000e+00  3.2194449789062191e-04 -2.4935616852562147e-06 0.0000000000000000e+00  3.7451281261894156e-04 -3.6811118497357230e-06 0.0000000000000000e+00  4.2987462112249980e-04 -5.1459290415380310e-06 0.0000000000000000e+00  4.8520883496987882e-04 -6.7703775970333599e-06 0.0000000000000000e+00  5.3537133532440071e-04 -8.2403374537599265e-06 0.0000000000000000e+00  5.7149164512843356e-04 -8.8981153741927217e-06 0.0000000000000000e+00  0.0000000000000000e+00 0.0000000000000000e+00 0.0000000000000000e+00  2.1163724886684739e-05 5.7590251586460538e-08 0.0000000000000000e+00  4.3031043521429436e-05 1.0978277187807512e-07 0.0000000000000000e+00  6.6325589401542573e-05 1.4998970710576993e-07 0.0000000000000000e+00  9.1792180846739458e-05 1.6894748164985499e-07 0.0000000000000000e+00  1.2020302676640985e-04 1.5298167990981825e-07 0.0000000000000000e+00  1.5235691938405535e-04 8.1800630051201263e-08 0.0000000000000000e+00  1.8906718598412438e-04 -7.4276432947761339e-08 0.0000000000000000e+00  2.3113223922876770e-04 -3.5758541857664734e-07 0.0000000000000000e+00  2.7927976076879866e-04 -8.2639715976401938e-07 0.0000000000000000e+00  3.3407149130896169e-04 -1.5568294532792484e-06 0.0000000000000000e+00  3.9574960651808758e-04 -2.6401970211279314e-06 0.0000000000000000e+00  4.6399666580498698e-04 -4.1692617704627299e-06 0.0000000000000000e+00  5.3756834976773863e-04 -6.2012905666189373e-06 0.0000000000000000e+00  6.1374551526100494e-04 -8.6778861833938431e-06 0.0000000000000000e+00  6.8756333734604376e-04 -1.1273001723780168e-05 0.0000000000000000e+00  7.5088519379801059e-04 -1.3138855510570685e-05 0.0000000000000000e+00  0.0000000000000000e+00 0.0000000000000000e+00 0.0000000000000000e+00  2.3834763959662806e-05 8.4483261066937861e-08 0.0000000000000000e+00  4.8499512558459385e-05 1.6538910507799562e-07 0.0000000000000000e+00  7.4850371175029490e-05 2.3796973914641085e-07 0.0000000000000000e+00  1.0377989529092966e-04 2.9472878106670714e-07 0.0000000000000000e+00  1.3623184029229850e-04 3.2344820209609201e-07 0.0000000000000000e+00  1.7320994347466034e-04 3.0440725339877422e-07 0.0000000000000000e+00  2.1577654341725842e-04 2.0641683276444346e-07 0.0000000000000000e+00  2.6503456158641201e-04 -1.8724591960471444e-08 0.0000000000000000e+00  3.2208303668480393e-04 -4.4358630157760044e-07 0.0000000000000000e+00  3.8793182381042634e-04 -1.1738531692512092e-06 0.0000000000000000e+00  4.6335525115053595e-04 -2.3562401994589705e-06 0.0000000000000000e+00  5.4865813795125214e-04 -4.1791065600783620e-06 0.0000000000000000e+00  6.4332298130988762e-04 -6.8505088327018487e-06 0.0000000000000000e+00  7.4551029439205870e-04 -1.0522429131596066e-05 0.0000000000000000e+00  8.5140626252074199e-04 -1.5105397329508439e-05 0.0000000000000000e+00  9.5446043564752117e-04 -1.9889159323276200e-05 0.0000000000000000e+00  0.0000000000000000e+00 0.0000000000000000e+00 0.0000000000000000e+00  2.5674021936926568e-05 1.1484285690214915e-07 0.0000000000000000e+00  5.2286913744450289e-05 2.2917610516672636e-07 0.0000000000000000e+00  8.0810177363620597e-05 3.4155652172896844e-07 0.0000000000000000e+00  1.1227053922171485e-04 4.4819877009386786e-07 0.0000000000000000e+00  1.4777610044575329e-04 5.4106768464065271e-07 0.0000000000000000e+00  1.8853906746858374e-04 6.0487910348044093e-07 0.0000000000000000e+00  2.3589176022798143e-04 6.1229911853912305e-07 0.0000000000000000e+00  2.9129017989094609e-04 5.1629347005291750e-07 0.0000000000000000e+00  3.5629580343830581e-04 2.3817241753802646e-07 0.0000000000000000e+00  4.3252128088451498e-04 -3.5039950307965298e-07 0.0000000000000000e+00  5.2151970957655454e-04 -1.4526638466506100e-06 0.0000000000000000e+00  6.2459195706595532e-04 -3.3775832476034932e-06 0.0000000000000000e+00  7.4248677525517765e-04 -6.5653194330582226e-06 0.0000000000000000e+00  8.7498258016992312e-04 -1.1574103001602942e-05 0.0000000000000000e+00  1.0203751846574560e-03 -1.8950045296539265e-05 0.0000000000000000e+00  1.1749381120418974e-03 -2.8825380793050157e-05 0.0000000000000000e+00  0.0000000000000000e+00 0.0000000000000000e+00 0.0000000000000000e+00  2.6575469698526542e-05 1.4559424349763316e-07 0.0000000000000000e+00  5.4172139625795310e-05 2.9477176318825458e-07 0.0000000000000000e+00  8.3850163256452091e-05 4.5067157928769613e-07 0.0000000000000000e+00  1.1674562196955901e-04 6.1509523970372242e-07 0.0000000000000000e+00  1.5411002458487802e-04 7.8712657056840949e-07 0.0000000000000000e+00  1.9735053660057899e-04 9.6059693885354925e-07 0.0000000000000000e+00  2.4806945728091313e-04 1.1194450762773057e-06 0.0000000000000000e+00  3.0809928779690446e-04 1.2293147694542671e-06 0.0000000000000000e+00  3.7952616113879825e-04 1.2225405302828072e-06 0.0000000000000000e+00  4.6468901480185989e-04 9.7178264169873758e-07 0.0000000000000000e+00  5.6613488572033880e-04 2.4495883819943667e-07 0.0000000000000000e+00  6.8650445920106465e-04 -1.3683496569016734e-06 0.0000000000000000e+00  8.2832433160422853e-04 -4.5674485918407542e-06 0.0000000000000000e+00  9.9371159685696466e-04 -1.0480886059001793e-05 0.0000000000000000e+00  1.1840815117496141e-03 -2.0780422195378207e-05 0.0000000000000000e+00  1.4001065214042036e-03 -3.7618491923585381e-05 0.0000000000000000e+00  0.0000000000000000e+00 0.0000000000000000e+00 0.0000000000000000e+00  2.6460698649832825e-05 1.7266180355741437e-07 0.0000000000000000e+00  5.3988497843441939e-05 3.5353450804318429e-07 0.0000000000000000e+00  8.3694829282773177e-05 5.5110351126772523e-07 0.0000000000000000e+00  1.1678711972068636e-04 7.7410520134039760e-07 0.0000000000000000e+00  1.5462210347297318e-04 1.0312086096564124e-06 0.0000000000000000e+00  1.9876535392021746e-04 1.3298597872210384e-06 0.0000000000000000e+00  2.5105838127649325e-04 1.6733841511218600e-06 0.0000000000000000e+00  3.1369327166914506e-04 2.0545278546202971e-06 0.0000000000000000e+00  3.8929198758491624e-04 2.4418014028252857e-06 0.0000000000000000e+00  4.8098215800877433e-04 2.7514152799165448e-06 0.0000000000000000e+00  5.9245272005307699e-04 2.7907523784517543e-06 0.0000000000000000e+00  7.2796260413650284e-04 2.1469635249583426e-06 0.0000000000000000e+00  8.9227372416703261e-04 -2.5188504062674435e-08 0.0000000000000000e+00  1.0905206781751582e-03 -5.3830801799241514e-06 0.0000000000000000e+00  1.3282064602652540e-03 -1.7005161314573977e-05 0.0000000000000000e+00  1.6120108926012764e-03 -4.0223943830913602e-05 0.0000000000000000e+00  0.0000000000000000e+00 0.0000000000000000e+00 0.0000000000000000e+00  2.5288310114408348e-05 1.9146282089218569e-07 0.0000000000000000e+00  5.1643729332161992e-05 3.9555996242772257e-07 0.0000000000000000e+00  8.0181216912434219e-05 6.2604445831486887e-07 0.0000000000000000e+00  1.1212790418028726e-04 8.9887774107848599e-07 0.0000000000000000e+00  1.4888856855037531e-04 1.2334037652715119e-06 0.0000000000000000e+00  1.9212353047244710e-04 1.6534344083257312e-06 0.0000000000000000e+00  2.4384404258247179e-04 2.1878174365400383e-06 0.0000000000000000e+00  3.0653049185764777e-04 2.8693415915855344e-06 0.0000000000000000e+00  3.8327789635636642e-04 3.7291505239934451e-06 0.0000000000000000e+00  4.7796970921841958e-04 4.7798710653294866e-06 0.0000000000000000e+00  5.9547241309015257e-04 5.9712742819439463e-06 0.0000000000000000e+00  7.4182769655973993e-04 7.0801874431893676e-06 0.0000000000000000e+00  9.2440138279284738e-04 7.4460098418651044e-06 0.0000000000000000e+00  1.1519682690092528e-03 5.3595012615614671e-06 0.0000000000000000e+00  1.4349255654921207e-03 -3.2470666288180016e-06 0.0000000000000000e+00  1.7866178599576512e-03 -2.7283507059807949e-05 0.0000000000000000e+00  0.0000000000000000e+00 0.0000000000000000e+00 0.0000000000000000e+00  2.3062696013128439e-05 1.9764144492532466e-07 0.0000000000000000e+00  4.7139129785356240e-05 4.1125468723760337e-07 0.0000000000000000e+00  7.3291614482674257e-05 6.5871980452735349e-07 0.0000000000000000e+00  1.0270338706670934e-04 9.6203169188419306e-07 0.0000000000000000e+00  1.3675206593269067e-04 1.3500740745525075e-06 0.0000000000000000e+00  1.7710135922620673e-04 1.8623326571338663e-06 0.0000000000000000e+00  2.2582024120779937e-04 2.5539717615217973e-06 0.0000000000000000e+00  2.8554162578115405e-04 3.5026775363524154e-06 0.0000000000000000e+00  3.5967566623472933e-04 4.8172889744483528e-06 0.0000000000000000e+00  4.5269473351136868e-04 6.6465901373843939e-06 0.0000000000000000e+00  5.7050415890383952e-04 9.1807756280173950e-06 0.0000000000000000e+00  7.2089768020461450e-04 1.2618360847564498e-05 0.0000000000000000e+00  9.1406108724419058e-04 1.7006220297211963e-05 0.0000000000000000e+00  1.1630517322034630e-03 2.1654021482934395e-05 0.0000000000000000e+00  1.4843579421093742e-03 2.3278022506274110e-05 0.0000000000000000e+00  1.9000528738883746e-03 1.1828746898509691e-05 0.0000000000000000e+00  0.0000000000000000e+00 0.0000000000000000e+00 0.0000000000000000e+00  1.9840747768765893e-05 1.8793638797395474e-07 0.0000000000000000e+00  4.0584631769014093e-05 3.9326044566678104e-07 0.0000000000000000e+00  6.3180521015159091e-05 6.3578807695935392e-07 0.0000000000000000e+00  8.8696388427029262e-05 9.4077358104874436e-07 0.0000000000000000e+00  1.1839405188377786e-04 1.3429094161461068e-06 0.0000000000000000e+00  1.5382611186721214e-04 1.8922137189503820e-06 0.0000000000000000e+00  1.9696789277839696e-04 2.6631332532853203e-06 0.0000000000000000e+00  2.5040312328305250e-04 3.7690860004047073e-06 0.0000000000000000e+00  3.1759093836310600e-04 5.3863182842805426e-06 0.0000000000000000e+00  4.0325386949802296e-04 7.7939976393451937e-06 0.0000000000000000e+00  5.1393991615281641e-04 1.1442770217337595e-05 0.0000000000000000e+00  6.5881766064374144e-04 1.7070587056753813e-05 0.0000000000000000e+00  8.5073605999603575e-04 2.5874266503200953e-05 0.0000000000000000e+00  1.1074709077754873e-03 3.9585641526401474e-05 0.0000000000000000e+00  1.4529381354624585e-03 5.9104397000334654e-05 0.0000000000000000e+00  1.9213676734213736e-03 7.2361050217061026e-05 0.0000000000000000e+00  0.0000000000000000e+00 0.0000000000000000e+00 0.0000000000000000e+00  1.5734984670981134e-05 1.6099677147889550e-07 0.0000000000000000e+00  3.2206505194619471e-05 3.3831490653895534e-07 0.0000000000000000e+00  5.0190026007559461e-05 5.5077509461834268e-07 0.0000000000000000e+00  7.0565805725553293e-05 8.2291294860812069e-07 0.0000000000000000e+00  9.4386358206704357e-05 1.1893677292146652e-06 0.0000000000000000e+00  1.2296658064233119e-04 1.7016119945133130e-06 0.0000000000000000e+00  1.5801094225748567e-04 2.4388321792624271e-06 0.0000000000000000e+00  2.0180052583055369e-04 3.5262065973273633e-06 0.0000000000000000e+00  2.5747715090282543e-04 5.1667642521223655e-06 0.0000000000000000e+00  3.2948640770648851e-04 7.6994854313058737e-06 0.0000000000000000e+00  4.2428224874062706e-04 1.1712042987798868e-05 0.0000000000000000e+00  5.5145833667584682e-04 1.8278783475583618e-05 0.0000000000000000e+00  7.2554499167856669e-04 2.9516683114982481e-05 0.0000000000000000e+00  9.6868913809760899e-04 5.0018865267071352e-05 0.0000000000000000e+00  1.3135149766541091e-03 9.0827846428108704e-05 0.0000000000000000e+00  1.7912967947285318e-03 1.8076862558866411e-04 0.0000000000000000e+00  0.0000000000000000e+00 0.0000000000000000e+00 0.0000000000000000e+00  1.0911841316857914e-05 1.1792404068973907e-07 0.0000000000000000e+00  2.2344768432221949e-05 2.4852963655606259e-07 0.0000000000000000e+00  3.4848221946579824e-05 4.0654782463734766e-07 0.0000000000000000e+00  4.9049745970537915e-05 6.1145029348490592e-07 0.0000000000000000e+00  6.5706180857856127e-05 8.9116482002061764e-07 0.0000000000000000e+00  8.5773500327466273e-05 1.2878612411612870e-06 0.0000000000000000e+00  1.1050792489777854e-04 1.8674063041249838e-06 0.0000000000000000e+00  1.4161939832871268e-04 2.7352737578190286e-06 0.0000000000000000e+00  1.8151428712559066e-04 4.0639028835978297e-06 0.0000000000000000e+00  2.3369435503064911e-04 6.1407640897215071e-06 0.0000000000000000e+00  3.0343880256196307e-04 9.4555951287171013e-06 0.0000000000000000e+00  3.9902030604240663e-04 1.4870198335600559e-05 0.0000000000000000e+00  5.3399165255430935e-04 2.4005071549123890e-05 0.0000000000000000e+00  7.3190224130171536e-04 4.0389630500405990e-05 0.0000000000000000e+00  1.0381148893127982e-03 7.3959508128362982e-05 0.0000000000000000e+00  1.5604789990428026e-03 1.6111959900554055e-04 0.0000000000000000e+00  0.0000000000000000e+00 0.0000000000000000e+00 0.0000000000000000e+00  5.5844349319010889e-06 6.2353711212480664e-08 0.0000000000000000e+00  1.1438605262526178e-05 1.3163548793977712e-07 0.0000000000000000e+00  1.7847135153250306e-05 2.1592372512107230e-07 0.0000000000000000e+00  2.5136240741936634e-05 3.2597242158351723e-07 0.0000000000000000e+00  3.3701256170653227e-05 4.7732233406138954e-07 0.0000000000000000e+00  4.4044609695031462e-05 6.9359391805576259e-07 0.0000000000000000e+00  5.6831562306940931e-05 1.0118291967349678e-06 0.0000000000000000e+00  7.2976208463566803e-05 1.4912498326924195e-06 0.0000000000000000e+00  9.3780129018537024e-05 2.2273252381921800e-06 0.0000000000000000e+00  1.2116513116242085e-04 3.3725160424213755e-06 0.0000000000000000e+00  1.5807712415765742e-04 5.1582216732170159e-06 0.0000000000000000e+00  2.0919341303818624e-04 7.8762257463868587e-06 0.0000000000000000e+00  2.8206886391701536e-04 1.1614614271008012e-05 0.0000000000000000e+00  3.8820090125414808e-04 1.4870354580301168e-05 0.0000000000000000e+00  5.3876543281815075e-04 9.0011272933604793e-06 0.0000000000000000e+00  7.1275664845003373e-04 -3.3989132148963060e-05 0.0000000000000000e+00  0.0000000000000000e+00 0.0000000000000000e+00 0.0000000000000000e+00  0.0000000000000000e+00 0.0000000000000000e+00 0.0000000000000000e+00  0.0000000000000000e+00 0.0000000000000000e+00 0.0000000000000000e+00  0.0000000000000000e+00 0.0000000000000000e+00 0.0000000000000000e+00  0.0000000000000000e+00 0.0000000000000000e+00 0.0000000000000000e+00  0.0000000000000000e+00 0.0000000000000000e+00 0.0000000000000000e+00  0.0000000000000000e+00 0.0000000000000000e+00 0.0000000000000000e+00  0.0000000000000000e+00 0.0000000000000000e+00 0.0000000000000000e+00  0.0000000000000000e+00 0.0000000000000000e+00 0.0000000000000000e+00  0.0000000000000000e+00 0.0000000000000000e+00 0.0000000000000000e+00  0.0000000000000000e+00 0.0000000000000000e+00 0.0000000000000000e