<?xml version="1.0"?>
<VTKFile type="UnstructuredGrid"  version="0.1"  >
<UnstructuredGrid>
<Piece  NumberOfPoints="289" NumberOfCells="512">
<Points>
<DataArray  type="Float64"  NumberOfComponents="3"  format="ascii">0 0 0  0.0625 0 0  0.125 0 0  0.1875 0 0  0.25 0 0  0.3125 0 0  0.375 0 0  0.4375 0 0  0.5 0 0  0.5625 0 0  0.625 0 0  0.6875 0 0  0.75 0 0  0.8125 0 0  0.875 0 0  0.9375 0 0  1 0 0  0 0.0625 0  0.06255136210308043 0.06246428221464859 0  0.1251045996394905 0.06242789725834831 0  0.1876616517416553 0.06239021524247781 0  0.2502246014281485 0.06235072902031161 0  0.3127957665113028 0.06230913452672518 0  0.3753778225259128 0.06226543267703509 0  0.437973988743546 0.06222005443542222 0  0.5005883402649467 0.06217400184667395 0  0.5632263801065871 0.06212898086691484 0  0.6258961711105712 0.06208747142103637 0  0.6886107400534105 0.06205262850849862 0  0.7513935551509746 0.06202782344475477 0  0.8142918857476055 0.06201549439904661 0  0.8774113025743158 0.06201474112354646 0  0.9410074579780345 0.06201696591893054 0  1.005720726875948 0.06200528435431184 0  0 0.125 0  0.06260082908542899 0.1249291842488171 0  0.125205366829899 0.1248569694993125 0  0.1878174546944918 0.1247820247542375 0  0.2504412302393108 0.1247032490581166 0  0.3130813138014018 0.1246199271887178 0  0.375743057702038 0.1245319337346867 0  0.4384329130699038 0.1244399940238453 0  0.5011590187356502 0.1243459963846322 0  0.5639322162319671 0.1242533215661029 0  0.6267678970261202 0.1241671021631876 0  0.6896894935084659 0.1240942373149582 0  0.7527351889911542 0.1240428686682956 0  0.8159705828099865 0.1240209483320679 0  0.8795104640348979 0.1240338788878503 0  0.9435460049568082 0.124083431409277 0  1.008340314893028 0.1241773147135106 0  0 0.1875 0  0.06264660838211358 0.1873954592081172 0  0.1252986417337093 0.1872886729247192 0  0.1879617262101403 0.1871774806488875 0  0.2506419272632074 0.1870600258102618 0  0.3133460218282346 0.1869349733926849 0  0.3760818511236628 0.186801810187921 0  0.438858815746819 0.1866612519885877 0  0.5016886178468432 0.1865157701392387 0  0.5645864277641129 0.186370219824859 0  0.6275727639383384 0.1862324877658947 0  0.6906765067293766 0.1861139492762676 0  0.753939473171071 0.1860292797794278 0  0.8174222831452418 0.1859946633373971 0  0.8812081614199604 0.1860221676817183 0  0.9453926686047578 0.1861038624146937 0  1.010034616229971 0.1861635862101066 0  0 0.25 0  0.06268703256647377 0.2498639720896481 0  0.1253810185926062 0.2497247047044186 0  0.1880891752676026 0.2495790386275176 0  0.2508192807968341 0.2494241382101748 0  0.313580014193015 0.2492577447047788 0  0.3763813809625611 0.249078551642629 0  0.4392352800837623 0.2488867524932436 0  0.5021562926386027 0.2486848115348441 0  0.5651627986668911 0.2484784949354962 0  0.6282785303951045 0.2482781504872427 0  0.6915345658362658 0.2481001024415161 0  0.7549713437124375 0.2479677581945493 0  0.8186390780473894 0.247911466339398 0  0.8825923009072776 0.2479650950784077 0  0.9468704032482639 0.2481557025156502 0  1.011456262381987 0.2484833454742914 0  0 0.3125 0  0.06272061201854189 0.3123357296253913 0  0.1254494568844445 0.3121670726211266 0  0.1881950842471639 0.3119896882453332 0  0.2509666986761332 0.3117995029086284 0  0.3137745484671919 0.311592956135029 0  0.3766303996657849 0.3113674050878139 0  0.4395481437159144 0.3111217705482708 0  0.5025445994765178 0.3108575318256201 0  0.5656405685969867 0.3105802015571005 0  0.6288621504561881 0.3103014166531043 0  0.692242135895821 0.3100417276093861 0  0.7558208249713352 0.3098339673249993 0  0.8196446713576232 0.3097265731230601 0  0.8837598745774209 0.3097852185852197 0  0.9481980434872487 0.3100896128232761 0  1.012957840576483 0.3107213750447848 0  0 0.375 0  0.06274607905956345 0.3748118828395284 0  0.1255013726750143 0.3746181099997184 0  0.1882754530166768 0.3744130018387824 0  0.2510786109016083 0.3741909955839186 0  0.313922276634495 0.373946823003615 0  0.3768195260419239 0.3736758667014413 0  0.4397857223468304 0.3733748084991376 0  0.5028393613335194 0.3730427399285924 0  0.5660031960972298 0.3726829850381946 0  0.6293056901424585 0.3723059857719989 0  0.6927827233357732 0.3719336903301696 0  0.7564791594034889 0.3716058688317294 0  0.8204493156913317 0.3713884305367621 0  0.8847548233332042 0.371382749463465 0  0.9494591621421137 0.3717329511531631 0  1.014623589475598 0.372625809012991 0  0 0.4375 0  0.06276242572487786 0.437293693158505 0  0.1255347149661574 0.4370804152455755 0  0.1883271147994854 0.4368530649444824 0  0.2511506235072077 0.4366044073076875 0  0.3140174259491016 0.4363271093787919 0  0.3769414151924121 0.4360139417831502 0  0.4399388638609219 0.4356582746750329 0  0.5030293494832431 0.4352550843318982 0  0.5662371006321532 0.434802831899761 0  0.6295930123780895 0.4343068039013417 0  0.6931376556982213 0.433784828830526 0  0.7569256075859718 0.4332766474861176 0  0.8210312471486493 0.4328583364766932 0  0.8855557898259792 0.4326623397079602 0  0.9506354424727558 0.4329008636244195 0  1.016453991603221 0.4338864922074195 0  0 0.5 0  0.06276893831352195 0.49978245563474 0  0.1255480341873446 0.4995566997906857 0  0.1883478376726537 0.4993142548147907 0  0.2511796512164869 0.499046171959322 0  0.3140559585157334 0.4987428511430089 0  0.3769909345728229 0.4983939679811543 0  0.4400011145310274 0.4979886205020488 0  0.5031063753677727 0.4975159122507979 0  0.566331534210603 0.4969663828615212 0  0.6297091393266809 0.4963350532254819 0  0.6932844747610387 0.4956274800074943 0  0.7571244047955541 0.4948712231562568 0  0.8213322275976671 0.4941363974485761 0  0.8860706062319644 0.4935694062258199 0  0.9515934772073001 0.493440327033529 0  1.018288923884846 0.4941932041544289 0  0 0.5625 0  0.06276523071171229 0.5622793786766498 0  0.1255405473484366 0.5620495398446052 0  0.1883364198432198 0.5618008504587609 0  0.2511640427983866 0.5615228204394739 0  0.314035733736283 0.5612036527021871 0  0.3769653905418876 0.5608297927613087 0  0.4399690835473103 0.5603855329962226 0  0.5030659617260925 0.5598528157964365 0  0.5662798910506502 0.5592115711925149 0  0.6296427545658932 0.558441335400949 0  0.6932013494445485 0.5575257747088418 0  0.7570315498664746 0.5564635660002722 0  0.8212657410384775 0.5552925491024849 0  0.8861410810159454 0.5541389047123338 0  0.9520738891741168 0.5533031728614543 0  1.019759697813301 0.5533749760689076 0  0 0.625 0  0.06275127594903945 0.6247854285473976 0  0.1255121988321511 0.6245610464150777 0  0.1882927763069119 0.6243164894900359 0  0.251103691501855 0.6240401653992256 0  0.3139566499926714 0.6237185227778139 0  0.3768647414250965 0.623335177529576 0  0.4398428554490942 0.6228698553534191 0  0.5029082853135416 0.622297143048228 0  0.5660819177981128 0.6215851455695302 0  0.6293910946845137 0.6206944426064986 0  0.6928768662810997 0.6195785581265705 0  0.7566118728693791 0.6181894100652383 0  0.8207414495603992 0.6164972783753789 0  0.8855680973149378 0.6145493940854779 0  0.9516985138412528 0.6126106306902284 0  1.020258378225154 0.6113913941766207 0  0 0.6875 0  0.06272743271888469 0.687301157435062 0  0.1254637104741304 0.6870924919647925 0  0.1882180062151587 0.6868635304716751 0  0.2510001093444233 0.6866022936069158 0  0.3138207142550601 0.6862943339784641 0  0.3766916659829226 0.6859214863952867 0  0.439626131044966 0.6854601773767366 0  0.502638682489445 0.6848790887299182 0  0.5657454369043859 0.684135911074786 0  0.6289649573723842 0.6831729036471528 0  0.6923224843712892 0.6819111961750791 0  0.7558653385588441 0.6802450565530994 0  0.8197107315179049 0.6780431496502755 0  0.8841739345953402 0.6751883388975616 0  0.950034980066492 0.6717800790732847 0  1.018979078473762 0.6686748016480822 0  0 0.75 0  0.06269446176495955 0.7498265434353323 0  0.1253966119197119 0.7496439549019495 0  0.1881144293697967 0.7494424241990847 0  0.2508564498873158 0.7492105262052753 0  0.3136320080996087 0.7489341419677791 0  0.376451393196289 0.7485949876392491 0  0.4393258066936543 0.7481685077572631 0  0.502266908516421 0.7476207564688526 0  0.5652856014882952 0.7469036638150772 0  0.6283896778897201 0.7459476881297862 0  0.6915807471686887 0.7446501464790968 0  0.7548552809785202 0.7428563155175927 0  0.8182325444987947 0.7403292767743541 0  0.8818958681907695 0.7367113432713337 0  0.9467195232314807 0.7315640233277895 0  1.014776502672598 0.7254821270186546 0  0 0.8125 0  0.06265352652203018 0.8123608759261338 0  0.1253132425465114 0.8122140567938184 0  0.1879855860440254 0.8120512278176795 0  0.2506774877726646 0.8118625714818306 0  0.3133965883172937 0.8116357333255357 0  0.376151369523571 0.8113543695801613 0  0.4389510527001664 0.8109959996784855 0  0.501804912824197 0.8105287180711283 0  0.5647202100286159 0.8099060213920271 0  0.6276970033771211 0.809058450733271 0  0.6907163970816711 0.8078795980054252 0  0.7537168102730881 0.8062012771455097 0  0.8165571456891929 0.8037452984574815 0  0.8790151925377085 0.8000197967885063 0  0.9411967743023338 0.7940932157397228 0  1.007702761856284 0.7842779140715854 0  0 0.875 0  0.06260617278602956 0.8749027175817957 0  0.1252167171940331 0.8747998642031444 0  0.1878361986930815 0.8746853957698987 0  0.2504695830898802 0.8745521072850881 0  0.3131224335352493 0.8743908186026463 0  0.3758010691056571 0.8741892101755163 0  0.4385125783029665 0.8739300700974231 0  0.5012643876477092 0.8735885662429439 0  0.5640625718554799 0.8731279094792553 0  0.6269067168463074 0.8724923634951011 0  0.6897754694548838 0.8715958419189859 0  0.7525872972904798 0.87030266874755 0  0.8150976058307825 0.868390575375843 0  0.876646286694058 0.8654530847129174 0  0.9356206594530638 0.8605421826559507 0  0.988640067312948 0.8507566636673065 0  0 0.9375 0  0.06255428278645259 0.9374499634905821 0  0.1251108465700672 0.9373970038975104 0  0.1876720861940674 0.9373379426233549 0  0.2502406402020996 0.9372689698177438 0  0.3128195292668447 0.9371851968367142 0  0.3754123057681547 0.9370800096127869 0  0.4380231875697311 0.936944
[...]
<PointData  Vectors="f_54"> 
<DataArray  type="Float64"  Name="f_54"  NumberOfComponents="3" format="ascii">0.0000000000000000e+00 0.0000000000000000e+00 0.0000000000000000e+00  0.0000000000000000e+00 0.0000000000000000e+00 0.0000000000000000e+00  0.0000000000000000e+00 0.0000000000000000e+00 0.0000000000000000e+00  0.0000000000000000e+00 0.0000000000000000e+00 0.0000000000000000e+00  0.0000000000000000e+00 0.0000000000000000e+00 0.0000000000000000e+00  0.0000000000000000e+00 0.0000000000000000e+00 0.0000000000000000e+00  0.0000000000000000e+00 0.0000000000000000e+00 0.0000000000000000e+00  0.0000000000000000e+00 0.0000000000000000e+00 0.0000000000000000e+00  0.0000000000000000e+00 0.0000000000000000e+00 0.0000000000000000e+00  0.0000000000000000e+00 0.0000000000000000e+00 0.0000000000000000e+00  0.0000000000000000e+00 0.0000000000000000e+00 0.0000000000000000e+00  0.0000000000000000e+00 0.0000000000000000e+00 0.0000000000000000e+00  0.0000000000000000e+00 0.0000000000000000e+00 0.0000000000000000e+00  0.0000000000000000e+00 0.0000000000000000e+00 0.0000000000000000e+00  0.0000000000000000e+00 0.0000000000000000e+00 0.0000000000000000e+00  0.0000000000000000e+00 0.0000000000000000e+00 0.0000000000000000e+00  0.0000000000000000e+00 0.0000000000000000e+00 0.0000000000000000e+00  0.0000000000000000e+00 0.0000000000000000e+00 0.0000000000000000e+00  4.6409258099799881e-06 1.3708064781221375e-07 0.0000000000000000e+00  9.4110925886322654e-06 2.7318647151370609e-07 0.0000000000000000e+00  1.4443932279449313e-05 4.0681165572865416e-07 0.0000000000000000e+00  1.9870581782020116e-05 5.3503147515935474e-07 0.0000000000000000e+00  2.5817406852147313e-05 6.5269244438077120e-07 0.0000000000000000e+00  3.2401548134495045e-05 7.5151465096144594e-07 0.0000000000000000e+00  3.9723769844720916e-05 8.1914555009317741e-07 0.0000000000000000e+00  4.7858016958660118e-05 8.3826613330950611e-07 0.0000000000000000e+00  5.6837671243759935e-05 7.8589055857034319e-07 0.0000000000000000e+00  6.6640431240942436e-05 6.3287557345658244e-07 0.0000000000000000e+00  7.7179788447516491e-05 3.4288165130201941e-07 0.0000000000000000e+00  8.8330440610130022e-05 -1.3301706048223342e-07 0.0000000000000000e+00  1.0008042774684119e-04 -8.8089032893736623e-07 0.0000000000000000e+00  1.1313852629600576e-04 -2.1230712546524713e-06 0.0000000000000000e+00  1.3124327779659550e-04 -4.6072511513152786e-06 0.0000000000000000e+00  1.7045328373696580e-04 -1.1213552015074207e-05 0.0000000000000000e+00  0.0000000000000000e+00 0.0000000000000000e+00 0.0000000000000000e+00  9.1551052249090384e-06 2.7519658142706259e-07 0.0000000000000000e+00  1.8570784971339913e-05 5.4913096605399968e-07 0.0000000000000000e+00  2.8516161520987502e-05 8.1951478063237075e-07 0.0000000000000000e+00  3.9257224202169627e-05 1.0812844060651647e-06 0.0000000000000000e+00  5.1052661126674014e-05 1.3249744993488354e-06 0.0000000000000000e+00  6.4145743081674646e-05 1.5348610841666095e-06 0.0000000000000000e+00  7.8750656431353789e-05 1.6869344049310768e-06 0.0000000000000000e+00  9.5031607906393578e-05 1.7469208775493637e-06 0.0000000000000000e+00  1.1307328769175847e-04 1.6687962707838761e-06 0.0000000000000000e+00  1.3284236478388838e-04 1.3944638152085652e-06 0.0000000000000000e+00  1.5414249953755692e-04 8.5533563765856651e-07 0.0000000000000000e+00  1.7657093054146219e-04 -2.3813963978641107e-08 0.0000000000000000e+00  1.9948999496512541e-04 -1.3185614002668784e-06 0.0000000000000000e+00  2.2199636234109817e-04 -3.0878987482002651e-06 0.0000000000000000e+00  2.4256962424725636e-04 -5.2681761780322969e-06 0.0000000000000000e+00  2.5610614218903429e-04 -6.9462352657365570e-06 0.0000000000000000e+00  0.0000000000000000e+00 0.0000000000000000e+00 0.0000000000000000e+00  1.3406422510653734e-05 4.1446236739564303e-07 0.0000000000000000e+00  2.7207267082771056e-05 8.2871073666066557e-07 0.0000000000000000e+00  4.1810084773068070e-05 1.2410984427691025e-06 0.0000000000000000e+00  5.7621164365526462e-05 1.6460201904153917e-06 0.0000000000000000e+00  7.5041200907032007e-05 2.0314895053792364e-06 0.0000000000000000e+00  9.4455206750010398e-05 2.3762365766182027e-06 0.0000000000000000e+00  1.1621405491016026e-04 2.6463409932591107e-06 0.0000000000000000e+00  1.4060449293998398e-04 2.7916695202689515e-06 0.0000000000000000e+00  1.6780382644531150e-04 2.7428543096690271e-06 0.0000000000000000e+00  1.9781455306811855e-04 2.4103323664422701e-06 0.0000000000000000e+00  2.3037201668197067e-04 1.6882213638907838e-06 0.0000000000000000e+00  2.6481078695423657e-04 4.6780281445973331e-07 0.0000000000000000e+00  2.9985014800603408e-04 -1.3311575511583688e-06 0.0000000000000000e+00  3.3317810339305031e-04 -3.6966505513411667e-06 0.0000000000000000e+00  3.6048712599980249e-04 -6.4084733199795597e-06 0.0000000000000000e+00  3.7317005407889011e-04 -8.9245435265266779e-06 0.0000000000000000e+00  0.0000000000000000e+00 0.0000000000000000e+00 0.0000000000000000e+00  1.7257354443576937e-05 5.5365925465290082e-07 0.0000000000000000e+00  3.5044567063659713e-05 1.1100400289331225e-06 0.0000000000000000e+00  5.3909465551279393e-05 1.6701842913985281e-06 0.0000000000000000e+00  7.4404296762461570e-05 2.2303325503586983e-06 0.0000000000000000e+00  9.7083496786097928e-05 2.7788009268056462e-06 0.0000000000000000e+00  1.2249433961846541e-04 3.2919880256429053e-06 0.0000000000000000e+00  1.5115691022919234e-04 3.7293476897690408e-06 0.0000000000000000e+00  1.8352874869736937e-04 4.0274332453712579e-06 0.0000000000000000e+00  2.1994800615416166e-04 4.0937247905699462e-06 0.0000000000000000e+00  2.6054664036855718e-04 3.8021818591426922e-06 0.0000000000000000e+00  3.0512080528495057e-04 2.9947754092766830e-06 0.0000000000000000e+00  3.5293581788499532e-04 1.4973006207365419e-06 0.0000000000000000e+00  4.0242071639908194e-04 -8.3567775417686120e-07 0.0000000000000000e+00  4.5066276674891008e-04 -4.0226101028341613e-06 0.0000000000000000e+00  4.9255761961068559e-04 -7.7701319924427784e-06 0.0000000000000000e+00  5.1955816235899240e-04 -1.1166746912388187e-05 0.0000000000000000e+00  0.0000000000000000e+00 0.0000000000000000e+00 0.0000000000000000e+00  2.0570444441874113e-05 6.8970326755538641e-07 0.0000000000000000e+00  4.1804961819371376e-05 1.3873220381959235e-06 0.0000000000000000e+00  6.4390679119839288e-05 2.0990941233276272e-06 0.0000000000000000e+00  8.9029417924576284e-05 2.8261869200505498e-06 0.0000000000000000e+00  1.1644044334027930e-04 3.5611184956285145e-06 0.0000000000000000e+00  1.4735552425398875e-04 4.2827982034404853e-06 0.0000000000000000e+00  1.8250207244054043e-04 4.9496687762337697e-06 0.0000000000000000e+00  2.2256852586414924e-04 5.4905436112488186e-06 0.0000000000000000e+00  2.6814400896782410e-04 5.7931983110710307e-06 0.0000000000000000e+00  3.1962146859403865e-04 5.6920375150524793e-06 0.0000000000000000e+00  3.7704948225093592e-04 4.9590231935879324e-06 0.0000000000000000e+00  4.3991169383061495e-04 3.3078040002911875e-06 0.0000000000000000e+00  5.0680291966979278e-04 4.3121112929505474e-07 0.0000000000000000e+00  5.7495954945005956e-04 -3.8923211264440305e-06 0.0000000000000000e+00  6.3961079038161246e-04 -9.5710768457445762e-06 0.0000000000000000e+00  6.9322026941088578e-04 -1.5796345907747598e-05 0.0000000000000000e+00  0.0000000000000000e+00 0.0000000000000000e+00 0.0000000000000000e+00  2.3211551934675513e-05 8.1730350238452711e-07 0.0000000000000000e+00  4.7215102951441047e-05 1.6500555361777881e-06 0.0000000000000000e+00  7.2830941926611665e-05 2.5123722569539874e-06 0.0000000000000000e+00  1.0090917686350043e-04 3.4138772928010817e-06 0.0000000000000000e+00  1.3234068943883054e-04 4.3561371436635142e-06 0.0000000000000000e+00  1.6806098584435473e-04 5.3272026653391556e-06 0.0000000000000000e+00  2.0904246897999435e-04 6.2932381195233580e-06 0.0000000000000000e+00  2.5626858461115954e-04 7.1859447102889211e-06 0.0000000000000000e+00  3.1068061032972125e-04 7.8843652093471215e-06 0.0000000000000000e+00  3.7308476873198430e-04 8.1901641250704013e-06 0.0000000000000000e+00  4.4400448446889790e-04 7.7977082524181715e-06 0.0000000000000000e+00  5.2346131268486945e-04 6.2664209232830950e-06 0.0000000000000000e+00  6.1067075544665814e-04 3.0165737994193402e-06 0.0000000000000000e+00  7.0364983758354396e-04 -2.6049991140111334e-06 0.0000000000000000e+00  7.9875819258815191e-04 -1.1105341087150309e-05 0.0000000000000000e+00  8.9023706948113753e-04 -2.2346402511548630e-05 0.0000000000000000e+00  0.0000000000000000e+00 0.0000000000000000e+00 0.0000000000000000e+00  2.5055161711056438e-05 9.2891628564280685e-07 0.0000000000000000e+00  5.1016529233617102e-05 1.8828228798266147e-06 0.0000000000000000e+00  7.8823791341801644e-05 2.8861373019133623e-06 0.0000000000000000e+00  1.0946594134947317e-04 3.9604468553194378e-06 0.0000000000000000e+00  1.4400361179005638e-04 5.1216901750118805e-06 0.0000000000000000e+00  1.8358636992895673e-04 6.3751502555155670e-06 0.0000000000000000e+00  2.2946086918385598e-04 7.7067387334118182e-06 0.0000000000000000e+00  2.8296321001514336e-04 9.0681970060755818e-06 0.0000000000000000e+00  3.4548544776299284e-04 1.0352639530620083e-05 0.0000000000000000e+00  4.1840233751768227e-04 1.1355503100711733e-05 0.0000000000000000e+00  5.0294178733553761e-04 1.1715342586900582e-05 0.0000000000000000e+00  5.9998520252797034e-04 1.0831729322460536e-05 0.0000000000000000e+00  7.0979962257557356e-04 7.7699789221614848e-06 0.0000000000000000e+00  8.3174170269669054e-04 1.1948252100912821e-06 0.0000000000000000e+00  9.6403489984354495e-04 -1.0565202596411669e-05 0.0000000000000000e+00  1.1037844778114974e-03 -2.9149155476824952e-05 0.0000000000000000e+00  0.0000000000000000e+00 0.0000000000000000e+00 0.0000000000000000e+00  2.5991763615873661e-05 1.0151065733611321e-06 0.0000000000000000e+00  5.2980693079428631e-05 2.0659182868005415e-06 0.0000000000000000e+00  8.2002271810355018e-05 3.1887450195535453e-06 0.0000000000000000e+00  1.1416371519324741e-04 4.4198946308127154e-06 0.0000000000000000e+00  1.5068026958873912e-04 5.7945301115578532e-06 0.0000000000000000e+00  1.9291027185295727e-04 7.3435441916744686e-06 0.0000000000000000e+00  2.4238609242569116e-04 9.0866960086079415e-06 0.0000000000000000e+00  3.0083516239209359e-04 1.1018824669344445e-05 0.0000000000000000e+00  3.7018087346136981e-04 1.3083432909743314e-05 0.0000000000000000e+00  4.5250743263527634e-04 1.5123710840083494e-05 0.0000000000000000e+00  5.4996782532932534e-04 1.6794698595255942e-05 0.0000000000000000e+00  6.6461690261667762e-04 1.7412876610633463e-05 0.0000000000000000e+00  7.9817941040835345e-04 1.5717577925182281e-05 0.0000000000000000e+00  9.5184582456618897e-04 9.5401947420745799e-06 0.0000000000000000e+00  1.1263518232778923e-03 -4.5577230207233311e-06 0.0000000000000000e+00  1.3228060385169485e-03 -3.1572676472042820e-05 0.0000000000000000e+00  0.0000000000000000e+00 0.0000000000000000e+00 0.0000000000000000e+00  2.5936955572548427e-05 1.0653984742688753e-06 0.0000000000000000e+00  5.2927898439906649e-05 2.1770332462753698e-06 0.0000000000000000e+00  8.2069149356378437e-05 3.3832339892971544e-06 0.0000000000000000e+00  1.1455166861889504e-04 4.7361142863130013e-06 0.0000000000000000e+00  1.5171263823620797e-04 6.2930243674110631e-06 0.0000000000000000e+00  1.9509141370961308e-04 8.1169484822484759e-06 0.0000000000000000e+00  2.4648937694507082e-04 1.0274436689749196e-05 0.0000000000000000e+00  3.0803033544293243e-04 1.2828030628088915e-05 0.0000000000000000e+00  3.8221282175585780e-04 1.5816772132014026e-05 0.0000000000000000e+00  4.7193703371736155e-04 1.9211487808951666e-05 0.0000000000000000e+00  5.8047796255770664e-04 2.2817823700820583e-05 0.0000000000000000e+00  7.1137013198611715e-04 2.6074527624282415e-05 0.0000000000000000e+00  8.6819688401911193e-04 2.7654681439381346e-05 0.0000000000000000e+00  1.0544155443152868e-03 2.4742110269333145e-05 0.0000000000000000e+00  1.2737387138503661e-03 1.1893732424272253e-05 0.0000000000000000e+00  1.5323474702149840e-03 -2.0522889278929277e-05 0.0000000000000000e+00  0.0000000000000000e+00 0.0000000000000000e+00 0.0000000000000000e+00  2.4841508259083127e-05 1.0696175420599125e-06 0.0000000000000000e+00  5.0748673581280904e-05 2.1940582115546605e-06 0.0000000000000000e+00  7.8832065216375547e-05 3.4318007766702662e-06 0.0000000000000000e+00  1.1031681605098912e-04 4.8492722653015801e-06 0.0000000000000000e+00  1.4660875889226194e-04 6.5254688631087936e-06 0.0000000000000000e+00  1.8937203261081513e-04 8.5571565518065757e-06 0.0000000000000000e+00  2.4062155149190436e-04 1.1064339066172413e-05 0.0000000000000000e+00  3.0283191120441188e-04 1.4194618416069062e-05 0.0000000000000000e+00  3.7905937350006449e-04 1.8122347005138972e-05 0.0000000000000000e+00  4.7306259071585238e-04 2.3031541230890702e-05 0.0000000000000000e+00  5.8938712953423233e-04 2.9054005886790414e-05 0.0000000000000000e+00  7.3334949127036423e-04 3.6090525023834543e-05 0.0000000000000000e+00  9.1084546084146121e-04 4.3340579975316242e-05 0.0000000000000000e+00  1.1280437636211290e-03 4.8167734309018249e-05 0.0000000000000000e+00  1.3916750241518064e-03 4.3762261306848547e-05 0.0000000000000000e+00  1.7118609352853975e-03 1.5296902973872023e-05 0.0000000000000000e+00  0.0000000000000000e+00 0.0000000000000000e+00 0.0000000000000000e+00  2.2701205335309416e-05 1.0196001550675515e-06 0.0000000000000000e+00  4.6425165849556660e-05 2.0987781223834029e-06 0.0000000000000000e+00  7.2239937710406269e-05 3.3020625543349376e-06 0.0000000000000000e+00  1.0134092396198294e-04 4.7055695097133505e-06 0.0000000000000000e+00  1.3512802214448073e-04 6.4046532094462075e-06 0.0000000000000000e+00  1.7530184066043053e-04 8.5240997383405453e-06 0.0000000000000000e+00  2.2398758662560428e-04 1.1232196380936996e-05 0.0000000000000000e+00  2.8389619570740173e-04 1.4760344760645247e-05 0.0000000000000000e+00  3.5853076730754733e-04 1.9429862901046857e-05 0.0000000000000000e+00  4.5243752191297131e-04 2.5685704458420839e-05 0.0000000000000000e+00  5.7147409848904091e-04 3.4127279166233513e-05 0.0000000000000000e+00  7.2300708160938690e-04 4.5488588186959501e-05 0.0000000000000000e+00  9.1584561844712563e-04 6.0380085267517474e-05 0.0000000000000000e+00  1.1596838688794652e-03 7.8127871686382546e-05 0.0000000000000000e+00  1.4648502566621091e-03 9.2897728942752854e-05 0.0000000000000000e+00  1.8470874095357940e-03 8.8266393582882795e-05 0.0000000000000000e+00  0.0000000000000000e+00 0.0000000000000000e+00 0.0000000000000000e+00  1.9564913984960576e-05 9.1099738218300917e-07 0.0000000000000000e+00  4.0049288356565279e-05 1.8808873057329773e-06 0.0000000000000000e+00  6.2415304841848926e-05 2.9741816082459644e-06 0.0000000000000000e+00  8.7753970595167861e-05 4.2690830138109329e-06 0.0000000000000000e+00  1.1736646073866413e-04 5.8671173918525846e-06 0.0000000000000000e+00  1.5287076965561522e-04 7.9069031684245906e-06 0.0000000000000000e+00  1.9634785730669469e-04 1.0584912926158449e-05 0.0000000000000000e+00  2.5054707349438473e-04 1.4188021643771135e-05 0.0000000000000000e+00  3.1917708397827656e-04 1.9146302974324949e-05 0.0000000000000000e+00  4.0731170175172595e-04 2.6121534858001096e-05 0.0000000000000000e+00  5.2192613910571710e-04 3.6159522821953954e-05 0.0000000000000000e+00  6.7250933006615210e-04 5.0950688031648519e-05 0.0000000000000000e+00  8.7147590005467741e-04 7.3219043414842432e-05 0.0000000000000000e+00  1.1335259403080613e-03 1.0685595579845748e-04 0.0000000000000000e+00  1.4722841220151037e-03 1.5314839439567788e-04 0.0000000000000000e+00  1.9147139835752828e-03 1.7714815243730122e-04 0.0000000000000000e+00  0.0000000000000000e+00 0.0000000000000000e+00 0.0000000000000000e+00  1.5539153665089762e-05 7.4478531137701460e-07 0.0000000000000000e+00  3.1833797928043868e-05 1.5414501292143995e-06 0.0000000000000000e+00  4.9676017371908941e-05 2.4472758489907676e-06 0.0000000000000000e+00  6.9973811055495526e-05 3.5330275499447782e-06 0.0000000000000000e+00  9.3826846243573743e-05 4.8927573681570555e-06 0.0000000000000000e+00  1.2262989922393310e-04 6.6582712152353402e-06 0.0000000000000000e+00  1.5822197446879629e-04 9.0216828967677313e-06 0.0000000000000000e+00  2.0310969853155192e-04 1.2272081271049659e-05 0.0000000000000000e+00  2.6081093370424266e-04 1.6857719141157720e-05 0.0000000000000000e+00  3.3639076086740873e-04 2.3497373313194230e-05 0.0000000000000000e+00  4.3729350452440706e-04 3.3395478065186777e-05 0.0000000000000000e+00  5.7458083173848830e-04 4.8700854744058807e-05 0.0000000000000000e+00  7.6453541023695519e-04 7.3591470767417515e-05 0.0000000000000000e+00  1.0297619228138728e-03 1.1703212823793530e-04 0.0000000000000000e+00  1.3944184118282225e-03 1.9982931180172756e-04 0.0000000000000000e+00  1.8115376183753271e-03 3.7197966567169332e-04 0.0000000000000000e+00  0.0000000000000000e+00 0.0000000000000000e+00 0.0000000000000000e+00  1.0787546673092081e-05 5.2807247769535770e-07 0.0000000000000000e+00  2.2112555386583475e-05 1.0948458059576189e-06 0.0000000000000000e+00  3.4539333930938080e-05 1.7432637963609462e-06 0.0000000000000000e+00  4.8720072989652497e-05 2.5270151818087971e-06 0.0000000000000000e+00  6.5453784638223357e-05 3.5184509588958797e-06 0.0000000000000000e+00  8.5769252337944795e-05 4.8203659917302182e-06 0.0000000000000000e+00  1.1104925772799570e-04 6.5843619945107956e-06 0.0000000000000000e+00  1.4322595886842690e-04 9.0402304556379051e-06 0.0000000000000000e+00  1.8510122961645705e-04 1.2543730215859276e-05 0.0000000000000000e+00  2.4089155503325042e-04 1.7655472722864420e-05 0.0000000000000000e+00  3.1718397597019590e-04 2.5276022588633614e-05 0.0000000000000000e+00  4.2464816562941786e-04 3.6905895155155892e-05 0.0000000000000000e+00  5.8112010021940121e-04 5.5302649578278109e-05 0.0000000000000000e+00  8.1717218027940947e-04 8.6802387113934170e-05 0.0000000000000000e+00  1.1870670150547571e-03 1.5093797539148654e-04 0.0000000000000000e+00  1.7956151730557247e-03 3.1423429542940510e-04 0.0000000000000000e+00  0.0000000000000000e+00 0.0000000000000000e+00 0.0000000000000000e+00  5.5240688480966175e-06 2.7390557037676091e-07 0.0000000000000000e+00  1.1327247525706183e-05 5.6847053589059394e-07 0.0000000000000000e+00  1.7702808640169020e-05 9.0667632518841255e-07 0.0000000000000000e+00  2.4991326048210364e-05 1.3174297238042559e-06 0.0000000000000000e+00  3.3612884695308836e-05 1.8399361731912348e-06 0.0000000000000000e+00  4.4113231394202833e-05 2.5301756276072296e-06 0.0000000000000000e+00  5.7234477802033982e-05 3.4707941127547298e-06 0.0000000000000000e+00  7.4029570194093769e-05 4.7860855603727724e-06 0.0000000000000000e+00  9.6057116069740074e-05 6.6630850586833468e-06 0.0000000000000000e+00  1.2572884798154262e-04 9.3738853128032509e-06 0.0000000000000000e+00  1.6695383261346221e-04 1.3265944706686384e-05 0.0000000000000000e+00  2.2634628791868731e-04 1.8568915337503949e-05 0.0000000000000000e+00  3.1530171648404715e-04 2.4409183128927993e-05 0.0000000000000000e+00  4.5188860334619268e-04 2.4933931100817961e-05 0.0000000000000000e+00  6.5198399829167770e-04 -1.2373047255907086e-06 0.0000000000000000e+00  8.7846378523372083e-04 -8.9701124426249700e-05 0.0000000000000000e+00  0.0000000000000000e+00 0.0000000000000000e+00 0.0000000000000000e+00  0.0000000000000000e+00 0.0000000000000000e+00 0.0000000000000000e+00  0.0000000000000000e+00 0.0000000000000000e+00 0.0000000000000000e+00  0.0000000000000000e+00 0.0000000000000000e+00 0.0000000000000000e+00  0.0000000000000000e+00 0.0000000000000000e+00 0.0000000000000000e+00  0.0000000000000000e+00 0.0000000000000000e+00 0.0000000000000000e+00  0.0000000000000000e+00 0.0000000000000000e+00 0.0000000000000000e+00  0.0000000000000000e+00 0.0000000000000000e+00 0.0000000000000000e+00  0.0000000000000000e+00 0.0000000000000000e+00 0.0000000000000000e+00  0.0000000000000000e+00 0.0000000000000000e+00 0.0000000000000000e+00  0.0000000000000000e+00 0.0000000000000000e+00 0.0000000000000000e+00  0.0000000000000000e+00 0.0000000000000000e+00 0.000