<?xml version="1.0"?>
<VTKFile type="UnstructuredGrid"  version="0.1"  >
<UnstructuredGrid>
<Piece  NumberOfPoints="289" NumberOfCells="512">
<Points>
<DataArray  type="Float64"  NumberOfComponents="3"  format="ascii">0 0 0  0.0625 0 0  0.125 0 0  0.1875 0 0  0.25 0 0  0.3125 0 0  0.375 0 0  0.4375 0 0  0.5 0 0  0.5625 0 0  0.625 0 0  0.6875 0 0  0.75 0 0  0.8125 0 0  0.875 0 0  0.9375 0 0  1 0 0  0 0.0625 0  0.06249741252276797 0.06247076998903263 0  0.1249951098611164 0.0624410208966043 0  0.1874934002449272 0.06241027092011315 0  0.2499927280753315 0.06237814639008966 0  0.3124937687882453 0.06234445169842264 0  0.3749975651864931 0.06230925685941175 0  0.4375057340856815 0.06227300365146791 0  0.5000207937518756 0.06223662393314634 0  0.562546708179543 0.06220165034838589 0  0.625089846295831 0.06217027763246406 0  0.6876607974920037 0.06214530113753808 0  0.750278095554595 0.06212982526431628 0  0.8129764685911344 0.06212663700554332 0  0.8758260696003974 0.06213734897680286 0  0.9389764396163843 0.06216275722414085 0  1.002732691892551 0.06221659817600619 0  0 0.125 0  0.06249452918800825 0.1249420313117664 0  0.1249895796462482 0.1248829693072436 0  0.1874857215069138 0.1248217894908257 0  0.2499837917644063 0.1247576708581629 0  0.3124850817471099 0.1246901316925943 0  0.3749916070812916 0.1246192049843865 0  0.4375065146528903 0.1245456594692588 0  0.5000347169326362 0.124471260005611 0  0.5625839128286435 0.1243990368489516 0  0.6251662891010585 0.1243334904383645 0  0.6878014607065583 0.1242805902238148 0  0.7505216984869321 0.1242473369077426 0  0.8133812366851464 0.1242405969351729 0  0.8764718539863671 0.1242650926098653 0  0.9399441903602258 0.1243214244267224 0  1.004027802432933 0.1244062594592483 0  0 0.1875 0  0.06249117969162175 0.1874143724343205 0  0.1249830053004546 0.1873269777180921 0  0.1874761925639185 0.1872361369890536 0  0.2499718246968036 0.1871404425383236 0  0.312471612121156 0.1870389486243728 0  0.3749782659815512 0.1869314303477597 0  0.4374960544062443 0.1868187289969793 0  0.5000316457178879 0.1867031905641866 0  0.5625953989989048 0.1865891764239991 0  0.6252033463808253 0.1864835676721248 0  0.6878802145006263 0.1863960739590657 0  0.750663871667043 0.1863389493575789 0  0.8136112295226828 0.1863252986465483 0  0.8768039392453451 0.1863641358778425 0  0.9403477311243211 0.1864472142657635 0  1.004354310712971 0.1865119710717758 0  0 0.25 0  0.06248730474954949 0.2498884796649349 0  0.1249752193214416 0.2497743885878566 0  0.187464434266653 0.2496552445943229 0  0.2499560580558225 0.249528859099977 0  0.312451915896352 0.2493935615782599 0  0.3749549811039043 0.2492485255690853 0  0.4374700130358584 0.249094235825862 0  0.5000045024145383 0.2489331337407643 0  0.5625700541976347 0.2487704612120231 0  0.6251843521146335 0.2486152737570341 0  0.6878737941197938 0.2484814786241408 0  0.7506766279982053 0.2483885124783433 0  0.8136456639393947 0.2483608010263574 0  0.876847994457722 0.2484242953269301 0  0.9403567745274356 0.2485972483911516 0  1.004229863821743 0.2488732447101278 0  0 0.3125 0  0.06248298694528293 0.3123651653816138 0  0.1249663619955055 0.312226819209932 0  0.1874505909931092 0.312081512408085 0  0.2499365448245985 0.3119260479462951 0  0.3124257972222145 0.3117577033805817 0  0.3749210631741642 0.3115745871265547 0  0.4374268549575622 0.3113761958191222 0  0.4999504556281889 0.3111642569309934 0  0.5625033251137115 0.310943953120623 0  0.6251030337555226 0.3107256158246747 0  0.6877757007854994 0.310526908345593 0  0.7505585916304707 0.3103753197554707 0  0.8135018740947091 0.3103103373889758 0  0.8766676446395626 0.3103838197902121 0  0.9401242920091352 0.3106559226453334 0  1.003938578604278 0.3111832463986278 0  0 0.375 0  0.0624784589873164 0.3748453734242864 0  0.1249569041385886 0.3746861809757609 0  0.1874353803033896 0.3745178612339077 0  0.2499142553924333 0.3743359833186908 0  0.3123944738255105 0.3741364163119067 0  0.3748779492207358 0.37391565199056 0  0.437368180108426 0.3736713755713447 0  0.4998712047239187 0.3734034231928228 0  0.5623970422464925 0.3731153244347681 0  0.6249617739221149 0.3728166962680707 0  0.6875903455913732 0.3725268010434883 0  0.7503199380496869 0.3722795200569776 0  0.8132032866101565 0.3721296375364972 0  0.8763108080782609 0.3721593682561029 0  0.9397307635517289 0.3724822432469506 0  1.003570325897667 0.3732391648900253 0  0 0.4375 0  0.06247408785787645 0.4373301535902704 0  0.1249476176809038 0.4371546349963419 0  0.1874200545052887 0.4369676850760019 0  0.2498910371838459 0.4367634668926798 0  0.3123605426987599 0.4365361187505003 0  0.3748291754624745 0.4362799532406009 0  0.4372986748739237 0.4359899123851271 0  0.499772791609369 0.4356624612001393 0  0.5622587662751783 0.4352972186307453 0  0.6247697481454723 0.4348998023868524 0  0.6873285848389041 0.4344866054288614 0  0.7499734107451026 0.4340924665571511 0  0.8127652144854056 0.4337822058303084 0  0.8757969734757841 0.4336661726506197 0  0.9392034465553765 0.4339174222229173 0  1.003172495681574 0.434784042232874 0  0 0.5 0  0.06247033635123212 0.4998205991867528 0  0.1249394966588586 0.4996344691484128 0  0.1874062775700973 0.4994346742143322 0  0.2498694442391696 0.4992139152647627 0  0.3123277619832859 0.4989644013714198 0  0.3747801169374186 0.498677820707694 0  0.4372258211170317 0.4983455104657079 0  0.4996652876492193 0.4979590145598791 0  0.5621014254047839 0.497511381124338 0  0.624542378395655 0.4969998446630777 0  0.6870066519437971 0.4964310409737938 0  0.749532170573276 0.4958306873448717 0  0.8121911084163914 0.4952606071009529 0  0.8751117110023742 0.4948462353040442 0  0.9385060569539404 0.4948148663845998 0  1.002701051557081 0.4955357930214813 0  0 0.5625 0  0.06246770583750264 0.5623177463174521 0  0.1249336356583674 0.56212789085342 0  0.1873959263906478 0.5619224916441165 0  0.2498524456342798 0.5616929116720991 0  0.3123006554877318 0.5614294594461677 0  0.3747374977376657 0.5611210384823084 0  0.4371593734320056 0.5607548587849448 0  0.4995624025980541 0.5603163425110753 0  0.5619433926392998 0.559789522838508 0  0.6243024367252098 0.559158585994147 0  0.686648985151787 0.5584119385820432 0  0.7490147394770345 0.5575516645530272 0  0.8114785779271312 0.5566139755105566 0  0.8742093702893523 0.5557100929558324 0  0.9375281493542104 0.5550977437839503 0  1.001978510199159 0.5552796596080615 0  0 0.625 0  0.0624666661224088 0.6248224411189159 0  0.1249310768324706 0.6246367459629553 0  0.1873908305939646 0.6244343120870302 0  0.2498430239576329 0.6242055180485384 0  0.3122839337996338 0.623939119104728 0  0.374708619720707 0.6236215285424307 0  0.4371104563398626 0.6232359554544592 0  0.4994807006718244 0.6227614020172225 0  0.5618084599527139 0.6221716192569982 0  0.624082072787204 0.6214343839129326 0  0.6862944039676535 0.620512165507573 0  0.7484576508801396 0.6193671315901782 0  0.8106387235748342 0.6179783160539202 0  0.8730326251231864 0.6163901452638805 0  0.9360891300129782 0.6148280695279096 0  1.000685833868797 0.61389963243885 0  0 0.6875 0  0.06246758051563156 0.6873351904845972 0  0.1249326419992866 0.6871621951365898 0  0.1873924748244271 0.6869722705830884 0  0.2498436889918035 0.6867554065796334 0  0.3122817384074175 0.686499515862768 0  0.3747002470409951 0.6861893814000136 0  0.4370900418465324 0.6858052323321022 0  0.4994378108760257 0.6853207758810671 0  0.56172444238201 0.6847004635720183 0  0.6239236352220348 0.683895757288747 0  0.6860030395111839 0.6828403589714128 0  0.7479348095177737 0.6814454811039783 0  0.8097338602747504 0.679601052354299 0  0.871564790238385 0.6772080464984019 0  0.9339736620927943 0.6743349354231613 0  0.9982558354158295 0.6716367421622211 0  0 0.75 0  0.06247063677019195 0.74985602063807 0  0.1249387735401006 0.7497044000949407 0  0.1874017038664003 0.7495369085391441 0  0.2498559651417726 0.7493439451910868 0  0.312296775614873 0.7491136190351319 0  0.3747171765322824 0.7488304926838051 0  0.4371066684068272 0.7484737781694462 0  0.4994490063389105 0.7480146549556163 0  0.5617186644819087 0.7474121745375146 0  0.6238754374499575 0.746606848367432 0  0.6858573628450065 0.7455103485467762 0  0.7475760290189059 0.7439886258735623 0  0.8089335175561272 0.7418347556424048 0  0.8699320224369425 0.7387343890730335 0  0.9310905402741236 0.7343036467384938 0  0.9939942647722758 0.729037737655949 0  0 0.8125 0  0.06247579663077456 0.8123843731227971 0  0.1249494147670362 0.812262285777144 0  0.1874184901182795 0.8121267350333727 0  0.2498799585876886 0.8119694339531043 0  0.3123295147726698 0.8117799239328449 0  0.374760747752395 0.8115443250235989 0  0.4371636762897447 0.8112434823245221 0  0.4995221567653353 0.8108501155404158 0  0.5618091444096746 0.8103243044754789 0  0.6239778469166251 0.8096061121420534 0  0.6859452090114726 0.8086030012098364 0  0.7475624712109344 0.8071668769013767 0  0.8085714697651266 0.8050478825920151 0  0.8685882587024996 0.8017905632712667 0  0.9274350584290064 0.7964836798579743 0  0.9885527590833846 0.7871517331491168 0  0 0.875 0  0.06248277662336428 0.8749190664434051 0  0.1249639620536371 0.8748334433526243 0  0.1874418324972418 0.8747380245497482 0  0.2499141453602454 0.8746267073866864 0  0.3123777320885497 0.8744916908190217 0  0.3748278337158392 0.8743224702655567 0  0.4372569351379569 0.8741043229032851 0  0.4996525916881953 0.873815950629577 0  0.5619931363840646 0.8734257358233095 0  0.624238709754913 0.8728857105812706 0  0.6863115027757749 0.8721217007601262 0  0.7480503077958924 0.8710165416277297 0  0.8091032012979692 0.86937717635524 0  0.8686750084143946 0.8668467666877169 0  0.9249655757864574 0.8625833703749108 0  0.9741396051781334 0.8539643379858252 0  0 0.9375 0  0.06249106859458901 0.9374583423654917 0  0.1249813114474869 0.9374142193139713 0  0.1874698395521881 0.9373649394487471 0  0.2499555022336415 0.9373072677230393 0  0.3124366845827656 0.937237038572342 0  0.3749109784890879 0.9371485970523639 0  0.4373746042671179 0.93703395066452
[...]
<PointData  Vectors="f_54"> 
<DataArray  type="Float64"  Name="f_54"  NumberOfComponents="3" format="ascii">0.0000000000000000e+00 0.0000000000000000e+00 0.0000000000000000e+00  0.0000000000000000e+00 0.0000000000000000e+00 0.0000000000000000e+00  0.0000000000000000e+00 0.0000000000000000e+00 0.0000000000000000e+00  0.0000000000000000e+00 0.0000000000000000e+00 0.0000000000000000e+00  0.0000000000000000e+00 0.0000000000000000e+00 0.0000000000000000e+00  0.0000000000000000e+00 0.0000000000000000e+00 0.0000000000000000e+00  0.0000000000000000e+00 0.0000000000000000e+00 0.0000000000000000e+00  0.0000000000000000e+00 0.0000000000000000e+00 0.0000000000000000e+00  0.0000000000000000e+00 0.0000000000000000e+00 0.0000000000000000e+00  0.0000000000000000e+00 0.0000000000000000e+00 0.0000000000000000e+00  0.0000000000000000e+00 0.0000000000000000e+00 0.0000000000000000e+00  0.0000000000000000e+00 0.0000000000000000e+00 0.0000000000000000e+00  0.0000000000000000e+00 0.0000000000000000e+00 0.0000000000000000e+00  0.0000000000000000e+00 0.0000000000000000e+00 0.0000000000000000e+00  0.0000000000000000e+00 0.0000000000000000e+00 0.0000000000000000e+00  0.0000000000000000e+00 0.0000000000000000e+00 0.0000000000000000e+00  0.0000000000000000e+00 0.0000000000000000e+00 0.0000000000000000e+00  0.0000000000000000e+00 0.0000000000000000e+00 0.0000000000000000e+00  3.6993887475940035e-06 1.6213292273540782e-07 0.0000000000000000e+00  7.4823058897185728e-06 3.2614172246613804e-07 0.0000000000000000e+00  1.1431718229086817e-05 4.9362720667845670e-07 0.0000000000000000e+00  1.5622175558531942e-05 6.6530654204425580e-07 0.0000000000000000e+00  2.0113665864385333e-05 8.4047094002474943e-07 0.0000000000000000e+00  2.4942835536260923e-05 1.0163346526794011e-06 0.0000000000000000e+00  3.0110470134236938e-05 1.1872773972613606e-06 0.0000000000000000e+00  3.5563891962978106e-05 1.3440273225545692e-06 0.0000000000000000e+00  4.1172467737773526e-05 1.4728927110521070e-06 0.0000000000000000e+00  4.6693325591895542e-05 1.5552028158535552e-06 0.0000000000000000e+00  5.1721476224338083e-05 1.5670700844111967e-06 0.0000000000000000e+00  5.5610386929879953e-05 1.4791588751214994e-06 0.0000000000000000e+00  5.7325217010458890e-05 1.2544761887512865e-06 0.0000000000000000e+00  5.5117326213999411e-05 8.3629504451414525e-07 0.0000000000000000e+00  4.5665914308357077e-05 9.6321438232267968e-08 0.0000000000000000e+00  2.1474084958720392e-05 -1.3775521132060234e-06 0.0000000000000000e+00  0.0000000000000000e+00 0.0000000000000000e+00 0.0000000000000000e+00  7.3114978528589046e-06 3.2222385280349766e-07 0.0000000000000000e+00  1.4794019490994780e-05 6.4862339630519410e-07 0.0000000000000000e+00  2.2617978828669787e-05 9.8285896502540639e-07 0.0000000000000000e+00  3.0938663272695869e-05 1.3269072205999055e-06 0.0000000000000000e+00  3.9884925373435878e-05 1.6800017669484940e-06 0.0000000000000000e+00  4.9542757331350228e-05 2.0373283012043387e-06 0.0000000000000000e+00  5.9931618924547870e-05 2.3884593669037688e-06 0.0000000000000000e+00  7.0971014329002688e-05 2.7156036016198639e-06 0.0000000000000000e+00  8.2434221414643609e-05 2.9918878797157503e-06 0.0000000000000000e+00  9.3884884152088590e-05 3.1800797930401076e-06 0.0000000000000000e+00  1.0458932506274306e-04 3.2323275163521322e-06 0.0000000000000000e+00  1.1339030970779592e-04 3.0914795021491010e-06 0.0000000000000000e+00  1.1851078474991246e-04 2.6941559730332958e-06 0.0000000000000000e+00  1.1721803335111365e-04 1.9756517455834106e-06 0.0000000000000000e+00  1.0521086377868365e-04 8.8396145545139399e-07 0.0000000000000000e+00  7.5554946359156542e-05 -5.3092746767208398e-07 0.0000000000000000e+00  0.0000000000000000e+00 0.0000000000000000e+00 0.0000000000000000e+00  1.0745694978050655e-05 4.7782840323132715e-07 0.0000000000000000e+00  2.1756987888391404e-05 9.6293420457137233e-07 0.0000000000000000e+00  3.3299778370487673e-05 1.4619126002591831e-06 0.0000000000000000e+00  4.5621402428260612e-05 1.9790551918482904e-06 0.0000000000000000e+00  5.8936035540337376e-05 2.5148367960666658e-06 0.0000000000000000e+00  7.3402767396709058e-05 3.0639700871914072e-06 0.0000000000000000e+00  8.9093279688516320e-05 3.6129535045852865e-06 0.0000000000000000e+00  1.0594562166160699e-04 4.1371576879188176e-06 0.0000000000000000e+00  1.2370014523005400e-04 4.5977257361988166e-06 0.0000000000000000e+00  1.4181320419850158e-04 4.9389476078612960e-06 0.0000000000000000e+00  1.5934353128023437e-04 5.0873187351210421e-06 0.0000000000000000e+00  1.7480490215323187e-04 4.9541074837509615e-06 0.0000000000000000e+00  1.8597718733488557e-04 4.4436037879107412e-06 0.0000000000000000e+00  1.8967251546196808e-04 3.4684813572159844e-06 0.0000000000000000e+00  1.8149575432328889e-04 1.9690280098672872e-06 0.0000000000000000e+00  1.5583324259932675e-04 -9.2489761713571388e-08 0.0000000000000000e+00  0.0000000000000000e+00 0.0000000000000000e+00 0.0000000000000000e+00  1.3904866270252189e-05 6.2571829664172241e-07 0.0000000000000000e+00  2.8178484785459443e-05 1.2629008636173672e-06 0.0000000000000000e+00  4.3192139648636245e-05 1.9222818865953027e-06 0.0000000000000000e+00  5.9299758265009066e-05 2.6119719371319536e-06 0.0000000000000000e+00  7.6822705566101994e-05 3.3356179029322574e-06 0.0000000000000000e+00  9.6025423926350569e-05 4.0898885362753598e-06 0.0000000000000000e+00  1.1707793170149542e-04 4.8610837948165595e-06 0.0000000000000000e+00  1.4000060239770947e-04 5.6207694638884727e-06 0.0000000000000000e+00  1.6458629364888945e-04 6.3206064282370126e-06 0.0000000000000000e+00  1.9029515611726651e-04 6.8871116542790048e-06 0.0000000000000000e+00  2.1611890369849839e-04 7.2181272169108840e-06 0.0000000000000000e+00  2.4041500034805653e-04 7.1844123908234512e-06 0.0000000000000000e+00  2.6071969078358688e-04 6.6418656352054892e-06 0.0000000000000000e+00  2.7356985004151220e-04 5.4615140567290170e-06 0.0000000000000000e+00  2.7441888169177093e-04 3.5830534040065916e-06 0.0000000000000000e+00  2.5786423378089613e-04 1.0891670368185798e-06 0.0000000000000000e+00  0.0000000000000000e+00 0.0000000000000000e+00 0.0000000000000000e+00  1.6684238259195059e-05 7.6161168778374771e-07 0.0000000000000000e+00  3.3848183057050839e-05 1.5400893854509659e-06 0.0000000000000000e+00  5.1977862551930746e-05 2.3516902029267338e-06 0.0000000000000000e+00  7.1548874614326953e-05 3.2101678299203465e-06 0.0000000000000000e+00  9.3013954983695732e-05 4.1248297038954305e-06 0.0000000000000000e+00  1.1678013845826688e-04 5.0976494471417692e-06 0.0000000000000000e+00  1.4317058380929886e-04 6.1190259691395511e-06 0.0000000000000000e+00  1.7236510709952549e-04 7.1617786932042055e-06 0.0000000000000000e+00  2.0431272558907133e-04 8.1731359750787371e-06 0.0000000000000000e+00  2.3860973723056485e-04 9.0650516790059881e-06 0.0000000000000000e+00  2.7433918332542203e-04 9.7046037800161630e-06 0.0000000000000000e+00  3.0987366876858528e-04 9.9091247534657275e-06 0.0000000000000000e+00  3.4265583628989782e-04 9.4556967942541353e-06 0.0000000000000000e+00  3.6899265421306681e-04 8.1214292581723855e-06 0.0000000000000000e+00  3.8393532376455473e-04 5.7763905391276046e-06 0.0000000000000000e+00  3.8136459132426291e-04 2.5465913766843814e-06 0.0000000000000000e+00  0.0000000000000000e+00 0.0000000000000000e+00 0.0000000000000000e+00  1.8972451921775942e-05 8.8005936298245310e-07 0.0000000000000000e+00  3.8539784726235257e-05 1.7835122580549823e-06 0.0000000000000000e+00  5.9308640593470327e-05 2.7334786635867731e-06 0.0000000000000000e+00  8.1888505101594677e-05 3.7512738149853294e-06 0.0000000000000000e+00  1.0688599520816934e-04 4.8547120905301866e-06 0.0000000000000000e+00  1.3488840221711928e-04 6.0552444248384197e-06 0.0000000000000000e+00  1.6643067664617485e-04 7.3532604756397880e-06 0.0000000000000000e+00  2.0193818706041114e-04 8.7306599209526541e-06 0.0000000000000000e+00  2.4163571610401932e-04 1.0139623234927276e-05 0.0000000000000000e+00  2.8541211927599606e-04 1.1486672993137147e-05 0.0000000000000000e+00  3.3263149813121022e-04 1.2612299240234394e-05 0.0000000000000000e+00  3.8188817792828955e-04 1.3270036663265096e-05 0.0000000000000000e+00  4.3071690531389767e-04 1.3117220314491751e-05 0.0000000000000000e+00  4.7529093036519207e-04 1.1744943389904427e-05 0.0000000000000000e+00  5.1015713158038397e-04 8.7953814651786076e-06 0.0000000000000000e+00  5.2803360486204914e-04 4.2287083739816566e-06 0.0000000000000000e+00  0.0000000000000000e+00 0.0000000000000000e+00 0.0000000000000000e+00  2.0655355066595000e-05 9.7454971917340987e-07 0.0000000000000000e+00  4.2018322869228806e-05 1.9797787891961128e-06 0.0000000000000000e+00  6.4815256904757486e-05 3.0466645259572586e-06 0.0000000000000000e+00  8.9794925906185803e-05 4.2057453334175130e-06 0.0000000000000000e+00  1.1773377630418675e-04 5.4861447569237394e-06 0.0000000000000000e+00  1.4943154665675391e-04 6.9133843362838895e-06 0.0000000000000000e+00  1.8569088133215075e-04 8.5050936666328139e-06 0.0000000000000000e+00  2.2727154229196134e-04 1.0263178375392930e-05 0.0000000000000000e+00  2.7480598468447657e-04 1.2160211101230286e-05 0.0000000000000000e+00  3.2865919202884316e-04 1.4116877987079915e-05 0.0000000000000000e+00  3.8871384709038731e-04 1.5966874681957864e-05 0.0000000000000000e+00  4.5406643100382729e-04 1.7407702304791960e-05 0.0000000000000000e+00  5.2263685475048745e-04 1.7945159706206053e-05 0.0000000000000000e+00  5.9072562949061833e-04 1.6864286258250448e-05 0.0000000000000000e+00  6.5257526939973198e-04 1.3306998003775030e-05 0.0000000000000000e+00  6.9992497029442487e-04 6.5969484382796353e-06 0.0000000000000000e+00  0.0000000000000000e+00 0.0000000000000000e+00 0.0000000000000000e+00  2.1622725363789884e-05 1.0378877313583262e-06 0.0000000000000000e+00  4.4053677294818401e-05 2.1138214106760174e-06 0.0000000000000000e+00  6.8127958665656495e-05 3.2669278341426738e-06 0.0000000000000000e+00  9.4727928676625580e-05 4.5378989989276402e-06 0.0000000000000000e+00  1.2480353044955718e-04 5.9692721452880427e-06 0.0000000000000000e+00  1.5938612790021133e-04 7.6047796505273298e-06 0.0000000000000000e+00  1.9958982223272810e-04 9.4868519483805308e-06 0.0000000000000000e+00  2.4658985958840053e-04 1.1650522487107950e-05 0.0000000000000000e+00  3.0156126931541691e-04 1.4110453690416355e-05 0.0000000000000000e+00  3.6555235668362117e-04 1.6835162324375062e-05 0.0000000000000000e+00  4.3925903045482822e-04 1.9698515910251453e-05 0.0000000000000000e+00  5.2266362643366723e-04 2.2394289463444502e-05 0.0000000000000000e+00  6.1452051944118670e-04 2.4300960666823053e-05 0.0000000000000000e+00  7.1173081408465748e-04 2.4308490821133528e-05 0.0000000000000000e+00  8.0873995677873344e-04 2.0696321939169296e-05 0.0000000000000000e+00  8.9706155614530634e-04 1.1282154048895835e-05 0.0000000000000000e+00  0.0000000000000000e+00 0.0000000000000000e+00 0.0000000000000000e+00  2.1777779384023277e-05 1.0628735763070828e-06 0.0000000000000000e+00  4.4440159135125340e-05 2.1702786136426867e-06 0.0000000000000000e+00  6.8907164213977617e-05 3.3687296183755618e-06 0.0000000000000000e+00  9.6173864880977073e-05 4.7087359024754323e-06 0.0000000000000000e+00  1.2734891234024280e-04 6.2467931505873081e-06 0.0000000000000000e+00  1.6369231971400517e-04 8.0471424300609935e-06 0.0000000000000000e+00  2.0664834375214698e-04 1.0182728624979603e-05 0.0000000000000000e+00  2.5786410544058986e-04 1.2733950460972937e-05 0.0000000000000000e+00  3.1917549755154396e-04 1.5781914359370605e-05 0.0000000000000000e+00  3.9252732155841622e-04 1.9388786191311398e-05 0.0000000000000000e+00  4.7977420027069806e-04 2.3549216531258250e-05 0.0000000000000000e+00  5.8228860450759039e-04 2.8080436102721476e-05 0.0000000000000000e+00  7.0030691542705907e-04 3.2393931280255453e-05 0.0000000000000000e+00  8.3203866415552626e-04 3.5078021117206147e-05 0.0000000000000000e+00  9.7284746668590139e-04 3.3295412289351645e-05 0.0000000000000000e+00  1.1152715252932283e-03 2.2247438750249486e-05 0.0000000000000000e+00  0.0000000000000000e+00 0.0000000000000000e+00 0.0000000000000000e+00  2.1048847315741356e-05 1.0432493808587893e-06 0.0000000000000000e+00  4.3021058987381142e-05 2.1354970601941108e-06 0.0000000000000000e+00  6.6883220030570224e-05 3.3285839612700616e-06 0.0000000000000000e+00  9.3703898754687447e-05 4.6807799760056374e-06 0.0000000000000000e+00  1.2471147176791223e-04 6.2606553076109613e-06 0.0000000000000000e+00  1.6135955143818385e-04 8.1517571022407522e-06 0.0000000000000000e+00  2.0539998965837157e-04 1.0458304929993650e-05 0.0000000000000000e+00  2.5895874590325875e-04 1.3311799104977883e-05 0.0000000000000000e+00  3.2459981327251445e-04 1.6877301805038607e-05 0.0000000000000000e+00  4.0534237693823062e-04 2.1354606103948832e-05 0.0000000000000000e+00  5.0456040079624139e-04 2.6959208644747357e-05 0.0000000000000000e+00  6.2563879094718348e-04 3.3840016471799613e-05 0.0000000000000000e+00  7.7120565526687707e-04 4.1821845582896846e-05 0.0000000000000000e+00  9.4181391299820200e-04 4.9725791205338472e-05 0.0000000000000000e+00  1.1344184063158151e-03 5.3924188761806933e-05 0.0000000000000000e+00  1.3418346623584668e-03 4.6091388609968135e-05 0.0000000000000000e+00  0.0000000000000000e+00 0.0000000000000000e+00 0.0000000000000000e+00  1.9402015782811949e-05 9.7480255100827679e-07 0.0000000000000000e+00  3.9715820290568044e-05 1.9999346345269944e-06 0.0000000000000000e+00  6.1901908536611438e-05 3.1291823861743578e-06 0.0000000000000000e+00  8.7043717498134812e-05 4.4246335039149337e-06 0.0000000000000000e+00  1.1642245790205958e-04 5.9621174882900656e-06 0.0000000000000000e+00  1.5160961026723562e-04 7.8385159553707522e-06 0.0000000000000000e+00  1.9458359589273833e-04 1.0182145158993736e-05 0.0000000000000000e+00  2.4787546178780715e-04 1.3168099363155712e-05 0.0000000000000000e+00  3.1474147757458752e-04 1.7041449977245862e-05 0.0000000000000000e+00  3.9934084994752852e-04 2.2151993730306344e-05 0.0000000000000000e+00  5.0684943860962971e-04 2.9001601940378133e-05 0.0000000000000000e+00  6.4334037120659666e-04 3.8285194317425733e-05 0.0000000000000000e+00  8.1508548043096899e-04 5.0816718994233843e-05 0.0000000000000000e+00  1.0267556003502110e-03 6.6901560778658646e-05 0.0000000000000000e+00  1.2786575938891617e-03 8.3857044250767229e-05 0.0000000000000000e+00  1.5667806766336743e-03 9.2686366342193750e-05 0.0000000000000000e+00  0.0000000000000000e+00 0.0000000000000000e+00 0.0000000000000000e+00  1.6852937789197585e-05 8.5643232043265659e-07 0.0000000000000000e+00  3.4546120516928195e-05 1.7605455764184805e-06 0.0000000000000000e+00  5.3969923142736147e-05 2.7636628695430097e-06 0.0000000000000000e+00  7.6146888350766103e-05 3.9261742358375382e-06 0.0000000000000000e+00  1.0231682832703438e-04 5.3237116838176363e-06 0.0000000000000000e+00  1.3404908040542834e-04 7.0558150194729457e-06 0.0000000000000000e+00  1.7339637809238594e-04 9.2589425102174112e-06 0.0000000000000000e+00  2.2310910421165274e-04 1.2127249766584769e-05 0.0000000000000000e+00  2.8693145741729478e-04 1.5947974586889484e-05 0.0000000000000000e+00  3.6999481187829724e-04 2.1165771510646213e-05 0.0000000000000000e+00  4.7928714011594793e-04 2.8506094620654151e-05 0.0000000000000000e+00  6.2405692110607250e-04 3.9215183887774267e-05 0.0000000000000000e+00  8.1568147550470057e-04 5.5489260656799208e-05 0.0000000000000000e+00  1.0657496789346986e-03 8.0936056678150629e-05 0.0000000000000000e+00  1.3798855752353426e-03 1.1862364313479418e-04 0.0000000000000000e+00  1.7601855285380736e-03 1.4370449887661486e-04 0.0000000000000000e+00  0.0000000000000000e+00 0.0000000000000000e+00 0.0000000000000000e+00  1.3475530616291432e-05 6.9093802474240881e-07 0.0000000000000000e+00  2.7655926356202906e-05 1.4225935536906848e-06 0.0000000000000000e+00  4.3292022396948437e-05 2.2389915947809452e-06 0.0000000000000000e+00  6.1259314090240041e-05 3.1925722451430589e-06 0.0000000000000000e+00  8.2641952020778112e-05 4.3499538736396112e-06 0.0000000000000000e+00  1.0884927010738500e-04 5.8000220142167235e-06 0.0000000000000000e+00  1.4178587655662287e-04 7.6659705549658163e-06 0.0000000000000000e+00  1.8410805784583269e-04 1.0124268889790723e-05 0.0000000000000000e+00  2.3961728408087516e-04 1.3436852524343817e-05 0.0000000000000000e+00  3.1386564234333795e-04 1.8012054850738744e-05 0.0000000000000000e+00  4.1506684397301464e-04 2.4537274640818655e-05 0.0000000000000000e+00  5.5536719635547298e-04 3.4309860976024111e-05 0.0000000000000000e+00  7.5224121666891963e-04 5.0140766033439512e-05 0.0000000000000000e+00  1.0285812194693975e-03 7.8920512269037448e-05 0.0000000000000000e+00  1.4051046778962818e-03 1.3925614078985946e-04 0.0000000000000000e+00  1.8363315151154549e-03 2.9492830154762218e-04 0.0000000000000000e+00  0.0000000000000000e+00 0.0000000000000000e+00 0.0000000000000000e+00  9.4051507901438166e-06 4.8530887318808836e-07 0.0000000000000000e+00  1.9320043446040671e-05 1.0003664432498041e-06 0.0000000000000000e+00  3.0289946979007889e-05 1.5774113463997873e-06 0.0000000000000000e+00  4.2958169607148527e-05 2.2550933145892138e-06 0.0000000000000000e+00  5.8134445479530424e-05 3.0827786689522561e-06 0.0000000000000000e+00  7.6893458854254042e-05 4.1263586989237003e-06 0.0000000000000000e+00  1.0072555593148868e-04 5.4761795112289997e-06 0.0000000000000000e+00  1.3177772426952212e-04 7.2575121368460262e-06 0.0000000000000000e+00  1.7325282940160557e-04 9.6430605951125685e-06 0.0000000000000000e+00  2.3009077990053712e-04 1.2864759465572398e-05 0.0000000000000000e+00  3.1015672360932000e-04 1.7220406900654160e-05 0.0000000000000000e+00  4.2633371692492826e-04 2.3090223871170802e-05 0.0000000000000000e+00  6.0015741581104579e-04 3.1135305672822089e-05 0.0000000000000000e+00  8.6775217416217249e-04 4.3623485570522097e-05 0.0000000000000000e+00  1.2878422947882914e-03 7.0585530366577522e-05 0.0000000000000000e+00  1.9456431753226285e-03 1.4984751586078721e-04 0.0000000000000000e+00  0.0000000000000000e+00 0.0000000000000000e+00 0.0000000000000000e+00  4.8342885010638715e-06 2.5039656483837013e-07 0.0000000000000000e+00  9.9364252975308635e-06 5.1650206170196639e-07 0.0000000000000000e+00  1.5593729105591800e-05 8.1535519363556286e-07 0.0000000000000000e+00  2.2147757695152731e-05 1.1674359961104569e-06 0.0000000000000000e+00  3.0033004147379260e-05 1.5989100386395483e-06 0.0000000000000000e+00  3.9834015053001385e-05 2.1444711255843919e-06 0.0000000000000000e+00  5.2375425282809639e-05 2.8506094168596971e-06 0.0000000000000000e+00  6.8871372035812962e-05 3.7778351878174883e-06 0.0000000000000000e+00  9.1184735265614425e-05 4.9958047920724104e-06 0.0000000000000000e+00  1.2229491544024927e-04 6.5496690996725357e-06 0.0000000000000000e+00  1.6716600015083586e-04 8.3231863623476355e-06 0.0000000000000000e+00  2.3435219402978473e-04 9.5478876217671776e-06 0.0000000000000000e+00  3.3866779582820652e-04 7.1505700538521883e-06 0.0000000000000000e+00  5.0347854637753406e-04 -9.2557901185969993e-06 0.0000000000000000e+00  7.5022671117754751e-04 -6.7855561498992206e-05 0.0000000000000000e+00  1.0382382863328272e-03 -2.0644179296814422e-04 0.0000000000000000e+00  0.0000000000000000e+00 0.0000000000000000e+00 0.0000000000000000e+00  0.0000000000000000e+00 0.0000000000000000e+00 0.0000000000000000e+00  0.0000000000000000e+00 0.0000000000000000e+00 0.0000000000000000e+00  0.0000000000000000e+00 0.0000000000000000e+00 0.0000000000000000e+00  0.0000000000000000e+00 0.0000000000000000e+00 0.0000000000000000e+00  0.0000000000000000e+00 0.0000000000000000e+00 0.0000000000000000e+00  0.0000000000000000e+00 0.0000000000000000e+00 0.0000000000000000e+00  0.0000000000000000e+00 0.0000000000000000e+00 0.0000000000000000e+00  0.0000000000000000e+00 0.0000000000000000e+00 0.0000000000000000e+00  0.0000000000000000e+00 0.0000000000000000e+00 0.0000000000000000e+00  0.0000000000000000e+00 0.0000000000000000e+00 0.0000000000000000e+00  0.0000000000000000e+00 0.0000000000000000e+00 0.0000000000000000e+00  0.0000