<?xml version="1.0"?>
<VTKFile type="UnstructuredGrid"  version="0.1"  >
<UnstructuredGrid>
<Piece  NumberOfPoints="289" NumberOfCells="512">
<Points>
<DataArray  type="Float64"  NumberOfComponents="3"  format="ascii">0 0 0  0.0625 0 0  0.125 0 0  0.1875 0 0  0.25 0 0  0.3125 0 0  0.375 0 0  0.4375 0 0  0.5 0 0  0.5625 0 0  0.625 0 0  0.6875 0 0  0.75 0 0  0.8125 0 0  0.875 0 0  0.9375 0 0  1 0 0  0 0.0625 0  0.06258556544620779 0.06249133275801051 0  0.1251738803953937 0.06248246800750067 0  0.1877677476126046 0.06247321611125495 0  0.2503700347862936 0.0624634072777174 0  0.3129836933276882 0.06245290569096439 0  0.3756117603061735 0.06244162854417443 0  0.4382573419948806 0.06242957093291886 0  0.500923588995458 0.06241683624374732 0  0.563613706016326 0.06240366876751603 0  0.6263311315034653 0.06239047909473253 0  0.6890802823986901 0.06237783913063422 0  0.7518690248762498 0.06236638843971583 0  0.8147164124068081 0.06235648342379385 0  0.8776770774273497 0.06234700774202796 0  0.9409211168317904 0.06233105237936154 0  1.005012359788312 0.0622791201223456 0  0 0.125 0  0.0626684643131323 0.1249828584029121 0  0.1253424134553684 0.1249653118593995 0  0.1880274464822952 0.124946969477097 0  0.2507293124267371 0.1249274764891394 0  0.3134539591229137 0.1249065409560402 0  0.3762075476665064 0.1248839708623482 0  0.4389964235049413 0.1248597243594546 0  0.5018270459793767 0.1248339741202069 0  0.5647059097392766 0.1248071827287477 0  0.6276395709700432 0.1247801781928558 0  0.6906350729131706 0.1247542060549125 0  0.7537014314772975 0.1247309230950301 0  0.8168533795577265 0.1247123327053887 0  0.8801182838863316 0.1247009873519285 0  0.9435393508971144 0.1247025844405351 0  1.00711818109953 0.1247417337332654 0  0 0.1875 0  0.06274595336637061 0.1874747855127155 0  0.1255000686286852 0.1874489413902939 0  0.1882706938090782 0.1874218548910083 0  0.2510664430258518 0.187392958494454 0  0.3138962930029801 0.187361765729289 0  0.376769627701207 0.1873279235605669 0  0.4396962075143598 0.1872912871071186 0  0.5026860368344799 0.1872520213701114 0  0.5657491043711115 0.1872107311176308 0  0.6288949732383696 0.1871686116937706 0  0.6921321806992818 0.1871275960817224 0  0.7554672641082593 0.1870904381322154 0  0.8189025671108817 0.1870605897385184 0  0.8824296068299857 0.1870414666762645 0  0.9460080165025782 0.1870335488294771 0  1.009507667842925 0.1870220936991103 0  0 0.25 0  0.06281535470163183 0.2499673396616908 0  0.1256414310448323 0.2499338040213269 0  0.1884892219573925 0.249898532505381 0  0.251370142968224 0.2498607079071012 0  0.3142962023070075 0.2498195954761551 0  0.3772801077868911 0.2497746047924717 0  0.4403352719834351 0.2497253843529878 0  0.5034756578191345 0.249671959846346 0  0.5667153729249542 0.2496149265484497 0  0.6300678549973355 0.2495557016503446 0  0.6935443446067164 0.2494968287331108 0  0.7571510015314789 0.2494422943627397 0  0.820883245232765 0.2493977472661223 0  0.8847143546014903 0.2493703781066683 0  0.9485732906289427 0.249368084100173 0  1.012307870847533 0.2493983439250376 0  0 0.3125 0  0.06287411280963733 0.3124607670102332 0  0.1257613114878265 0.3124203937176915 0  0.1886750519450735 0.3123777459208242 0  0.2516294142842675 0.3123317164965905 0  0.3146393793892229 0.3122812591235378 0  0.3777210454947778 0.3122254496620761 0  0.4408917397347071 0.3121635896829752 0  0.5041699493315197 0.3120953711198625 0  0.5675749434842072 0.3120211260306861 0  0.6311258594690674 0.3119421894764467 0  0.694839846591401 0.3118614030881137 0  0.7587285397031837 0.3117837752173923 0  0.8227916226751042 0.3117172805909733 0  0.8870056886524087 0.3116737242025375 0  0.9513069267592014 0.3116695535370946 0  1.015570132347558 0.3117266217197613 0  0 0.375 0  0.06291987036166612 0.374955332546423 0  0.1258548962236913 0.3749092490251299 0  0.1888207124729677 0.3748603234950022 0  0.2518338209883037 0.3748071240098359 0  0.314912008001678 0.3747482298083605 0  0.378074725336712 0.3746822776389538 0  0.4413433985941146 0.374608055268877 0  0.5047415946204992 0.3745246687287447 0  0.5682949269931474 0.3744318219326877 0  0.6320304852457437 0.3743302633012568 0  0.6959754168030573 0.3742224727370448 0  0.7601540475814866 0.374113678853734 0  0.8245826234475543 0.3740132981115985 0  0.8892605970947348 0.3739368487715457 0  0.9541580065655374 0.3739082667663016 0  1.019201003638315 0.3739622326508962 0  0 0.4375 0  0.06295056529329919 0.4374513114519546 0  0.1259179434335863 0.4374009367424801 0  0.1889195393455281 0.4373471566754777 0  0.251973893580391 0.4372881960526337 0  0.31510126720672 0.4372222117727595 0  0.378324236171336 0.4371473059612707 0  0.441668282520215 0.437061582900481 0  0.5051623502999507 0.4369632803918644 0  0.5688393001909721 0.4368510250279856 0  0.6327361392236399 0.4367242896379665 0  0.6968938059368063 0.4365841725480117 0  0.761356142408134 0.4364346712199301 0  0.826167489338073 0.4362846735214324 0  0.89136818638385 0.4361508935060091 0  0.9569874126314019 0.4360618383300745 0  1.023033693436465 0.4360624944946984 0  0 0.5 0  0.06296454749331142 0.4999489726790844 0  0.1259470240332989 0.4998960189102302 0  0.1889660554369456 0.49983915051198 0  0.2520416704010691 0.499776259625212 0  0.3151960623772952 0.4997050659911558 0  0.3784544230317182 0.4996230780043623 0  0.4418458720827922 0.4995275824129238 0  0.5054045098801954 0.4994156905250992 0  0.5691706231529322 0.4992844914611264 0  0.6331920831776869 0.4991314016003188 0  0.6975259901689962 0.4989548626094253 0  0.7622406297573319 0.4987556365713635 0  0.8274177813298408 0.4985390699558857 0  0.8931552707249596 0.4983187850759688 0  0.9595693130934047 0.4981220833795851 0  1.026795951353539 0.4979963637053769 0  0 0.5625 0  0.06296070780962458 0.5624485549246164 0  0.1259397924253552 0.5623950030250782 0  0.1889564099941566 0.5623371448775765 0  0.2520313491576417 0.5622725912890071 0  0.3151879542562459 0.5621986619564047 0  0.3784531882021615 0.56211227942755 0  0.441858902748578 0.5620098636745939 0  0.5054434118823492 0.5618872429031256 0  0.569253517885123 0.5617396167265903 0  0.6333472436486147 0.561561647732247 0  0.6977977197775634 0.5613478331894367 0  0.7626990097539852 0.561093446442015 0  0.8281751322052358 0.5607965652717243 0  0.8943939477171637 0.5604619887225122 0  0.9615872866885781 0.5601078307972487 0  1.030077156486155 0.5597738881074015 0  0 0.625 0  0.0629386062963903 0.6249502367385883 0  0.1258952598427475 0.6248982787135883 0  0.1888888330293027 0.6248418104588145 0  0.2519399829601763 0.6247782613007573 0  0.3150721918174891 0.6247046549286427 0  0.3783130075275418 0.6246174307488972 0  0.4416955905500038 0.6245122276063197 0  0.5052607240266216 0.6243836234029851 0  0.5690595449555781 0.6242248338996984 0  0.633157459039508 0.6240274000963424 0  0.6976401282468966 0.6237809578460541 0  0.7626232881438801 0.6234733348870006 0  0.8282697818596491 0.6230915614123292 0  0.8948197198919217 0.6226250600348445 0  0.9626419003951893 0.622073119844903 0  1.032312580384675 0.6214569153249234 0  0 0.6875 0  0.06289858207518573 0.6874541042908966 0  0.1258140326513049 0.6874060480815454 0  0.1887640418292905 0.6873535306445806 0  0.2517681230106642 0.6872939486945185 0  0.3148487000283077 0.687224206401708 0  0.3780324352104983 0.6871404732727073 0  0.4413519277205475 0.687037863234542 0  0.5048479736732084 0.6869099999360693 0  0.5685727003213633 0.6867484237315362 0  0.6325941443873786 0.6865417895035421 0  0.6970034410944353 0.6862748173148902 0  0.7619272307504796 0.6859270440099132 0  0.8275513356285782 0.6854717655729315 0  0.8941693426359726 0.6848767405070117 0  0.9622827069648014 0.6841117411212089 0  1.032786218502104 0.6831736696901051 0  0 0.75 0  0.06284182522800393 0.7499601219318659 0  0.1256984733288867 0.7499182607195881 0  0.1885855277145266 0.7498722875751428 0  0.2515202941426976 0.7498197550025982 0  0.3145228455088215 0.7497576875526818 0  0.3776173199790734 0.7496823025331059 0  0.4408336061005912 0.7495886189924368 0  0.5042096042211599 0.7494698929201971 0  0.5677943518360428 0.749316784315078 0  0.6316525028485145 0.7491161114343737 0  0.6958711573890066 0.7488489717652262 0  0.760571519732486 0.7484879114941545 0  0.8259325261690013 0.7479928026746199 0  0.8922482646026989 0.747305821334088 0  0.9600827735998765 0.7463514202924876 0  1.030653151679385 0.745079173208704 0  0 0.8125 0  0.06277039270848857 0.8124681115936413 0  0.1255527448727023 0.8124345666863033 0  0.1883596556910448 0.8123975756149713 0  0.2512051958098527 0.8123550543923334 0  0.3141058126107426 0.8123044251278488 0  0.3770814701035756 0.8122423409126752 0  0.440157144320788 0.8121642862525073 0  0.5033648339323576 0.8120639757423684 0  0.566746291896724 0.8119324250320685 0  0.6303567312190387 0.8117564835169186 0  0.6942698265901446 0.8115164654966658 0  0.7585846832198417 0.8111822237422074 0  0.8234377693708876 0.8107064125247011 0  0.8890364546561319 0.8100125425285535 0  0.9558044975931481 0.8089751129076613 0  1.025119632357197 0.8074179823349498 0  0 0.875 0  0.06268715555626504 0.8749777467791343 0  0.1253827104735172 0.8749543004859485 0  0.1880955279070178 0.8749283659823065 0  0.2508355498056591 0.8748984209820365 0  0.3136144690302227 0.8748625584699633 0  0.3764465863411549 0.8748182645500572 0  0.439349947854513 0.8747620875301139 0  0.5023478835651065 0.8746891258124148 0  0.5654710746856929 0.8745922120874882 0  0.6287601947990239 0.874460581361544 0  0.6922687709984608 0.874277642406593 0  0.7560645408688038 0.8740171264489632 0  0.8202235820802442 0.8736360141202899 0  0.8848024635226482 0.873059750896763 0  0.9497737908159465 0.8721434118157245 0  1.015163012244241 0.8705319526065508 0  0 0.9375 0  0.06259567309836624 0.9374885650828592 0  0.1251956779644361 0.9374765053334909 0  0.1878045907442193 0.9374631404645648 0  0.2504275600712834 0.9374476662618282 0  0.3130706678199458 0.9374290673679309 0  0.3757413949906053 0.9374059925562468 0  0.4384492496863209 0.937376565834769 0
[...]
<PointData  Vectors="f_54"> 
<DataArray  type="Float64"  Name="f_54"  NumberOfComponents="3" format="ascii">0.0000000000000000e+00 0.0000000000000000e+00 0.0000000000000000e+00  0.0000000000000000e+00 0.0000000000000000e+00 0.0000000000000000e+00  0.0000000000000000e+00 0.0000000000000000e+00 0.0000000000000000e+00  0.0000000000000000e+00 0.0000000000000000e+00 0.0000000000000000e+00  0.0000000000000000e+00 0.0000000000000000e+00 0.0000000000000000e+00  0.0000000000000000e+00 0.0000000000000000e+00 0.0000000000000000e+00  0.0000000000000000e+00 0.0000000000000000e+00 0.0000000000000000e+00  0.0000000000000000e+00 0.0000000000000000e+00 0.0000000000000000e+00  0.0000000000000000e+00 0.0000000000000000e+00 0.0000000000000000e+00  0.0000000000000000e+00 0.0000000000000000e+00 0.0000000000000000e+00  0.0000000000000000e+00 0.0000000000000000e+00 0.0000000000000000e+00  0.0000000000000000e+00 0.0000000000000000e+00 0.0000000000000000e+00  0.0000000000000000e+00 0.0000000000000000e+00 0.0000000000000000e+00  0.0000000000000000e+00 0.0000000000000000e+00 0.0000000000000000e+00  0.0000000000000000e+00 0.0000000000000000e+00 0.0000000000000000e+00  0.0000000000000000e+00 0.0000000000000000e+00 0.0000000000000000e+00  0.0000000000000000e+00 0.0000000000000000e+00 0.0000000000000000e+00  0.0000000000000000e+00 0.0000000000000000e+00 0.0000000000000000e+00  -7.4681725090878376e-07 -5.6304169451886112e-08 0.0000000000000000e+00  -1.4918858132666557e-06 -1.1336457402938933e-07 0.0000000000000000e+00  -2.2295913599447821e-06 -1.7188134037084854e-07 0.0000000000000000e+00  -2.9455192879971524e-06 -2.3242045103070241e-07 0.0000000000000000e+00  -3.6103881759374391e-06 -2.9538331236229504e-07 0.0000000000000000e+00  -4.1716970755364301e-06 -3.6104621458954981e-07 0.0000000000000000e+00  -4.5417220475075380e-06 -4.2974541032862006e-07 0.0000000000000000e+00  -4.5795861839980840e-06 -5.0234822607354561e-07 0.0000000000000000e+00  -4.0630448628152347e-06 -5.8127096396509353e-07 0.0000000000000000e+00  -2.6404563055952335e-06 -6.7255919225178596e-07 0.0000000000000000e+00  2.6046358723676628e-07 -7.9019961374814391e-07 0.0000000000000000e+00  5.6305111990229794e-06 -9.6585239252695744e-07 0.0000000000000000e+00  1.5370924870740594e-05 -1.2743181200989192e-06 0.0000000000000000e+00  3.3681164226152213e-05 -1.9124520040798700e-06 0.0000000000000000e+00  7.1456503359218268e-05 -3.4829266381390807e-06 0.0000000000000000e+00  1.6220991218432026e-04 -8.1730391172871948e-06 0.0000000000000000e+00  0.0000000000000000e+00 0.0000000000000000e+00 0.0000000000000000e+00  -1.4971890913684551e-06 -1.1199055522764704e-07 0.0000000000000000e+00  -2.9950127051426157e-06 -2.2557796698552132e-07 0.0000000000000000e+00  -4.4869387322220739e-06 -3.4223452323460913e-07 0.0000000000000000e+00  -5.9500337473442006e-06 -4.6313282500132568e-07 0.0000000000000000e+00  -7.3336113239005630e-06 -5.8904553263377969e-07 0.0000000000000000e+00  -8.5436231219297459e-06 -7.2034991079089119e-07 0.0000000000000000e+00  -9.4204584694823063e-06 -8.5726339538202416e-07 0.0000000000000000e+00  -9.7066271636796049e-06 -1.0005420859639181e-06 0.0000000000000000e+00  -8.9984420416070969e-06 -1.1530422421781291e-06 0.0000000000000000e+00  -6.6708752930611515e-06 -1.3227976837984777e-06 0.0000000000000000e+00  -1.7541153668375548e-06 -1.5285966497026398e-06 0.0000000000000000e+00  7.2819755120331342e-06 -1.8092127843928687e-06 0.0000000000000000e+00  2.2919818332266400e-05 -2.2358265112221085e-06 0.0000000000000000e+00  4.9281505867049860e-05 -2.9144351286926628e-06 0.0000000000000000e+00  9.3000713955822777e-05 -3.8907463173642920e-06 0.0000000000000000e+00  1.6198214230273659e-04 -4.4647090927335629e-06 0.0000000000000000e+00  0.0000000000000000e+00 0.0000000000000000e+00 0.0000000000000000e+00  -2.2484353224290874e-06 -1.6619896197108985e-07 0.0000000000000000e+00  -4.5075575110400490e-06 -3.3500462397295356e-07 0.0000000000000000e+00  -6.7787140462447395e-06 -5.0881449991223593e-07 0.0000000000000000e+00  -9.0416664240832408e-06 -6.8951768894650386e-07 0.0000000000000000e+00  -1.1239509484555541e-05 -8.7826060923853461e-07 0.0000000000000000e+00  -1.3257891117423391e-05 -1.0752896547628826e-06 0.0000000000000000e+00  -1.4895714442100495e-05 -1.2800068899871950e-06 0.0000000000000000e+00  -1.5823619852232328e-05 -1.4915043399706479e-06 0.0000000000000000e+00  -1.5525323406657379e-05 -1.7100403974872742e-06 0.0000000000000000e+00  -1.3215410297650052e-05 -1.9401822656565776e-06 0.0000000000000000e+00  -7.7263291563516469e-06 -2.1965718465971527e-06 0.0000000000000000e+00  2.6385500863859171e-06 -2.5131595229303952e-06 0.0000000000000000e+00  2.0262733874451009e-05 -2.9555221609718003e-06 0.0000000000000000e+00  4.8255628054561962e-05 -3.6329522516273917e-06 0.0000000000000000e+00  8.9891809502614582e-05 -4.7113569614800495e-06 0.0000000000000000e+00  1.4608835015563726e-04 -6.5293011628054852e-06 0.0000000000000000e+00  0.0000000000000000e+00 0.0000000000000000e+00 0.0000000000000000e+00  -2.9902109009294191e-06 -2.1790105389297333e-07 0.0000000000000000e+00  -6.0112327326039149e-06 -4.3968670941939626e-07 0.0000000000000000e+00  -9.0839270259129114e-06 -6.6894309208828550e-07 0.0000000000000000e+00  -1.2205745926783720e-05 -9.0851893914583065e-07 0.0000000000000000e+00  -1.5334009267844114e-05 -1.1600956610415761e-06 0.0000000000000000e+00  -1.8362547642857330e-05 -1.4237281310834686e-06 0.0000000000000000e+00  -2.1088635485762908e-05 -1.6974502261844193e-06 0.0000000000000000e+00  -2.3166613108397268e-05 -1.9771781899272307e-06 0.0000000000000000e+00  -2.4044491226464337e-05 -2.2573825120077667e-06 0.0000000000000000e+00  -2.2881199805510167e-05 -2.5333621232415946e-06 0.0000000000000000e+00  -1.8447612315062791e-05 -2.8064156882668354e-06 0.0000000000000000e+00  -9.0303659502333901e-06 -3.0935729104373291e-06 0.0000000000000000e+00  7.6021079143213272e-06 -3.4432856874723915e-06 0.0000000000000000e+00  3.4021233370324948e-05 -3.9564702005900131e-06 0.0000000000000000e+00  7.2435671012750782e-05 -4.8059227372681594e-06 0.0000000000000000e+00  1.2303318765221285e-04 -6.2204693570638194e-06 0.0000000000000000e+00  0.0000000000000000e+00 0.0000000000000000e+00 0.0000000000000000e+00  -3.7021835339646636e-06 -2.6580498871547602e-07 0.0000000000000000e+00  -7.4661856771937632e-06 -5.3714040574135642e-07 0.0000000000000000e+00  -1.1345101178515836e-05 -8.1917391784864005e-07 0.0000000000000000e+00  -1.5370783284329298e-05 -1.1161518886236396e-06 0.0000000000000000e+00  -1.9537912578778918e-05 -1.4307500607489072e-06 0.0000000000000000e+00  -2.3780946441258196e-05 -1.7632105966767757e-06 0.0000000000000000e+00  -2.7940558605241189e-05 -2.1102514343735286e-06 0.0000000000000000e+00  -3.1715607928763560e-05 -2.4638492072135255e-06 0.0000000000000000e+00  -3.4596699299734986e-05 -2.8102508601483922e-06 0.0000000000000000e+00  -3.5779241177384464e-05 -3.1300728306547842e-06 0.0000000000000000e+00  -3.4060089212034159e-05 -3.4012513401519010e-06 0.0000000000000000e+00  -2.7736999782014301e-05 -3.6080489057618789e-06 0.0000000000000000e+00  -1.4560811854877101e-05 -3.7612249753735485e-06 0.0000000000000000e+00  8.1600938623322453e-06 -3.9360353520703109e-06 0.0000000000000000e+00  4.3157832209792127e-05 -4.3332638636475266e-06 0.0000000000000000e+00  9.2428076429042636e-05 -5.3583796196501529e-06 0.0000000000000000e+00  0.0000000000000000e+00 0.0000000000000000e+00 0.0000000000000000e+00  -4.3533123878197005e-06 -3.0826001144260285e-07 0.0000000000000000e+00  -8.8092528737440966e-06 -6.2413388900848906e-07 0.0000000000000000e+00  -1.3464878074723639e-05 -9.5487862815534408e-07 0.0000000000000000e+00  -1.8402453741818835e-05 -1.3067949071078724e-06 0.0000000000000000e+00  -2.3676994959298071e-05 -1.6844119103059734e-06 0.0000000000000000e+00  -2.9296751689012259e-05 -2.0892220027385871e-06 0.0000000000000000e+00  -3.5192832726548921e-05 -2.5177693079348597e-06 0.0000000000000000e+00  -4.1173005341396034e-05 -2.9589173205951761e-06 0.0000000000000000e+00  -4.6853675812658785e-05 -3.3902806333983883e-06 0.0000000000000000e+00  -5.1563995242351335e-05 -3.7743094257018953e-06 0.0000000000000000e+00  -5.4218693355317545e-05 -4.0557648948370609e-06 0.0000000000000000e+00  -5.3164512224219923e-05 -4.1650166384959653e-06 0.0000000000000000e+00  -4.6022034898167541e-05 -4.0367033307668526e-06 0.0000000000000000e+00  -2.9568270340255524e-05 -3.6615808205123945e-06 0.0000000000000000e+00  2.8591139526826468e-07 -3.1997932599938145e-06 0.0000000000000000e+00  4.8437977101302467e-05 -3.1910764289481774e-06 0.0000000000000000e+00  0.0000000000000000e+00 0.0000000000000000e+00 0.0000000000000000e+00  -4.9030069809676960e-06 -3.4319161772976228e-07 0.0000000000000000e+00  -9.9561535808726500e-06 -6.9651116152730190e-07 0.0000000000000000e+00  -1.5308962489458722e-05 -1.0698563311576343e-06 0.0000000000000000e+00  -2.1106768289245409e-05 -1.4724046640193499e-06 0.0000000000000000e+00  -2.7484536031522300e-05 -1.9117968343946371e-06 0.0000000000000000e+00  -3.4554563377176665e-05 -2.3926466606549941e-06 0.0000000000000000e+00  -4.2384005954051203e-05 -2.9139475443360424e-06 0.0000000000000000e+00  -5.0956067437637131e-05 -3.4647720167537284e-06 0.0000000000000000e+00  -6.0105747432237245e-05 -4.0175166606259166e-06 0.0000000000000000e+00  -6.9417339311207403e-05 -4.5180453091968832e-06 0.0000000000000000e+00  -7.8067115744207550e-05 -4.8730035460739821e-06 0.0000000000000000e+00  -8.4592680668988762e-05 -4.9376420906749963e-06 0.0000000000000000e+00  -8.6573504402158644e-05 -4.5153372930559942e-06 0.0000000000000000e+00  -8.0217591594583808e-05 -3.3968875368134364e-06 0.0000000000000000e+00  -5.9859599789870579e-05 -1.4979311358834114e-06 0.0000000000000000e+00  -1.7349534289929210e-05 8.0495767078614927e-07 0.0000000000000000e+00  0.0000000000000000e+00 0.0000000000000000e+00 0.0000000000000000e+00  -5.3042650071265238e-06 -3.6811246787092503e-07 0.0000000000000000e+00  -1.0807864714244041e-05 -7.4916261719105536e-07 0.0000000000000000e+00  -1.6715877015035781e-05 -1.1561430891922226e-06 0.0000000000000000e+00  -2.3243230068731638e-05 -1.6019341424450091e-06 0.0000000000000000e+00  -3.0617461504705743e-05 -2.0987695040744932e-06 0.0000000000000000e+00  -3.9077611661455262e-05 -2.6569275136363819e-06 0.0000000000000000e+00  -4.8865602435841407e-05 -3.2820067408122389e-06 0.0000000000000000e+00  -6.0203493441045348e-05 -3.9697002221398202e-06 0.0000000000000000e+00  -7.3244968194253630e-05 -4.6962982712394914e-06 0.0000000000000000e+00  -8.7981227740875918e-05 -5.4022456275933552e-06 0.0000000000000000e+00  -1.0406914859720568e-04 -5.9653121188909546e-06 0.0000000000000000e+00  -1.2053325481864963e-04 -6.1607081749237643e-06 0.0000000000000000e+00  -1.3527670730844891e-04 -5.6118608057643333e-06 0.0000000000000000e+00  -1.4433157765882663e-04 -3.7572177009167751e-06 0.0000000000000000e+00  -1.4080205988808151e-04 8.6886249161727949e-08 0.0000000000000000e+00  -1.1349656713966727e-04 6.3798185588510666e-06 0.0000000000000000e+00  0.0000000000000000e+00 0.0000000000000000e+00 0.0000000000000000e+00  -5.5086688126681559e-06 -3.8025843441062170e-07 0.0000000000000000e+00  -1.1261004881560025e-05 -7.7625981718725698e-07 0.0000000000000000e+00  -1.7513462150054377e-05 -1.2042471723445167e-06 0.0000000000000000e+00  -2.4548333971991487e-05 -1.6813522905577867e-06 0.0000000000000000e+00  -3.2687453612225107e-05 -2.2257069346205525e-06 0.0000000000000000e+00  -4.2305898584725084e-05 -2.8559255615334765e-06 0.0000000000000000e+00  -5.3843685318788717e-05 -3.5892660855592698e-06 0.0000000000000000e+00  -6.7810328057462424e-05 -4.4370957778241890e-06 0.0000000000000000e+00  -8.4770906488150957e-05 -5.3950027531140625e-06 0.0000000000000000e+00  -1.0529033794700713e-04 -6.4225455433729847e-06 0.0000000000000000e+00  -1.2979088089669762e-04 -7.4036292702918971e-06 0.0000000000000000e+00  -1.5824186654902903e-04 -8.0726129657629217e-06 0.0000000000000000e+00  -1.8954955887566407e-04 -7.8858639657167074e-06 0.0000000000000000e+00  -2.2046602562120825e-04 -5.8256454735308210e-06 0.0000000000000000e+00  -2.4384886954899353e-04 -1.8079480241757493e-07 0.0000000000000000e+00  -2.4627203827797597e-04 1.1467292276794786e-05 0.0000000000000000e+00  0.0000000000000000e+00 0.0000000000000000e+00 0.0000000000000000e+00  -5.4728402195150484e-06 -3.7688527448542414e-07 0.0000000000000000e+00  -1.1221490405093299e-05 -7.7184949771913144e-07 0.0000000000000000e+00  -1.7541223930652121e-05 -1.2040208437607795e-06 0.0000000000000000e+00  -2.4768767640016525e-05 -1.6946978169073146e-06 0.0000000000000000e+00  -3.3307548365825036e-05 -2.2684393279001735e-06 0.0000000000000000e+00  -4.3658287520627865e-05 -2.9539994992688186e-06 0.0000000000000000e+00  -5.6456112835314947e-05 -3.7846618186394351e-06 0.0000000000000000e+00  -7.2513472741347494e-05 -4.7968510785099134e-06 0.0000000000000000e+00  -9.2863052042958723e-05 -6.0243797623885945e-06 0.0000000000000000e+00  -1.1878258432504847e-04 -7.4822990475070110e-06 0.0000000000000000e+00  -1.5175589362450735e-04 -9.1269034372405424e-06 0.0000000000000000e+00  -1.9326715826184688e-04 -1.0762671421387402e-05 0.0000000000000000e+00  -2.4421776462989735e-04 -1.1835774896547258e-05 0.0000000000000000e+00  -3.0358982090667634e-04 -1.1003263691225086e-05 0.0000000000000000e+00  -3.6584727782229705e-04 -5.3348561327313385e-06 0.0000000000000000e+00  -4.1682526924448490e-04 1.0793953086818895e-05 0.0000000000000000e+00  0.0000000000000000e+00 0.0000000000000000e+00 0.0000000000000000e+00  -5.1656166635685337e-06 -3.5572450262517679e-07 0.0000000000000000e+00  -1.0619994325251565e-05 -7.3082493111993952e-07 0.0000000000000000e+00  -1.6676392978794777e-05 -1.1462611172605173e-06 0.0000000000000000e+00  -2.3701785753845845e-05 -1.6264547110022535e-06 0.0000000000000000e+00  -3.2152099075436372e-05 -2.2015017765721692e-06 0.0000000000000000e+00  -4.2618751436502395e-05 -2.9099785974725422e-06 0.0000000000000000e+00  -5.5892117430680746e-05 -3.8024879808106106e-06 0.0000000000000000e+00  -7.3048631206407125e-05 -4.9458285727503874e-06 0.0000000000000000e+00  -9.5567912816527919e-05 -6.4267839265938891e-06 0.0000000000000000e+00  -1.2548066013745482e-04 -8.3518916714472973e-06 0.0000000000000000e+00  -1.6552667421712664e-04 -1.0832056143189807e-05 0.0000000000000000e+00  -2.1923914405205935e-04 -1.3919894953601734e-05 0.0000000000000000e+00  -2.9070632758122154e-04 -1.7409582723124717e-05 0.0000000000000000e+00  -3.8338350799480101e-04 -2.0252733341771699e-05 0.0000000000000000e+00  -4.9667328705402432e-04 -1.8975797093209139e-05 0.0000000000000000e+00  -6.1880388035913956e-04 -4.0375638446111451e-06 0.0000000000000000e+00  0.0000000000000000e+00 0.0000000000000000e+00 0.0000000000000000e+00  -4.5748729649826690e-06 -3.1554014868584627e-07 0.0000000000000000e+00  -9.4269454960535708e-06 -6.5016287211754671e-07 0.0000000000000000e+00  -1.4860052179925636e-05 -1.0248958326221462e-06 0.0000000000000000e+00  -2.1237560516643317e-05 -1.4651464133848944e-06 0.0000000000000000e+00  -2.9023457900544575e-05 -2.0038401392652617e-06 0.0000000000000000e+00  -3.8839672767908364e-05 -2.6859460099088413e-06 0.0000000000000000e+00  -5.1549836206463052e-05 -3.5753080706976190e-06 0.0000000000000000e+00  -6.8384983099683557e-05 -4.7651990482206128e-06 0.0000000000000000e+00  -9.1134570681056175e-05 -6.3947027087979610e-06 0.0000000000000000e+00  -1.2243616141457056e-04 -8.6736712261223879e-06 0.0000000000000000e+00  -1.6620354888984443e-04 -1.1918200109662912e-05 0.0000000000000000e+00  -2.2821124849951857e-04 -1.6590165620543828e-05 0.0000000000000000e+00  -3.1671375398739074e-04 -2.3292265192671916e-05 0.0000000000000000e+00  -4.4242850016289230e-04 -3.2480697043354589e-05 0.0000000000000000e+00  -6.1544534215761837e-04 -4.2816517155018826e-05 0.0000000000000000e+00  -8.3398308605347516e-04 -4.3802196584686516e-05 0.0000000000000000e+00  0.0000000000000000e+00 0.0000000000000000e+00 0.0000000000000000e+00  -3.7126813984540140e-06 -2.5666660248378736e-07 0.0000000000000000e+00  -7.6641944741768743e-06 -5.3016338505498766e-07 0.0000000000000000e+00  -1.2118348941810974e-05 -8.3930452753411522e-07 0.0000000000000000e+00  -1.7395540612931739e-05 -1.2074538021074527e-06 0.0000000000000000e+00  -2.3913240039425639e-05 -1.6660078909968132e-06 0.0000000000000000e+00  -3.2244674515421936e-05 -2.2597577312637093e-06 0.0000000000000000e+00  -4.3208699805710712e-05 -3.0556318721440388e-06 0.0000000000000000e+00  -5.8012838778420038e-05 -4.1575405082224626e-06 0.0000000000000000e+00  -7.8487885725069646e-05 -5.7324216026239776e-06 0.0000000000000000e+00  -1.0748240645931207e-04 -8.0573886383644671e-06 0.0000000000000000e+00  -1.4953863869276800e-04 -1.1607863269661572e-05 0.0000000000000000e+00  -2.1205705186114982e-04 -1.7227994189712807e-05 0.0000000000000000e+00  -3.0724906852561812e-04 -2.6470439145112475e-05 0.0000000000000000e+00  -4.5501418263006597e-04 -4.2271801495880694e-05 0.0000000000000000e+00  -6.8475790391721346e-04 -7.0005035586196348e-05 0.0000000000000000e+00  -1.0160794656884835e-03 -1.1421425626572750e-04 0.0000000000000000e+00  0.0000000000000000e+00 0.0000000000000000e+00 0.0000000000000000e+00  -2.6175156609083615e-06 -1.8136832602092611e-07 0.0000000000000000e+00  -5.4103832038945473e-06 -3.7532194047584791e-07 0.0000000000000000e+00  -8.5733078911980656e-06 -5.9607126181663181e-07 0.0000000000000000e+00  -1.2345233377188039e-05 -8.6159473366731097e-07 0.0000000000000000e+00  -1.7041760473046604e-05 -1.1966364938809742e-06 0.0000000000000000e+00  -2.3103323980622795e-05 -1.6374848963791297e-06 0.0000000000000000e+00  -3.1171280637322507e-05 -2.2400695471248519e-06 0.0000000000000000e+00  -4.2213769940675225e-05 -3.0943012280716861e-06 0.0000000000000000e+00  -5.7742718440995291e-05 -4.3504642922711613e-06 0.0000000000000000e+00  -8.0203987159297845e-05 -6.2697187986698507e-06 0.0000000000000000e+00  -1.1371070462420558e-04 -9.3250974049068057e-06 0.0000000000000000e+00  -1.6548790108632445e-04 -1.4415178918326566e-05 0.0000000000000000e+00  -2.4885527283533909e-04 -2.3354864774603022e-05 0.0000000000000000e+00  -3.8965947028280298e-04 -4.0164716037826732e-05 0.0000000000000000e+00  -6.4085984028764808e-04 -7.5308424255576828e-05 0.0000000000000000e+00  -1.1226977752728567e-03 -1.6551465143530356e-04 0.0000000000000000e+00  0.0000000000000000e+00 0.0000000000000000e+00 0.0000000000000000e+00  -1.3525710379184718e-06 -9.3872720669068969e-08 0.0000000000000000e+00  -2.7977851009251030e-06 -1.9447196943664227e-07 0.0000000000000000e+00  -4.4387898241424177e-06 -3.0943510485052857e-07 0.0000000000000000e+00  -6.4028618527503935e-06 -4.4852317200833778e-07 0.0000000000000000e+00  -8.8593022641861192e-06 -6.2534148050573223e-07 0.0000000000000000e+00  -1.2046367070293093e-05 -8.6012506868584630e-07 0.0000000000000000e+00  -1.6314466509697199e-05 -1.1845307117404465e-06 0.0000000000000000e+00  -2.2199046710080569e-05 -1.6502417923322530e-06 0.0000000000000000e+00  -3.0549549854496456e-05 -2.3449679776269503e-06 0.0000000000000000e+00  -4.2769554431046690e-05 -3.4230916203701475e-06 0.0000000000000000e+00  -6.1290577404713904e-05 -5.1656504073014782e-06 0.0000000000000000e+00  -9.0570226675048342e-05 -8.0978658914956109e-06 0.0000000000000000e+00  -1.3934609061452477e-04 -1.3205793492427187e-05 0.0000000000000000e+00  -2.2601413536242274e-04 -2.2222385912598445e-05 0.0000000000000000e+00  -3.9105720619332234e-04 -3.7190516346374913e-05 0.0000000000000000e+00  -7.1264252938270237e-04 -5.4050722821105744e-05 0.0000000000000000e+00  0.0000000000000000e+00 0.0000000000000000e+00 0.0000000000000000e+00  0.0000000000000000e+00 0.0000000000000000e+00 0.0000000000000000e+00  0.0000000000000000e+00 0.0000000000000000e+00 0.0000000000000000e+00  0.0000000000000000e+00 0.0000000000000000e+00 0.0000000000000000e+00  0.0000000000000000e+00 0.0000000000000000e+00 0.0000000000000000e+00  0.0000000000000000e+00 0.0000000000000000e+00 0.0000