<?xml version="1.0"?>
<VTKFile type="UnstructuredGrid"  version="0.1"  >
<UnstructuredGrid>
<Piece  NumberOfPoints="289" NumberOfCells="512">
<Points>
<DataArray  type="Float64"  NumberOfComponents="3"  format="ascii">0 0 0  0.0625 0 0  0.125 0 0  0.1875 0 0  0.25 0 0  0.3125 0 0  0.375 0 0  0.4375 0 0  0.5 0 0  0.5625 0 0  0.625 0 0  0.6875 0 0  0.75 0 0  0.8125 0 0  0.875 0 0  0.9375 0 0  1 0 0  0 0.0625 0  0.06248756567878087 0.06247027984526603 0  0.1249752100297857 0.06244003446052842 0  0.1874630389886905 0.0624087766749509 0  0.2499513221867903 0.06237613002861006 0  0.3124406073117696 0.06234190030095221 0  0.3749318836863165 0.06230616501334369 0  0.4374268272213202 0.06226938185366191 0  0.4999281814485543 0.0622325094734831 0  0.5624403769315611 0.06219712051190784 0  0.6249705985564861 0.06216546442824442 0  0.68753076777934 0.06214040593212455 0  0.7501415589141707 0.06212513104791441 0  0.8128412602080058 0.06212251661230167 0  0.8757065380326277 0.06213427187968124 0  0.9389009007205883 0.06216131127538897 0  1.002765883643624 0.06221758195061121 0  0 0.125 0  0.06247505383608553 0.1249410577851227 0  0.1249502038519367 0.124881008729071 0  0.1874256011702861 0.1248188162644279 0  0.2499017138108439 0.1247536522080458 0  0.3123795502533406 0.1246850356728824 0  0.3748609804769322 0.1246130123679591 0  0.4373492152211743 0.1245383803487245 0  0.4998495413225301 0.1244629557356505 0  0.5623704820550222 0.1243898473107616 0  0.6249256913167883 0.1243236653238234 0  0.6875371671169421 0.1242705210701854 0  0.7502408896473949 0.1242375843691653 0  0.8130968003763466 0.1242319066350361 0  0.8762055636479267 0.1242583957337779 0  0.9397318971218405 0.1243178297667849 0  1.003926772737113 0.1244070613239292 0  0 0.1875 0  0.06246252159912258 0.1874129301001576 0  0.1249250218062071 0.1873240698301688 0  0.1873875543394697 0.187231719009998 0  0.2498506033601277 0.1871344552635528 0  0.312315390407491 0.1870313292564081 0  0.3747843165260352 0.1869221293251082 0  0.4372616173344644 0.1868077341718294 0  0.4997543451578766 0.1866905602544274 0  0.5622738496600002 0.1865750821408229 0  0.6248380135747378 0.1864683454835362 0  0.6874746048624977 0.1863802800018206 0  0.7502261473550464 0.1863234097984975 0  0.8131563477127399 0.1863111383797256 0  0.8763563698086486 0.1863527668059654 0  0.9399444810045801 0.1864402709297798 0  1.004046699139658 0.1865112157081847 0  0 0.25 0  0.06245015886663458 0.2498865931744715 0  0.1248999890015036 0.2497705795752665 0  0.1873492427425557 0.2496494429889203 0  0.2497981526542121 0.2495209682845812 0  0.3122477809024025 0.2493834712099289 0  0.3747005280060737 0.2492361317700782 0  0.4371608862918036 0.2490794714419245 0  0.4996365514626365 0.2489160117632243 0  0.5621400352164145 0.2487511341477815 0  0.6246909334771468 0.2485941098656322 0  0.6873189425280501 0.2484591512013555 0  0.7500674376748292 0.248366089101869 0  0.8129966361127006 0.2483398047648825 0  0.8761836229839501 0.2484066910307723 0  0.9397139176939244 0.2485852937468191 0  1.003658574809266 0.2488691652007652 0  0 0.3125 0  0.0624383240619706 0.312362872481848 0  0.1248757983319748 0.3122221811167699 0  0.1873116411986809 0.3120744261173146 0  0.2497455209361423 0.3119163667555243 0  0.312177897630566 0.3117452494410603 0  0.3746105365404065 0.3115591723396065 0  0.4370472840375914 0.3113576551431759 0  0.4994952224952083 0.3111424994995133 0  0.5619663368143384 0.3109190375330222 0  0.6244798021581933 0.3106978554373797 0  0.6870648743078794 0.3104970080073368 0  0.7497640153466693 0.3103445330257381 0  0.8126351852514564 0.3102806069333299 0  0.8757512591678037 0.3103578182824928 0  0.9391943662020463 0.3106368508278169 0  1.003047143636063 0.3111741951051208 0  0 0.375 0  0.06242755066283022 0.374842728264043 0  0.1248535313210291 0.3746808189715088 0  0.1872764058887738 0.374509639570075 0  0.2496949698682678 0.3743246928750639 0  0.3121086299688963 0.3741217911898835 0  0.3745178554398501 0.3738973871262865 0  0.4369249019848749 0.3736491578145166 0  0.4993349463423312 0.3733769839544357 0  0.5617578053763884 0.3730845253789891 0  0.624210420635803 0.3727816626762962 0  0.6867202096068712 0.3724881175880374 0  0.7493291248949127 0.3722384938812374 0  0.8120977474898935 0.3720886001675944 0  0.8751081459793822 0.3721219110298204 0  0.9384645550243977 0.3724531461545199 0  1.002294660322054 0.373223608476749 0  0 0.4375 0  0.06241852156762406 0.437327229658928 0  0.1248346100718069 0.4371486940712641 0  0.1872458104440205 0.4369585398850233 0  0.2496497945838226 0.4367508366725428 0  0.31204452121747 0.4365196324377224 0  0.3744285509041429 0.4362591585539107 0  0.4368016287754629 0.4359642967924856 0  0.4991657136328017 0.4356314949792828 0  0.5615267259601493 0.4352604368876047 0  0.623897401667198 0.4348569525309104 0  0.6863017342997709 0.4344378979982631 0  0.7487814675198063 0.4340389734174013 0  0.8114047954655684 0.4337264295097826 0  0.8742767387814122 0.4336127183772037 0  0.9375501081165026 0.4338734758719821 0  1.001437986554798 0.4347589652219077 0  0 0.5 0  0.062412012062506 0.4998174910813791 0  0.1248206810798592 0.4996281385393807 0  0.1872225672406928 0.4994248888839904 0  0.2496140805168166 0.4992003200031279 0  0.3119914646701923 0.4989465115265845 0  0.3743508920911686 0.4986550169490229 0  0.4366887840615467 0.4983170397959839 0  0.4990025746686079 0.4979240075680733 0  0.5612923195845064 0.4974689049157948 0  0.6235638523365241 0.4969490282208373 0  0.6858346321343232 0.4963713391704923 0  0.7481439345191122 0.4957623926403313 0  0.8105692715851227 0.4951857575784117 0  0.8732501244812604 0.4947700345441344 0  0.9364175462078068 0.4947474653236152 0  1.000426725808212 0.4954936319707717 0  0 0.5625 0  0.06240880548028384 0.5623145694777095 0  0.1248134380121548 0.5621214043060717 0  0.1872095418242713 0.5619124236714937 0  0.2495922910977642 0.5616788395357926 0  0.3119561527410246 0.5614107909614467 0  0.3742946761719297 0.5610969877164971 0  0.4366003975296344 0.5607244176802016 0  0.4988650750185653 0.5602782539673974 0  0.5610807433892219 0.5597422698509074 0  0.6232426137472639 0.5591004324162361 0  0.6853558293280302 0.558341103433047 0  0.7474496560158942 0.557466806883359 0  0.8096045295464128 0.5565153356417799 0  0.8719977452309736 0.5556018425666732 0  0.9349683582755195 0.554992062605091 0  0.9990880624157573 0.555202228130771 0  0 0.625 0  0.06240958904552443 0.6248193287849977 0  0.1248143973670611 0.6246303761003235 0  0.1872093776021594 0.6244243859541789 0  0.2495886985587987 0.6241915643411948 0  0.3119452685323144 0.6239204633666584 0  0.3742701599033172 0.6235972483740195 0  0.4365519474397339 0.6232048179714508 0  0.4987760838287893 0.6227217797610208 0  0.5609247290522276 0.6221213833768441 0  0.6229781619237063 0.621370785789184 0  0.6849205035928676 0.6204317598439782 0  0.7467557534581816 0.6192659179959945 0  0.808545773765681 0.617852604837007 0  0.8704880618319566 0.6162393832610822 0  0.9330475899425478 0.6146618468706745 0  0.9971324880000022 0.6137510047762508 0  0 0.6875 0  0.06241484136944716 0.6873322874810355 0  0.1248246499768988 0.6871562408962605 0  0.1872240635724532 0.6869629586827724 0  0.2496066924178467 0.6867422483261726 0  0.3119644321601913 0.686481800390534 0  0.3742865292952274 0.6861661143820418 0  0.4365582872803006 0.6857750440040061 0  0.4987593219695129 0.6852817830032725 0  0.5608614370508995 0.6846500602434776 0  0.6228267907177224 0.6838302961373521 0  0.6846088476433455 0.6827546763675915 0  0.7461635539786611 0.6813322681822533 0  0.8074901466269121 0.6794503850433229 0  0.8687442499898639 0.6770086874995701 0  0.9304791098813852 0.6740829447210901 0  0.9940146857726326 0.6713536051929394 0  0 0.75 0  0.06242472748832464 0.7498534741600152 0  0.1248446227993736 0.7496991674497885 0  0.1872545019399532 0.7495287000385149 0  0.2496480459450532 0.7493322952783295 0  0.3120169928933672 0.7490978428775598 0  0.3743499561941142 0.7488096181829853 0  0.4366306167884662 0.7484464409713444 0  0.4988349017974977 0.7479789338834866 0  0.5609266030808663 0.7473653240857168 0  0.622850874342485 0.7465448404033221 0  0.6845258892982037 0.7454270406240403 0  0.7458372217071465 0.7438741899438805 0  0.8066557520369937 0.7416727584493086 0  0.8669541910232361 0.7384973221994249 0  0.9272447048250243 0.7339538319481426 0  0.9891243640206772 0.7286107971426887 0  0 0.8125 0  0.0624390209944031 0.8123823213915914 0  0.1248738963574717 0.8122580635492384 0  0.1873001596570748 0.8121200955645691 0  0.2497122833560354 0.8119599788768957 0  0.3121028920955692 0.8117670636521762 0  0.3744615566186205 0.8115272169713283 0  0.4367728279847728 0.8112209366629366 0  0.4990128885635263 0.8108204499324189 0  0.5611436518083471 0.8102851120755261 0  0.6231021360523956 0.8095538618660043 0  0.6847812994613675 0.8085322601598575 0  0.7459969950281428 0.8070685591829728 0  0.8064406165194818 0.804904788402348 0  0.8656637612642653 0.8015651852107696 0  0.9234358959095109 0.7960828999206673 0  0.983353281844396 0.7862857612254912 0  0 0.875 0  0.06245707328791823 0.8749176266962626 0  0.1249111268893754 0.8748304773693389 0  0.187358903205182 0.8747333525133462 0  0.2497963393320289 0.8746200383847713 0  0.3122179581527405 0.8744825934693754 0  0.3746159111908547 0.8743103281976321 0  0.4369783622335995 0.8740882706438782 0  0.4992865893875011 0.8737947860486669 0  0.5615094871842501 0.8733978104929708 0  0.6235925363918012 0.872848814640822 0  0.6854344586519574 0.8720729838916756 0  0.7468354914252783 0.8709524798217855 0  0.8073793633752573 0.8692930783834072 0  0.8661640756191658 0.8667324934024067 0  0.9212212633281871 0.8624014818749356 0  0.9684939543565105 0.8535733468796232 0  0 0.9375 0  0.0624778446664219 0.9374575999223813 0  0.1249541108935179 0.9374126888417212 0  0.1874270988916412 0.9373625261577527 0  0.2498946877839884 0.9373038181754908 0  0.3123540180275103 0.9372323253322928 0  0.3748009912123731 0.9371422963296405 0  0.43722941947
[...]
<PointData  Vectors="f_54"> 
<DataArray  type="Float64"  Name="f_54"  NumberOfComponents="3" format="ascii">0.0000000000000000e+00 0.0000000000000000e+00 0.0000000000000000e+00  0.0000000000000000e+00 0.0000000000000000e+00 0.0000000000000000e+00  0.0000000000000000e+00 0.0000000000000000e+00 0.0000000000000000e+00  0.0000000000000000e+00 0.0000000000000000e+00 0.0000000000000000e+00  0.0000000000000000e+00 0.0000000000000000e+00 0.0000000000000000e+00  0.0000000000000000e+00 0.0000000000000000e+00 0.0000000000000000e+00  0.0000000000000000e+00 0.0000000000000000e+00 0.0000000000000000e+00  0.0000000000000000e+00 0.0000000000000000e+00 0.0000000000000000e+00  0.0000000000000000e+00 0.0000000000000000e+00 0.0000000000000000e+00  0.0000000000000000e+00 0.0000000000000000e+00 0.0000000000000000e+00  0.0000000000000000e+00 0.0000000000000000e+00 0.0000000000000000e+00  0.0000000000000000e+00 0.0000000000000000e+00 0.0000000000000000e+00  0.0000000000000000e+00 0.0000000000000000e+00 0.0000000000000000e+00  0.0000000000000000e+00 0.0000000000000000e+00 0.0000000000000000e+00  0.0000000000000000e+00 0.0000000000000000e+00 0.0000000000000000e+00  0.0000000000000000e+00 0.0000000000000000e+00 0.0000000000000000e+00  0.0000000000000000e+00 0.0000000000000000e+00 0.0000000000000000e+00  0.0000000000000000e+00 0.0000000000000000e+00 0.0000000000000000e+00  3.0592212515985185e-06 1.6227858943987597e-07 0.0000000000000000e+00  6.1795042465459917e-06 3.2664640325667958e-07 0.0000000000000000e+00  9.4202802565245724e-06 4.9493968676146619e-07 0.0000000000000000e+00  1.2831486017500081e-05 6.6815041238479989e-07 0.0000000000000000e+00  1.6446927465388382e-05 8.4589999066495410e-07 0.0000000000000000e+00  2.0275099882835382e-05 1.0257985119649823e-06 0.0000000000000000e+00  2.4286366037047631e-05 1.2026893420641721e-06 0.0000000000000000e+00  2.8395056650809313e-05 1.3678283108839075e-06 0.0000000000000000e+00  3.2434279364679794e-05 1.5081253915187745e-06 0.0000000000000000e+00  3.6119193327639898e-05 1.6056853283144619e-06 0.0000000000000000e+00  3.8988850545563525e-05 1.6380090120761611e-06 0.0000000000000000e+00  4.0300179136422449e-05 1.5793428970223203e-06 0.0000000000000000e+00  3.8796752800605258e-05 1.4038857839835067e-06 0.0000000000000000e+00  3.2107224215423317e-05 1.0926987454981445e-06 0.0000000000000000e+00  1.4931444100027403e-05 6.5260690370682089e-07 0.0000000000000000e+00  -2.7137053543309927e-05 1.8889434255034491e-07 0.0000000000000000e+00  0.0000000000000000e+00 0.0000000000000000e+00 0.0000000000000000e+00  6.0532494881976211e-06 3.2224800866851354e-07 0.0000000000000000e+00  1.2233021342342669e-05 6.4907523315981395e-07 0.0000000000000000e+00  1.8663126512671071e-05 9.8459094216634820e-07 0.0000000000000000e+00  2.5450032186907411e-05 1.3313041724395082e-06 0.0000000000000000e+00  3.2670545544343862e-05 1.6891002775033981e-06 0.0000000000000000e+00  4.0354590069171944e-05 2.0539609452872228e-06 0.0000000000000000e+00  4.8461029015298182e-05 2.4164040751279138e-06 0.0000000000000000e+00  5.6844054085256971e-05 2.7597092903134476e-06 0.0000000000000000e+00  6.5206816273470554e-05 3.0581474356933297e-06 0.0000000000000000e+00  7.3037054381576091e-05 3.2756558418966662e-06 0.0000000000000000e+00  7.9514775592750504e-05 3.3656590412361538e-06 0.0000000000000000e+00  8.3370745245252252e-05 3.2728819716565221e-06 0.0000000000000000e+00  8.2649673180207203e-05 2.9376491044214648e-06 0.0000000000000000e+00  7.4289162938913900e-05 2.3012338434803483e-06 0.0000000000000000e+00  5.3420880207625367e-05 1.3033288174389686e-06 0.0000000000000000e+00  1.2828746603505766e-05 -1.7062193104052927e-07 0.0000000000000000e+00  0.0000000000000000e+00 0.0000000000000000e+00 0.0000000000000000e+00  8.9139646202387469e-06 4.7727288154246209e-07 0.0000000000000000e+00  1.8027965295912066e-05 9.6237136960472022e-07 0.0000000000000000e+00  2.7539272055631609e-05 1.4625088079876168e-06 0.0000000000000000e+00  3.7623099652365951e-05 1.9827290585563971e-06 0.0000000000000000e+00  4.8416404988049659e-05 2.5244562435994934e-06 0.0000000000000000e+00  5.9994683085025699e-05 3.0835996595993890e-06 0.0000000000000000e+00  7.2338914818851705e-05 3.6481219911536163e-06 0.0000000000000000e+00  8.5289473631546651e-05 4.1950861087766689e-06 0.0000000000000000e+00  9.8483455324157324e-05 4.6874097211967024e-06 0.0000000000000000e+00  1.1127151896726154e-04 5.0709244001504267e-06 0.0000000000000000e+00  1.2260983485799093e-04 5.2728653324566176e-06 0.0000000000000000e+00  1.3092254463887944e-04 5.2034931455613561e-06 0.0000000000000000e+00  1.3393407238471760e-04 4.7627734246019970e-06 0.0000000000000000e+00  1.2849711566639401e-04 3.8531030935550248e-06 0.0000000000000000e+00  1.1055813966344468e-04 2.3961557740087392e-06 0.0000000000000000e+00  7.5784038501006804e-05 3.5068807097941177e-07 0.0000000000000000e+00  0.0000000000000000e+00 0.0000000000000000e+00 0.0000000000000000e+00  1.1565652959209971e-05 6.2398059202224910e-07 0.0000000000000000e+00  2.3415019301358951e-05 1.2600477417213001e-06 0.0000000000000000e+00  3.5830404092185610e-05 1.9196521507699901e-06 0.0000000000000000e+00  4.9071795426879099e-05 2.6118109471133992e-06 0.0000000000000000e+00  6.3359303624108509e-05 3.3413672022691076e-06 0.0000000000000000e+00  7.8846814798630703e-05 4.1065704948584379e-06 0.0000000000000000e+00  9.5583211168224369e-05 4.8957549219539912e-06 0.0000000000000000e+00  1.1345717341093455e-04 5.6829685654815211e-06 0.0000000000000000e+00  1.3212165516525396e-04 6.4226323709150967e-06 0.0000000000000000e+00  1.5089514345894840e-04 7.0438013981944097e-06 0.0000000000000000e+00  1.6863976923999567e-04 7.4455222761043596e-06 0.0000000000000000e+00  1.8362326393239802e-04 7.4962266605643544e-06 0.0000000000000000e+00  1.9338768544760267e-04 7.0418822715593992e-06 0.0000000000000000e+00  1.9468525430694974e-04 5.9287921974849080e-06 0.0000000000000000e+00  1.8362593831276527e-04 4.0448842256183144e-06 0.0000000000000000e+00  1.5633090880173131e-04 1.3711890345263809e-06 0.0000000000000000e+00  0.0000000000000000e+00 0.0000000000000000e+00 0.0000000000000000e+00  1.3923158173072568e-05 7.5801642657771433e-07 0.0000000000000000e+00  2.8223792291955957e-05 1.5334979054478703e-06 0.0000000000000000e+00  4.3281013227247369e-05 2.3434150146392658e-06 0.0000000000000000e+00  5.9456867706508284e-05 3.2024787790944832e-06 0.0000000000000000e+00  7.7080604335980917e-05 4.1213424091009331e-06 0.0000000000000000e+00  9.6422788178805824e-05 5.1038770697844458e-06 0.0000000000000000e+00  1.1765468604837005e-04 6.1430985947251350e-06 0.0000000000000000e+00  1.4078766081973849e-04 7.2152880717721220e-06 0.0000000000000000e+00  1.6558717459629253e-04 8.2719544944457156e-06 0.0000000000000000e+00  1.9145728880277794e-04 9.2297512082818631e-06 0.0000000000000000e+00  2.1729575569742651e-04 9.9596783450591748e-06 0.0000000000000000e+00  2.4132923039879543e-04 1.0279474300374610e-05 0.0000000000000000e+00  2.6095601582041178e-04 9.9575880585475321e-06 0.0000000000000000e+00  2.7265367131056088e-04 8.7432565467868668e-06 0.0000000000000000e+00  2.7205084850436218e-04 6.4421687800996743e-06 0.0000000000000000e+00  2.5429622839503839e-04 3.0540717263516083e-06 0.0000000000000000e+00  0.0000000000000000e+00 0.0000000000000000e+00 0.0000000000000000e+00  1.5892211322025393e-05 8.7395575359467920e-07 0.0000000000000000e+00  3.2262961875784179e-05 1.7717591443131554e-06 0.0000000000000000e+00  4.9597289805685519e-05 2.7171079744578164e-06 0.0000000000000000e+00  6.8374639188162814e-05 3.7321754519127449e-06 0.0000000000000000e+00  8.9058720595930284e-05 4.8361032439134735e-06 0.0000000000000000e+00  1.1207657168805168e-04 6.0423863811140924e-06 0.0000000000000000e+00  1.3778121307210628e-04 7.3544911861393899e-06 0.0000000000000000e+00  1.6639075759044305e-04 8.7587959620252215e-06 0.0000000000000000e+00  1.9789554589920742e-04 1.0213710800910486e-05 0.0000000000000000e+00  2.3192487776154178e-04 1.1633867521139286e-05 0.0000000000000000e+00  2.6756808344164973e-04 1.2869209841011019e-05 0.0000000000000000e+00  3.0315386267590030e-04 1.3681994200853134e-05 0.0000000000000000e+00  3.3600968539080500e-04 1.3732323955425433e-05 0.0000000000000000e+00  3.6224789243293414e-04 1.2596953116326570e-05 0.0000000000000000e+00  3.7664122889403620e-04 9.8647860858213486e-06 0.0000000000000000e+00  3.7261582243743946e-04 5.3633678506947841e-06 0.0000000000000000e+00  0.0000000000000000e+00 0.0000000000000000e+00 0.0000000000000000e+00  1.7372414787898946e-05 9.6543227997892126e-07 0.0000000000000000e+00  3.5325920430963955e-05 1.9617167394934908e-06 0.0000000000000000e+00  5.4454739965153297e-05 3.0201164836306781e-06 0.0000000000000000e+00  7.5365318475470734e-05 4.1717317536549298e-06 0.0000000000000000e+00  9.8675963827715826e-05 5.4467395881667239e-06 0.0000000000000000e+00  1.2500629528752622e-04 6.8725290685941960e-06 0.0000000000000000e+00  1.5495005501326648e-04 8.4698917864111503e-06 0.0000000000000000e+00  1.8902196359625825e-04 1.0245881264179372e-05 0.0000000000000000e+00  2.2756584311879231e-04 1.2181136093627350e-05 0.0000000000000000e+00  2.7060810269538164e-04 1.4208444045913931e-05 0.0000000000000000e+00  3.1764020234119485e-04 1.6178674580270824e-05 0.0000000000000000e+00  3.6732037845670323e-04 1.7811826418194138e-05 0.0000000000000000e+00  4.1710467910730089e-04 1.8639479439641093e-05 0.0000000000000000e+00  4.6285037322057885e-04 1.7968445726560609e-05 0.0000000000000000e+00  4.9845294473267038e-04 1.4939754524866551e-05 0.0000000000000000e+00  5.1549254856382315e-04 8.8089336147394231e-06 0.0000000000000000e+00  0.0000000000000000e+00 0.0000000000000000e+00 0.0000000000000000e+00  1.8263139251234470e-05 1.0255304337682929e-06 0.0000000000000000e+00  3.7202553201969789e-05 2.0888672311491179e-06 0.0000000000000000e+00  5.7515730411598162e-05 3.2289706566153531e-06 0.0000000000000000e+00  7.9935780338858932e-05 4.4865726734281724e-06 0.0000000000000000e+00  1.0524506980935243e-04 5.9046561862599405e-06 0.0000000000000000e+00  1.3428124200697068e-04 7.5281508254593544e-06 0.0000000000000000e+00  1.6792908130271823e-04 9.4020285007046945e-06 0.0000000000000000e+00  2.0708725081717671e-04 1.1566194648604707e-05 0.0000000000000000e+00  2.5259244350240412e-04 1.4044092446984632e-05 0.0000000000000000e+00  3.0507515254419708e-04 1.6819325660761588e-05 0.0000000000000000e+00  3.6471323918082685e-04 1.9790544712178478e-05 0.0000000000000000e+00  4.3084853943860740e-04 2.2690325594240589e-05 0.0000000000000000e+00  5.0145258002384091e-04 2.4954699274350323e-05 0.0000000000000000e+00  5.7248840718938921e-04 2.5554085716238255e-05 0.0000000000000000e+00  6.3729688834351212e-04 2.2873600318175838e-05 0.0000000000000000e+00  6.8605750159161439e-04 1.4858251599711506e-05 0.0000000000000000e+00  0.0000000000000000e+00 0.0000000000000000e+00 0.0000000000000000e+00  1.8472278144136604e-05 1.0474577514251384e-06 0.0000000000000000e+00  3.7697189440998141e-05 2.1386991946913879e-06 0.0000000000000000e+00  5.8457415003931915e-05 3.3194901608235579e-06 0.0000000000000000e+00  8.1598218808149375e-05 4.6396455023132528e-06 0.0000000000000000e+00  1.0805859136916107e-04 6.1551362695680253e-06 0.0000000000000000e+00  1.3889997754531081e-04 7.9301167635919579e-06 0.0000000000000000e+00  1.7532749542600867e-04 1.0038439876333847e-05 0.0000000000000000e+00  2.1869292485710931e-04 1.2563489921939714e-05 0.0000000000000000e+00  2.7045907879879189e-04 1.5593437898170451e-05 0.0000000000000000e+00  3.3208985528286584e-04 1.9205121343646618e-05 0.0000000000000000e+00  4.0480919193197943e-04 2.3421380753440886e-05 0.0000000000000000e+00  4.8915171839802830e-04 2.8110515368706577e-05 0.0000000000000000e+00  5.8423343202269851e-04 3.2772051887018137e-05 0.0000000000000000e+00  6.8676632167964896e-04 3.6140911749920046e-05 0.0000000000000000e+00  7.9011180982387953e-04 3.5625201208356900e-05 0.0000000000000000e+00  8.8403944463621596e-04 2.6864962724036717e-05 0.0000000000000000e+00  0.0000000000000000e+00 0.0000000000000000e+00 0.0000000000000000e+00  1.7927359901096877e-05 1.0254558469167254e-06 0.0000000000000000e+00  3.6651886625383482e-05 2.0986298004099942e-06 0.0000000000000000e+00  5.7009223250833533e-05 3.2699779671304662e-06 0.0000000000000000e+00  7.9924578786721962e-05 4.5962081740307477e-06 0.0000000000000000e+00  1.0646305966847876e-04 6.1441043220661418e-06 0.0000000000000000e+00  1.3788562861663761e-04 7.9952537615648031e-06 0.0000000000000000e+00  1.7570937719955140e-04 1.0252023282904443e-05 0.0000000000000000e+00  2.2176535135462643e-04 1.3044950155707828e-05 0.0000000000000000e+00  2.7823582647239030e-04 1.6540837786754793e-05 0.0000000000000000e+00  3.4763096244863146e-04 2.0947739491508994e-05 0.0000000000000000e+00  4.3262596150292352e-04 2.6503393574700351e-05 0.0000000000000000e+00  5.3562113963953422e-04 3.3406596635489276e-05 0.0000000000000000e+00  6.5782911055175283e-04 4.1583132288799935e-05 0.0000000000000000e+00  7.9774733560712284e-04 5.0044767896850033e-05 0.0000000000000000e+00  9.4935198634842413e-04 5.5520440657995082e-05 0.0000000000000000e+00  1.1010698258855931e-03 5.0422508264481453e-05 0.0000000000000000e+00  0.0000000000000000e+00 0.0000000000000000e+00 0.0000000000000000e+00  1.6587946559420030e-05 9.5583279214563585e-07 0.0000000000000000e+00  3.3972998929180950e-05 1.9602622257964543e-06 0.0000000000000000e+00  5.2997147137350963e-05 3.0651208239776614e-06 0.0000000000000000e+00  7.4613942114678140e-05 4.3300906509401066e-06 0.0000000000000000e+00  9.9956467375179116e-05 5.8278699352149130e-06 0.0000000000000000e+00  1.3042106011266675e-04 7.6511786212299457e-06 0.0000000000000000e+00  1.6777192266594575e-04 9.9228635051398244e-06 0.0000000000000000e+00  2.1426909114228941e-04 1.2811181638717115e-05 0.0000000000000000e+00  2.7281343448271435e-04 1.6553642115086311e-05 0.0000000000000000e+00  3.4707932243855711e-04 2.1494194805776329e-05 0.0000000000000000e+00  4.4155245139628093e-04 2.8137066054345806e-05 0.0000000000000000e+00  5.6128056250586203e-04 3.7202472141694299e-05 0.0000000000000000e+00  7.1095208336613403e-04 4.9582604163305966e-05 0.0000000000000000e+00  8.9272065418191291e-04 6.5767400290362308e-05 0.0000000000000000e+00  1.1028771256876753e-03 8.3427737608639545e-05 0.0000000000000000e+00  1.3312121190391173e-03 9.4296816635909157e-05 0.0000000000000000e+00  0.0000000000000000e+00 0.0000000000000000e+00 0.0000000000000000e+00  1.4457612376625524e-05 8.3792742366231180e-07 0.0000000000000000e+00  2.9657543320622116e-05 1.7215485473928528e-06 0.0000000000000000e+00  4.6389503910356488e-05 2.6998805709759673e-06 0.0000000000000000e+00  6.5565927073911521e-05 3.8303087151664258e-06 0.0000000000000000e+00  8.8301535229873125e-05 5.1842494362455824e-06 0.0000000000000000e+00  1.1601863861474405e-04 6.8550860756281294e-06 0.0000000000000000e+00  1.5059155678043493e-04 8.9701343077723525e-06 0.0000000000000000e+00  1.9454691135366360e-04 1.1709997214469415e-05 0.0000000000000000e+00  2.5133728380825763e-04 1.5342261333902574e-05 0.0000000000000000e+00  3.2569520810226489e-04 2.0284545190426486e-05 0.0000000000000000e+00  4.2402920646915983e-04 2.7229055774904287e-05 0.0000000000000000e+00  5.5468540843152110e-04 3.7391272412173407e-05 0.0000000000000000e+00  7.2753506769471319e-04 5.2966864145847003e-05 0.0000000000000000e+00  9.5149516585211189e-04 7.7671070143084872e-05 0.0000000000000000e+00  1.2271806107600463e-03 1.1502559846478344e-04 0.0000000000000000e+00  1.5476217485269309e-03 1.4086730288387242e-04 0.0000000000000000e+00  0.0000000000000000e+00 0.0000000000000000e+00 0.0000000000000000e+00  1.1593248598349657e-05 6.7478153421345835e-07 0.0000000000000000e+00  2.3814511049537635e-05 1.3883387483301619e-06 0.0000000000000000e+00  3.7336098908764252e-05 2.1823935444487186e-06 0.0000000000000000e+00  5.2948055462022238e-05 3.1062583518165072e-06 0.0000000000000000e+00  7.1638369460356766e-05 4.2219259884684075e-06 0.0000000000000000e+00  9.4705092729533344e-05 5.6110821958091734e-06 0.0000000000000000e+00  1.2392098835672453e-04 7.3853628895753539e-06 0.0000000000000000e+00  1.6178260381463638e-04 9.7023453584378159e-06 0.0000000000000000e+00  2.1189243928169642e-04 1.2792876453862818e-05 0.0000000000000000e+00  2.7954342398442406e-04 1.7014520263827848e-05 0.0000000000000000e+00  3.7258431379722672e-04 2.2974128664714785e-05 0.0000000000000000e+00  5.0258119741214316e-04 3.1848638344774572e-05 0.0000000000000000e+00  6.8594328977855722e-04 4.6285129433248605e-05 0.0000000000000000e+00  9.4336631348173022e-04 7.2972416735209457e-05 0.0000000000000000e+00  1.2908280913597079e-03 1.3033291950013278e-04 0.0000000000000000e+00  1.6736957802231159e-03 2.8440248648295429e-04 0.0000000000000000e+00  0.0000000000000000e+00 0.0000000000000000e+00 0.0000000000000000e+00  8.1092154120675812e-06 4.7333082486144435e-07 0.0000000000000000e+00  1.6675511016910244e-05 9.7485873334968579e-07 0.0000000000000000e+00  2.6190683745602747e-05 1.5349519207828369e-06 0.0000000000000000e+00  3.7240286352168712e-05 2.1896423598044168e-06 0.0000000000000000e+00  5.0569974129471846e-05 2.9842723592814451e-06 0.0000000000000000e+00  6.7182105894175341e-05 3.9781646454720606e-06 0.0000000000000000e+00  8.8484974003768930e-05 5.2504739015815610e-06 0.0000000000000000e+00  1.1653339444417177e-04 6.9067303082541155e-06 0.0000000000000000e+00  1.5442971119267404e-04 9.0837840470141950e-06 0.0000000000000000e+00  2.0700990922013532e-04 1.1947035331639725e-05 0.0000000000000000e+00  2.8203788736963004e-04 1.5669956065906756e-05 0.0000000000000000e+00  3.9228690104253615e-04 2.0404829310646891e-05 0.0000000000000000e+00  5.5905813953575521e-04 2.6416915068311895e-05 0.0000000000000000e+00  8.1752684373737495e-04 3.5316866209464046e-05 0.0000000000000000e+00  1.2221760130051889e-03 5.5757394369519241e-05 0.0000000000000000e+00  1.8410832936023771e-03 1.2086007957480113e-04 0.0000000000000000e+00  0.0000000000000000e+00 0.0000000000000000e+00 0.0000000000000000e+00  4.1742281221462325e-06 2.4403402557713637e-07 0.0000000000000000e+00  8.5896586638120384e-06 5.0291765374544370e-07 0.0000000000000000e+00  1.3506702528257887e-05 7.9264303508471397e-07 0.0000000000000000e+00  1.9238090371934939e-05 1.1321973449309022e-06 0.0000000000000000e+00  2.6186836691567639e-05 1.5453925211069112e-06 0.0000000000000000e+00  3.4903009038518809e-05 2.0629515851324794e-06 0.0000000000000000e+00  4.6174361072387317e-05 2.7242909917199102e-06 0.0000000000000000e+00  6.1178531576514729e-05 3.5766398405124874e-06 0.0000000000000000e+00  8.1749880205214955e-05 4.6632785049132555e-06 0.0000000000000000e+00  1.1086483958088190e-04 5.9737056361000250e-06 0.0000000000000000e+00  1.5354597218473359e-04 7.2669777360829582e-06 0.0000000000000000e+00  2.1852560068722664e-04 7.4822376479626656e-06 0.0000000000000000e+00  3.2094346638349722e-04 2.8630918292202790e-06 0.0000000000000000e+00  4.8431556336344945e-04 -1.8356376795847682e-05 0.0000000000000000e+00  7.2858405470487496e-04 -8.5611126733421613e-05 0.0000000000000000e+00  1.0092643957154545e-03 -2.3208497543000887e-04 0.0000000000000000e+00  0.0000000000000000e+00 0.0000000000000000e+00 0.0000000000000000e+00  0.0000000000000000e+00 0.0000000000000000e+00 0.0000000000000000e+00  0.0000000000000000e+00 0.0000000000000000e+00 0.0000000000000000e+00  0.0000000000000000e+00 0.0000000000000000e+00 0.0000000000000000e+00  0.0000000000000000e+00 0.0000000000000000e+00 0.0000000000000000e+00  0.0000000000000000e+00 0.0000000000000000e+00 0.0000000000000000e+00  0.0000000000000000e+00 0.0000000000000000e+00 0.0000000000000000e+00  0.0000000000000000e+00 0.0000000000000000e+00 0.0000000000000000e+00  0.0000000000000000e+00 0.0000000000000000e+00 0.0000000000000000e+00  0.0000000000000000e+00 0.0000000000000000e+00 0.0000000000000000e+00  0.0000000000000000e+00 0.0000000000000000e+00 0.0000000000000000e+00  0.0000000000000000e+00 0.0000000000000000e+00 0.0000000000000000e+00  0.00000