<?xml version="1.0"?>
<VTKFile type="UnstructuredGrid"  version="0.1"  >
<UnstructuredGrid>
<Piece  NumberOfPoints="289" NumberOfCells="512">
<Points>
<DataArray  type="Float64"  NumberOfComponents="3"  format="ascii">0 0 0  0.0625 0 0  0.125 0 0  0.1875 0 0  0.25 0 0  0.3125 0 0  0.375 0 0  0.4375 0 0  0.5 0 0  0.5625 0 0  0.625 0 0  0.6875 0 0  0.75 0 0  0.8125 0 0  0.875 0 0  0.9375 0 0  1 0 0  0 0.0625 0  0.06252202220523564 0.06249396752027625 0  0.1250444045304414 0.0624878310454093 0  0.1875674623728365 0.06248149691543244 0  0.25009140643675 0.06247489459639891 0  0.3126162691855362 0.06246799142810693 0  0.3751418034785667 0.06246081066281257 0  0.4376673397469079 0.06245345261775748 0  0.5001915817828957 0.06244611692970597 0  0.5627123065427445 0.06243912058644011 0  0.6252258947775671 0.06243290090540209 0  0.6877265088886347 0.06242798437897963 0  0.7502043949679977 0.06242489197265608 0  0.81264166052727 0.06242394473445616 0  0.8749998234184007 0.06242495830798735 0  0.9371775467104885 0.06242704021362963 0  0.9988504120658068 0.06243082648900973 0  0 0.125 0  0.06254367227021326 0.124988039098791 0  0.1250881169118558 0.124975859218846 0  0.1876340265846893 0.12496326073999 0  0.2501819055303282 0.1249500877528442 0  0.312731936369604 0.1249362568057473 0  0.3752837964904429 0.1249217931963759 0  0.4378364015634418 0.1249068753835375 0  0.500387547512683 0.1248918850296843 0  0.5629334104382945 0.1248774543192581 0  0.6254678375199306 0.1248644918716761 0  0.6879812973342438 0.124854151924128 0  0.7504592005856132 0.124847687693615 0  0.8128789579434798 0.1248461030153288 0  0.8752046776371271 0.1248495026000465 0  0.9373799635858012 0.1248560370693406 0  0.9993408573509396 0.1248596328502754 0  0 0.1875 0  0.06256454111317326 0.187482330336692 0  0.1251303571993199 0.1874643061736298 0  0.1876986249899276 0.1874455986200879 0  0.2502702842526135 0.1874259375722784 0  0.3128458667356888 0.1874051524441367 0  0.3754252577300434 0.1873832261936031 0  0.4380073624946297 0.1873603656208079 0  0.5005896469215754 0.1873370878480021 0  0.5631675208278194 0.187314316181428 0  0.6257335359484989 0.1872934652845225 0  0.6882763857145461 0.1872764710743802 0  0.7507797429873729 0.1872656771330421 0  0.8132211479155135 0.1872634106753158 0  0.8755718381875791 0.1872709227679299 0  0.9378009700461232 0.1872859882937493 0  0.9998957050342444 0.1872975556798629 0  0 0.25 0  0.06258413162597752 0.249976977316553 0  0.125170152653278 0.2499534373943404 0  0.187759857169578 0.2499288904073154 0  0.2503547997852621 0.2499029112875847 0  0.312956114231113 0.2498751882998611 0  0.3755642524788244 0.2498455919141103 0  0.43817861182534 0.2498142712816222 0  0.5007970158830455 0.2497817843719851 0  0.5634150203647779 0.2497492632466511 0  0.6260250347307356 0.2497186043928409 0  0.6886153035853303 0.2496926490550257 0  0.751168913442491 0.2496752690660412 0  0.813663261657339 0.2496711823885797 0  0.8760710245802397 0.2496851683947014 0  0.9383649053449279 0.2497201468988466 0  1.000530195780351 0.2497735517926802 0  0 0.3125 0  0.06260183442714208 0.3124721432008655 0  0.1252062838947556 0.3124435771181462 0  0.1878158955669659 0.3124136154965091 0  0.2504330279993638 0.3123816297330985 0  0.3130596913493635 0.3123470981632644 0  0.3756973012171619 0.3123096826027812 0  0.4383463076957972 0.31226934522889 0  0.5010056563530566 0.3122265214851137 0  0.5636720384538553 0.3121823659560595 0  0.6263389023612588 0.3121390847914902 0  0.688995242403616 0.3121003534155827 0  0.7516242831272643 0.3120717788515207 0  0.814202383160186 0.3120612799655679 0  0.8766988703032764 0.3120790975937872 0  0.9390781732153478 0.3121368968794199 0  1.001306442218606 0.312245143832129 0  0 0.375 0  0.0626169259050062 0.3749680202347513 0  0.1252372774102773 0.3749351141329491 0  0.1878644649690295 0.3749003663849848 0  0.2505018179109035 0.3748628956185384 0  0.3131524817244802 0.3748218938825909 0  0.3758192299285655 0.3747766979542619 0  0.4385041466381556 0.3747269113286368 0  0.5012081237025784 0.3746726037500251 0  0.5639301040706995 0.37461462566532 0  0.6266659958073661 0.3745550867278286 0  0.6894071884347578 0.374498055567639 0  0.7521386416037886 0.3744505292079949 0  0.8148366130733925 0.3744236643253649 0  0.8774662912939338 0.3744340991821994 0  0.9399799486094444 0.3745048282387221 0  1.00231673562812 0.3746644111485179 0  0 0.4375 0  0.06262859295331193 0.4374648253788707 0  0.1252614536005881 0.4374284945157551 0  0.1879029104149021 0.4373898420391754 0  0.2505573723522051 0.4373476944202414 0  0.313229320104371 0.437300886391965 0  0.3759232252982641 0.4372483083926522 0  0.4386433526861134 0.4371890073193432 0  0.5013933799948386 0.4371223763920554 0  0.5641757426012506 0.4370484912408736 0  0.6269905758140708 0.436968681338521 0  0.6898340885597078 0.4368864701730799 0  0.752696164331189 0.4368090685643787 0  0.815556958694827 0.4367496354584045 0  0.8783822627949013 0.4367304465202101 0  0.9411174453401192 0.4367867452696254 0  1.003679883934367 0.4369700880357735 0  0 0.5 0  0.06263598636981288 0.4999627881232454 0  0.1252770350812212 0.4999241978218622 0  0.1879283626002831 0.4998828142185912 0  0.2505954709985599 0.4998371553402216 0  0.3132842671045299 0.4997856515100658 0  0.3760011399510617 0.4997266469252877 0  0.438752959933004 0.4996584440177269 0  0.5015469381968146 0.4995794279640545 0  0.5643902472588207 0.4994883383201343 0  0.6272892502238187 0.4993848061183517 0  0.6902481132648725 0.499270361453158 0  0.7532664808836086 0.4991502551121617 0  0.816335765552352 0.4990366339414526 0  0.8794334056895999 0.4989538078301577 0  0.9425140836755811 0.498946298275589 0  1.005496241035535 0.4990894141756457 0  0 0.5625 0  0.06263830151949587 0.5624621299423406 0  0.1252823134868878 0.5624226949934334 0  0.1879380011415979 0.5623800622962927 0  0.25061184306419 0.5623324621889995 0  0.3133111020575065 0.5622779193901651 0  0.3760441037027236 0.5622141884239485 0  0.4388205077310671 0.5621387049641943 0  0.5016515357474688 0.5620485797589573 0  0.5645500839086185 0.561940691500732 0  0.6275305974251058 0.5618119935861577 0  0.6906085148811318 0.5616602647479294 0  0.7537990073813684 0.5614857567680698 0  0.8171146302018967 0.5612946098959628 0  0.8805612790901468 0.5611056121765005 0  0.9441311598934056 0.5609627721098123 0  1.007789609152151 0.5609562939714013 0  0 0.625 0  0.06263488035238118 0.6249630364046065 0  0.1252758638686124 0.6249243895385436 0  0.1879294021261357 0.6248822774391123 0  0.2506026785847998 0.6248347117186466 0  0.3133040359574915 0.6247793764349235 0  0.3760434766046488 0.6247134859799751 0  0.4388332569441056 0.6246336174812904 0  0.5016885888470956 0.6245355196330685 0  0.56462844567228 0.6244139165992938 0  0.6276764499251842 0.6242623665156922 0  0.6908618104048317 0.6240733319772457 0  0.7542203298777224 0.6238388540644525 0  0.8177957118347531 0.6235527815347301 0  0.8816417783345651 0.6232168034424177 0  0.9458262012924322 0.62285515943062 0  1.010433864969398 0.6225461022951878 0  0 0.6875 0  0.06262532347642863 0.6874656249690096 0  0.1252567842186335 0.6874295480287621 0  0.1879009370873303 0.6873899449654221 0  0.2505652378051149 0.6873447299456994 0  0.3132586038091243 0.6872913888154243 0  0.3759921196297267 0.6872267641836439 0  0.4387799537747987 0.6871467675283283 0  0.5016405697160273 0.6870459858120012 0  0.5645983342997969 0.6869171412318302 0  0.6276856632138225 0.6867503569814511 0  0.6909459395609725 0.686532194921505 0  0.7544377479055776 0.6862445193647304 0  0.8182418958553287 0.6858636100882867 0  0.882475093338806 0.685361327927283 0  0.9473185308130563 0.6847148541739005 0  1.013070945822178 0.6839434654829569 0  0 0.75 0  0.06260959567760332 0.7499699135331589 0  0.1252249256263867 0.749938230704042 0  0.1878521687490717 0.7499032226958993 0  0.250498481465253 0.7498628731184087 0  0.3131726359777528 0.749814684883332 0  0.3758858640872071 0.7497554173906491 0  0.438653020077692 0.7496807111318264 0  0.5014942220484329 0.7495845341344319 0  0.5644371991524617 0.7494583467606887 0  0.6275206786616543 0.7492898167020775 0  0.6907993484285673 0.7490608017935071 0  0.7543514505212333 0.7487441122271558 0  0.8182917509218074 0.7482982234474584 0  0.8827984105781874 0.7476588900289034 0  0.9481799785349262 0.7467293584710324 0  1.015038616998935 0.7453989126771837 0  0 0.8125 0  0.06258810466689557 0.8124757961750121 0  0.1251810695500346 0.8124502364255313 0  0.1877841704567348 0.8124218403196189 0  0.2504036097375232 0.8123888543237398 0  0.3130471445407447 0.8123490617632594 0  0.3757249500236317 0.8122995151568434 0  0.4384508629544656 0.8122361390360915 0  0.5012442261186059 0.8121531195664602 0  0.5641326718162067 0.8120419412910748 0  0.6271563633222556 0.8118898297369316 0  0.6903744915780166 0.8116771627001546 0  0.7538753236198497 0.8113729956668653 0  0.8177925051478188 0.8109268382763686 0  0.8823366943095455 0.8102520936629943 0  0.9478864059176136 0.809188925445382 0  1.015380869431721 0.8074167313448969 0  0 0.875 0  0.06256173281809684 0.8749830325651167 0  0.1251270070262895 0.8749650767125033 0  0.187699689028265 0.8749450468608952 0  0.2502843772068382 0.8749216428315829 0  0.3128869132399281 0.8748931969208428 0  0.3755151062719951 0.8748574536451753 0  0.43817981384789 0.8748112350223262 0  0.5008966117181712 0.874749913466302 0  0.5636884334923409 0.8746665599709134 0  0.6265898029175961 0.8745505385325398 0  0.6896536427197474 0.8743851410567874 0  0.7529620729951149 0.8741435054191977 0  0.81664274073265 0.8737812017080677 0  0.880890967046426 0.8732210521589563 0  0.9459974590112064 0.8723139411289367 0  1.012469870988557 0.8706978452267004 0  0 0.9375 0  0.06253180674347317 0.9374912557974548 0  0.1250654841296646 0.9374819900315581 0  0.1876030825570508 0.9374716277820584 0  0.2501470599367913 0.9374594757979562 0  0.3127005725506355 0.937444636942483 0  0.3752678962461755 0.9374258852862106 0  0.4378550721367084 0.9374014734756889 0  0.50
[...]
<PointData  Vectors="f_54"> 
<DataArray  type="Float64"  Name="f_54"  NumberOfComponents="3" format="ascii">0.0000000000000000e+00 0.0000000000000000e+00 0.0000000000000000e+00  0.0000000000000000e+00 0.0000000000000000e+00 0.0000000000000000e+00  0.0000000000000000e+00 0.0000000000000000e+00 0.0000000000000000e+00  0.0000000000000000e+00 0.0000000000000000e+00 0.0000000000000000e+00  0.0000000000000000e+00 0.0000000000000000e+00 0.0000000000000000e+00  0.0000000000000000e+00 0.0000000000000000e+00 0.0000000000000000e+00  0.0000000000000000e+00 0.0000000000000000e+00 0.0000000000000000e+00  0.0000000000000000e+00 0.0000000000000000e+00 0.0000000000000000e+00  0.0000000000000000e+00 0.0000000000000000e+00 0.0000000000000000e+00  0.0000000000000000e+00 0.0000000000000000e+00 0.0000000000000000e+00  0.0000000000000000e+00 0.0000000000000000e+00 0.0000000000000000e+00  0.0000000000000000e+00 0.0000000000000000e+00 0.0000000000000000e+00  0.0000000000000000e+00 0.0000000000000000e+00 0.0000000000000000e+00  0.0000000000000000e+00 0.0000000000000000e+00 0.0000000000000000e+00  0.0000000000000000e+00 0.0000000000000000e+00 0.0000000000000000e+00  0.0000000000000000e+00 0.0000000000000000e+00 0.0000000000000000e+00  0.0000000000000000e+00 0.0000000000000000e+00 0.0000000000000000e+00  0.0000000000000000e+00 0.0000000000000000e+00 0.0000000000000000e+00  4.7591940928326574e-06 -1.0683903984483890e-07 0.0000000000000000e+00  9.6650411177241765e-06 -2.1673671480052569e-07 0.0000000000000000e+00  1.4865802656195424e-05 -3.3268677621318994e-07 0.0000000000000000e+00  2.0510631024697588e-05 -4.5747067691456905e-07 0.0000000000000000e+00  2.6748640563398797e-05 -5.9343858880930495e-07 0.0000000000000000e+00  3.3726176026235392e-05 -7.4213321066786995e-07 0.0000000000000000e+00  4.1581605074893124e-05 -9.0367005240885827e-07 0.0000000000000000e+00  5.0437191659498160e-05 -1.0757612057271502e-06 0.0000000000000000e+00  6.0388600752852201e-05 -1.2522412861946847e-06 0.0000000000000000e+00  7.1495794514710390e-05 -1.4209254994160879e-06 0.0000000000000000e+00  8.3788803129812605e-05 -1.5605826799059086e-06 0.0000000000000000e+00  9.7331729662134391e-05 -1.6366601093311877e-06 0.0000000000000000e+00  1.1248490146634908e-04 -1.5949925138020494e-06 0.0000000000000000e+00  1.3083766519792964e-04 -1.3525087437540057e-06 0.0000000000000000e+00  1.5849588972933852e-04 -7.9098318025706772e-07 0.0000000000000000e+00  2.1784361182789898e-04 1.7638707113835084e-07 0.0000000000000000e+00  0.0000000000000000e+00 0.0000000000000000e+00 0.0000000000000000e+00  9.3742665692308177e-06 -2.1067609732142659e-07 0.0000000000000000e+00  1.9041552938504546e-05 -4.2756346740311317e-07 0.0000000000000000e+00  2.9298560597350943e-05 -6.5678391650741752e-07 0.0000000000000000e+00  4.0444935040742683e-05 -9.0412651369777620e-07 0.0000000000000000e+00  5.2782052145404474e-05 -1.1746729133583409e-06 0.0000000000000000e+00  6.6608178407575913e-05 -1.4721283489375884e-06 0.0000000000000000e+00  8.2208395263156051e-05 -1.7976900080845402e-06 0.0000000000000000e+00  9.9837615288693191e-05 -2.1482280623419374e-06 0.0000000000000000e+00  1.1969556094251795e-04 -2.5134982699890322e-06 0.0000000000000000e+00  1.4189472187929291e-04 -2.8720698888493068e-06 0.0000000000000000e+00  1.6642813147321669e-04 -3.1856488857103530e-06 0.0000000000000000e+00  1.9315679423415665e-04 -3.3913640624004832e-06 0.0000000000000000e+00  2.2185779164912868e-04 -3.3903731672367003e-06 0.0000000000000000e+00  2.5236914025377892e-04 -3.0236680166008851e-06 0.0000000000000000e+00  2.8456861213638907e-04 -1.9869275225286626e-06 0.0000000000000000e+00  3.1578130394796901e-04 5.5693176473154608e-07 0.0000000000000000e+00  0.0000000000000000e+00 0.0000000000000000e+00 0.0000000000000000e+00  1.3698096178349798e-05 -3.0834136267859889e-07 0.0000000000000000e+00  2.7834080273753588e-05 -6.2618473879749957e-07 0.0000000000000000e+00  4.2852484495459366e-05 -9.6299207311477304e-07 0.0000000000000000e+00  5.9205114612922024e-05 -1.3279431617009539e-06 0.0000000000000000e+00  7.7350930531126582e-05 -1.7295274018208511e-06 0.0000000000000000e+00  9.7750674759889122e-05 -2.1747479177843857e-06 0.0000000000000000e+00  1.2085351976242389e-04 -2.6676984335203353e-06 0.0000000000000000e+00  1.4707220500274583e-04 -3.2071760196658949e-06 0.0000000000000000e+00  1.7674222857497993e-04 -3.7828890074993067e-06 0.0000000000000000e+00  2.1005966294764832e-04 -4.3697726183517902e-06 0.0000000000000000e+00  2.4699057029503086e-04 -4.9201187976402671e-06 0.0000000000000000e+00  2.8713984205200321e-04 -5.3541797380392688e-06 0.0000000000000000e+00  3.2954665688570827e-04 -5.5532229430314312e-06 0.0000000000000000e+00  3.7229841954430790e-04 -5.3705462113070356e-06 0.0000000000000000e+00  4.1162562985641127e-04 -4.7205338779101775e-06 0.0000000000000000e+00  4.3966463293113094e-04 -4.0003326090599179e-06 0.0000000000000000e+00  0.0000000000000000e+00 0.0000000000000000e+00 0.0000000000000000e+00  1.7585299378202870e-05 -3.9653231607710096e-07 0.0000000000000000e+00  3.5749561093518211e-05 -8.0596150623012743e-07 0.0000000000000000e+00  5.5082574796986672e-05 -1.2412871993157450e-06 0.0000000000000000e+00  7.6188939586888582e-05 -1.7154986130612518e-06 0.0000000000000000e+00  9.9691151179885781e-05 -2.2412995231863440e-06 0.0000000000000000e+00  1.2622641919095970e-04 -2.8304239443121249e-06 0.0000000000000000e+00  1.5643352301049782e-04 -3.4922558333075007e-06 0.0000000000000000e+00  1.9092440635560631e-04 -4.2313101988965526e-06 0.0000000000000000e+00  2.3023283573661500e-04 -5.0429191372574996e-06 0.0000000000000000e+00  2.7472881967301578e-04 -5.9062274683166061e-06 0.0000000000000000e+00  3.2448143835817815e-04 -6.7734813172920141e-06 0.0000000000000000e+00  3.7904146312580349e-04 -7.5550030065298231e-06 0.0000000000000000e+00  4.3709266062957886e-04 -8.1011514925883773e-06 0.0000000000000000e+00  4.9587821203313860e-04 -8.1875293012196935e-06 0.0000000000000000e+00  5.5025167121337077e-04 -7.5165275567195498e-06 0.0000000000000000e+00  5.9123321109216527e-04 -5.7259010264593212e-06 0.0000000000000000e+00  0.0000000000000000e+00 0.0000000000000000e+00 0.0000000000000000e+00  2.0894603490105904e-05 -4.7184983995552800e-07 0.0000000000000000e+00  4.2501651926578373e-05 -9.5996191538557420e-07 0.0000000000000000e+00  6.5549967652892281e-05 -1.4809356693674192e-06 0.0000000000000000e+00  9.0794447907757770e-05 -2.0518579704006970e-06 0.0000000000000000e+00  1.1902501492436743e-04 -2.6903469082562819e-06 0.0000000000000000e+00  1.5106934060064300e-04 -3.4142662568166614e-06 0.0000000000000000e+00  1.8778522405673526e-04 -4.2408310258754529e-06 0.0000000000000000e+00  2.3003631094609651e-04 -5.1846140428713752e-06 0.0000000000000000e+00  2.7864149103488749e-04 -6.2536073175951202e-06 0.0000000000000000e+00  3.3428323273348412e-04 -7.4419188078764284e-06 0.0000000000000000e+00  3.9735248616737482e-04 -8.7168299981497917e-06 0.0000000000000000e+00  4.6769664980965929e-04 -9.9968121057289632e-06 0.0000000000000000e+00  5.4422244392893866e-04 -1.1115909984258642e-05 0.0000000000000000e+00  6.2429285861167430e-04 -1.1769146374990903e-05 0.0000000000000000e+00  7.0287124299733958e-04 -1.1433733794962150e-05 0.0000000000000000e+00  7.7147677899234600e-04 -9.2627192490040735e-06 0.0000000000000000e+00  0.0000000000000000e+00 0.0000000000000000e+00 0.0000000000000000e+00  2.3492704403462566e-05 -5.3093351419471540e-07 0.0000000000000000e+00  4.7818226797019677e-05 -1.0812319091129249e-06 0.0000000000000000e+00  7.3832552435960442e-05 -1.6708953553938618e-06 0.0000000000000000e+00  1.0243261472271011e-04 -2.3210812467456436e-06 0.0000000000000000e+00  1.3457390365548397e-04 -3.0546293020862345e-06 0.0000000000000000e+00  1.7128329372670387e-04 -3.8964573140056267e-06 0.0000000000000000e+00  2.1366334714408919e-04 -4.8736473616196152e-06 0.0000000000000000e+00  2.6288195126326951e-04 -6.0148326604126040e-06 0.0000000000000000e+00  3.2013740755614423e-04 -7.3480696626476696e-06 0.0000000000000000e+00  3.8658344637158344e-04 -8.8955391268480287e-06 0.0000000000000000e+00  4.6319053693423171e-04 -1.0661815951163315e-05 0.0000000000000000e+00  5.5050919958626117e-04 -1.2609536356605877e-05 0.0000000000000000e+00  6.4828941771099755e-04 -1.4611390663910263e-05 0.0000000000000000e+00  7.5490351554598797e-04 -1.6360154299895959e-05 0.0000000000000000e+00  8.6653084372563917e-04 -1.7210921513631922e-05 0.0000000000000000e+00  9.7610584034172893e-04 -1.5932805850995084e-05 0.0000000000000000e+00  0.0000000000000000e+00 0.0000000000000000e+00 0.0000000000000000e+00  2.5259814445135024e-05 -5.7069556402906858e-07 0.0000000000000000e+00  5.1452564064984521e-05 -1.1632900971240784e-06 0.0000000000000000e+00  7.9541922207570335e-05 -1.8006256244428660e-06 0.0000000000000000e+00  1.1055005215139264e-04 -2.5074257901070202e-06 0.0000000000000000e+00  1.4558623849335488e-04 -3.3113854032500613e-06 0.0000000000000000e+00  1.8587369550430145e-04 -4.2444336161321688e-06 0.0000000000000000e+00  2.3277213302060878e-04 -5.3442012417465267e-06 0.0000000000000000e+00  2.8779151070404310e-04 -6.6556235416897313e-06 0.0000000000000000e+00  3.5258890191292101e-04 -8.2323198068044806e-06 0.0000000000000000e+00  4.2893487889693723e-04 -1.0136640506403845e-05 0.0000000000000000e+00  5.1862763207382635e-04 -1.2435479970454015e-05 0.0000000000000000e+00  6.2332179191057003e-04 -1.5184946978710496e-05 0.0000000000000000e+00  7.4422540513296412e-04 -1.8388632067629123e-05 0.0000000000000000e+00  8.8160543111080768e-04 -2.1898181565695102e-05 0.0000000000000000e+00  1.0340321289457101e-03 -2.5197356200790800e-05 0.0000000000000000e+00  1.1972746684299766e-03 -2.6970042330725277e-05 0.0000000000000000e+00  0.0000000000000000e+00 0.0000000000000000e+00 0.0000000000000000e+00  2.6096795101096188e-05 -5.8862599540593856e-07 0.0000000000000000e+00  5.3198083319528537e-05 -1.2007921303082008e-06 0.0000000000000000e+00  8.2346658494125412e-05 -1.8612282849059068e-06 0.0000000000000000e+00  1.1466221740235878e-04 -2.5971603992906364e-06 0.0000000000000000e+00  1.5138230758251871e-04 -3.4399130514719556e-06 0.0000000000000000e+00  1.9390573985449421e-04 -4.4270192268851496e-06 0.0000000000000000e+00  2.4383830831214320e-04 -5.6051554128971474e-06 0.0000000000000000e+00  3.0303928978584675e-04 -7.0343547469131217e-06 0.0000000000000000e+00  3.7366467906507382e-04 -8.7940782393885507e-06 0.0000000000000000e+00  4.5819869734347197e-04 -1.0991674392344401e-05 0.0000000000000000e+00  5.5945774732039716e-04 -1.3773014265343894e-05 0.0000000000000000e+00  6.8053955257567095e-04 -1.7332275804913910e-05 0.0000000000000000e+00  8.2467421280581535e-04 -2.1909664000400944e-05 0.0000000000000000e+00  9.9491491127893031e-04 -2.7745208163927311e-05 0.0000000000000000e+00  1.1935887011821282e-03 -3.4910626642939520e-05 0.0000000000000000e+00  1.4214137673308111e-03 -4.2850501080466390e-05 0.0000000000000000e+00  0.0000000000000000e+00 0.0000000000000000e+00 0.0000000000000000e+00  2.5933388983382140e-05 -5.8311452978054833e-07 0.0000000000000000e+00  5.2905673138208953e-05 -1.1902470452896064e-06 0.0000000000000000e+00  8.2000556231042794e-05 -1.8467226413737902e-06 0.0000000000000000e+00  1.1439540891597329e-04 -2.5806977193215155e-06 0.0000000000000000e+00  1.5141416515667390e-04 -3.4250643237253515e-06 0.0000000000000000e+00  1.9458778563617629e-04 -4.4201024834802864e-06 0.0000000000000000e+00  2.4572513408665332e-04 -5.6174574477298776e-06 0.0000000000000000e+00  3.0699709741379664e-04 -7.0864382668373015e-06 0.0000000000000000e+00  3.8103621285423550e-04 -8.9243688094854840e-06 0.0000000000000000e+00  4.7105222822581375e-04 -1.1273943167996857e-05 0.0000000000000000e+00  5.8095964782248167e-04 -1.4352365993432535e-05 0.0000000000000000e+00  7.1550451104479985e-04 -1.8499154469295763e-05 0.0000000000000000e+00  8.8036264623780208e-04 -2.4249707613811294e-05 0.0000000000000000e+00  1.0821625980664113e-03 -3.2432675786908337e-05 0.0000000000000000e+00  1.3283815364548133e-03 -4.4251188738195252e-05 0.0000000000000000e+00  1.6271339525727737e-03 -6.1204281889065454e-05 0.0000000000000000e+00  0.0000000000000000e+00 0.0000000000000000e+00 0.0000000000000000e+00  2.4736679075637683e-05 -5.5371698776707991e-07 0.0000000000000000e+00  5.0501796369776035e-05 -1.1306216179121573e-06 0.0000000000000000e+00  7.8372896036583935e-05 -1.7551565058460896e-06 0.0000000000000000e+00  1.0953338874289594e-04 -2.4545399626830286e-06 0.0000000000000000e+00  1.4533496827586639e-04 -3.2606363683246596e-06 0.0000000000000000e+00  1.8737267264087439e-04 -4.2125933465984681e-06 0.0000000000000000e+00  2.3757874523719417e-04 -5.3609026307193319e-06 0.0000000000000000e+00  2.9834328690161115e-04 -6.7741321108487718e-06 0.0000000000000000e+00  3.7267207001306799e-04 -8.5507781297037879e-06 0.0000000000000000e+00  4.6439456694178489e-04 -1.0841138023441263e-05 0.0000000000000000e+00  5.7843738973340538e-04 -1.3889074836493309e-05 0.0000000000000000e+00  7.2117797832284508e-04 -1.8113404390849238e-05 0.0000000000000000e+00  9.0088731486745693e-04 -2.4267105675325031e-05 0.0000000000000000e+00  1.1282581297060083e-03 -3.3742933461296253e-05 0.0000000000000000e+00  1.4170206152365173e-03 -4.9129434417022019e-05 0.0000000000000000e+00  1.7848039188730037e-03 -7.5122208911618029e-05 0.0000000000000000e+00  0.0000000000000000e+00 0.0000000000000000e+00 0.0000000000000000e+00  2.2518593534325038e-05 -5.0129514850345621e-07 0.0000000000000000e+00  4.6004851583695205e-05 -1.0236649231632922e-06 0.0000000000000000e+00  7.1476571212179016e-05 -1.5892263503159245e-06 0.0000000000000000e+00  1.0006224198916424e-04 -2.2224291816325447e-06 0.0000000000000000e+00  1.3306843432217270e-04 -2.9515383049078051e-06 0.0000000000000000e+00  1.7206382111635885e-04 -3.8106226805210063e-06 0.0000000000000000e+00  2.1898892209822545e-04 -4.8425011422107849e-06 0.0000000000000000e+00  2.7630451952852779e-04 -6.1035643257343830e-06 0.0000000000000000e+00  3.4719765206545371e-04 -7.6724677275743639e-06 0.0000000000000000e+00  4.3587305409788484e-04 -9.6672210461172207e-06 0.0000000000000000e+00  5.4797088055575998e-04 -1.2281290095349431e-05 0.0000000000000000e+00  6.9116906209294954e-04 -1.5864270988257471e-05 0.0000000000000000e+00  8.7604925340965746e-04 -2.1109707039688523e-05 0.0000000000000000e+00  1.1173244039332409e-03 -2.9503206506923285e-05 0.0000000000000000e+00  1.4355467432444508e-03 -4.4391737136090193e-05 0.0000000000000000e+00  1.8595528232435898e-03 -7.3417508091207432e-05 0.0000000000000000e+00  0.0000000000000000e+00 0.0000000000000000e+00 0.0000000000000000e+00  1.9341128174041642e-05 -4.2798621316003463e-07 0.0000000000000000e+00  3.9536900692357342e-05 -8.7384334686478518e-07 0.0000000000000000e+00  6.1489113813102355e-05 -1.3561736625634844e-06 0.0000000000000000e+00  8.6205605408308262e-05 -1.8952181483380289e-06 0.0000000000000000e+00  1.1486634604685291e-04 -2.5137228364542155e-06 0.0000000000000000e+00  1.4890799885643232e-04 -3.2378551006843752e-06 0.0000000000000000e+00  1.9013776779426686e-04 -4.0981693791709380e-06 0.0000000000000000e+00  2.4089281007120625e-04 -5.1306450853478845e-06 0.0000000000000000e+00  3.0427063438580169e-04 -6.3779830387049485e-06 0.0000000000000000e+00  3.8447136510743918e-04 -7.8920231230908021e-06 0.0000000000000000e+00  4.8731920385088279e-04 -9.7405859605166057e-06 0.0000000000000000e+00  6.2107602421433900e-04 -1.2030519862368138e-05 0.0000000000000000e+00  7.9773803988186472e-04 -1.4988440170709527e-05 0.0000000000000000e+00  1.0351345207763824e-03 -1.9248332087266878e-05 0.0000000000000000e+00  1.3603351973568657e-03 -2.6902770382908807e-05 0.0000000000000000e+00  1.8151005228557217e-03 -4.5416668094571121e-05 0.0000000000000000e+00  0.0000000000000000e+00 0.0000000000000000e+00 0.0000000000000000e+00  1.5318047487874518e-05 -3.3700680025142019e-07 0.0000000000000000e+00  3.1328011131530948e-05 -6.8789115495203380e-07 0.0000000000000000e+00  4.8761756192253336e-05 -1.0669454821107503e-06 0.0000000000000000e+00  6.8442229376154714e-05 -1.4893779466294343e-06 0.0000000000000000e+00  9.1341148226515553e-05 -1.9715678006106671e-06 0.0000000000000000e+00  1.1865410810233689e-04 -2.5309328515538778e-06 0.0000000000000000e+00  1.5190374617989570e-04 -3.1849394789977375e-06 0.0000000000000000e+00  1.9308750245420627e-04 -3.9482735460889735e-06 0.0000000000000000e+00  2.4489691153800684e-04 -4.8261245483317150e-06 0.0000000000000000e+00  3.1105424019839292e-04 -5.7992797285098578e-06 0.0000000000000000e+00  3.9684820134144942e-04 -6.7918377512950082e-06 0.0000000000000000e+00  5.1002289941175834e-04 -7.6015010532631701e-06 0.0000000000000000e+00  6.6233008403124825e-04 -7.7482432653047603e-06 0.0000000000000000e+00  8.7240915057996862e-04 -6.1488081989232411e-06 0.0000000000000000e+00  1.1714330533681865e-03 -4.9616963947793505e-07 0.0000000000000000e+00  1.6132279737999789e-03 1.2864523125883109e-05 0.0000000000000000e+00  0.0000000000000000e+00 0.0000000000000000e+00 0.0000000000000000e+00  1.0612179716694386e-05 -2.3234963057042528e-07 0.0000000000000000e+00  2.1711193806222985e-05 -4.7411354566740177e-07 0.0000000000000000e+00  3.3812815387410905e-05 -7.3488208973723512e-07 0.0000000000000000e+00  4.7499424110105061e-05 -1.0246157829263256e-06 0.0000000000000000e+00  6.3462592904101381e-05 -1.3535222296112292e-06 0.0000000000000000e+00  8.2559083560596844e-05 -1.7313601868109422e-06 0.0000000000000000e+00  1.0588858771686709e-04 -2.1655017454221076e-06 0.0000000000000000e+00  1.3490633241685848e-04 -2.6563272551094813e-06 0.0000000000000000e+00  1.7159220762081502e-04 -3.1868709580142545e-06 0.0000000000000000e+00  2.1871388956078543e-04 -3.6998949120791113e-06 0.0000000000000000e+00  2.8025256836402694e-04 -4.0467194512822425e-06 0.0000000000000000e+00  3.6212744644425115e-04 -3.8696591896397365e-06 0.0000000000000000e+00  4.7352745028533323e-04 -2.3163494785864571e-06 0.0000000000000000e+00  6.2972296918026359e-04 2.7254498788981477e-06 0.0000000000000000e+00  8.5977530990134256e-04 1.7034947242740405e-05 0.0000000000000000e+00  1.2389477307246696e-03 5.9896669053382206e-05 0.0000000000000000e+00  0.0000000000000000e+00 0.0000000000000000e+00 0.0000000000000000e+00  5.4280104719597543e-06 -1.1846356325037445e-07 0.0000000000000000e+00  1.1107194822219161e-05 -2.4166377258983561e-07 0.0000000000000000e+00  1.7303864963194663e-05 -3.7438549102791689e-07 0.0000000000000000e+00  2.4319367576065985e-05 -5.2150283840556184e-07 0.0000000000000000e+00  3.2512558968798795e-05 -6.8780311100758779e-07 0.0000000000000000e+00  4.2329447399160519e-05 -8.7740370867598456e-07 0.0000000000000000e+00  5.4344438533981854e-05 -1.0922933219654282e-06 0.0000000000000000e+00  6.9320100024937193e-05 -1.3290033464936698e-06 0.0000000000000000e+00  8.8296623146294083e-05 -1.5712843023156671e-06 0.0000000000000000e+00  1.1272941360002037e-04 -1.7742195672064512e-06 0.0000000000000000e+00  1.4470487853067597e-04 -1.8299866792350882e-06 0.0000000000000000e+00  1.8727821102486935e-04 -1.4948429750796789e-06 0.0000000000000000e+00  2.4496103538332998e-04 -2.3900468885690604e-07 0.0000000000000000e+00  3.2412313665549080e-04 3.0226585823400174e-06 0.0000000000000000e+00  4.3122164122922881e-04 1.0133584611981998e-05 0.0000000000000000e+00  5.5588599734796007e-04 2.1643688319409858e-05 0.0000000000000000e+00  0.0000000000000000e+00 0.0000000000000000e+00 0.0000000000000000e+00  0.0000000000000000e+00 0.0000000000000000e+00 0.0000000000000000e+00  0.0000000000000000e+00 0.0000000000000000e+00 0.0000000000000000e+00  0.0000000000000000e+00 0.0000000000000000e+00 0.0000000000000000e+00  0.0000000000000000e+00 0.0000000000000000e+00 0.0000000000000000e+00  0.0000000000000000e+00 0.0000000000000000e+00 0.0000000000000000e+00  0.0000000000000000e+00 0.0000000000000000e+00 0.0000000000000000e+00  0.0000000000000000e+00 0.0000000000000000e+00 0.0000000000000000e+00  0.0000000000000000e+00 0.0000000000000000e+00 0.0000000000000