<?xml version="1.0"?>
<VTKFile type="UnstructuredGrid"  version="0.1"  >
<UnstructuredGrid>
<Piece  NumberOfPoints="289" NumberOfCells="512">
<Points>
<DataArray  type="Float64"  NumberOfComponents="3"  format="ascii">0 0 0  0.0625 0 0  0.125 0 0  0.1875 0 0  0.25 0 0  0.3125 0 0  0.375 0 0  0.4375 0 0  0.5 0 0  0.5625 0 0  0.625 0 0  0.6875 0 0  0.75 0 0  0.8125 0 0  0.875 0 0  0.9375 0 0  1 0 0  0 0.0625 0  0.06256229562387979 0.06249893771082587 0  0.1251264300362605 0.06249784413177673 0  0.1876942442158311 0.06249668820837757 0  0.2502675745665685 0.06249543964310988 0  0.3128482355071556 0.06249406985109591 0  0.3754379847105084 0.06249255368284937 0  0.438038468531078 0.06249087227048075 0  0.5006511528859475 0.06248901737741468 0  0.5632772649259992 0.06248699748957561 0  0.62591782248725 0.06248484514364337 0  0.6885739668371301 0.06248262203608611 0  0.7512482138840919 0.06248040674181254 0  0.8139484966802967 0.06247820093529786 0  0.8767011873502663 0.06247547498295413 0  0.9395953511172768 0.06246908853052415 0  1.002945881769187 0.06244357985353885 0  0 0.125 0  0.06262281096092001 0.1249979054121166 0  0.1252493060618928 0.124995747808378 0  0.1878831804089391 0.1249934644137525 0  0.2505281332117452 0.1249909934757507 0  0.3131878385978306 0.1249882758735571 0  0.3758658787848708 0.1249852582152587 0  0.438565629573271 0.1249818981814489 0  0.5012900962372584 0.1249781730584034 0  0.5640417189399364 0.1249740925639828 0  0.6268222151531726 0.1249697172198156 0  0.6896326293334391 0.1249651843009522 0  0.7524739580424736 0.1249607491363918 0  0.8153490068312105 0.1249568841857251 0  0.8782660078796216 0.1249546664441201 0  0.9412402892016821 0.1249576636818239 0  1.004260326168358 0.1249815726449484 0  0 0.1875 0  0.06267969966849925 0.1874969348509499 0  0.1253649281208921 0.1874937744829063 0  0.1880612467008567 0.1874904234987832 0  0.250774255938763 0.187486786868512 0  0.3135095675102737 0.1874827715900307 0  0.3762727156194316 0.1874782904059978 0  0.4390689842507779 0.187473268727263 0  0.5019031278471977 0.1874676563143079 0  0.5647789702792669 0.1874614457270654 0  0.627698884028882 0.1874546999770193 0  0.6906631749477883 0.187447591996228 0  0.7536693902077365 0.1874404576791234 0  0.8167113666028359 0.187433856805569 0  0.8797769109847262 0.1874285817151482 0  0.9428400254454591 0.187425183098971 0  1.005837504350381 0.1874202308729549 0  0 0.25 0  0.06273111672955771 0.2499960582351954 0  0.1254695858851049 0.2499919889591407 0  0.1882228329754374 0.2499876635013408 0  0.2509983977582196 0.2499829516617667 0  0.3138039298803718 0.2499777225615923 0  0.3766471023560761 0.2499718478227005 0  0.4395354027972682 0.2499652085327764 0  0.5024757526274615 0.2499577081168078 0  0.5654738939430669 0.2499492941045438 0  0.6285334715890535 0.249939992705878 0  0.691654717125171 0.2499299604855834 0  0.7548325848747168 0.2499195553933373 0  0.8180540301235506 0.2499094197011229 0  0.8812937508812301 0.2499005384319293 0  0.9445072333240886 0.2498941895396729 0  1.007620847823598 0.2498919086883466 0  0 0.3125 0  0.06277523898377572 0.3124953078398717 0  0.1255595934660327 0.3124904567454255 0  0.188362316409788 0.3124852850354676 0  0.251192901774581 0.3124796262336801 0  0.3140611366580855 0.3124733080841808 0  0.376977057495099 0.3124661537175019 0  0.4399507550480412 0.3124579865275117 0  0.50299195129731 0.3124486412632812 0  0.566109242903914 0.3124379852886185 0  0.6293088708436061 0.3124259560127071 0  0.6925928359661402 0.3124126229903926 0  0.7559561429669646 0.3123982852757433 0  0.8193829493914588 0.3123836143343454 0  0.8828415309141702 0.3123698492173458 0  0.9462786092384652 0.3123590587752085 0  1.009615651678626 0.3123545847075003 0  0 0.375 0  0.06281030490335425 0.3749947150455734 0  0.1256313639310093 0.3749892421782866 0  0.1884741590521678 0.3749833886277141 0  0.2513500978856792 0.3749769523395605 0  0.3142711632935635 0.3749697181406445 0  0.3772499684764663 0.3749614552919303 0  0.4402996531652419 0.3749519177309777 0  0.503433523094347 0.3749408493959159 0  0.5666642878816317 0.3749279989745173 0  0.630002691673287 0.3749131518026414 0  0.6934552640714053 0.374896192193634 0  0.7570208735099562 0.3748772178123428 0  0.8206858141935562 0.3748567380747489 0  0.8844174632808239 0.3748359953521421 0  0.9481574068444776 0.3748174293071704 0  1.011816725383862 0.3748051798452172 0  0 0.4375 0  0.06283467859140934 0.4374943087640343 0  0.1256815351072997 0.4374884051915387 0  0.1885530892520555 0.4374820696838291 0  0.2514625255545769 0.4374750681208158 0  0.3144239840712907 0.4374671444197267 0  0.3774527802437178 0.4374580131095439 0  0.4405654915382966 0.4374473524580801 0  0.5037798053911472 0.4374347995642398 0  0.5671139569078857 0.4374199507228553 0  0.6305854900578535 0.4374023743675321 0  0.6942089542037747 0.4373816520235195 0  0.7579920223386042 0.4373574782956388 0  0.8219294631651745 0.4373298781437309 0  0.8859945837176132 0.4372996396304043 0  0.950128465082805 0.437269097721034 0  1.014228835986752 0.4372433792007936 0  0 0.5 0  0.0628469401346428 0.4999941133336024 0  0.1257071527522208 0.4999879968780108 0  0.1885943810732749 0.499981411243402 0  0.2515233102159446 0.499974097320252 0  0.3145100366349583 0.499965765026717 0  0.3775725173306758 0.4999560802715307 0  0.4407309551221696 0.4999446494032916 0  0.5040080298031429 0.4999310005244276 0  0.567428805419628 0.4999145617843268 0  0.6310200135736873 0.4998946393404954 0  0.6948082118640618 0.4998704050588808 0  0.7588160359173518 0.4998409229159463 0  0.8230554367488284 0.4998052869271605 0  0.8875165659453909 0.4997630344804493 0  0.9521511861752026 0.4997151599416332 0  1.016850732072645 0.4996662658704807 0  0 0.5625 0  0.06284599979917424 0.5624941461129811 0  0.1257059075865468 0.5624880543151942 0  0.1885942308106153 0.5624814752522046 0  0.2515267019816479 0.5624741356674007 0  0.3145209469373446 0.5624657239181081 0  0.3775972103301442 0.5624558719218543 0  0.4407791341620526 0.5624441313227702 0  0.5040945481620568 0.5624299405157382 0  0.5675761556702082 0.5624125774680824 0  0.6312618530574281 0.5623910913366101 0  0.6951941515731281 0.5623642055928814 0  0.7594177021346873 0.5623301937586318 0  0.8239731784700378 0.5622867669822266 0  0.8888847637343353 0.5622311341878168 0  0.9541375504169647 0.5621607102172274 0  1.019641382869932 0.5620755897417754 0  0 0.625 0  0.06283122741658465 0.6249944151326248 0  0.1256764095251697 0.6249885954350191 0  0.1885502078444889 0.6249822936785966 0  0.2514687524424384 0.6249752364887793 0  0.3144504990307978 0.6249671080320912 0  0.3775172394405546 0.6249575289784369 0  0.4406953214138649 0.6249460274281158 0  0.504017125013973 0.6249319961085763 0  0.5675228057300373 0.6249146255720689 0  0.6312622085753784 0.6248927944685806 0  0.6952966002522943 0.6248648823395714 0  0.7596992966718134 0.6248284456316167 0  0.8245531013460476 0.6247796726112747 0  0.8899403425740136 0.6247125675371392 0  0.9559180752809167 0.6246181463900339 0  1.022468068387271 0.6244853047758323 0  0 0.6875 0  0.06280258154088433 0.687494917233732 0  0.1256184673840302 0.6874896149034987 0  0.18846173055589 0.6874838612169734 0  0.2513480624911533 0.6874773985024643 0  0.3142957686909714 0.6874699270169009 0  0.3773270144872188 0.6874610840159527 0  0.440469448735375 0.6874504147218753 0  0.5037583725615484 0.6874373291335418 0  0.5672396631826573 0.6874210328072198 0  0.6309736844339734 0.6874004066698385 0  0.6950403417726758 0.6873737807482603 0  0.7595450722898083 0.6873384765728876 0  0.824624414414048 0.6872898348131743 0  0.8904468102208072 0.6872191202579042 0  0.9571975775126309 0.6871091765972446 0  1.025025089691026 0.6869263849549916 0  0 0.75 0  0.06276071707647805 0.7499956370909754 0  0.1255333285449291 0.7499910819231729 0  0.1883304917682913 0.7499861313033646 0  0.2511664874109649 0.7499805589394762 0  0.3140582602255714 0.7499741013088572 0  0.3770267806265761 0.7499664399578356 0  0.4400989192262095 0.7499571780875793 0  0.5033101224676716 0.7499458078386836 0  0.5667083297522497 0.749931661331012 0  0.6303598047787109 0.7499138298244364 0  0.6943578813181853 0.7498910107622778 0  0.7588359931763057 0.7498611682743271 0  0.8239864315218191 0.7498206612570001 0  0.8900847139700975 0.7497617745785284 0  0.9575119335759859 0.7496655217251542 0  1.0267439204951 0.7494818907168362 0  0 0.8125 0  0.06270704710147558 0.8124965473618843 0  0.1254238250371864 0.8124929405258067 0  0.1881607401260593 0.8124890165500018 0  0.25092964750763 0.8124845941331569 0  0.313744809636004 0.8124794628727811 0  0.3766241921874033 0.8124733707084701 0  0.4395913202681735 0.8124660092622927 0  0.5026780555493976 0.8124569975731648 0  0.5659289010543673 0.8124458667434878 0  0.6294078864500509 0.8124320527658213 0  0.6932099105273585 0.8124149147483594 0  0.7574799620494536 0.8123938108264142 0  0.8224465288971419 0.8123682488738204 0  0.8884805352851558 0.8123377876481735 0  0.9561964106930777 0.8122987285497113 0  1.026586160360224 0.8122185209640794 0  0 0.875 0  0.06264373659372635 0.8749976099708632 0  0.1252943752109718 0.8749951123623387 0  0.1879593237970235 0.8749923935940179 0  0.250647081581616 0.8749893275862552 0  0.313367976910785 0.8749857688507653 0  0.3761351875121154 0.8749815451882927 0  0.4389662415409309 0.8749764509854611 0  0.5018853354780786 0.8749702443282629 0  0.5649270668937095 0.8749626568459248 0  0.6281426957566194 0.8749534401318032 0  0.6916111121095951 0.8749425137870661 0  0.7554590238394887 0.8749304033193789 0  0.8199004669535251 0.8749195665583975 0  0.8853210015146383 0.8749187613610752 0  0.9524836940639002 0.8749593634334666 0  1.023182830491437 0.8751667491918633 0  0 0.9375 0  0.06257361394743335 0.9374987783080471 0  0.1251508070854006 0.9374975014435524 0  0.1877354290776634 0.9374961112127104 0  0.2503319148586021 0.9374945431722359 0  0.3129456851572976 0.9374927233404632 0  0.3755837072189036 0.9374905650505466 0  0.4382553318463234 0.937487
[...]
<PointData  Vectors="f_54"> 
<DataArray  type="Float64"  Name="f_54"  NumberOfComponents="3" format="ascii">0.0000000000000000e+00 0.0000000000000000e+00 0.0000000000000000e+00  0.0000000000000000e+00 0.0000000000000000e+00 0.0000000000000000e+00  0.0000000000000000e+00 0.0000000000000000e+00 0.0000000000000000e+00  0.0000000000000000e+00 0.0000000000000000e+00 0.0000000000000000e+00  0.0000000000000000e+00 0.0000000000000000e+00 0.0000000000000000e+00  0.0000000000000000e+00 0.0000000000000000e+00 0.0000000000000000e+00  0.0000000000000000e+00 0.0000000000000000e+00 0.0000000000000000e+00  0.0000000000000000e+00 0.0000000000000000e+00 0.0000000000000000e+00  0.0000000000000000e+00 0.0000000000000000e+00 0.0000000000000000e+00  0.0000000000000000e+00 0.0000000000000000e+00 0.0000000000000000e+00  0.0000000000000000e+00 0.0000000000000000e+00 0.0000000000000000e+00  0.0000000000000000e+00 0.0000000000000000e+00 0.0000000000000000e+00  0.0000000000000000e+00 0.0000000000000000e+00 0.0000000000000000e+00  0.0000000000000000e+00 0.0000000000000000e+00 0.0000000000000000e+00  0.0000000000000000e+00 0.0000000000000000e+00 0.0000000000000000e+00  0.0000000000000000e+00 0.0000000000000000e+00 0.0000000000000000e+00  0.0000000000000000e+00 0.0000000000000000e+00 0.0000000000000000e+00  0.0000000000000000e+00 0.0000000000000000e+00 0.0000000000000000e+00  2.6267010988300044e-06 -8.6435110685513235e-08 0.0000000000000000e+00  5.3454125100008720e-06 -1.7604195804544646e-07 0.0000000000000000e+00  8.2505789129061914e-06 -2.7206661030580755e-07 0.0000000000000000e+00  1.1441168934463816e-05 -3.7788127499620075e-07 0.0000000000000000e+00  1.5022879382567430e-05 -4.9701361408286164e-07 0.0000000000000000e+00  1.9110358694302584e-05 -6.3312567843846851e-07 0.0000000000000000e+00  2.3829768465162640e-05 -7.8991125664873895e-07 0.0000000000000000e+00  2.9322685225742776e-05 -9.7087426092101588e-07 0.0000000000000000e+00  3.5754175658020603e-05 -1.1789647349741390e-06 0.0000000000000000e+00  4.3332817100716757e-05 -1.4161425403197636e-06 0.0000000000000000e+00  5.2364206579138841e-05 -1.6833194398038456e-06 0.0000000000000000e+00  6.3400025102321517e-05 -1.9825705509827191e-06 0.0000000000000000e+00  7.7672269680749748e-05 -2.3290748186852028e-06 0.0000000000000000e+00  9.8434768177059845e-05 -2.8028823652089475e-06 0.0000000000000000e+00  1.3542674238893487e-04 -3.7683973308916738e-06 0.0000000000000000e+00  2.2126847845367687e-04 -6.8542194960752732e-06 0.0000000000000000e+00  0.0000000000000000e+00 0.0000000000000000e+00 0.0000000000000000e+00  5.1666504445581755e-06 -1.6987183021191506e-07 0.0000000000000000e+00  1.0515780018080114e-05 -3.4604317402241738e-07 0.0000000000000000e+00  1.6234836879868736e-05 -5.3497660775859245e-07 0.0000000000000000e+00  2.2520531044398869e-05 -7.4342028683493525e-07 0.0000000000000000e+00  2.9583261275268786e-05 -9.7849125608647261e-07 0.0000000000000000e+00  3.7651338945973525e-05 -1.2476659369753038e-06 0.0000000000000000e+00  4.6975213144517847e-05 -1.5586114030131893e-06 0.0000000000000000e+00  5.7832561940130304e-05 -1.9187600959281337e-06 0.0000000000000000e+00  7.0536841248185835e-05 -2.3344971728087608e-06 0.0000000000000000e+00  8.5456087009914969e-05 -2.8098037685506810e-06 0.0000000000000000e+00  1.0305840762219871e-04 -3.3441660413979247e-06 0.0000000000000000e+00  1.2402084431655869e-04 -3.9292549623251612e-06 0.0000000000000000e+00  1.4947222729864171e-04 -4.5415119471260265e-06 0.0000000000000000e+00  1.8145002599001159e-04 -5.1132448395947426e-06 0.0000000000000000e+00  2.2331389774968600e-04 -5.3847090607893768e-06 0.0000000000000000e+00  2.7720649759044379e-04 -4.1157673387449675e-06 0.0000000000000000e+00  0.0000000000000000e+00 0.0000000000000000e+00 0.0000000000000000e+00  7.5292796274230887e-06 -2.4717953337883011e-07 0.0000000000000000e+00  1.5327586650906545e-05 -5.0365891734513923e-07 0.0000000000000000e+00  2.3671594898798518e-05 -7.7901277457372299e-07 0.0000000000000000e+00  3.2852329125131686e-05 -1.0833163069633269e-06 0.0000000000000000e+00  4.3181926959607778e-05 -1.4273285285906090e-06 0.0000000000000000e+00  5.4999751537181703e-05 -1.8225628443123151e-06 0.0000000000000000e+00  6.8677495650941927e-05 -2.2811496945572258e-06 0.0000000000000000e+00  8.4622903352230154e-05 -2.8153334329886464e-06 0.0000000000000000e+00  1.0328188878377228e-04 -3.4363514476319954e-06 0.0000000000000000e+00  1.2513918009197228e-04 -4.1523068213088182e-06 0.0000000000000000e+00  1.5071745924540540e-04 -4.9644494859364806e-06 0.0000000000000000e+00  1.8057027810989469e-04 -5.8610085680260099e-06 0.0000000000000000e+00  2.1523852831870614e-04 -6.8075683719770639e-06 0.0000000000000000e+00  2.5503959517597858e-04 -7.7353562458731411e-06 0.0000000000000000e+00  2.9923855406944187e-04 -8.5525345772365291e-06 0.0000000000000000e+00  3.4343127819823246e-04 -9.3737258058355836e-06 0.0000000000000000e+00  0.0000000000000000e+00 0.0000000000000000e+00 0.0000000000000000e+00  9.6280079223517716e-06 -3.1535761818738584e-07 0.0000000000000000e+00  1.9605117517725416e-05 -6.4278047426769673e-07 0.0000000000000000e+00  3.0290953222193957e-05 -9.9474501845974684e-07 0.0000000000000000e+00  4.2065129166159700e-05 -1.3845066872285653e-06 0.0000000000000000e+00  5.5336723823195595e-05 -1.8264426236216634e-06 0.0000000000000000e+00  7.0552737489342610e-05 -2.3363011289254138e-06 0.0000000000000000e+00  8.8204521851021161e-05 -2.9312557428186234e-06 0.0000000000000000e+00  1.0883033555089851e-04 -3.6295743557774591e-06 0.0000000000000000e+00  1.3301063920132986e-04 -4.4495662838964399e-06 0.0000000000000000e+00  1.6134970507853012e-04 -5.4072330277094843e-06 0.0000000000000000e+00  1.9443066272800601e-04 -6.5116954101973493e-06 0.0000000000000000e+00  2.3271669753043014e-04 -7.7570297957825782e-06 0.0000000000000000e+00  2.7633915028807464e-04 -9.1088743598703899e-06 0.0000000000000000e+00  3.2464895631927705e-04 -1.0484901861136960e-05 0.0000000000000000e+00  3.7531454103792504e-04 -1.1730555516252595e-05 0.0000000000000000e+00  4.2277390495902616e-04 -1.2577562393899429e-05 0.0000000000000000e+00  0.0000000000000000e+00 0.0000000000000000e+00 0.0000000000000000e+00  1.1382807536331904e-05 -3.7164331828706670e-07 0.0000000000000000e+00  2.3185517613886597e-05 -7.5774849852931208e-07 0.0000000000000000e+00  3.5841646750404050e-05 -1.1733414581509149e-06 0.0000000000000000e+00  4.9811011205707377e-05 -1.6345542191056994e-06 0.0000000000000000e+00  6.5592567138322773e-05 -2.1591842180418072e-06 0.0000000000000000e+00  8.3736337228946454e-05 -2.7672302594740036e-06 0.0000000000000000e+00  1.0485310371383867e-04 -3.4813334545070518e-06 0.0000000000000000e+00  1.2961918576186464e-04 -4.3269599191248088e-06 0.0000000000000000e+00  1.5877107928039241e-04 -5.3319877532882189e-06 0.0000000000000000e+00  1.9308003136990343e-04 -6.5250424748273283e-06 0.0000000000000000e+00  2.3328806098496706e-04 -7.9313744323320492e-06 0.0000000000000000e+00  2.7997209882372055e-04 -9.5641922596170320e-06 0.0000000000000000e+00  3.3328006840073558e-04 -1.1408119431956292e-05 0.0000000000000000e+00  3.9245772045509595e-04 -1.3389929629529123e-05 0.0000000000000000e+00  4.5509308918872493e-04 -1.5329940814719677e-05 0.0000000000000000e+00  5.1615614591054237e-04 -1.6864351331157722e-05 0.0000000000000000e+00  0.0000000000000000e+00 0.0000000000000000e+00 0.0000000000000000e+00  1.2723008375504071e-05 -4.1364536741085098e-07 0.0000000000000000e+00  2.5924375592371994e-05 -8.4362832577653323e-07 0.0000000000000000e+00  4.0099288085246268e-05 -1.3070000938365058e-06 0.0000000000000000e+00  5.5776078170726744e-05 -1.8222522801426042e-06 0.0000000000000000e+00  7.3533156420779855e-05 -2.4101242800384604e-06 0.0000000000000000e+00  9.4015872504508801e-05 -3.0945055901836735e-06 0.0000000000000000e+00  1.1795229806206732e-04 -3.9034377550444095e-06 0.0000000000000000e+00  1.4616554054550302e-04 -4.8701620547979857e-06 0.0000000000000000e+00  1.7957757348528733e-04 -6.0340177679392146e-06 0.0000000000000000e+00  2.1919475773973947e-04 -7.4406798428475955e-06 0.0000000000000000e+00  2.6605683815587893e-04 -9.1405614907123056e-06 0.0000000000000000e+00  3.2111776511121087e-04 -1.1182902108859312e-05 0.0000000000000000e+00  3.8500841512295928e-04 -1.3600689848812206e-05 0.0000000000000000e+00  4.5761493089807533e-04 -1.6377758815427169e-05 0.0000000000000000e+00  5.3741438239661172e-04 -1.9384769663065773e-05 0.0000000000000000e+00  6.2058483938078263e-04 -2.2270726416500426e-05 0.0000000000000000e+00  0.0000000000000000e+00 0.0000000000000000e+00 0.0000000000000000e+00  1.3590366360695838e-05 -4.3949545321500206e-07 0.0000000000000000e+00  2.7701950441564452e-05 -8.9653243751883526e-07 0.0000000000000000e+00  4.2875889426340092e-05 -1.3894837191000506e-06 0.0000000000000000e+00  5.9693337103054427e-05 -1.9384391191380834e-06 0.0000000000000000e+00  7.8796941928299243e-05 -2.5662422327174983e-06 0.0000000000000000e+00  1.0091384064388128e-04 -3.2997658444070526e-06 0.0000000000000000e+00  1.2688015162667165e-04 -4.1715461744175625e-06 0.0000000000000000e+00  1.5766609333228409e-04 -5.2219176640543961e-06 0.0000000000000000e+00  1.9439906451877611e-04 -6.5017753789983456e-06 0.0000000000000000e+00  2.3837846351580557e-04 -8.0759523978694161e-06 0.0000000000000000e+00  2.9106929452470787e-04 -1.0026716198053690e-05 0.0000000000000000e+00  3.5404968047297885e-04 -1.2455566798108197e-05 0.0000000000000000e+00  4.2886800526828527e-04 -1.5478339797777592e-05 0.0000000000000000e+00  5.1673732285173360e-04 -1.9201714243609008e-05 0.0000000000000000e+00  6.1795913177274176e-04 -2.3655790521009767e-05 0.0000000000000000e+00  7.3092498349131268e-04 -2.8634546545528789e-05 0.0000000000000000e+00  0.0000000000000000e+00 0.0000000000000000e+00 0.0000000000000000e+00  1.3942303727349862e-05 -4.4799799977003827e-07 0.0000000000000000e+00  2.8429902405142485e-05 -9.1394886138569195e-07 0.0000000000000000e+00  4.4030595744010605e-05 -1.4166914187507447e-06 0.0000000000000000e+00  6.1358219670727576e-05 -1.9769269410168537e-06 0.0000000000000000e+00  8.1098485208827667e-05 -2.6183998452764652e-06 0.0000000000000000e+00  1.0403837555148436e-04 -3.3694412324638022e-06 0.0000000000000000e+00  1.3110057072755947e-04 -4.2651187477023406e-06 0.0000000000000000e+00  1.6338451076415382e-04 -5.3503742877051609e-06 0.0000000000000000e+00  2.0221561936133867e-04 -6.6847387197858010e-06 0.0000000000000000e+00  2.4920337341711871e-04 -8.3494805925524986e-06 0.0000000000000000e+00  3.0630607934330461e-04 -1.0458259800441630e-05 0.0000000000000000e+00  3.7589262143095445e-04 -1.3172077951135689e-05 0.0000000000000000e+00  4.6077325991235367e-04 -1.6717231567285772e-05 0.0000000000000000e+00  5.6413156434955607e-04 -2.1397694374521930e-05 0.0000000000000000e+00  6.8920800453227502e-04 -2.7573198201699521e-05 0.0000000000000000e+00  8.3843017536794524e-04 -3.5526116467732477e-05 0.0000000000000000e+00  0.0000000000000000e+00 0.0000000000000000e+00 0.0000000000000000e+00  1.3755070672540344e-05 -4.3874973034847916e-07 0.0000000000000000e+00  2.8058016201677489e-05 -8.9501161702239577e-07 0.0000000000000000e+00  4.3480842289199424e-05 -1.3871530235695958e-06 0.0000000000000000e+00  6.0645683250335093e-05 -1.9353596048471377e-06 0.0000000000000000e+00  8.0253938902941741e-05 -2.5628123617239037e-06 0.0000000000000000e+00  1.0312093872229749e-04 -3.2972748469526315e-06 0.0000000000000000e+00  1.3021918035870119e-04 -4.1734104934038767e-06 0.0000000000000000e+00  1.6273457511584635e-04 -5.2363951934542563e-06 0.0000000000000000e+00  2.0214235067958557e-04 -6.5478431897150077e-06 0.0000000000000000e+00  2.5031258947665270e-04 -8.1958825521720434e-06 0.0000000000000000e+00  3.0965971770966112e-04 -1.0312631038732599e-05 0.0000000000000000e+00  3.8335389160598735e-04 -1.3104546392625262e-05 0.0000000000000000e+00  4.7560863225414745e-04 -1.6903864335629508e-05 0.0000000000000000e+00  5.9203025431595014e-04 -2.2250098618673349e-05 0.0000000000000000e+00  7.3992138851333993e-04 -2.9999991805050446e-05 0.0000000000000000e+00  9.2820804696184340e-04 -4.1416129119824463e-05 0.0000000000000000e+00  0.0000000000000000e+00 0.0000000000000000e+00 0.0000000000000000e+00  1.3026430050740948e-05 -4.1219807896238974e-07 0.0000000000000000e+00  2.6580046073388753e-05 -8.4064084899879848e-07 0.0000000000000000e+00  4.1212428957159091e-05 -1.3023085160953380e-06 0.0000000000000000e+00  5.7526456530760154e-05 -1.8157505088655070e-06 0.0000000000000000e+00  7.6206804815874692e-05 -2.4020822341323332e-06 0.0000000000000000e+00  9.8057257406002613e-05 -3.0863185187850920e-06 0.0000000000000000e+00  1.2404899580122916e-04 -3.8993346476008768e-06 0.0000000000000000e+00  1.5538648208492293e-04 -4.8810155575590722e-06 0.0000000000000000e+00  1.9360196303421089e-04 -6.0857166435548095e-06 0.0000000000000000e+00  2.4069758518448095e-04 -7.5923467981657481e-06 0.0000000000000000e+00  2.9936813433979758e-04 -9.5239024639239560e-06 0.0000000000000000e+00  3.7336066704029880e-04 -1.2086590682426236e-05 0.0000000000000000e+00  4.6806068288280332e-04 -1.5649550398128247e-05 0.0000000000000000e+00  5.9142612412393394e-04 -2.0906818443364025e-05 0.0000000000000000e+00  7.5537160316023586e-04 -2.9195776149667690e-05 0.0000000000000000e+00  9.7752774473867346e-04 -4.3074086619716819e-05 0.0000000000000000e+00  0.0000000000000000e+00 0.0000000000000000e+00 0.0000000000000000e+00  1.1777393004589139e-05 -3.6961544423150023e-07 0.0000000000000000e+00  2.4037618070442473e-05 -7.5349565388835510e-07 0.0000000000000000e+00  3.7286574845147356e-05 -1.1664542173889095e-06 0.0000000000000000e+00  5.2079093926063454e-05 -1.6244651700691214e-06 0.0000000000000000e+00  6.9048305019469677e-05 -2.1453323761208231e-06 0.0000000000000000e+00  8.8941944493612634e-05 -2.7495026495184806e-06 0.0000000000000000e+00  1.1266995561617862e-04 -3.4611561835076840e-06 0.0000000000000000e+00  1.4137048689339565e-04 -4.3098621624249477e-06 0.0000000000000000e+00  1.7650673570755338e-04 -5.3334613752224343e-06 0.0000000000000000e+00  2.2001776332891833e-04 -6.5837632724688193e-06 0.0000000000000000e+00  2.7456825518844583e-04 -8.1389897546698025e-06 0.0000000000000000e+00  3.4398708590331248e-04 -1.0132974912223918e-05 0.0000000000000000e+00  4.3407387146572103e-04 -1.2827156496195025e-05 0.0000000000000000e+00  5.5411312138342150e-04 -1.6793785548048959e-05 0.0000000000000000e+00  7.1965496946715642e-04 -2.3388094670464417e-05 0.0000000000000000e+00  9.5721527022965395e-04 -3.5951241321417807e-05 0.0000000000000000e+00  0.0000000000000000e+00 0.0000000000000000e+00 0.0000000000000000e+00  1.0052579172237489e-05 -3.1298498843787837e-07 0.0000000000000000e+00  2.0521208787002429e-05 -6.3772475427644155e-07 0.0000000000000000e+00  3.1842112017528165e-05 -9.8631287289407471e-07 0.0000000000000000e+00  4.4494532609888055e-05 -1.3715352166172282e-06 0.0000000000000000e+00  5.9026450828508192e-05 -1.8071562077790974e-06 0.0000000000000000e+00  7.6086157030551244e-05 -2.3081008331472977e-06 0.0000000000000000e+00  9.6463119095854395e-05 -2.8904299363518597e-06 0.0000000000000000e+00  1.2114356458368838e-04 -3.5709295605182775e-06 0.0000000000000000e+00  1.5139016326469123e-04 -4.3660247922048815e-06 0.0000000000000000e+00  1.8886375933723843e-04 -5.2896221778279819e-06 0.0000000000000000e+00  2.3582513662183827e-04 -6.3496050187818185e-06 0.0000000000000000e+00  2.9550477598682393e-04 -7.5440326722314941e-06 0.0000000000000000e+00  3.7285749973119743e-04 -8.8646517571187932e-06 0.0000000000000000e+00  4.7624546179682802e-04 -1.0343261089936432e-05 0.0000000000000000e+00  6.2132307145817630e-04 -1.2287454207018399e-05 0.0000000000000000e+00  8.3947606733810213e-04 -1.6245101560679183e-05 0.0000000000000000e+00  0.0000000000000000e+00 0.0000000000000000e+00 0.0000000000000000e+00  7.9189479282236759e-06 -2.4481858432001867e-07 0.0000000000000000e+00  1.6167607834268689e-05 -4.9855966017804587e-07 0.0000000000000000e+00  2.5091675877255954e-05 -7.7030201137768908e-07 0.0000000000000000e+00  3.5071016591688645e-05 -1.0694108040370008e-06 0.0000000000000000e+00  4.6539763932894377e-05 -1.4055071825157754e-06 0.0000000000000000e+00  6.0010416355927548e-05 -1.7881385373946956e-06 0.0000000000000000e+00  7.6103752112350481e-05 -2.2258469313756646e-06 0.0000000000000000e+00  9.5586815096648166e-05 -2.7240360514243149e-06 0.0000000000000000e+00  1.1942177687772455e-04 -3.2804243946269786e-06 0.0000000000000000e+00  1.4882950916742226e-04 -3.8755691161914447e-06 0.0000000000000000e+00  1.8537521117917784e-04 -4.4530481401371898e-06 0.0000000000000000e+00  2.3109925239533609e-04 -4.8770886582519072e-06 0.0000000000000000e+00  2.8878912596036780e-04 -4.8385571179443392e-06 0.0000000000000000e+00  3.6281186349230434e-04 -3.6374018259267648e-06 0.0000000000000000e+00  4.6226472443674761e-04 3.2378504369099792e-07 0.0000000000000000e+00  6.1223650170918824e-04 1.0480021085197766e-05 0.0000000000000000e+00  0.0000000000000000e+00 0.0000000000000000e+00 0.0000000000000000e+00  5.4629050152981691e-06 -1.6794914947802447e-07 0.0000000000000000e+00  1.1153870181661933e-05 -3.4184911041435471e-07 0.0000000000000000e+00  1.7311890651701846e-05 -5.2768966134372599e-07 0.0000000000000000e+00  2.4199337316987042e-05 -7.3149553665068733e-07 0.0000000000000000e+00  3.2115386793443174e-05 -9.5914284285464400e-07 0.0000000000000000e+00  4.1411534356637383e-05 -1.2158281094014727e-06 0.0000000000000000e+00  5.2509549705823248e-05 -1.5048355673815523e-06 0.0000000000000000e+00  6.5921303254171416e-05 -1.8248870529362689e-06 0.0000000000000000e+00  8.2267240184288640e-05 -2.1645923267013783e-06 0.0000000000000000e+00  1.0228318351078953e-04 -2.4908328484492456e-06 0.0000000000000000e+00  1.2678659484427317e-04 -2.7240110605416792e-06 0.0000000000000000e+00  1.5652553213510819e-04 -2.6833265705358049e-06 0.0000000000000000e+00  1.9171440307184652e-04 -1.9576256260238424e-06 0.0000000000000000e+00  2.3081476826619559e-04 4.3632252424314253e-07 0.0000000000000000e+00  2.6819966041770761e-04 7.1587124112558327e-06 0.0000000000000000e+00  2.9964178942210468e-04 2.7576142336754980e-05 0.0000000000000000e+00  0.0000000000000000e+00 0.0000000000000000e+00 0.0000000000000000e+00  2.7860494794473813e-06 -8.5347288922289537e-08 0.0000000000000000e+00  5.6883745510670462e-06 -1.7365478742952207e-07 0.0000000000000000e+00  8.8287332573447751e-06 -2.6787772287667940e-07 0.0000000000000000e+00  1.2340587573354120e-05 -3.7093042651731342e-07 0.0000000000000000e+00  1.6375666935231781e-05 -4.8553465050863763e-07 0.0000000000000000e+00  2.1111255244702115e-05 -6.1384161100480873e-07 0.0000000000000000e+00  2.6757953329955489e-05 -7.5659829558788813e-07 0.0000000000000000e+00  3.3566601767363624e-05 -9.1139737746122234e-07 0.0000000000000000e+00  4.1830168412330784e-05 -1.0690695827006598e-06 0.0000000000000000e+00  5.1868553505156543e-05 -1.2062690348265022e-06 0.0000000000000000e+00  6.3962013479264249e-05 -1.2701806101653536e-06 0.0000000000000000e+00  7.8131443254222743e-05 -1.1469143475040270e-06 0.0000000000000000e+00  9.3438251165903284e-05 -5.9709257532384942e-07 0.0000000000000000e+00  1.0561647576703005e-04 8.6573846996863662e-07 0.0000000000000000e+00  9.7950552058388176e-05 4.1235912205019540e-06 0.0000000000000000e+00  -1.7483817121711970e-06 9.8527205516451378e-06 0.0000000000000000e+00  0.0000000000000000e+00 0.0000000000000000e+00 0.0000000000000000e+00  0.0000000000000000e+00 0.0000000000000000e+00 0.0000000000000000e+00  0.0000000000000000e+00 0.0000000000000000e+00 0.0000000000000000e+00  0.0000000000000000e+00 0.0000000000000000e+00 0.0000000000000000e+00  0.0000000000000000e+00 0.0000000000000000e+00 0.0000000000000000e+00  0.0000000000000000e+00 0.0000000000000000e+00 0.0000000000000000e+00  0.0000000000000000e+00 0.0000000000000000e+00 0.0000000000000000e+00  0.0000000000000000e+00 0.0000000000000000e+00 0.0000000000000000e+00  0.0000000000000000e+00 0.0000000000000000e+00 0.00000000000