<?xml version="1.0"?>
<VTKFile type="UnstructuredGrid"  version="0.1"  >
<UnstructuredGrid>
<Piece  NumberOfPoints="289" NumberOfCells="512">
<Points>
<DataArray  type="Float64"  NumberOfComponents="3"  format="ascii">0 0 0  0.0625 0 0  0.125 0 0  0.1875 0 0  0.25 0 0  0.3125 0 0  0.375 0 0  0.4375 0 0  0.5 0 0  0.5625 0 0  0.625 0 0  0.6875 0 0  0.75 0 0  0.8125 0 0  0.875 0 0  0.9375 0 0  1 0 0  0 0.0625 0  0.06261126731050008 0.06246867497407496 0  0.1252267277537508 0.06243669976060319 0  0.1878507935681976 0.06240344817526238 0  0.2504882120438278 0.06236837862168516 0  0.3131442660594057 0.06233108974392766 0  0.3758250221223834 0.06229139070547007 0  0.4385376710234343 0.06224938539829001 0  0.5012910564968133 0.06220556077467089 0  0.5640966082501003 0.06216085027873937 0  0.6269702012220668 0.06211660227019744 0  0.6899362802779728 0.06207428909369186 0  0.7530379173573813 0.0620345475846547 0  0.8163635227331735 0.06199440380411012 0  0.8801236344295085 0.0619389954591315 0  0.9448896436733136 0.06181435825250579 0  1.012419159162536 0.0614251393563247 0  0 0.125 0  0.06271842590669122 0.1249379613381953 0  0.1254451294614626 0.1248745763646084 0  0.188188822470183 0.1248085420317344 0  0.2509588931697136 0.1247387129730217 0  0.3137658087899718 0.1246642094593052 0  0.376621606142984 0.1245845592831877 0  0.4395405428585757 0.1244998773395832 0  0.5025400490508996 0.1244110735202864 0  0.5656422643365991 0.1243200524347467 0  0.6288767599221999 0.1242298168938453 0  0.6922857177605385 0.1241442981094875 0  0.7559341851326786 0.1240676135166553 0  0.8199302058058546 0.1240024384156165 0  0.8844603819540477 0.1239481620666871 0  0.9498287026795186 0.1239061504042183 0  1.016358401198754 0.1239345808657591 0  0 0.1875 0  0.06281737150799434 0.1874085710998105 0  0.1256468339990955 0.1873150198237553 0  0.1885011064712118 0.1872172764728394 0  0.2513939090412514 0.1871134774994985 0  0.3143405507960578 0.1870021164832203 0  0.377358628599867 0.1868822548467566 0  0.4404689094199899 0.1867538084296898 0  0.5036965130569256 0.1866179157319451 0  0.5670725874736547 0.186477369586329 0  0.6306367796888458 0.1863370457774192 0  0.6944408991227874 0.1862041762476437 0  0.7585539435612053 0.1860881773186087 0  0.8230669155636997 0.1859995301221193 0  0.8880887883071371 0.1859467157451367 0  0.9537032311091853 0.1859277847792963 0  1.019809648381065 0.1858982305201239 0  0 0.25 0  0.06290429582358187 0.2498812936774559 0  0.1258240686897926 0.2497595877684546 0  0.188775582605608 0.2496319289368923 0  0.2517763940326279 0.2494955781431867 0  0.3148461012293269 0.2493481856062857 0  0.3780072161483282 0.2491880557465439 0  0.4412862182211689 0.2490145383375891 0  0.5047148584669527 0.2488285820723486 0  0.5683317717873255 0.2486334769608396 0  0.6321843696311481 0.2484357810916432 0  0.6963306677787666 0.2482463563177009 0  0.7608397505793592 0.2480812953415047 0  0.8257870740036345 0.2479622556611752 0  0.8912352489088766 0.247915229162916 0  0.9571820134510564 0.2479660667591839 0  1.023455596719078 0.2481320716217857 0  0 0.3125 0  0.06297583309375841 0.3123570149602939 0  0.1259699603401085 0.3122100510707438 0  0.1890015771006888 0.3120551472764129 0  0.2520914174704341 0.3118885078991729 0  0.3152626409735982 0.3117066695196108 0  0.3785418560986353 0.3115067860783943 0  0.4419603356284926 0.3112870931985268 0  0.5055554694024015 0.3110476301586819 0  0.5693724488251641 0.3107913146346738 0  0.6334660159369777 0.3105254704526293 0  0.6979016929397975 0.3102638773651584 0  0.7627549696532326 0.3100292932398909 0  0.8281051232755848 0.309856101645566 0  0.8940177690312341 0.3097921405998842 0  0.9605094363678975 0.3098978531600202 0  1.027498140003659 0.310240093746238 0  0 0.375 0  0.06302919006750095 0.3748367161022144 0  0.1260788011650903 0.3746683989610949 0  0.1891702182520141 0.3744899778283556 0  0.2523265544969811 0.3742964274412772 0  0.3155736486854339 0.3740828809750586 0  0.3789412253226683 0.3738448772623926 0  0.4424642905260847 0.3735788264183254 0  0.5061848406165391 0.3732828181772342 0  0.5701539353200692 0.3729579523977794 0  0.6344340836200034 0.3726104363358896 0  0.6991016118419116 0.3722547437054026 0  0.7642480932008322 0.3719180938906133 0  0.8299789585315698 0.3716462228976848 0  0.8964065938418551 0.3715096108384779 0  0.963636898730221 0.3716077949959108 0  1.031758210919277 0.3720675276377711 0  0 0.4375 0  0.06306225729021973 0.4373214449547576 0  0.1261462768675755 0.4371367876223054 0  0.1892747917900912 0.436939804845245 0  0.2524723809812673 0.4367241227108871 0  0.3157665400933931 0.4364832196122789 0  0.3791889482751454 0.4362105553769098 0  0.4427770426547513 0.4358999227637905 0  0.5065760602140889 0.4355461809133075 0  0.5706417715192819 0.4351466312494469 0  0.6350442010251245 0.4347034467071937 0  0.699872666271818 0.4342277605740045 0  0.7652423987968725 0.4337461929190521 0  0.8313027809581514 0.4333104962734633 0  0.8982471470544288 0.4330100591039876 0  0.9663258455024559 0.4329843904922347 0  1.03587303321543 0.4334285513463789 0  0 0.5 0  0.06307369930998297 0.4998122549770184 0  0.1261696531121084 0.4996174193872689 0  0.1893110368717025 0.4994081750336603 0  0.2525229015490114 0.4991767897290589 0  0.3158332631431373 0.4989149537309662 0  0.3792744112371173 0.4986136994457555 0  0.4428845900007682 0.4982634909575533 0  0.5067103138398492 0.4978546475794762 0  0.5708097779933986 0.4973784058699602 0  0.6352581671046245 0.4968291706450568 0  0.7001562099011575 0.4962089134110876 0  0.765644078371447 0.4955352681490992 0  0.8319235187255072 0.4948554392065308 0  0.8992916081873139 0.4942675640735761 0  0.9681904379363075 0.4939469376545942 0  1.039285186361306 0.4941625581655524 0  0 0.5625 0  0.06306301923697172 0.5623101108068671 0  0.1261479105610975 0.5621123482850159 0  0.1892773659256444 0.5618984933991981 0  0.2524758842323052 0.5616596115496809 0  0.3157708087675419 0.5613856796758668 0  0.3791935734597013 0.5610652157305329 0  0.442781327678637 0.5606849566634191 0  0.5065792680496102 0.5602297019989164 0  0.57064433724555 0.5596825881535954 0  0.6350516171978153 0.5590263652656245 0  0.6999060096328766 0.5582468743137154 0  0.7653639593002718 0.5573411477230327 0  0.8316730069717427 0.5563346719448858 0  0.8992396055990346 0.5553146724591935 0  0.9687354247822083 0.5544834628458598 0  1.041254655071238 0.5542143014531735 0  0 0.625 0  0.06303059099406724 0.6248157664216568 0  0.1260818128203883 0.6246232220760201 0  0.1891749773205278 0.6244136003492508 0  0.2523330410289491 0.6241771273674883 0  0.3155815171797573 0.6239024287469224 0  0.3789495376679463 0.623575828397458 0  0.4424711980937664 0.6231805140075476 0  0.5061874784658443 0.6226955773667306 0  0.5701494184751845 0.6220950337135296 0  0.6344241356143937 0.6213471805582603 0  0.6991073240505556 0.6204153252819236 0  0.7643501756225562 0.6192626450169652 0  0.8304165645202375 0.6178683153235853 0  0.8977967777956829 0.6162716922783487 0  0.9674061969232191 0.6146719539128642 0  1.040882766289554 0.6135733349797692 0  0 0.6875 0  0.06297765268916784 0.6873296300217272 0  0.1259738915911081 0.6871509893516563 0  0.1890078284860733 0.6869552729614521 0  0.2520999867741828 0.6867324482392587 0  0.3152730343911104 0.6864704770676556 0  0.3785525661251805 0.6861543135448409 0  0.4419679711004929 0.6857645632151579 0  0.505553499426196 0.6852756583390875 0  0.5693499069944548 0.6846533813293553 0  0.6334078712078596 0.6838516105874951 0  0.6977967110322419 0.682808470740555 0  0.7626282860684179 0.6814433823230832 0  0.8281217998694519 0.6796616167292202 0  0.8947684023289887 0.6773923454127403 0  0.9636833059606419 0.6747514713285679 0  1.037167959803052 0.6724679268649446 0  0 0.75 0  0.06290625787907494 0.7498516375071184 0  0.1258283417835183 0.749695618597634 0  0.1887824550418762 0.7495237286779163 0  0.2517859438736557 0.7493264381222232 0  0.3148578368052026 0.7490920272117984 0  0.3780193268318431 0.7488053981031441 0  0.4412941042393709 0.7484463816973472 0  0.5047083713979273 0.7479872467166562 0  0.5682903012036757 0.7473889541195751 0  0.6320688437713167 0.7465954339354253 0  0.6960730037655709 0.7455247474041802 0  0.7603381732554021 0.7440555056542973 0  0.8249466745899078 0.7420074947697952 0  0.8902005142456415 0.7391258510614702 0  0.957236100593264 0.7351609419065012 0  1.029026408139494 0.7307421548221943 0  0 0.8125 0  0.06281918732606197 0.8123811610696196 0  0.1256508342489082 0.812255888261446 0  0.1885076543933179 0.8121172360885702 0  0.2514032311736867 0.8119570334222427 0  0.3143523900260037 0.8117650401808699 0  0.3773714508579087 0.8115277631275655 0  0.4404781768002505 0.8112267028747573 0  0.5036910084435058 0.8108356634262066 0  0.5670266982555379 0.8103165062881978 0  0.6304945263627608 0.8096122716407134 0  0.6940837183810806 0.808635669720889 0  0.7577394337352682 0.8072488753882984 0  0.8213294351832606 0.8052254225270502 0  0.8846603411032105 0.8021730279638595 0  0.9479436922700043 0.7973897007163426 0  1.015942423375223 0.790012985170103 0  0 0.875 0  0.06271982965708114 0.8749169784508826 0  0.1254482681728903 0.8748293065017873 0  0.1881940839759328 0.8747319418369016 0  0.2509666473975375 0.8746188930038408 0  0.3137761776039144 0.8744825517361393 0  0.3766338810123602 0.8743127349458969 0  0.4395518014484329 0.8740952333232563 0  0.5025419419201803 0.8738095305300216 0  0.5656135779410526 0.8734251233503018 0  0.6287660837229871 0.8728954602631865 0  0.6919705781780234 0.8721477441345372 0  0.7551238446418636 0.8710650711259789 0  0.817935851860618 0.8694513645180992 0  0.8796747048103234 0.8669421346704194 0  0.9386900400454647 0.8626936357491443 0  0.9919242740841691 0.8541283990033961 0  0 0.9375 0  0.06261204203682398 0.9374573204472735 0  0.1252284903270563 0.9374122025827806 0  0.1878538329804519 0.9373619958516118 0  0.2504928797696653 0.9373035324669287 0  0.3131509011477921 0.9372327588503413 0  0.3758337207215456 0.9371442000692439 0  0.43854767
[...]
<PointData  Vectors="f_54"> 
<DataArray  type="Float64"  Name="f_54"  NumberOfComponents="3" format="ascii">0.0000000000000000e+00 0.0000000000000000e+00 0.0000000000000000e+00  0.0000000000000000e+00 0.0000000000000000e+00 0.0000000000000000e+00  0.0000000000000000e+00 0.0000000000000000e+00 0.0000000000000000e+00  0.0000000000000000e+00 0.0000000000000000e+00 0.0000000000000000e+00  0.0000000000000000e+00 0.0000000000000000e+00 0.0000000000000000e+00  0.0000000000000000e+00 0.0000000000000000e+00 0.0000000000000000e+00  0.0000000000000000e+00 0.0000000000000000e+00 0.0000000000000000e+00  0.0000000000000000e+00 0.0000000000000000e+00 0.0000000000000000e+00  0.0000000000000000e+00 0.0000000000000000e+00 0.0000000000000000e+00  0.0000000000000000e+00 0.0000000000000000e+00 0.0000000000000000e+00  0.0000000000000000e+00 0.0000000000000000e+00 0.0000000000000000e+00  0.0000000000000000e+00 0.0000000000000000e+00 0.0000000000000000e+00  0.0000000000000000e+00 0.0000000000000000e+00 0.0000000000000000e+00  0.0000000000000000e+00 0.0000000000000000e+00 0.0000000000000000e+00  0.0000000000000000e+00 0.0000000000000000e+00 0.0000000000000000e+00  0.0000000000000000e+00 0.0000000000000000e+00 0.0000000000000000e+00  0.0000000000000000e+00 0.0000000000000000e+00 0.0000000000000000e+00  0.0000000000000000e+00 0.0000000000000000e+00 0.0000000000000000e+00  -2.7067381746498120e-06 -2.1932733080288656e-07 0.0000000000000000e+00  -5.4720706225553064e-06 -4.3906549668252697e-07 0.0000000000000000e+00  -8.3539811738312199e-06 -6.5903691427281791e-07 0.0000000000000000e+00  -1.1403197045816203e-05 -8.7739670717260030e-07 0.0000000000000000e+00  -1.4657856490284901e-05 -1.0897002394701696e-06 0.0000000000000000e+00  -1.8135758737112484e-05 -1.2879118353947542e-06 0.0000000000000000e+00  -2.1822949180370734e-05 -1.4594751614130369e-06 0.0000000000000000e+00  -2.5656783095807956e-05 -1.5867465790897337e-06 0.0000000000000000e+00  -2.9500298841162593e-05 -1.6474109313385648e-06 0.0000000000000000e+00  -3.3101628250791655e-05 -1.6170661438848704e-06 0.0000000000000000e+00  -3.6024207277134881e-05 -1.4762624419619789e-06 0.0000000000000000e+00  -3.7511529720241393e-05 -1.2268273439779860e-06 0.0000000000000000e+00  -3.6184541290866775e-05 -9.2967388686880921e-07 0.0000000000000000e+00  -2.9257051725954755e-05 -8.0201946172537983e-07 0.0000000000000000e+00  -1.0181608089413121e-05 -1.5170394928537160e-06 0.0000000000000000e+00  3.9922102551875773e-05 -5.4048619419719377e-06 0.0000000000000000e+00  0.0000000000000000e+00 0.0000000000000000e+00 0.0000000000000000e+00  -5.3618801537805838e-06 -4.3879178685620848e-07 0.0000000000000000e+00  -1.0845379788771794e-05 -8.7924893347124226e-07 0.0000000000000000e+00  -1.6571396136824147e-05 -1.3218870249807610e-06 0.0000000000000000e+00  -2.2647825855251557e-05 -1.7639299681410814e-06 0.0000000000000000e+00  -2.9159771140299873e-05 -2.1973920966526813e-06 0.0000000000000000e+00  -3.6155068602703916e-05 -2.6069243601033065e-06 0.0000000000000000e+00  -4.3622807330813411e-05 -2.9675804548325794e-06 0.0000000000000000e+00  -5.1461555989887621e-05 -3.2429732088733930e-06 0.0000000000000000e+00  -5.9432211828551596e-05 -3.3848425221894415e-06 0.0000000000000000e+00  -6.7086630677231116e-05 -3.3359696622897303e-06 0.0000000000000000e+00  -7.3654938126329952e-05 -3.0397995700513387e-06 0.0000000000000000e+00  -7.7855953623684216e-05 -2.4621539446095344e-06 0.0000000000000000e+00  -7.7555301415949775e-05 -1.6324149260255649e-06 0.0000000000000000e+00  -6.9121104955837740e-05 -7.0828348364297442e-07 0.0000000000000000e+00  -4.6258438833052975e-05 -2.5456440977648642e-08 0.0000000000000000e+00  1.4030671005723614e-06 2.0839756225838736e-07 0.0000000000000000e+00  0.0000000000000000e+00 0.0000000000000000e+00 0.0000000000000000e+00  -7.8996745395297979e-06 -6.5688283291855958e-07 0.0000000000000000e+00  -1.5991117935790890e-05 -1.3183089306297655e-06 0.0000000000000000e+00  -2.4466166060111780e-05 -1.9871997074275917e-06 0.0000000000000000e+00  -3.3500830495566666e-05 -2.6617425630826113e-06 0.0000000000000000e+00  -4.3242784762465240e-05 -3.3324635867170863e-06 0.0000000000000000e+00  -5.3792296409394231e-05 -3.9786936211672460e-06 0.0000000000000000e+00  -6.5173457827822224e-05 -4.5644632517833910e-06 0.0000000000000000e+00  -7.7291610720292754e-05 -5.0342235625158292e-06 0.0000000000000000e+00  -8.9871418299150872e-05 -5.3094672098389418e-06 0.0000000000000000e+00  -1.0236777697840904e-04 -5.2884945453187185e-06 0.0000000000000000e+00  -1.1383819339489139e-04 -4.8534087891925844e-06 0.0000000000000000e+00  -1.2276056029104590e-04 -3.8909659364064807e-06 0.0000000000000000e+00  -1.2677963776077056e-04 -2.3367009642609866e-06 0.0000000000000000e+00  -1.2239691363900723e-04 -2.5338483865162640e-07 0.0000000000000000e+00  -1.0479290496260317e-04 2.0453457844982898e-06 0.0000000000000000e+00  -6.8635443709941804e-05 3.7868232606206964e-06 0.0000000000000000e+00  0.0000000000000000e+00 0.0000000000000000e+00 0.0000000000000000e+00  -1.0247721114603140e-05 -8.7047514113087305e-07 0.0000000000000000e+00  -2.0765770958771529e-05 -1.7506658373251536e-06 0.0000000000000000e+00  -3.1826543603083300e-05 -2.6483798267003029e-06 0.0000000000000000e+00  -4.3687895175752118e-05 -3.5656677123099308e-06 0.0000000000000000e+00  -5.6580368863671653e-05 -4.4949839021554547e-06 0.0000000000000000e+00  -7.0686484426855841e-05 -5.4141594766379824e-06 0.0000000000000000e+00  -8.6108308248679155e-05 -6.2798984011271399e-06 0.0000000000000000e+00  -1.0281860933889183e-04 -7.0197812303725590e-06 0.0000000000000000e+00  -1.2058999691109581e-04 -7.5233995772764033e-06 0.0000000000000000e+00  -1.3889593267459846e-04 -7.6345553847565932e-06 0.0000000000000000e+00  -1.5677846375541717e-04 -7.1488875950751719e-06 0.0000000000000000e+00  -1.7268285715438191e-04 -5.8253946102347635e-06 0.0000000000000000e+00  -1.8427746552751858e-04 -3.4266544860364673e-06 0.0000000000000000e+00  -1.8833087025412688e-04 1.8863737407599583e-07 0.0000000000000000e+00  -1.8085621827612942e-04 4.8870347757044269e-06 0.0000000000000000e+00  -1.5798803782509857e-04 9.9601763301844705e-06 0.0000000000000000e+00  0.0000000000000000e+00 0.0000000000000000e+00 0.0000000000000000e+00  -1.2326067338663014e-05 -1.0741969834207968e-06 0.0000000000000000e+00  -2.5008737139630543e-05 -2.1660215038968638e-06 0.0000000000000000e+00  -3.8410063515906862e-05 -3.2912212363924218e-06 0.0000000000000000e+00  -5.2883826445739001e-05 -4.4595172193302286e-06 0.0000000000000000e+00  -6.8765508426210255e-05 -5.6701829849909409e-06 0.0000000000000000e+00  -8.6353555610087904e-05 -6.9057150366591074e-06 0.0000000000000000e+00  -1.0587753619306798e-04 -8.1227704487504906e-06 0.0000000000000000e+00  -1.2744768357188672e-04 -9.2395297785164568e-06 0.0000000000000000e+00  -1.5097940604905365e-04 -1.0118932430318965e-05 0.0000000000000000e+00  -1.7608651062026731e-04 -1.0548279420201137e-05 0.0000000000000000e+00  -2.0193990358103862e-04 -1.0218369068037278e-05 0.0000000000000000e+00  -2.2709786267855565e-04 -8.7111028333789752e-06 0.0000000000000000e+00  -2.4933587923776007e-04 -5.5154893978936692e-06 0.0000000000000000e+00  -2.6554774025934442e-04 -1.1012421736031227e-07 0.0000000000000000e+00  -2.7185777443951612e-04 7.8260159673210044e-06 0.0000000000000000e+00  -2.6412117477994413e-04 1.7995983705863026e-05 0.0000000000000000e+00  0.0000000000000000e+00 0.0000000000000000e+00 0.0000000000000000e+00  -1.4048263259865413e-05 -1.2600351115648801e-06 0.0000000000000000e+00  -2.8544021287067462e-05 -2.5484148217193761e-06 0.0000000000000000e+00  -4.3945022815072213e-05 -3.8920808997568873e-06 0.0000000000000000e+00  -6.0712416670121391e-05 -5.3128111212357201e-06 0.0000000000000000e+00  -7.9306890372420177e-05 -6.8228715000083288e-06 0.0000000000000000e+00  -1.0017614698148884e-04 -8.4180858448652448e-06 0.0000000000000000e+00  -1.2372875387047910e-04 -1.0066823905505681e-05 0.0000000000000000e+00  -1.5028760280737019e-04 -1.1692853185619314e-05 0.0000000000000000e+00  -1.8001438796975776e-04 -1.3149449398467247e-05 0.0000000000000000e+00  -2.1279562618811449e-04 -1.4182072225501273e-05 0.0000000000000000e+00  -2.4808299442862582e-04 -1.4378470351157526e-05 0.0000000000000000e+00  -2.8469010075913545e-04 -1.3110876030378875e-05 0.0000000000000000e+00  -3.2056949562377692e-04 -9.4896024908154912e-06 0.0000000000000000e+00  -3.5262935066628629e-04 -2.3763202280267490e-06 0.0000000000000000e+00  -3.7667957180953385e-04 9.4524075695093617e-06 0.0000000000000000e+00  -3.8754452250257894e-04 2.6868829479138046e-05 0.0000000000000000e+00  0.0000000000000000e+00 0.0000000000000000e+00 0.0000000000000000e+00  -1.5324710757869844e-05 -1.4173209584994064e-06 0.0000000000000000e+00  -3.1186744704671657e-05 -2.8760304522811768e-06 0.0000000000000000e+00  -4.8139743503135219e-05 -4.4171380439762754e-06 0.0000000000000000e+00  -6.6757663107452640e-05 -6.0787939802145042e-06 0.0000000000000000e+00  -8.7640663929877731e-05 -7.8930158309352215e-06 0.0000000000000000e+00  -1.1141365185421669e-04 -9.8795032582910666e-06 0.0000000000000000e+00  -1.3871218761234578e-04 -1.2034426991610173e-05 0.0000000000000000e+00  -1.7014758036414820e-04 -1.4310788354283840e-05 0.0000000000000000e+00  -2.0623917351280080e-04 -1.6585014014566442e-05 0.0000000000000000e+00  -2.4729783716262384e-04 -1.8601934533230468e-05 0.0000000000000000e+00  -2.9324290413998449e-04 -1.9888060425929448e-05 0.0000000000000000e+00  -3.4334079231967935e-04 -1.9624241850312736e-05 0.0000000000000000e+00  -3.9587645643564056e-04 -1.6481269757641806e-05 0.0000000000000000e+00  -4.4781379697484731e-04 -8.4594239031224003e-06 0.0000000000000000e+00  -4.9453977150333128e-04 7.1569987801731671e-06 0.0000000000000000e+00  -5.2970465373353528e-04 3.3557935088644399e-05 0.0000000000000000e+00  0.0000000000000000e+00 0.0000000000000000e+00 0.0000000000000000e+00  -1.6068406747010994e-05 -1.5332467350380443e-06 0.0000000000000000e+00  -3.2754759457532824e-05 -3.1221106940348433e-06 0.0000000000000000e+00  -5.0700260351722608e-05 -4.8234023752697225e-06 0.0000000000000000e+00  -7.0587567218078869e-05 -6.6949008916771283e-06 0.0000000000000000e+00  -9.3159808982749503e-05 -8.7943911871429583e-06 0.0000000000000000e+00  -1.1923537873299007e-04 -1.1176153052571430e-05 0.0000000000000000e+00  -1.4971368797728562e-04 -1.3882562674704749e-05 0.0000000000000000e+00  -1.8556291714640722e-04 -1.6926492142845543e-05 0.0000000000000000e+00  -2.2777421055615647e-04 -2.0256646595406229e-05 0.0000000000000000e+00  -2.7725739818665888e-04 -2.3691885411738333e-05 0.0000000000000000e+00  -3.3464279575577639e-04 -2.6800983656065141e-05 0.0000000000000000e+00  -3.9994929934015767e-04 -2.8692090816997571e-05 0.0000000000000000e+00  -4.7210014800313279e-04 -2.7669854643690425e-05 0.0000000000000000e+00  -5.4834458349524396e-04 -2.0745160702627118e-05 0.0000000000000000e+00  -6.2376603358541233e-04 -3.0843931582843299e-06 0.0000000000000000e+00  -6.9101645638361604e-04 3.2397937426848029e-05 0.0000000000000000e+00  0.0000000000000000e+00 0.0000000000000000e+00 0.0000000000000000e+00  -1.6202875847778701e-05 -1.5940137150469335e-06 0.0000000000000000e+00  -3.3085068256892257e-05 -3.2572445774983757e-06 0.0000000000000000e+00  -5.1356270850918734e-05 -5.0620747721434160e-06 0.0000000000000000e+00  -7.1790892903806830e-05 -7.0868960000482230e-06 0.0000000000000000e+00  -9.5262680606463221e-05 -9.4186422316174746e-06 0.0000000000000000e+00  -1.2278051631199924e-04 -1.2154082118826192e-05 0.0000000000000000e+00  -1.5552255006248141e-04 -1.5398067232625975e-05 0.0000000000000000e+00  -1.9486096102608514e-04 -1.9254767105119229e-05 0.0000000000000000e+00  -2.4236040127562046e-04 -2.3803399855312437e-05 0.0000000000000000e+00  -2.9971683123041187e-04 -2.9040599949977058e-05 0.0000000000000000e+00  -3.6857789907115626e-04 -3.4752601919339704e-05 0.0000000000000000e+00  -4.5015576864185436e-04 -4.0244330794938299e-05 0.0000000000000000e+00  -5.4453823033802167e-04 -4.3794446224713444e-05 0.0000000000000000e+00  -6.4971640251039659e-04 -4.1655054480812745e-05 0.0000000000000000e+00  -7.6070949743072024e-04 -2.6513966699744778e-05 0.0000000000000000e+00  -8.6954030423450025e-04 1.4289921677392945e-05 0.0000000000000000e+00  0.0000000000000000e+00 0.0000000000000000e+00 0.0000000000000000e+00  -1.5671702424440647e-05 -1.5866052031301810e-06 0.0000000000000000e+00  -3.2053969288395139e-05 -3.2530837609711790e-06 0.0000000000000000e+00  -4.9894014555718468e-05 -5.0845247646123284e-06 0.0000000000000000e+00  -7.0025813200166081e-05 -7.1774914230083384e-06 0.0000000000000000e+00  -9.3420935910327262e-05 -9.6467480911979977e-06 0.0000000000000000e+00  -1.2124821035406269e-04 -1.2632951072580532e-05 0.0000000000000000e+00  -1.5494349325740161e-04 -1.6310984689286298e-05 0.0000000000000000e+00  -1.9628687329270610e-04 -2.0897233099424715e-05 0.0000000000000000e+00  -2.4747483981589757e-04 -2.6650457395857921e-05 0.0000000000000000e+00  -3.1115307627930074e-04 -3.3851655341399655e-05 0.0000000000000000e+00  -3.9033101675746743e-04 -4.2724517202951094e-05 0.0000000000000000e+00  -4.8802013326418461e-04 -5.3197843714664864e-05 0.0000000000000000e+00  -6.0633669883373043e-04 -6.4265417661674271e-05 0.0000000000000000e+00  -7.4484588504401968e-04 -7.2404475067853484e-05 0.0000000000000000e+00  -8.9868327869005362e-04 -6.8286711689476181e-05 0.0000000000000000e+00  -1.0584092520370509e-03 -3.2063648096839759e-05 0.0000000000000000e+00  0.0000000000000000e+00 0.0000000000000000e+00 0.0000000000000000e+00  -1.4448617035458851e-05 -1.5010103301125718e-06 0.0000000000000000e+00  -2.9598860366119098e-05 -3.0871640882213327e-06 0.0000000000000000e+00  -4.6193109632051562e-05 -4.8504977589939153e-06 0.0000000000000000e+00  -6.5076969518830112e-05 -6.8992178280947396e-06 0.0000000000000000e+00  -8.7263935467398498e-05 -9.3683839854449140e-06 0.0000000000000000e+00  -1.1401779971239482e-04 -1.2434159384200021e-05 0.0000000000000000e+00  -1.4696042751879344e-04 -1.6333476865988464e-05 0.0000000000000000e+00  -1.8821214025137014e-04 -2.1391381995000910e-05 0.0000000000000000e+00  -2.4056661134963951e-04 -2.8058135072045093e-05 0.0000000000000000e+00  -3.0768282535304783e-04 -3.6955201616866873e-05 0.0000000000000000e+00  -3.9422186608605443e-04 -4.8915648791911649e-05 0.0000000000000000e+00  -5.0572012556854209e-04 -6.4951695424281524e-05 0.0000000000000000e+00  -6.4769378998581360e-04 -8.5887007724450920e-05 0.0000000000000000e+00  -8.2301971546313083e-04 -1.1070046983297563e-04 0.0000000000000000e+00  -1.0275597886136730e-03 -1.3072871631519459e-04 0.0000000000000000e+00  -1.2508282951771657e-03 -1.1829146639806874e-04 0.0000000000000000e+00  0.0000000000000000e+00 0.0000000000000000e+00 0.0000000000000000e+00  -1.2546632456591676e-05 -1.3325386333166588e-06 0.0000000000000000e+00  -2.5738558470741145e-05 -2.7480684027968335e-06 0.0000000000000000e+00  -4.0262362847886152e-05 -4.3373040456569165e-06 0.0000000000000000e+00  -5.6914044607167709e-05 -6.2097457965303135e-06 0.0000000000000000e+00  -7.6671308592466764e-05 -8.5069054977474496e-06 0.0000000000000000e+00  -1.0079153674321729e-04 -1.1421221550199574e-05 0.0000000000000000e+00  -1.3095039388765856e-04 -1.5224542592125884e-05 0.0000000000000000e+00  -1.6944200276524800e-04 -2.0312563931414208e-05 0.0000000000000000e+00  -2.1946769239157188e-04 -2.7276113348653730e-05 0.0000000000000000e+00  -2.8553935770727869e-04 -3.7018297901437842e-05 0.0000000000000000e+00  -3.7399102083822183e-04 -5.0950136656234402e-05 0.0000000000000000e+00  -4.9345333994833557e-04 -7.1311983418083494e-05 0.0000000000000000e+00  -6.5468106998186834e-04 -1.0162479892080241e-04 0.0000000000000000e+00  -8.6767701140238269e-04 -1.4674292417676731e-04 0.0000000000000000e+00  -1.1299711878409915e-03 -2.0793257055144975e-04 0.0000000000000000e+00  -1.4269804128618732e-03 -2.4548067198131403e-04 0.0000000000000000e+00  0.0000000000000000e+00 0.0000000000000000e+00 0.0000000000000000e+00  -1.0024390564193004e-05 -1.0837242689775396e-06 0.0000000000000000e+00  -2.0588097860527160e-05 -2.2398013041097846e-06 0.0000000000000000e+00  -3.2267620347265399e-05 -3.5479512538318319e-06 0.0000000000000000e+00  -4.5741033566856890e-05 -5.1062174361476934e-06 0.0000000000000000e+00  -6.1857990238953513e-05 -7.0443359636076544e-06 0.0000000000000000e+00  -8.1739171368566782e-05 -9.5435407213265532e-06 0.0000000000000000e+00  -1.0692556305095459e-04 -1.2867560657927396e-05 0.0000000000000000e+00  -1.3961095572115521e-04 -1.7413123521201830e-05 0.0000000000000000e+00  -1.8301281509190467e-04 -2.3795366991813985e-05 0.0000000000000000e+00  -2.4196985645815784e-04 -3.2998793025026633e-05 0.0000000000000000e+00  -3.2389299100407610e-04 -4.6660590807251229e-05 0.0000000000000000e+00  -4.4018974530402337e-04 -6.7647781194728844e-05 0.0000000000000000e+00  -6.0801170143974341e-04 -1.0134886327124651e-04 0.0000000000000000e+00  -8.5077304192027832e-04 -1.5875996452542856e-04 0.0000000000000000e+00  -1.1886457104107755e-03 -2.6334761941221410e-04 0.0000000000000000e+00  -1.5252752139214938e-03 -4.5234662063442141e-04 0.0000000000000000e+00  0.0000000000000000e+00 0.0000000000000000e+00 0.0000000000000000e+00  -6.9878592768025321e-06 -7.6529608006349314e-07 0.0000000000000000e+00  -1.4363708074293768e-05 -1.5841475775668936e-06 0.0000000000000000e+00  -2.2543682209917549e-05 -2.5158635431160663e-06 0.0000000000000000e+00  -3.2022387320484902e-05 -3.6342601627678144e-06 0.0000000000000000e+00  -4.3428650802527115e-05 -5.0384333535528814e-06 0.0000000000000000e+00  -5.7607461606626342e-05 -6.8689481863530710e-06 0.0000000000000000e+00  -7.5748322623250537e-05 -9.3334428889153699e-06 0.0000000000000000e+00  -9.9596378119102787e-05 -1.2748448402267872e-05 0.0000000000000000e+00  -1.3181435187812186e-04 -1.7609285848402494e-05 0.0000000000000000e+00  -1.7662589118751563e-04 -2.4709408459494743e-05 0.0000000000000000e+00  -2.4099231947785477e-04 -3.5351084201601482e-05 0.0000000000000000e+00  -3.3679246140274309e-04 -5.1749500024459503e-05 0.0000000000000000e+00  -4.8478060789605601e-04 -7.7979769193819540e-05 0.0000000000000000e+00  -7.2125242001076740e-04 -1.2299762050786342e-04 0.0000000000000000e+00  -1.1082319413496852e-03 -2.1257029574349638e-04 0.0000000000000000e+00  -1.7537177646761105e-03 -4.3157740010736731e-04 0.0000000000000000e+00  0.0000000000000000e+00 0.0000000000000000e+00 0.0000000000000000e+00  -3.5859916825474676e-06 -3.9583137224901632e-07 0.0000000000000000e+00  -7.3745411310860057e-06 -8.2008561771787240e-07 0.0000000000000000e+00  -1.1583280573747267e-05 -1.3043158006349739e-06 0.0000000000000000e+00  -1.6472397712825873e-05 -1.8880273994278856e-06 0.0000000000000000e+00  -2.2375401271338648e-05 -2.6246146550110577e-06 0.0000000000000000e+00  -2.9745230587773438e-05 -3.5902951210560183e-06 0.0000000000000000e+00  -3.9228316761768621e-05 -4.8981484715394117e-06 0.0000000000000000e+00  -5.1790464803066394e-05 -6.7204941635117650e-06 0.0000000000000000e+00  -6.8942339123883534e-05 -9.3238536920250103e-06 0.0000000000000000e+00  -9.3164867139933444e-05 -1.3118497018159024e-05 0.0000000000000000e+00  -1.2875224207992990e-04 -1.8704053405150449e-05 0.0000000000000000e+00  -1.8353980573166645e-04 -2.6788487942156862e-05 0.0000000000000000e+00  -2.7235905949321999e-04 -3.7407193437253814e-05 0.0000000000000000e+00  -4.2230402763767321e-04 -4.6252976664099262e-05 0.0000000000000000e+00  -6.6860848311468661e-04 -3.3385200367910157e-05 0.0000000000000000e+00  -9.8929431312108065e-04 3.9981018928508760e-05 0.0000000000000000e+00  0.0000000000000000e+00 0.0000000000000000e+00 0.0000000000000000e+00  0.0000000000000000e+00 0.0000000000000000e+00 0.0000000000000000e+00  0.0000000000000000e+00 0.0000000000000000e+00 0.0000000000000000e+00  0.0000000000000000e+00 0.0000000000000000e+00 0.0000000000000000e+00  0.0000000000000000e+00 0.0000000000000000e+00 0.0000000000000000e+00  0.0000000000000000e+00 0.00000000000000