<?xml version="1.0"?>
<VTKFile type="UnstructuredGrid"  version="0.1"  >
<UnstructuredGrid>
<Piece  NumberOfPoints="289" NumberOfCells="512">
<Points>
<DataArray  type="Float64"  NumberOfComponents="3"  format="ascii">0 0 0  0.0625 0 0  0.125 0 0  0.1875 0 0  0.25 0 0  0.3125 0 0  0.375 0 0  0.4375 0 0  0.5 0 0  0.5625 0 0  0.625 0 0  0.6875 0 0  0.75 0 0  0.8125 0 0  0.875 0 0  0.9375 0 0  1 0 0  0 0.0625 0  0.06257216011672259 0.0624832134438003 0  0.1251470885296553 0.06246609101015718 0  0.1877276825128614 0.06244831543768198 0  0.2503170618894781 0.06242961879771694 0  0.3129186981762194 0.06240981468647647 0  0.3755365700390484 0.06238883842924236 0  0.4381753701338751 0.06236679497936982 0  0.5008408179542164 0.06234400956395369 0  0.5635402066525131 0.06232106687620034 0  0.6262835010926403 0.06229880612372131 0  0.6890858178724948 0.06227819982088243 0  0.751973593603312 0.06225994722688748 0  0.8150012550066553 0.06224332436147049 0  0.8782998443876304 0.06222281114886577 0  0.9422299527978445 0.06217696985804268 0  1.007909582328873 0.06202688809112645 0  0 0.125 0  0.06264158261899103 0.1249667497912747 0  0.1252886182560662 0.1249328027161005 0  0.1879468160217008 0.1248974962250635 0  0.2506223319628652 0.124860260239446 0  0.3133220271829735 0.1248206797032708 0  0.3760537739036476 0.1247785755551321 0  0.4388268478572729 0.1247341059842232 0  0.5016524822121657 0.1246878827620815 0  0.5645447407200829 0.1246410834467646 0  0.6275220517970953 0.1245955148316331 0  0.6906101462949352 0.1245535417230735 0  0.7538479562527498 0.1245177446837489 0  0.8172993642633168 0.1244901886462601 0  0.8810741257177392 0.1244717208446352 0  0.9453499570491622 0.1244650398487892 0  1.01030549620808 0.1245021045339177 0  0 0.1875 0  0.06270558148865757 0.1874509746237865 0  0.1254191088368789 0.1874008463064835 0  0.1881489007938631 0.1873485560006349 0  0.2509039364207693 0.187293166899509 0  0.3136942325933585 0.1872339523410206 0  0.3765312815459676 0.1871705160238522 0  0.4394285838256509 0.1871029525673946 0  0.5024023316289644 0.187032050095032 0  0.5654723310940697 0.1869595223313739 0  0.6286632999119973 0.1868882297251199 0  0.6920067036266001 0.186822298712007 0  0.7555431131047596 0.1867669622949971 0  0.8193239540800942 0.1867277893617336 0  0.8834071834622674 0.1867085670503266 0  0.9478282408234701 0.1867053855936875 0  1.012499823241009 0.18668547647824 0  0 0.25 0  0.06276167358880567 0.2499362979049491 0  0.1255334903834957 0.2498710286688374 0  0.1883260659886933 0.2498026688012642 0  0.2511508690118783 0.2497298248455843 0  0.314020705287625 0.2496513364319386 0  0.3769502701559535 0.2495664281831447 0  0.4399567953078443 0.2494749289452955 0  0.5030608130696326 0.2493775751339693 0  0.5662870387719382 0.2492764066574736 0  0.6296652939967805 0.2491752417565713 0  0.6932311619297519 0.2490801691160316 0  0.7570254376239772 0.2489999020777227 0  0.8210898786009853 0.2489456698012467 0  0.885453409147153 0.2489300396747378 0  0.9500976370055856 0.2489637935153002 0  1.01488941348269 0.2490512792875143 0  0 0.3125 0  0.06280767609869252 0.3124231863991695 0  0.1256273031658939 0.3123442813507065 0  0.1884713811482709 0.3122612231737694 0  0.2513534268835917 0.3121720566989514 0  0.3142885520803382 0.3120750341801115 0  0.3772941225422369 0.3119687810686537 0  0.4403905248284456 0.3118525585543359 0  0.5036020522176753 0.3117266619883555 0  0.5669578751264917 0.3115929991224323 0  0.6304929369840744 0.311455887515168 0  0.6942483238207596 0.3113230822001414 0  0.758270035286374 0.3112069668860171 0  0.8226039440137198 0.3111256759998292 0  0.8872831495810153 0.3111036301677517 0  0.9523033901983381 0.3111706316794132 0  1.01758802902988 0.3113585805235103 0  0 0.375 0  0.06284179360147422 0.3749121650240038 0  0.1256968760518159 0.3748216674806379 0  0.1885791337150588 0.3747258439716795 0  0.2515035950509993 0.3746220746848692 0  0.3144870859680467 0.374507857088174 0  0.377548989508604 0.3743809545369459 0  0.4407121523965279 0.3742396649365163 0  0.504003977520441 0.3740832741169154 0  0.5674577145919146 0.3739127838139696 0  0.6311138764368099 0.373732030966552 0  0.6950215020331789 0.3735493294290764 0  0.7592385699108101 0.3733797319488828 0  0.8238301923651921 0.3732478571047805 0  0.8888625630009895 0.3731908379572952 0  0.9543912079750483 0.3732602179668859 0  1.02044672519877 0.3735205740935817 0  0 0.4375 0  0.06286269274572698 0.4374038030464611 0  0.1257394805281176 0.4373043575234844 0  0.1886450716101517 0.4371983656881568 0  0.2515953897479514 0.4370824673072212 0  0.3146082806134515 0.4369532548909817 0  0.377704350825819 0.4368073611273406 0  0.4409080126487688 0.4366416715996981 0  0.5042488354264465 0.4364537485320978 0  0.5677633394429171 0.4362426017444488 0  0.6314973976305334 0.4360100152620305 0  0.6955094037841695 0.4357627274552755 0  0.7598742604825316 0.4355158351634598 0  0.8246879627184188 0.435297739539887 0  0.8900721617193783 0.4351565234364363 0  0.9561782091741708 0.4351664534394514 0  1.02319275034855 0.4354311532260776 0  0 0.5 0  0.06286956154795155 0.4998986819316786 0  0.1257534548039655 0.4997935660946948 0  0.1886666043019597 0.4996807418834514 0  0.2516251578255205 0.4995560911321251 0  0.3146472028331213 0.4994152122826079 0  0.3777536351641858 0.4992533949882841 0  0.4409692848435742 0.4990656945673203 0  0.504324474211845 0.4988471974056585 0  0.5678573078230577 0.4985936415816627 0  0.6316172013677743 0.4983026811086628 0  0.695670474888632 0.497976280364355 0  0.7601092468003962 0.4976250027531648 0  0.8250652190217544 0.4972752227293747 0  0.890729867063597 0.4969801406281833 0  0.9573817704906681 0.4968338278854433 0  1.025422231816277 0.4969825484863938 0  0 0.5625 0  0.06286214870331612 0.5623973439037455 0  0.1257382876941606 0.5622904464346864 0  0.1886429440864761 0.5621748813148388 0  0.2515918020169876 0.5620458455872867 0  0.3146023750111736 0.5618979668569792 0  0.3776948242456284 0.5617251172887898 0  0.4408930405530498 0.5615202629613245 0  0.5042262131382826 0.5612754167923798 0  0.5677313207611009 0.5609818431907393 0  0.6314573983252669 0.5606308217268307 0  0.6954732065111299 0.5602155874412731 0  0.7598812390348387 0.5597356434132268 0  0.8248428291482783 0.5592055992520759 0  0.8906206698267984 0.5586717870240413 0  0.9576440474537746 0.558239266042122 0  1.026597237444621 0.5581037041139244 0  0 0.625 0  0.06284077725089075 0.6249002239799845 0  0.1256946487206411 0.6247959469565738 0  0.1885751603711658 0.624682414003646 0  0.251496879144758 0.6245543267363554 0  0.3144759649975417 0.6244055246941044 0  0.3775308446767732 0.6242286117177538 0  0.4406830801467207 0.6240145166675939 0  0.5039586312013976 0.6237519981207954 0  0.5673899605562422 0.6234271570998879 0  0.6310199974828619 0.6230231592808257 0  0.6949102277692377 0.6225207066167667 0  0.7591577809730052 0.6219006210044032 0  0.8239312453239259 0.6211518403619076 0  0.8895420655367485 0.6202922099527295 0  0.9565725760034649 0.6194149236435665 0  1.026069563882387 0.618765396976652 0  0 0.6875 0  0.06280632805678335 0.6874075729706765 0  0.1256243529906929 0.6873106448085486 0  0.1884661221467613 0.6872044090272165 0  0.2513445181055924 0.6870833860400661 0  0.3142736894307697 0.6869409959894415 0  0.3772695055736118 0.6867690092111961 0  0.4403500599032617 0.6865568127072302 0  0.5035362982984788 0.6862904149961495 0  0.5668530207219306 0.6859511015098416 0  0.6303310030867176 0.6855136779585165 0  0.6940123811116978 0.6849444002695485 0  0.7579651432489322 0.684199329352261 0  0.8223218114833548 0.6832261500051064 0  0.8873776639156828 0.6819804419809893 0  0.9538138226279015 0.6804919015725976 0  1.023096647317247 0.6790500001087967 0  0 0.75 0  0.06276019238130777 0.7499193836545958 0  0.1255302584872604 0.7498345824493194 0  0.1883203215416053 0.7497410868702306 0  0.2511411365108698 0.7496336577503758 0  0.3140043703402536 0.7495058382210962 0  0.3769228206201091 0.7493492898947005 0  0.4399105034233703 0.7491528446427104 0  0.5029824913056329 0.7489011058206687 0  0.5661543362004702 0.748572338516413 0  0.6294409855282069 0.74813523572915 0  0.692855770372083 0.7475439119091551 0  0.7564130425303013 0.7467301983001954 0  0.8201492289582827 0.7455925803930256 0  0.8842150674375537 0.7439860461965941 0  0.9492044901694171 0.7417534411943306 0  1.016949017606868 0.7390741032356143 0  0 0.8125 0  0.06270419838871004 0.8124353354965026 0  0.1254161073165782 0.8123671412812263 0  0.1881436005649803 0.8122915862687459 0  0.2508949939728783 0.8122041531170719 0  0.3136792017684051 0.8120991624256242 0  0.3765057755164389 0.8119691019900387 0  0.4393846841927908 0.8118036289259682 0  0.5023255399928022 0.8115880284922827 0  0.5653356627166123 0.8113007619924455 0  0.6284157716790202 0.810909451810605 0  0.6915510607528687 0.8103640775695979 0  0.7546943291166384 0.8095848741636016 0  0.817740569835099 0.8084392616086888 0  0.8805216243923963 0.8066942559612902 0  0.9430329394963095 0.8039174274932509 0  1.007416785502076 0.7993953306849985 0  0 0.875 0  0.06264052156858134 0.8749547732256331 0  0.125286335330554 0.8749069874031412 0  0.1879428312589695 0.8748538504848282 0  0.2506156814048203 0.874792035305518 0  0.313310919120703 0.8747172997064709 0  0.3760349028212745 0.8746239388126101 0  0.4387940168224869 0.8745039502332397 0  0.5015937770397343 0.8743457124336992 0  0.5644365779954003 0.8741318311868163 0  0.6273162844380795 0.873835541782394 0  0.6902053427144956 0.8734145342420361 0  0.753023852600022 0.8727998896147539 0  0.8155650215161504 0.8718742694876309 0  0.8773187010587994 0.870419160996859 0  0.9370865592600905 0.8679429548391959 0  0.9923642037686345 0.8629513846213686 0  0 0.9375 0  0.06257159093541058 0.9374767303011979 0  0.1251458789911849 0.9374521157017066 0  0.1877256091796606 0.9374246842991991 0  0.2503136700243619 0.9373926710915581 0  0.3129131324786503 0.9373538070753067 0  0.3755272264545829 0.9373050112854971 0  0.4381591717051749 0.93724
[...]
<PointData  Vectors="f_54"> 
<DataArray  type="Float64"  Name="f_54"  NumberOfComponents="3" format="ascii">0.0000000000000000e+00 0.0000000000000000e+00 0.0000000000000000e+00  0.0000000000000000e+00 0.0000000000000000e+00 0.0000000000000000e+00  0.0000000000000000e+00 0.0000000000000000e+00 0.0000000000000000e+00  0.0000000000000000e+00 0.0000000000000000e+00 0.0000000000000000e+00  0.0000000000000000e+00 0.0000000000000000e+00 0.0000000000000000e+00  0.0000000000000000e+00 0.0000000000000000e+00 0.0000000000000000e+00  0.0000000000000000e+00 0.0000000000000000e+00 0.0000000000000000e+00  0.0000000000000000e+00 0.0000000000000000e+00 0.0000000000000000e+00  0.0000000000000000e+00 0.0000000000000000e+00 0.0000000000000000e+00  0.0000000000000000e+00 0.0000000000000000e+00 0.0000000000000000e+00  0.0000000000000000e+00 0.0000000000000000e+00 0.0000000000000000e+00  0.0000000000000000e+00 0.0000000000000000e+00 0.0000000000000000e+00  0.0000000000000000e+00 0.0000000000000000e+00 0.0000000000000000e+00  0.0000000000000000e+00 0.0000000000000000e+00 0.0000000000000000e+00  0.0000000000000000e+00 0.0000000000000000e+00 0.0000000000000000e+00  0.0000000000000000e+00 0.0000000000000000e+00 0.0000000000000000e+00  0.0000000000000000e+00 0.0000000000000000e+00 0.0000000000000000e+00  0.0000000000000000e+00 0.0000000000000000e+00 0.0000000000000000e+00  -3.5698682033989109e-06 -1.3590702370578118e-07 0.0000000000000000e+00  -7.2279603152181722e-06 -2.7100828170730290e-07 0.0000000000000000e+00  -1.1061680676047871e-05 -4.0390814683147493e-07 0.0000000000000000e+00  -1.5152246541373422e-05 -5.3184093746331219e-07 0.0000000000000000e+00  -1.9569767795601279e-05 -6.4989827380004718e-07 0.0000000000000000e+00  -2.4365828593305796e-05 -7.5019914587510034e-07 0.0000000000000000e+00  -2.9562389013890429e-05 -8.2108493437604467e-07 0.0000000000000000e+00  -3.5135425537730434e-05 -8.4654552254481278e-07 0.0000000000000000e+00  -4.0990987055826965e-05 -8.0627909708091038e-07 0.0000000000000000e+00  -4.6929784158483993e-05 -6.7706548980335253e-07 0.0000000000000000e+00  -5.2592793789866033e-05 -4.3644324883159179e-07 0.0000000000000000e+00  -5.7371198574447850e-05 -6.9783844649885064e-08 0.0000000000000000e+00  -6.0239309105184472e-05 4.1914053986392043e-07 0.0000000000000000e+00  -5.9397851365631369e-05 9.9939277517918120e-07 0.0000000000000000e+00  -5.1390140953758757e-05 1.6347795409916004e-06 0.0000000000000000e+00  -2.8533275026321401e-05 2.4859380895944166e-06 0.0000000000000000e+00  0.0000000000000000e+00 0.0000000000000000e+00 0.0000000000000000e+00  -7.0579198149325866e-06 -2.7285241833638600e-07 0.0000000000000000e+00  -1.4296071240316008e-05 -5.4476242935162745e-07 0.0000000000000000e+00  -2.1893663006252959e-05 -8.1363910653958223e-07 0.0000000000000000e+00  -3.0019184940656124e-05 -1.0746973752298496e-06 0.0000000000000000e+00  -3.8821519993211419e-05 -1.3188830936370484e-06 0.0000000000000000e+00  -4.8416210656631623e-05 -1.5311013850584994e-06 0.0000000000000000e+00  -5.8864597526016619e-05 -1.6883574479447745e-06 0.0000000000000000e+00  -7.0142856549654155e-05 -1.7581505416041465e-06 0.0000000000000000e+00  -8.2096812531003548e-05 -1.6978584764368446e-06 0.0000000000000000e+00  -9.4376248607582118e-05 -1.4564823072349087e-06 0.0000000000000000e+00  -1.0633787137146867e-04 -9.8105656957703751e-07 0.0000000000000000e+00  -1.1689567707898275e-04 -2.3133725698764566e-07 0.0000000000000000e+00  -1.2427273842038029e-04 7.9166961214695965e-07 0.0000000000000000e+00  -1.2554890213349932e-04 1.9933920436571878e-06 0.0000000000000000e+00  -1.1575654857736066e-04 3.0829175645634920e-06 0.0000000000000000e+00  -8.5958769170325461e-05 3.3133279500201904e-06 0.0000000000000000e+00  0.0000000000000000e+00 0.0000000000000000e+00 0.0000000000000000e+00  -1.0370210658852765e-05 -4.1087944436896181e-07 0.0000000000000000e+00  -2.1018478747629753e-05 -8.2198228782903375e-07 0.0000000000000000e+00  -3.2222754702427144e-05 -1.2319125868204409e-06 0.0000000000000000e+00  -4.4248861128349943e-05 -1.6354126566559978e-06 0.0000000000000000e+00  -5.7339490074321362e-05 -2.0209810982470817e-06 0.0000000000000000e+00  -7.1696367456816086e-05 -2.3680154737203890e-06 0.0000000000000000e+00  -8.7452363579317398e-05 -2.6435044024783888e-06 0.0000000000000000e+00  -1.0462947980087194e-04 -2.7985759709005905e-06 0.0000000000000000e+00  -1.2307749272014718e-04 -2.7657475938991062e-06 0.0000000000000000e+00  -1.4238639397248754e-04 -2.4586817437786035e-06 0.0000000000000000e+00  -1.6176317055120363e-04 -1.7778614271390427e-06 0.0000000000000000e+00  -1.7985915929229722e-04 -6.2817126852863002e-07 0.0000000000000000e+00  -1.9452804008690219e-04 1.0416174582914000e-06 0.0000000000000000e+00  -2.0249322744279145e-04 3.1611796731617360e-06 0.0000000000000000e+00  -1.9894996346466322e-04 5.3975833922816390e-06 0.0000000000000000e+00  -1.7742107208297106e-04 6.9254235583975574e-06 0.0000000000000000e+00  0.0000000000000000e+00 0.0000000000000000e+00 0.0000000000000000e+00  -1.3407344584105779e-05 -5.4872705551542942e-07 0.0000000000000000e+00  -2.7196919339481429e-05 -1.1006878503364356e-06 0.0000000000000000e+00  -4.1753284638406091e-05 -1.6571962631577623e-06 0.0000000000000000e+00  -5.7451824760513468e-05 -2.2148741656158556e-06 0.0000000000000000e+00  -7.4648261674207457e-05 -2.7625500032732173e-06 0.0000000000000000e+00  -9.3659884761243442e-05 -3.2772489455625287e-06 0.0000000000000000e+00  -1.1473448171554352e-04 -3.7190594609245039e-06 0.0000000000000000e+00  -1.3800193973763882e-04 -4.0248823160628134e-06 0.0000000000000000e+00  -1.6340239697551707e-04 -4.1015913330548772e-06 0.0000000000000000e+00  -1.9058393364507702e-04 -3.8202327433084481e-06 0.0000000000000000e+00  -2.1876267751160479e-04 -3.0149968095744651e-06 0.0000000000000000e+00  -2.4654026550094204e-04 -1.4944333691642135e-06 0.0000000000000000e+00  -2.7168190485599397e-04 9.2155090174950587e-07 0.0000000000000000e+00  -2.9088525466608461e-04 4.3168773218093454e-06 0.0000000000000000e+00  -2.9965095367420953e-04 8.5170398202183676e-06 0.0000000000000000e+00  -2.9257078443647056e-04 1.2829587442557874e-05 0.0000000000000000e+00  0.0000000000000000e+00 0.0000000000000000e+00 0.0000000000000000e+00  -1.6064217597015544e-05 -6.8330396939511459e-07 0.0000000000000000e+00  -3.2619616598101178e-05 -1.3750583965567088e-06 0.0000000000000000e+00  -5.0163916526660217e-05 -2.0817689843995072e-06 0.0000000000000000e+00  -6.9193847783368355e-05 -2.8050073279191352e-06 0.0000000000000000e+00  -9.0198427333528514e-05 -3.5378533292399895e-06 0.0000000000000000e+00  -1.1364323664171174e-04 -4.2598963650659863e-06 0.0000000000000000e+00  -1.3994101205203638e-04 -4.9301790418855987e-06 0.0000000000000000e+00  -1.6940247255369854e-04 -5.4774634413002024e-06 0.0000000000000000e+00  -2.0215989645512027e-04 -5.7874349959838379e-06 0.0000000000000000e+00  -2.3805511657494499e-04 -5.6872863043633086e-06 0.0000000000000000e+00  -2.7648460193096272e-04 -4.9302224627970938e-06 0.0000000000000000e+00  -3.1619963364386787e-04 -3.1869715927901191e-06 0.0000000000000000e+00  -3.5507400139240760e-04 -6.0024671037286729e-08 0.0000000000000000e+00  -3.8988359440108835e-04 4.8495870081556122e-06 0.0000000000000000e+00  -4.1620323487404239e-04 1.1775566204119651e-05 0.0000000000000000e+00  -4.2861117460061475e-04 2.0462226055077680e-05 0.0000000000000000e+00  0.0000000000000000e+00 0.0000000000000000e+00 0.0000000000000000e+00  -1.8231830816036050e-05 -8.0934843962246628e-07 0.0000000000000000e+00  -3.7064500119448319e-05 -1.6346368894301541e-06 0.0000000000000000e+00  -5.7111408995802323e-05 -2.4902201111899494e-06 0.0000000000000000e+00  -7.8998750141294572e-05 -3.3861452324591815e-06 0.0000000000000000e+00  -1.0336619275039091e-04 -4.3246461769364109e-06 0.0000000000000000e+00  -1.3085889418166122e-04 -5.2947087871971962e-06 0.0000000000000000e+00  -1.6210567255459034e-04 -6.2635934245538853e-06 0.0000000000000000e+00  -1.9767610694949650e-04 -7.1637894115456550e-06 0.0000000000000000e+00  -2.3800691263030805e-04 -7.8734516828010593e-06 0.0000000000000000e+00  -2.8328583509035563e-04 -8.1882400765375787e-06 0.0000000000000000e+00  -3.3328115021228011e-04 -7.7834526354595631e-06 0.0000000000000000e+00  -3.8710992048500057e-04 -6.1692244139204738e-06 0.0000000000000000e+00  -4.4295375521444220e-04 -2.6517423658189303e-06 0.0000000000000000e+00  -4.9776261270964117e-04 3.6654038304174985e-06 0.0000000000000000e+00  -5.4703240315420645e-04 1.3771276453087743e-05 0.0000000000000000e+00  -5.8476515644579979e-04 2.8423766977470133e-05 0.0000000000000000e+00  0.0000000000000000e+00 0.0000000000000000e+00 0.0000000000000000e+00  -1.9801523936835458e-05 -9.1938469530964475e-07 0.0000000000000000e+00  -4.0307531047350956e-05 -1.8641224450311495e-06 0.0000000000000000e+00  -6.2242691097426090e-05 -2.8588006660119086e-06 0.0000000000000000e+00  -8.6363487634205462e-05 -3.9254180933073603e-06 0.0000000000000000e+00  -1.1347004538540852e-04 -5.0806960774001794e-06 0.0000000000000000e+00  -1.4441106852776018e-04 -6.3312440191588476e-06 0.0000000000000000e+00  -1.8007671685860274e-04 -7.6650342179878117e-06 0.0000000000000000e+00  -2.2137124660484868e-04 -9.0367016324573336e-06 0.0000000000000000e+00  -2.6915309305044517e-04 -1.0342749543017882e-05 0.0000000000000000e+00  -3.2412510447625434e-04 -1.1380785611193694e-05 0.0000000000000000e+00  -3.8665341987833445e-04 -1.1784875788009099e-05 0.0000000000000000e+00  -4.5649418519644948e-04 -1.0928836220239437e-05 0.0000000000000000e+00  -5.3242106901672619e-04 -7.7959273078527422e-06 0.0000000000000000e+00  -6.1178339414623699e-04 -8.3756963768995885e-07 0.0000000000000000e+00  -6.9008101152203576e-04 1.2101283650206296e-05 0.0000000000000000e+00  -7.6066020426278141e-04 3.3630676576713994e-05 0.0000000000000000e+00  0.0000000000000000e+00 0.0000000000000000e+00 0.0000000000000000e+00  -2.0671711926580191e-05 -1.0040897528619057e-06 0.0000000000000000e+00  -4.2136395426445952e-05 -2.0440179883836973e-06 0.0000000000000000e+00  -6.5215884638621598e-05 -3.1561328038735026e-06 0.0000000000000000e+00  -9.0786799208346144e-05 -4.3770523692650242e-06 0.0000000000000000e+00  -1.1980683138735754e-04 -5.7427223890762252e-06 0.0000000000000000e+00  -1.5333784658678399e-04 -7.2856356009917389e-06 0.0000000000000000e+00  -1.9256155878830830e-04 -9.0285515406031521e-06 0.0000000000000000e+00  -2.3877966964359811e-04 -1.0971666836676405e-05 0.0000000000000000e+00  -2.9338409143119372e-04 -1.3067677581068153e-05 0.0000000000000000e+00  -3.5777354362278332e-04 -1.5174793758370605e-05 0.0000000000000000e+00  -4.3318088742280318e-04 -1.6970605198802980e-05 0.0000000000000000e+00  -5.2036528533696853e-04 -1.7799611052444165e-05 0.0000000000000000e+00  -6.1912779883461393e-04 -1.6418146487020642e-05 0.0000000000000000e+00  -7.2765505349381204e-04 -1.0608574946213405e-05 0.0000000000000000e+00  -8.4180668782863764e-04 3.3028622209952624e-06 0.0000000000000000e+00  -9.5456789291354315e-04 3.0847049835303776e-05 0.0000000000000000e+00  0.0000000000000000e+00 0.0000000000000000e+00 0.0000000000000000e+00  -2.0756857661503245e-05 -1.0531486225125730e-06 0.0000000000000000e+00  -4.2369132014734797e-05 -2.1523406197803149e-06 0.0000000000000000e+00  -6.5729895871771793e-05 -3.3457334410625340e-06 0.0000000000000000e+00  -9.1811498546391879e-05 -4.6855061578235130e-06 0.0000000000000000e+00  -1.2170846338661145e-04 -6.2295345838792405e-06 0.0000000000000000e+00  -1.5668309984401228e-04 -8.0422259799618925e-06 0.0000000000000000e+00  -1.9821204671584963e-04 -1.0193304336497312e-05 0.0000000000000000e+00  -2.4802789154789476e-04 -1.2751900504526712e-05 0.0000000000000000e+00  -3.0814216443885453e-04 -1.5770300258060575e-05 0.0000000000000000e+00  -3.8082184265345292e-04 -1.9245461886940065e-05 0.0000000000000000e+00  -4.6846825152535489e-04 -2.3033631533149534e-05 0.0000000000000000e+00  -5.7331522723912912e-04 -2.6668306056000072e-05 0.0000000000000000e+00  -6.9683710613165160e-04 -2.8987728238406527e-05 0.0000000000000000e+00  -8.3879175288645313e-04 -2.7421595204807046e-05 0.0000000000000000e+00  -9.9604167417286253e-04 -1.6787427456135440e-05 0.0000000000000000e+00  -1.1617661446963966e-03 1.2322216616835405e-05 0.0000000000000000e+00  0.0000000000000000e+00 0.0000000000000000e+00 0.0000000000000000e+00  -1.9997981020792038e-05 -1.0565914457285404e-06 0.0000000000000000e+00  -4.0876368673083408e-05 -2.1674279676312675e-06 0.0000000000000000e+00  -6.3560813404596304e-05 -3.3905403411053909e-06 0.0000000000000000e+00  -8.9078641650137879e-05 -4.7920277560870990e-06 0.0000000000000000e+00  -1.1861837493366081e-04 -6.4508398889947834e-06 0.0000000000000000e+00  -1.5359982464428009e-04 -8.4643392975190026e-06 0.0000000000000000e+00  -1.9575738179274276e-04 -1.0954554899545521e-05 0.0000000000000000e+00  -2.4723637518950313e-04 -1.4074243630275314e-05 0.0000000000000000e+00  -3.1069517420126078e-04 -1.8009769118973242e-05 0.0000000000000000e+00  -3.8938910524041097e-04 -2.2972316232737949e-05 0.0000000000000000e+00  -4.8717750849295075e-04 -2.9154745540582069e-05 0.0000000000000000e+00  -6.0833023881943225e-04 -3.6594852279581350e-05 0.0000000000000000e+00  -7.5691032702590350e-04 -4.4794758419977704e-05 0.0000000000000000e+00  -9.3543603373697219e-04 -5.1742507841575243e-05 0.0000000000000000e+00  -1.1427793326239030e-03 -5.1672789207405471e-05 0.0000000000000000e+00  -1.3723190042113044e-03 -3.1033221586898264e-05 0.0000000000000000e+00  0.0000000000000000e+00 0.0000000000000000e+00 0.0000000000000000e+00  -1.8373518505448872e-05 -1.0064789022034030e-06 0.0000000000000000e+00  -3.7604782326562989e-05 -2.0715894352593256e-06 0.0000000000000000e+00  -5.8601561039713178e-05 -3.2591255890509086e-06 0.0000000000000000e+00  -8.2389100600178226e-05 -4.6444110034196736e-06 0.0000000000000000e+00  -1.1018312808043631e-04 -6.3219748790741296e-06 0.0000000000000000e+00  -1.4348212552128903e-04 -8.4158629148163535e-06 0.0000000000000000e+00  -1.8418766600009830e-04 -1.1094038409686248e-05 0.0000000000000000e+00  -2.3476244461873510e-04 -1.4588839851785822e-05 0.0000000000000000e+00  -2.9843341044234013e-04 -1.9225911815910604e-05 0.0000000000000000e+00  -3.7943577096339736e-04 -2.5463481101341033e-05 0.0000000000000000e+00  -4.8325750061343077e-04 -3.3938498501121268e-05 0.0000000000000000e+00  -6.1675033321077224e-04 -4.5491373729508389e-05 0.0000000000000000e+00  -7.8776059953527731e-04 -6.1042276893726659e-05 0.0000000000000000e+00  -1.0035484118283153e-03 -8.0826014243349950e-05 0.0000000000000000e+00  -1.2671494873459468e-03 -1.0132245307599309e-04 0.0000000000000000e+00  -1.5737348788830625e-03 -1.0703917466237537e-04 0.0000000000000000e+00  0.0000000000000000e+00 0.0000000000000000e+00 0.0000000000000000e+00  -1.5908884426862531e-05 -8.9866158493939559e-07 0.0000000000000000e+00  -3.2598315915297599e-05 -1.8550170948876126e-06 0.0000000000000000e+00  -5.0899234457684036e-05 -2.9326316672158599e-06 0.0000000000000000e+00  -7.1764609021957552e-05 -4.2085278137197608e-06 0.0000000000000000e+00  -9.6349006084660359e-05 -5.7826909225862870e-06 0.0000000000000000e+00  -1.2611475682022406e-04 -7.7916600337317429e-06 0.0000000000000000e+00  -1.6298016100743125e-04 -1.0429016246993534e-05 0.0000000000000000e+00  -2.0953169206399034e-04 -1.3977469556077701e-05 0.0000000000000000e+00  -2.6933023642581168e-04 -1.8860808473577773e-05 0.0000000000000000e+00  -3.4734715293611193e-04 -2.5730888810016488e-05 0.0000000000000000e+00  -4.5055469229783325e-04 -3.5618226424020494e-05 0.0000000000000000e+00  -5.8862020918239188e-04 -5.0197874479110544e-05 0.0000000000000000e+00  -7.7437602124463486e-04 -7.2239724613243225e-05 0.0000000000000000e+00  -1.0228614768831917e-03 -1.0615095165192936e-04 0.0000000000000000e+00  -1.3453597592331913e-03 -1.5683175915235894e-04 0.0000000000000000e+00  -1.7399415682698299e-03 -2.1138508592660556e-04 0.0000000000000000e+00  0.0000000000000000e+00 0.0000000000000000e+00 0.0000000000000000e+00  -1.2682781854857861e-05 -7.3423512185107512e-07 0.0000000000000000e+00  -2.6012875836936987e-05 -1.5191044716115106e-06 0.0000000000000000e+00  -4.0682773078846125e-05 -2.4108904780826472e-06 0.0000000000000000e+00  -5.7496743243289498e-05 -3.4790249745770791e-06 0.0000000000000000e+00  -7.7446558251818257e-05 -4.8156753583564002e-06 0.0000000000000000e+00  -1.0181687027025671e-04 -6.5498586923884352e-06 0.0000000000000000e+00  -1.3234019476996288e-04 -8.8693766145503548e-06 0.0000000000000000e+00  -1.7143378251607066e-04 -1.2056279167786967e-05 0.0000000000000000e+00  -2.2257155423369517e-04 -1.6546402983425947e-05 0.0000000000000000e+00  -2.9087798389768738e-04 -2.3034091295136574e-05 0.0000000000000000e+00  -3.8407881406873846e-04 -3.2668953908365614e-05 0.0000000000000000e+00  -5.1398596574297073e-04 -4.7461363804312534e-05 0.0000000000000000e+00  -6.9861434026604870e-04 -7.1216887636414827e-05 0.0000000000000000e+00  -9.6429177142329464e-04 -1.1192661911854645e-04 0.0000000000000000e+00  -1.3428094177430198e-03 -1.8835242068765873e-04 0.0000000000000000e+00  -1.8185248740164345e-03 -3.5003783081261601e-04 0.0000000000000000e+00  0.0000000000000000e+00 0.0000000000000000e+00 0.0000000000000000e+00  -8.8283479370325358e-06 -5.2030030686441604e-07 0.0000000000000000e+00  -1.8120122317790136e-05 -1.0782621044707903e-06 0.0000000000000000e+00  -2.8372892553687008e-05 -1.7159854267005571e-06 0.0000000000000000e+00  -4.0169936053888007e-05 -2.4859973232291179e-06 0.0000000000000000e+00  -5.4239947385682830e-05 -3.4589627455662429e-06 0.0000000000000000e+00  -7.1542708458601368e-05 -4.7351473835575681e-06 0.0000000000000000e+00  -9.3399969680800274e-05 -6.4622884363026863e-06 0.0000000000000000e+00  -1.2170526520059175e-04 -8.8642269101620622e-06 0.0000000000000000e+00  -1.5927428792430196e-04 -1.2287529700909267e-05 0.0000000000000000e+00  -2.1045211031659277e-04 -1.7278288469841960e-05 0.0000000000000000e+00  -2.8220170872931660e-04 -2.4711184906896707e-05 0.0000000000000000e+00  -3.8611141387660764e-04 -3.6021837414305826e-05 0.0000000000000000e+00  -5.4217100639576048e-04 -5.3719096809850425e-05 0.0000000000000000e+00  -7.8597431520089549e-04 -8.2978341542784103e-05 0.0000000000000000e+00  -1.1830546643288896e-03 -1.3801380862601178e-04 0.0000000000000000e+00  -1.8633560807861413e-03 -2.6753308378632995e-04 0.0000000000000000e+00  0.0000000000000000e+00 0.0000000000000000e+00 0.0000000000000000e+00  -4.5277575850833538e-06 -2.6974755087371581e-07 0.0000000000000000e+00  -9.2969951913791770e-06 -5.5955647082093244e-07 0.0000000000000000e+00  -1.4567517329070452e-05 -8.9191743568452335e-07 0.0000000000000000e+00  -2.0645528717569685e-05 -1.2950537186344911e-06 0.0000000000000000e+00  -2.7916496879549124e-05 -1.8071758041920810e-06 0.0000000000000000e+00  -3.6893164894754820e-05 -2.4827969498503597e-06 0.0000000000000000e+00  -4.8290590268868492e-05 -3.4024630526144875e-06 0.0000000000000000e+00  -6.3149945151645209e-05 -4.6878036665297528e-06 0.0000000000000000e+00  -8.3052963588472391e-05 -6.5238854860638718e-06 0.0000000000000000e+00  -1.1051116377433922e-04 -9.1876176501196656e-06 0.0000000000000000e+00  -1.4970310516072746e-04 -1.3062460079796023e-05 0.0000000000000000e+00  -2.0790991300214052e-04 -1.8537638247965952e-05 0.0000000000000000e+00  -2.9824591620760592e-04 -2.5358059817524706e-05 0.0000000000000000e+00  -4.4383094879518639e-04 -2.9787671511118352e-05 0.0000000000000000e+00  -6.7686282189679875e-04 -1.5025233098988373e-05 0.0000000000000000e+00  -9.9467896730520700e-04 6.3256315931454777e-05 0.0000000000000000e+00  0.0000000000000000e+00 0.0000000000000000e+00 0.0000000000000000e+00  0.0000000000000000e+00 0.0000000000000000e+00 0.0000000000000000e+00  0.0000000000000000e+00 0.0000000000000000e+00 0.0000000000000000e+00  0.0000000000000000e+00 0.0000000000000000e+00 0.0000000000000000e+00  0.0000000000000000e+00 0.0000000000000000e+00 0.0000000000000000e+00  0.0000000000000000e+00 0.0000000000000000e+00 0.00