<?xml version="1.0"?>
<VTKFile type="UnstructuredGrid"  version="0.1"  >
<UnstructuredGrid>
<Piece  NumberOfPoints="289" NumberOfCells="512">
<Points>
<DataArray  type="Float64"  NumberOfComponents="3"  format="ascii">0 0 0  0.0625 0 0  0.125 0 0  0.1875 0 0  0.25 0 0  0.3125 0 0  0.375 0 0  0.4375 0 0  0.5 0 0  0.5625 0 0  0.625 0 0  0.6875 0 0  0.75 0 0  0.8125 0 0  0.875 0 0  0.9375 0 0  1 0 0  0 0.0625 0  0.06244329486643552 0.06248644299023523 0  0.1248854082845164 0.06247264490867093 0  0.1873252092806507 0.06245838602024346 0  0.2497617409216582 0.06244349827143746 0  0.3121943468931844 0.06242789903160822 0  0.3746228510457325 0.06241163351745942 0  0.4370478150425047 0.06239492654401331 0  0.4994709085042759 0.06237824088571088 0  0.5618954448168949 0.06236233353740013 0  0.6243271784894352 0.06234829182966477 0  0.6867755651631957 0.06233751990349496 0  0.7492559542479882 0.06233164132675383 0  0.8117938682799473 0.06233232188095338 0  0.8744341330748083 0.06234123955725405 0  0.9372602732202858 0.06236148262695832 0  1.000423644155415 0.06240795931156772 0  0 0.125 0  0.06238782886805652 0.1249731232737099 0  0.1247732256863029 0.1249457394331318 0  0.1871538497818323 0.1249173809468071 0  0.2495276827655283 0.124887677305048 0  0.3118932676709154 0.1248564202648899 0  0.3742500526834002 0.1248236482629887 0  0.4365988885813067 0.1247897530532725 0  0.498942744614143 0.1247556058975982 0  0.5612877351200695 0.124722689402332 0  0.6236446030008888 0.1246932013260486 0  0.6860309174038306 0.1246700657627561 0  0.7484744688057549 0.1246567464778494 0  0.8110187505280799 0.124656722053345 0  0.873731930850248 0.1246724980420041 0  0.9367208705833577 0.1247041042292707 0  1.000154419163304 0.1247457148957528 0  0 0.1875 0  0.06233489261007154 0.1874603099235558 0  0.1246659653553651 0.1874198007462129 0  0.1869895086604283 0.1873777047696292 0  0.2493022254302452 0.1873333831832782 0  0.3116015489592699 0.1872864172967895 0  0.3738861108522955 0.1872367321695407 0  0.4361564280947454 0.1871847613878251 0  0.4984158950214095 0.1871316560733511 0  0.5606721870925001 0.1870795278251249 0  0.6229392089395136 0.1870316876410522 0  0.6852397435219861 0.1869927900571073 0  0.7476089499240359 0.1869686939865638 0  0.810098685699261 0.1869656622986489 0  0.8727819179293708 0.1869880924727069 0  0.9357545361068188 0.1870327740634138 0  0.9991287363653955 0.1870741049605918 0  0 0.25 0  0.06228591204088083 0.249948317594306 0  0.1245664395769269 0.2498954440948163 0  0.186836294516781 0.2498402415594174 0  0.2490906050839866 0.249781711133288 0  0.3113252614422251 0.2497190998237192 0  0.3735374475440715 0.2496520549976315 0  0.43572644574387 0.2495808450301752 0  0.4978948177302422 0.2495066629562385 0  0.5600500773202439 0.2494320210900421 0  0.6222069624429996 0.2493612196779928 0  0.6843903512325752 0.2493008160821371 0  0.7466386765692391 0.2492599063406544 0  0.8090072271071034 0.2492498186671558 0  0.8715697517860908 0.2492824730364826 0  0.9344151950249066 0.2493662942180841 0  0.9976348391804121 0.2494991973983604 0  0 0.3125 0  0.0622424795263434 0.3124375201880284 0  0.1244778354638021 0.312373414048372 0  0.186698985902642 0.3123060964885281 0  0.2488991609278877 0.3122341014361535 0  0.3110722107199231 0.3121561871294452 0  0.3732131240504868 0.312071503613932 0  0.4353188613717948 0.3119798535448933 0  0.4973896307045131 0.3118820846505819 0  0.5594307506479307 0.3117806566526937 0  0.6214552301214603 0.3116804186938839 0  0.6834871034665643 0.3115895976236691 0  0.745565314899435 0.3115208995505529 0  0.8077474492423107 0.3114924151789045 0  0.8701118292708305 0.3115276431579244 0  0.932755790828347 0.311653443132994 0  0.9957885915439427 0.3118943782055465 0  0 0.375 0  0.06220634354296688 0.37492835366337 0  0.1244037045125229 0.3748545939846343 0  0.1865830422214904 0.3747766205702975 0  0.2487354029901507 0.3746923945662063 0  0.3108521144923764 0.3746000182762276 0  0.3729251970652632 0.3744978853278987 0  0.434948114223342 0.3743849448455991 0  0.4969170269831853 0.3742611429369843 0  0.5588327607502206 0.3741281312000501 0  0.6207037179816305 0.3739903610127329 0  0.6825499283953254 0.3738566991628059 0  0.7444082412249566 0.3737426650680032 0  0.8063382343678424 0.3736732162044435 0  0.8684277325091969 0.373685548886963 0  0.9307962314601563 0.3738304716164954 0  0.9935950369394676 0.3741695498165221 0  0 0.4375 0  0.06217934890700217 0.4374213042039855 0  0.1243478482842706 0.4373399853552232 0  0.186494446845251 0.4372533881200836 0  0.2486078353833652 0.4371588210770888 0  0.3106764448485875 0.4370535810627454 0  0.3726886403361557 0.4369350435780235 0  0.4346332458760284 0.4368008691962041 0  0.4965006064024533 0.4366494086725077 0  0.5582844917675174 0.4364804423087461 0  0.6199852656214939 0.4362964692754219 0  0.6816148449982217 0.4361048706812242 0  0.7432039760232144 0.4359213786642712 0  0.8048120798902715 0.4357752850163946 0  0.8665391761215404 0.4357164388008834 0  0.9285382030326225 0.4358228101845558 0  0.9910254404886838 0.4362048138368894 0  0 0.5 0  0.06216332412277911 0.4999168789381623 0  0.1243140913600003 0.4998306497989321 0  0.1864393642470301 0.4997381129265782 0  0.2485255020143902 0.4996358998596398 0  0.3105578824848416 0.4995204124039551 0  0.3725207580783883 0.4993878046649982 0  0.43439737542506 0.499234051907649 0  0.4961705913175462 0.4990551898757768 0  0.5578243879192892 0.4988478816549309 0  0.6193469534365169 0.4986106015868385 0  0.6807363605907671 0.4983459538410694 0  0.7420102816006757 0.4980650004021839 0  0.803221367873475 0.4977949175990369 0  0.8644792753731099 0.4975914939693228 0  0.9259779651054758 0.4975568483751462 0  0.9880234109924925 0.4978582690523072 0  0 0.5625 0  0.06215991863119469 0.5624155586655495 0  0.1243059447113789 0.5623276116145233 0  0.1864236093247751 0.5622324953478 0  0.248497238498757 0.5621262250762002 0  0.3105093372238033 0.5620043263737171 0  0.3724399941844905 0.5618616665379947 0  0.4342663961516881 0.5616923059451655 0  0.4959626612653407 0.5614894228268498 0  0.5575004328100377 0.5612454365044698 0  0.6188511046552386 0.5609526074879202 0  0.6799912939929045 0.5606047159829407 0  0.74091433057975 0.5602010760157934 0  0.8016519331476807 0.5597553627867435 0  0.8623108394141509 0.559313560427887 0  0.9231259376468827 0.5589864607196483 0  0.9845198462813197 0.5589973116214216 0  0 0.625 0  0.06217040088564925 0.6249177356624162 0  0.1243261791942342 0.6248317258334311 0  0.1864519518785219 0.6247380052942227 0  0.2485306444568808 0.6246321407984797 0  0.31054251631738 0.6245089507980147 0  0.3724640424600341 0.6243621674831055 0  0.4342666506019414 0.6241840213313238 0  0.4959154106892099 0.6239647364623555 0  0.5573680095075811 0.6236919566224739 0  0.6185748733044444 0.6233502199718194 0  0.679482425353004 0.622920883078241 0  0.7400436794426862 0.6223836668906026 0  0.8002442310592068 0.621723004875967 0  0.860156798055591 0.6209470971746814 0  0.9200387539950997 0.6201360320280049 0  0.9804708775400377 0.619538640830652 0  0 0.6875 0  0.06219543815911677 0.6874236440960938 0  0.1243763504744131 0.687343527227221 0  0.1865273152453706 0.6872556243478738 0  0.2486308434365316 0.6871553331224235 0  0.310666090780079 0.6870371025625716 0  0.3726072338512799 0.6868939469690516 0  0.4344213707960605 0.6867167792672714 0  0.4960658232591104 0.6864934675390777 0  0.5574848362353763 0.6862074736535855 0  0.6186060895416723 0.685835879326546 0  0.6793386219139622 0.6853465979935108 0  0.7395768235715831 0.6846948745642233 0  0.7992223539055817 0.683820847909435 0  0.8582506376611376 0.6826568229614994 0  0.9168688739163339 0.6811764065231495 0  0.9757952667134561 0.6795583321772654 0  0 0.75 0  0.06223488953438751 0.7499332947229611 0  0.1244563412065492 0.7498630855150513 0  0.1866499736834729 0.7497855898526665 0  0.2487991756319861 0.7496964062415493 0  0.3108836346753027 0.7495900990180461 0  0.372877359419728 0.749459630999915 0  0.434745899584802 0.7492955446282629 0  0.4964423477278654 0.7490847290650349 0  0.5579015678418718 0.7488084905552056 0  0.6190320524724077 0.7484394059010595 0  0.6797052801157086 0.7479359608992058 0  0.7397448199037511 0.7472330587561432 0  0.7989260296466412 0.7462251452393215 0  0.8570245177297102 0.7447396465171151 0  0.9140265848649793 0.742525003377138 0  0.9706788594220279 0.7395260666000154 0  0 0.8125 0  0.06228765185214999 0.812446427779362 0  0.1245640076753442 0.8123898980102128 0  0.1868168985609686 0.8123271973441661 0  0.2490320590322897 0.8122545383953043 0  0.3111916838738951 0.8121671658469243 0  0.3732723962298782 0.8120588074141554 0  0.4352422222644311 0.8119208665843528 0  0.4970559068803856 0.8117411873145077 0  0.558647449821443 0.8115020902645711 0  0.6199179725445011 0.8111770979290385 0  0.6807158485612627 0.8107250783664492 0  0.7408048140189422 0.8100786716983572 0  0.7998175977196808 0.8091184310474155 0  0.8572140193531731 0.807607659088844 0  0.9123898978055731 0.8050100315980169 0  0.9658970912641862 0.7998894205461035 0  0 0.875 0  0.06235160035927116 0.8749624968658665 0  0.1246950264521646 0.8749228492424823 0  0.1870214295931902 0.8748787169840508 0  0.2493203242274047 0.8748273184048887 0  0.311578427587504 0.8747651244447348 0  0.3737779744147202 0.8746874307076788 0  0.4358941096814786 0.8745877314508534 0  0.4978906531870546 0.8744567826736956 0  0.5597129166739037 0.8742811888452773 0  0.6212749946413982 0.8740412770638748 0  0.6824362537481986 0.873707908557726 0  0.7429557117797946 0.8732374972726412 0  0.8023989826462206 0.8725624515725189 0  0.85994017102992 0.8715632005912003 0  0.9139402108691336 0.8699535292064894 0  0.9611780260552304 0.8667347168076879 0  0 0.9375 0  0.06242365721460177 0.9374806917065306 0  0.1248430207738129 0.9374602561847359 0  0.1872534294625067 0.9374374603297245 0  0.2496493247582653 0.9374108314831309 0  0.3120236043250472 0.9373784912102887 0  0.3743666670938151 0.9373379237055448 0  0.4366649057512761 0.937285
[...]
<PointData  Vectors="f_54"> 
<DataArray  type="Float64"  Name="f_54"  NumberOfComponents="3" format="ascii">0.0000000000000000e+00 0.0000000000000000e+00 0.0000000000000000e+00  0.0000000000000000e+00 0.0000000000000000e+00 0.0000000000000000e+00  0.0000000000000000e+00 0.0000000000000000e+00 0.0000000000000000e+00  0.0000000000000000e+00 0.0000000000000000e+00 0.0000000000000000e+00  0.0000000000000000e+00 0.0000000000000000e+00 0.0000000000000000e+00  0.0000000000000000e+00 0.0000000000000000e+00 0.0000000000000000e+00  0.0000000000000000e+00 0.0000000000000000e+00 0.0000000000000000e+00  0.0000000000000000e+00 0.0000000000000000e+00 0.0000000000000000e+00  0.0000000000000000e+00 0.0000000000000000e+00 0.0000000000000000e+00  0.0000000000000000e+00 0.0000000000000000e+00 0.0000000000000000e+00  0.0000000000000000e+00 0.0000000000000000e+00 0.0000000000000000e+00  0.0000000000000000e+00 0.0000000000000000e+00 0.0000000000000000e+00  0.0000000000000000e+00 0.0000000000000000e+00 0.0000000000000000e+00  0.0000000000000000e+00 0.0000000000000000e+00 0.0000000000000000e+00  0.0000000000000000e+00 0.0000000000000000e+00 0.0000000000000000e+00  0.0000000000000000e+00 0.0000000000000000e+00 0.0000000000000000e+00  0.0000000000000000e+00 0.0000000000000000e+00 0.0000000000000000e+00  0.0000000000000000e+00 0.0000000000000000e+00 0.0000000000000000e+00  -1.0666588810264261e-06 -5.5934481903008823e-08 0.0000000000000000e+00  -2.1869325082529748e-06 -1.1366549236679533e-07 0.0000000000000000e+00  -3.4183069662649710e-06 -1.7502585816760237e-07 0.0000000000000000e+00  -4.8254865289396171e-06 -2.4186909739889687e-07 0.0000000000000000e+00  -6.4846675232275181e-06 -3.1605351202837704e-07 0.0000000000000000e+00  -8.4887065059147091e-06 -3.9938496951930763e-07 0.0000000000000000e+00  -1.0953814252842985e-05 -4.9348840845283112e-07 0.0000000000000000e+00  -1.4029086508140756e-05 -5.9956001067310038e-07 0.0000000000000000e+00  -1.7911992724058592e-05 -7.1792240184180187e-07 0.0000000000000000e+00  -2.2877861006973985e-05 -8.4725042082910344e-07 0.0000000000000000e+00  -2.9345224745023730e-05 -9.8319740359169864e-07 0.0000000000000000e+00  -3.8039872578452567e-05 -1.1156675014919181e-06 0.0000000000000000e+00  -5.0450386934425262e-05 -1.2219148998645858e-06 0.0000000000000000e+00  -7.0212881936037206e-05 -1.2431781370198894e-06 0.0000000000000000e+00  -1.0770972227934198e-04 -9.8761958825390129e-07 0.0000000000000000e+00  -1.9672150485544314e-04 3.1637360871594452e-07 0.0000000000000000e+00  0.0000000000000000e+00 0.0000000000000000e+00 0.0000000000000000e+00  -2.0772517299792503e-06 -1.0994502959028872e-07 0.0000000000000000e+00  -4.2579449036785550e-06 -2.2345699199040498e-07 0.0000000000000000e+00  -6.6529056148836118e-06 -3.4418190654344785e-07 0.0000000000000000e+00  -9.3867797868741776e-06 -4.7582848294211191e-07 0.0000000000000000e+00  -1.2606151134006037e-05 -6.2215532259375123e-07 0.0000000000000000e+00  -1.6489191568801177e-05 -7.8688775595898750e-07 0.0000000000000000e+00  -2.1257699480112232e-05 -9.7351235518042766e-07 0.0000000000000000e+00  -2.7193053811425810e-05 -1.1848658402304252e-06 0.0000000000000000e+00  -3.4659306622083587e-05 -1.4223895504256846e-06 0.0000000000000000e+00  -4.4140806252405917e-05 -1.6848657246764745e-06 0.0000000000000000e+00  -5.6311643176237350e-05 -1.9664269652662735e-06 0.0000000000000000e+00  -7.2176290521874795e-05 -2.2538373788990804e-06 0.0000000000000000e+00  -9.3363098214490543e-05 -2.5245045548999030e-06 0.0000000000000000e+00  -1.2269371300226218e-04 -2.7547650170715763e-06 0.0000000000000000e+00  -1.6492216503364833e-04 -2.9917692985283369e-06 0.0000000000000000e+00  -2.2518246758935812e-04 -3.7836601242933339e-06 0.0000000000000000e+00  0.0000000000000000e+00 0.0000000000000000e+00 0.0000000000000000e+00  -2.9815578225271277e-06 -1.6024034418053551e-07 0.0000000000000000e+00  -6.1094434087311608e-06 -3.2576856964729732e-07 0.0000000000000000e+00  -9.5402634832157399e-06 -5.0200510841948621e-07 0.0000000000000000e+00  -1.3450019553778903e-05 -6.9451160793840403e-07 0.0000000000000000e+00  -1.8045428858842323e-05 -9.0901338125238887e-07 0.0000000000000000e+00  -2.3577162185183328e-05 -1.1513428810483255e-06 0.0000000000000000e+00  -3.0355695445462163e-05 -1.4272426982732202e-06 0.0000000000000000e+00  -3.8770566383854012e-05 -1.7419248090812723e-06 0.0000000000000000e+00  -4.9314050586386848e-05 -2.0992163933818643e-06 0.0000000000000000e+00  -6.2610668853501649e-05 -2.5000267221755966e-06 0.0000000000000000e+00  -7.9454047000009843e-05 -2.9397520353574119e-06 0.0000000000000000e+00  -1.0084928801681569e-04 -3.4041194940451159e-06 0.0000000000000000e+00  -1.2803794359798803e-04 -3.8627481588533593e-06 0.0000000000000000e+00  -1.6239138807222996e-04 -4.2577788126224531e-06 0.0000000000000000e+00  -2.0473687835977466e-04 -4.4687452644561831e-06 0.0000000000000000e+00  -2.5281380386605180e-04 -4.1191981402354370e-06 0.0000000000000000e+00  0.0000000000000000e+00 0.0000000000000000e+00 0.0000000000000000e+00  -3.7364082133450744e-06 -2.0508284223819026e-07 0.0000000000000000e+00  -7.6524223747137640e-06 -4.1708551012010912e-07 0.0000000000000000e+00  -1.1939997525869212e-05 -6.4312397002297593e-07 0.0000000000000000e+00  -1.6814721608733534e-05 -8.9057400254357940e-07 0.0000000000000000e+00  -2.2529638459172938e-05 -1.1671650598641936e-06 0.0000000000000000e+00  -2.9391346803564362e-05 -1.4810114915136189e-06 0.0000000000000000e+00  -3.7778890956099394e-05 -1.8405276523378106e-06 0.0000000000000000e+00  -4.8165448591409106e-05 -2.2541286597893843e-06 0.0000000000000000e+00  -6.1141620616648353e-05 -2.7295359395654143e-06 0.0000000000000000e+00  -7.7436398137442118e-05 -3.2723610990471457e-06 0.0000000000000000e+00  -9.7925648996390681e-05 -3.8834035041210342e-06 0.0000000000000000e+00  -1.2360347780036705e-04 -4.5537525336009834e-06 0.0000000000000000e+00  -1.5545800103488745e-04 -5.2564043213467830e-06 0.0000000000000000e+00  -1.9411774976526569e-04 -5.9331394654790161e-06 0.0000000000000000e+00  -2.3899282598333809e-04 -6.4788835048163714e-06 0.0000000000000000e+00  -2.8649557731604122e-04 -6.7559360108302371e-06 0.0000000000000000e+00  0.0000000000000000e+00 0.0000000000000000e+00 0.0000000000000000e+00  -4.3084235732987061e-06 -2.4283052148873885e-07 0.0000000000000000e+00  -8.8181050348949587e-06 -4.9406653480842762e-07 0.0000000000000000e+00  -1.3743727370319397e-05 -7.6237762655025742e-07 0.0000000000000000e+00  -1.9326212875485984e-05 -1.0568418178607095e-06 0.0000000000000000e+00  -2.5848294664677445e-05 -1.3871394331585358e-06 0.0000000000000000e+00  -3.3652935437225824e-05 -1.7637239694438001e-06 0.0000000000000000e+00  -4.3165270094794733e-05 -2.1979455897632434e-06 0.0000000000000000e+00  -5.4918048818426852e-05 -2.7020714065650821e-06 0.0000000000000000e+00  -6.9578837660628324e-05 -3.2890722802590496e-06 0.0000000000000000e+00  -8.7973422558842131e-05 -3.9718786817760153e-06 0.0000000000000000e+00  -1.1109198795108914e-04 -4.7614600069982656e-06 0.0000000000000000e+00  -1.4004935979294546e-04 -5.6624320793205802e-06 0.0000000000000000e+00  -1.7594325721638834e-04 -6.6638924128922144e-06 0.0000000000000000e+00  -2.1951242355651370e-04 -7.7222224368366517e-06 0.0000000000000000e+00  -2.7045443414027380e-04 -8.7335565109822496e-06 0.0000000000000000e+00  -3.2629874377394655e-04 -9.5007093549272438e-06 0.0000000000000000e+00  0.0000000000000000e+00 0.0000000000000000e+00 0.0000000000000000e+00  -4.6760740750340322e-06 -2.7199593266946277e-07 0.0000000000000000e+00  -9.5622212605440825e-06 -5.5366614469226721e-07 0.0000000000000000e+00  -1.4881865624374447e-05 -8.5501169366363415e-07 0.0000000000000000e+00  -2.0885281992851474e-05 -1.1865989912899716e-06 0.0000000000000000e+00  -2.7865964262617211e-05 -1.5598630408334237e-06 0.0000000000000000e+00  -3.6180661198592232e-05 -1.9874394976508434e-06 0.0000000000000000e+00  -4.6274401202761495e-05 -2.4835480141064017e-06 0.0000000000000000e+00  -5.8711516965393563e-05 -3.0644546148035179e-06 0.0000000000000000e+00  -7.4212539398359637e-05 -3.7490224825877812e-06 0.0000000000000000e+00  -9.3693894933846063e-05 -4.5592570663553333e-06 0.0000000000000000e+00  -1.1830095271874443e-04 -5.5204109082427341e-06 0.0000000000000000e+00  -1.4941271824779460e-04 -6.6593167099156039e-06 0.0000000000000000e+00  -1.8857609635975086e-04 -7.9976245197999947e-06 0.0000000000000000e+00  -2.3730086014770756e-04 -9.5329427612901768e-06 0.0000000000000000e+00  -2.9662876605457801e-04 -1.1195605147210574e-05 0.0000000000000000e+00  -3.6642481018964580e-04 -1.2763218016827718e-05 0.0000000000000000e+00  0.0000000000000000e+00 0.0000000000000000e+00 0.0000000000000000e+00  -4.8308917295853876e-06 -2.9131749151727947e-07 0.0000000000000000e+00  -9.8676083716751727e-06 -5.9328650441151239e-07 0.0000000000000000e+00  -1.5327971441559729e-05 -9.1693255156805649e-07 0.0000000000000000e+00  -2.1454849321582981e-05 -1.2739851108661704e-06 0.0000000000000000e+00  -2.8531980802932830e-05 -1.6772730964180845e-06 0.0000000000000000e+00  -3.6904280510349335e-05 -2.1411917965493989e-06 0.0000000000000000e+00  -4.7004931293152234e-05 -2.6823120156703522e-06 0.0000000000000000e+00  -5.9392160211978249e-05 -3.3202633393955753e-06 0.0000000000000000e+00  -7.4798986436830207e-05 -4.0791187663736467e-06 0.0000000000000000e+00  -9.4198755871948564e-05 -4.9896125462762065e-06 0.0000000000000000e+00  -1.1888653399958743e-04 -6.0924981507844236e-06 0.0000000000000000e+00  -1.5056886976470911e-04 -7.4427448979867227e-06 0.0000000000000000e+00  -1.9143848511063766e-04 -9.1119316706675804e-06 0.0000000000000000e+00  -2.4418398413112059e-04 -1.1179918152504679e-05 0.0000000000000000e+00  -3.1185577585075293e-04 -1.3694228669723346e-05 0.0000000000000000e+00  -3.9751005145420077e-04 -1.6558355189961498e-05 0.0000000000000000e+00  0.0000000000000000e+00 0.0000000000000000e+00 0.0000000000000000e+00  -4.7776539419878231e-06 -2.9983350086034730e-07 0.0000000000000000e+00  -9.7447592662263904e-06 -6.1093654411143888e-07 0.0000000000000000e+00  -1.5100086472883473e-05 -9.4497822714320835e-07 0.0000000000000000e+00  -2.1062906144212646e-05 -1.3144313393413582e-06 0.0000000000000000e+00  -2.7886451853626981e-05 -1.7330197327825248e-06 0.0000000000000000e+00  -3.5876169983284935e-05 -2.2162449514477304e-06 0.0000000000000000e+00  -4.5415983712601683e-05 -2.7820821642975289e-06 0.0000000000000000e+00  -5.7007564688066934e-05 -3.4520439647172700e-06 0.0000000000000000e+00  -7.1330172553626386e-05 -4.2530391139504935e-06 0.0000000000000000e+00  -8.9331915622074351e-05 -5.2208908618678895e-06 0.0000000000000000e+00  -1.1236647727371580e-04 -6.4070921662175204e-06 0.0000000000000000e+00  -1.4238972057430501e-04 -7.8911505625101535e-06 0.0000000000000000e+00  -1.8222164182158445e-04 -9.8003971320023077e-06 0.0000000000000000e+00  -2.3584978929858184e-04 -1.2333070350252630e-05 0.0000000000000000e+00  -3.0869399944663984e-04 -1.5759668548394653e-05 0.0000000000000000e+00  -4.0770575479753791e-04 -2.0337279028948512e-05 0.0000000000000000e+00  0.0000000000000000e+00 0.0000000000000000e+00 0.0000000000000000e+00  -4.5333610966159988e-06 -2.9694759604521169e-07 0.0000000000000000e+00  -9.2298944906536821e-06 -6.0537122449315303e-07 0.0000000000000000e+00  -1.4258233532124043e-05 -9.3715208166343244e-07 0.0000000000000000e+00  -1.9800249982908299e-05 -1.3050323239291382e-06 0.0000000000000000e+00  -2.6060025210979322e-05 -1.7230688129774820e-06 0.0000000000000000e+00  -3.3276811551574509e-05 -2.2071248797891515e-06 0.0000000000000000e+00  -4.1745503067528079e-05 -2.7754482725140850e-06 0.0000000000000000e+00  -5.1850933494664292e-05 -3.4494788638159945e-06 0.0000000000000000e+00  -6.4127131252929428e-05 -4.2552989096053566e-06 0.0000000000000000e+00  -7.9360484296373809e-05 -5.2268298519190067e-06 0.0000000000000000e+00  -9.8767403901288254e-05 -6.4134942388255312e-06 0.0000000000000000e+00  -1.2429158991653517e-04 -7.8983893463933703e-06 0.0000000000000000e+00  -1.5907639936384380e-04 -9.8384493355308377e-06 0.0000000000000000e+00  -2.0815193546985686e-04 -1.2541713411688676e-05 0.0000000000000000e+00  -2.7929135683792675e-04 -1.6577309064189942e-05 0.0000000000000000e+00  -3.8383789616575867e-04 -2.2811861176777942e-05 0.0000000000000000e+00  0.0000000000000000e+00 0.0000000000000000e+00 0.0000000000000000e+00  -4.1249052943299075e-06 -2.8247732806979681e-07 0.0000000000000000e+00  -8.3802400572703939e-06 -5.7619042057955727e-07 0.0000000000000000e+00  -1.2897280466420115e-05 -8.9277548199410068e-07 0.0000000000000000e+00  -1.7811231901789678e-05 -1.2447612139866932e-06 0.0000000000000000e+00  -2.3263734143135942e-05 -1.6460070263981663e-06 0.0000000000000000e+00  -2.9407035145828750e-05 -2.1121077239260347e-06 0.0000000000000000e+00  -3.6412434529465723e-05 -2.6607063175529471e-06 0.0000000000000000e+00  -4.4488699298208775e-05 -3.3116325524170461e-06 0.0000000000000000e+00  -5.3922288532515395e-05 -4.0868512733669164e-06 0.0000000000000000e+00  -6.5162891940095171e-05 -5.0106570983953037e-06 0.0000000000000000e+00  -7.8998927974705072e-05 -6.1122770802761181e-06 0.0000000000000000e+00  -9.6903288584622525e-05 -7.4384017229581407e-06 0.0000000000000000e+00  -1.2168195491455586e-04 -9.0975626049330197e-06 0.0000000000000000e+00  -1.5860842793603573e-04 -1.1390399770432191e-05 0.0000000000000000e+00  -2.1717604590797653e-04 -1.5123075252969464e-05 0.0000000000000000e+00  -3.1324798947385496e-04 -2.2128889808018753e-05 0.0000000000000000e+00  0.0000000000000000e+00 0.0000000000000000e+00 0.0000000000000000e+00  -3.5855130683587305e-06 -2.5668469291189346e-07 0.0000000000000000e+00  -7.2665624303191395e-06 -5.2389461591408421e-07 0.0000000000000000e+00  -1.1134903128756122e-05 -8.1255171577110347e-07 0.0000000000000000e+00  -1.5276332542142227e-05 -1.1345009408902599e-06 0.0000000000000000e+00  -1.9765652357697045e-05 -1.5029567890146309e-06 0.0000000000000000e+00  -2.4659517021831308e-05 -1.9328761266851173e-06 0.0000000000000000e+00  -2.9987320167441806e-05 -2.4410891959640934e-06 0.0000000000000000e+00  -3.5742314635157667e-05 -3.0457999681990727e-06 0.0000000000000000e+00  -4.1880319979969942e-05 -3.7646546802839814e-06 0.0000000000000000e+00  -4.8345455085207744e-05 -4.6099600095291559e-06 0.0000000000000000e+00  -5.5169147686870633e-05 -5.5792751375590087e-06 0.0000000000000000e+00  -6.2745484221228310e-05 -6.6420164453508821e-06 0.0000000000000000e+00  -7.2500369829760851e-05 -7.7377289768532592e-06 0.0000000000000000e+00  -8.8381052982686726e-05 -8.8628348796031130e-06 0.0000000000000000e+00  -1.1984106540803217e-04 -1.0525916735680608e-05 0.0000000000000000e+00  -1.8637971077144967e-04 -1.5192688076869834e-05 0.0000000000000000e+00  0.0000000000000000e+00 0.0000000000000000e+00 0.0000000000000000e+00  -2.9503403307006728e-06 -2.2029489559543795e-07 0.0000000000000000e+00  -5.9636637560891176e-06 -4.4991560828628083e-07 0.0000000000000000e+00  -9.0955090956514912e-06 -6.9858368637121809e-07 0.0000000000000000e+00  -1.2387149870465581e-05 -9.7697764373594207e-07 0.0000000000000000e+00  -1.5853636865256118e-05 -1.2972454780195487e-06 0.0000000000000000e+00  -1.9465311720609954e-05 -1.6735112958837374e-06 0.0000000000000000e+00  -2.3119271582228213e-05 -2.1222203074271814e-06 0.0000000000000000e+00  -2.6596590362284423e-05 -2.6618411589241084e-06 0.0000000000000000e+00  -2.9501813258792301e-05 -3.3106093165626878e-06 0.0000000000000000e+00  -3.1186910591500609e-05 -4.0789648390496983e-06 0.0000000000000000e+00  -3.0682048180187252e-05 -4.9487807226086941e-06 0.0000000000000000e+00  -2.6714538408102046e-05 -5.8226279154442947e-06 0.0000000000000000e+00  -1.8056144462636689e-05 -6.4146755854959958e-06 0.0000000000000000e+00  -4.8534091672276984e-06 -6.0674432679462824e-06 0.0000000000000000e+00  7.3353453370670701e-06 -3.7090048343371305e-06 0.0000000000000000e+00  -2.7162185094021001e-06 -2.8591103860824171e-07 0.0000000000000000e+00  0.0000000000000000e+00 0.0000000000000000e+00 0.0000000000000000e+00  -2.2519387052672077e-06 -1.7451125636248092e-07 0.0000000000000000e+00  -4.5403484210627581e-06 -3.5664862564455528e-07 0.0000000000000000e+00  -6.8925380413469649e-06 -5.5441869981520664e-07 0.0000000000000000e+00  -9.3171626305615080e-06 -7.7677921661395565e-07 0.0000000000000000e+00  -1.1788161357498385e-05 -1.0342462346115684e-06 0.0000000000000000e+00  -1.4218738247237762e-05 -1.3396857817376726e-06 0.0000000000000000e+00  -1.6418235661826344e-05 -1.7093627082992463e-06 0.0000000000000000e+00  -1.8020351064800914e-05 -2.1642252157490639e-06 0.0000000000000000e+00  -1.8364380522880443e-05 -2.7309250512248927e-06 0.0000000000000000e+00  -1.6302294825752906e-05 -3.4402432903626667e-06 0.0000000000000000e+00  -9.8979419625399751e-06 -4.3144077095908043e-06 0.0000000000000000e+00  3.9996535792446327e-06 -5.3155991208719380e-06 0.0000000000000000e+00  3.0218827967435892e-05 -6.1726805915630531e-06 0.0000000000000000e+00  7.5239830535487026e-05 -5.8508163956548024e-06 0.0000000000000000e+00  1.4457245452532117e-04 -9.4517763107129585e-07 0.0000000000000000e+00  2.2855234608804996e-04 2.0647262085503101e-05 0.0000000000000000e+00  0.0000000000000000e+00 0.0000000000000000e+00 0.0000000000000000e+00  -1.5165713311371807e-06 -1.2102485495257043e-07 0.0000000000000000e+00  -3.0510530155109504e-06 -2.4749141657454446e-07 0.0000000000000000e+00  -4.6130489485965838e-06 -3.8516076042086298e-07 0.0000000000000000e+00  -6.1947093421469572e-06 -5.4061346839909980e-07 0.0000000000000000e+00  -7.7552811264276394e-06 -7.2186741900306224e-07 0.0000000000000000e+00  -9.1951962829165349e-06 -9.3936692301538046e-07 0.0000000000000000e+00  -1.0311053778308887e-05 -1.2077450723395115e-06 0.0000000000000000e+00  -1.0715840515299706e-05 -1.5492236251331967e-06 0.0000000000000000e+00  -9.6954630314649643e-06 -2.0005133077656130e-06 0.0000000000000000e+00  -5.9477754065863950e-06 -2.6270712156455514e-06 0.0000000000000000e+00  2.8951979423506943e-06 -3.5518145315485905e-06 0.0000000000000000e+00  2.1138893394443006e-05 -5.0075491035096570e-06 0.0000000000000000e+00  5.6574718803355830e-05 -7.4102066593854512e-06 0.0000000000000000e+00  1.2296919708077502e-04 -1.1386744431876588e-05 0.0000000000000000e+00  2.4251105861707847e-04 -1.7558210942116490e-05 0.0000000000000000e+00  4.4005111183389447e-04 -2.5574126985850047e-05 0.0000000000000000e+00  0.0000000000000000e+00 0.0000000000000000e+00 0.0000000000000000e+00  -7.6237290880430149e-07 -6.1999559397513040e-08 0.0000000000000000e+00  -1.5314955295516595e-06 -1.2684669885459382e-07 0.0000000000000000e+00  -2.3091695435723431e-06 -1.9757772076125086e-07 0.0000000000000000e+00  -3.0866152257898420e-06 -2.7772147575944728e-07 0.0000000000000000e+00  -3.8349000095935107e-06 -3.7171493321455587e-07 0.0000000000000000e+00  -4.4884886632326058e-06 -4.8565244839481344e-07 0.0000000000000000e+00  -4.9157498057526857e-06 -6.2882359090510546e-07 0.0000000000000000e+00  -4.8645649148186179e-06 -8.1720994723375565e-07 0.0000000000000000e+00  -3.8596197454114372e-06 -1.0821085643531650e-06 0.0000000000000000e+00  -1.0047383233960081e-06 -1.4927972249588680e-06 0.0000000000000000e+00  5.4001625411352279e-06 -2.2189612781199845e-06 0.0000000000000000e+00  1.8583663711944458e-05 -3.7070353019289553e-06 0.0000000000000000e+00  4.4534516074279330e-05 -7.1731575633173389e-06 0.0000000000000000e+00  9.3372941109344331e-05 -1.5869555555729241e-05 0.0000000000000000e+00  1.7755104707751227e-04 -3.7499716300027689e-05 0.0000000000000000e+00  2.9534133187609043e-04 -8.4062450711301108e-05 0.0000000000000000e+00  0.0000000000000000e+00 0.0000000000000000e+00 0.0000000000000000e+00  0.0000000000000000e+00 0.0000000000000000e+00 0.0000000000000000e+00  0.0000000000000000e+00 0.0000000000000000e+00 0.0000000000000000e+00  0.0000000000000000e+00 0.0000000000000000e+00 0.0000000000000000e+00  0.0000000000000000e+00 0.0000000000000000e+00 0.0000000000000000e+00  0.0000000000000000e+00 0.0000000000000000e