<?xml version="1.0"?>
<VTKFile type="UnstructuredGrid"  version="0.1"  >
<UnstructuredGrid>
<Piece  NumberOfPoints="289" NumberOfCells="512">
<Points>
<DataArray  type="Float64"  NumberOfComponents="3"  format="ascii">0 0 0  0.0625 0 0  0.125 0 0  0.1875 0 0  0.25 0 0  0.3125 0 0  0.375 0 0  0.4375 0 0  0.5 0 0  0.5625 0 0  0.625 0 0  0.6875 0 0  0.75 0 0  0.8125 0 0  0.875 0 0  0.9375 0 0  1 0 0  0 0.0625 0  0.06246932466562458 0.06249636832985738 0  0.1249382650304451 0.0624926748722887 0  0.1874065176796434 0.06248886457778535 0  0.2498739686053494 0.06248489726534272 0  0.3123408256277037 0.06248075724495524 0  0.3748078016948523 0.06247646526363727 0  0.4372763770224758 0.06247209281036902 0  0.4997491842301985 0.0624677777201753 0  0.5622305971477182 0.0624637380284854 0  0.6247276936976258 0.06246027771550987 0  0.6872520008086785 0.0624577728455241 0  0.7498231023438964 0.06245661855355551 0  0.8124772325114367 0.06245710046226065 0  0.8752906252127439 0.06245909389871539 0  0.9384507285391521 0.06246122138008708 0  1.002498208614127 0.06245816562296291 0  0 0.125 0  0.06243904621545338 0.124992795173116 0  0.12487723838761 0.1249854594683205 0  0.1873138710377042 0.1249778745907812 0  0.2497485882681836 0.124969950265361 0  0.312181629857222 0.1249616429426004 0  0.3746141723374792 0.1249529797463635 0  0.4370488136131516 0.1249440883035696 0  0.4994902710863409 0.1249352312507226 0  0.5619464053585733 0.1249268406482639 0  0.624429770214102 0.1249195414058754 0  0.6869600828266215 0.124914143854961 0  0.7495684218231508 0.1249115771009562 0  0.8123047526599418 0.1249127462820807 0  0.8752513317641959 0.1249184193843879 0  0.9385422067975747 0.1249298894139453 0  1.002360753513442 0.1249540245370619 0  0 0.1875 0  0.06240964411147674 0.1874893499391459 0  0.1248178051761502 0.1874784865233309 0  0.1872231907898769 0.1874672129410809 0  0.2496249617313547 0.1874553698287801 0  0.3120230562192857 0.1874428616281064 0  0.3744186425596745 0.1874296920156528 0  0.4368147603621455 0.1874160106887409 0  0.4992172266898112 0.187402171930199 0  0.5616359057808855 0.1873888010876778 0  0.6240864698985337 0.1873768563891164 0  0.6865928060697229 0.1873676571287778 0  0.7491901951456681 0.187362819150431 0  0.8119290722389224 0.1873639777819809 0  0.8748777397571071 0.1873720154495133 0  0.9381174177742712 0.1873848966331129 0  1.001709802000618 0.1873904419111462 0  0 0.25 0  0.06238175691502126 0.2499861154116272 0  0.1247611957617615 0.2499719174403335 0  0.1871361958383182 0.2499571102124695 0  0.2495051152484087 0.2499414386324103 0  0.311867145919243 0.24992471953059 0  0.3742228200143696 0.2499068864527799 0  0.4365747353852439 0.249888053293827 0  0.498928577614251 0.2498686013480621 0  0.561294517884666 0.2498492913518156 0  0.6236890414391419 0.2498313939396881 0  0.6861371687014849 0.2498168136031525 0  0.7486747727787392 0.2498081442568248 0  0.8113500588579563 0.2498085263381823 0  0.8742218507489121 0.2498210673314643 0  0.9373496950589467 0.2498475082901061 0  1.000767956619036 0.2498864016971723 0  0 0.3125 0  0.06235622693060622 0.3124831918399807 0  0.1247090854325535 0.3124659516056134 0  0.1870553693102683 0.3124478615829993 0  0.2493922842363662 0.3124285395097162 0  0.3117177779550644 0.312407669673154 0  0.3740310354177373 0.3123850520673359 0  0.4363332152993446 0.3123606787255556 0  0.4986285158070898 0.312334848462293 0  0.5609256565299674 0.3123083323749429 0  0.6232398255871054 0.3122825997732971 0  0.6855950206362305 0.312260101758527 0  0.7480264254234998 0.3122445763279784 0  0.8105818908901422 0.3122412678076704 0  0.8733206454586885 0.3122568310409932 0  0.9363062939330119 0.3122985455407812 0  0.9995913688896421 0.3123724365472426 0  0 0.375 0  0.06233410753806558 0.3749806979687236 0  0.1246636160573483 0.3749608295901532 0  0.1869840090307292 0.3749398347496391 0  0.2492910151851055 0.3749171726234306 0  0.3115808522983346 0.3748923456783011 0  0.3738506376584669 0.3748649443463161 0  0.4360990530411907 0.3748347253776849 0  0.4983273765355009 0.3748017429854965 0  0.5605410135928071 0.3747665600099214 0  0.6227516556199523 0.3747305750264501 0  0.6849801262239954 0.3746965053071445 0  0.7472597739606052 0.3746690507020777 0  0.8096398460855009 0.3746556990023682 0  0.8721875852810446 0.3746674644147075 0  0.9349870257671439 0.3747190069772698 0  0.998132372144933 0.3748270214263137 0  0 0.4375 0  0.06231662674967234 0.4374787678809474 0  0.1246273262133575 0.4374568277185603 0  0.1869261311974593 0.4374334643850574 0  0.2492070557987821 0.437407954170373 0  0.3114641876791347 0.437379572920493 0  0.3736919297117157 0.4373476235561528 0  0.4358854878770154 0.4373114980441254 0  0.4980417489443958 0.4372707991479549 0  0.5601607537172907 0.4372255640083242 0  0.6222480424812812 0.4371766570990031 0  0.684318203244958 0.4371264342724129 0  0.7463999272678352 0.4370798123208269 0  0.8085426463251175 0.4370458710503546 0  0.8708242072199557 0.4370399653934531 0  0.9333578885909313 0.4370858333490362 0  0.9962956136957105 0.4372161133983432 0  0 0.5 0  0.06230510443611346 0.4999775427988604 0  0.12460298360313 0.4999542418860903 0  0.1868862154901094 0.4999292288284786 0  0.2491470137044025 0.4999015884997607 0  0.3113771053408818 0.4998703424190846 0  0.3735677114906502 0.4998344444265124 0  0.4357097232668755 0.4997928018311104 0  0.4977942362662131 0.4997443476140424 0  0.5598137206240797 0.499688212714389 0  0.6217642793099271 0.4996240903843029 0  0.6836496916318545 0.4995529594524786 0  0.7454882163314157 0.4994784513194649 0  0.8073232813800835 0.499409292711017 0  0.8692388000464353 0.4993633192599484 0  0.9313781619067236 0.4993731576201973 0  0.9939623243303605 0.4994920092888304 0  0 0.5625 0  0.0623008255149442 0.5624771576500328 0  0.1245933226815236 0.5624533598089703 0  0.1868687913405271 0.5624276065229591 0  0.2491177731948814 0.5623988073945413 0  0.3113296659869997 0.5623657335897664 0  0.3734923554054517 0.562326968948928 0  0.4355919272805373 0.5622808657634701 0  0.4976126038419647 0.5622255208068491 0  0.5595372022209905 0.5621588096673767 0  0.6213486947906627 0.5620785669768168 0  0.6830339344326462 0.5619831068009588 0  0.7445913610919788 0.5618724970118106 0  0.8060454666263006 0.5617514149561075 0  0.8674714162074454 0.5616350503373421 0  0.9290317565601606 0.5615600119897688 0  0.991020118124901 0.5616007881007078 0  0 0.625 0  0.06230487779357072 0.6249777232956006 0  0.1246007031457274 0.6249544232297547 0  0.1868778833879772 0.6249290135869392 0  0.2491256802601425 0.6249002759713389 0  0.3113315418464943 0.6248667794213673 0  0.3734803294013577 0.6248267817713935 0  0.4355534349128169 0.6247781055454853 0  0.4975278488129201 0.6247179825405319 0  0.5593753867781163 0.6246428694444607 0  0.6210626139112279 0.6245482660586045 0  0.6825526897033972 0.6244286572576115 0  0.7438116920918236 0.6242779529108318 0  0.8048243308733635 0.6240914653278447 0  0.8656273234724375 0.6238720419311484 0  0.9263709420394274 0.6236459942443734 0  0.9874121646270876 0.6234971453270898 0  0 0.6875 0  0.06231797121314944 0.6874793066644411 0  0.1246267221499344 0.6874575846766607 0  0.1869163623890583 0.6874337295517935 0  0.2491755471757248 0.6874064742721143 0  0.3113905587905834 0.6873742832284484 0  0.3735441387512666 0.68733521128196 0  0.4356139655021016 0.6872867065085367 0  0.497570676887686 0.6872253236817106 0  0.5593754007962354 0.6871462971609323 0  0.6209769884257017 0.6870428966195311 0  0.6823098007100493 0.6869054723767382 0  0.7432945686928467 0.6867201721646219 0  0.8038487684566554 0.6864678140174936 0  0.8639212163823753 0.6861255001014428 0  0.9235792260867958 0.6856806487122702 0  0.9831817877326344 0.6851839406386724 0  0 0.75 0  0.06234026395281103 0.7499819122685898 0  0.1246718330886254 0.7499628663651863 0  0.186985284552655 0.7499418243122501 0  0.2492695901872825 0.7499175751616227 0  0.3115110433589469 0.7498886177712357 0  0.3736918078127201 0.7498529989538107 0  0.4357878701921342 0.749808076387988 0  0.4977660876308333 0.7497501541516377 0  0.5595799104782034 0.7496738958413078 0  0.621163279664147 0.749571331685038 0  0.6824223499156846 0.7494300910433417 0  0.7432257413634582 0.7492301236981554 0  0.8033980284766751 0.7489375887173695 0  0.8627340737302523 0.7484945628194712 0  0.9210883864507619 0.7478099923806366 0  0.9786650214485814 0.7468113145441997 0  0 0.8125 0  0.06237122782554971 0.8124854691742315 0  0.124735041380555 0.8124701304842091 0  0.1870833390010532 0.8124531032515759 0  0.2494064858483175 0.8124333480703245 0  0.3116922447680595 0.8124095575278341 0  0.3739242651853729 0.81238000357899 0  0.4360798314436545 0.8123423122474459 0  0.498126386915429 0.8122931161779126 0  0.5600160313710685 0.8122274940482654 0  0.6216766516382524 0.8121380105982672 0  0.6829974906998639 0.8120129259378039 0  0.743805840455068 0.811832451306193 0  0.8038312585437217 0.8115598679248446 0  0.8626607835730619 0.8111180701376297 0  0.9197365944049284 0.8103231646349803 0  0.9747194680699464 0.8086882814520618 0  0 0.875 0  0.06240958713329429 0.8749898270269089 0  0.1248137546216511 0.8749790692448572 0  0.1872065441310703 0.8749670866086471 0  0.2495807861926682 0.8749531184365809 0  0.3119272298896 0.8749362003445151 0  0.3742332742481243 0.8749150492069246 0  0.4364810059656541 0.8748878974465177 0  0.4986440288715198 0.8748522507094187 0  0.5606821485500466 0.8748045352631341 0  0.6225321404126607 0.8747395975496013 0  0.6840911134716869 0.8746500223773241 0  0.7451852850163794 0.8745252100177033 0  0.8055085656471986 0.874349747206133 0  0.8644954700850386 0.8740977665629228 0  0.9210500833221875 0.8737040162732798 0  0.9730235644428219 0.8728996749483332 0  0 0.9375 0  0.06245335822390394 0.9374947630989855 0  0.1249038518768383 0.937489219344962 0  0.1873483197997191 0.9374830322363398 0  0.2497829308279499 0.9374758005393127 0  0.3122026934920704 0.9374670140531932 0  0.3746007280502522 0.9374559934522055 0  0.4369671155099595 0.937
[...]
<PointData  Vectors="f_54"> 
<DataArray  type="Float64"  Name="f_54"  NumberOfComponents="3" format="ascii">0.0000000000000000e+00 0.0000000000000000e+00 0.0000000000000000e+00  0.0000000000000000e+00 0.0000000000000000e+00 0.0000000000000000e+00  0.0000000000000000e+00 0.0000000000000000e+00 0.0000000000000000e+00  0.0000000000000000e+00 0.0000000000000000e+00 0.0000000000000000e+00  0.0000000000000000e+00 0.0000000000000000e+00 0.0000000000000000e+00  0.0000000000000000e+00 0.0000000000000000e+00 0.0000000000000000e+00  0.0000000000000000e+00 0.0000000000000000e+00 0.0000000000000000e+00  0.0000000000000000e+00 0.0000000000000000e+00 0.0000000000000000e+00  0.0000000000000000e+00 0.0000000000000000e+00 0.0000000000000000e+00  0.0000000000000000e+00 0.0000000000000000e+00 0.0000000000000000e+00  0.0000000000000000e+00 0.0000000000000000e+00 0.0000000000000000e+00  0.0000000000000000e+00 0.0000000000000000e+00 0.0000000000000000e+00  0.0000000000000000e+00 0.0000000000000000e+00 0.0000000000000000e+00  0.0000000000000000e+00 0.0000000000000000e+00 0.0000000000000000e+00  0.0000000000000000e+00 0.0000000000000000e+00 0.0000000000000000e+00  0.0000000000000000e+00 0.0000000000000000e+00 0.0000000000000000e+00  0.0000000000000000e+00 0.0000000000000000e+00 0.0000000000000000e+00  0.0000000000000000e+00 0.0000000000000000e+00 0.0000000000000000e+00  -4.2505712460563384e-06 -1.4781840847922978e-07 0.0000000000000000e+00  -8.6297358624126605e-06 -2.9930807332267174e-07 0.0000000000000000e+00  -1.3267077815818412e-05 -4.5797028928156064e-07 0.0000000000000000e+00  -1.8292975161290127e-05 -6.2688206904289857e-07 0.0000000000000000e+00  -2.3838135064672379e-05 -8.0834092148488788e-07 0.0000000000000000e+00  -3.0032174913094174e-05 -1.0033215128263697e-06 0.0000000000000000e+00  -3.7001273437469729e-05 -1.2106579575843737e-06 0.0000000000000000e+00  -4.4865677044992937e-05 -1.4258482628800087e-06 0.0000000000000000e+00  -5.3739848842578789e-05 -1.6393486413216102e-06 0.0000000000000000e+00  -6.3743330506567999e-05 -1.8341301374543922e-06 0.0000000000000000e+00  -7.5044919968825452e-05 -1.9818622928657346e-06 0.0000000000000000e+00  -8.8005537670534907e-05 -2.0353530268400425e-06 0.0000000000000000e+00  -1.0362162424665951e-04 -1.9076257801997402e-06 0.0000000000000000e+00  -1.2494532729294335e-04 -1.3973944745668658e-06 0.0000000000000000e+00  -1.6196756148234052e-04 1.1444808453179166e-07 0.0000000000000000e+00  -2.5034258226511164e-04 5.0331007914679003e-06 0.0000000000000000e+00  0.0000000000000000e+00 0.0000000000000000e+00 0.0000000000000000e+00  -8.3677903639884998e-06 -2.9180059901202592e-07 0.0000000000000000e+00  -1.6991773055009618e-05 -5.9111600263204176e-07 0.0000000000000000e+00  -2.6130427755635880e-05 -9.0517553645777537e-07 0.0000000000000000e+00  -3.6044527280553166e-05 -1.2404786505419413e-06 0.0000000000000000e+00  -4.6996494997980385e-05 -1.6021594703604881e-06 0.0000000000000000e+00  -5.9247628861772535e-05 -1.9929918207768823e-06 0.0000000000000000e+00  -7.3052781678571742e-05 -2.4118653791440155e-06 0.0000000000000000e+00  -8.8652862767344605e-05 -2.8515361441437851e-06 0.0000000000000000e+00  -1.0626750497693820e-04 -3.2954465313282144e-06 0.0000000000000000e+00  -1.2609489361018676e-04 -3.7134526001836784e-06 0.0000000000000000e+00  -1.4833612234166550e-04 -4.0564612405966145e-06 0.0000000000000000e+00  -1.7328296888512496e-04 -4.2505902782304574e-06 0.0000000000000000e+00  -2.0154484874831621e-04 -4.1943892501031786e-06 0.0000000000000000e+00  -2.3450655681007314e-04 -3.7788626895286760e-06 0.0000000000000000e+00  -2.7476476572766572e-04 -3.0421646028229175e-06 0.0000000000000000e+00  -3.2334384851867982e-04 -3.0973881671111042e-06 0.0000000000000000e+00  0.0000000000000000e+00 0.0000000000000000e+00 0.0000000000000000e+00  -1.2223570209802376e-05 -4.2808615042245543e-07 0.0000000000000000e+00  -2.4829005412154912e-05 -8.6783092188595095e-07 0.0000000000000000e+00  -3.8202379134878085e-05 -1.3305929714516043e-06 0.0000000000000000e+00  -5.2735011064525153e-05 -1.8269169380972426e-06 0.0000000000000000e+00  -6.8823343281996147e-05 -2.3657594607523683e-06 0.0000000000000000e+00  -8.6865293175530310e-05 -2.9532161278532939e-06 0.0000000000000000e+00  -1.0725175049315407e-04 -3.5904945882349564e-06 0.0000000000000000e+00  -1.3035200065866028e-04 -4.2708223364596564e-06 0.0000000000000000e+00  -1.5649235860495627e-04 -4.9749549089334499e-06 0.0000000000000000e+00  -1.8592832650762199e-04 -5.6650443408369976e-06 0.0000000000000000e+00  -2.1881153339377806e-04 -6.2770219461590863e-06 0.0000000000000000e+00  -2.5514948880376166e-04 -6.7127296567102254e-06 0.0000000000000000e+00  -2.9473172238157037e-04 -6.8354757361677948e-06 0.0000000000000000e+00  -3.3689096312693992e-04 -6.4763978715370180e-06 0.0000000000000000e+00  -3.7961269225511183e-04 -5.4511510108174727e-06 0.0000000000000000e+00  -4.1661552282203421e-04 -3.4472230571973094e-06 0.0000000000000000e+00  0.0000000000000000e+00 0.0000000000000000e+00 0.0000000000000000e+00  -1.5691794954555416e-05 -5.5251538396613807e-07 0.0000000000000000e+00  -3.1887528699857374e-05 -1.1211564202870762e-06 0.0000000000000000e+00  -4.9098207480075902e-05 -1.7218688491762798e-06 0.0000000000000000e+00  -6.7845262660808859e-05 -2.3699993199825196e-06 0.0000000000000000e+00  -8.8662223169393527e-05 -3.0795834231228323e-06 0.0000000000000000e+00  -1.1209158377876770e-04 -3.8620514576049393e-06 0.0000000000000000e+00  -1.3867445978454332e-04 -4.7240131917742831e-06 0.0000000000000000e+00  -1.6892987559871824e-04 -5.6636597223497610e-06 0.0000000000000000e+00  -2.0331942473930553e-04 -6.6651954758426630e-06 0.0000000000000000e+00  -2.4219104034551060e-04 -7.6906672379637782e-06 0.0000000000000000e+00  -2.8569112549939985e-04 -8.6687835842646170e-06 0.0000000000000000e+00  -3.3362290054705446e-04 -9.4812092474206037e-06 0.0000000000000000e+00  -3.8519993252471887e-04 -9.9490166890285304e-06 0.0000000000000000e+00  -4.3857760874888886e-04 -9.8261836057011745e-06 0.0000000000000000e+00  -4.8992950728513963e-04 -8.8138610171627395e-06 0.0000000000000000e+00  -5.3179417124204435e-04 -6.6301500979846455e-06 0.0000000000000000e+00  0.0000000000000000e+00 0.0000000000000000e+00 0.0000000000000000e+00  -1.8650050427576238e-05 -6.6060773512976807e-07 0.0000000000000000e+00  -3.7919748848966473e-05 -1.3420143470506245e-06 0.0000000000000000e+00  -5.8439850183452624e-05 -2.0651061614083785e-06 0.0000000000000000e+00  -8.0859571843942688e-05 -2.8507206987026710e-06 0.0000000000000000e+00  -1.0585193421576109e-04 -3.7192399676883614e-06 0.0000000000000000e+00  -1.3411357231857680e-04 -4.6896127800525492e-06 0.0000000000000000e+00  -1.6635576973036674e-04 -5.7774114158234003e-06 0.0000000000000000e+00  -2.0328201764089040e-04 -6.9913101732938669e-06 0.0000000000000000e+00  -2.4554518563964012e-04 -8.3270621420444569e-06 0.0000000000000000e+00  -2.9367389038304696e-04 -9.7576658052977627e-06 0.0000000000000000e+00  -3.4795186094565867e-04 -1.1218079622436584e-05 0.0000000000000000e+00  -4.0822429658360365e-04 -1.2582934772181319e-05 0.0000000000000000e+00  -4.7358945561003604e-04 -1.3637090409231488e-05 0.0000000000000000e+00  -5.4191435220991998e-04 -1.4043333698670905e-05 0.0000000000000000e+00  -6.0911537620469275e-04 -1.3322300255514674e-05 0.0000000000000000e+00  -6.6826431500613252e-04 -1.0882697270182924e-05 0.0000000000000000e+00  0.0000000000000000e+00 0.0000000000000000e+00 0.0000000000000000e+00  -2.0982432282668157e-05 -7.4767998227139780e-07 0.0000000000000000e+00  -4.2689729330148443e-05 -1.5207673766394382e-06 0.0000000000000000e+00  -6.5863161187250358e-05 -2.3451553585013881e-06 0.0000000000000000e+00  -9.1273617825592286e-05 -3.2475486081901440e-06 0.0000000000000000e+00  -1.1973288058038637e-04 -4.2556138529530241e-06 0.0000000000000000e+00  -1.5209959414335170e-04 -5.3977080406906804e-06 0.0000000000000000e+00  -1.8927636622588563e-04 -6.7018104146246815e-06 0.0000000000000000e+00  -2.3219252555119107e-04 -8.1929852464021215e-06 0.0000000000000000e+00  -2.8176423408910329e-04 -9.8881822131160717e-06 0.0000000000000000e+00  -3.3881954998668816e-04 -1.1786331959572307e-05 0.0000000000000000e+00  -4.0397039821946481e-04 -1.3850436458276609e-05 0.0000000000000000e+00  -4.7740645520277200e-04 -1.5976821635962437e-05 0.0000000000000000e+00  -5.5857981295526302e-04 -1.7945714294015864e-05 0.0000000000000000e+00  -6.4575154732848187e-04 -1.9349141494850529e-05 0.0000000000000000e+00  -7.3540219546597047e-04 -1.9501464589535112e-05 0.0000000000000000e+00  -8.2160739262976921e-04 -1.7359519033933655e-05 0.0000000000000000e+00  0.0000000000000000e+00 0.0000000000000000e+00 0.0000000000000000e+00  -2.2583691440444072e-05 -8.0911812462735792e-07 0.0000000000000000e+00  -4.5981395565568201e-05 -1.6477785860106618e-06 0.0000000000000000e+00  -7.1029911976569851e-05 -2.5464870826938310e-06 0.0000000000000000e+00  -9.8609612803274342e-05 -3.5376259673790782e-06 0.0000000000000000e+00  -1.2966391255359288e-04 -4.6563642794493405e-06 0.0000000000000000e+00  -1.6521487490761186e-04 -5.9414545568880273e-06 0.0000000000000000e+00  -2.0637172965021547e-04 -7.4356943343528237e-06 0.0000000000000000e+00  -2.5432697668449850e-04 -9.1855309725612793e-06 0.0000000000000000e+00  -3.1033159175117216e-04 -1.1238664226323010e-05 0.0000000000000000e+00  -3.7563633500807862e-04 -1.3637261561988963e-05 0.0000000000000000e+00  -4.5138024426619801e-04 -1.6402096337149697e-05 0.0000000000000000e+00  -5.3840082826648640e-04 -1.9499032648958421e-05 0.0000000000000000e+00  -6.3693609681109153e-04 -2.2773771065596880e-05 0.0000000000000000e+00  -7.4619340640148747e-04 -2.5835700823124694e-05 0.0000000000000000e+00  -8.6378693440562542e-04 -2.7874558160482166e-05 0.0000000000000000e+00  -9.8510654654134530e-04 -2.7420290141660045e-05 0.0000000000000000e+00  0.0000000000000000e+00 0.0000000000000000e+00 0.0000000000000000e+00  -2.3364796729424451e-05 -8.4078684342259351e-07 0.0000000000000000e+00  -4.7609850379680150e-05 -1.7142824148416467e-06 0.0000000000000000e+00  -7.3645182589631867e-05 -2.6546299785659782e-06 0.0000000000000000e+00  -1.0244008492099045e-04 -3.6989309918347681e-06 0.0000000000000000e+00  -1.3505255660012654e-04 -4.8889889415917539e-06 0.0000000000000000e+00  -1.7265759093999152e-04 -6.2733792402596919e-06 0.0000000000000000e+00  -2.1657217750044362e-04 -7.9099292159651374e-06 0.0000000000000000e+00  -2.6827285591189074e-04 -9.8685490350668840e-06 0.0000000000000000e+00  -3.2939840607873922e-04 -1.2233902275964603e-05 0.0000000000000000e+00  -4.0172530632642849e-04 -1.5106205173622638e-05 0.0000000000000000e+00  -4.8709653286338326e-04 -1.8595593311111789e-05 0.0000000000000000e+00  -5.8727526891830446e-04 -2.2799353174392800e-05 0.0000000000000000e+00  -7.0368603971080964e-04 -2.7739538803602466e-05 0.0000000000000000e+00  -8.3700273006444758e-04 -3.3219735697037580e-05 0.0000000000000000e+00  -9.8655902400547244e-04 -3.8540401113758243e-05 0.0000000000000000e+00  -1.1496066511613239e-03 -4.2021132539529675e-05 0.0000000000000000e+00  0.0000000000000000e+00 0.0000000000000000e+00 0.0000000000000000e+00  -2.3259723112085715e-05 -8.3952414346267532e-07 0.0000000000000000e+00  -4.7435477892089856e-05 -1.7134611894829531e-06 0.0000000000000000e+00  -7.3479828526786680e-05 -2.6580178407958753e-06 0.0000000000000000e+00  -1.0242024989461017e-04 -3.7132118192997960e-06 0.0000000000000000e+00  -1.3539925518901445e-04 -4.9253215265398849e-06 0.0000000000000000e+00  -1.7371720890874514e-04 -6.3501196879582352e-06 0.0000000000000000e+00  -2.1887754936195266e-04 -8.0573834155536358e-06 0.0000000000000000e+00  -2.7263253468727571e-04 -1.0137368469684367e-05 0.0000000000000000e+00  -3.3702469604641089e-04 -1.2710066356605036e-05 0.0000000000000000e+00  -4.1441408864742089e-04 -1.5937748246243187e-05 0.0000000000000000e+00  -5.0747301333763204e-04 -2.0039442816924820e-05 0.0000000000000000e+00  -6.1911685303889154e-04 -2.5299841080437396e-05 0.0000000000000000e+00  -7.5232159927823632e-04 -3.2048635634465319e-05 0.0000000000000000e+00  -9.0975937943470133e-04 -4.0548897590893409e-05 0.0000000000000000e+00  -1.0931809929398699e-03 -5.0665583054738879e-05 0.0000000000000000e+00  -1.3025453586581164e-03 -6.1115809738795926e-05 0.0000000000000000e+00  0.0000000000000000e+00 0.0000000000000000e+00 0.0000000000000000e+00  -2.2232943520806647e-05 -8.0363357584099419e-07 0.0000000000000000e+00  -4.5379799096815411e-05 -1.6415378093263079e-06 0.0000000000000000e+00  -7.0396499416044308e-05 -2.5499284147186849e-06 0.0000000000000000e+00  -9.8327034683191983e-05 -3.5692197314802208e-06 0.0000000000000000e+00  -1.3035342275264153e-04 -4.7468218208394943e-06 0.0000000000000000e+00  -1.6785290597157347e-04 -6.1410113953458648e-06 0.0000000000000000e+00  -2.1246462503772011e-04 -7.8267189978022047e-06 0.0000000000000000e+00  -2.6616731378637854e-04 -9.9046967511983209e-06 0.0000000000000000e+00  -3.3136767305612619e-04 -1.2516581510441405e-05 0.0000000000000000e+00  -4.1099483091588794e-04 -1.5869927555258536e-05 0.0000000000000000e+00  -5.0858764025983789e-04 -2.0278914927982353e-05 0.0000000000000000e+00  -6.2834528831684641e-04 -2.6225748673926802e-05 0.0000000000000000e+00  -7.7508354463978334e-04 -3.4436388482534533e-05 0.0000000000000000e+00  -9.5399597867447568e-04 -4.5918485707662129e-05 0.0000000000000000e+00  -1.1700697871767935e-03 -6.1776432182620623e-05 0.0000000000000000e+00  -1.4269853002817775e-03 -8.2338963140604485e-05 0.0000000000000000e+00  0.0000000000000000e+00 0.0000000000000000e+00 0.0000000000000000e+00  -2.0286765501280100e-05 -7.3326568016830857e-07 0.0000000000000000e+00  -4.1441300730153838e-05 -1.4986384170163607e-06 0.0000000000000000e+00  -6.4376400068518239e-05 -2.3300647088795347e-06 0.0000000000000000e+00  -9.0100776858183273e-05 -3.2654777691371033e-06 0.0000000000000000e+00  -1.1977606634748447e-04 -4.3494187649338268e-06 0.0000000000000000e+00  -1.5478556182237655e-04 -5.6366587502080392e-06 0.0000000000000000e+00  -1.9681983035932228e-04 -7.1977126302575099e-06 0.0000000000000000e+00  -2.4798508986681667e-04 -9.1280093099495869e-06 0.0000000000000000e+00  -3.1094038060607411e-04 -1.1564311212525593e-05 0.0000000000000000e+00  -3.8906788317769932e-04 -1.4715693868374023e-05 0.0000000000000000e+00  -4.8667464000600922e-04 -1.8923500630007235e-05 0.0000000000000000e+00  -6.0920855951521777e-04 -2.4776627732093490e-05 0.0000000000000000e+00  -7.6343888136315636e-04 -3.3322610626897689e-05 0.0000000000000000e+00  -9.5749139462822863e-04 -4.6407527508260981e-05 0.0000000000000000e+00  -1.2005444257708292e-03 -6.7045572600996762e-05 0.0000000000000000e+00  -1.5020181591308319e-03 -9.9193810353727287e-05 0.0000000000000000e+00  0.0000000000000000e+00 0.0000000000000000e+00 0.0000000000000000e+00  -1.7467376420572112e-05 -6.3058924238643431e-07 0.0000000000000000e+00  -3.5708825164483588e-05 -1.2891877195758557e-06 0.0000000000000000e+00  -5.5542829068087041e-05 -2.0053098495102253e-06 0.0000000000000000e+00  -7.7883682984104574e-05 -2.8116970252415181e-06 0.0000000000000000e+00  -1.0380063630719989e-04 -3.7462533153038123e-06 0.0000000000000000e+00  -1.3459219175976676e-04 -4.8544740799699031e-06 0.0000000000000000e+00  -1.7188337226048514e-04 -6.1928147386525187e-06 0.0000000000000000e+00  -2.1775630399743646e-04 -7.8340395205807284e-06 0.0000000000000000e+00  -2.7492756094688357e-04 -9.8771756597193435e-06 0.0000000000000000e+00  -3.4698863046887243e-04 -1.2468865320881403e-05 0.0000000000000000e+00  -4.3872640886082162e-04 -1.5853526263948207e-05 0.0000000000000000e+00  -5.5653350636304059e-04 -2.0495544145961443e-05 0.0000000000000000e+00  -7.0889221457248882e-04 -2.7374858939066878e-05 0.0000000000000000e+00  -9.0685264067402618e-04 -3.8669705233654324e-05 0.0000000000000000e+00  -1.1642992790764411e-03 -5.9154764262692198e-05 0.0000000000000000e+00  -1.4973964564032347e-03 -9.7765501060691822e-05 0.0000000000000000e+00  0.0000000000000000e+00 0.0000000000000000e+00 0.0000000000000000e+00  -1.3868319108796087e-05 -4.9970056938049430e-07 0.0000000000000000e+00  -2.8369743879440832e-05 -1.0217025536290746e-06 0.0000000000000000e+00  -4.4176759673265685e-05 -1.5893542665633645e-06 0.0000000000000000e+00  -6.2047630395640715e-05 -2.2281749808496892e-06 0.0000000000000000e+00  -8.2881025486702289e-05 -2.9668486972949564e-06 0.0000000000000000e+00  -1.0778693875414266e-04 -3.8379566002587394e-06 0.0000000000000000e+00  -1.3818323740120398e-04 -4.8780445237000791e-06 0.0000000000000000e+00  -1.7593129983690112e-04 -6.1262612395987183e-06 0.0000000000000000e+00  -2.2353027802394382e-04 -7.6204144813405134e-06 0.0000000000000000e+00  -2.8439794284482894e-04 -9.3896529208780923e-06 0.0000000000000000e+00  -3.6327662369070856e-04 -1.1447416323046782e-05 0.0000000000000000e+00  -4.6681327036347131e-04 -1.3808862767695927e-05 0.0000000000000000e+00  -6.0436589963936338e-04 -1.6634225003258084e-05 0.0000000000000000e+00  -7.8907149025762792e-04 -2.0867816775813557e-05 0.0000000000000000e+00  -1.0392422729242489e-03 -3.0702893859098289e-05 0.0000000000000000e+00  -1.3816174920667750e-03 -6.3590697403185717e-05 0.0000000000000000e+00  0.0000000000000000e+00 0.0000000000000000e+00 0.0000000000000000e+00  -9.6301927123431817e-06 -3.4629716844818305e-07 0.0000000000000000e+00  -1.9710219882373942e-05 -7.0803628864675440e-07 0.0000000000000000e+00  -3.0719661308239298e-05 -1.1012595076720356e-06 0.0000000000000000e+00  -4.3203346221745866e-05 -1.5431748937553334e-06 0.0000000000000000e+00  -5.7813946612169174e-05 -2.0523634526384392e-06 0.0000000000000000e+00  -7.5368713624783697e-05 -2.6481747565300790e-06 0.0000000000000000e+00  -9.6929095360162278e-05 -3.3481726553153241e-06 0.0000000000000000e+00  -1.2391651440947214e-04 -4.1610320976364609e-06 0.0000000000000000e+00  -1.5828474708636929e-04 -5.0690103844427641e-06 0.0000000000000000e+00  -2.0278016380621469e-04 -5.9868192637879999e-06 0.0000000000000000e+00  -2.6133661346222279e-04 -6.6677855654683550e-06 0.0000000000000000e+00  -3.3967357935671535e-04 -6.4946551077374503e-06 0.0000000000000000e+00  -4.4620032973395043e-04 -4.0261996143255979e-06 0.0000000000000000e+00  -5.9337519892987392e-04 3.9473679819536662e-06 0.0000000000000000e+00  -7.9943925959208924e-04 2.4247787339475077e-05 0.0000000000000000e+00  -1.0878060446982410e-03 7.0121349907297420e-05 0.0000000000000000e+00  0.0000000000000000e+00 0.0000000000000000e+00 0.0000000000000000e+00  -4.9357244797936017e-06 -1.7721994677345113e-07 0.0000000000000000e+00  -1.0105556921970718e-05 -3.6232729074287559e-07 0.0000000000000000e+00  -1.5759737677636047e-05 -5.6346492465670148e-07 0.0000000000000000e+00  -2.2184058655653369e-05 -7.8922947027874707e-07 0.0000000000000000e+00  -2.9723490467198715e-05 -1.0485647773059996e-06 0.0000000000000000e+00  -3.8814245511289783e-05 -1.3499388399699787e-06 0.0000000000000000e+00  -5.0029758360607294e-05 -1.6987609084603004e-06 0.0000000000000000e+00  -6.4149129722653584e-05 -2.0904905717032893e-06 0.0000000000000000e+00  -8.2261214069613236e-05 -2.4930969393159178e-06 0.0000000000000000e+00  -1.0592281967766623e-04 -2.8027352440773343e-06 0.0000000000000000e+00  -1.3738776579956300e-04 -2.7308386587974108e-06 0.0000000000000000e+00  -1.7987822662002368e-04 -1.5139224929200545e-06 0.0000000000000000e+00  -2.3763543238163523e-04 2.8272199813440167e-06 0.0000000000000000e+00  -3.1457445698312438e-04 1.5283235325686115e-05 0.0000000000000000e+00  -4.0762357803851535e-04 4.7519882961777888e-05 0.0000000000000000e+00  -4.8661761066642439e-04 1.2148212960375733e-04 0.0000000000000000e+00  0.0000000000000000e+00 0.0000000000000000e+00 0.0000000000000000e+00  0.0000000000000000e+00 0.0000000000000000e+00 0.0000000000000000e+00  0.0000000000000000e+00 0.0000000000000000e+00 0.0000000000000000e+00  0.0000000000000000e+00 0.0000000000000000e+00 0.0000000000000000e+00  0.0000000000000000e+00 0.0000000000000000e+00 0.0000000000000000e+00  0.0000000000000000e+00 0.000000