<?xml version="1.0"?>
<VTKFile type="UnstructuredGrid"  version="0.1"  >
<UnstructuredGrid>
<Piece  NumberOfPoints="289" NumberOfCells="512">
<Points>
<DataArray  type="Float64"  NumberOfComponents="3"  format="ascii">0 0 0  0.0625 0 0  0.125 0 0  0.1875 0 0  0.25 0 0  0.3125 0 0  0.375 0 0  0.4375 0 0  0.5 0 0  0.5625 0 0  0.625 0 0  0.6875 0 0  0.75 0 0  0.8125 0 0  0.875 0 0  0.9375 0 0  1 0 0  0 0.0625 0  0.0625249508634782 0.06246321783736013 0  0.125051091220384 0.06242576596292841 0  0.187579657747779 0.06238701470237532 0  0.2501120602522079 0.06234646535581608 0  0.3126499967957944 0.06230383532110455 0  0.3751956146953283 0.06225916541174081 0  0.4377517538876806 0.06221295078966211 0  0.5003223412616287 0.06216628771826884 0  0.5629130745614133 0.06212101099858192 0  0.6255326961057287 0.06207976676487601 0  0.6881955542102081 0.06204591654902909 0  0.7509271878909929 0.062023095840137 0  0.8137774949475767 0.06201415440428681 0  0.876853800295574 0.06201913214964106 0  0.9404062128977604 0.06203242008817437 0  1.005034363228122 0.06204844642026291 0  0 0.125 0  0.06254869216715449 0.1249270581144451 0  0.1250997032652188 0.124852708124054 0  0.1876554503704592 0.1247756152075415 0  0.2502186955909118 0.1246946905693476 0  0.31279277591666 0.1246092566672025 0  0.3753819229377003 0.1245192624121644 0  0.4379917388040238 0.1244255565666751 0  0.5006299454878429 0.1243302126617822 0  0.5633076247174922 0.1242368687530125 0  0.6260413674648216 0.1241509908238699 0  0.6888571548955523 0.1240798802303183 0  0.7517975552834137 0.1240321277887752 0  0.8149350085664385 0.1240161446108719 0  0.8783946011122324 0.1240377240862689 0  0.942384187747994 0.1240985562461456 0  1.007203821958698 0.1242030428135625 0  0 0.1875 0  0.06257016295082916 0.1873922817796702 0  0.1251436301372325 0.1872822946721008 0  0.1877238514553708 0.1871678620557114 0  0.2503147666335277 0.1870471337800562 0  0.3129211292863235 0.1869188178360993 0  0.3755489511569246 0.1867824977852033 0  0.4382061456050986 0.1866390603696932 0  0.500903495762704 0.1864912444448589 0  0.5636561491347805 0.1863442897908237 0  0.6264859570278352 0.186206595428271 0  0.6894251202677549 0.1860901629228647 0  0.7525216420864602 0.1860103461330672 0  0.8158464942434451 0.1859839130822903 0  0.8794996101671128 0.1860231327632536 0  0.9436039025153171 0.1861194026895828 0  1.008264923579365 0.1861945940212853 0  0 0.25 0  0.06258844859861631 0.2498597693107446 0  0.1251809712953659 0.2497162506925863 0  0.1877818259781913 0.2495662448042115 0  0.2503958580825614 0.2494069027524579 0  0.3130288859501814 0.249235997256321 0  0.3756882212956481 0.2490523212758685 0  0.4383834033224511 0.2488562655435796 0  0.5011272556397764 0.2486506257215374 0  0.5639374080297834 0.2484416727555 0  0.6268384351572728 0.2482404649039973 0  0.6898646739458689 0.2480642458775177 0  0.7530633878004329 0.2479374835214204 0  0.81649680934294 0.2478915154143425 0  0.8802390622240072 0.2479606576762741 0  0.944360172085322 0.2481710044614751 0  1.008888932842555 0.24851883639958 0  0 0.3125 0  0.06260283078609073 0.3123305534672578 0  0.1252102410539048 0.3121566341420761 0  0.187827018803151 0.3119738230696807 0  0.2504585782537462 0.3117779960915305 0  0.3131113689072739 0.3115655898114625 0  0.3757934243237978 0.3113340344248428 0  0.4385151270072011 0.311082439529752 0  0.5012902866361379 0.3108126431413867 0  0.5641376369078577 0.3105307551904713 0  0.6270828135326383 0.3102493252705618 0  0.690160698435565 0.3099901947562699 0  0.7534175505587827 0.3097878611341397 0  0.8169114111298972 0.3096926204633488 0  0.8807079869550395 0.3097716576189097 0  0.9448691149845457 0.3101046753583535 0  1.009437237676665 0.3107697099302998 0  0 0.375 0  0.06261281674690539 0.3748058235467824 0  0.1252304329033732 0.3746058548144842 0  0.1878578651352012 0.3743942831852233 0  0.2505007310269257 0.3741654382150201 0  0.3131656431526832 0.3739139865921014 0  0.3758607416357971 0.3736353187936703 0  0.4385964469632709 0.3733262449350123 0  0.5013865438782507 0.3729861775545153 0  0.5642497304018493 0.3726190601099383 0  0.6272117519809514 0.3722363972238696 0  0.6903081225250435 0.3718618199782971 0  0.7535871058575865 0.3715375675859146 0  0.817112018857978 0.3713328370368218 0  0.8809612826515122 0.3713527401311196 0  0.94522534687725 0.3717443490746818 0  1.010005040108242 0.3726938096610616 0  0 0.4375 0  0.06261814783567012 0.4372868913708252 0  0.1252410385805941 0.4370666143028731 0  0.187873623494921 0.4368318711015266 0  0.2505213663352739 0.4365752430502416 0  0.3131905826079916 0.4362892402694654 0  0.3758889081866276 0.4359665300364505 0  0.438625992008607 0.4356004807138848 0  0.501414565413615 0.4351862513151839 0  0.5642721251253633 0.4347228089107115 0  0.6272235714034172 0.4342164918956597 0  0.6903052302920465 0.4336870645027816 0  0.7535706635286352 0.4331775515973885 0  0.8170983785594311 0.4327691831688431 0  0.881000955960345 0.4326017265057934 0  0.9454349748464381 0.4328963120873155 0  1.010614606917871 0.4339735192694177 0  0 0.5 0  0.06261878997714732 0.4997751119430653 0  0.1252420272459908 0.4995417493074035 0  0.1878743406896089 0.4992911654186007 0  0.2505207276544178 0.4990141377675689 0  0.3131867975225229 0.4987007916107523 0  0.3758791178550415 0.4983405417986286 0  0.4386057668980409 0.4979222751506419 0  0.5013772947565898 0.4974350081980013 0  0.5642084778648967 0.4968694640353106 0  0.627121565240179 0.4962213923461474 0  0.6901521957581522 0.4954981201999367 0  0.7533597538804406 0.4947308683820976 0  0.8168442967276878 0.4939966288882762 0  0.8807715828613358 0.4934536481294151 0  0.9454057250992285 0.4933904283582989 0  1.011149541301581 0.4942764472175635 0  0 0.5625 0  0.06261490965347624 0.5622717577534772 0  0.1252337918834101 0.5620339725458755 0  0.1878607590511539 0.561776671431987 0  0.2505001096104345 0.5614889970987323 0  0.3131564390043782 0.5611587461993667 0  0.3758347961269534 0.5607719125363817 0  0.4385409737547519 0.5603122978270546 0  0.5012821499683727 0.5597613511445055 0  0.5640683798043546 0.559098608858775 0  0.626916017587605 0.5583035577341423 0  0.6898552472251108 0.5573607018417407 0  0.752945691408761 0.5562715881052375 0  0.8163062435345085 0.5550812280270344 0  0.88016593495206 0.5539313272130796 0  0.944938037224632 0.5531523144849704 0  1.011309889316692 0.5533851885646347 0  0 0.625 0  0.06260683924548803 0.6247778550536598 0  0.125217070081739 0.6245455255579854 0  0.1878341743747842 0.6242922503324497 0  0.2504616291179271 0.6240059883053289 0  0.3131028636678264 0.6236726575937735 0  0.3757611705995754 0.623275227205397 0  0.4384395983693395 0.6227926216836428 0  0.5011409675923221 0.6221984379111107 0  0.5638684646417684 0.6214595928730036 0  0.626628049206272 0.6205353577562089 0  0.6894357222797302 0.6193781567068661 0  0.7523364661883957 0.6179400235608545 0  0.815448163125489 0.6161952958599486 0  0.8790504686556456 0.6142058414621142 0  0.9437333885229167 0.6122751218470248 0  1.010599742407705 0.6111965039219002 0  0 0.6875 0  0.06259503580750927 0.6872940017166613 0  0.1251928475216961 0.6870777832551311 0  0.1877962555704006 0.6868404439985775 0  0.2504079159481073 0.6865695048035686 0  0.3130301351153651 0.6862498987953254 0  0.37566452698799 0.6858626586037203 0  0.4383114325733984 0.6853831387126061 0  0.5009690459552461 0.6847785563930184 0  0.5636323662338222 0.684004574204264 0  0.6262927637245737 0.6830006357784402 0  0.6889410363134288 0.6816840388032878 0  0.7515826351243686 0.6799442442520439 0  0.8142880199169994 0.6776455893561717 0  0.8773282507583716 0.6746740972347232 0  0.9414487235622958 0.671163705770935 0  1.008283897416051 0.6680649499123098 0  0 0.75 0  0.06258003835003126 0.7498201966795183 0  0.1251622564345743 0.7496308749239193 0  0.1877488482943606 0.7494218045321624 0  0.2503417547424089 0.7491810568632137 0  0.3129423897666533 0.748893867892969 0  0.3755511177075596 0.7485410848302289 0  0.4381662803382289 0.7480969358623067 0  0.5007824399987713 0.7475257176670556 0  0.5633873409855719 0.7467767451945539 0  0.6259570794428757 0.745776465139059 0  0.6884499427445371 0.7444158368915843 0  0.750804449033433 0.7425297626267245 0  0.812966938888381 0.739864353950312 0  0.8750424589566408 0.7360372337288708 0  0.9378555342205093 0.7306013355268214 0  1.003370211917116 0.7243863608419823 0  0 0.8125 0  0.06256243008590767 0.8123557167362003 0  0.1251264867267268 0.8122034017415733 0  0.1876938017512235 0.8120343718066916 0  0.2502657561161508 0.811838359943989 0  0.3128432043736185 0.8116024232582535 0  0.3754259273675536 0.8113094062379116 0  0.4380115443492414 0.8109356633583918 0  0.5005933425167964 0.8104475616149248 0  0.5631559230597158 0.8097959536491336 0  0.6256664706997835 0.8089071802966495 0  0.6880575929984656 0.8076678099707674 0  0.7501958748271044 0.8058970056148915 0  0.8118361634398708 0.8032914265861302 0  0.8726181294620401 0.7993037117012102 0  0.9325223745959133 0.7928698119014916 0  0.9965618066868479 0.7819488024163329 0  0 0.875 0  0.06254281241126211 0.874899074276239 0  0.1250867296212982 0.8747923282358328 0  0.1876328679142138 0.8746734437366132 0  0.2501821712062015 0.8745348777827067 0  0.3127352170099194 0.8743670022165935 0  0.3752918172705211 0.8741568723363883 0  0.437850185642155 0.8738863719359931 0  0.5004051596369287 0.8735293273964371 0  0.5629442821953011 0.8730469243818402 0  0.6254388499160832 0.8723803309053672 0  0.687822762152683 0.8714386607454278 0  0.7499413755094919 0.8700784868472845 0  0.8114277628728765 0.8680632412408916 0  0.8714154365345339 0.8649513341133597 0  0.9279458028611139 0.8596795290620625 0  0.9770608634653465 0.8489609497591074 0  0 0.9375 0  0.06252179490301242 0.9374480780676461 0  0.1250441667248933 0.9373931004249318 0  0.1875677084583057 0.9373317424026624 0  0.2500929450080748 0.9372600129924084 0  0.312620254685839 0.9371727821130956 0  0.3751497027205012 0.9370630977488276 0  0.437680682439806 0.9369211486797245 0
[...]
<PointData  Vectors="f_54"> 
<DataArray  type="Float64"  Name="f_54"  NumberOfComponents="3" format="ascii">0.0000000000000000e+00 0.0000000000000000e+00 0.0000000000000000e+00  0.0000000000000000e+00 0.0000000000000000e+00 0.0000000000000000e+00  0.0000000000000000e+00 0.0000000000000000e+00 0.0000000000000000e+00  0.0000000000000000e+00 0.0000000000000000e+00 0.0000000000000000e+00  0.0000000000000000e+00 0.0000000000000000e+00 0.0000000000000000e+00  0.0000000000000000e+00 0.0000000000000000e+00 0.0000000000000000e+00  0.0000000000000000e+00 0.0000000000000000e+00 0.0000000000000000e+00  0.0000000000000000e+00 0.0000000000000000e+00 0.0000000000000000e+00  0.0000000000000000e+00 0.0000000000000000e+00 0.0000000000000000e+00  0.0000000000000000e+00 0.0000000000000000e+00 0.0000000000000000e+00  0.0000000000000000e+00 0.0000000000000000e+00 0.0000000000000000e+00  0.0000000000000000e+00 0.0000000000000000e+00 0.0000000000000000e+00  0.0000000000000000e+00 0.0000000000000000e+00 0.0000000000000000e+00  0.0000000000000000e+00 0.0000000000000000e+00 0.0000000000000000e+00  0.0000000000000000e+00 0.0000000000000000e+00 0.0000000000000000e+00  0.0000000000000000e+00 0.0000000000000000e+00 0.0000000000000000e+00  0.0000000000000000e+00 0.0000000000000000e+00 0.0000000000000000e+00  0.0000000000000000e+00 0.0000000000000000e+00 0.0000000000000000e+00  4.1404664833555803e-06 2.0092434426425182e-07 0.0000000000000000e+00  8.3822832865103000e-06 4.0314116251471845e-07 0.0000000000000000e+00  1.2828491889026828e-05 6.0753117860158675e-07 0.0000000000000000e+00  1.7575558166985502e-05 8.1363916178182899e-07 0.0000000000000000e+00  2.2708339576271030e-05 1.0188868592226962e-06 0.0000000000000000e+00  2.8292575762693791e-05 1.2176669948672945e-06 0.0000000000000000e+00  3.4363897281620013e-05 1.4003442748035262e-06 0.0000000000000000e+00  4.0912213566072437e-05 1.5522591037612778e-06 0.0000000000000000e+00  4.7860193432594580e-05 1.6529113079542679e-06 0.0000000000000000e+00  5.5034395975157478e-05 1.6755279436997734e-06 0.0000000000000000e+00  6.2127545253835568e-05 1.5869606455637094e-06 0.0000000000000000e+00  6.8651183209307728e-05 1.3465757247049402e-06 0.0000000000000000e+00  7.3883315504023010e-05 8.9803079850219888e-07 0.0000000000000000e+00  7.6844293206904379e-05 1.3055870915952825e-07 0.0000000000000000e+00  7.6476941819206355e-05 -1.2802684840922142e-06 0.0000000000000000e+00  7.2955969496887592e-05 -4.5324982026847739e-06 0.0000000000000000e+00  0.0000000000000000e+00 0.0000000000000000e+00 0.0000000000000000e+00  8.1780871074036303e-06 4.0047630001527012e-07 0.0000000000000000e+00  1.6562433625754334e-05 8.0419218632805998e-07 0.0000000000000000e+00  2.5363021932095274e-05 1.2136033311430414e-06 0.0000000000000000e+00  3.4778339362048606e-05 1.6285855140927750e-06 0.0000000000000000e+00  4.4986237609960244e-05 2.0448739896200375e-06 0.0000000000000000e+00  5.6129934564161740e-05 2.4522141342535049e-06 0.0000000000000000e+00  6.8297142039868040e-05 2.8322478047824098e-06 0.0000000000000000e+00  8.1489995104216969e-05 3.1563095199114558e-06 0.0000000000000000e+00  9.5583079112097539e-05 3.3835326586949062e-06 0.0000000000000000e+00  1.1026625695167159e-04 3.4599426052324131e-06 0.0000000000000000e+00  1.2496768136929115e-04 3.3194195108618820e-06 0.0000000000000000e+00  1.3874872138952606e-04 2.8872873602035977e-06 0.0000000000000000e+00  1.5015116636469682e-04 2.0867377004828929e-06 0.0000000000000000e+00  1.5693773132729384e-04 8.5000772364625265e-07 0.0000000000000000e+00  1.5551144492774427e-04 -8.3880222345617196e-07 0.0000000000000000e+00  1.3908102552544690e-04 -2.6643564944242566e-06 0.0000000000000000e+00  0.0000000000000000e+00 0.0000000000000000e+00 0.0000000000000000e+00  1.2003513315630646e-05 5.9647195190074556e-07 0.0000000000000000e+00  2.4324080127221955e-05 1.1993778837676920e-06 0.0000000000000000e+00  3.7285112791537598e-05 1.8140855333328002e-06 0.0000000000000000e+00  5.1196769433879013e-05 2.4423555990982411e-06 0.0000000000000000e+00  6.6344500132507417e-05 3.0800618948686768e-06 0.0000000000000000e+00  8.2970587139123982e-05 3.7143604840792084e-06 0.0000000000000000e+00  1.0124567203101700e-04 4.3202633221298642e-06 0.0000000000000000e+00  1.2122674795578450e-04 4.8567860950601087e-06 0.0000000000000000e+00  1.4279750827378608e-04 5.2632337541018287e-06 0.0000000000000000e+00  1.6558614163016689e-04 5.4568377780138605e-06 0.0000000000000000e+00  1.8885404594180610e-04 5.3339182063216557e-06 0.0000000000000000e+00  2.1134473477990362e-04 4.7779942206282651e-06 0.0000000000000000e+00  2.3107112859392537e-04 3.6797292476097557e-06 0.0000000000000000e+00  2.4499304528019717e-04 1.9750769277275481e-06 0.0000000000000000e+00  2.4848785177193947e-04 -2.9368997198315123e-07 0.0000000000000000e+00  2.3450507308918480e-04 -2.9299523896679921e-06 0.0000000000000000e+00  0.0000000000000000e+00 0.0000000000000000e+00 0.0000000000000000e+00  1.5502419853486204e-05 7.8550182050704914e-07 0.0000000000000000e+00  3.1439334241121571e-05 1.5823547709063701e-06 0.0000000000000000e+00  4.8255038682116732e-05 2.4007159485153649e-06 0.0000000000000000e+00  6.6383303669997911e-05 3.2464968005652840e-06 0.0000000000000000e+00  8.6236207587338275e-05 4.1185031725730353e-06 0.0000000000000000e+00  1.0818422301211020e-04 5.0046498653063814e-06 0.0000000000000000e+00  1.3252359901416269e-04 5.8770214102303923e-06 0.0000000000000000e+00  1.5942628913888826e-04 6.6857569453271372e-06 0.0000000000000000e+00  1.8886687814668375e-04 7.3522205704492455e-06 0.0000000000000000e+00  2.2052023213863639e-04 7.7629034634111339e-06 0.0000000000000000e+00  2.5362279783192542e-04 7.7673005389827524e-06 0.0000000000000000e+00  2.8678899496166547e-04 7.1859469798922979e-06 0.0000000000000000e+00  3.1777111269965311e-04 5.8390333459817989e-06 0.0000000000000000e+00  3.4314882534525702e-04 3.6109282257169793e-06 0.0000000000000000e+00  3.5795380577273173e-04 5.6871356474056061e-07 0.0000000000000000e+00  3.5536250139521031e-04 -2.8526052774622365e-06 0.0000000000000000e+00  0.0000000000000000e+00 0.0000000000000000e+00 0.0000000000000000e+00  1.8555232549914998e-05 9.6247975129950833e-07 0.0000000000000000e+00  3.7667592697466556e-05 1.9432233947437202e-06 0.0000000000000000e+00  5.7908375053916948e-05 2.9594052871458119e-06 0.0000000000000000e+00  7.9846590705407800e-05 4.0239244067635980e-06 0.0000000000000000e+00  1.0404138098525836e-04 5.1422493513701945e-06 0.0000000000000000e+00  1.3102459413459144e-04 6.3078830590507879e-06 0.0000000000000000e+00  1.6126868607161139e-04 7.4958921137315571e-06 0.0000000000000000e+00  1.9513386693791295e-04 8.6539996327695760e-06 0.0000000000000000e+00  2.3278720154816654e-04 9.6910894840301279e-06 0.0000000000000000e+00  2.7408558131571207e-04 1.0463996211631320e-05 0.0000000000000000e+00  3.1841467405451012e-04 1.0765841540145988e-05 0.0000000000000000e+00  3.6447774803204271e-04 1.0323951541628371e-05 0.0000000000000000e+00  4.1003242383546044e-04 8.8236389071778196e-06 0.0000000000000000e+00  4.5158237115210716e-04 5.9858261931636518e-06 0.0000000000000000e+00  4.8405439438008099e-04 1.7375170726476200e-06 0.0000000000000000e+00  5.0055135725323515e-04 -3.4886731508770844e-06 0.0000000000000000e+00  0.0000000000000000e+00 0.0000000000000000e+00 0.0000000000000000e+00  2.1039008694394146e-05 1.1204008724780073e-06 0.0000000000000000e+00  4.2758802249590652e-05 2.2679407904605668e-06 0.0000000000000000e+00  6.5859633411637981e-05 3.4690840658253951e-06 0.0000000000000000e+00  9.1053771044047332e-05 4.7468378428161966e-06 0.0000000000000000e+00  1.1906530241982825e-04 6.1177914087565159e-06 0.0000000000000000e+00  1.5062000663920946e-04 7.5873530531870870e-06 0.0000000000000000e+00  1.8641974343160602e-04 9.1421911147692025e-06 0.0000000000000000e+00  2.2709384442707562e-04 1.0738590886927960e-05 0.0000000000000000e+00  2.7311788473818730e-04 1.2285268418877784e-05 0.0000000000000000e+00  3.2468866673528732e-04 1.3619583678447535e-05 0.0000000000000000e+00  3.8154466882087080e-04 1.4478117732952272e-05 0.0000000000000000e+00  4.4272575898886990e-04 1.4468315302948929e-05 0.0000000000000000e+00  5.0627676296124524e-04 1.3060667614332852e-05 0.0000000000000000e+00  5.6891563762392905e-04 9.6438763390152796e-06 0.0000000000000000e+00  6.2569834083817544e-04 3.7166333872513128e-06 0.0000000000000000e+00  6.6968864642654629e-04 -4.6840279620247731e-06 0.0000000000000000e+00  0.0000000000000000e+00 0.0000000000000000e+00 0.0000000000000000e+00  2.2831885412249831e-05 1.2504074955282816e-06 0.0000000000000000e+00  4.6462108611728603e-05 2.5383473606637479e-06 0.0000000000000000e+00  7.1714584157371683e-05 3.9014537591549244e-06 0.0000000000000000e+00  9.9445437144666136e-05 5.3757557119854087e-06 0.0000000000000000e+00  1.3055421633320215e-04 6.9936212492762316e-06 0.0000000000000000e+00  1.6598655719868408e-04 8.7797115226973623e-06 0.0000000000000000e+00  2.0672242409690053e-04 1.0743534937852355e-05 0.0000000000000000e+00  2.5374109009154179e-04 1.2866377272328521e-05 0.0000000000000000e+00  3.0795030398957649e-04 1.5079240200435150e-05 0.0000000000000000e+00  3.7006348615588623e-04 1.7227155358142481e-05 0.0000000000000000e+00  4.4040762692332030e-04 1.9014838091229118e-05 0.0000000000000000e+00  5.1865064669030531e-04 1.9932045179411141e-05 0.0000000000000000e+00  6.0345718668528014e-04 1.9170904396572458e-05 0.0000000000000000e+00  6.9211809414949769e-04 1.5582550661998883e-05 0.0000000000000000e+00  7.8022671419835461e-04 7.7826378981628106e-06 0.0000000000000000e+00  8.6141779120110567e-04 -5.4139257821990761e-06 0.0000000000000000e+00  0.0000000000000000e+00 0.0000000000000000e+00 0.0000000000000000e+00  2.3820245085415408e-05 1.3422590937432703e-06 0.0000000000000000e+00  4.8540306883984620e-05 2.7330348594048918e-06 0.0000000000000000e+00  7.5092181441453420e-05 4.2220710898561380e-06 0.0000000000000000e+00  1.0446501344167802e-04 5.8604155869305388e-06 0.0000000000000000e+00  1.3773146641357545e-04 7.7001261620203457e-06 0.0000000000000000e+00  1.7606893481676150e-04 9.7922821598445194e-06 0.0000000000000000e+00  2.2077025243182082e-04 1.2181741848299732e-05 0.0000000000000000e+00  2.7323443685823174e-04 1.4895765690316183e-05 0.0000000000000000e+00  3.3492198244353295e-04 1.7921276703126923e-05 0.0000000000000000e+00  4.0725163960788485e-04 2.1161597953724190e-05 0.0000000000000000e+00  4.9140921539688170e-04 2.4357735615869373e-05 0.0000000000000000e+00  5.8804207953750309e-04 2.6953426476795696e-05 0.0000000000000000e+00  6.9684411408963548e-04 2.7885819379657767e-05 0.0000000000000000e+00  8.1611922862892539e-04 2.5317787253216042e-05 0.0000000000000000e+00  9.4253374248350931e-04 1.6422144972402768e-05 0.0000000000000000e+00  1.0712720489820856e-03 -2.5677437108275490e-06 0.0000000000000000e+00  0.0000000000000000e+00 0.0000000000000000e+00 0.0000000000000000e+00  2.3908382885383259e-05 1.3852663539653049e-06 0.0000000000000000e+00  4.8789799656885417e-05 2.8292235455206882e-06 0.0000000000000000e+00  7.5655989809197394e-05 4.3931502269312723e-06 0.0000000000000000e+00  1.0560311402212675e-04 6.1433403499262947e-06 0.0000000000000000e+00  1.3985599446759094e-04 8.1533706701624680e-06 0.0000000000000000e+00  1.7981304044707431e-04 1.0505634032938343e-05 0.0000000000000000e+00  2.2708850890703274e-04 1.3290982385464221e-05 0.0000000000000000e+00  2.8354386042646546e-04 1.6603869156473674e-05 0.0000000000000000e+00  3.5129143920890709e-04 2.0527291433611695e-05 0.0000000000000000e+00  4.3264023401236957e-04 2.5095367799713851e-05 0.0000000000000000e+00  5.2993592805073016e-04 3.0208368530531009e-05 0.0000000000000000e+00  6.4523531448162008e-04 3.5451105448271314e-05 0.0000000000000000e+00  7.7978270191111487e-04 3.9731166208658202e-05 0.0000000000000000e+00  9.3340800647149320e-04 4.0638873310654661e-05 0.0000000000000000e+00  1.1043545630312814e-03 3.3537242529288821e-05 0.0000000000000000e+00  1.2906166900014005e-03 1.0618331988516119e-05 0.0000000000000000e+00  0.0000000000000000e+00 0.0000000000000000e+00 0.0000000000000000e+00  2.3029996661174803e-05 1.3696683729705101e-06 0.0000000000000000e+00  4.7064821891481727e-05 2.8056529536902234e-06 0.0000000000000000e+00  7.3153571823312180e-05 4.3782265952149421e-06 0.0000000000000000e+00  1.0245556256987917e-04 6.1665960207504499e-06 0.0000000000000000e+00  1.3630307535722079e-04 8.2641553648804855e-06 0.0000000000000000e+00  1.7627307866188846e-04 1.0784580303207856e-05 0.0000000000000000e+00  2.2426868920465435e-04 1.3868704944189560e-05 0.0000000000000000e+00  2.8260676888671208e-04 1.7691292338518312e-05 0.0000000000000000e+00  3.5409838318883798e-04 2.2464485372055204e-05 0.0000000000000000e+00  4.4208944295555093e-04 2.8428407678635021e-05 0.0000000000000000e+00  5.5039436483340280e-04 3.5802581755083560e-05 0.0000000000000000e+00  6.8300642546194291e-04 4.4628665163521946e-05 0.0000000000000000e+00  8.4343926935603875e-04 5.4332961977737886e-05 0.0000000000000000e+00  1.0337076734770550e-03 6.2650103596874492e-05 0.0000000000000000e+00  1.2537051739484406e-03 6.3486234438107390e-05 0.0000000000000000e+00  1.5026907234341406e-03 4.3844313449111463e-05 0.0000000000000000e+00  0.0000000000000000e+00 0.0000000000000000e+00 0.0000000000000000e+00  2.1160278801603227e-05 1.2883103530322675e-06 0.0000000000000000e+00  4.3303528947480334e-05 2.6462196134014539e-06 0.0000000000000000e+00  6.7460380871667302e-05 4.1483507363424164e-06 0.0000000000000000e+00  9.4790981322491819e-05 5.8815154081403334e-06 0.0000000000000000e+00  1.2666358909918640e-04 7.9526771646499553e-06 0.0000000000000000e+00  1.6475197086818216e-04 1.0499540010646358e-05 0.0000000000000000e+00  2.1115879980547803e-04 1.3705251850278020e-05 0.0000000000000000e+00  2.6857088133343016e-04 1.7819290515386148e-05 0.0000000000000000e+00  3.4044530992190209e-04 2.3187110577888578e-05 0.0000000000000000e+00  4.3120569188570990e-04 3.0290243322355750e-05 0.0000000000000000e+00  5.4637857958690520e-04 3.9790554412276007e-05 0.0000000000000000e+00  6.9249659842314016e-04 5.2535223910174606e-05 0.0000000000000000e+00  8.7641957967648403e-04 6.9332962516819631e-05 0.0000000000000000e+00  1.1036310446215550e-03 8.9800059216041522e-05 0.0000000000000000e+00  1.3764499080224804e-03 1.0835957238842203e-04 0.0000000000000000e+00  1.6979333678705561e-03 1.1006148491293579e-04 0.0000000000000000e+00  0.0000000000000000e+00 0.0000000000000000e+00 0.0000000000000000e+00  1.8326846952234749e-05 1.1383448124702965e-06 0.0000000000000000e+00  3.7552289476004103e-05 2.3437719147090541e-06 0.0000000000000000e+00  5.8622422213183485e-05 3.6888443766937896e-06 0.0000000000000000e+00  8.2620112322448968e-05 5.2599824696491875e-06 0.0000000000000000e+00  1.1085250282109034e-04 7.1670136870806947e-06 0.0000000000000000e+00  1.4496642753135259e-04 9.5566545894802844e-06 0.0000000000000000e+00  1.8710674328905244e-04 1.2632694843303163e-05 0.0000000000000000e+00  2.4013722875475995e-04 1.6687706069186613e-05 0.0000000000000000e+00  3.0794675638193931e-04 2.2155244465144173e-05 0.0000000000000000e+00  3.9585669715688342e-04 2.9699993993423234e-05 0.0000000000000000e+00  5.1110524009526255e-04 4.0379674141045146e-05 0.0000000000000000e+00  6.6324902059936854e-04 5.5936258245100205e-05 0.0000000000000000e+00  8.6394749692739019e-04 7.9257536186290480e-05 0.0000000000000000e+00  1.1246807423911684e-03 1.1461983038654911e-04 0.0000000000000000e+00  1.4495460136400380e-03 1.6367650516115574e-04 0.0000000000000000e+00  1.8499170943993316e-03 1.8501940588721666e-04 0.0000000000000000e+00  0.0000000000000000e+00 0.0000000000000000e+00 0.0000000000000000e+00  1.4617344239254573e-05 9.2258387365740378e-07 0.0000000000000000e+00  2.9983460915309419e-05 1.9032179850296207e-06 0.0000000000000000e+00  4.6889700782564456e-05 3.0050795151708437e-06 0.0000000000000000e+00  6.6254715429514031e-05 4.3046395902265670e-06 0.0000000000000000e+00  8.9209524743096773e-05 5.9010403748349441e-06 0.0000000000000000e+00  1.1721541855029183e-04 7.9296127200476285e-06 0.0000000000000000e+00  1.5223606545026463e-04 1.0582497631808940e-05 0.0000000000000000e+00  1.9699735834925007e-04 1.4141639425061801e-05 0.0000000000000000e+00  2.5538730444694523e-04 1.9034541226422452e-05 0.0000000000000000e+00  3.3307306286738006e-04 2.5935950014814454e-05 0.0000000000000000e+00  4.3842963331750066e-04 3.5973730365197299e-05 0.0000000000000000e+00  5.8382267001405087e-04 5.1198244306341521e-05 0.0000000000000000e+00  7.8694333123703565e-04 7.5761871123733378e-05 0.0000000000000000e+00  1.0704892547136193e-03 1.1902051845065468e-04 0.0000000000000000e+00  1.4522696616140912e-03 2.0374784446348343e-04 0.0000000000000000e+00  1.8492302008653264e-03 3.9491960291874697e-04 0.0000000000000000e+00  0.0000000000000000e+00 0.0000000000000000e+00 0.0000000000000000e+00  1.0181470308902008e-05 6.5013056572941845e-07 0.0000000000000000e+00  2.0901517503940740e-05 1.3430669369283395e-06 0.0000000000000000e+00  3.2731092313084621e-05 2.1255679228659314e-06 0.0000000000000000e+00  4.6340224585470968e-05 3.0547961401333894e-06 0.0000000000000000e+00  6.2566473899723849e-05 4.2056741325505452e-06 0.0000000000000000e+00  8.2513399024377533e-05 5.6814141012306646e-06 0.0000000000000000e+00  1.0770117605204170e-04 7.6291505418465813e-06 0.0000000000000000e+00  1.4030793266907565e-04 1.0263421439253641e-05 0.0000000000000000e+00  1.8357134282190497e-04 1.3901249542111929e-05 0.0000000000000000e+00  2.4247808476041444e-04 1.9014125526546617e-05 0.0000000000000000e+00  3.2497385314135313e-04 2.6308872116925538e-05 0.0000000000000000e+00  4.4409700740231711e-04 3.6892553957553472e-05 0.0000000000000000e+00  6.2163545499863560e-04 5.2822506820076958e-05 0.0000000000000000e+00  8.9386854438125863e-04 7.9497946194378248e-05 0.0000000000000000e+00  1.3190893673131145e-03 1.3557065043697531e-04 0.0000000000000000e+00  1.9839420132297071e-03 2.8265055392402548e-04 0.0000000000000000e+00  0.0000000000000000e+00 0.0000000000000000e+00 0.0000000000000000e+00  5.2256873550689440e-06 3.3604226935759096e-07 0.0000000000000000e+00  1.0733221607095337e-05 6.9480035485490052e-07 0.0000000000000000e+00  1.6821981149478693e-05 1.1011325528326167e-06 0.0000000000000000e+00  2.3845697151541980e-05 1.5855789502090405e-06 0.0000000000000000e+00  3.2250804996489319e-05 2.1883463990029152e-06 0.0000000000000000e+00  4.2632921451207614e-05 2.9648877426681862e-06 0.0000000000000000e+00  5.5825814116970441e-05 3.9937033925223949e-06 0.0000000000000000e+00  7.3049384052043380e-05 5.3863144150304600e-06 0.0000000000000000e+00  9.6168013553330094e-05 7.2958229559928658e-06 0.0000000000000000e+00  1.2816201913463696e-04 9.9062135030220022e-06 0.0000000000000000e+00  1.7401840986431524e-04 1.3331247381152367e-05 0.0000000000000000e+00  2.4242129865716553e-04 1.7160066471745627e-05 0.0000000000000000e+00  3.4865907579068766e-04 1.8742303040799520e-05 0.0000000000000000e+00  5.1718508300408221e-04 7.6378493261878689e-06 0.0000000000000000e+00  7.6924487244077380e-04 -4.5817918585836504e-05 0.0000000000000000e+00  1.0562452922200588e-03 -1.7587281110560050e-04 0.0000000000000000e+00  0.0000000000000000e+00 0.0000000000000000e+00 0.0000000000000000e+00  0.0000000000000000e+00 0.0000000000000000e+00 0.0000000000000000e+00  0.0000000000000000e+00 0.0000000000000000e+00 0.0000000000000000e+00  0.0000000000000000e+00 0.0000000000000000e+00 0.0000000000000000e+00  0.0000000000000000e+00 0.0000000000000000e+00 0.0000000000000000e+00  0.0000000000000000e+00 0.0000000000000000e+00 0.0000000000000000e+00  0.0000000000000000e+00 0.0000000000000000e+00 0.0000000000000000e+00  0.0000000000000000e+00 0.0000000000000000e+00 0.0000000000000000e+00  0.0000000000000000e+00 0.0000000000000000e+00 0.0000000000000000e+00  0.0000000000000000e+00 0.0000000000000000e+00 0.0000000000000000e+00  0.0000000000000000e+00 0.0000000000000000e+00 0.0000000000000000e+00  0.0000000000000000e+00 0.0000000000000000e+00 0.0000000000000000e+00 