<?xml version="1.0"?>
<VTKFile type="UnstructuredGrid"  version="0.1"  >
<UnstructuredGrid>
<Piece  NumberOfPoints="289" NumberOfCells="512">
<Points>
<DataArray  type="Float64"  NumberOfComponents="3"  format="ascii">0 0 0  0.0625 0 0  0.125 0 0  0.1875 0 0  0.25 0 0  0.3125 0 0  0.375 0 0  0.4375 0 0  0.5 0 0  0.5625 0 0  0.625 0 0  0.6875 0 0  0.75 0 0  0.8125 0 0  0.875 0 0  0.9375 0 0  1 0 0  0 0.0625 0  0.06243021515735685 0.06249447533475676 0  0.1248585181938705 0.06248883343065675 0  0.1872830135485329 0.06248296404480168 0  0.2497018718290746 0.06247677314219881 0  0.3121133928551176 0.06247019422662808 0  0.3745161072713932 0.06246320341079527 0  0.4369089320516925 0.06245583898634455 0  0.4992913946413469 0.06244822534512991 0  0.5616639338023869 0.06244059929172948 0  0.6240282607572784 0.06243333368967779 0  0.6863876864123651 0.06242694921725031 0  0.7487470682154608 0.06242210319684971 0  0.8111111488795398 0.06241956305364728 0  0.8734766977413235 0.06242029785146281 0  0.9358000022333178 0.06242650545943342 0  0.9978606481831596 0.06244856232458525 0  0 0.125 0  0.06236242291053492 0.1249890681779265 0  0.1247210052471773 0.1249778944559496 0  0.187071930710883 0.1249662496768294 0  0.2494114945116589 0.1249539345528924 0  0.3117362179632122 0.1249408012127958 0  0.3740430400267252 0.1249267826304936 0  0.4363296191387941 0.1249119319840718 0  0.498594782584034 0.124896472555628 0  0.560839160531772 0.1248808555557412 0  0.6230660307329624 0.124865816933971 0  0.6852823639842699 0.1248524130139404 0  0.7474999762213221 0.1248419960081804 0  0.8097365543219718 0.1248360566775021 0  0.8720164328883323 0.1248357688878676 0  0.9343741292197119 0.1248406142194528 0  0.9968895079628466 0.1248424242106991 0  0 0.1875 0  0.06229856672304384 0.1874839037483323 0  0.1245913304652203 0.187467427340804 0  0.1868725013174447 0.1874502065669195 0  0.2491364016544904 0.1874319154855383 0  0.3113776060554782 0.1874122956856173 0  0.3735911927963946 0.1873911981201345 0  0.435773159324917 0.1873686418010279 0  0.4979210657847141 0.1873448925584346 0  0.5600349828661395 0.1873205617443092 0  0.6221188314036012 0.187296717008626 0  0.6841822125514733 0.187274981375462 0  0.7462428564738581 0.1872575663495686 0  0.8083299478692706 0.1872471273970671 0  0.8704891440681677 0.1872462210301351 0  0.932792150629262 0.1872559631977867 0  0.9953592885884337 0.187273682913795 0  0 0.25 0  0.06224062332496345 0.2499791208241232 0  0.1244734513975469 0.2499577061093699 0  0.18669066338986 0.2499352356254414 0  0.2488844864773958 0.2499112277137318 0  0.3110473208554784 0.2498852719645906 0  0.3731720020967983 0.2498570793283599 0  0.4352522704413991 0.2498265572315134 0  0.4972835368785933 0.2497939178209961 0  0.559264060025899 0.2497598262555921 0  0.6211966738969399 0.2497255904261671 0  0.6830912324898905 0.2496933788023049 0  0.7449679640657684 0.249666420927729 0  0.8068619723670122 0.2496490826995398 0  0.8688292348685692 0.2496466031806873 0  0.9309546691425292 0.2496641481670601 0  0.9933625316799718 0.2497048115641032 0  0 0.3125 0  0.06219059546683926 0.3124748751796225 0  0.1243714088926996 0.3124490427573721 0  0.1865325609425207 0.3124218048225944 0  0.2486640768064216 0.3123924915829651 0  0.3107559448781063 0.3123604910336136 0  0.3727983240751465 0.312325300018908 0  0.434781981934837 0.3122866081050961 0  0.4966990750175134 0.3122444292216478 0  0.5585444196355065 0.3121992995761579 0  0.6203174403435809 0.3121525617727439 0  0.6820250154651387 0.3121067493635437 0  0.7436854419726143 0.3120660629621137 0  0.8053336798044292 0.3120368704197292 0  0.8670278513510706 0.3120280445772127 0  0.9288565614053013 0.3120507554813765 0  0.9909456667525974 0.3121170726665569 0  0 0.375 0  0.06215047378767528 0.3749713390388907 0  0.1242892571240962 0.3749417873364722 0  0.1864044562140925 0.3749104525530346 0  0.248483854727034 0.3748764474244949 0  0.3105148485293636 0.3748389079583451 0  0.3724845203089451 0.3747970343738736 0  0.4343799414152388 0.3747501694429146 0  0.4961888277708842 0.3746979362809508 0  0.5579007294643772 0.3746404681996544 0  0.6195089962561564 0.3745787766568235 0  0.6810138203928089 0.3745153164170963 0  0.7424266813403909 0.374454809149053 0  0.8037764424366568 0.3744053517204016 0  0.8651170836411546 0.3743797122354843 0  0.926536493615616 0.3743964328704978 0  0.9881648121498725 0.3744798816842527 0  0 0.4375 0  0.06212216224449931 0.4374686953905307 0  0.1242309158704238 0.4374363172966759 0  0.1863125130249752 0.4374017738235427 0  0.2483525813340381 0.4373639424335795 0  0.3103358782051821 0.4373216670245048 0  0.37224615107487 0.437273774548852 0  0.4340661851120053 0.4372191266911105 0  0.4957781696391569 0.4371567329994084 0  0.5573645884267076 0.4370859700414687 0  0.6188099409103335 0.4370069801046055 0  0.6801037259429017 0.4369213653667428 0  0.7412452375913855 0.4368333453469166 0  0.8022507565577387 0.4367515804677242 0  0.8631635233485991 0.4366918019104433 0  0.9240662562842639 0.4366800523868034 0  0.9850948699025761 0.4367554938764048 0  0 0.5 0  0.06210736626786123 0.4999671264788171 0  0.1241999418679496 0.4999330143155077 0  0.1862624424477251 0.4998963854845858 0  0.2482786065661407 0.4998558855291055 0  0.3102307239036197 0.4998100505443888 0  0.3720992067047881 0.4997572845264611 0  0.4338622642260354 0.4996958591736175 0  0.4954957960570116 0.4996239602374015 0  0.5569737150612512 0.4995398273991516 0  0.618269063855853 0.4994420773641433 0  0.6793565194108797 0.4993303766556846 0  0.7402171874372249 0.499206758724872 0  0.8008468989600962 0.4990780624489438 0  0.8612692933009248 0.4989601334789246 0  0.9215543004695417 0.4988842798041446 0  0.9818407216575318 0.4989052888714913 0  0 0.5625 0  0.06210744887547077 0.5624667966506917 0  0.1241992286024873 0.5624322285946864 0  0.1862590216951619 0.5623948693493868 0  0.2482691715820964 0.5623531659773486 0  0.310209961833716 0.562305370374634 0  0.372058847649005 0.5622494659057171 0  0.433789656821499 0.5621830926531139 0  0.4953718286978515 0.5621034831200593 0  0.5567698625062993 0.562007439876771 0  0.6179433438026107 0.5618914309239029 0  0.6788482760900483 0.5617519760865923 0  0.7394410427295236 0.5615867042888032 0  0.7996871802720755 0.5613968671206102 0  0.8595779784696115 0.5611927735340949 0  0.9191576309962689 0.5610043397993232 0  0.9785597455872003 0.5608983671267475 0  0 0.625 0  0.06212326699781328 0.6249678309691126 0  0.1242306588239614 0.6249342332752987 0  0.1863055215119696 0.624897696561906 0  0.2483295467384345 0.6248565384704406 0  0.3102818149469402 0.6248088009100954 0  0.3721376796378337 0.6247521233720663 0  0.4338674453083617 0.6246835833222968 0  0.4954348182402014 0.6245994933405141 0  0.5567951875166641 0.6244951491401173 0  0.6178939890846049 0.6243645435615801 0  0.6786658498898472 0.6242001326393471 0  0.7390361378710661 0.6239929522232156 0  0.7989282862539997 0.6237339658392339 0  0.8582829450943262 0.623418960014941 0  0.9170973427839254 0.6230621964217348 0  0.9754899037242555 0.6227271265520146 0  0 0.6875 0  0.06215500743511338 0.6874702923920584 0  0.1242947498727077 0.6874391748017246 0  0.1864031047342765 0.6874051424402918 0  0.2484620913585913 0.687366487461441 0  0.3104507375770982 0.6873211690619576 0  0.3723436751145817 0.6872666440123962 0  0.4341093366382967 0.6871996339350602 0  0.4957076052401249 0.687115793268719 0  0.5570867698253329 0.6870092215322858 0  0.618179734234779 0.6868717331338141 0  0.6788997890333518 0.6866917663740079 0  0.7391373091792504 0.6864528441825436 0  0.7987614225453753 0.6861318747154458 0  0.857636614019092 0.6856993336458105 0  0.9156740944830157 0.6851296053094661 0  0.9729409732535483 0.684444742088811 0  0 0.75 0  0.06220204784086098 0.7499741614682006 0  0.1243903459125586 0.7499470278685761 0  0.1865502851892255 0.749917206688279 0  0.2486653680845659 0.7498830944970639 0  0.3107160083094112 0.7498427374420082 0  0.3726779752122636 0.7497936430296522 0  0.4345202808232095 0.7497325113082278 0  0.4962022214793919 0.7496548326668446 0  0.5576691659067344 0.749554258440621 0  0.6188465475815946 0.7494215662360425 0  0.6796314845558761 0.7492428642870533 0  0.7398819545799935 0.7489963158548627 0  0.7994059811673232 0.7486460432238059 0  0.8579623295120123 0.7481315987623929 0  0.9153108080159683 0.7473571381829198 0  0.9713981854138865 0.7462354871812308 0  0 0.8125 0  0.06226287107165879 0.8124793229278903 0  0.1245144192809562 0.8124575648283097 0  0.1867425547144496 0.8124335569579704 0  0.2489334841835778 0.8124059396008627 0  0.3110705948777872 0.8123730338057688 0  0.3731329587012708 0.812332666338388 0  0.4350932163781905 0.8122819177453516 0  0.4969144615935355 0.812216744558828 0  0.5585455050874899 0.8121313890777732 0  0.6199134831398724 0.8120174059672017 0  0.6809120737961604 0.8118619195183534 0  0.741382532214854 0.811644109463473 0  0.8010839553567286 0.8113270366661824 0  0.8596533837221333 0.8108359807149923 0  0.9165926402374791 0.809995736159564 0  0.9715412735607215 0.8083395625116316 0  0 0.875 0  0.06233505912906719 0.8749855628783899 0  0.1246620404394696 0.8749703481152517 0  0.1869722869147377 0.8749535119355537 0  0.2492558465536289 0.8749340662171179 0  0.311500605245739 0.8749107812807286 0  0.373691098811306 0.8748820538090537 0  0.4358067868114282 0.8748457200841114 0  0.4978194272194205 0.8747987875304171 0  0.5596889208055156 0.8747370502834839 0  0.6213564623540995 0.8746545524593847 0  0.6827327208339159 0.8745428738830943 0  0.7436762320885322 0.8743902128335733 0  0.8039508453492301 0.8741799225428033 0  0.8631340190435612 0.8738855318135642 0  0.9204032556653939 0.8734432671819266 0  0.9740554864737707 0.8725867274178227 0  0 0.9375 0  0.06241538428576981 0.9374925785342857 0  0.1248265583440938 0.937484750204081 0  0.1872289995859847 0.937476072672208 0  0.2496174843751174 0.937466026135194 0  0.311985612848648 0.9374539613327076 0  0.374325150021259 0.9374390297085997 0  0.4366250553908763 0
[...]
<PointData  Vectors="f_54"> 
<DataArray  type="Float64"  Name="f_54"  NumberOfComponents="3" format="ascii">0.0000000000000000e+00 0.0000000000000000e+00 0.0000000000000000e+00  0.0000000000000000e+00 0.0000000000000000e+00 0.0000000000000000e+00  0.0000000000000000e+00 0.0000000000000000e+00 0.0000000000000000e+00  0.0000000000000000e+00 0.0000000000000000e+00 0.0000000000000000e+00  0.0000000000000000e+00 0.0000000000000000e+00 0.0000000000000000e+00  0.0000000000000000e+00 0.0000000000000000e+00 0.0000000000000000e+00  0.0000000000000000e+00 0.0000000000000000e+00 0.0000000000000000e+00  0.0000000000000000e+00 0.0000000000000000e+00 0.0000000000000000e+00  0.0000000000000000e+00 0.0000000000000000e+00 0.0000000000000000e+00  0.0000000000000000e+00 0.0000000000000000e+00 0.0000000000000000e+00  0.0000000000000000e+00 0.0000000000000000e+00 0.0000000000000000e+00  0.0000000000000000e+00 0.0000000000000000e+00 0.0000000000000000e+00  0.0000000000000000e+00 0.0000000000000000e+00 0.0000000000000000e+00  0.0000000000000000e+00 0.0000000000000000e+00 0.0000000000000000e+00  0.0000000000000000e+00 0.0000000000000000e+00 0.0000000000000000e+00  0.0000000000000000e+00 0.0000000000000000e+00 0.0000000000000000e+00  0.0000000000000000e+00 0.0000000000000000e+00 0.0000000000000000e+00  0.0000000000000000e+00 0.0000000000000000e+00 0.0000000000000000e+00  1.4124928628691142e-06 3.6703765171752387e-09 0.0000000000000000e+00  2.8361909222698227e-06 7.9807810858700976e-09 0.0000000000000000e+00  4.2776115496402517e-06 1.3568864443927157e-08 0.0000000000000000e+00  5.7327918934055193e-06 2.1041449595462005e-08 0.0000000000000000e+00  7.1802698679727290e-06 3.0887564342763798e-08 0.0000000000000000e+00  8.5717452054899738e-06 4.3285738478725966e-08 0.0000000000000000e+00  9.8192719366177250e-06 5.7736035493294376e-08 0.0000000000000000e+00  1.0777223698077542e-05 7.2414780150435010e-08 0.0000000000000000e+00  1.1215762645239731e-05 8.3100243385584807e-08 0.0000000000000000e+00  1.0778525079924325e-05 8.1421293885103057e-08 0.0000000000000000e+00  8.9059850510945636e-06 5.1926041989892916e-08 0.0000000000000000e+00  4.6728029339485269e-06 -3.3348813778550327e-08 0.0000000000000000e+00  -3.6163432046150561e-06 -2.2691122547177960e-07 0.0000000000000000e+00  -1.9576496709848583e-05 -6.3821338562145425e-07 0.0000000000000000e+00  -5.2391534808997835e-05 -1.5338721829417367e-06 0.0000000000000000e+00  -1.2929378405122756e-04 -3.6669080300228768e-06 0.0000000000000000e+00  0.0000000000000000e+00 0.0000000000000000e+00 0.0000000000000000e+00  2.8103870517979524e-06 6.6906551676026742e-09 0.0000000000000000e+00  5.6479164547501539e-06 1.4659270830530159e-08 0.0000000000000000e+00  8.5310852254976425e-06 2.5204220736562469e-08 0.0000000000000000e+00  1.1458994933317504e-05 3.9620431559753989e-08 0.0000000000000000e+00  1.4398313518725955e-05 5.9073647047828099e-08 0.0000000000000000e+00  1.7265949020234015e-05 8.4288151576227711e-08 0.0000000000000000e+00  1.9905516092695984e-05 1.1492127698635914e-07 0.0000000000000000e+00  2.2055022067413209e-05 1.4844137601417805e-07 0.0000000000000000e+00  2.3301776218761941e-05 1.7825667619282818e-07 0.0000000000000000e+00  2.3017171478441001e-05 1.9076028595769280e-07 0.0000000000000000e+00  2.0255952648078782e-05 1.6083916897922597e-07 0.0000000000000000e+00  1.3586119006253560e-05 4.5134828689266687e-08 0.0000000000000000e+00  7.7829430829992857e-07 -2.2840635018218251e-07 0.0000000000000000e+00  -2.1763093534854346e-05 -7.7827705444058409e-07 0.0000000000000000e+00  -5.9816516290760291e-05 -1.8032499559047455e-06 0.0000000000000000e+00  -1.2081754725307445e-04 -3.6519508598609222e-06 0.0000000000000000e+00  0.0000000000000000e+00 0.0000000000000000e+00 0.0000000000000000e+00  4.1776036148352569e-06 8.4212557751431898e-09 0.0000000000000000e+00  8.4071458601338747e-06 1.8733301504561029e-08 0.0000000000000000e+00  1.2729283154854333e-05 3.2913219298574844e-08 0.0000000000000000e+00  1.7159169776662336e-05 5.3062563365078916e-08 0.0000000000000000e+00  2.1669087644071209e-05 8.1327692744383731e-08 0.0000000000000000e+00  2.6165228359255135e-05 1.1959656546734934e-07 0.0000000000000000e+00  3.0456278689758514e-05 1.6880471498421589e-07 0.0000000000000000e+00  3.4211196514006363e-05 2.2760134670259304e-07 0.0000000000000000e+00  3.6903316960948525e-05 2.9003772520542563e-07 0.0000000000000000e+00  3.7737765313509155e-05 3.4188891551365945e-07 0.0000000000000000e+00  3.5559466018147807e-05 3.5532395280823643e-07 0.0000000000000000e+00  2.8742007174950152e-05 2.8220536136279913e-07 0.0000000000000000e+00  1.5073043962179154e-05 4.8227761697172093e-08 0.0000000000000000e+00  -8.2831757263071731e-06 -4.4347234854688638e-07 0.0000000000000000e+00  -4.4435389022450488e-05 -1.2672461366084057e-06 0.0000000000000000e+00  -9.5078119822085698e-05 -2.2621673551570962e-06 0.0000000000000000e+00  0.0000000000000000e+00 0.0000000000000000e+00 0.0000000000000000e+00  5.4892309199020104e-06 8.2470721891962263e-09 0.0000000000000000e+00  1.1066819767917260e-05 1.8905908303460407e-08 0.0000000000000000e+00  1.6809004917705784e-05 3.4587985736922830e-08 0.0000000000000000e+00  2.2764230901028706e-05 5.8271789532514370e-08 0.0000000000000000e+00  2.8933636998042173e-05 9.3374380713211246e-08 0.0000000000000000e+00  3.5244441743201605e-05 1.4362414443524739e-07 0.0000000000000000e+00  4.1513481127711355e-05 2.1254912240200139e-07 0.0000000000000000e+00  4.7398217320217387e-05 3.0227572938317308e-07 0.0000000000000000e+00  5.2333298673005526e-05 4.1118056141095866e-07 0.0000000000000000e+00  5.5453132642387368e-05 5.2979829158856755e-07 0.0000000000000000e+00  5.5506823604372656e-05 6.3439595431658878e-07 0.0000000000000000e+00  5.0785289250263141e-05 6.7808779339513779e-07 0.0000000000000000e+00  3.9110105038161447e-05 5.8084438282865971e-07 0.0000000000000000e+00  1.7996487037340730e-05 2.2274734255238992e-07 0.0000000000000000e+00  -1.4780038935644677e-05 -5.5311120531631666e-07 0.0000000000000000e+00  -5.9844426162353384e-05 -1.9443592038262051e-06 0.0000000000000000e+00  0.0000000000000000e+00 0.0000000000000000e+00 0.0000000000000000e+00  6.7087221701351996e-06 5.6448167567684853e-09 0.0000000000000000e+00  1.3554748031378888e-05 1.4015395662510256e-08 0.0000000000000000e+00  2.0664579944121776e-05 2.8184323257953991e-08 0.0000000000000000e+00  2.8139224561373565e-05 5.1923404116839570e-08 0.0000000000000000e+00  3.6035151400939667e-05 9.0028612868394867e-08 0.0000000000000000e+00  4.4337132235180453e-05 1.4855082649547253e-07 0.0000000000000000e+00  5.2919588768825339e-05 2.3476816232197142e-07 0.0000000000000000e+00  6.1492978543917486e-05 3.5657320232363233e-07 0.0000000000000000e+00  6.9532531469482245e-05 5.2069074028633909e-07 0.0000000000000000e+00  7.6189488804186714e-05 7.2878257689542258e-07 0.0000000000000000e+00  8.0192036619077068e-05 9.7010135357003303e-07 0.0000000000000000e+00  7.9757942787717689e-05 1.2091651176700969e-06 0.0000000000000000e+00  7.2568551243953940e-05 1.3674836020971583e-06 0.0000000000000000e+00  5.5898495994951205e-05 1.3005296336583264e-06 0.0000000000000000e+00  2.7050437898199523e-05 7.7550628646473200e-07 0.0000000000000000e+00  -1.5738176703996983e-05 -5.3846365489231203e-07 0.0000000000000000e+00  0.0000000000000000e+00 0.0000000000000000e+00 0.0000000000000000e+00  7.7869547837383774e-06 2.9923440211600748e-10 0.0000000000000000e+00  1.5771351146362938e-05 3.2816600478792152e-09 0.0000000000000000e+00  2.4143514436282478e-05 1.2123171318594155e-08 0.0000000000000000e+00  3.3075683459711106e-05 3.1048837619463113e-08 0.0000000000000000e+00  4.2706470260516557e-05 6.5976925722599666e-08 0.0000000000000000e+00  5.3116596017383428e-05 1.2526417414079432e-07 0.0000000000000000e+00  6.4291642766286944e-05 2.2047788759581654e-07 0.0000000000000000e+00  7.6066688949414675e-05 3.6694216494305503e-07 0.0000000000000000e+00  8.8047281055276728e-05 5.8345249395809839e-07 0.0000000000000000e+00  9.9502261331625241e-05 8.8991767062452637e-07 0.0000000000000000e+00  1.0922847112470108e-04 1.3006718565451888e-06 0.0000000000000000e+00  1.1539853474715074e-04 1.8098465014920840e-06 0.0000000000000000e+00  1.1542526713070045e-04 2.3640277517798189e-06 0.0000000000000000e+00  1.0591350180729618e-04 2.8181523455628401e-06 0.0000000000000000e+00  8.2819055080996778e-05 2.8772750346480647e-06 0.0000000000000000e+00  4.1972882377774529e-05 2.0478076772249083e-06 0.0000000000000000e+00  0.0000000000000000e+00 0.0000000000000000e+00 0.0000000000000000e+00  8.6635420064228078e-06 -7.7456976061716705e-09 0.0000000000000000e+00  1.7592050977071038e-05 -1.3356089408473209e-08 0.0000000000000000e+00  2.7049434649876839e-05 -1.4112877224370295e-08 0.0000000000000000e+00  3.7294172493095422e-05 -6.0000136299788346e-09 0.0000000000000000e+00  4.8570685139102710e-05 1.7244519539499595e-08 0.0000000000000000e+00  6.1092244869224389e-05 6.5450381918783546e-08 0.0000000000000000e+00  7.5010325637792734e-05 1.5381856549965673e-07 0.0000000000000000e+00  9.0363167582869255e-05 3.0519985452417480e-07 0.0000000000000000e+00  1.0699369830802070e-04 5.5250198580730234e-07 0.0000000000000000e+00  1.2442433023403566e-04 9.4007715468285502e-07 0.0000000000000000e+00  1.4167498008318488e-04 1.5212913186209344e-06 0.0000000000000000e+00  1.5701415923801494e-04 2.3465122471640016e-06 0.0000000000000000e+00  1.6764736843201237e-04 3.4313172993253367e-06 0.0000000000000000e+00  1.6938227559252264e-04 4.6901700588074350e-06 0.0000000000000000e+00  1.5637765890552833e-04 5.8216151524972289e-06 0.0000000000000000e+00  1.2118467568635706e-04 6.1501166714682176e-06 0.0000000000000000e+00  0.0000000000000000e+00 0.0000000000000000e+00 0.0000000000000000e+00  9.2706378265774948e-06 -1.7936274962737486e-08 0.0000000000000000e+00  1.8874860417811969e-05 -3.4883125543439397e-08 0.0000000000000000e+00  2.9153313792479123e-05 -4.9297725786943091e-08 0.0000000000000000e+00  4.0458620820288506e-05 -5.8342235553044645e-08 0.0000000000000000e+00  5.3157195122377314e-05 -5.6772961880130170e-08 0.0000000000000000e+00  6.7624377802581281e-05 -3.5169291012049698e-08 0.0000000000000000e+00  8.4227583227964830e-05 2.2875409764384392e-08 0.0000000000000000e+00  1.0328868044429500e-04 1.4505182649441983e-07 0.0000000000000000e+00  1.2501151712483038e-04 3.7648507957194216e-07 0.0000000000000000e+00  1.4935286944360967e-04 7.8751824142247682e-07 0.0000000000000000e+00  1.7580537174583113e-04 1.4811183253299346e-06 0.0000000000000000e+00  2.0305139473281075e-04 2.5935795826718961e-06 0.0000000000000000e+00  2.2844474649280218e-04 4.2734442125358190e-06 0.0000000000000000e+00  2.4730024041897758e-04 6.6089603702578645e-06 0.0000000000000000e+00  2.5205298519298308e-04 9.4574041636376932e-06 0.0000000000000000e+00  2.3152822682509269e-04 1.2128142179305337e-05 0.0000000000000000e+00  0.0000000000000000e+00 0.0000000000000000e+00 0.0000000000000000e+00  9.5392572204743305e-06 -2.9115244917897796e-08 0.0000000000000000e+00  1.9473331251173933e-05 -5.8955995116916928e-08 0.0000000000000000e+00  3.0213538241154700e-05 -8.9897855820471204e-08 0.0000000000000000e+00  4.2203859340537154e-05 -1.2141414507870196e-07 0.0000000000000000e+00  5.5936272356771394e-05 -1.5109626050781161e-07 0.0000000000000000e+00  7.1963285100660042e-05 -1.7283605600816441e-07 0.0000000000000000e+00  9.0903486787423962e-05 -1.7351117425606999e-07 0.0000000000000000e+00  1.1343168292112283e-04 -1.2712444071130484e-07 0.0000000000000000e+00  1.4023768255032906e-04 1.5135187923545608e-08 0.0000000000000000e+00  1.7192517112375079e-04 3.4077313489237429e-07 0.0000000000000000e+00  2.0880207233222578e-04 9.9904139411867409e-07 0.0000000000000000e+00  2.5048503824129717e-04 2.2287006779183491e-06 0.0000000000000000e+00  2.9520688114978650e-04 4.3767366548062256e-06 0.0000000000000000e+00  3.3869618963577376e-04 7.8675429930381089e-06 0.0000000000000000e+00  3.7255012218622352e-04 1.3032372853714046e-05 0.0000000000000000e+00  3.8226583011114450e-04 1.9649678884993968e-05 0.0000000000000000e+00  0.0000000000000000e+00 0.0000000000000000e+00 0.0000000000000000e+00  9.4077982636112301e-06 -3.9551119661993487e-08 0.0000000000000000e+00  1.9254365384099769e-05 -8.1905715890682505e-08 0.0000000000000000e+00  3.0004463461009878e-05 -1.2990883428537110e-07 0.0000000000000000e+00  4.2176824973316572e-05 -1.8634443849017785e-07 0.0000000000000000e+00  5.6374668699887129e-05 -2.5350253271993763e-07 0.0000000000000000e+00  7.3319533381865484e-05 -3.3200573844929244e-07 0.0000000000000000e+00  9.3887292623405193e-05 -4.1810492629877493e-07 0.0000000000000000e+00  1.1914149185139658e-04 -4.9792717004432515e-07 0.0000000000000000e+00  1.5035142394627195e-04 -5.3589107674868358e-07 0.0000000000000000e+00  1.8896713859192210e-04 -4.5251055781666155e-07 0.0000000000000000e+00  2.3649509764785975e-04 -8.4287517559894696e-08 0.0000000000000000e+00  2.9416805983116355e-04 8.8294485791534365e-07 0.0000000000000000e+00  3.6222197778837119e-04 3.0099286368969523e-06 0.0000000000000000e+00  4.3848211097115416e-04 7.2021513795525105e-06 0.0000000000000000e+00  5.1586773844492320e-04 1.4695200763043067e-05 0.0000000000000000e+00  5.7852342065467922e-04 2.6622968717086118e-05 0.0000000000000000e+00  0.0000000000000000e+00 0.0000000000000000e+00 0.0000000000000000e+00  8.8319853886471698e-06 -4.7146611447277273e-08 0.0000000000000000e+00  1.8119411339502506e-05 -9.9139634704645566e-08 0.0000000000000000e+00  2.8351532686464247e-05 -1.6139026032444155e-07 0.0000000000000000e+00  4.0089668179555178e-05 -2.4043756423476789e-07 0.0000000000000000e+00  5.4012014347292306e-05 -3.4447894465711011e-07 0.0000000000000000e+00  7.0969427916837738e-05 -4.8366699025997286e-07 0.0000000000000000e+00  9.2056037090322879e-05 -6.6961598722508120e-07 0.0000000000000000e+00  1.1869730385449563e-04 -9.1273512726807143e-07 0.0000000000000000e+00  1.5275371724997512e-04 -1.2142029970864977e-06 0.0000000000000000e+00  1.9662634689230634e-04 -1.5456705891414037e-06 0.0000000000000000e+00  2.5332223605582007e-04 -1.8026394545050676e-06 0.0000000000000000e+00  3.2637612205213497e-04 -1.7054472325848339e-06 0.0000000000000000e+00  4.1940019952399265e-04 -6.0670705790854578e-07 0.0000000000000000e+00  5.3480052574753111e-04 2.8375861116850704e-06 0.0000000000000000e+00  6.7082817913793620e-04 1.1101174949691110e-05 0.0000000000000000e+00  8.1587611841243707e-04 2.7993435696181148e-05 0.0000000000000000e+00  0.0000000000000000e+00 0.0000000000000000e+00 0.0000000000000000e+00  7.7949053615730550e-06 -4.9840860994560885e-08 0.0000000000000000e+00  1.6026337801673795e-05 -1.0600229595617139e-07 0.0000000000000000e+00  2.5168839944543711e-05 -1.7588522844753443e-07 0.0000000000000000e+00  3.5779415940800219e-05 -2.6924814757122119e-07 0.0000000000000000e+00  4.8552236031376293e-05 -3.9990562818409283e-07 0.0000000000000000e+00  6.4391703256345628e-05 -5.8808248504683586e-07 0.0000000000000000e+00  8.4513732134436703e-05 -8.6359966049455227e-07 0.0000000000000000e+00  1.1058824238871035e-04 -1.2697078288629596e-06 0.0000000000000000e+00  1.4493889873356901e-04 -1.8661245345533068e-06 0.0000000000000000e+00  1.9081615801075724e-04 -2.7261419097186938e-06 0.0000000000000000e+00  2.5274862883319701e-04 -3.9129352676344620e-06 0.0000000000000000e+00  3.3693492419187412e-04 -5.3966768277784498e-06 0.0000000000000000e+00  4.5151422482581332e-04 -6.8229908760247233e-06 0.0000000000000000e+00  6.0623693450241633e-04 -6.9509616221856399e-06 0.0000000000000000e+00  8.1029817417317077e-04 -2.4894507566482768e-06 0.0000000000000000e+00  1.0653600415297150e-03 1.3468067100532203e-05 0.0000000000000000e+00  0.0000000000000000e+00 0.0000000000000000e+00 0.0000000000000000e+00  6.3153171580096004e-06 -4.6147544895199520e-08 0.0000000000000000e+00  1.3008085535981440e-05 -9.8992813086179794e-08 0.0000000000000000e+00  2.0492654003883177e-05 -1.6662556989897049e-07 0.0000000000000000e+00  2.9264450581566154e-05 -2.6029380268994342e-07 0.0000000000000000e+00  3.9956427745806225e-05 -3.9702931868371781e-07 0.0000000000000000e+00  5.3418314917554561e-05 -6.0388731697387231e-07 0.0000000000000000e+00  7.0833353407792767e-05 -9.2503706351036574e-07 0.0000000000000000e+00  9.3895240645611465e-05 -1.4337152609771971e-06 0.0000000000000000e+00  1.2508080307441124e-04 -2.2520697399068233e-06 0.0000000000000000e+00  1.6807315276265398e-04 -3.5824760704805737e-06 0.0000000000000000e+00  2.2841591804041589e-04 -5.7508317598916332e-06 0.0000000000000000e+00  3.1450382882234327e-04 -9.2442147728852318e-06 0.0000000000000000e+00  4.3900243867800367e-04 -1.4655221044556934e-05 0.0000000000000000e+00  6.2061990346921870e-04 -2.2209431301361156e-05 0.0000000000000000e+00  8.8551596196064051e-04 -2.9770177442096835e-05 0.0000000000000000e+00  1.2661555705102629e-03 -2.4947151922058985e-05 0.0000000000000000e+00  0.0000000000000000e+00 0.0000000000000000e+00 0.0000000000000000e+00  4.4521958033213097e-06 -3.5685492211948187e-08 0.0000000000000000e+00  9.1835304348838267e-06 -7.7025446109268130e-08 0.0000000000000000e+00  1.4502746676457273e-05 -1.3099655793421575e-07 0.0000000000000000e+00  2.0784253930295115e-05 -2.0764749583692965e-07 0.0000000000000000e+00  2.8515512511515300e-05 -3.2286959055043004e-07 0.0000000000000000e+00  3.8366014189047755e-05 -5.0323449286370063e-07 0.0000000000000000e+00  5.1293349386339371e-05 -7.9489329733537014e-07 0.0000000000000000e+00  6.8712413079497002e-05 -1.2805145817834283e-06 0.0000000000000000e+00  9.2772840322171113e-05 -2.1123882033495777e-06 0.0000000000000000e+00  1.2682415391490964e-04 -3.5785284667299656e-06 0.0000000000000000e+00  1.7621052210388315e-04 -6.2367556561374813e-06 0.0000000000000000e+00  2.4965089656590097e-04 -1.1188688053855433e-05 0.0000000000000000e+00  3.6166573324352243e-04 -2.0637405287774430e-05 0.0000000000000000e+00  5.3682611289249994e-04 -3.9000343894736743e-05 0.0000000000000000e+00  8.1651333620688443e-04 -7.5019654631108200e-05 0.0000000000000000e+00  1.2644631539959869e-03 -1.4500103866958158e-04 0.0000000000000000e+00  0.0000000000000000e+00 0.0000000000000000e+00 0.0000000000000000e+00  2.3037438475972853e-06 -1.9500807363261189e-08 0.0000000000000000e+00  4.7564043008329534e-06 -4.2254703786193553e-08 0.0000000000000000e+00  7.5235322419900396e-06 -7.2329017806948881e-08 0.0000000000000000e+00  1.0807804202514649e-05 -1.1571029850546705e-07 0.0000000000000000e+00  1.4876472055056160e-05 -1.8212083884018393e-07 0.0000000000000000e+00  2.0102303121349762e-05 -2.8833751000940389e-07 0.0000000000000000e+00  2.7028341755585768e-05 -4.6463778908999390e-07 0.0000000000000000e+00  3.6474639625962313e-05 -7.6791954508894582e-07 0.0000000000000000e+00  4.9719710447867185e-05 -1.3095937795411237e-06 0.0000000000000000e+00  6.8816116244806071e-05 -2.3174949644315368e-06 0.0000000000000000e+00  9.7144374067584908e-05 -4.2790486079777097e-06 0.0000000000000000e+00  1.4036531040845731e-04 -8.2837774750724814e-06 0.0000000000000000e+00  2.0790639481613684e-04 -1.6856973681689240e-05 0.0000000000000000e+00  3.1454533926869257e-04 -3.5951963157108670e-05 0.0000000000000000e+00  4.7876433866715857e-04 -7.9244784183849450e-05 0.0000000000000000e+00  7.0468425621273551e-04 -1.7414632807522407e-04 0.0000000000000000e+00  0.0000000000000000e+00 0.0000000000000000e+00 0.0000000000000000e+00  0.0000000000000000e+00 0.0000000000000000e+00 0.0000000000000000e+00  0.0000000000000000e+00 0.0000000000000000e+00 0.0000000000000000e+00  0.0000000000000000e+00 0.0000000000000000e+00 0.0000000000000000e+00  0.0000000000000000e+00 0.0000000000000000e+00 0.0000000000000000e+00  0.0000000000000000e+00 0.0000000000000000e+00 0.0000000000000000e+00  0.0000000000000000e+00 0.0000000000000000e+00 0.0000000000000000e+00  0.0000000000000000e+00 0.0000000000000000e+00 0.0000000000000000e+00  0.0000000000000000e+00 0.0000000000000000e+00 0.0000000000000000e+00  0.0000000000000000e+00 0.0000000000000000e+00 0.0000000000000000e+00  0.0000000000000000e