<?xml version="1.0"?>
<VTKFile type="UnstructuredGrid"  version="0.1"  >
<UnstructuredGrid>
<Piece  NumberOfPoints="289" NumberOfCells="512">
<Points>
<DataArray  type="Float64"  NumberOfComponents="3"  format="ascii">0 0 0  0.0625 0 0  0.125 0 0  0.1875 0 0  0.25 0 0  0.3125 0 0  0.375 0 0  0.4375 0 0  0.5 0 0  0.5625 0 0  0.625 0 0  0.6875 0 0  0.75 0 0  0.8125 0 0  0.875 0 0  0.9375 0 0  1 0 0  0 0.0625 0  0.06245580060125297 0.06248705248258724 0  0.1249108879766603 0.06247388012874091 0  0.1873646198905029 0.06246027919763754 0  0.2498165603833719 0.06244609651147825 0  0.3122666237364924 0.0624312621746141 0  0.3747152733278593 0.06241583033943703 0  0.4371638031499347 0.06240002833626968 0  0.4996147432512174 0.06238431101882937 0  0.5620724604451979 0.06236941100649646 0  0.6245440989571005 0.06235636574016018 0  0.6870411967159621 0.06234648935295081 0  0.7495828364485658 0.06234124685052034 0  0.8122026854718932 0.06234200234067232 0  0.8749666806975276 0.06234973297166658 0  0.9380212080664193 0.06236539280398583 0  1.001728412304619 0.06239572549945508 0  0 0.125 0  0.06241234668265407 0.1249743247879228 0  0.124823179503934 0.1249481753159757 0  0.1872311158208188 0.1249211165798813 0  0.2496351584914651 0.1248928087485858 0  0.3120349685783838 0.1248630706294488 0  0.374431245076618 0.1248319611163251 0  0.4368262635402311 0.1247998810634181 0  0.4992246452660582 0.1247676921222899 0  0.5616344669521383 0.1247368376575991 0  0.624068900634997 0.1247094309639604 0  0.6865487459453821 0.124688245273874 0  0.7491065763337137 0.1246765012069266 0  0.8117938760175318 0.1246773229562819 0  0.8746932682163863 0.1246928121594813 0  0.9379364706393998 0.1247231142789555 0  1.00171571171763 0.1247665469249498 0  0 0.1875 0  0.06237047428128276 0.1874620691425252 0  0.1247384635155619 0.1874233693368603 0  0.1871016501710713 0.1873831829046636 0  0.2494582217927632 0.1873409191873707 0  0.3118072373160099 0.1872962037223364 0  0.3741491449895835 0.1872489982345853 0  0.4364865214763114 0.1871997593337925 0  0.4988251188100523 0.1871496378608515 0  0.5611753286821378 0.1871007071632131 0  0.6235542021851794 0.1870561808026683 0  0.6859881887151373 0.187020527856217 0  0.7485167259469678 0.186999298155707 0  0.8111965008724741 0.1869982847677447 0  0.8741048923968018 0.1870212220141531 0  0.9373370826302884 0.1870639438083408 0  1.000982705045128 0.1870986344670708 0  0 0.25 0  0.0623311891504129 0.2499505827143641 0  0.1246586974619137 0.2499000424252862 0  0.1869790126591336 0.2498473097002465 0  0.2492891592056457 0.2497914532348295 0  0.3115871066053438 0.2497317849396049 0  0.3738723648942739 0.2496680109958691 0  0.4361468516972954 0.2496004462657867 0  0.4984161286579807 0.2495303074248155 0  0.5606911097106803 0.2494600907350437 0  0.6229903196230976 0.2493940149073531 0  0.6853426826151091 0.2493384527193984 0  0.747790544023435 0.2493021614493536 0  0.8103919557217183 0.2492959140761223 0  0.8732198219713979 0.2493307990244001 0  0.9363530533249617 0.2494141232315513 0  0.9998526031766708 0.2495426653339958 0  0 0.3125 0  0.06229571287894876 0.3124402213404144 0  0.1245863131565225 0.3123789025458664 0  0.1868668140578642 0.3123145460543695 0  0.2491326873028626 0.3122457742707318 0  0.3113802483457008 0.312171434265455 0  0.3736072543313754 0.3120907630618261 0  0.4358138161843311 0.3120036435200891 0  0.4980037447425614 0.3119109874632599 0  0.56018645566657 0.3118152861656625 0  0.6223795203132375 0.3117213601713541 0  0.684611813608656 0.3116373028927605 0  0.7469268789825892 0.3115755127842907 0  0.8093854796218166 0.3115534972891162 0  0.8720652960765738 0.3115937631061102 0  0.9350548160595021 0.311721632757109 0  0.9984394562450208 0.31195954606577 0  0 0.375 0  0.06226548672875534 0.3749314028284764 0  0.1245242348309162 0.3748607958382859 0  0.1867695401487975 0.3747861847101143 0  0.2489949551543351 0.3747056403909189 0  0.3111945748110931 0.37461737990821 0  0.3733635458434852 0.3745199166218101 0  0.4354989212820795 0.374412322470875 0  0.4976010201022988 0.3742946639178722 0  0.5596754864199014 0.3741686984151655 0  0.6217362478102263 0.3740389449902299 0  0.683809493712914 0.3739142554123978 0  0.7459385417287845 0.3738099708383811 0  0.8081889272884561 0.3737505666879705 0  0.8706522475401942 0.3737722212678287 0  0.9334466554199653 0.3739238357628513 0  0.9967127179619012 0.3742636965612624 0  0 0.4375 0  0.06224212480489884 0.437424596073655 0  0.1244757913312341 0.4373466878418881 0  0.186692436135114 0.4372637426206751 0  0.2488834251467866 0.4371731986839184 0  0.3110401557557773 0.4370724930816652 0  0.3731543673840548 0.4369591552808626 0  0.4352188000452665 0.436831016161858 0  0.4972284112027263 0.4366866141233996 0  0.5591824567308085 0.4365259317219558 0  0.6210878513060798 0.4363516738773595 0  0.6829643067557996 0.4361714014234655 0  0.7448517055786805 0.4360009315529674 0  0.8068198222755283 0.4358693981112961 0  0.8689796532324244 0.4358259490546459 0  0.9314943456509276 0.4359467499014085 0  0.9945871933739373 0.4363383677344673 0  0 0.5 0  0.06222731244650542 0.4999202931139277 0  0.1244445123108168 0.4998376084403684 0  0.186641201713627 0.4997488817848508 0  0.2488064756432772 0.499650890524974 0  0.3109287554644898 0.4995401985452704 0  0.3729957751141395 0.499413144982449 0  0.4349948599407944 0.4992659210055735 0  0.496913745958225 0.4990948185621865 0  0.5587423640230098 0.498896808068744 0  0.6204762847480648 0.4986707330066841 0  0.6821228923511956 0.4984196332222328 0  0.7437117566242007 0.4981550545263086 0  0.8053108217790631 0.4979046187672345 0  0.8670492728562262 0.4977242613146406 0  0.9291453996987032 0.4977153006789778 0  0.9919341773923759 0.4980419241443814 0  0 0.5625 0  0.06222265145515533 0.562418963416603 0  0.1244338090288152 0.562334557695375 0  0.1866214906333821 0.5622432620318343 0  0.2487727023088075 0.5621412474318646 0  0.3108729333746671 0.5620242162287891 0  0.3729056939146158 0.5618872431737081 0  0.4348521982136747 0.561724639561198 0  0.4966914276370311 0.5615298956339521 0  0.5584010554902646 0.5612958291028706 0  0.6199601735932865 0.5610152222572524 0  0.6813555469415095 0.5606825540397622 0  0.7425943310785408 0.5602980859850156 0  0.8037276315961489 0.559876762451967 0  0.8648898334348659 0.5594661442902766 0  0.9263551295173242 0.5591785015948182 0  0.9886007320489746 0.5592368367216467 0  0 0.625 0  0.06222946167999677 0.6249209932231474 0  0.124446556168447 0.6248383772782856 0  0.1866382314051015 0.6247483298071677 0  0.2487899208378123 0.6246465750744938 0  0.310884669328409 0.6245281126841518 0  0.3729021347454634 0.6243868910565201 0  0.4348174787971821 0.6242154075475898 0  0.4966002707443556 0.6240042264009489 0  0.558213786646239 0.6237414395870389 0  0.619615661604288 0.6234121984554476 0  0.6807620588282471 0.6229987349430691 0  0.7416198773332604 0.6224820787951045 0  0.8021956053797847 0.6218487074307903 0  0.8625947636937074 0.6211100994353184 0  0.9231270372518596 0.6203514907679757 0  0.9844545187404765 0.6198285713308338 0  0 0.6875 0  0.06224855869863962 0.6874266172049907 0  0.1244846130671196 0.6873496022112388 0  0.186694822078164 0.6872650650827498 0  0.2488639262470242 0.6871685532923318 0  0.3109735403381028 0.6870546893115841 0  0.3730006207069236 0.686916695843301 0  0.434915476593798 0.6867457443428457 0  0.4966792197668996 0.6865300333626504 0  0.5582406882724809 0.6862534608945483 0  0.6195333449082616 0.6858937070309583 0  0.6804739447363911 0.6854195496634545 0  0.7409680531417394 0.6847875716036859 0  0.8009351925977168 0.6839401684514361 0  0.8603821837515796 0.6828138299688309 0  0.9195749370211476 0.6813906171301133 0  0.9793395861692552 0.6798672861514067 0  0 0.75 0  0.06228003870138402 0.7499358538618422 0  0.1245483490412044 0.7498683176253288 0  0.186792300612418 0.7497937281796379 0  0.2489971464588062 0.7497078167055637 0  0.3111446069252882 0.7496053012803368 0  0.3732109443930893 0.749479328918249 0  0.4351642312485166 0.7493206684358106 0  0.4969603919907415 0.7491164926879758 0  0.5585374677924184 0.7488484694132925 0  0.6198075323863583 0.7484896449068196 0  0.6806462376511573 0.7479991343024827 0  0.7408825771564664 0.7473127396075686 0  0.8003007209663465 0.7463263574672016 0  0.8586949949651383 0.7448702518907788 0  0.9160995865348306 0.7426997423907533 0  0.9733893492341359 0.7397785849955313 0  0 0.8125 0  0.06232311123523011 0.8124484584352571 0  0.1246362617344492 0.8123940514586315 0  0.1869286432454596 0.812333662264621 0  0.2491874279411399 0.8122636106818518 0  0.3113963549180774 0.8121792652118917 0  0.3735337135713647 0.8120745005120609 0  0.4355693038824369 0.8119408969314414 0  0.4974596797868671 0.8117665110764584 0  0.5591405049713353 0.8115339137961208 0  0.6205140507296812 0.8112169055071203 0  0.6814286614920197 0.8107746226403574 0  0.7416458461512629 0.8101398697792332 0  0.8007928718993801 0.8091930753787041 0  0.858321903587196 0.807696937758317 0  0.9136314834483585 0.8051148347526044 0  0.9673589150766898 0.8000192172432601 0  0 0.875 0  0.06237602363399402 0.8749639061468341 0  0.124744788735567 0.8749257326619373 0  0.1870983755637159 0.8748832072693982 0  0.2494272727450008 0.8748336235451094 0  0.3117192281156173 0.8747735389309296 0  0.373957554934761 0.8746983505058123 0  0.4361184744053602 0.8746016716667289 0  0.4981667435493203 0.874474394413906 0  0.5600481580041461 0.8743032657810537 0  0.6216761673549279 0.8740687278562179 0  0.6829069653009224 0.873741636333633 0  0.7434910625739164 0.8732780385465378 0  0.8029748794904579 0.8726089960975201 0  0.860493555843727 0.8716110696762555 0  0.9143394075025473 0.8699885312684186 0  0.9612118006253952 0.8667253671724362 0  0 0.9375 0  0.06243611298226057 0.9374814137785058 0  0.1248683985702036 0.9374617338817399 0  0.1872926671855704 0.9374397622901827 0  0.2497038524128031 0.9374140652180222 0  0.3120953668038117 0.9373828087700797 0  0.3744581351554808 0.93734352898299 0  0.4367790444789166 0.937
[...]
<PointData  Vectors="f_54"> 
<DataArray  type="Float64"  Name="f_54"  NumberOfComponents="3" format="ascii">0.0000000000000000e+00 0.0000000000000000e+00 0.0000000000000000e+00  0.0000000000000000e+00 0.0000000000000000e+00 0.0000000000000000e+00  0.0000000000000000e+00 0.0000000000000000e+00 0.0000000000000000e+00  0.0000000000000000e+00 0.0000000000000000e+00 0.0000000000000000e+00  0.0000000000000000e+00 0.0000000000000000e+00 0.0000000000000000e+00  0.0000000000000000e+00 0.0000000000000000e+00 0.0000000000000000e+00  0.0000000000000000e+00 0.0000000000000000e+00 0.0000000000000000e+00  0.0000000000000000e+00 0.0000000000000000e+00 0.0000000000000000e+00  0.0000000000000000e+00 0.0000000000000000e+00 0.0000000000000000e+00  0.0000000000000000e+00 0.0000000000000000e+00 0.0000000000000000e+00  0.0000000000000000e+00 0.0000000000000000e+00 0.0000000000000000e+00  0.0000000000000000e+00 0.0000000000000000e+00 0.0000000000000000e+00  0.0000000000000000e+00 0.0000000000000000e+00 0.0000000000000000e+00  0.0000000000000000e+00 0.0000000000000000e+00 0.0000000000000000e+00  0.0000000000000000e+00 0.0000000000000000e+00 0.0000000000000000e+00  0.0000000000000000e+00 0.0000000000000000e+00 0.0000000000000000e+00  0.0000000000000000e+00 0.0000000000000000e+00 0.0000000000000000e+00  0.0000000000000000e+00 0.0000000000000000e+00 0.0000000000000000e+00  -2.7643533252621984e-06 -1.3156619136627389e-07 0.0000000000000000e+00  -5.6226213999591881e-06 -2.6632773750125851e-07 0.0000000000000000e+00  -8.6717613664128265e-06 -4.0737445124948516e-07 0.0000000000000000e+00  -1.2012729757382337e-05 -5.5744359650226281e-07 0.0000000000000000e+00  -1.5752373827661857e-05 -7.1863221072394037e-07 0.0000000000000000e+00  -2.0005237718047391e-05 -8.9196115452630890e-07 0.0000000000000000e+00  -2.4895579117669873e-05 -1.0767230550302817e-06 0.0000000000000000e+00  -3.0560599440512580e-05 -1.2695315107853978e-06 0.0000000000000000e+00  -3.7157786622523456e-05 -1.4629628787415081e-06 0.0000000000000000e+00  -4.4884391040853933e-05 -1.6436016002797569e-06 0.0000000000000000e+00  -5.4031401877119173e-05 -1.7889797215565891e-06 0.0000000000000000e+00  -6.5137001255986698e-05 -1.8615852098041940e-06 0.0000000000000000e+00  -7.9440585201256064e-05 -1.7926959727067383e-06 0.0000000000000000e+00  -1.0030936143822878e-04 -1.4260172406298203e-06 0.0000000000000000e+00  -1.3808246166126462e-04 -2.9115846584206712e-07 0.0000000000000000e+00  -2.2817251355815456e-04 3.3947641808754913e-06 0.0000000000000000e+00  0.0000000000000000e+00 0.0000000000000000e+00 0.0000000000000000e+00  -5.4296642733243647e-06 -2.5969392964223777e-07 0.0000000000000000e+00  -1.1044717630401455e-05 -5.2591830753220842e-07 0.0000000000000000e+00  -1.7036553784089448e-05 -8.0503180027004318e-07 0.0000000000000000e+00  -2.3604648699064991e-05 -1.1027820296596025e-06 0.0000000000000000e+00  -3.0960306832537854e-05 -1.4237898869425543e-06 0.0000000000000000e+00  -3.9330019655270139e-05 -1.7707514859863920e-06 0.0000000000000000e+00  -4.8958607400678075e-05 -2.1432261958190490e-06 0.0000000000000000e+00  -6.0113011472438409e-05 -2.5358560700998908e-06 0.0000000000000000e+00  -7.3089401569129014e-05 -2.9358484463691565e-06 0.0000000000000000e+00  -8.8230625942651837e-05 -3.3195659224537824e-06 0.0000000000000000e+00  -1.0597114911793937e-04 -3.6481483815817371e-06 0.0000000000000000e+00  -1.2694853705778913e-04 -3.8624572835214581e-06 0.0000000000000000e+00  -1.5226050970578478e-04 -3.8796458033169304e-06 0.0000000000000000e+00  -1.8397522002402923e-04 -3.6055336839891832e-06 0.0000000000000000e+00  -2.2570762393387116e-04 -3.0461203401768038e-06 0.0000000000000000e+00  -2.8034798837397014e-04 -2.9999750425836188e-06 0.0000000000000000e+00  0.0000000000000000e+00 0.0000000000000000e+00 0.0000000000000000e+00  -7.9034474997099924e-06 -3.8099917635438843e-07 0.0000000000000000e+00  -1.6079287892907274e-05 -7.7211468141820831e-07 0.0000000000000000e+00  -2.4808772927230019e-05 -1.1832971284286204e-06 0.0000000000000000e+00  -3.4385591750279715e-05 -1.6238022335129292e-06 0.0000000000000000e+00  -4.5121546997511316e-05 -2.1015580518241532e-06 0.0000000000000000e+00  -5.7351340559163925e-05 -2.6221410398532609e-06 0.0000000000000000e+00  -7.1436100794253706e-05 -3.1871663598759445e-06 0.0000000000000000e+00  -8.7765351845764598e-05 -3.7918551310888242e-06 0.0000000000000000e+00  -1.0675741663903363e-04 -4.4215191238990898e-06 0.0000000000000000e+00  -1.2885881040236030e-04 -5.0467549252423950e-06 0.0000000000000000e+00  -1.5454338391921945e-04 -5.6173818381485062e-06 0.0000000000000000e+00  -1.8430790736710505e-04 -6.0558320296582366e-06 0.0000000000000000e+00  -2.1863595250003968e-04 -6.2521823098375065e-06 0.0000000000000000e+00  -2.5779780300965854e-04 -6.0647619755864947e-06 0.0000000000000000e+00  -3.0099782368192795e-04 -5.3204928859329192e-06 0.0000000000000000e+00  -3.4345473788430561e-04 -3.6864612896809622e-06 0.0000000000000000e+00  0.0000000000000000e+00 0.0000000000000000e+00 0.0000000000000000e+00  -1.0097899300800806e-05 -4.9185492045081333e-07 0.0000000000000000e+00  -2.0548532598355115e-05 -9.9769038552683094e-07 0.0000000000000000e+00  -3.1716237524564822e-05 -1.5314228688360482e-06 0.0000000000000000e+00  -4.3982647782163332e-05 -2.1064259400377725e-06 0.0000000000000000e+00  -5.7754631375873366e-05 -2.7349355769808567e-06 0.0000000000000000e+00  -7.3470911496541493e-05 -3.4269973513992606e-06 0.0000000000000000e+00  -9.1606401850699204e-05 -4.1887006237496229e-06 0.0000000000000000e+00  -1.1267263853494013e-04 -5.0193583513457631e-06 0.0000000000000000e+00  -1.3721146968846812e-04 -5.9072030812475348e-06 0.0000000000000000e+00  -1.6577662155196118e-04 -6.8231345090207918e-06 0.0000000000000000e+00  -1.9889193342247465e-04 -7.7122030099994733e-06 0.0000000000000000e+00  -2.3696094327134586e-04 -8.4831209185874580e-06 0.0000000000000000e+00  -2.8006832307647276e-04 -8.9976518289021032e-06 0.0000000000000000e+00  -3.2753653870579743e-04 -9.0650288564843649e-06 0.0000000000000000e+00  -3.7696022820212616e-04 -8.4537397224183275e-06 0.0000000000000000e+00  -4.2233889737527182e-04 -6.9620452378296714e-06 0.0000000000000000e+00  0.0000000000000000e+00 0.0000000000000000e+00 0.0000000000000000e+00  -1.1932210034028645e-05 -5.8836802645727360e-07 0.0000000000000000e+00  -2.4288380724859227e-05 -1.1947751020356949e-06 0.0000000000000000e+00  -3.7506700204709687e-05 -1.8374020392366884e-06 0.0000000000000000e+00  -5.2048165123259338e-05 -2.5343052704086878e-06 0.0000000000000000e+00  -6.8407363159666900e-05 -3.3030470803832071e-06 0.0000000000000000e+00  -8.7121918539619835e-05 -4.1598679519751518e-06 0.0000000000000000e+00  -1.0877934775550893e-04 -5.1181054848121099e-06 0.0000000000000000e+00  -1.3401901711474734e-04 -6.1854148088333352e-06 0.0000000000000000e+00  -1.6352492751940483e-04 -7.3591347698696824e-06 0.0000000000000000e+00  -1.9800131788082713e-04 -8.6188862488866333e-06 0.0000000000000000e+00  -2.3811592076140959e-04 -9.9152665491402401e-06 0.0000000000000000e+00  -2.8438219166658106e-04 -1.1153566698647266e-05 0.0000000000000000e+00  -3.3692788650535425e-04 -1.2172384268666474e-05 0.0000000000000000e+00  -3.9506172025881921e-04 -1.2720066544140925e-05 0.0000000000000000e+00  -4.5652235666378770e-04 -1.2439363085812827e-05 0.0000000000000000e+00  -5.1636837340030385e-04 -1.0885529853454774e-05 0.0000000000000000e+00  0.0000000000000000e+00 0.0000000000000000e+00 0.0000000000000000e+00  -1.3335099566181766e-05 -6.6646721514606487e-07 0.0000000000000000e+00  -2.7153509145151508e-05 -1.3550179462140440e-06 0.0000000000000000e+00  -4.1955200563458705e-05 -2.0881763066732650e-06 0.0000000000000000e+00  -5.8269038363981148e-05 -2.8890135058951588e-06 0.0000000000000000e+00  -7.6667050218714945e-05 -3.7811974299794638e-06 0.0000000000000000e+00  -9.7777941290320749e-05 -4.7886803518049117e-06 0.0000000000000000e+00  -1.2229882315857495e-04 -5.9347397421819728e-06 0.0000000000000000e+00  -1.5100310692482387e-04 -7.2398822947403460e-06 0.0000000000000000e+00  -1.8474064829978481e-04 -8.7177727314700991e-06 0.0000000000000000e+00  -2.2442287014329805e-04 -1.0367784953452839e-05 0.0000000000000000e+00  -2.7097966926370839e-04 -1.2161935344771800e-05 0.0000000000000000e+00  -3.2526508493459401e-04 -1.4022909684307852e-05 0.0000000000000000e+00  -3.8787432188747058e-04 -1.5789092954969172e-05 0.0000000000000000e+00  -4.5881955793839683e-04 -1.7163292418096883e-05 0.0000000000000000e+00  -5.3701350657601099e-04 -1.7646716691349622e-05 0.0000000000000000e+00  -6.1957190588571851e-04 -1.6470387461391682e-05 0.0000000000000000e+00  0.0000000000000000e+00 0.0000000000000000e+00 0.0000000000000000e+00  -1.4247609388601955e-05 -7.2211423975295810e-07 0.0000000000000000e+00  -2.9022980965701760e-05 -1.4700185471665774e-06 0.0000000000000000e+00  -4.4872632374799925e-05 -2.2703008096944433e-06 0.0000000000000000e+00  -6.2378225505288899e-05 -3.1509500722454042e-06 0.0000000000000000e+00  -8.2174738619538690e-05 -4.1419874084046314e-06 0.0000000000000000e+00  -1.0496903078341711e-04 -5.2759428752299105e-06 0.0000000000000000e+00  -1.3155847400726697e-04 -6.5879898554227749e-06 0.0000000000000000e+00  -1.6284872168468675e-04 -8.1153401540502373e-06 0.0000000000000000e+00  -1.9986856878664787e-04 -9.8950855258401070e-06 0.0000000000000000e+00  -2.4377783827942003e-04 -1.1958858779338410e-05 0.0000000000000000e+00  -2.9586064328012725e-04 -1.4321183355230603e-05 0.0000000000000000e+00  -3.5749033664237258e-04 -1.6955812208053312e-05 0.0000000000000000e+00  -4.3004337861664397e-04 -1.9750570435065647e-05 0.0000000000000000e+00  -5.1472902630761755e-04 -2.2427214509095132e-05 0.0000000000000000e+00  -6.1229923625495230e-04 -2.4412566995398318e-05 0.0000000000000000e+00  -7.2262838537667210e-04 -2.4657955804546036e-05 0.0000000000000000e+00  0.0000000000000000e+00 0.0000000000000000e+00 0.0000000000000000e+00  -1.4626083062373530e-05 -7.5162852987842354e-07 0.0000000000000000e+00  -2.9806402474164950e-05 -1.5320111779100301e-06 0.0000000000000000e+00  -4.6115482589417770e-05 -2.3710584605322405e-06 0.0000000000000000e+00  -6.4168703865377657e-05 -3.3009883774389569e-06 0.0000000000000000e+00  -8.4644282347639922e-05 -4.3576151272366550e-06 0.0000000000000000e+00  -1.0830711265311705e-04 -5.5817859267962758e-06 0.0000000000000000e+00  -1.3603513909001138e-04 -7.0209741340061933e-06 0.0000000000000000e+00  -1.6884895688979370e-04 -8.7309230930100597e-06 0.0000000000000000e+00  -2.0794537395226511e-04 -1.0776923883941749e-05 0.0000000000000000e+00  -2.5473559781876364e-04 -1.3233533820628645e-05 0.0000000000000000e+00  -3.1088826677375158e-04 -1.6179742432150858e-05 0.0000000000000000e+00  -3.7837593327155029e-04 -1.9682714649443412e-05 0.0000000000000000e+00  -4.5951913691657641e-04 -2.3755656307782662e-05 0.0000000000000000e+00  -5.5701271413437627e-04 -2.8262716425601059e-05 0.0000000000000000e+00  -6.7390694784801562e-04 -3.2729338195006645e-05 0.0000000000000000e+00  -8.1352042228296964e-04 -3.6018920098103617e-05 0.0000000000000000e+00  0.0000000000000000e+00 0.0000000000000000e+00 0.0000000000000000e+00  -1.4445132817301982e-05 -7.5208931805844249e-07 0.0000000000000000e+00  -2.9450185847022095e-05 -1.5347299508231978e-06 0.0000000000000000e+00  -4.5596098558164073e-05 -2.3799189000902088e-06 0.0000000000000000e+00  -6.3508957158267741e-05 -3.3227447953878623e-06 0.0000000000000000e+00  -8.3885014861464775e-05 -4.4032748733707527e-06 0.0000000000000000e+00  -1.0751899483771044e-04 -5.6689176496427523e-06 0.0000000000000000e+00  -1.3533731530633112e-04 -7.1775339850563415e-06 0.0000000000000000e+00  -1.6843858448775849e-04 -9.0016589766571476e-06 0.0000000000000000e+00  -2.0814498358740771e-04 -1.1234238661061763e-05 0.0000000000000000e+00  -2.5607036935799602e-04 -1.3996062877264774e-05 0.0000000000000000e+00  -3.1421455389878236e-04 -1.7443968125867937e-05 0.0000000000000000e+00  -3.8509842629585631e-04 -2.1775292790735275e-05 0.0000000000000000e+00  -4.7195987656597729e-04 -2.7214280272666580e-05 0.0000000000000000e+00  -5.7902985680651691e-04 -3.3942797047171321e-05 0.0000000000000000e+00  -7.1189296961294451e-04 -4.1890881106164362e-05 0.0000000000000000e+00  -8.7795213095966335e-04 -5.0233482954483749e-05 0.0000000000000000e+00  0.0000000000000000e+00 0.0000000000000000e+00 0.0000000000000000e+00  -1.3700269769929166e-05 -7.2175349803683407e-07 0.0000000000000000e+00  -2.7943218147327361e-05 -1.4743232007993957e-06 0.0000000000000000e+00  -4.3292279066211191e-05 -2.2901242992691020e-06 0.0000000000000000e+00  -6.0358042399406279e-05 -3.2051471480246164e-06 0.0000000000000000e+00  -7.9824886913162866e-05 -4.2612244025042601e-06 0.0000000000000000e+00  -1.0248187615731397e-04 -5.5090125598993589e-06 0.0000000000000000e+00  -1.2926019477601988e-04 -7.0121957986450475e-06 0.0000000000000000e+00  -1.6128055864699225e-04 -8.8537614020415760e-06 0.0000000000000000e+00  -1.9991622604616777e-04 -1.1145772204399068e-05 0.0000000000000000e+00  -2.4688144481237618e-04 -1.4044933485757210e-05 0.0000000000000000e+00  -3.0436323211566744e-04 -1.7777251709078503e-05 0.0000000000000000e+00  -3.7522946148187380e-04 -2.2675113293453760e-05 0.0000000000000000e+00  -4.6337234297511422e-04 -2.9225054231766510e-05 0.0000000000000000e+00  -5.7428150999874012e-04 -3.8101683549492501e-05 0.0000000000000000e+00  -7.1594505604891372e-04 -5.0090984970980154e-05 0.0000000000000000e+00  -9.0003347811733279e-04 -6.5616719842133089e-05 0.0000000000000000e+00  0.0000000000000000e+00 0.0000000000000000e+00 0.0000000000000000e+00  -1.2409813034418731e-05 -6.6041068777205505e-07 0.0000000000000000e+00  -2.5321082930771967e-05 -1.3501418551042288e-06 0.0000000000000000e+00  -3.9254671599469316e-05 -2.1000900590437747e-06 0.0000000000000000e+00  -5.4777687242820954e-05 -2.9447857612119065e-06 0.0000000000000000e+00  -7.2529832320330682e-05 -3.9246979751184921e-06 0.0000000000000000e+00  -9.3254288724865195e-05 -5.0892831125049310e-06 0.0000000000000000e+00  -1.1783547583930145e-04 -6.5013512838186062e-06 0.0000000000000000e+00  -1.4734714763394940e-04 -8.2438132406085444e-06 0.0000000000000000e+00  -1.8311655567010453e-04 -1.0430877903431714e-05 0.0000000000000000e+00  -2.2681519243487378e-04 -1.3227804035131296e-05 0.0000000000000000e+00  -2.8059726720785518e-04 -1.6887250516690159e-05 0.0000000000000000e+00  -3.4733153594435621e-04 -2.1817279554304901e-05 0.0000000000000000e+00  -4.3102929494121965e-04 -2.8706275535997131e-05 0.0000000000000000e+00  -5.3770032641961573e-04 -3.8735886158583092e-05 0.0000000000000000e+00  -6.7709259861279010e-04 -5.3875247172259827e-05 0.0000000000000000e+00  -8.6565152429873295e-04 -7.7213306387810475e-05 0.0000000000000000e+00  0.0000000000000000e+00 0.0000000000000000e+00 0.0000000000000000e+00  -1.0615714827476119e-05 -5.6959882025379857e-07 0.0000000000000000e+00  -2.1668020851370604e-05 -1.1652240715847590e-06 0.0000000000000000e+00  -3.3610512093286163e-05 -1.8142834734219080e-06 0.0000000000000000e+00  -4.6938926358232585e-05 -2.5474366563888109e-06 0.0000000000000000e+00  -6.2215159768810743e-05 -3.4005711387096194e-06 0.0000000000000000e+00  -8.0095349316464817e-05 -4.4172919464237700e-06 0.0000000000000000e+00  -1.0136379587102586e-04 -5.6522860873311248e-06 0.0000000000000000e+00  -1.2697501071067284e-04 -7.1762715857514435e-06 0.0000000000000000e+00  -1.5810722510542393e-04 -9.0841140037689527e-06 0.0000000000000000e+00  -1.9623338171394434e-04 -1.1509902942868219e-05 0.0000000000000000e+00  -2.4322330059497278e-04 -1.4658308172101008e-05 0.0000000000000000e+00  -3.0151386191436838e-04 -1.8874963006250046e-05 0.0000000000000000e+00  -3.7445604992307122e-04 -2.4809732425367330e-05 0.0000000000000000e+00  -4.6717989578127307e-04 -3.3792163482172594e-05 0.0000000000000000e+00  -5.8908034381565505e-04 -4.8613924150300695e-05 0.0000000000000000e+00  -7.6079240675169552e-04 -7.3867846334596388e-05 0.0000000000000000e+00  0.0000000000000000e+00 0.0000000000000000e+00 0.0000000000000000e+00  -8.3830417544206938e-06 -4.5262977786524160e-07 0.0000000000000000e+00  -1.7116046076565056e-05 -9.2635427455761648e-07 0.0000000000000000e+00  -2.6562662207877784e-05 -1.4433329889594101e-06 0.0000000000000000e+00  -3.7121507912946022e-05 -2.0282628339268598e-06 0.0000000000000000e+00  -4.9245987151129801e-05 -2.7097745357247196e-06 0.0000000000000000e+00  -6.3467185987828214e-05 -3.5219421878631464e-06 0.0000000000000000e+00  -8.0420681886793564e-05 -4.5058211830628435e-06 0.0000000000000000e+00  -1.0087758291881150e-04 -5.7107816110538102e-06 0.0000000000000000e+00  -1.2577887290164523e-04 -7.1952498889846630e-06 0.0000000000000000e+00  -1.5626980179539788e-04 -9.0267020034646527e-06 0.0000000000000000e+00  -1.9372812836921248e-04 -1.1283040774190199e-05 0.0000000000000000e+00  -2.3978172704469715e-04 -1.4067961168806905e-05 0.0000000000000000e+00  -2.9634283121758364e-04 -1.7592826055560774e-05 0.0000000000000000e+00  -3.6586219033494729e-04 -2.2524897098727846e-05 0.0000000000000000e+00  -4.5291342917907188e-04 -3.1421325178479226e-05 0.0000000000000000e+00  -5.7408102618516910e-04 -5.5987776962842044e-05 0.0000000000000000e+00  0.0000000000000000e+00 0.0000000000000000e+00 0.0000000000000000e+00  -5.7980061995032404e-06 -3.1442091733140590e-07 0.0000000000000000e+00  -1.1840986578278801e-05 -6.4368389518134425e-07 0.0000000000000000e+00  -1.8383556121966552e-05 -1.0033306040353469e-06 0.0000000000000000e+00  -2.5705479094127321e-05 -1.4105766542923802e-06 0.0000000000000000e+00  -3.4125830737297694e-05 -1.8850924492020519e-06 0.0000000000000000e+00  -4.4019103630251481e-05 -2.4495602258833040e-06 0.0000000000000000e+00  -5.5833270683933491e-05 -3.1295140821608476e-06 0.0000000000000000e+00  -7.0108441341887353e-05 -3.9512419024784653e-06 0.0000000000000000e+00  -8.7491290618234996e-05 -4.9348730456475223e-06 0.0000000000000000e+00  -1.0873232960504683e-04 -6.0760878738610332e-06 0.0000000000000000e+00  -1.3463537992389887e-04 -7.3019189764940291e-06 0.0000000000000000e+00  -1.6589401888303685e-04 -8.3697880081343687e-06 0.0000000000000000e+00  -2.0269617113356352e-04 -8.6486720197160344e-06 0.0000000000000000e+00  -2.4394612502647576e-04 -6.6802576890247744e-06 0.0000000000000000e+00  -2.8619279258827106e-04 5.2599580057643613e-07 0.0000000000000000e+00  -3.2454482401549539e-04 1.7436272885094716e-05 0.0000000000000000e+00  0.0000000000000000e+00 0.0000000000000000e+00 0.0000000000000000e+00  -2.9645996090444372e-06 -1.6117769264757999e-07 0.0000000000000000e+00  -6.0555773144711627e-06 -3.3002483961876934e-07 0.0000000000000000e+00  -9.4043457031132765e-06 -5.1455284023768151e-07 0.0000000000000000e+00  -1.3155593948515976e-05 -7.2358980582418033e-07 0.0000000000000000e+00  -1.7474752962017690e-05 -9.6709413605832069e-07 0.0000000000000000e+00  -2.2556408296678468e-05 -1.2562068339829413e-06 0.0000000000000000e+00  -2.8633415181625694e-05 -1.6025546403061424e-06 0.0000000000000000e+00  -3.5985184605521674e-05 -2.0155507035750568e-06 0.0000000000000000e+00  -4.4940050768005908e-05 -2.4945084670217348e-06 0.0000000000000000e+00  -5.5856922361918067e-05 -3.0074816504719461e-06 0.0000000000000000e+00  -6.9045058758038393e-05 -3.4364083398039445e-06 0.0000000000000000e+00  -8.4510510499372988e-05 -3.4386602387716557e-06 0.0000000000000000e+00  -1.0124408174355485e-04 -2.1159016955369031e-06 0.0000000000000000e+00  -1.1544305954991724e-04 2.6688258066968663e-06 0.0000000000000000e+00  -1.1715697880212606e-04 1.5109919838079668e-05 0.0000000000000000e+00  -8.9563642319112296e-05 3.9675566254954129e-05 0.0000000000000000e+00  0.0000000000000000e+00 0.0000000000000000e+00 0.0000000000000000e+00  0.0000000000000000e+00 0.0000000000000000e+00 0.0000000000000000e+00  0.0000000000000000e+00 0.0000000000000000e+00 0.0000000000000000e+00  0.0000000000000000e+00 0.0000000000000000e+00 0.0000000000000000e+00  0.0000000000000000e+00 0.0000000000000000e+00 0.0000000000000000e+00  0.0000000000000000e+00 0.000