<?xml version="1.0"?>
<VTKFile type="UnstructuredGrid"  version="0.1"  >
<UnstructuredGrid>
<Piece  NumberOfPoints="289" NumberOfCells="512">
<Points>
<DataArray  type="Float64"  NumberOfComponents="3"  format="ascii">0 0 0  0.0625 0 0  0.125 0 0  0.1875 0 0  0.25 0 0  0.3125 0 0  0.375 0 0  0.4375 0 0  0.5 0 0  0.5625 0 0  0.625 0 0  0.6875 0 0  0.75 0 0  0.8125 0 0  0.875 0 0  0.9375 0 0  1 0 0  0 0.0625 0  0.06249886173969157 0.0624888945153453 0  0.124998313216832 0.06247759732702968 0  0.1874990366837302 0.06246593464320181 0  0.2500019300440445 0.06245377486503252 0  0.3125082468922809 0.06244105539587227 0  0.375019780874893 0.06242781535364077 0  0.4375391212261311 0.06241423378252756 0  0.5000700262768747 0.06240066957153154 0  0.5626180096072223 0.06238769314214776 0  0.6251913553533881 0.06237608943117821 0  0.6878031069831264 0.06236679402053297 0  0.7504755069506653 0.06236069248428732 0  0.8132511814340158 0.06235813996914665 0  0.8762243908234099 0.06235782023426982 0  0.9396364350692036 0.06235362184676381 0  1.004192965264805 0.06232499895033966 0  0 0.125 0  0.06249712050425608 0.1249779737250902 0  0.1249953247420774 0.1249555432391737 0  0.1874958728775266 0.124932337869035 0  0.2500004372264186 0.1249080668152581 0  0.3125113707454592 0.1248825715626059 0  0.3750320597615701 0.1248558919778018 0  0.4375674069698856 0.1248283470170043 0  0.5001245164759548 0.1248006252938362 0  0.5627137073279393 0.1247738700568088 0  0.6253501021305254 0.1247497247167553 0  0.6880563016792191 0.1247302769891082 0  0.7508672098769228 0.1247178069483592 0  0.8138390555396976 0.1247142463573313 0  0.8770654568571709 0.1247204907969271 0  0.9406983064096118 0.1247370667692225 0  1.004928632649914 0.1247738121453245 0  0 0.1875 0  0.06249430256804018 0.187467452264854 0  0.1249899941625107 0.1874342494700844 0  0.1874887044767791 0.1873997808248597 0  0.2499926278175643 0.1873635431323433 0  0.3125048929311225 0.1873252152957665 0  0.375030048298393 0.1872847572055722 0  0.4375747176786879 0.1872425383143209 0  0.5001484971929139 0.1871994953744047 0  0.5627651897188651 0.1871573062066359 0  0.6254445050565431 0.1871185417924078 0  0.6882143776955127 0.1870867143342917 0  0.7511139683254244 0.1870660600666151 0  0.8141968182489862 0.1870607459750129 0  0.8775311928412044 0.18707282216671 0  0.9411869566578667 0.1870969563255025 0  1.005180752699862 0.1871044876274405 0  0 0.25 0  0.06249012497196924 0.2499575828725849 0  0.1249816837434335 0.2499142091562042 0  0.1874763860271242 0.2498689693267991 0  0.2499765937738658 0.2498210725032987 0  0.312485754339019 0.2497699356150394 0  0.3750089733731637 0.2497153101800156 0  0.4375537873725986 0.2496574600795218 0  0.5001312007700557 0.2495974010458616 0  0.5627570437531306 0.2495372032633478 0  0.6254536582596255 0.2494803354839217 0  0.6882517663152912 0.2494319802799422 0  0.7511919641804079 0.2493991558842399 0  0.8143242853974635 0.2493903121412714 0  0.8777021113683631 0.2494138053558692 0  0.9413630232506076 0.2494744327982316 0  1.005286595897127 0.2495682557109813 0  0 0.3125 0  0.0624845611411259 0.312448668417342 0  0.1249702998074085 0.3123960241201483 0  0.1874586685483606 0.3123407931073504 0  0.24995177855775 0.312281806868294 0  0.3124528500265185 0.3122180931462973 0  0.374966822537921 0.3121490177365348 0  0.4375011957675191 0.3120745017901174 0  0.5000671749003461 0.3119953435966175 0  0.5626811775788628 0.3119136748964947 0  0.6253666851027232 0.3118335721284866 0  0.6881562214580845 0.311761808028178 0  0.7510928010433161 0.3117086428069882 0  0.8142293461077817 0.3116883799495621 0  0.87762331289346 0.3117191240075936 0  0.9413227966668185 0.3118208479400189 0  1.005342582955746 0.3120108042426261 0  0 0.375 0  0.06247787521177695 0.3749410654729971 0  0.1249563693283371 0.3748804154234513 0  0.187436334483981 0.3748163508583331 0  0.2499191945747775 0.374747234085317 0  0.312407358324361 0.3746715614989521 0  0.3749048073317554 0.3745880965731334 0  0.4374179483308425 0.374496099079861 0  0.4999568394595203 0.3743957017332268 0  0.5625369090572568 0.3742885044460574 0  0.6251812528722499 0.3741784745738602 0  0.6879234638072799 0.3740732446908618 0  0.7508106258697557 0.3739858531251286 0  0.8139054999915577 0.3739368071936391 0  0.8772861136784101 0.3739559543345816 0  0.9410405708848532 0.3740829121674389 0  1.005256606368357 0.374363749302954 0  0 0.4375 0  0.06247061884917133 0.4374351761014002 0  0.1249410389198969 0.4373682097838686 0  0.1874112104327383 0.4372969380756232 0  0.249881469277264 0.4372191804783437 0  0.3123528493397842 0.4371327687079691 0  0.3748275704166571 0.4370356356693248 0  0.437309813228099 0.4369260071563871 0  0.4998069457565145 0.4368027667410554 0  0.5623314341229374 0.4366661063171982 0  0.6249037445203603 0.4365186353313039 0  0.6875565816282264 0.4363671966843527 0  0.7503407251833195 0.4362256961169603 0  0.8133323699366881 0.4361191963888059 0  0.8766411030761437 0.4360891264389044 0  0.9404166501385057 0.4361983215390105 0  1.004852482900683 0.4365324652667555 0  0 0.5 0  0.0624635866876172 0.4999314250920385 0  0.1249259873776241 0.4998602952075024 0  0.1873860420485841 0.4997839846232792 0  0.249842696195436 0.4996997393227232 0  0.3122951430459768 0.4996046369360571 0  0.3747431125058842 0.4994955891805509 0  0.4371874297807608 0.4993694278426051 0  0.4996310574675329 0.499223150331077 0  0.5620809858094935 0.4990544634254353 0  0.6245515709612016 0.4988628724487263 0  0.687070249629344 0.4986517413792222 0  0.7496869216558227 0.4984320096714605 0  0.8124884488902956 0.4982285294645376 0  0.8756190963708012 0.4980899601775071 0  0.9393055870433378 0.4981019170612058 0  1.003882436933674 0.498399065839217 0  0 0.5625 0  0.062457729585019 0.5624302216096564 0  0.1249132480150163 0.5623575424437963 0  0.187364219649265 0.5622789332377347 0  0.2498080633218772 0.562191105271003 0  0.3122418597785472 0.5620903788755935 0  0.3746623322845992 0.5619725593817171 0  0.4370660041887439 0.5618328440868847 0  0.4994497534733686 0.5616658162892175 0  0.5618122097411434 0.5614656494944863 0  0.624156858766203 0.561226782169818 0  0.6864984543087416 0.5609455994448872 0  0.7488754907927737 0.5606241910104004 0  0.8113729280953282 0.5602781869928608 0  0.8741600887284142 0.5599519214636582 0  0.9375458545702992 0.5597444197832482 0  1.002043340940761 0.5598443592579263 0  0 0.625 0  0.06245402972936673 0.6249319071617989 0  0.1249049462401709 0.6248606951154468 0  0.1873493547610607 0.6247830602477948 0  0.2497832398542638 0.6246953089240288 0  0.3122015975396636 0.6245931267526519 0  0.3745980169928959 0.6244713054597887 0  0.4369642483587731 0.6243234176998812 0  0.4992898964667715 0.6241414440752213 0  0.5615626217399908 0.6239153967133167 0  0.6237697679070654 0.6236330908300847 0  0.685903478256727 0.6232804928746408 0  0.7479736307597197 0.6228437764651736 0  0.8100369448017745 0.6223159351431562 0  0.8722561089693479 0.6217146167783565 0  0.9350048007900298 0.6211240931396417 0  0.9990186344361405 0.6207740712107696 0  0 0.6875 0  0.0624533488864147 0.6874366956844858 0  0.1249029732768547 0.6873702400694337 0  0.1873447328693205 0.6872972552356198 0  0.2497735372027224 0.6872138710324495 0  0.3121827106679151 0.6871154088780208 0  0.3745631490899165 0.6869959698696907 0  0.4369021868757536 0.6868478755280354 0  0.4991821237173945 0.6866608907300196 0  0.5613784977486994 0.6864211364422648 0  0.6234586317268151 0.6861095905362726 0  0.6853822036676138 0.685700146328547 0  0.7471087469567534 0.6851576124486306 0  0.8086245213905199 0.684437747735376 0  0.8700171214271174 0.6834976964659149 0  0.9316496334780422 0.6823453074162797 0  0.994473433227386 0.68119081534251 0  0 0.75 0  0.06245627010062059 0.7499446154487964 0  0.1249086378461074 0.7498862787173579 0  0.187352706515671 0.7498217941593627 0  0.2497829267023437 0.7497474282429307 0  0.3121917711154161 0.7496585461040788 0  0.3745685508653761 0.7495491125223656 0  0.4368976513580509 0.7494109700035304 0  0.4991558663978438 0.749232754476041 0  0.5613083986942475 0.7489982150904416 0  0.6233030833548603 0.7486835307032405 0  0.6850628981347271 0.7482528915195868 0  0.7464792721240908 0.7476510571411924 0  0.8074176141989644 0.7467910369920716 0  0.8677753829141555 0.7455372930645735 0  0.927715469538418 0.7437106254031036 0  0.9882893709549035 0.7413406296076289 0  0 0.8125 0  0.06246296157538217 0.8124554650410362 0  0.1249223588352388 0.812408426692571 0  0.1873741372324075 0.8123561546354765 0  0.2498130838737814 0.8122954116546082 0  0.3122319589280851 0.8122221002820789 0  0.3746201868935327 0.8121307631064379 0  0.436961780607752 0.8120138367700518 0  0.4992319371473395 0.8118604937098477 0  0.5613913243227546 0.8116547803239917 0  0.6233763452518727 0.811372503663202 0  0.6850825177855648 0.8109757360800977 0  0.7463368802507824 0.8104023281872061 0  0.8068571132136254 0.8095437239369323 0  0.8662168417677805 0.8081925275077599 0  0.9239691564576723 0.8059067862812808 0  0.9809451878761034 0.8016331279126594 0  0 0.875 0  0.06247309535152604 0.8749687954585069 0  0.1249434740480872 0.8749357695215929 0  0.1874080262292409 0.8748989252195161 0  0.2498627047784573 0.8748558707562063 0  0.3123018010275072 0.8748035393847836 0  0.3747168187023122 0.8747377875911235 0  0.4370946164708393 0.8746527886111776 0  0.4994142061517841 0.8745400874390016 0  0.5616410126030326 0.8743870971813351 0  0.623716171258329 0.874174667916911 0  0.6855357446179434 0.873873076371053 0  0.7469086446900377 0.8734350807915486 0  0.8074679690215776 0.8727821669984989 0  0.8664785030298595 0.8717689427863136 0  0.9224228800244086 0.8700587492185394 0  0.9722460025255011 0.8665867670256263 0  0 0.9375 0  0.06248584862005398 0.9374839266380272 0  0.1249702321099903 0.9374668940455656 0  0.1874514679783821 0.937447847323813 0  0.2499273530819739 0.9374255156826961 0  0.3123947551216793 0.9373982580046136 0  0.3748489674236236 0.9373638402474923 0  0.4372826234427731 0.9373190997
[...]
<PointData  Vectors="f_54"> 
<DataArray  type="Float64"  Name="f_54"  NumberOfComponents="3" format="ascii">0.0000000000000000e+00 0.0000000000000000e+00 0.0000000000000000e+00  0.0000000000000000e+00 0.0000000000000000e+00 0.0000000000000000e+00  0.0000000000000000e+00 0.0000000000000000e+00 0.0000000000000000e+00  0.0000000000000000e+00 0.0000000000000000e+00 0.0000000000000000e+00  0.0000000000000000e+00 0.0000000000000000e+00 0.0000000000000000e+00  0.0000000000000000e+00 0.0000000000000000e+00 0.0000000000000000e+00  0.0000000000000000e+00 0.0000000000000000e+00 0.0000000000000000e+00  0.0000000000000000e+00 0.0000000000000000e+00 0.0000000000000000e+00  0.0000000000000000e+00 0.0000000000000000e+00 0.0000000000000000e+00  0.0000000000000000e+00 0.0000000000000000e+00 0.0000000000000000e+00  0.0000000000000000e+00 0.0000000000000000e+00 0.0000000000000000e+00  0.0000000000000000e+00 0.0000000000000000e+00 0.0000000000000000e+00  0.0000000000000000e+00 0.0000000000000000e+00 0.0000000000000000e+00  0.0000000000000000e+00 0.0000000000000000e+00 0.0000000000000000e+00  0.0000000000000000e+00 0.0000000000000000e+00 0.0000000000000000e+00  0.0000000000000000e+00 0.0000000000000000e+00 0.0000000000000000e+00  0.0000000000000000e+00 0.0000000000000000e+00 0.0000000000000000e+00  0.0000000000000000e+00 0.0000000000000000e+00 0.0000000000000000e+00  -4.5552150639421202e-06 -1.7380156754583304e-07 0.0000000000000000e+00  -9.2408883350096643e-06 -3.4977249649244758e-07 0.0000000000000000e+00  -1.4188500513265167e-05 -5.2964966754407440e-07 0.0000000000000000e+00  -1.9528006836453685e-05 -7.1411709283058127e-07 0.0000000000000000e+00  -2.5385802480470599e-05 -9.0211039699434048e-07 0.0000000000000000e+00  -3.1881077523956467e-05 -1.0899230337450340e-06 0.0000000000000000e+00  -3.9120150961638282e-05 -1.2700692174447393e-06 0.0000000000000000e+00  -4.7188791626385770e-05 -1.4298897853435085e-06 0.0000000000000000e+00  -5.6143760142185858e-05 -1.5499227489237565e-06 0.0000000000000000e+00  -6.6008234285533786e-05 -1.6020210140727651e-06 0.0000000000000000e+00  -7.6785590308355370e-05 -1.5467453378774439e-06 0.0000000000000000e+00  -8.8535797836750352e-05 -1.3273728150583239e-06 0.0000000000000000e+00  -1.0165608999151004e-04 -8.4882235573614047e-07 0.0000000000000000e+00  -1.1785242746400366e-04 1.0688161310168207e-07 0.0000000000000000e+00  -1.4362630821744511e-04 2.2328285495283946e-06 0.0000000000000000e+00  -2.0413381255519813e-04 8.2743979022151414e-06 0.0000000000000000e+00  0.0000000000000000e+00 0.0000000000000000e+00 0.0000000000000000e+00  -8.9781654515502631e-06 -3.4536379042347603e-07 0.0000000000000000e+00  -1.8217909506485562e-05 -6.9556266991370689e-07 0.0000000000000000e+00  -2.7983264598535129e-05 -1.0546323999187908e-06 0.0000000000000000e+00  -3.8536392212347308e-05 -1.4246409124292704e-06 0.0000000000000000e+00  -5.0134118751728148e-05 -1.8043584046416111e-06 0.0000000000000000e+00  -6.3021169843446468e-05 -2.1875120265087462e-06 0.0000000000000000e+00  -7.7418992946430329e-05 -2.5605168482593386e-06 0.0000000000000000e+00  -9.3509385151413667e-05 -2.8996441329254904e-06 0.0000000000000000e+00  -1.1141319703647067e-04 -3.1677316600631864e-06 0.0000000000000000e+00  -1.3116707107349378e-04 -3.3107916766899058e-06 0.0000000000000000e+00  -1.5270729558687458e-04 -3.2552649142614676e-06 0.0000000000000000e+00  -1.7588226495916703e-04 -2.9073942429123934e-06 0.0000000000000000e+00  -2.0053344189001170e-04 -2.1588321130187134e-06 0.0000000000000000e+00  -2.2667135005089188e-04 -9.1772235117380660e-07 0.0000000000000000e+00  -2.5443866239031752e-04 7.2516401167345573e-07 0.0000000000000000e+00  -2.8107121383335373e-04 1.5577235154979145e-06 0.0000000000000000e+00  0.0000000000000000e+00 0.0000000000000000e+00 0.0000000000000000e+00  -1.3136184668087365e-05 -5.1195752512529535e-07 0.0000000000000000e+00  -2.6665712761161937e-05 -1.0323348409624764e-06 0.0000000000000000e+00  -4.0986575419929970e-05 -1.5685170599816947e-06 0.0000000000000000e+00  -5.6496794086068259e-05 -2.1252873144253017e-06 0.0000000000000000e+00  -7.3590744247628212e-05 -2.7029959993700985e-06 0.0000000000000000e+00  -9.2650485611423024e-05 -3.2950684050269573e-06 0.0000000000000000e+00  -1.1403000349396757e-04 -3.8846322135860315e-06 0.0000000000000000e+00  -1.3803005192373504e-04 -4.4401186427304309e-06 0.0000000000000000e+00  -1.6486121969014247e-04 -4.9099039822451699e-06 0.0000000000000000e+00  -1.9459287248938149e-04 -5.2165581391934378e-06 0.0000000000000000e+00  -2.2708491508625987e-04 -5.2523281027039904e-06 0.0000000000000000e+00  -2.6189387492569480e-04 -4.8796547911338736e-06 0.0000000000000000e+00  -2.9811980594324705e-04 -3.9449243289802461e-06 0.0000000000000000e+00  -3.3406817128764067e-04 -2.3218376508834960e-06 0.0000000000000000e+00  -3.6631470710668052e-04 -6.2314298402516891e-09 0.0000000000000000e+00  -3.8711980744199749e-04 2.8083772340345025e-06 0.0000000000000000e+00  0.0000000000000000e+00 0.0000000000000000e+00 0.0000000000000000e+00  -1.6896248444487025e-05 -6.6994056836496895e-07 0.0000000000000000e+00  -3.4317113189627068e-05 -1.3530861892830418e-06 0.0000000000000000e+00  -5.2795130751880831e-05 -2.0615685458202083e-06 0.0000000000000000e+00  -7.2868002109579690e-05 -2.8047136833081178e-06 0.0000000000000000e+00  -9.5076603245067325e-05 -3.5869375667175733e-06 0.0000000000000000e+00  -1.1995659635337935e-04 -4.4047194672102869e-06 0.0000000000000000e+00  -1.4802051731333777e-04 -5.2422587113978493e-06 0.0000000000000000e+00  -1.7972633115598927e-04 -6.0654124409464829e-06 0.0000000000000000e+00  -2.1542721967926997e-04 -6.8136422806636828e-06 0.0000000000000000e+00  -2.5529537532516683e-04 -7.3901701175946704e-06 0.0000000000000000e+00  -2.9920849386912569e-04 -7.6517534681614474e-06 0.0000000000000000e+00  -3.4657785809981184e-04 -7.4021383588440576e-06 0.0000000000000000e+00  -3.9607306663791392e-04 -6.3983762360303892e-06 0.0000000000000000e+00  -4.4514706944243548e-04 -4.3877587233727403e-06 0.0000000000000000e+00  -4.8918865052409899e-04 -1.2042646039086824e-06 0.0000000000000000e+00  -5.2017091186732712e-04 3.0334196374957159e-06 0.0000000000000000e+00  0.0000000000000000e+00 0.0000000000000000e+00 0.0000000000000000e+00  -2.0126293731249627e-05 -8.1448289069043876e-07 0.0000000000000000e+00  -4.0905265720166081e-05 -1.6482264138298172e-06 0.0000000000000000e+00  -6.3002087119684504e-05 -2.5196322570319124e-06 0.0000000000000000e+00  -8.7096206409437930e-05 -3.4446648891717777e-06 0.0000000000000000e+00  -1.1388356864845342e-04 -4.4348153758747096e-06 0.0000000000000000e+00  -1.4407169692153907e-04 -5.4939262044782727e-06 0.0000000000000000e+00  -1.7836371177578695e-04 -6.6132611101304520e-06 0.0000000000000000e+00  -2.1742588588935237e-04 -7.7640141223777029e-06 0.0000000000000000e+00  -2.6183127232734022e-04 -8.8862901819137942e-06 0.0000000000000000e+00  -3.1196903314838252e-04 -9.8736378063790717e-06 0.0000000000000000e+00  -3.6790475000612958e-04 -1.0552904559308630e-05 0.0000000000000000e+00  -4.2917016527011133e-04 -1.0661405989598192e-05 0.0000000000000000e+00  -4.9445054556936075e-04 -9.8286882981549233e-06 0.0000000000000000e+00  -5.6112789311699466e-04 -7.5805497422930487e-06 0.0000000000000000e+00  -6.2465448782938018e-04 -3.3996415749507753e-06 0.0000000000000000e+00  -6.7786399630487086e-04 3.1029936987207712e-06 0.0000000000000000e+00  0.0000000000000000e+00 0.0000000000000000e+00 0.0000000000000000e+00  -2.2698084855094456e-05 -9.3950457512760090e-07 0.0000000000000000e+00  -4.6169064011346589e-05 -1.9053909458280036e-06 0.0000000000000000e+00  -7.1204249068902782e-05 -2.9236814140887358e-06 0.0000000000000000e+00  -9.8622613024027040e-05 -4.0189988819076513e-06 0.0000000000000000e+00  -1.2928013606528882e-04 -5.2130546766631866e-06 0.0000000000000000e+00  -1.6407231165850773e-04 -6.5219272190185084e-06 0.0000000000000000e+00  -2.0392552657649433e-04 -7.9513235547024742e-06 0.0000000000000000e+00  -2.4977105563087488e-04 -9.4885748742378750e-06 0.0000000000000000e+00  -3.0249271694286355e-04 -1.1089474439176846e-05 0.0000000000000000e+00  -3.6283580935369517e-04 -1.2657255626383521e-05 0.0000000000000000e+00  -4.3126107674093940e-04 -1.4010312389616085e-05 0.0000000000000000e+00  -5.0772413629072781e-04 -1.4835611063833452e-05 0.0000000000000000e+00  -5.9136094703618372e-04 -1.4628380610313828e-05 0.0000000000000000e+00  -6.8007073720320588e-04 -1.2629783951308743e-05 0.0000000000000000e+00  -7.7002547495468076e-04 -7.7977767004393398e-06 0.0000000000000000e+00  -8.5522573425912251e-04 1.1191540186419592e-06 0.0000000000000000e+00  0.0000000000000000e+00 0.0000000000000000e+00 0.0000000000000000e+00  -2.4491929537838231e-05 -1.0378876793629614e-06 0.0000000000000000e+00  -4.9862466154871280e-05 -2.1098270906533440e-06 0.0000000000000000e+00  -7.7015717012984556e-05 -3.2502809000563067e-06 0.0000000000000000e+00  -1.0690073173666002e-04 -4.4940182319488898e-06 0.0000000000000000e+00  -1.4053090519681411e-04 -5.8756467424684639e-06 0.0000000000000000e+00  -1.7899817904696604e-04 -7.4281325619957261e-06 0.0000000000000000e+00  -2.2347799873125113e-04 -9.1794614120945807e-06 0.0000000000000000e+00  -2.7521859027603550e-04 -1.1145932240163118e-05 0.0000000000000000e+00  -3.3550475292375311e-04 -1.3319405322836864e-05 0.0000000000000000e+00  -4.0558208386294473e-04 -1.5643863251118845e-05 0.0000000000000000e+00  -4.8652308291917184e-04 -1.7973643176805471e-05 0.0000000000000000e+00  -5.7901416960569167e-04 -2.0001970743219011e-05 0.0000000000000000e+00  -6.8304735082239554e-04 -2.1146230368876326e-05 0.0000000000000000e+00  -7.9752075386720013e-04 -2.0382653858523964e-05 0.0000000000000000e+00  -9.1979657288249965e-04 -1.6051353489769993e-05 0.0000000000000000e+00  -1.0453221457950869e-03 -5.7147281448201381e-06 0.0000000000000000e+00  0.0000000000000000e+00 0.0000000000000000e+00 0.0000000000000000e+00  -2.5403320159620150e-05 -1.1019973860738056e-06 0.0000000000000000e+00  -5.1767996061821979e-05 -2.2454470741900903e-06 0.0000000000000000e+00  -8.0088627882294561e-05 -3.4731744483505134e-06 0.0000000000000000e+00  -1.1142472323928508e-04 -4.8305298491961253e-06 0.0000000000000000e+00  -1.4693258448771244e-04 -6.3664357571456022e-06 0.0000000000000000e+00  -1.8789517434288357e-04 -8.1339655016547985e-06 0.0000000000000000e+00  -2.3574694851598375e-04 -1.0189852461718009e-05 0.0000000000000000e+00  -2.9208796793953588e-04 -1.2591636668029842e-05 0.0000000000000000e+00  -3.5867748336746981e-04 -1.5389718131619293e-05 0.0000000000000000e+00  -4.3739137845186330e-04 -1.8608671816832002e-05 0.0000000000000000e+00  -5.3012086129731605e-04 -2.2206532440547886e-05 0.0000000000000000e+00  -6.3858422948552085e-04 -2.5990708501263419e-05 0.0000000000000000e+00  -7.6402677248463475e-04 -2.9454169165984324e-05 0.0000000000000000e+00  -9.0681105445283416e-04 -3.1481848583410123e-05 0.0000000000000000e+00  -1.0659692328383711e-03 -2.9890482185202858e-05 0.0000000000000000e+00  -1.2388818922845089e-03 -2.0853701285859162e-05 0.0000000000000000e+00  0.0000000000000000e+00 0.0000000000000000e+00 0.0000000000000000e+00  -2.5351258391965588e-05 -1.1244991718235211e-06 0.0000000000000000e+00  -5.1714014857249403e-05 -2.2965428871551843e-06 0.0000000000000000e+00  -8.0140588996933327e-05 -3.5660532379306162e-06 0.0000000000000000e+00  -1.1176871281992032e-04 -4.9878733768973434e-06 0.0000000000000000e+00  -1.4786720075051862e-04 -6.6245845505145743e-06 0.0000000000000000e+00  -1.8988434048804290e-04 -8.5497064853505905e-06 0.0000000000000000e+00  -2.3949802253433601e-04 -1.0851266172352942e-05 0.0000000000000000e+00  -2.9866402901125095e-04 -1.3635350518345544e-05 0.0000000000000000e+00  -3.6965426284777655e-04 -1.7028221725826830e-05 0.0000000000000000e+00  -4.5506899298686953e-04 -2.1172842040755231e-05 0.0000000000000000e+00  -5.5779569744514367e-04 -2.6208833214820257e-05 0.0000000000000000e+00  -6.8087317898546092e-04 -3.2208908061023802e-05 0.0000000000000000e+00  -8.2721177927586910e-04 -3.9010757251348474e-05 0.0000000000000000e+00  -9.9914568471721750e-04 -4.5823132008314244e-05 0.0000000000000000e+00  -1.1979130899690939e-03 -5.0421331534585942e-05 0.0000000000000000e+00  -1.4234619593711925e-03 -4.7806606270361065e-05 0.0000000000000000e+00  0.0000000000000000e+00 0.0000000000000000e+00 0.0000000000000000e+00  -2.4287636697816343e-05 -1.0993895356103288e-06 0.0000000000000000e+00  -4.9594544840118944e-05 -2.2500047582795892e-06 0.0000000000000000e+00  -7.6987087020929118e-05 -3.5062972578325435e-06 0.0000000000000000e+00  -1.0763505149979275e-04 -4.9297368239889117e-06 0.0000000000000000e+00  -1.4287057672412640e-04 -6.5932711163259686e-06 0.0000000000000000e+00  -1.8425580125390023e-04 -8.5871170085428348e-06 0.0000000000000000e+00  -2.3366142593498070e-04 -1.1026673529313715e-05 0.0000000000000000e+00  -2.9335660804334201e-04 -1.4063673948103195e-05 0.0000000000000000e+00  -3.6610640923074922e-04 -1.7901978650066208e-05 0.0000000000000000e+00  -4.5526421063610744e-04 -2.2818981379521139e-05 0.0000000000000000e+00  -5.6482992266576430e-04 -2.9190046008854997e-05 0.0000000000000000e+00  -6.9941752973324558e-04 -3.7499154626968620e-05 0.0000000000000000e+00  -8.6404095651956283e-04 -4.8272967609886409e-05 0.0000000000000000e+00  -1.0636166143830684e-03 -6.1748804741983886e-05 0.0000000000000000e+00  -1.3022071964118368e-03 -7.6818886389230985e-05 0.0000000000000000e+00  -1.5824564221093382e-03 -8.8537566641809913e-05 0.0000000000000000e+00  0.0000000000000000e+00 0.0000000000000000e+00 0.0000000000000000e+00  -2.2206640414044814e-05 -1.0230830080036418e-06 0.0000000000000000e+00  -4.5389538028628860e-05 -2.0977080686532770e-06 0.0000000000000000e+00  -7.0575650065157419e-05 -3.2791381926829941e-06 0.0000000000000000e+00  -9.8907218010835682e-05 -4.6309528583391038e-06 0.0000000000000000e+00  -1.3171092878879115e-04 -6.2305681785075554e-06 0.0000000000000000e+00  -1.7058225385312533e-04 -8.1767773687287358e-06 0.0000000000000000e+00  -2.1749132573675712e-04 -1.0600777280119817e-05 0.0000000000000000e+00  -2.7491693501690710e-04 -1.3683258693549005e-05 0.0000000000000000e+00  -3.4601347427062993e-04 -1.7682270376923095e-05 0.0000000000000000e+00  -4.3480874119221060e-04 -2.2980434612927017e-05 0.0000000000000000e+00  -5.4641212225582767e-04 -3.0166074678249857e-05 0.0000000000000000e+00  -6.8717201856981702e-04 -4.0167601886111728e-05 0.0000000000000000e+00  -8.6464595754929630e-04 -5.4442670954667590e-05 0.0000000000000000e+00  -1.0871491071498226e-03 -7.5088592450508001e-05 0.0000000000000000e+00  -1.3627142049884183e-03 -1.0415651842694102e-04 0.0000000000000000e+00  -1.6984531405524559e-03 -1.4039837100896562e-04 0.0000000000000000e+00  0.0000000000000000e+00 0.0000000000000000e+00 0.0000000000000000e+00  -1.9152764859803320e-05 -8.9534486644428799e-07 0.0000000000000000e+00  -3.9182636953771518e-05 -1.8385956120207221e-06 0.0000000000000000e+00  -6.1017012181819811e-05 -2.8813904831751274e-06 0.0000000000000000e+00  -8.5700532441646893e-05 -4.0838321254084665e-06 0.0000000000000000e+00  -1.1446856355135562e-04 -5.5201412299977797e-06 0.0000000000000000e+00  -1.4884128792194047e-04 -7.2864210951890207e-06 0.0000000000000000e+00  -1.9074922515954892e-04 -9.5120932934858887e-06 0.0000000000000000e+00  -2.4270443284103108e-04 -1.2377931779046561e-05 0.0000000000000000e+00  -3.0803510298157250e-04 -1.6146744318947051e-05 0.0000000000000000e+00  -3.9120193167011951e-04 -2.1220099563714376e-05 0.0000000000000000e+00  -4.9820454625418254e-04 -2.8251819613623140e-05 0.0000000000000000e+00  -6.3704579087451739e-04 -3.8388139274728190e-05 0.0000000000000000e+00  -8.1810834691773782e-04 -5.3783033920212440e-05 0.0000000000000000e+00  -1.0540397172241200e-03 -7.8636970029095864e-05 0.0000000000000000e+00  -1.3583298343284071e-03 -1.2064666832523335e-04 0.0000000000000000e+00  -1.7430286750291777e-03 -1.8559204690176179e-04 0.0000000000000000e+00  0.0000000000000000e+00 0.0000000000000000e+00 0.0000000000000000e+00  -1.5225808010347039e-05 -7.1985767678285091e-07 0.0000000000000000e+00  -3.1172872106724916e-05 -1.4799617795676190e-06 0.0000000000000000e+00  -4.8607264364482857e-05 -2.3238046040658944e-06 0.0000000000000000e+00  -6.8401420347600055e-05 -3.3022822425164765e-06 0.0000000000000000e+00  -9.1603290649063015e-05 -4.4785132718757795e-06 0.0000000000000000e+00  -1.1952853197433017e-04 -5.9341981831758209e-06 0.0000000000000000e+00  -1.5388974828129626e-04 -7.7783892692533948e-06 0.0000000000000000e+00  -1.9698380188191308e-04 -1.0160089565840502e-05 0.0000000000000000e+00  -2.5196881604835604e-04 -1.3287578487267524e-05 0.0000000000000000e+00  -3.2327697387150639e-04 -1.7462021186130094e-05 0.0000000000000000e+00  -4.1722426459880565e-04 -2.3148499656263276e-05 0.0000000000000000e+00  -5.4287728320937900e-04 -3.1159762514156780e-05 0.0000000000000000e+00  -7.1316012531282404e-04 -4.3199486957195891e-05 0.0000000000000000e+00  -9.4584060605337988e-04 -6.3580593684832358e-05 0.0000000000000000e+00  -1.2628328109898586e-03 -1.0511841884812794e-04 0.0000000000000000e+00  -1.6813894178491363e-03 -2.1609084659141698e-04 0.0000000000000000e+00  0.0000000000000000e+00 0.0000000000000000e+00 0.0000000000000000e+00  -1.0581222293250099e-05 -5.0427690958060686e-07 0.0000000000000000e+00  -2.1676653684705991e-05 -1.0375942263402697e-06 0.0000000000000000e+00  -3.3834455587238611e-05 -1.6313540180159329e-06 0.0000000000000000e+00  -4.7684346116189562e-05 -2.3223425744992999e-06 0.0000000000000000e+00  -6.3992193216490462e-05 -3.1560587930201844e-06 0.0000000000000000e+00  -8.3735140108367559e-05 -4.1907223194335739e-06 0.0000000000000000e+00  -1.0821112534132777e-04 -5.5017971410941487e-06 0.0000000000000000e+00  -1.3920542264986071e-04 -7.1858962173992196e-06 0.0000000000000000e+00  -1.7925219642755992e-04 -9.3603231620956571e-06 0.0000000000000000e+00  -2.3205581069975150e-04 -1.2148090629059615e-05 0.0000000000000000e+00  -3.0318264357374349e-04 -1.5624192682897393e-05 0.0000000000000000e+00  -4.0121269894562622e-04 -1.9674359822063636e-05 0.0000000000000000e+00  -5.3967498847320430e-04 -2.3699480977350123e-05 0.0000000000000000e+00  -7.4029325051828119e-04 -2.6188585688096879e-05 0.0000000000000000e+00  -1.0378681749753284e-03 -2.4649005923196596e-05 0.0000000000000000e+00  -1.4832335551097928e-03 -1.7909434212871104e-05 0.0000000000000000e+00  0.0000000000000000e+00 0.0000000000000000e+00 0.0000000000000000e+00  -5.4246112927823370e-06 -2.5975067763639438e-07 0.0000000000000000e+00  -1.1117158597502068e-05 -5.3471921586062028e-07 0.0000000000000000e+00  -1.7363984833260657e-05 -8.4135818864063786e-07 0.0000000000000000e+00  -2.4495962315416384e-05 -1.1989261622742795e-06 0.0000000000000000e+00  -3.2918908909036839e-05 -1.6311283540981284e-06 0.0000000000000000e+00  -4.3156368880181288e-05 -2.1678630072830608e-06 0.0000000000000000e+00  -5.5913681620893413e-05 -2.8464893855912016e-06 0.0000000000000000e+00  -7.2178594958723454e-05 -3.7105173814114328e-06 0.0000000000000000e+00  -9.3385212906860573e-05 -4.7990871018796785e-06 0.0000000000000000e+00  -1.2168792785054557e-04 -6.1070360408679720e-06 0.0000000000000000e+00  -1.6041960809629212e-04 -7.4544744520355818e-06 0.0000000000000000e+00  -2.1481114380989552e-04 -8.0825976102021875e-06 0.0000000000000000e+00  -2.9282777538786850e-04 -5.4468542737047856e-06 0.0000000000000000e+00  -4.0464530991307759e-04 8.1125034292105464e-06 0.0000000000000000e+00  -5.5416160837536317e-04 5.2522084386599023e-05 0.0000000000000000e+00  -7.0751381982070210e-04 1.6266360119141285e-04 0.0000000000000000e+00  0.0000000000000000e+00 0.0000000000000000e+00 0.0000000000000000e+00  0.0000000000000000e+00 0.0000000000000000e+00 0.0000000000000000e+00  0.0000000000000000e+00 0.0000000000000000e+00 0.0000000000000000e+00  0.0000000000000000e+00 0.0000000000000000e+00 0.0000000000000000e+00  0.0000000000000000e+00 0.0000000000000000e+00 0.0000000000000000e+00  0.0000000000000000e+00 0.000000000