<?xml version="1.0"?>
<VTKFile type="UnstructuredGrid"  version="0.1"  >
<UnstructuredGrid>
<Piece  NumberOfPoints="289" NumberOfCells="512">
<Points>
<DataArray  type="Float64"  NumberOfComponents="3"  format="ascii">0 0 0  0.0625 0 0  0.125 0 0  0.1875 0 0  0.25 0 0  0.3125 0 0  0.375 0 0  0.4375 0 0  0.5 0 0  0.5625 0 0  0.625 0 0  0.6875 0 0  0.75 0 0  0.8125 0 0  0.875 0 0  0.9375 0 0  1 0 0  0 0.0625 0  0.06252588017348527 0.06249977741481155 0  0.1250524623005381 0.06249955055472105 0  0.1875804399289013 0.06249931546432928 0  0.2501104862485486 0.06249906887371301 0  0.3126432359375516 0.06249880864629387 0  0.3751792577143031 0.06249853434461095 0  0.4377190154566341 0.06249824793458992 0  0.500262817712779 0.06249795462111065 0  0.5628107599212245 0.06249766374608436 0  0.6253626737931758 0.06249738950669943 0  0.6879181226975705 0.06249715061236769 0  0.7504765481121832 0.06249696524827347 0  0.8130378785188012 0.06249682513551663 0  0.8756046346857334 0.0624965736023995 0  0.9381893269192029 0.06249533292640535 0  1.000842227936208 0.0624887772666976 0  0 0.125 0  0.06255106740267233 0.1249995590088848 0  0.1251035483006773 0.1249991091376343 0  0.187658842628608 0.124998642102262 0  0.2502183160690108 0.1249981509065337 0  0.3127832666641133 0.1249976307044914 0  0.3753548720076224 0.1249970799135239 0  0.4379341115218273 0.1249965016338021 0  0.5005216609153796 0.1249959053940165 0  0.5631177618022229 0.1249953091984423 0  0.6257220811692786 0.1249947418584367 0  0.6883335965723738 0.124994245970271 0  0.7509505767486477 0.1249938841798872 0  0.8135707612133712 0.1249937630303684 0  0.8761917528937602 0.1249941470693345 0  0.9388106550806125 0.1249960304307174 0  1.001415821694996 0.1250040339166117 0  0 0.1875 0  0.06257485002170549 0.1874993493893309 0  0.1251518400142532 0.1874986846841757 0  0.1877330977572096 0.187497992574222 0  0.25032071602157 0.1874972614650333 0  0.3129167103442802 0.1874964826799606 0  0.3755229463070839 0.1874956520667129 0  0.4381410257332645 0.1874947721156991 0  0.5007721228259143 0.1874938546467893 0  0.5634167660145829 0.187492924030554 0  0.6260745708750753 0.187492020780932 0  0.6887439442594553 0.1874912052194754 0  0.7514217933107591 0.1874905607192477 0  0.8141032567138876 0.1874901944240014 0  0.8767813417927237 0.1874902185809119 0  0.9394459182126829 0.1874905879328386 0  1.002080904193822 0.1874899733455774 0  0 0.25 0  0.06259650150842518 0.2499991537717323 0  0.1251958832070328 0.2499982874353432 0  0.1878010242384831 0.2499973817168574 0  0.2504147879903253 0.2499964192110093 0  0.313039981675974 0.2499953857936797 0  0.375679274254403 0.2499942726166608 0  0.4383350553852481 0.2499930788718168 0  0.5010092171719934 0.2499918154587751 0  0.5637028423024619 0.2499905095519802 0  0.6264157893401555 0.2499892097638256 0  0.6891461806551354 0.2499879909892593 0  0.7518898203781915 0.2499869566999337 0  0.8146395911483322 0.2499862332528963 0  0.8773848846096617 0.2499859426720395 0  0.9401111314933427 0.249986126374869 0  1.002799761948514 0.2499866412640554 0  0 0.3125 0  0.06261528172110142 0.3124989781693944 0  0.1252341866042193 0.3124979293657939 0  0.1878603605696766 0.312496827311099 0  0.2504974794768174 0.312495647364177 0  0.31314922595579 0.3124943679456453 0  0.3758192152687085 0.3124929727351883 0  0.4385108451606008 0.3124914539506465 0  0.5012270392993273 0.3124898170068997 0  0.5639698503498445 0.3124880867418998 0  0.6267398910898661 0.3124863150785819 0  0.6895355771429007 0.3124845892964421 0  0.7523522031009173 0.3124830388203236 0  0.8151809485590932 0.3124818366757661 0  0.8780080393624539 0.3124811914375352 0  0.9408144991155465 0.3124813370906187 0  1.003577256952779 0.3124825924402583 0  0 0.375 0  0.06263044793829596 0.3749988294443254 0  0.1252652410679042 0.3749976243371388 0  0.187908785710971 0.3749963504469787 0  0.2505655949793821 0.3749949744569645 0  0.3132403029883881 0.3749934651183028 0  0.3759376237472708 0.374991795341656 0  0.4386622222588674 0.3749899456957009 0  0.5014184533732454 0.3749879098756436 0  0.5642099108135449 0.3749857027307128 0  0.6270387194270564 0.3749833712706837 0  0.6899045091183448 0.3749810084886199 0  0.7528030501829708 0.3749787685432903 0  0.8157246413480017 0.3749768796060526 0  0.8786525681420477 0.3749756476438741 0  0.9415623189758969 0.3749754406156774 0  1.004422693359543 0.3749766285027061 0  0 0.4375 0  0.06264127859182436 0.4374987151688729 0  0.1252875651481474 0.4374973878677208 0  0.1879439817479082 0.4374959753074579 0  0.2506158663798316 0.4374944343236485 0  0.3133088480353351 0.4374927218848841 0  0.3760288712241062 0.4374907966085417 0  0.4387821328379312 0.4374886219172133 0  0.5015748739020219 0.4374861717322004 0  0.5644129410715628 0.4374834398933101 0  0.6273010005225778 0.4374804546964365 0  0.6902412613237245 0.4374772997716171 0  0.7532315752609005 0.4374741414429961 0  0.8162628846260432 0.4374712598384328 0  0.8793162861486711 0.4374690751805646 0  0.9423605775228631 0.4374681508030268 0  1.00535204822267 0.4374691414184299 0  0 0.5 0  0.06264711159348635 0.4999986432517877 0  0.1252997816897424 0.4999972364134711 0  0.1879637476779305 0.4999957281807665 0  0.2506450994524428 0.4999940650109213 0  0.3133504390997829 0.4999921905458103 0  0.3760870083547783 0.4999900459168034 0  0.438862748922885 0.4999875716613892 0  0.5016862324261142 0.4999847124533431 0  0.5645663516363492 0.4999814265300856 0  0.6275115982603797 0.4999777025595856 0  0.6905286668827088 0.4999735874865 0  0.7536200434144684 0.4999692289291576 0  0.8167802357376722 0.4999649333870259 0  0.8799905620540976 0.4999612339504482 0  0.9432132487939863 0.4999589440551481 0  1.006387383745328 0.4999591437966224 0  0 0.5625 0  0.06264739728939173 0.562498621300212 0  0.1253007265728238 0.562497186083561 0  0.1879661687438119 0.5624956355351365 0  0.2506504083918322 0.5624939062832239 0  0.313360896555814 0.5624919283013053 0  0.3761061164264264 0.5624896232676372 0  0.4388958308602589 0.5624869040350284 0  0.5017412594219379 0.5624836765084783 0  0.5646550746483803 0.5624798463340227 0  0.6276510044214528 0.5624753345601948 0  0.6907426574534506 0.5624701089148088 0  0.7539409389967369 0.562464240103586 0  0.8172491369861222 0.5624579938052366 0  0.8806546523477357 0.5624519642650807 0  0.9441170423790407 0.5624472342058388 0  1.007554829825023 0.562445474809081 0  0 0.625 0  0.06264176320280686 0.6249986557260003 0  0.1252895847684901 0.6249972507855724 0  0.1879498366882791 0.6249957210847469 0  0.250629538407514 0.6249939954868374 0  0.3133367282666319 0.6249919918895992 0  0.3760808892170351 0.6249896129788852 0  0.4388734366837903 0.6249867419424527 0  0.5017282542149332 0.6249832390751601 0  0.5646622095289172 0.6249789415442858 0  0.62769546662776 0.6249736711705577 0  0.6908511682759876 0.6249672596916068 0  0.7541536003912871 0.6249596082811111 0  0.8176231537366911 0.6249508076616862 0  0.8812652875592478 0.6249413543246317 0  0.9450499276435604 0.6249325094928441 0  1.008879816963419 0.6249269305973451 0  0 0.6875 0  0.06263008399895216 0.6874987506637164 0  0.1252660408282805 0.6874974399180206 0  0.1879141027858131 0.6874960019692986 0  0.2505812561727538 0.6874943617969236 0  0.313275705891114 0.6874924294076659 0  0.376007454262293 0.687490092686502 0  0.4387890450533156 0.6874872084019373 0  0.5016365273483258 0.6874835912350481 0  0.5645706791408949 0.6874790017066678 0  0.6276184602622518 0.6874731365082172 0  0.6908144491065558 0.6874656307888056 0  0.754201455452563 0.6874560941837206 0  0.8178281769916497 0.6874442227903664 0  0.8817389747039702 0.6874300503202333 0  0.9459459451615572 0.6874143781568466 0  1.010368099537571 0.687399214473418 0  0 0.75 0  0.06261254612889249 0.7499989068434022 0  0.1252304218173733 0.7499977558970227 0  0.1878593288049501 0.7499964844659829 0  0.250505759692276 0.7499950193406404 0  0.3131775132069446 0.7499932697078736 0  0.3758843765718862 0.7499911175201655 0  0.4386390734112537 0.7499884038870054 0  0.5014586198993675 0.7499849095877447 0  0.5643662929040955 0.7499803275320797 0  0.6273944805612891 0.7499742258471639 0  0.6905887010012605 0.749966004903371 0  0.754012835683857 0.7499548665087808 0  0.8177544987608775 0.7499398515093798 0  0.8819256816930595 0.7499200766889429 0  0.9466431231012981 0.7498953781566239 0  1.011948719422737 0.7498673765986927 0  0 0.8125 0  0.06258969353691246 0.8124991206364408 0  0.1251838030006802 0.8124981919847205 0  0.1877870850893162 0.8124971600065634 0  0.2504050281013433 0.8124959603322988 0  0.3130443495149771 0.8124945108640121 0  0.3757136855277372 0.812492701068214 0  0.4384246037905318 0.8124903755976242 0  0.5011931547636833 0.8124873083506235 0  0.5640423264273532 0.8124831605571098 0  0.6270060303077781 0.8124774128105595 0  0.6901357008268736 0.8124692574401876 0  0.7535113178348455 0.8124574417425573 0  0.8172595597785881 0.8124400926330638 0  0.8815815475941765 0.8124147081017159 0  0.9467839156075863 0.812378864507611 0  1.013256280251117 0.8123320099099713 0  0 0.875 0  0.06256244019567592 0.8749993835372426 0  0.1251280439253299 0.8749987310123526 0  0.1877002365285878 0.8749980025685087 0  0.2502830096466137 0.8749971500051774 0  0.3128813184023684 0.8749961105350013 0  0.3755016496250616 0.8749947973205884 0  0.4381528892172647 0.8749930841395706 0  0.500847714399658 0.8749907792385416 0  0.563604928609834 0.8749875787644128 0  0.6264535474824739 0.8749829804935243 0  0.6894402728493731 0.874976118790926 0  0.7526438355974037 0.8749654445472738 0  0.8162040306460199 0.8749481270303145 0  0.8803842463080864 0.8749191498301051 0  0.945716929442892 0.8748713873858524 0  1.013380652848912 0.8748068636787625 0  0 0.9375 0  0.06253203848582814 0.9374996823207079 0  0.1250657286079708 0.9374993455706789 0  0.1876028643950461 0.9374989685662548 0  0.2501455492713342 0.9374985254459844 0  0.3126964170511178 0.9374979820728745 0  0.3752589540711334 0.9374972904197525 0  0.4378380020868574 0.937496379
[...]
<PointData  Vectors="f_54"> 
<DataArray  type="Float64"  Name="f_54"  NumberOfComponents="3" format="ascii">0.0000000000000000e+00 0.0000000000000000e+00 0.0000000000000000e+00  0.0000000000000000e+00 0.0000000000000000e+00 0.0000000000000000e+00  0.0000000000000000e+00 0.0000000000000000e+00 0.0000000000000000e+00  0.0000000000000000e+00 0.0000000000000000e+00 0.0000000000000000e+00  0.0000000000000000e+00 0.0000000000000000e+00 0.0000000000000000e+00  0.0000000000000000e+00 0.0000000000000000e+00 0.0000000000000000e+00  0.0000000000000000e+00 0.0000000000000000e+00 0.0000000000000000e+00  0.0000000000000000e+00 0.0000000000000000e+00 0.0000000000000000e+00  0.0000000000000000e+00 0.0000000000000000e+00 0.0000000000000000e+00  0.0000000000000000e+00 0.0000000000000000e+00 0.0000000000000000e+00  0.0000000000000000e+00 0.0000000000000000e+00 0.0000000000000000e+00  0.0000000000000000e+00 0.0000000000000000e+00 0.0000000000000000e+00  0.0000000000000000e+00 0.0000000000000000e+00 0.0000000000000000e+00  0.0000000000000000e+00 0.0000000000000000e+00 0.0000000000000000e+00  0.0000000000000000e+00 0.0000000000000000e+00 0.0000000000000000e+00  0.0000000000000000e+00 0.0000000000000000e+00 0.0000000000000000e+00  0.0000000000000000e+00 0.0000000000000000e+00 0.0000000000000000e+00  0.0000000000000000e+00 0.0000000000000000e+00 0.0000000000000000e+00  4.2470392978144407e-06 -6.6021337391773647e-08 0.0000000000000000e+00  8.6169969482367705e-06 -1.3378770840009549e-07 0.0000000000000000e+00  1.3232482752656949e-05 -2.0499812541112626e-07 0.0000000000000000e+00  1.8214867163810514e-05 -2.8124151154609905e-07 0.0000000000000000e+00  2.3682478367040845e-05 -3.6390094967991321e-07 0.0000000000000000e+00  2.9747416836023592e-05 -4.5400599238049662e-07 0.0000000000000000e+00  3.6510711409413320e-05 -5.5201209251871704e-07 0.0000000000000000e+00  4.4056002422216188e-05 -6.5748680155893601e-07 0.0000000000000000e+00  5.2443144495561091e-05 -7.6869088913528760e-07 0.0000000000000000e+00  6.1706212179596452e-05 -8.8207574689129433e-07 0.0000000000000000e+00  7.1868627235974447e-05 -9.9184162653610027e-07 0.0000000000000000e+00  8.3011865189913536e-05 -1.0902052319356269e-06 0.0000000000000000e+00  9.5509370345111183e-05 -1.1712744548900895e-06 0.0000000000000000e+00  1.1079795782361120e-04 -1.2519454023662013e-06 0.0000000000000000e+00  1.3403754417690137e-04 -1.4736063962935711e-06 0.0000000000000000e+00  1.8396240509954161e-04 -2.5952088919346720e-06 0.0000000000000000e+00  0.0000000000000000e+00 0.0000000000000000e+00 0.0000000000000000e+00  8.3747047803524254e-06 -1.3035262634075611e-07 0.0000000000000000e+00  1.6996044343356082e-05 -2.6424849894995471e-07 0.0000000000000000e+00  2.6110531598420383e-05 -4.0515472026184120e-07 0.0000000000000000e+00  3.5963195304375538e-05 -5.5635125179809039e-07 0.0000000000000000e+00  4.6794416693154611e-05 -7.2075814976773665e-07 0.0000000000000000e+00  5.8833824149215219e-05 -9.0066012203206262e-07 0.0000000000000000e+00  7.2290378864677573e-05 -1.0972836843787467e-06 0.0000000000000000e+00  8.7338266100523896e-05 -1.3101777734917546e-06 0.0000000000000000e+00  1.0409948981053654e-04 -1.5363487694576621e-06 0.0000000000000000e+00  1.2262700360606506e-04 -1.7691013532833049e-06 0.0000000000000000e+00  1.4289832049928561e-04 -1.9964874842952894e-06 0.0000000000000000e+00  1.6484087450579506e-04 -2.1988809740768602e-06 0.0000000000000000e+00  1.8842532266306737e-04 -2.3430203115119712e-06 0.0000000000000000e+00  2.1384638475903039e-04 -2.3586309325168910e-06 0.0000000000000000e+00  2.4152183849555375e-04 -2.0268898530575618e-06 0.0000000000000000e+00  2.6970033027538635e-04 -4.2180299731227516e-07 0.0000000000000000e+00  0.0000000000000000e+00 0.0000000000000000e+00 0.0000000000000000e+00  1.2259226645910335e-05 -1.9119471928324091e-07 0.0000000000000000e+00  2.4889497302707730e-05 -3.8781552168246503e-07 0.0000000000000000e+00  3.8262897393131133e-05 -5.9521285315312934e-07 0.0000000000000000e+00  5.2751784934678551e-05 -8.1853736259375483e-07 0.0000000000000000e+00  6.8725271359302206e-05 -1.0625285349132563e-06 0.0000000000000000e+00  8.6541054655332042e-05 -1.3311553432318674e-06 0.0000000000000000e+00  1.0653077470619930e-04 -1.6270383329293573e-06 0.0000000000000000e+00  1.2897711078964117e-04 -1.9505701219792234e-06 0.0000000000000000e+00  1.5408133973065136e-04 -2.2986471110921786e-06 0.0000000000000000e+00  1.8192130695336543e-04 -2.6629433613528934e-06 0.0000000000000000e+00  2.1240161479869121e-04 -3.0277244205420425e-06 0.0000000000000000e+00  2.4519809592972496e-04 -3.3673914675465393e-06 0.0000000000000000e+00  2.7968753095821189e-04 -3.6446841799544942e-06 0.0000000000000000e+00  3.1479897190896534e-04 -3.8144741059439293e-06 0.0000000000000000e+00  3.4854694260399034e-04 -3.8624362274555003e-06 0.0000000000000000e+00  3.7666583709388850e-04 -4.0548599698483974e-06 0.0000000000000000e+00  0.0000000000000000e+00 0.0000000000000000e+00 0.0000000000000000e+00  1.5776175275751557e-05 -2.4666436432849750e-07 0.0000000000000000e+00  3.2047407491451145e-05 -5.0072302469857085e-07 0.0000000000000000e+00  4.9312398519911188e-05 -7.6953782011173929e-07 0.0000000000000000e+00  6.8074898594178924e-05 -1.0603491554979395e-06 0.0000000000000000e+00  8.8841541375107421e-05 -1.3800836001208440e-06 0.0000000000000000e+00  1.1211344305242976e-04 -1.7349806007074384e-06 0.0000000000000000e+00  1.3836856426817018e-04 -2.1299408460279088e-06 0.0000000000000000e+00  1.6803118020109254e-04 -2.5674704950205869e-06 0.0000000000000000e+00  2.0142421223804435e-04 -3.0460728073293074e-06 0.0000000000000000e+00  2.3869979225702147e-04 -3.5579488290249721e-06 0.0000000000000000e+00  2.7974317784742482e-04 -4.0859772924209548e-06 0.0000000000000000e+00  3.2404404542474513e-04 -4.6003037890973740e-06 0.0000000000000000e+00  3.7052427089512719e-04 -5.0558242497895382e-06 0.0000000000000000e+00  4.1729809632844070e-04 -5.3940005554800161e-06 0.0000000000000000e+00  4.6132788222145587e-04 -5.5551026611034064e-06 0.0000000000000000e+00  4.9802128652787203e-04 -5.4910381048557902e-06 0.0000000000000000e+00  0.0000000000000000e+00 0.0000000000000000e+00 0.0000000000000000e+00  1.8801567475042158e-05 -2.9479385473638875e-07 0.0000000000000000e+00  3.8219264832555972e-05 -5.9899350032727080e-07 0.0000000000000000e+00  5.8877281314099028e-05 -9.2206518049643143e-07 0.0000000000000000e+00  8.1413518828583287e-05 -1.2735402893433131e-06 0.0000000000000000e+00  1.0648123626919288e-04 -1.6629158961912326e-06 0.0000000000000000e+00  1.3474342611356828e-04 -2.0993647807064855e-06 0.0000000000000000e+00  1.6685580792081292e-04 -2.5911347298796460e-06 0.0000000000000000e+00  2.0343281091416560e-04 -3.1444620862788501e-06 0.0000000000000000e+00  2.4498906372268277e-04 -3.7617558336229151e-06 0.0000000000000000e+00  2.9184696143778134e-04 -4.4387446888646223e-06 0.0000000000000000e+00  3.4399947792727067e-04 -5.1602773099506057e-06 0.0000000000000000e+00  4.0091802793149999e-04 -5.8946507126762868e-06 0.0000000000000000e+00  4.6130143321109889e-04 -6.5869063626346246e-06 0.0000000000000000e+00  5.2278306976481087e-04 -7.1524693577313251e-06 0.0000000000000000e+00  5.8167265554711777e-04 -7.4722810206322684e-06 0.0000000000000000e+00  6.3295854755650381e-04 -7.3823303826478090e-06 0.0000000000000000e+00  0.0000000000000000e+00 0.0000000000000000e+00 0.0000000000000000e+00  2.1214427030196008e-05 -3.3357349281684332e-07 0.0000000000000000e+00  4.3158741876206405e-05 -6.7851545680875298e-07 0.0000000000000000e+00  6.6577280614329323e-05 -1.0463966727538704e-06 0.0000000000000000e+00  9.2241113801700173e-05 -1.4491492977939340e-06 0.0000000000000000e+00  1.2095655484025550e-04 -1.8991433990123785e-06 0.0000000000000000e+00  1.5356646181284456e-04 -2.4091010003145082e-06 0.0000000000000000e+00  1.9093948992246723e-04 -2.9917211078945770e-06 0.0000000000000000e+00  2.3393999734781201e-04 -3.6588045643250519e-06 0.0000000000000000e+00  2.8336791529400327e-04 -4.4195331730011144e-06 0.0000000000000000e+00  3.3985370655618274e-04 -5.2773617168354490e-06 0.0000000000000000e+00  4.0368948101169054e-04 -6.2247399651929354e-06 0.0000000000000000e+00  4.7457623461069301e-04 -7.2346965515078795e-06 0.0000000000000000e+00  5.5127588914428050e-04 -8.2484964459717963e-06 0.0000000000000000e+00  6.3118954030111894e-04 -9.1598530913473821e-06 0.0000000000000000e+00  7.0996413246564749e-04 -9.8000876284160787e-06 0.0000000000000000e+00  7.8138401961652714e-04 -9.9391890642733305e-06 0.0000000000000000e+00  0.0000000000000000e+00 0.0000000000000000e+00 0.0000000000000000e+00  2.2901171838358640e-05 -3.6104389639831481e-07 0.0000000000000000e+00  4.6632300607672418e-05 -7.3522873899197281e-07 0.0000000000000000e+00  7.2045980431794879e-05 -1.1360771818015680e-06 0.0000000000000000e+00  1.0003868833960208e-04 -1.5778577482669602e-06 0.0000000000000000e+00  1.3156943109671692e-04 -2.0759150524877841e-06 0.0000000000000000e+00  1.6767288072262154e-04 -2.6469157654509666e-06 0.0000000000000000e+00  2.0946223204900135e-04 -3.3089117967420794e-06 0.0000000000000000e+00  2.5811372121651227e-04 -4.0810225485810142e-06 0.0000000000000000e+00  3.1481964015244102e-04 -4.9823485014184667e-06 0.0000000000000000e+00  3.8068928574650878e-04 -6.0293822734863441e-06 0.0000000000000000e+00  4.5656769517953943e-04 -7.2305948509609119e-06 0.0000000000000000e+00  5.4273229978751836e-04 -8.5759998818891013e-06 0.0000000000000000e+00  6.3842471145064792e-04 -1.0018557636329651e-05 0.0000000000000000e+00  7.4119559815238835e-04 -1.1444346609343773e-05 0.0000000000000000e+00  8.4611789250762528e-04 -1.2632605447508440e-05 0.0000000000000000e+00  9.4510661919654162e-04 -1.3221304953497785e-05 0.0000000000000000e+00  0.0000000000000000e+00 0.0000000000000000e+00 0.0000000000000000e+00  2.3761990079622042e-05 -3.7543733273588411e-07 0.0000000000000000e+00  4.8432118945371191e-05 -7.6541857122528709e-07 0.0000000000000000e+00  7.4950525586702245e-05 -1.1850629078689041e-06 0.0000000000000000e+00  1.0432129883028912e-04 -1.6506593929552838e-06 0.0000000000000000e+00  1.3764411562790645e-04 -2.1803006345920596e-06 0.0000000000000000e+00  1.7614408935272678e-04 -2.7945618790349954e-06 0.0000000000000000e+00  2.2119641717279146e-04 -3.5172040221676015e-06 0.0000000000000000e+00  2.7433879426267749e-04 -4.3758054455137558e-06 0.0000000000000000e+00  3.3725820362576447e-04 -5.4020485351130650e-06 0.0000000000000000e+00  4.1172793002796249e-04 -6.6309734906071057e-06 0.0000000000000000e+00  4.9945336074715943e-04 -8.0976127137025139e-06 0.0000000000000000e+00  6.0175963548955887e-04 -9.8276131048297084e-06 0.0000000000000000e+00  7.1902231293971108e-04 -1.1815267401979785e-05 0.0000000000000000e+00  8.4971724988787520e-04 -1.3978062068435206e-05 0.0000000000000000e+00  9.8898991236646126e-04 -1.6075033357110562e-05 0.0000000000000000e+00  1.1268197884197601e-03 -1.7590120415509621e-05 0.0000000000000000e+00  0.0000000000000000e+00 0.0000000000000000e+00 0.0000000000000000e+00  2.3719027081736384e-05 -3.7535665759369375e-07 0.0000000000000000e+00  4.8393095008231299e-05 -7.6609683035402218e-07 0.0000000000000000e+00  7.5018654804235579e-05 -1.1883537351157228e-06 0.0000000000000000e+00  1.0467675150691917e-04 -1.6598202968301593e-06 0.0000000000000000e+00  1.3857921255560398e-04 -2.2006821057818006e-06 0.0000000000000000e+00  1.7811879657165044e-04 -2.8347554774788511e-06 0.0000000000000000e+00  2.2492289332348006e-04 -3.5909321782486146e-06 0.0000000000000000e+00  2.8090752201723906e-04 -4.5050455433679119e-06 0.0000000000000000e+00  3.4832241739355334e-04 -5.6222335796152747e-06 0.0000000000000000e+00  4.2976596841289260e-04 -6.9996458901503332e-06 0.0000000000000000e+00  5.2812538690697798e-04 -8.7085472333371550e-06 0.0000000000000000e+00  6.4635403348495171e-04 -1.0832583918948235e-05 0.0000000000000000e+00  7.8692244974988567e-04 -1.3453201447267318e-05 0.0000000000000000e+00  9.5066359465710516e-04 -1.6600580908545649e-05 0.0000000000000000e+00  1.1345949194687755e-03 -2.0126829078840252e-05 0.0000000000000000e+00  1.3282542948017306e-03 -2.3441493363951704e-05 0.0000000000000000e+00  0.0000000000000000e+00 0.0000000000000000e+00 0.0000000000000000e+00  2.2725750523375273e-05 -3.5996850692730440e-07 0.0000000000000000e+00  4.6412714653984478e-05 -7.3542188310978633e-07 0.0000000000000000e+00  7.2071412185982525e-05 -1.1427132350343666e-06 0.0000000000000000e+00  1.0081479663076323e-04 -1.6000264817086192e-06 0.0000000000000000e+00  1.3391829517848752e-04 -2.1285316774008559e-06 0.0000000000000000e+00  1.7289093233878539e-04 -2.7538872313759301e-06 0.0000000000000000e+00  2.1956171844481680e-04 -3.5083229800123966e-06 0.0000000000000000e+00  2.7618500493559037e-04 -4.4336847496922055e-06 0.0000000000000000e+00  3.4556593765179832e-04 -5.5860622303191173e-06 0.0000000000000000e+00  4.3119920588247990e-04 -7.0429591187964188e-06 0.0000000000000000e+00  5.3739359259194887e-04 -8.9142136170811804e-06 0.0000000000000000e+00  6.6930531700239268e-04 -1.1357122798211098e-05 0.0000000000000000e+00  8.3269215210286351e-04 -1.4591172200991540e-05 0.0000000000000000e+00  1.0329689439407788e-03 -1.8888541611360252e-05 0.0000000000000000e+00  1.2727118166152857e-03 -2.4458410939779460e-05 0.0000000000000000e+00  1.5460828061379869e-03 -3.0998056442674594e-05 0.0000000000000000e+00  0.0000000000000000e+00 0.0000000000000000e+00 0.0000000000000000e+00  2.0776358886112999e-05 -3.2917741980825074e-07 0.0000000000000000e+00  4.2471443933128079e-05 -6.7308373112369129e-07 0.0000000000000000e+00  6.6057899622993797e-05 -1.0473491924277487e-06 0.0000000000000000e+00  9.2621873381916749e-05 -1.4695166659994223e-06 0.0000000000000000e+00  1.2343319376224466e-04 -1.9602739783707369e-06 0.0000000000000000e+00  1.6003367508698113e-04 -2.5450960031008418e-06 0.0000000000000000e+00  2.0435309714779385e-04 -3.2566029932321442e-06 0.0000000000000000e+00  2.5886575150319398e-04 -4.1381950312862284e-06 0.0000000000000000e+00  3.2680463497391615e-04 -5.2500506119973182e-06 0.0000000000000000e+00  4.1245413197478351e-04 -6.6796813634088628e-06 0.0000000000000000e+00  5.2154058000911596e-04 -8.5614813206375652e-06 0.0000000000000000e+00  6.6171843225463437e-04 -1.1113884333718054e-05 0.0000000000000000e+00  8.4306464941158411e-04 -1.4708618377701142e-05 0.0000000000000000e+00  1.0782312302922421e-03 -1.9986248370053041e-05 0.0000000000000000e+00  1.3811963176888721e-03 -2.7985300484614865e-05 0.0000000000000000e+00  1.7618679473660826e-03 -4.0019726005854851e-05 0.0000000000000000e+00  0.0000000000000000e+00 0.0000000000000000e+00 0.0000000000000000e+00  1.7913664216318160e-05 -2.8374417748311449e-07 0.0000000000000000e+00  3.6650281107163612e-05 -5.8057045408082629e-07 0.0000000000000000e+00  5.7086449643015301e-05 -9.0439836097930355e-07 0.0000000000000000e+00  8.0212861808645806e-05 -1.2709236133491268e-06 0.0000000000000000e+00  1.0720774427913785e-04 -1.6987509963231609e-06 0.0000000000000000e+00  1.3953334653050696e-04 -2.2108825361850649e-06 0.0000000000000000e+00  1.7906954275316147e-04 -2.8368159392043624e-06 0.0000000000000000e+00  2.2830607609744381e-04 -3.6157317039011392e-06 0.0000000000000000e+00  2.9062744018075042e-04 -4.6017798595816554e-06 0.0000000000000000e+00  3.7074511234010349e-04 -5.8738249518799249e-06 0.0000000000000000e+00  4.7536575593313992e-04 -7.5555661695545877e-06 0.0000000000000000e+00  6.1423630139381864e-04 -9.8615327106932920e-06 0.0000000000000000e+00  8.0177193293113908e-04 -1.3209966856265121e-05 0.0000000000000000e+00  1.0594835092881366e-03 -1.8506827979962453e-05 0.0000000000000000e+00  1.4190680504975529e-03 -2.7828395154681439e-05 0.0000000000000000e+00  1.9243718961796837e-03 -4.5775102345502652e-05 0.0000000000000000e+00  0.0000000000000000e+00 0.0000000000000000e+00 0.0000000000000000e+00  1.4233673142341314e-05 -2.2531875982164256e-07 0.0000000000000000e+00  2.9141533455356505e-05 -4.6124603583766793e-07 0.0000000000000000e+00  4.5445283556005407e-05 -7.1907768910819013e-07 0.0000000000000000e+00  6.3968450450189391e-05 -1.0115580319319930e-06 0.0000000000000000e+00  8.5703864694824331e-05 -1.3537663028481419e-06 0.0000000000000000e+00  1.1190501476530826e-04 -1.7642109051818669e-06 0.0000000000000000e+00  1.4421708281442820e-04 -2.2662195864141742e-06 0.0000000000000000e+00  1.8487337522738622e-04 -2.8897336733832321e-06 0.0000000000000000e+00  2.3700092320835098e-04 -3.6736787985992360e-06 0.0000000000000000e+00  3.0511298231592995e-04 -4.6693764705605335e-06 0.0000000000000000e+00  3.9593284112717577e-04 -5.9467950957387610e-06 0.0000000000000000e+00  5.1983131517503213e-04 -7.6112955037548078e-06 0.0000000000000000e+00  6.9346063325290933e-04 -9.8637778604182878e-06 0.0000000000000000e+00  9.4483522043664560e-04 -1.3246697873366649e-05 0.0000000000000000e+00  1.3234528931684081e-03 -1.9699786901443636e-05 0.0000000000000000e+00  1.9192595003237826e-03 -3.7085580111649108e-05 0.0000000000000000e+00  0.0000000000000000e+00 0.0000000000000000e+00 0.0000000000000000e+00  9.8852630804218842e-06 -1.5637609223964464e-07 0.0000000000000000e+00  2.0249152284549675e-05 -3.2021115141796213e-07 0.0000000000000000e+00  3.1605857410999499e-05 -4.9944300949904141e-07 0.0000000000000000e+00  4.4546168713860723e-05 -7.0300815945401012e-07 0.0000000000000000e+00  5.9789210899646000e-05 -9.4141394599106029e-07 0.0000000000000000e+00  7.8253809885149122e-05 -1.2273658186668347e-06 0.0000000000000000e+00  1.0116304217513539e-04 -1.5763706210751374e-06 0.0000000000000000e+00  1.3020461617611336e-04 -2.0070282492102644e-06 0.0000000000000000e+00  1.6778677804485189e-04 -2.5401710779529759e-06 0.0000000000000000e+00  2.1746254012053421e-04 -3.1945499583063094e-06 0.0000000000000000e+00  2.8466300782050552e-04 -3.9728535041817652e-06 0.0000000000000000e+00  3.7803192459195636e-04 -4.8210542901113030e-06 0.0000000000000000e+00  5.1203282915200741e-04 -5.5128740605365171e-06 0.0000000000000000e+00  7.1262468159807044e-04 -5.3147885046438960e-06 0.0000000000000000e+00  1.0319596180146683e-03 -1.9636439558714152e-06 0.0000000000000000e+00  1.5981617911466426e-03 1.1671225524783245e-05 0.0000000000000000e+00  0.0000000000000000e+00 0.0000000000000000e+00 0.0000000000000000e+00  5.0639800199657977e-06 -8.0065284718814308e-08 0.0000000000000000e+00  1.0376288671076623e-05 -1.6397395704972821e-07 0.0000000000000000e+00  1.6204249247017827e-05 -2.5581208901591857e-07 0.0000000000000000e+00  2.2856207245365105e-05 -3.6016676262495693e-07 0.0000000000000000e+00  3.0709502236645427e-05 -4.8239429330558585e-07 0.0000000000000000e+00  4.0249401807316329e-05 -6.2887291903169687e-07 0.0000000000000000e+00  5.2126663148863102e-05 -8.0712968169908272e-07 0.0000000000000000e+00  6.7246580650223500e-05 -1.0255084225159540e-06 0.0000000000000000e+00  8.6911965773360259e-05 -1.2914386832560664e-06 0.0000000000000000e+00  1.1306047167776430e-04 -1.6056784867151679e-06 0.0000000000000000e+00  1.4867077875336566e-04 -1.9450666038347132e-06 0.0000000000000000e+00  1.9847670944228503e-04 -2.2118307219515315e-06 0.0000000000000000e+00  2.7024426541179860e-04 -2.0814889187381347e-06 0.0000000000000000e+00  3.7702680130463151e-04 -5.2264349595593947e-07 0.0000000000000000e+00  5.4066500681415142e-04 5.8618088887934975e-06 0.0000000000000000e+00  7.9269328063267348e-04 2.9581141971925895e-05 0.0000000000000000e+00  0.0000000000000000e+00 0.0000000000000000e+00 0.0000000000000000e+00  0.0000000000000000e+00 0.0000000000000000e+00 0.0000000000000000e+00  0.0000000000000000e+00 0.0000000000000000e+00 0.0000000000000000e+00  0.0000000000000000e+00 0.0000000000000000e+00 0.0000000000000000e+00  0.0000000000000000e+00 0.0000000000000000e+00 0.0000000000000000e+00  0.0000000000000000e+00 0.0000000000000000e+00 0.0000000000000000e+00  0.0000000000000000e+00 0.0000000000000000e+00 0.0000000000000000e+00  0.0000000000000000e+00 0.0000000000000000e+00 0.0000000000000000e+00  0.0000000000000000e+00 0.0000000000000000e+00 0.0000000