<?xml version="1.0"?>
<VTKFile type="UnstructuredGrid"  version="0.1"  >
<UnstructuredGrid>
<Piece  NumberOfPoints="289" NumberOfCells="512">
<Points>
<DataArray  type="Float64"  NumberOfComponents="3"  format="ascii">0 0 0  0.0625 0 0  0.125 0 0  0.1875 0 0  0.25 0 0  0.3125 0 0  0.375 0 0  0.4375 0 0  0.5 0 0  0.5625 0 0  0.625 0 0  0.6875 0 0  0.75 0 0  0.8125 0 0  0.875 0 0  0.9375 0 0  1 0 0  0 0.0625 0  0.06254847716388556 0.06248228058391848 0  0.1250991153766839 0.06246422849194389 0  0.1876542059941483 0.0624455334999608 0  0.2502162955330251 0.06242594374864983 0  0.3127883416795198 0.06240530316629989 0  0.3753739099829225 0.06238359750143706 0  0.4379774426587031 0.06236100828330259 0  0.5006046619425227 0.06233796871282287 0  0.5632632459858103 0.06231520520173292 0  0.6259641081665286 0.06229372855833329 0  0.6887241302076276 0.06227469897033126 0  0.7515726835615072 0.06225899630981026 0  0.8145687812427944 0.0622460623315653 0  0.8778502621047792 0.06223066106050112 0  0.9417867202564544 0.06219258327472901 0  1.007502039609399 0.06205930991083621 0  0 0.125 0  0.06259478926841293 0.1249648795750515 0  0.1251937964910565 0.1249290642841273 0  0.1878014948687708 0.1248919009896881 0  0.2504228598919094 0.1248528466491915 0  0.3130636756170967 0.1248115414050822 0  0.375730916983062 0.124767901759744 0  0.4384332591940838 0.1247222352841814 0  0.5011818050252113 0.1246753699206546 0  0.5639912078336715 0.1246287746778575 0  0.6268815596816505 0.124584619501093 0  0.6898818307740869 0.1245456755789888 0  0.7530364994200255 0.1245148994920253 0  0.8164184510503778 0.124494549243099 0  0.8801519944764256 0.1244851688003465 0  0.9444397295207143 0.12448785519555 0  1.009509779482177 0.1245286917269404 0  0 0.1875 0  0.06263689107041283 0.187448164386754 0  0.1252798344802985 0.1873952181379352 0  0.1879352461536253 0.1873401048388096 0  0.250610261941095 0.1872819152883883 0  0.3133131737932361 0.187219991084472 0  0.3760539660280303 0.1871540640424645 0  0.4388450055440271 0.1870844396686711 0  0.5017019638670928 0.1870122249453438 0  0.5646450883276084 0.186939583315689 0  0.6277009958647847 0.1868699659250374 0  0.6909052048579604 0.1868082075526544 0  0.7543054712480198 0.1867602723332158 0  0.8179649555005102 0.1867322485927874 0  0.8819600582989687 0.1867277356345968 0  0.9463547581031343 0.1867409702710819 0  1.011104879212816 0.1867341179919219 0  0 0.25 0  0.06267296835236438 0.2499325553094279 0  0.1253534961908187 0.2498635141953383 0  0.1880495890927617 0.2497913359305253 0  0.2507701436528207 0.2497146397061547 0  0.3135254854182685 0.2496323277130442 0  0.3763280239192535 0.249543763310352 0  0.4391930749915657 0.2494490244782847 0  0.5021399029965861 0.2493492498830989 0  0.5651930201733555 0.2492470835285714 0  0.6283837095242548 0.2491471951993868 0  0.6917515125685746 0.2490567926489409 0  0.755344799654728 0.248985923463674 0  0.8192179787034508 0.2489471529769575 0  0.8834194888999924 0.2489538625276796 0  0.9479591307988112 0.2490160794211258 0  1.012740997571949 0.249134095045466 0  0 0.3125 0  0.06270153470747651 0.3124185412262023 0  0.1254117261136508 0.3123349261179963 0  0.1881397266138801 0.3122470400264308 0  0.2508956907363429 0.3121529056103924 0  0.3136913825721497 0.3120508062160872 0  0.3765409180567339 0.3119394835519991 0  0.4394616963650999 0.3118184457671456 0  0.5024755689435019 0.3116884295306114 0  0.565610257332521 0.3115520634625408 0  0.6289009142993125 0.311414771095222 0  0.6923914303487804 0.3112859108532289 0  0.7561344496515385 0.3111800448030325 0  0.8201878616461081 0.3111180074347853 0  0.8846038093202907 0.3111270702099869 0  0.9494053778379643 0.3112390457365978 0  1.014551329877417 0.3114850207367523 0  0 0.375 0  0.0627215056962845 0.3749066829542093 0  0.1254523014247901 0.3748105887010079 0  0.188202184232396 0.3747089485153622 0  0.2509819923393621 0.3745990633020885 0  0.3138042438487247 0.3744783988010438 0  0.376683931580883 0.3743447678983622 0  0.4396395475858359 0.3741966523575725 0  0.5026944200426606 0.374033738643454 0  0.565878433459275 0.3738577709374301 0  0.6292301322396702 0.3736738530948867 0  0.6927990053736143 0.3734923414233557 0  0.7566473086266604 0.3733314155308748 0  0.82085002502247 0.3732202015874718 0  0.8854907271148432 0.373201805965464 0  0.9506513957874365 0.3733346732133161 0  1.016398625257809 0.3736894050181822 0  0 0.4375 0  0.06273224617330475 0.4373975994329088 0  0.1254739322112264 0.4372917743224497 0  0.1882349744976666 0.4371790547891224 0  0.2510262865498967 0.4370559228652315 0  0.3138604003346442 0.4369188433988735 0  0.3767522612658155 0.4367643802740891 0  0.4397203009454121 0.4365894606079512 0  0.5027879376647277 0.4363918882619734 0  0.5659857139041315 0.4361712678566618 0  0.6293543388621746 0.4359305861170357 0  0.6929489209870294 0.4356788021538922 0  0.756844562833367 0.4354348778268937 0  0.8211431254529271 0.435233594424993 0  0.8859803467470735 0.4351329365858319 0  0.9515322525973109 0.435221299128721 0  1.01802219370465 0.4356201303497685 0  0 0.5 0  0.06273358733716748 0.4998919328991301 0  0.1254762997464612 0.4997798248686064 0  0.1882376664257121 0.4996595177623726 0  0.251028080600864 0.4995266416891028 0  0.3138593425735247 0.499376543291571 0  0.3767453738354175 0.4992042751769683 0  0.4397032324571722 0.4990047057986423 0  0.5027546533675282 0.498772859269426 0  0.56592849800954 0.4985046833679899 0  0.6292647589820098 0.4981985959712159 0  0.692821148517921 0.4978584051458837 0  0.756683759403376 0.4974985446951608 0  0.8209835894638293 0.4971529028520746 0  0.8859203310427829 0.4968883476164337 0  0.9517933399359031 0.4968220465448446 0  1.019039449987701 0.49713584372668 0  0 0.5625 0  0.06272581048414547 0.5623902916989929 0  0.1254600251149907 0.5622760346071366 0  0.188211343875045 0.5621524805753214 0  0.2509891150219396 0.5620144768474573 0  0.3138037330776994 0.5618562607362918 0  0.3766671660228744 0.5616712651974171 0  0.4395937404188738 0.5614519705385452 0  0.5026014427186914 0.5611898854360192 0  0.5657142540681277 0.5608758380850094 0  0.6289665348175325 0.5605009550819868 0  0.6924113798427685 0.5600590948379867 0  0.7561363419222118 0.5595522390396348 0  0.8202918558178379 0.5590015914159954 0  0.8851389499180219 0.558468620736242 0  0.9511203881183387 0.5580897097871529 0  1.018951621216575 0.5581185830851383 0  0 0.625 0  0.06270959605623649 0.6248931736408351 0  0.1254265626689035 0.6247814884452182 0  0.1881584363767701 0.6246598069555942 0  0.2509131296885408 0.6245223953220176 0  0.3136991279071962 0.624362572914188 0  0.3765257236802073 0.624172300962742 0  0.4394033670623897 0.623941699048765 0  0.5023443327302382 0.6236585024400353 0  0.5653641985377006 0.6233075387443303 0  0.6284852960017456 0.6228704700644712 0  0.6917447460730785 0.6223264672130457 0  0.7552126601248987 0.6216555234294556 0  0.8190314661272907 0.6208486137690811 0  0.8834946991361283 0.6199342817117799 0  0.9491859350983206 0.619038738849305 0  1.017180024589856 0.6184878592785796 0  0 0.6875 0  0.0626859406507935 0.687400878317171 0  0.1253780213504896 0.6872968723232171 0  0.1880824191431096 0.6871827594667239 0  0.2508054057455392 0.6870525703712962 0  0.313553321390694 0.686899112589343 0  0.3763324561713914 0.6867133549730674 0  0.4391488109958512 0.686483601204214 0  0.5020077604984134 0.6861943607910475 0  0.5649138268402958 0.685824810347616 0  0.6278713478329532 0.6853467608627261 0  0.6908884376386982 0.6847222282803594 0  0.753990893879989 0.6839014712018675 0  0.8172631340359454 0.6828252217298241 0  0.8809555225789428 0.6814449862652165 0  0.9457271408368656 0.6798071571118888 0  1.013060316076447 0.6782875478395105 0  0 0.75 0  0.06265605128613146 0.7499134223813699 0  0.1253169325632525 0.7498222855589417 0  0.1879874088744047 0.7497216688604994 0  0.2506721101108877 0.7496058373218376 0  0.3133753147821041 0.7494676942645433 0  0.3761005106079658 0.7492980329997351 0  0.4388495706349773 0.7490844616586999 0  0.5016212970930027 0.7488098056156991 0  0.5644089962051283 0.7484496742799676 0  0.6271967985095789 0.7479686790842021 0  0.6899552010298596 0.7473144577091495 0  0.7526397922561184 0.746408201775007 0  0.8152099910512076 0.7451304393744882 0  0.8777276532560669 0.7433064579711982 0  0.9407208516461272 0.7407417958468493 0  1.006023101175183 0.7376844823081724 0  0 0.8125 0  0.06262123369494331 0.8124304754933686 0  0.125246002185731 0.8123570944925349 0  0.1878777220601928 0.8122756641157411 0  0.2505195501168736 0.81218122350319 0  0.3131740673534105 0.8120675091690792 0  0.3758426643770908 0.8119261985558066 0  0.4385243664822644 0.8117457804748001 0  0.5012136104978879 0.8115098033326446 0  0.5638960538214193 0.8111940725301173 0  0.6265407049824723 0.8107620209846997 0  0.6890853831222233 0.8101567427841804 0  0.7514112717519341 0.8092864483525822 0  0.8133057495519069 0.8079956043351475 0  0.8744466599933703 0.8060020854183955 0  0.9346503706130332 0.8027541990735561 0  0.9961679518853779 0.7971905992407966 0  0 0.875 0  0.0625827963980604 0.8749513345887902 0  0.1251678980885334 0.8748998679442347 0  0.1877574953975416 0.8748425385329128 0  0.2503535222230515 0.8747756854368769 0  0.3129573622002133 0.8746946217605249 0  0.37556927966675 0.8745930186327179 0  0.4381873105648632 0.8744619661972683 0  0.5008050767989018 0.874288489505498 0  0.5634073906218009 0.8740531398712871 0  0.6259611630114857 0.873725997221607 0  0.68839598307431 0.8732598647199702 0  0.7505613170297526 0.8725781314709272 0  0.8121300554771225 0.8715505434975503 0  0.8723813390985828 0.869932146626914 0  0.9297383699686644 0.8671566599309857 0  0.9809863436838062 0.8614757465604675 0  0 0.9375 0  0.06254199103873745 0.9374749490829402 0  0.1250851230096348 0.9374484244974114 0  0.1876304703819636 0.937418810692521 0  0.2501789590896094 0.9373841638411472 0  0.3127311995283983 0.9373419753648496 0  0.3752871632323833 0.9372888268487171 0  0.437845546689809 0.9372198590412503 0  0.5004
[...]
<PointData  Vectors="f_54"> 
<DataArray  type="Float64"  Name="f_54"  NumberOfComponents="3" format="ascii">0.0000000000000000e+00 0.0000000000000000e+00 0.0000000000000000e+00  0.0000000000000000e+00 0.0000000000000000e+00 0.0000000000000000e+00  0.0000000000000000e+00 0.0000000000000000e+00 0.0000000000000000e+00  0.0000000000000000e+00 0.0000000000000000e+00 0.0000000000000000e+00  0.0000000000000000e+00 0.0000000000000000e+00 0.0000000000000000e+00  0.0000000000000000e+00 0.0000000000000000e+00 0.0000000000000000e+00  0.0000000000000000e+00 0.0000000000000000e+00 0.0000000000000000e+00  0.0000000000000000e+00 0.0000000000000000e+00 0.0000000000000000e+00  0.0000000000000000e+00 0.0000000000000000e+00 0.0000000000000000e+00  0.0000000000000000e+00 0.0000000000000000e+00 0.0000000000000000e+00  0.0000000000000000e+00 0.0000000000000000e+00 0.0000000000000000e+00  0.0000000000000000e+00 0.0000000000000000e+00 0.0000000000000000e+00  0.0000000000000000e+00 0.0000000000000000e+00 0.0000000000000000e+00  0.0000000000000000e+00 0.0000000000000000e+00 0.0000000000000000e+00  0.0000000000000000e+00 0.0000000000000000e+00 0.0000000000000000e+00  0.0000000000000000e+00 0.0000000000000000e+00 0.0000000000000000e+00  0.0000000000000000e+00 0.0000000000000000e+00 0.0000000000000000e+00  0.0000000000000000e+00 0.0000000000000000e+00 0.0000000000000000e+00  -4.3682207720831459e-06 -1.8301462176152053e-07 0.0000000000000000e+00  -8.8528068036590539e-06 -3.6608745652359538e-07 0.0000000000000000e+00  -1.3570709340308573e-05 -5.4859759985983807e-07 0.0000000000000000e+00  -1.8634546078334208e-05 -7.2828831229651588e-07 0.0000000000000000e+00  -2.4148800363216586e-05 -9.0028875056617264e-07 0.0000000000000000e+00  -3.0203811533718645e-05 -1.0559782707714656e-06 0.0000000000000000e+00  -3.6866687862376470e-05 -1.1817210934251034e-06 0.0000000000000000e+00  -4.4168245347280593e-05 -1.2575956945882884e-06 0.0000000000000000e+00  -5.2085229166246845e-05 -1.2563767322216986e-06 0.0000000000000000e+00  -6.0517802965532901e-05 -1.1431277846287145e-06 0.0000000000000000e+00  -6.9264901523627648e-05 -8.7551193770540122e-07 0.0000000000000000e+00  -7.8009233220300973e-05 -4.0311468456554427e-07 0.0000000000000000e+00  -8.6357266087459060e-05 3.4381915592259794e-07 0.0000000000000000e+00  -9.4108477504585650e-05 1.5174953616137191e-06 0.0000000000000000e+00  -1.0246692143852366e-04 3.6411951111918332e-06 0.0000000000000000e+00  -1.1964354844557645e-04 8.9618756480001519e-06 0.0000000000000000e+00  0.0000000000000000e+00 0.0000000000000000e+00 0.0000000000000000e+00  -8.6244480652870816e-06 -3.6614433288165284e-07 0.0000000000000000e+00  -1.7484462508524424e-05 -7.3320085187516317e-07 0.0000000000000000e+00  -2.6817304392007864e-05 -1.1007829299431686e-06 0.0000000000000000e+00  -3.6853156398057964e-05 -1.4653436259862605e-06 0.0000000000000000e+00  -4.7808393389531772e-05 -1.8182321853708729e-06 0.0000000000000000e+00  -5.9874484135257176e-05 -2.1433662842161007e-06 0.0000000000000000e+00  -7.3200699665090354e-05 -2.4145292617902259e-06 0.0000000000000000e+00  -8.7868571233650652e-05 -2.5924958552712403e-06 0.0000000000000000e+00  -1.0385587708307323e-04 -2.6225281987757165e-06 0.0000000000000000e+00  -1.2098792398031211e-04 -2.4333145490578390e-06 0.0000000000000000e+00  -1.3887399324340996e-04 -1.9391749221141151e-06 0.0000000000000000e+00  -1.5682612256871960e-04 -1.0484344722240420e-06 0.0000000000000000e+00  -1.7374977771330780e-04 3.1657807393469704e-07 0.0000000000000000e+00  -1.8794712718552361e-04 2.1701271853688761e-06 0.0000000000000000e+00  -1.9649870199162981e-04 4.2950278092718569e-06 0.0000000000000000e+00  -1.9236023930988358e-04 5.4524744375699645e-06 0.0000000000000000e+00  0.0000000000000000e+00 0.0000000000000000e+00 0.0000000000000000e+00  -1.2647055291293646e-05 -5.4841403597554362e-07 0.0000000000000000e+00  -2.5652893428400832e-05 -1.1001115841359951e-06 0.0000000000000000e+00  -3.9380023776173785e-05 -1.6565952918518597e-06 0.0000000000000000e+00  -5.4184082505950763e-05 -2.2149570783966786e-06 0.0000000000000000e+00  -7.0405853246441764e-05 -2.7650430437497620e-06 0.0000000000000000e+00  -8.8356957964378632e-05 -3.2858920451669362e-06 0.0000000000000000e+00  -1.0829639205711271e-04 -3.7413364326693374e-06 0.0000000000000000e+00  -1.3039450611465343e-04 -4.0748925584349447e-06 0.0000000000000000e+00  -1.5468034085742611e-04 -4.2045667751778344e-06 0.0000000000000000e+00  -1.8096719593269401e-04 -4.0191622541424761e-06 0.0000000000000000e+00  -2.0874908247636926e-04 -3.3794353744819046e-06 0.0000000000000000e+00  -2.3705433743728913e-04 -2.1306655216590335e-06 0.0000000000000000e+00  -2.6422342865836126e-04 -1.3929463384611277e-07 0.0000000000000000e+00  -2.8752305595037186e-04 2.6217572992331634e-06 0.0000000000000000e+00  -3.0237536567005589e-04 5.8958398102963240e-06 0.0000000000000000e+00  -3.0081157940395901e-04 8.8591970080753292e-06 0.0000000000000000e+00  0.0000000000000000e+00 0.0000000000000000e+00 0.0000000000000000e+00  -1.6310874799703496e-05 -7.2733432245056435e-07 0.0000000000000000e+00  -3.3107498490414671e-05 -1.4624159055296638e-06 0.0000000000000000e+00  -5.0882635223856885e-05 -2.2109627655325072e-06 0.0000000000000000e+00  -7.0126527020686300e-05 -2.9735231593498803e-06 0.0000000000000000e+00  -9.1320114932259957e-05 -3.7419424583967703e-06 0.0000000000000000e+00  -1.1492039772929506e-04 -4.4946415495469901e-06 0.0000000000000000e+00  -1.4133415344183239e-04 -5.1903258704033631e-06 0.0000000000000000e+00  -1.7087527616762771e-04 -5.7599011932417187e-06 0.0000000000000000e+00  -2.0369979520721865e-04 -6.0968293672487246e-06 0.0000000000000000e+00  -2.3971113272478037e-04 -6.0472356179233568e-06 0.0000000000000000e+00  -2.7842581188446092e-04 -5.4033471943586967e-06 0.0000000000000000e+00  -3.1878522773916756e-04 -3.9082329461181111e-06 0.0000000000000000e+00  -3.5888965132270246e-04 -1.2876319674166612e-06 0.0000000000000000e+00  -3.9561625234712036e-04 2.6631276196049224e-06 0.0000000000000000e+00  -4.2408909218765979e-04 7.8957553534678197e-06 0.0000000000000000e+00  -4.3713535143774507e-04 1.3791840869194827e-05 0.0000000000000000e+00  0.0000000000000000e+00 0.0000000000000000e+00 0.0000000000000000e+00  -1.9487776030258274e-05 -8.9834409610126535e-07 0.0000000000000000e+00  -3.9589733349069862e-05 -1.8113147142521367e-06 0.0000000000000000e+00  -6.0931832229441343e-05 -2.7516017646501508e-06 0.0000000000000000e+00  -8.4146889426096105e-05 -3.7267216770681578e-06 0.0000000000000000e+00  -1.0987210739191728e-04 -4.7351716617609731e-06 0.0000000000000000e+00  -1.3873792846088196e-04 -5.7608830921398725e-06 0.0000000000000000e+00  -1.7134364785154993e-04 -6.7651783651775392e-06 0.0000000000000000e+00  -2.0821376222743295e-04 -7.6753301411041944e-06 0.0000000000000000e+00  -2.4972731463978703e-04 -8.3689111116356887e-06 0.0000000000000000e+00  -2.9601072271672596e-04 -8.6537716936443953e-06 0.0000000000000000e+00  -3.4678311053125454e-04 -8.2454433469577971e-06 0.0000000000000000e+00  -4.0114270640475549e-04 -6.7484079302373634e-06 0.0000000000000000e+00  -4.5728535356890054e-04 -3.6570675506167674e-06 0.0000000000000000e+00  -5.1215858509975171e-04 1.5916767641272118e-06 0.0000000000000000e+00  -5.6110036264665590e-04 9.4612947708761004e-06 0.0000000000000000e+00  -5.9764547248413098e-04 1.9987812450865322e-05 0.0000000000000000e+00  0.0000000000000000e+00 0.0000000000000000e+00 0.0000000000000000e+00  -2.2049215673533186e-05 -1.0545102140530239e-06 0.0000000000000000e+00  -4.4837803124027261e-05 -2.1328926509920723e-06 0.0000000000000000e+00  -6.9123196546476816e-05 -3.2576128671519130e-06 0.0000000000000000e+00  -9.5684471615492197e-05 -4.4469762738533456e-06 0.0000000000000000e+00  -1.2532773016289990e-04 -5.7115979673457898e-06 0.0000000000000000e+00  -1.5888306988429666e-04 -7.0487707137673798e-06 0.0000000000000000e+00  -1.9718807078117936e-04 -8.4334633543431691e-06 0.0000000000000000e+00  -2.4105063295115894e-04 -9.8041372414449809e-06 0.0000000000000000e+00  -2.9118143938554992e-04 -1.1040904879914252e-05 0.0000000000000000e+00  -3.4808375618946918e-04 -1.1933015558239531e-05 0.0000000000000000e+00  -4.1188691503004401e-04 -1.2132984528748029e-05 0.0000000000000000e+00  -4.8211216753180970e-04 -1.1097713514885194e-05 0.0000000000000000e+00  -5.5737023875857320e-04 -8.0263419295888595e-06 0.0000000000000000e+00  -6.3501582560702248e-04 -1.8257405701818804e-06 0.0000000000000000e+00  -7.1083282270442379e-04 8.8293096467114627e-06 0.0000000000000000e+00  -7.7889096275505392e-04 2.5233973962328658e-05 0.0000000000000000e+00  0.0000000000000000e+00 0.0000000000000000e+00 0.0000000000000000e+00  -2.3871109785984173e-05 -1.1865998789581287e-06 0.0000000000000000e+00  -4.8596257009855110e-05 -2.4081523385419797e-06 0.0000000000000000e+00  -7.5055151084686027e-05 -3.6992179998945780e-06 0.0000000000000000e+00  -1.0416899022916999e-04 -5.0923945109919403e-06 0.0000000000000000e+00  -1.3691734054693103e-04 -6.6159556178882649e-06 0.0000000000000000e+00  -1.7434834216906362e-04 -8.2893323429585069e-06 0.0000000000000000e+00  -2.1757719015043516e-04 -1.0114826715443153e-05 0.0000000000000000e+00  -2.6776493779391455e-04 -1.2062892166574690e-05 0.0000000000000000e+00  -3.2606574149456681e-04 -1.4046612800126473e-05 0.0000000000000000e+00  -3.9352612265196074e-04 -1.5878482191951548e-05 0.0000000000000000e+00  -4.7091632155662751e-04 -1.7199400946898874e-05 0.0000000000000000e+00  -5.5847558179993029e-04 -1.7367499806584563e-05 0.0000000000000000e+00  -6.5556839297797734e-04 -1.5297957761622252e-05 0.0000000000000000e+00  -7.6028778203635777e-04 -9.2657561218585033e-06 0.0000000000000000e+00  -8.6910414584739904e-04 3.2633316323059561e-06 0.0000000000000000e+00  -9.7669895863786637e-04 2.5625951112889012e-05 0.0000000000000000e+00  0.0000000000000000e+00 0.0000000000000000e+00 0.0000000000000000e+00  -2.4841116737775623e-05 -1.2836293945611614e-06 0.0000000000000000e+00  -5.0630769048136813e-05 -2.6140528213178812e-06 0.0000000000000000e+00  -7.8351599886173975e-05 -4.0391259630735812e-06 0.0000000000000000e+00  -1.0905135278504001e-04 -5.6080753662746025e-06 0.0000000000000000e+00  -1.4387445277079446e-04 -7.3712566152301676e-06 0.0000000000000000e+00  -1.8409054853631328e-04 -9.3782745828547248e-06 0.0000000000000000e+00  -2.3111587540401436e-04 -1.1672900851852541e-05 0.0000000000000000e+00  -2.8651961745624591e-04 -1.4281818907457966e-05 0.0000000000000000e+00  -3.5200171890101343e-04 -1.7191585247249489e-05 0.0000000000000000e+00  -4.2932056428135842e-04 -2.0303347630316001e-05 0.0000000000000000e+00  -5.2013980876123732e-04 -2.3346426596823323e-05 0.0000000000000000e+00  -6.2575871662217135e-04 -2.5718789238453346e-05 0.0000000000000000e+00  -7.4670389516467463e-04 -2.6207415059329000e-05 0.0000000000000000e+00  -8.8221866829014776e-04 -2.2540449493839293e-05 0.0000000000000000e+00  -1.0298087974472726e-03 -1.0776677778261387e-05 0.0000000000000000e+00  -1.1851140657538682e-03 1.5322418177561118e-05 0.0000000000000000e+00  0.0000000000000000e+00 0.0000000000000000e+00 0.0000000000000000e+00  -2.4868067527254292e-05 -1.3339403088854806e-06 0.0000000000000000e+00  -5.0747683370562070e-05 -2.7257040876655982e-06 0.0000000000000000e+00  -7.8692900194505104e-05 -4.2358967183164826e-06 0.0000000000000000e+00  -1.0984780705792473e-04 -5.9306022593423329e-06 0.0000000000000000e+00  -1.4549485008294108e-04 -7.8840524580989959e-06 0.0000000000000000e+00  -1.8710589116173568e-04 -1.0180856194352271e-05 0.0000000000000000e+00  -2.3639416676867812e-04 -1.2916874393183132e-05 0.0000000000000000e+00  -2.9536134541373755e-04 -1.6196560241564510e-05 0.0000000000000000e+00  -3.6632656920543993e-04 -2.0121801030196081e-05 0.0000000000000000e+00  -4.5191186824614690e-04 -2.4761187275595814e-05 0.0000000000000000e+00  -5.5493940645350102e-04 -3.0075401874774970e-05 0.0000000000000000e+00  -6.7817387841042655e-04 -3.5746899594316614e-05 0.0000000000000000e+00  -8.2383699254855646e-04 -4.0810303683800550e-05 0.0000000000000000e+00  -9.9288913181941785e-04 -4.2905786231987864e-05 0.0000000000000000e+00  -1.1843295970665687e-03 -3.6953019299887585e-05 0.0000000000000000e+00  -1.3952565496385514e-03 -1.3262999007769724e-05 0.0000000000000000e+00  0.0000000000000000e+00 0.0000000000000000e+00 0.0000000000000000e+00  -2.3892842664395982e-05 -1.3267542374770497e-06 0.0000000000000000e+00  -4.8816996050451721e-05 -2.7196585495973923e-06 0.0000000000000000e+00  -7.5853392550917818e-05 -4.2493343295955722e-06 0.0000000000000000e+00  -1.0619563511852636e-04 -5.9960631864762885e-06 0.0000000000000000e+00  -1.4121498738277734e-04 -8.0556709085525634e-06 0.0000000000000000e+00  -1.8253582455416738e-04 -1.0546686672432933e-05 0.0000000000000000e+00  -2.3212382456305489e-04 -1.3619122788771590e-05 0.0000000000000000e+00  -2.9238620231813068e-04 -1.7464805728019498e-05 0.0000000000000000e+00  -3.6627604041324752e-04 -2.2327786351726445e-05 0.0000000000000000e+00  -4.5737703601117909e-04 -2.8509081393523639e-05 0.0000000000000000e+00  -5.6991419927936312e-04 -3.6347552320684532e-05 0.0000000000000000e+00  -7.0858355140950144e-04 -4.6123658841960282e-05 0.0000000000000000e+00  -8.7802757505295987e-04 -5.7738659698980632e-05 0.0000000000000000e+00  -1.0817844490025273e-03 -6.9796703478243520e-05 0.0000000000000000e+00  -1.3209099330420430e-03 -7.7350441935320610e-05 0.0000000000000000e+00  -1.5934768402258903e-03 -6.7646851226139674e-05 0.0000000000000000e+00  0.0000000000000000e+00 0.0000000000000000e+00 0.0000000000000000e+00  -2.1899504248305469e-05 -1.2540230916330877e-06 0.0000000000000000e+00  -4.4796382454648629e-05 -2.5779345700702844e-06 0.0000000000000000e+00  -6.9741934520468234e-05 -4.0473820957717990e-06 0.0000000000000000e+00  -9.7915906707239306e-05 -5.7510028373665947e-06 0.0000000000000000e+00  -1.3070497838547316e-04 -7.7990617291625185e-06 0.0000000000000000e+00  -1.6980037270997704e-04 -1.0335119376778807e-05 0.0000000000000000e+00  -2.1732275788104020e-04 -1.3552579737170896e-05 0.0000000000000000e+00  -2.7598269108142145e-04 -1.7718932752390136e-05 0.0000000000000000e+00  -3.4928139087250223e-04 -2.3211984426801095e-05 0.0000000000000000e+00  -4.4174342616008923e-04 -3.0574085789790855e-05 0.0000000000000000e+00  -5.5913648777151969e-04 -4.0589789150489137e-05 0.0000000000000000e+00  -7.0854749600335028e-04 -5.4376820326181199e-05 0.0000000000000000e+00  -8.9800997011168018e-04 -7.3396317875952597e-05 0.0000000000000000e+00  -1.1351268919163186e-03 -9.8929696436832263e-05 0.0000000000000000e+00  -1.4243979076093299e-03 -1.2930236728684005e-04 0.0000000000000000e+00  -1.7662614302803470e-03 -1.5211529581659651e-04 0.0000000000000000e+00  0.0000000000000000e+00 0.0000000000000000e+00 0.0000000000000000e+00  -1.8925021339126659e-05 -1.1122579782682500e-06 0.0000000000000000e+00  -3.8752790918492779e-05 -2.2920844663480351e-06 0.0000000000000000e+00  -6.0439887271818038e-05 -3.6133493652891305e-06 0.0000000000000000e+00  -8.5075469350756646e-05 -5.1644876418350820e-06 0.0000000000000000e+00  -1.1396628445850882e-04 -7.0586119564874245e-06 0.0000000000000000e+00  -1.4874833825111961e-04 -9.4477978164502329e-06 0.0000000000000000e+00  -1.9153998615652798e-04 -1.2544450745050214e-05 0.0000000000000000e+00  -2.4515656674598923e-04 -1.6654773419234073e-05 0.0000000000000000e+00  -3.1341226013853761e-04 -2.2233628832648410e-05 0.0000000000000000e+00  -4.0153555425054082e-04 -2.9979144739913640e-05 0.0000000000000000e+00  -5.1670443810553762e-04 -4.1004787075357589e-05 0.0000000000000000e+00  -6.6862075991135040e-04 -5.7165683313264132e-05 0.0000000000000000e+00  -8.6977073728257024e-04 -8.1674449606308012e-05 0.0000000000000000e+00  -1.1342661648236765e-03 -1.2008574906955272e-04 0.0000000000000000e+00  -1.4724804379467342e-03 -1.8024193470331199e-04 0.0000000000000000e+00  -1.8866716214951524e-03 -2.5282959159741232e-04 0.0000000000000000e+00  0.0000000000000000e+00 0.0000000000000000e+00 0.0000000000000000e+00  -1.5065603418299247e-05 -9.0394079352653198e-07 0.0000000000000000e+00  -3.0877275355644864e-05 -1.8664078460851178e-06 0.0000000000000000e+00  -4.8229190567174490e-05 -2.9518198408927209e-06 0.0000000000000000e+00  -6.8036790431221680e-05 -4.2384138925341863e-06 0.0000000000000000e+00  -9.1417682475454956e-05 -5.8280120758478722e-06 0.0000000000000000e+00  -1.1980269645065563e-04 -7.8600095361429995e-06 0.0000000000000000e+00  -1.5509671467110476e-04 -1.0532494163484982e-05 0.0000000000000000e+00  -1.9992016277510370e-04 -1.4135461100610872e-05 0.0000000000000000e+00  -2.5798015321842069e-04 -1.9105384589985209e-05 0.0000000000000000e+00  -3.3464695884262706e-04 -2.6120588725663401e-05 0.0000000000000000e+00  -4.3784240612566367e-04 -3.6284152932010839e-05 0.0000000000000000e+00  -5.7935008053201624e-04 -5.1520963767448383e-05 0.0000000000000000e+00  -7.7649779229403443e-04 -7.5558457385769095e-05 0.0000000000000000e+00  -1.0533138295545055e-03 -1.1661237878414764e-04 0.0000000000000000e+00  -1.4361673454192094e-03 -1.9552673255483289e-04 0.0000000000000000e+00  -1.9049838710510790e-03 -3.8035401002517336e-04 0.0000000000000000e+00  0.0000000000000000e+00 0.0000000000000000e+00 0.0000000000000000e+00  -1.0477655198206670e-05 -6.3814670713571702e-07 0.0000000000000000e+00  -2.1488537038430949e-05 -1.3194408773646208e-06 0.0000000000000000e+00  -3.3602266320847829e-05 -2.0915697381571006e-06 0.0000000000000000e+00  -4.7481637507849274e-05 -3.0129516908824187e-06 0.0000000000000000e+00  -6.3946689582890289e-05 -4.1603316486360441e-06 0.0000000000000000e+00  -8.4065640330881244e-05 -5.6395814021437409e-06 0.0000000000000000e+00  -1.0929217259426014e-04 -7.6016091302344588e-06 0.0000000000000000e+00  -1.4168262820230530e-04 -1.0265995319344848e-05 0.0000000000000000e+00  -1.8425303930732549e-04 -1.3955596310744362e-05 0.0000000000000000e+00  -2.4158559033850589e-04 -1.9145296169774497e-05 0.0000000000000000e+00  -3.2088705432074192e-04 -2.6527483168004530e-05 0.0000000000000000e+00  -4.3387113793995477e-04 -3.7106647316743935e-05 0.0000000000000000e+00  -6.0012973453069422e-04 -5.2433978717112126e-05 0.0000000000000000e+00  -8.5313202114999922e-04 -7.5656490737184770e-05 0.0000000000000000e+00  -1.2506485689341867e-03 -1.1630750889876777e-04 0.0000000000000000e+00  -1.8914026503646781e-03 -2.0700755807154887e-04 0.0000000000000000e+00  0.0000000000000000e+00 0.0000000000000000e+00 0.0000000000000000e+00  -5.3718629347028076e-06 -3.3014881851485905e-07 0.0000000000000000e+00  -1.1021554682376016e-05 -6.8317640383239403e-07 0.0000000000000000e+00  -1.7246516699009944e-05 -1.0844201168969521e-06 0.0000000000000000e+00  -2.4394861845056378e-05 -1.5650503182988002e-06 0.0000000000000000e+00  -3.2900896672443293e-05 -2.1661739909354035e-06 0.0000000000000000e+00  -4.3336617957269990e-05 -2.9445736958776698e-06 0.0000000000000000e+00  -5.6491557453061229e-05 -3.9808004317335471e-06 0.0000000000000000e+00  -7.3503379988752301e-05 -5.3899165755250100e-06 0.0000000000000000e+00  -9.6081667739990001e-05 -7.3326451694227293e-06 0.0000000000000000e+00  -1.2690753065663191e-04 -1.0014185362847626e-05 0.0000000000000000e+00  -1.7036939678009537e-04 -1.3618754791878717e-05 0.0000000000000000e+00  -2.3391875366972145e-04 -1.7987542622398781e-05 0.0000000000000000e+00  -3.3034710669274902e-04 -2.1370401187766294e-05 0.0000000000000000e+00  -4.7999873478869959e-04 -1.6201388391040252e-05 0.0000000000000000e+00  -7.0362024216516299e-04 2.1808586206481071e-05 0.0000000000000000e+00  -9.7329885076377707e-04 1.3909492318776704e-04 0.0000000000000000e+00  0.0000000000000000e+00 0.0000000000000000e+00 0.0000000000000000e+00  0.0000000000000000e+00 0.0000000000000000e+00 0.0000000000000000e+00  0.0000000000000000e+00 0.0000000000000000e+00 0.0000000000000000e+00  0.0000000000000000e+00 0.0000000000000000e+00 0.0000000000000000e+00  0.0000000000000000e+00 0.0000000000000000e+00 0.0000000000000000e+00  0.0000000000000000e+00 0.0000000000000000e+00 