<?xml version="1.0"?>
<VTKFile type="UnstructuredGrid"  version="0.1"  >
<UnstructuredGrid>
<Piece  NumberOfPoints="289" NumberOfCells="512">
<Points>
<DataArray  type="Float64"  NumberOfComponents="3"  format="ascii">0 0 0  0.0625 0 0  0.125 0 0  0.1875 0 0  0.25 0 0  0.3125 0 0  0.375 0 0  0.4375 0 0  0.5 0 0  0.5625 0 0  0.625 0 0  0.6875 0 0  0.75 0 0  0.8125 0 0  0.875 0 0  0.9375 0 0  1 0 0  0 0.0625 0  0.06246517857929638 0.06247820260877301 0  0.1249300757628558 0.06245602934370528 0  0.1873944887955713 0.06243313659595282 0  0.249858473157955 0.06240926528638697 0  0.3123225186238197 0.06238429521866823 0  0.3747877906794767 0.06235831255868372 0  0.4372564737578336 0.0623316907436897 0  0.4997322746822602 0.06230517917160446 0  0.562221194115108 0.06227998330801681 0  0.6247327934117566 0.06225780230965829 0  0.6872824926061041 0.06224076462956485 0  0.7498962743860114 0.06223117067955679 0  0.8126215618093517 0.06223092724429223 0  0.8755551029509993 0.06224058595489471 0  0.9389198333629608 0.06225824169961198 0  1.003283238560793 0.06228283722642784 0  0 0.125 0  0.06243066294986419 0.1249567685350739 0  0.124860653898085 0.1249127433661783 0  0.1872894488031913 0.1248671907299288 0  0.2497170126721929 0.1248195362035451 0  0.3121441363188546 0.1247694703604123 0  0.3745729005180696 0.1247170840449182 0  0.4370073346556064 0.1246630370453819 0  0.4994543693370673 0.1246087539246224 0  0.5619252468340669 0.1245566214315202 0  0.6244376878837583 0.1245101281598573 0  0.6870193988824037 0.1244738346137742 0  0.7497140847346834 0.1244529949770693 0  0.8125921499914932 0.1244526129025097 0  0.875769233410279 0.1244758864820767 0  0.9394325250000984 0.1245230252491756 0  1.003850798148086 0.1245944474883262 0  0 0.1875 0  0.06239690405705284 0.1874361234627717 0  0.1247925275663276 0.1873709586221514 0  0.1871857838345957 0.1873032951277824 0  0.2495762401890007 0.1872321357595716 0  0.311964575762599 0.1871568452964185 0  0.3743532180801502 0.1870773505987027 0  0.4367472452497662 0.1869944048656356 0  0.499155667999536 0.186909919060106 0  0.5615932465045973 0.1868273407849185 0  0.6240830545135881 0.1867520150811397 0  0.6866600665769564 0.1866913759989895 0  0.7493760257872722 0.1866546625759473 0  0.8123053791673511 0.1866515551507984 0  0.87554995763434 0.1866884316978236 0  0.9392335639627479 0.1867588097753066 0  1.003464322746614 0.1868169753724511 0  0 0.25 0  0.06236456922484449 0.2499167688974618 0  0.1247269547228491 0.249831654180086 0  0.1870851771470414 0.2497428528174245 0  0.2494379773887782 0.2496487942805153 0  0.3117853367303068 0.2495483165585654 0  0.3741292153600604 0.2494409191323934 0  0.4364746099624445 0.2493271219347035 0  0.4988310496912576 0.249208956008179 0  0.5612146591861717 0.2490905960636161 0  0.6236508912960869 0.2489791034624772 0  0.6861779059677325 0.2488851554583351 0  0.7488501903198649 0.2488234509407591 0  0.8117410422792778 0.2488121397853932 0  0.8749404089424949 0.2488700553315388 0  0.9385409649627333 0.2490098982197123 0  1.002602550733622 0.2492266368637708 0  0 0.3125 0  0.06233460512414665 0.3123993050866951 0  0.124665799956631 0.3122960238893078 0  0.186990344871925 0.3121876321386796 0  0.2493056626669002 0.3120718085313325 0  0.3116103480717299 0.3119466108687684 0  0.3739049241747722 0.3118107542774425 0  0.4361929632255597 0.3116640419787378 0  0.4984827096899703 0.3115080102752715 0  0.5607893448247551 0.3113468554117403 0  0.6231379757156441 0.3111886966574629 0  0.6855672407040054 0.3110471676966654 0  0.7481329652649624 0.3109431619533818 0  0.8109104119461672 0.310906201675697 0  0.8739923393041898 0.3109742759515072 0  0.9374791567079113 0.3111901862315311 0  1.001460099296565 0.3115920041555326 0  0 0.375 0  0.06230825342559881 0.3748844365546877 0  0.1246115778855981 0.3747654939957473 0  0.186905131888139 0.3746398108731103 0  0.2491845383563567 0.3745041377267739 0  0.3114462985263403 0.374355474098188 0  0.3736884669012097 0.3741913233673768 0  0.4359117282793583 0.3740101374541969 0  0.498121059777063 0.3738120557301357 0  0.5603281946663123 0.3736000846966082 0  0.6225550946828616 0.3733819094061501 0  0.6848385106345585 0.3731725469846018 0  0.7472353519403037 0.3729979764062441 0  0.8098278843257992 0.3728995595058708 0  0.8727268465241995 0.372938272474017 0  0.936070299553628 0.3731962987483427 0  1.000018675846577 0.3737716073735752 0  0 0.4375 0  0.06228701052506144 0.4373729539228986 0  0.1245673796584426 0.4372416919811572 0  0.1868344203182959 0.4371019445129031 0  0.2490815679233659 0.4369493957973469 0  0.3113026040345853 0.4367797329815553 0  0.3734921291817854 0.4365888079200868 0  0.4356464502966899 0.4363729965949221 0  0.4977651314826005 0.4361298956007145 0  0.559853567504569 0.4358595826635293 0  0.6219270607434249 0.4355667984462785 0  0.684016957746954 0.4352645761327921 0  0.7461793012259068 0.4349799957644708 0  0.8085059657686736 0.4347626699492755 0  0.8711372229226475 0.434695795762618 0  0.9342736331233685 0.4349073993416298 0  0.9981864964192667 0.4355755876285387 0  0 0.5 0  0.06227252736318925 0.4998656871327627 0  0.1245366727007969 0.4997263546446011 0  0.1867838316591598 0.4995768346607972 0  0.2490050517984394 0.4994116951519234 0  0.3111909684997147 0.4992251500516508 0  0.3733319333434586 0.4990110465161076 0  0.4354185082580827 0.4987630064359996 0  0.4974426326026708 0.4984748679925417 0  0.5593999909181152 0.4981416987920441 0  0.6212944472510701 0.4977618762817612 0  0.6831458684838134 0.4973411107450553 0  0.7450031193525042 0.496899860800881 0  0.8069640770989481 0.4964862387413586 0  0.869203354313333 0.4961965282810245 0  0.9320053652147801 0.4962029127034969 0  0.9957983244714167 0.4967802621328382 0  0 0.5625 0  0.06226645107798785 0.5623634287778383 0  0.1245229742919518 0.5622211704233737 0  0.1867592158060075 0.5620672831408614 0  0.2489639171436757 0.5618953069946422 0  0.3111244791751309 0.561697996215476 0  0.3732265981589784 0.5614670584018675 0  0.4352541126706101 0.5611929409707067 0  0.4971893694402494 0.5608647659407211 0  0.5590147437352656 0.5604706434644723 0  0.6207165549775785 0.5599988680155776 0  0.6822936570698864 0.5594410705813955 0  0.7437745441221359 0.5587995392567054 0  0.805248522820825 0.5581029793017703 0  0.8669165573608258 0.557437777035059 0  0.9291615558043551 0.5570022077056401 0  0.9926229344552646 0.5571795627157584 0  0 0.625 0  0.06227021803604699 0.6248668321360912 0  0.1245294148859444 0.6247275634636531 0  0.186765941324842 0.6245757378659125 0  0.2489666774768166 0.624404132910453 0  0.3111161812324452 0.6242043035511713 0  0.3731957189023175 0.6239660366626678 0  0.4351822157199385 0.6236766910215613 0  0.4970473164822372 0.6233204190150532 0  0.5587571068563256 0.622877335892656 0  0.6202738490578636 0.6223229021569263 0  0.6815627745464714 0.6216283332677981 0  0.7426102530500183 0.6207643164833527 0  0.803465139282488 0.619714069342309 0  0.864321257546367 0.6185103681488534 0  0.9256560437382039 0.6173243500170839 0  0.9884127664035511 0.6166267698888951 0  0 0.6875 0  0.06228481821925264 0.6873762958941797 0  0.1245582294929581 0.6872464436406013 0  0.1868080379181493 0.6871038665391515 0  0.2490201094556697 0.6869410324402678 0  0.3111771355407287 0.6867488399886418 0  0.3732570429056026 0.6865158169968941 0  0.4352309145872118 0.6862270266599041 0  0.4970603368421585 0.6858625350155723 0  0.5586943107348908 0.6853952376894573 0  0.6200665733661359 0.6847878010655848 0  0.6810961163727255 0.6839885750386245 0  0.7416986003774285 0.6829271390695009 0  0.8018277271184736 0.6815138207320021 0  0.8615877516038906 0.6796620247834141 0  0.9214787079131898 0.677401043683588 0  0.9827713825176334 0.6751925576895197 0  0 0.75 0  0.06231056310473671 0.749891854626319 0  0.1246102438205381 0.7497779636040803 0  0.1868872949499232 0.7496521273011986 0  0.2491277843511382 0.7495071126242375 0  0.3113141062314371 0.7493339582592223 0  0.3734229178313762 0.7491210229477402 0  0.4354221591423068 0.748852610744224 0  0.4972666739060708 0.7485069052894251 0  0.5588918176910267 0.7480527566193714 0  0.6202045194437849 0.7474445038248737 0  0.6810722954348098 0.7466133220239993 0  0.7413151024391589 0.7454523431770574 0  0.8007200649834132 0.743791436423187 0  0.8591464867385058 0.7413622531581773 0  0.9169145343673931 0.7378162750560044 0  0.9755501503191291 0.7334551884837394 0  0 0.8125 0  0.06234690002898637 0.812413098220918 0  0.1246844497372913 0.8123213348290617 0  0.1870024790104095 0.812219429679705 0  0.2492887091431236 0.8121011371364263 0  0.3115272466420301 0.8119585796301293 0  0.3736963858605436 0.8117813120754007 0  0.435765221568605 0.8115549365792109 0  0.4976882295968838 0.8112589695044519 0  0.5593963710973402 0.8108634366952737 0  0.6207822723692986 0.810323195233305 0  0.6816756089955092 0.8095678500478866 0  0.7418039660718496 0.8084821611626054 0  0.8007402848367442 0.8068634779999759 0  0.8578811672236802 0.8043185320452892 0  0.912743568678645 0.7999875270379722 0  0.9676489544508258 0.7916332075778668 0  0 0.875 0  0.06239232045527826 0.8749391421742303 0  0.1247777795703676 0.8748747532643583 0  0.1871488747704463 0.8748029810099209 0  0.2494964350101348 0.8747192262931037 0  0.3118083906997685 0.8746176207872212 0  0.3740679176726127 0.8744902870862121 0  0.4362504524987422 0.8743262404147383 0  0.4983186517009806 0.8741097144397521 0  0.5602135002181585 0.8738175740235448 0  0.6218379510129034 0.8734152886533985 0  0.6830255324569092 0.872850575850756 0  0.7434776535179162 0.8720426884622382 0  0.8026342112767987 0.870860216805615 0  0.8594033457473851 0.8690560931752743 0  0.911624528958932 0.8660221813116057 0  0.9552344691056972 0.8597722943006789 0  0 0.9375 0  0.06244440186213342 0.9374686629660928 0  0.1248851756087946 0.9374354683586991 0  0.1873183429740699 0.9373983844939268 0  0.2497390083554071 0.9373549731294608 0  0.3121406714705431 0.9373021037442957 0  0.3745141721537715 0.9372355487929224 0  0.436845956374715 0.9
[...]
<PointData  Vectors="f_54"> 
<DataArray  type="Float64"  Name="f_54"  NumberOfComponents="3" format="ascii">0.0000000000000000e+00 0.0000000000000000e+00 0.0000000000000000e+00  0.0000000000000000e+00 0.0000000000000000e+00 0.0000000000000000e+00  0.0000000000000000e+00 0.0000000000000000e+00 0.0000000000000000e+00  0.0000000000000000e+00 0.0000000000000000e+00 0.0000000000000000e+00  0.0000000000000000e+00 0.0000000000000000e+00 0.0000000000000000e+00  0.0000000000000000e+00 0.0000000000000000e+00 0.0000000000000000e+00  0.0000000000000000e+00 0.0000000000000000e+00 0.0000000000000000e+00  0.0000000000000000e+00 0.0000000000000000e+00 0.0000000000000000e+00  0.0000000000000000e+00 0.0000000000000000e+00 0.0000000000000000e+00  0.0000000000000000e+00 0.0000000000000000e+00 0.0000000000000000e+00  0.0000000000000000e+00 0.0000000000000000e+00 0.0000000000000000e+00  0.0000000000000000e+00 0.0000000000000000e+00 0.0000000000000000e+00  0.0000000000000000e+00 0.0000000000000000e+00 0.0000000000000000e+00  0.0000000000000000e+00 0.0000000000000000e+00 0.0000000000000000e+00  0.0000000000000000e+00 0.0000000000000000e+00 0.0000000000000000e+00  0.0000000000000000e+00 0.0000000000000000e+00 0.0000000000000000e+00  0.0000000000000000e+00 0.0000000000000000e+00 0.0000000000000000e+00  0.0000000000000000e+00 0.0000000000000000e+00 0.0000000000000000e+00  -2.1680264994791355e-06 -1.1033199490706587e-07 0.0000000000000000e+00  -4.4161668445229011e-06 -2.2310956692712357e-07 0.0000000000000000e+00  -6.8285537994596805e-06 -3.4068650642630649e-07 0.0000000000000000e+00  -9.4946955584280143e-06 -4.6505055031709132e-07 0.0000000000000000e+00  -1.2512392766932764e-05 -5.9753732785437437e-07 0.0000000000000000e+00  -1.5990955792892963e-05 -7.3840320188530334e-07 0.0000000000000000e+00  -2.0055151865806521e-05 -8.8618522883513528e-07 0.0000000000000000e+00  -2.4851010555038515e-05 -1.0367459549351271e-06 0.0000000000000000e+00  -3.0556492970951058e-05 -1.1818307663784760e-06 0.0000000000000000e+00  -3.7405137586957796e-05 -1.3067630225960160e-06 0.0000000000000000e+00  -4.5745213650351523e-05 -1.3862308472523154e-06 0.0000000000000000e+00  -5.6199976354943422e-05 -1.3747321671061695e-06 0.0000000000000000e+00  -7.0132631609635685e-05 -1.1793140728008623e-06 0.0000000000000000e+00  -9.1098218305177701e-05 -5.6703063785539972e-07 0.0000000000000000e+00  -1.2977743402760989e-04 1.1885803100285051e-06 0.0000000000000000e+00  -2.2264143830607721e-04 6.8090238068188214e-06 0.0000000000000000e+00  0.0000000000000000e+00 0.0000000000000000e+00 0.0000000000000000e+00  -4.2519747584005689e-06 -2.1801694891415653e-07 0.0000000000000000e+00  -8.6613255439218662e-06 -4.4108146125308485e-07 0.0000000000000000e+00  -1.3393222201083119e-05 -6.7409208714177439e-07 0.0000000000000000e+00  -1.8623451080141360e-05 -9.2130368079249226e-07 0.0000000000000000e+00  -2.4544097405281951e-05 -1.1858130817770806e-06 0.0000000000000000e+00  -3.1369616796556522e-05 -1.4687807671982722e-06 0.0000000000000000e+00  -3.9343753970973592e-05 -1.7682583762116135e-06 0.0000000000000000e+00  -4.8748464853411489e-05 -2.0774542638060033e-06 0.0000000000000000e+00  -5.9917782728527429e-05 -2.3822155036830625e-06 0.0000000000000000e+00  -7.3263931404792736e-05 -2.6574177323466310e-06 0.0000000000000000e+00  -8.9333218562357835e-05 -2.8618056965565851e-06 0.0000000000000000e+00  -1.0893170677975041e-04 -2.9307134729556665e-06 0.0000000000000000e+00  -1.3340242145217621e-04 -2.7673305421954649e-06 0.0000000000000000e+00  -1.6516939738906971e-04 -2.2451864913282235e-06 0.0000000000000000e+00  -2.0837871785454165e-04 -1.3150533781651657e-06 0.0000000000000000e+00  -2.6670896624018530e-04 -8.0171693717611341e-07 0.0000000000000000e+00  0.0000000000000000e+00 0.0000000000000000e+00 0.0000000000000000e+00  -6.1732658787181221e-06 -3.2038244247219035e-07 0.0000000000000000e+00  -1.2575805954010231e-05 -6.4869400432813356e-07 0.0000000000000000e+00  -1.9448025049673172e-05 -9.9272005921396969e-07 0.0000000000000000e+00  -2.7045997345486420e-05 -1.3594869138667094e-06 0.0000000000000000e+00  -3.5649737459385147e-05 -1.7546238182672913e-06 0.0000000000000000e+00  -4.5571745005308422e-05 -2.1813662142120865e-06 0.0000000000000000e+00  -5.7165914839089871e-05 -2.6390215107059748e-06 0.0000000000000000e+00  -7.0837000463724490e-05 -3.1206764129503977e-06 0.0000000000000000e+00  -8.7051101215991430e-05 -3.6098974376012226e-06 0.0000000000000000e+00  -1.0634814465261545e-04 -4.0762164334969913e-06 0.0000000000000000e+00  -1.2935738785329758e-04 -4.4694411277417897e-06 0.0000000000000000e+00  -1.5681254291633254e-04 -4.7136615952787297e-06 0.0000000000000000e+00  -1.8953712028078708e-04 -4.7041647784970556e-06 0.0000000000000000e+00  -2.2826150065947661e-04 -4.3157491215038370e-06 0.0000000000000000e+00  -2.7275628154435383e-04 -3.4332910741270133e-06 0.0000000000000000e+00  -3.1876366069430928e-04 -1.9243994708154011e-06 0.0000000000000000e+00  0.0000000000000000e+00 0.0000000000000000e+00 0.0000000000000000e+00  -7.8590144855729182e-06 -4.1448821719790892e-07 0.0000000000000000e+00  -1.6011385624533119e-05 -8.4011239507176050e-07 0.0000000000000000e+00  -2.4764354297877358e-05 -1.2879510943619175e-06 0.0000000000000000e+00  -3.4445696537599482e-05 -1.7684253494443304e-06 0.0000000000000000e+00  -4.5414522906870489e-05 -2.2906784884922865e-06 0.0000000000000000e+00  -5.8072282221589383e-05 -2.8615402397190607e-06 0.0000000000000000e+00  -7.2873655562987797e-05 -3.4838513889488565e-06 0.0000000000000000e+00  -9.0336454351840883e-05 -4.1538563781896804e-06 0.0000000000000000e+00  -1.1104843581435944e-04 -4.8573115303307106e-06 0.0000000000000000e+00  -1.3566627819190817e-04 -5.5639726320437749e-06 0.0000000000000000e+00  -1.6489566430642470e-04 -6.2203861130498764e-06 0.0000000000000000e+00  -1.9942604636839290e-04 -6.7417937662204708e-06 0.0000000000000000e+00  -2.3975622089597817e-04 -7.0062245500422892e-06 0.0000000000000000e+00  -2.8576154073610790e-04 -6.8587114277724281e-06 0.0000000000000000e+00  -3.3569480942751610e-04 -6.1428832531147867e-06 0.0000000000000000e+00  -3.8418876407671720e-04 -4.8020205806404988e-06 0.0000000000000000e+00  0.0000000000000000e+00 0.0000000000000000e+00 0.0000000000000000e+00  -9.2446414604709541e-06 -4.9708738743109663e-07 0.0000000000000000e+00  -1.8836524917088546e-05 -1.0087855783071051e-06 0.0000000000000000e+00  -2.9138830071469081e-05 -1.5498212340390532e-06 0.0000000000000000e+00  -4.0539902086800779e-05 -2.1346095371343530e-06 0.0000000000000000e+00  -5.3466629563219291e-05 -2.7768185019338351e-06 0.0000000000000000e+00  -6.8398292470543597e-05 -3.4885153007824888e-06 0.0000000000000000e+00  -8.5880490347964785e-05 -4.2786377243204343e-06 0.0000000000000000e+00  -1.0653788348496195e-04 -5.1504138446858380e-06 0.0000000000000000e+00  -1.3108264261383018e-04 -6.0971904196080129e-06 0.0000000000000000e+00  -1.6031170717949219e-04 -7.0959487405801611e-06 0.0000000000000000e+00  -1.9507825212184787e-04 -8.0976822431993810e-06 0.0000000000000000e+00  -2.3620765217930101e-04 -9.0140526679399645e-06 0.0000000000000000e+00  -2.8430056495806126e-04 -9.7009323116164618e-06 0.0000000000000000e+00  -3.3932270644543788e-04 -9.9426415322537412e-06 0.0000000000000000e+00  -3.9984192354616387e-04 -9.4470941456346250e-06 0.0000000000000000e+00  -4.6183983178434997e-04 -7.8704378989244993e-06 0.0000000000000000e+00  0.0000000000000000e+00 0.0000000000000000e+00 0.0000000000000000e+00  -1.0276358706173893e-05 -5.6469019626167143e-07 0.0000000000000000e+00  -2.0941374888097245e-05 -1.1475617125740853e-06 0.0000000000000000e+00  -3.2400880340419718e-05 -1.7671617890441719e-06 0.0000000000000000e+00  -4.5090048639894667e-05 -2.4423075005034315e-06 0.0000000000000000e+00  -5.9489340531541177e-05 -3.1920076732154270e-06 0.0000000000000000e+00  -7.6141643400734845e-05 -4.0350420168662719e-06 0.0000000000000000e+00  -9.5670639560508337e-05 -4.9889452810891020e-06 0.0000000000000000e+00  -1.1879976145430903e-04 -6.0679733278798822e-06 0.0000000000000000e+00  -1.4636959728597931e-04 -7.2793367075779680e-06 0.0000000000000000e+00  -1.7934849161282325e-04 -8.6165095662417277e-06 0.0000000000000000e+00  -2.1882496726134047e-04 -1.0047692510471331e-05 0.0000000000000000e+00  -2.6595955143830910e-04 -1.1496551910394229e-05 0.0000000000000000e+00  -3.2185623842510044e-04 -1.2811537835598945e-05 0.0000000000000000e+00  -3.8729380531344010e-04 -1.3720584699414605e-05 0.0000000000000000e+00  -4.6225476050833209e-04 -1.3772207477225885e-05 0.0000000000000000e+00  -5.4525757614698781e-04 -1.2274063286592566e-05 0.0000000000000000e+00  0.0000000000000000e+00 0.0000000000000000e+00 0.0000000000000000e+00  -1.0913464320622377e-05 -6.1374116554902905e-07 0.0000000000000000e+00  -2.2242479485691428e-05 -1.2490483889016460e-06 0.0000000000000000e+00  -3.4420069625618143e-05 -1.9281523177321526e-06 0.0000000000000000e+00  -4.7911888716322521e-05 -2.6743139696912222e-06 0.0000000000000000e+00  -6.3234411999503373e-05 -3.5122523731894162e-06 0.0000000000000000e+00  -8.0975374870115896e-05 -4.4683974319501676e-06 0.0000000000000000e+00  -1.0181733808856676e-04 -5.5707899388048497e-06 0.0000000000000000e+00  -1.2656522159729919e-04 -6.8482724102043524e-06 0.0000000000000000e+00  -1.5617828710381184e-04 -8.3282558822134559e-06 0.0000000000000000e+00  -1.9180587571350754e-04 -1.0031636270192374e-05 0.0000000000000000e+00  -2.3482328644049515e-04 -1.1962064752812858e-05 0.0000000000000000e+00  -2.8685803949617030e-04 -1.4084300149799007e-05 0.0000000000000000e+00  -3.4978611458983701e-04 -1.6282407106686305e-05 0.0000000000000000e+00  -4.2566512581281198e-04 -1.8283733560887846e-05 0.0000000000000000e+00  -5.1657268387405469e-04 -1.9532623503731933e-05 0.0000000000000000e+00  -6.2437230206810023e-04 -1.9005809337377571e-05 0.0000000000000000e+00  0.0000000000000000e+00 0.0000000000000000e+00 0.0000000000000000e+00  -1.1130320234631645e-05 -6.4090199179761683e-07 0.0000000000000000e+00  -2.2686931603055125e-05 -1.3062061229898273e-06 0.0000000000000000e+00  -3.5112869212515548e-05 -2.0212812388107651e-06 0.0000000000000000e+00  -4.8885622847466267e-05 -2.8133598962933239e-06 0.0000000000000000e+00  -6.4536748852893480e-05 -3.7125519243802182e-06 0.0000000000000000e+00  -8.2674758657198967e-05 -4.7529321394709627e-06 0.0000000000000000e+00  -1.0401314131399121e-04 -5.9736815972528640e-06 0.0000000000000000e+00  -1.2940622635481381e-04 -7.4201597715773889e-06 0.0000000000000000e+00  -1.5989686375374041e-04 -9.1445205597495513e-06 0.0000000000000000e+00  -1.9678159149463738e-04 -1.1204827666831001e-05 0.0000000000000000e+00  -2.4170070107095139e-04 -1.3660054238410451e-05 0.0000000000000000e+00  -2.9676104090825697e-04 -1.6554768092043820e-05 0.0000000000000000e+00  -3.6469551082060099e-04 -1.9879683641996651e-05 0.0000000000000000e+00  -4.4905231759772212e-04 -2.3480075204795440e-05 0.0000000000000000e+00  -5.5440147213030278e-04 -2.6864843738605091e-05 0.0000000000000000e+00  -6.8660736591463214e-04 -2.8866852906792377e-05 0.0000000000000000e+00  0.0000000000000000e+00 0.0000000000000000e+00 0.0000000000000000e+00  -1.0917808457837645e-05 -6.4341065844759378e-07 0.0000000000000000e+00  -2.2255541938002049e-05 -1.3131165612978954e-06 0.0000000000000000e+00  -3.4448114862611582e-05 -2.0366299268041829e-06 0.0000000000000000e+00  -4.7964725194519510e-05 -2.8440873331345157e-06 0.0000000000000000e+00  -6.3328531414302321e-05 -3.7698193855367282e-06 0.0000000000000000e+00  -8.1140149401597809e-05 -4.8542710972378493e-06 0.0000000000000000e+00  -1.0210752886506818e-04 -6.1464645697612370e-06 0.0000000000000000e+00  -1.2708645236835019e-04 -7.7072569871822322e-06 0.0000000000000000e+00  -1.5713888501256494e-04 -9.6136837235523785e-06 0.0000000000000000e+00  -1.9362149179046867e-04 -1.1964545629542576e-05 0.0000000000000000e+00  -2.3832475371156838e-04 -1.4886639711686123e-05 0.0000000000000000e+00  -2.9369442351687315e-04 -1.8538271708222092e-05 0.0000000000000000e+00  -3.6317814497540150e-04 -2.3098107083822934e-05 0.0000000000000000e+00  -4.5173875171128369e-04 -2.8703347899381639e-05 0.0000000000000000e+00  -5.6655330814033001e-04 -3.5241951012171841e-05 0.0000000000000000e+00  -7.1800507234736982e-04 -4.1790253216048604e-05 0.0000000000000000e+00  0.0000000000000000e+00 0.0000000000000000e+00 0.0000000000000000e+00  -1.0284025215075755e-05 -6.1946560357992726e-07 0.0000000000000000e+00  -2.0964461663457359e-05 -1.2658171266386280e-06 0.0000000000000000e+00  -3.2450091240785309e-05 -1.9673035351206048e-06 0.0000000000000000e+00  -4.5181550454666731e-05 -2.7553321556460210e-06 0.0000000000000000e+00  -5.9649389925933282e-05 -3.6664351672135014e-06 0.0000000000000000e+00  -7.6415616739716933e-05 -4.7448025175277138e-06 0.0000000000000000e+00  -9.6141283066805076e-05 -6.0457600946949669e-06 0.0000000000000000e+00  -1.1962475978033826e-04 -7.6408206040949494e-06 0.0000000000000000e+00  -1.4785944536040550e-04 -9.6253833588833226e-06 0.0000000000000000e+00  -1.8212769487734880e-04 -1.2130936093029081e-05 0.0000000000000000e+00  -2.2416309502822272e-04 -1.5344826421550253e-05 0.0000000000000000e+00  -2.7644119243832536e-04 -1.9542044037660749e-05 0.0000000000000000e+00  -3.4270433511966112e-04 -2.5132670922576030e-05 0.0000000000000000e+00  -4.2887570887131869e-04 -3.2714752265227967e-05 0.0000000000000000e+00  -5.4447158789999468e-04 -4.3052702361367377e-05 0.0000000000000000e+00  -7.0439032365043886e-04 -5.6605590127004986e-05 0.0000000000000000e+00  0.0000000000000000e+00 0.0000000000000000e+00 0.0000000000000000e+00  -9.2540158968713927e-06 -5.6856897899468547e-07 0.0000000000000000e+00  -1.8864769361214088e-05 -1.1630565115818676e-06 0.0000000000000000e+00  -2.9198232712256872e-05 -1.8107527474245807e-06 0.0000000000000000e+00  -4.0647736132130999e-05 -2.5422955180281425e-06 0.0000000000000000e+00  -5.3648811268480202e-05 -3.3937692168687794e-06 0.0000000000000000e+00  -6.8696176059461072e-05 -4.4094367556542966e-06 0.0000000000000000e+00  -8.6364466003927532e-05 -5.6455425067109997e-06 0.0000000000000000e+00  -1.0733593973971504e-04 -7.1759604808124454e-06 0.0000000000000000e+00  -1.3244214106905970e-04 -9.1011656505921234e-06 0.0000000000000000e+00  -1.6273514480293915e-04 -1.1563512551011661e-05 0.0000000000000000e+00  -1.9962382807434901e-04 -1.4775075920059051e-05 0.0000000000000000e+00  -2.4515582983129162e-04 -1.9071433973133096e-05 0.0000000000000000e+00  -3.0262770010070514e-04 -2.5020065715908753e-05 0.0000000000000000e+00  -3.7791726060759276e-04 -3.3642377395856002e-05 0.0000000000000000e+00  -4.8217403890542395e-04 -4.6852263419439532e-05 0.0000000000000000e+00  -6.3531525665307608e-04 -6.8450011599064167e-05 0.0000000000000000e+00  0.0000000000000000e+00 0.0000000000000000e+00 0.0000000000000000e+00  -7.8684897913892837e-06 -4.9176250334457452e-07 0.0000000000000000e+00  -1.6039827095958390e-05 -1.0068194844061199e-06 0.0000000000000000e+00  -2.4822931864993743e-05 -1.5697057091944750e-06 0.0000000000000000e+00  -3.4548192479657953e-05 -2.2081064618546335e-06 0.0000000000000000e+00  -4.5578081773507511e-05 -2.9547914057785217e-06 0.0000000000000000e+00  -5.8317880620170844e-05 -3.8500659161832956e-06 0.0000000000000000e+00  -7.3226305864529471e-05 -4.9450486779709983e-06 0.0000000000000000e+00  -9.0825984401725552e-05 -6.3062995971943985e-06 0.0000000000000000e+00  -1.1171491749836341e-04 -8.0228261114097285e-06 0.0000000000000000e+00  -1.3658479250886718e-04 -1.0217763392516592e-05 0.0000000000000000e+00  -1.6626731376689024e-04 -1.3070370423980047e-05 0.0000000000000000e+00  -2.0187596599595967e-04 -1.6863131968023404e-05 0.0000000000000000e+00  -2.4524803094826245e-04 -2.2094604708660420e-05 0.0000000000000000e+00  -3.0031256960503979e-04 -2.9773776996869596e-05 0.0000000000000000e+00  -3.7735243185037308e-04 -4.2204892284170763e-05 0.0000000000000000e+00  -5.0428211670600195e-04 -6.3867725279762399e-05 0.0000000000000000e+00  0.0000000000000000e+00 0.0000000000000000e+00 0.0000000000000000e+00  -6.1816519211493912e-06 -3.9170728201070538e-07 0.0000000000000000e+00  -1.2600670882744062e-05 -8.0250764438474612e-07 0.0000000000000000e+00  -1.9497817367854020e-05 -1.2524919508222446e-06 0.0000000000000000e+00  -2.7129016734769329e-05 -1.7643650042897891e-06 0.0000000000000000e+00  -3.5771703437712458e-05 -2.3649776997274686e-06 0.0000000000000000e+00  -4.5729316306210887e-05 -3.0871401974299011e-06 0.0000000000000000e+00  -5.7331736618606658e-05 -3.9717610795150187e-06 0.0000000000000000e+00  -7.0927491603412729e-05 -5.0702622626989979e-06 0.0000000000000000e+00  -8.6860337413703319e-05 -6.4470286231835034e-06 0.0000000000000000e+00  -1.0541857677463745e-04 -8.1813874869977242e-06 0.0000000000000000e+00  -1.2674329742914920e-04 -1.0368716424829004e-05 0.0000000000000000e+00  -1.5069619555235507e-04 -1.3123228643248025e-05 0.0000000000000000e+00  -1.7677390236706884e-04 -1.6602649031195817e-05 0.0000000000000000e+00  -2.0452004294965482e-04 -2.1164927152948063e-05 0.0000000000000000e+00  -2.3643683122144570e-04 -2.8257452569318678e-05 0.0000000000000000e+00  -2.9514644384801540e-04 -4.6647273095246371e-05 0.0000000000000000e+00  0.0000000000000000e+00 0.0000000000000000e+00 0.0000000000000000e+00  -4.2584801333960792e-06 -2.7259181520322533e-07 0.0000000000000000e+00  -8.6801707015360158e-06 -5.5873974114265919e-07 0.0000000000000000e+00  -1.3429825935856066e-05 -8.7268869121895132e-07 0.0000000000000000e+00  -1.8681548749213661e-05 -1.2305285562992349e-06 0.0000000000000000e+00  -2.4621791999124852e-05 -1.6512115711304957e-06 0.0000000000000000e+00  -3.1449601125438031e-05 -2.1576297331404394e-06 0.0000000000000000e+00  -3.9370793760367951e-05 -2.7775720677798432e-06 0.0000000000000000e+00  -4.8579232571711737e-05 -3.5440013384175744e-06 0.0000000000000000e+00  -5.9211157414063697e-05 -4.4931696538598574e-06 0.0000000000000000e+00  -7.1244309277670895e-05 -5.6568929930023525e-06 0.0000000000000000e+00  -8.4287072180760095e-05 -7.0400542014111226e-06 0.0000000000000000e+00  -9.7160853043060233e-05 -8.5618763869000418e-06 0.0000000000000000e+00  -1.0714507770657043e-04 -9.9109135851814742e-06 0.0000000000000000e+00  -1.0889573732882449e-04 -1.0215504129032290e-05 0.0000000000000000e+00  -9.4164967878973896e-05 -7.4924113869873076e-06 0.0000000000000000e+00  -5.8356926964703328e-05 1.1485068332119992e-06 0.0000000000000000e+00  0.0000000000000000e+00 0.0000000000000000e+00 0.0000000000000000e+00  -2.1718700240460379e-06 -1.3988824132128845e-07 0.0000000000000000e+00  -4.4269593099827020e-06 -2.8682256456860745e-07 0.0000000000000000e+00  -6.8490241050124214e-06 -4.4820018555429771e-07 0.0000000000000000e+00  -9.5262308103756406e-06 -6.3237079843364945e-07 0.0000000000000000e+00  -1.2552193506615506e-05 -8.4913520614514012e-07 0.0000000000000000e+00  -1.6024994193570861e-05 -1.1102150201548779e-06 0.0000000000000000e+00  -2.0041667891811796e-05 -1.4295039677903011e-06 0.0000000000000000e+00  -2.4682622854838183e-05 -1.8225687562797687e-06 0.0000000000000000e+00  -2.9973693175382239e-05 -2.3040399482823541e-06 0.0000000000000000e+00  -3.5798173904173653e-05 -2.8796202587645615e-06 0.0000000000000000e+00  -4.1696959654785977e-05 -3.5254018876239540e-06 0.0000000000000000e+00  -4.6424915478902926e-05 -4.1405907559989562e-06 0.0000000000000000e+00  -4.7032256057576068e-05 -4.4587390508194342e-06 0.0000000000000000e+00  -3.7369777866299348e-05 -3.9589810137543161e-06 0.0000000000000000e+00  -7.7900838220829789e-06 -2.0944649733236385e-06 0.0000000000000000e+00  4.5136832063032443e-05 4.8939003595530312e-07 0.0000000000000000e+00  0.0000000000000000e+00 0.0000000000000000e+00 0.0000000000000000e+00  0.0000000000000000e+00 0.0000000000000000e+00 0.0000000000000000e+00  0.0000000000000000e+00 0.0000000000000000e+00 0.0000000000000000e+00  0.0000000000000000e+00 0.0000000000000000e+00 0.0000000000000000e+00  0.0000000000000000e+00 0.0000000000000000e+00 0.0000000000000000e+00  0.0000000000000000e+00 0.00