<?xml version="1.0"?>
<VTKFile type="UnstructuredGrid"  version="0.1"  >
<UnstructuredGrid>
<Piece  NumberOfPoints="289" NumberOfCells="512">
<Points>
<DataArray  type="Float64"  NumberOfComponents="3"  format="ascii">0 0 0  0.0625 0 0  0.125 0 0  0.1875 0 0  0.25 0 0  0.3125 0 0  0.375 0 0  0.4375 0 0  0.5 0 0  0.5625 0 0  0.625 0 0  0.6875 0 0  0.75 0 0  0.8125 0 0  0.875 0 0  0.9375 0 0  1 0 0  0 0.0625 0  0.06250793843317236 0.06248042830198025 0  0.1250169200620131 0.06246051432567144 0  0.1875281056109345 0.06243994401325543 0  0.2500429368611045 0.06241847610372623 0  0.312563318205783 0.06239598849154228 0  0.3750918557826172 0.06237253505999269 0  0.4376321911870547 0.06234841240683157 0  0.5001894959994938 0.06232422993559406 0  0.5627712626805285 0.06230096574777773 0  0.6253887014835426 0.06227997111153798 0  0.6880595160061872 0.06226285118852697 0  0.750814135223304 0.06225108100558686 0  0.8137113831866523 0.06224504811293189 0  0.8768819316633039 0.06224167835428186 0  0.9406594221399813 0.06222778991316247 0  1.00601104428962 0.06215930698989198 0  0 0.125 0  0.06251481375885652 0.124961183990477 0  0.1250315925589608 0.1249216469281118 0  0.1875525274365608 0.1248807203834641 0  0.2500803508701732 0.1248378735840481 0  0.3126186874368049 0.1247928039968987 0  0.3751725144384373 0.1247455521935084 0  0.43774879636005 0.1246966429647863 0  0.5003573963360525 0.1246472449175044 0  0.5630124507255853 0.1245993221242828 0  0.625734572706768 0.1245557186574882 0  0.6885546403078557 0.124520065261658 0  0.7515207266344304 0.1244963323318675 0  0.8147111277694982 0.1244878355539184 0  0.8782575235915017 0.1244958544935711 0  0.9423750893986919 0.1245202650934606 0  1.007338199231233 0.1245750617718282 0  0 0.1875 0  0.06251973884052835 0.1874426522667618 0  0.1250421196058872 0.1873841379735847 0  0.1875700956195793 0.1873233594168004 0  0.2501073691154927 0.1872594038886716 0  0.3126588776582732 0.1871916722384014 0  0.3752314308007351 0.1871200505657946 0  0.4378345724000641 0.187045134969624 0  0.5004817714208857 0.1869685096521399 0  0.5631920869029896 0.1868930575758279 0  0.6259925140754778 0.1868232414236206 0  0.6889212762736072 0.186765217265195 0  0.7520322392788967 0.1867265115459692 0  0.8153998071487526 0.1867147486722947 0  0.8791201974576163 0.1867343405130742 0  0.9432940504076398 0.1867780671579379 0  1.007950952964218 0.1868019610956974 0  0 0.25 0  0.06252207544499862 0.2499252842925321 0  0.1250471263973276 0.2498488686860856 0  0.1875784904858137 0.2497691251328373 0  0.2501203820155401 0.2496846286539121 0  0.3126784666404499 0.2495943106912111 0  0.3752606164101954 0.2494976786899318 0  0.4378779256853537 0.249395126131311 0  0.5005460788483461 0.2492883534947204 0  0.5632871559878653 0.2491809060288536 0  0.6261319080678677 0.2490787970110327 0  0.6891223395620822 0.2489911051126611 0  0.7523138863072433 0.2489302783831044 0  0.8157750867053191 0.2489115951773039 0  0.8795795783089108 0.2489507751700575 0  0.9437800360727944 0.2490582640714266 0  1.008350364100787 0.249230045237455 0  0 0.3125 0  0.0625215218191373 0.3124096174117868 0  0.1250459493822201 0.3123169074343178 0  0.1875765579127787 0.3122195989612458 0  0.2501175266181391 0.3121155996940927 0  0.3126745442912858 0.3120031512810835 0  0.3752556201691082 0.3118810738369252 0  0.4378721916985835 0.3117491433547308 0  0.5005406277742622 0.3116086544464794 0  0.5632842048492068 0.3114632247292687 0  0.6261355370375011 0.3113198838259417 0  0.6891391753764434 0.311190434366331 0  0.7523534902934078 0.3110929289516531 0  0.8158498013435542 0.3110528072659279 0  0.8797050074384791 0.3111027223322694 0  0.9439828353454428 0.3112794445844233 0  1.008702753665396 0.311615949212215 0  0 0.375 0  0.06251816184760343 0.3748962805160321 0  0.1250387446811815 0.3747895263748333 0  0.1875644972488489 0.3746767206828061 0  0.2500989838720406 0.3745549470523881 0  0.3126471539323267 0.3744215123405297 0  0.3752161358310336 0.3742741742323917 0  0.4378163704315385 0.3741115369974934 0  0.5004632257461419 0.3739337062203374 0  0.5631792450628996 0.373743328387501 0  0.6259971342678882 0.3735471764133778 0  0.6889634114680322 0.3733584529797082 0  0.752142200037583 0.3731999086820524 0  0.8156178383966883 0.3731075865568073 0  0.8794939786333928 0.373134315160899 0  0.9438867547735394 0.373350822811838 0  1.00891324795728 0.3738407161402662 0  0 0.4375 0  0.06251246870985806 0.4373859788294467 0  0.1250265022224462 0.4372681759080556 0  0.1875439003008466 0.4371427641541857 0  0.2500670660932067 0.4370058787129556 0  0.3125994613634836 0.4368536638553661 0  0.3751462892882315 0.4366824224006647 0  0.4377155497475976 0.4364889435344372 0  0.5003196812502982 0.4362711326971821 0  0.5629780940403959 0.4360291422038234 0  0.6257209933575868 0.4357673103198522 0  0.6885949356619876 0.4354973528150893 0  0.7516704332578666 0.4352433592735416 0  0.8150514380406108 0.4350490468300006 0  0.8788856047689646 0.4349870034116024 0  0.9433734812851785 0.4351676937387949 0  1.008776745345635 0.435742671235379 0  0 0.5 0  0.06250525885709522 0.4998794534980727 0  0.1250109560650932 0.4997544057301209 0  0.1875176248644272 0.4996202256010565 0  0.2500260708444665 0.4994720510536454 0  0.3125376264134503 0.499304714146069 0  0.3750546003952617 0.4991127390537288 0  0.4375810860786146 0.498890484202792 0  0.5001244132577405 0.4986325612859967 0  0.5626977342501038 0.498334774671406 0  0.6253245534873535 0.4979960182094912 0  0.6880464542516527 0.4976218860861344 0  0.7509357523849248 0.4972312214848743 0  0.8141149658781017 0.4968673125623019 0  0.8777840922113505 0.4966153201856676 0  0.9422541918578967 0.4966251084672934 0  1.007984618323779 0.4971316473899823 0  0 0.5625 0  0.06249759550293473 0.5623774144012635 0  0.1249943867705513 0.5622497271017058 0  0.1874894898444266 0.5621116101174463 0  0.2499818699462214 0.5619572767494362 0  0.3124703126040719 0.561780248075702 0  0.3749535011609785 0.5615731313291089 0  0.4374303441683274 0.5613274509423684 0  0.4999008568593925 0.5610336301658648 0  0.5623682156131335 0.5606813400317984 0  0.6248431944456516 0.5602606778331042 0  0.6873532266312229 0.5597651358213707 0  0.7499599387385294 0.5591982926030366 0  0.8127908978781891 0.5585878617168329 0  0.8760918829737991 0.5580129024159544 0  0.940301370306831 0.5576497352768511 0  1.006137091717937 0.5578308993818039 0  0 0.625 0  0.06249064607078972 0.6248804497463191 0  0.1249793214338167 0.6247554218268273 0  0.1874637905204687 0.6246191196041505 0  0.2499412076763272 0.6244650619156603 0  0.3124077503081198 0.6242856782769792 0  0.3748582045582122 0.6240718298286124 0  0.4372855639075751 0.6238122394470176 0  0.4996808496173611 0.6234928397668881 0  0.5620337119356571 0.6230961207114986 0  0.6243351569492859 0.6226007539047926 0  0.6865854188335175 0.6219822834629417 0  0.7488133126408621 0.6212169907399365 0  0.8111191363420521 0.6202943176914949 0  0.8737602031307117 0.6192505296105069 0  0.9372970609938331 0.6182470055399659 0  1.002792622708766 0.6177074974991599 0  0 0.6875 0  0.0624855061514357 0.6873889226488803 0  0.1249681542617748 0.6872723183175404 0  0.1874446602772634 0.6871442718907631 0  0.2499107198411071 0.686998007810192 0  0.3123603082768608 0.6868253384574758 0  0.3747847326364026 0.6866159464754112 0  0.4371713443838859 0.6863564123153877 0  0.4995018741836004 0.6860288675998872 0  0.561750569725333 0.6856091215892878 0  0.6238830025019277 0.6850641046406132 0  0.6858583089640045 0.6843486341778383 0  0.7476425141444658 0.6834023560762932 0  0.8092521654976788 0.6821511889997492 0  0.8708710184120108 0.6805306230236756 0  0.9331082904360782 0.6785907605551011 0  0.9974081636531028 0.6767900165191783 0  0 0.75 0  0.06248301300361746 0.7499028714775132 0  0.1249627350851552 0.7498005706875688 0  0.187435351067287 0.7496875108878699 0  0.2498957645044276 0.7495571673743383 0  0.3123366550514912 0.749401445353545 0  0.3747470951373864 0.7492098130949649 0  0.4371104483503246 0.7489680504235193 0  0.4994011481078455 0.7486563746650923 0  0.5615798336185436 0.7482465494953017 0  0.6235863891551779 0.7476972964152507 0  0.6853313940821282 0.7469468067116971 0  0.7466906999046291 0.74590029583651 0  0.8075227820378177 0.7444099282857398 0  0.8677766248597358 0.7422500587974985 0  0.9278922357454795 0.7391480057452817 0  0.98964375393351 0.7354119339822408 0  0 0.8125 0  0.06248358180189961 0.8124219349434396 0  0.124963999096581 0.8123394876953438 0  0.1874375596681834 0.8122478912313507 0  0.2498992643427472 0.812141495912564 0  0.3123418001542891 0.8120131558265498 0  0.3747539870003763 0.8118533617069481 0  0.4371182590225736 0.8116489482543032 0  0.4994064509003002 0.8113810914390469 0  0.561572596924775 0.8110220998365104 0  0.6235404820736156 0.8105300748097443 0  0.6851822402513469 0.8098395461569514 0  0.7462832121984885 0.8088437470085174 0  0.8064933085125693 0.8073575097962442 0  0.8653061715237422 0.805031001082404 0  0.9223466509723763 0.8011326519025321 0  0.9800154998901756 0.7939579678455043 0  0 0.875 0  0.0624871029811449 0.8749453224235548 0  0.1249717268771762 0.8748874587054724 0  0.1874509676242224 0.8748229257061567 0  0.2499208591188026 0.8747475534275192 0  0.3123755309255438 0.8746559987995891 0  0.3748058675834318 0.8745410482662442 0  0.4371972458390322 0.8743925653443354 0  0.4995255439099037 0.8741958513665966 0  0.5617498172231701 0.8739290389338601 0  0.6237983126304708 0.8735588818072662 0  0.6855406839445113 0.8730338105338424 0  0.7467307205603465 0.8722718244025893 0  0.8068849168798288 0.8711358569866733 0  0.8650233178748301 0.8693670098409998 0  0.9191438533509576 0.8663467234036785 0  0.9653830422663611 0.8601287848727911 0  0 0.9375 0  0.06249293391253301 0.9374718435966835 0  0.1249845154524967 0.9374420101635315 0  0.1874731582207608 0.9374086611056172 0  0.2499566877874288 0.9373695824964815 0  0.3124318691545351 0.9373219170670019 0  0.3748936435292747 0.9372617775702473 0  0.4373338151374581 
[...]
<PointData  Vectors="f_54"> 
<DataArray  type="Float64"  Name="f_54"  NumberOfComponents="3" format="ascii">0.0000000000000000e+00 0.0000000000000000e+00 0.0000000000000000e+00  0.0000000000000000e+00 0.0000000000000000e+00 0.0000000000000000e+00  0.0000000000000000e+00 0.0000000000000000e+00 0.0000000000000000e+00  0.0000000000000000e+00 0.0000000000000000e+00 0.0000000000000000e+00  0.0000000000000000e+00 0.0000000000000000e+00 0.0000000000000000e+00  0.0000000000000000e+00 0.0000000000000000e+00 0.0000000000000000e+00  0.0000000000000000e+00 0.0000000000000000e+00 0.0000000000000000e+00  0.0000000000000000e+00 0.0000000000000000e+00 0.0000000000000000e+00  0.0000000000000000e+00 0.0000000000000000e+00 0.0000000000000000e+00  0.0000000000000000e+00 0.0000000000000000e+00 0.0000000000000000e+00  0.0000000000000000e+00 0.0000000000000000e+00 0.0000000000000000e+00  0.0000000000000000e+00 0.0000000000000000e+00 0.0000000000000000e+00  0.0000000000000000e+00 0.0000000000000000e+00 0.0000000000000000e+00  0.0000000000000000e+00 0.0000000000000000e+00 0.0000000000000000e+00  0.0000000000000000e+00 0.0000000000000000e+00 0.0000000000000000e+00  0.0000000000000000e+00 0.0000000000000000e+00 0.0000000000000000e+00  0.0000000000000000e+00 0.0000000000000000e+00 0.0000000000000000e+00  0.0000000000000000e+00 0.0000000000000000e+00 0.0000000000000000e+00  -4.3934495860420317e-06 -2.2017387335295507e-07 0.0000000000000000e+00  -8.9134023333183005e-06 -4.4265089402609886e-07 0.0000000000000000e+00  -1.3688754706261148e-05 -6.6919642319695986e-07 0.0000000000000000e+00  -1.8847545978839455e-05 -9.0014627715187430e-07 0.0000000000000000e+00  -2.4515489301563505e-05 -1.1334808418279066e-06 0.0000000000000000e+00  -3.0813124233179636e-05 -1.3636512812315406e-06 0.0000000000000000e+00  -3.7851291718381826e-05 -1.5801034578818912e-06 0.0000000000000000e+00  -4.5725082600791949e-05 -1.7654799289023629e-06 0.0000000000000000e+00  -5.4507697408260921e-05 -1.8935036458688618e-06 0.0000000000000000e+00  -6.4249242531932906e-05 -1.9264277903340750e-06 0.0000000000000000e+00  -7.4995810739798426e-05 -1.8111614302310356e-06 0.0000000000000000e+00  -8.6875750430272607e-05 -1.4698525807268638e-06 0.0000000000000000e+00  -1.0040373195790559e-04 -7.6767647023860384e-07 0.0000000000000000e+00  -1.1752164397446609e-04 6.1062449508495036e-07 0.0000000000000000e+00  -1.4533659873488316e-04 3.6577638497126901e-06 0.0000000000000000e+00  -2.1122972055481138e-04 1.2244935449239754e-05 0.0000000000000000e+00  0.0000000000000000e+00 0.0000000000000000e+00 0.0000000000000000e+00  -8.6587670269389331e-06 -4.3795916876418877e-07 0.0000000000000000e+00  -1.7571146911573152e-05 -8.8120763303154645e-07 0.0000000000000000e+00  -2.6995783329123556e-05 -1.3340378458980161e-06 0.0000000000000000e+00  -3.7190694099280230e-05 -1.7980542871505125e-06 0.0000000000000000e+00  -4.8410879612294276e-05 -2.2703940200395643e-06 0.0000000000000000e+00  -6.0903081775311846e-05 -2.7414240854908087e-06 0.0000000000000000e+00  -7.4896801563641019e-05 -3.1917867077065198e-06 0.0000000000000000e+00  -9.0591061748011151e-05 -3.5887513848826169e-06 0.0000000000000000e+00  -1.0813752233650906e-04 -3.8819990512495532e-06 0.0000000000000000e+00  -1.2762335146160412e-04 -3.9992179960587437e-06 0.0000000000000000e+00  -1.4906360993440136e-04 -3.8422053017081211e-06 0.0000000000000000e+00  -1.7242587221182076e-04 -3.2846179289752510e-06 0.0000000000000000e+00  -1.9772923737707606e-04 -2.1747465925969555e-06 0.0000000000000000e+00  -2.2524618196607685e-04 -3.6326668858983483e-07 0.0000000000000000e+00  -2.5548123940376092e-04 2.1153765887683786e-06 0.0000000000000000e+00  -2.8592177866841611e-04 3.9161602948757085e-06 0.0000000000000000e+00  0.0000000000000000e+00 0.0000000000000000e+00 0.0000000000000000e+00  -1.2666268029428750e-05 -6.5022847122268007e-07 0.0000000000000000e+00  -2.5713652549531537e-05 -1.3100009085322919e-06 0.0000000000000000e+00  -3.9531359219562331e-05 -1.9875645596378900e-06 0.0000000000000000e+00  -5.4510224519837575e-05 -2.6875736743780409e-06 0.0000000000000000e+00  -7.1040474746683464e-05 -3.4086183329372139e-06 0.0000000000000000e+00  -8.9505133296616059e-05 -4.1399104790011337e-06 0.0000000000000000e+00  -1.1026729850388282e-04 -4.8568652555536155e-06 0.0000000000000000e+00  -1.3364936549709508e-04 -5.5154231671209517e-06 0.0000000000000000e+00  -1.5990223638261597e-04 -6.0452470807709938e-06 0.0000000000000000e+00  -1.8916252978701533e-04 -6.3425771385343922e-06 0.0000000000000000e+00  -2.2139470667727285e-04 -6.2648816712880404e-06 0.0000000000000000e+00  -2.5630826114100570e-04 -5.6322560760347823e-06 0.0000000000000000e+00  -2.9321093269999723e-04 -4.2466177983573688e-06 0.0000000000000000e+00  -3.3065343742195628e-04 -1.9529916041427744e-06 0.0000000000000000e+00  -3.6539485055913506e-04 1.2127856621585624e-06 0.0000000000000000e+00  -3.8946754220498621e-04 4.8094089482385828e-06 0.0000000000000000e+00  0.0000000000000000e+00 0.0000000000000000e+00 0.0000000000000000e+00  -1.6286395272041894e-05 -8.5259902598317428e-07 0.0000000000000000e+00  -3.3080568324866885e-05 -1.7206720724263776e-06 0.0000000000000000e+00  -5.0902030872767648e-05 -2.6183369070017023e-06 0.0000000000000000e+00  -7.0277085384609408e-05 -3.5557630167629454e-06 0.0000000000000000e+00  -9.1738411369858365e-05 -4.5362886770367447e-06 0.0000000000000000e+00  -1.1581903364996855e-04 -5.5523424175972872e-06 0.0000000000000000e+00  -1.4303796074397108e-04 -6.5796828931430092e-06 0.0000000000000000e+00  -1.7387399944382816e-04 -7.5694924695804664e-06 0.0000000000000000e+00  -2.0872308764334664e-04 -8.4380822402947299e-06 0.0000000000000000e+00  -2.4783237992430580e-04 -9.0546657849822146e-06 0.0000000000000000e+00  -2.9119957374797064e-04 -9.2293697162510368e-06 0.0000000000000000e+00  -3.3841407227859033e-04 -8.7073304994410435e-06 0.0000000000000000e+00  -3.8838730325554873e-04 -7.1818921124905684e-06 0.0000000000000000e+00  -4.3885596919827956e-04 -4.3521635605621796e-06 0.0000000000000000e+00  -4.8544497831461158e-04 -6.6120042984318902e-08 0.0000000000000000e+00  -5.2011380024880689e-04 5.3999067372546528e-06 0.0000000000000000e+00  0.0000000000000000e+00 0.0000000000000000e+00 0.0000000000000000e+00  -1.9391255324965588e-05 -1.0390414837602993e-06 0.0000000000000000e+00  -3.9413427938333909e-05 -2.1012968795002521e-06 0.0000000000000000e+00  -6.0713517012620148e-05 -3.2088777353287226e-06 0.0000000000000000e+00  -8.3954049581625999e-05 -4.3803364305317406e-06 0.0000000000000000e+00  -1.0981672880301512e-04 -5.6278022956464345e-06 0.0000000000000000e+00  -1.3899978608646895e-04 -6.9526038397239211e-06 0.0000000000000000e+00  -1.7220560804332379e-04 -8.3385902645779690e-06 0.0000000000000000e+00  -2.1011390831227470e-04 -9.7421584286203873e-06 0.0000000000000000e+00  -2.5333384859681023e-04 -1.1077862480725388e-05 0.0000000000000000e+00  -3.0232569224596182e-04 -1.2198702382077768e-05 0.0000000000000000e+00  -3.5727788794631270e-04 -1.2871363174522447e-05 0.0000000000000000e+00  -4.1791711160933583e-04 -1.2750003640919548e-05 0.0000000000000000e+00  -4.8321437279107127e-04 -1.1359608179171238e-05 0.0000000000000000e+00  -5.5093191903035198e-04 -8.1135183712015779e-06 0.0000000000000000e+00  -6.1696131137667376e-04 -2.4089510276434393e-06 0.0000000000000000e+00  -6.7453981153702588e-04 6.1409564203379416e-06 0.0000000000000000e+00  0.0000000000000000e+00 0.0000000000000000e+00 0.0000000000000000e+00  -2.1857537612274557e-05 -1.2017636287037599e-06 0.0000000000000000e+00  -4.4461179787874665e-05 -2.4360654702127452e-06 0.0000000000000000e+00  -6.8578178842515605e-05 -3.7349548616990058e-06 0.0000000000000000e+00  -9.5003903828999055e-05 -5.1282041261237797e-06 0.0000000000000000e+00  -1.2457214072217779e-04 -6.6410543689516511e-06 0.0000000000000000e+00  -1.5815933564755465e-04 -8.2902960214155966e-06 0.0000000000000000e+00  -1.9667902739881914e-04 -1.0077608473627670e-05 0.0000000000000000e+00  -2.4106102019433206e-04 -1.1978534634901345e-05 0.0000000000000000e+00  -2.9220756781981103e-04 -1.3924703831212637e-05 0.0000000000000000e+00  -3.5091597236618864e-04 -1.5776042076676859e-05 0.0000000000000000e+00  -4.1775371298205446e-04 -1.7279196452793491e-05 0.0000000000000000e+00  -4.9286913198823984e-04 -1.8009607675356804e-05 0.0000000000000000e+00  -5.7571974305961192e-04 -1.7300588586037883e-05 0.0000000000000000e+00  -6.6470724654060570e-04 -1.4178270693188702e-05 0.0000000000000000e+00  -7.5673967846478097e-04 -7.3501360479231831e-06 0.0000000000000000e+00  -8.4683073761204449e-04 4.6699801926042948e-06 0.0000000000000000e+00  0.0000000000000000e+00 0.0000000000000000e+00 0.0000000000000000e+00  -2.3571074131126698e-05 -1.3314531874015675e-06 0.0000000000000000e+00  -4.7989199381873964e-05 -2.7057080885413802e-06 0.0000000000000000e+00  -7.4128218720595908e-05 -4.1660427812359636e-06 0.0000000000000000e+00  -1.0290621378386216e-04 -5.7556641999122495e-06 0.0000000000000000e+00  -1.3530506406876126e-04 -7.5167628407794800e-06 0.0000000000000000e+00  -1.7238536959109565e-04 -9.4880856241152602e-06 0.0000000000000000e+00  -2.1529316454702943e-04 -1.1699835288321891e-05 0.0000000000000000e+00  -2.6525280531414778e-04 -1.4163820192640796e-05 0.0000000000000000e+00  -3.2353768373214988e-04 -1.6855258061338039e-05 0.0000000000000000e+00  -3.9140727013764779e-04 -1.9680174307203265e-05 0.0000000000000000e+00  -4.6999646234363113e-04 -2.2418781743912047e-05 0.0000000000000000e+00  -5.6014387856509040e-04 -2.4631358104016135e-05 0.0000000000000000e+00  -6.6215461892136010e-04 -2.5512536557269697e-05 0.0000000000000000e+00  -7.7551736267366127e-04 -2.3691874767649194e-05 0.0000000000000000e+00  -8.9863972221597898e-04 -1.7017084702099447e-05 0.0000000000000000e+00  -1.0287169991486434e-03 -2.4206338359478745e-06 0.0000000000000000e+00  0.0000000000000000e+00 0.0000000000000000e+00 0.0000000000000000e+00  -2.4433096802061963e-05 -1.4179343053456439e-06 0.0000000000000000e+00  -4.9791989572055739e-05 -2.8888071085937474e-06 0.0000000000000000e+00  -7.7035151175835017e-05 -4.4672618024023005e-06 0.0000000000000000e+00  -1.0718387804235110e-04 -6.2108332964876059e-06 0.0000000000000000e+00  -1.4135328799573391e-04 -8.1809814187781508e-06 0.0000000000000000e+00  -1.8078147149946648e-04 -1.0443290614067926e-05 0.0000000000000000e+00  -2.2685404313016293e-04 -1.3065887659270011e-05 0.0000000000000000e+00  -2.8111897411841057e-04 -1.6114124556098635e-05 0.0000000000000000e+00  -3.4528315742016316e-04 -1.9637551263848451e-05 0.0000000000000000e+00  -4.2117786464204065e-04 -2.3641228661859534e-05 0.0000000000000000e+00  -5.1067649843512537e-04 -2.8025997764119597e-05 0.0000000000000000e+00  -6.1554910350889987e-04 -3.2469739235290315e-05 0.0000000000000000e+00  -7.3725376432758711e-04 -3.6204690620291662e-05 0.0000000000000000e+00  -8.7671164438895958e-04 -3.7636060302424563e-05 0.0000000000000000e+00  -1.0342008051262878e-03 -3.3779113933359847e-05 0.0000000000000000e+00  -1.2095904792485508e-03 -1.9600471989804274e-05 0.0000000000000000e+00  0.0000000000000000e+00 0.0000000000000000e+00 0.0000000000000000e+00  -2.4367968650437078e-05 -1.4512324193121962e-06 0.0000000000000000e+00  -4.9709196708880733e-05 -2.9640166799285090e-06 0.0000000000000000e+00  -7.7035180752852651e-05 -4.6029213228745010e-06 0.0000000000000000e+00  -1.0743937120561984e-04 -6.4387134178324273e-06 0.0000000000000000e+00  -1.4214082216215532e-04 -8.5517932339900319e-06 0.0000000000000000e+00  -1.8253022429669052e-04 -1.1035896463185410e-05 0.0000000000000000e+00  -2.3021722516266920e-04 -1.4001826432805164e-05 0.0000000000000000e+00  -2.8707543803625215e-04 -1.7580305136399144e-05 0.0000000000000000e+00  -3.5527729023559232e-04 -2.1921327926865867e-05 0.0000000000000000e+00  -4.3730440525728629e-04 -2.7183215277494701e-05 0.0000000000000000e+00  -5.3591127878628618e-04 -3.3494604359669292e-05 0.0000000000000000e+00  -6.5401545274061299e-04 -4.0850291199447324e-05 0.0000000000000000e+00  -7.9450217073497064e-04 -4.8856764372550858e-05 0.0000000000000000e+00  -9.6000483099085770e-04 -5.6172119854869516e-05 0.0000000000000000e+00  -1.1529199407257591e-03 -5.9440231342023060e-05 0.0000000000000000e+00  -1.3762962818500441e-03 -5.1651553127681926e-05 0.0000000000000000e+00  0.0000000000000000e+00 0.0000000000000000e+00 0.0000000000000000e+00  -2.3331826044507235e-05 -1.4229526250210089e-06 0.0000000000000000e+00  -4.7643858947562807e-05 -2.9130156784294125e-06 0.0000000000000000e+00  -7.3958974466806874e-05 -4.5414604325689589e-06 0.0000000000000000e+00  -1.0339892030025754e-04 -6.3887811559505599e-06 0.0000000000000000e+00  -1.3724024266974477e-04 -8.5504711109524031e-06 0.0000000000000000e+00  -1.7697809300828093e-04 -1.1144380941658789e-05 0.0000000000000000e+00  -2.2439953834277687e-04 -1.4320488862324602e-05 0.0000000000000000e+00  -2.8166593626755557e-04 -1.8274102522246909e-05 0.0000000000000000e+00  -3.5139937714501461e-04 -2.3263378494053317e-05 0.0000000000000000e+00  -4.3675930549489864e-04 -2.9630407741922676e-05 0.0000000000000000e+00  -5.4148043930458934e-04 -3.7818158483573734e-05 0.0000000000000000e+00  -6.6982375837508078e-04 -4.8351985022480674e-05 0.0000000000000000e+00  -8.2638610277081695e-04 -6.1684000965013091e-05 0.0000000000000000e+00  -1.0157888916723062e-03 -7.7618030708244989e-05 0.0000000000000000e+00  -1.2425874143056699e-03 -9.3722231803239291e-05 0.0000000000000000e+00  -1.5122508969177572e-03 -1.0210578183772225e-04 0.0000000000000000e+00  0.0000000000000000e+00 0.0000000000000000e+00 0.0000000000000000e+00  -2.1321206050117897e-05 -1.3277742563865136e-06 0.0000000000000000e+00  -4.3581017873920282e-05 -2.7237802978760134e-06 0.0000000000000000e+00  -6.7763008816873360e-05 -4.2611242192406315e-06 0.0000000000000000e+00  -9.4960918648055953e-05 -6.0241748713880731e-06 0.0000000000000000e+00  -1.2644424585915617e-04 -8.1160032668410161e-06 0.0000000000000000e+00  -1.6373785568378618e-04 -1.0668478081121448e-05 0.0000000000000000e+00  -2.0872105729092072e-04 -1.3856852125848664e-05 0.0000000000000000e+00  -2.6375111848152738e-04 -1.7921952633385340e-05 0.0000000000000000e+00  -3.3181307479167251e-04 -2.3205426842271695e-05 0.0000000000000000e+00  -4.1668837519819339e-04 -3.0207408903477593e-05 0.0000000000000000e+00  -5.2311303009425149e-04 -3.9680859231571384e-05 0.0000000000000000e+00  -6.5685335672995796e-04 -5.2775294913730747e-05 0.0000000000000000e+00  -8.2456681525591073e-04 -7.1197165695774839e-05 0.0000000000000000e+00  -1.0333183432685836e-03 -9.7107048495462871e-05 0.0000000000000000e+00  -1.2901750495749396e-03 -1.3149894973378537e-04 0.0000000000000000e+00  -1.6042934959564796e-03 -1.6959986708659105e-04 0.0000000000000000e+00  0.0000000000000000e+00 0.0000000000000000e+00 0.0000000000000000e+00  -1.8380396539145453e-05 -1.1647833911829359e-06 0.0000000000000000e+00  -3.7604057079930776e-05 -2.3935573432008631e-06 0.0000000000000000e+00  -5.8558299283989414e-05 -3.7552776440066395e-06 0.0000000000000000e+00  -8.2242677906282910e-05 -5.3306646484459316e-06 0.0000000000000000e+00  -1.0983889987559463e-04 -7.2201020515484035e-06 0.0000000000000000e+00  -1.4280022066676579e-04 -9.5545404826732335e-06 0.0000000000000000e+00  -1.8297021605415592e-04 -1.2511579948088418e-05 0.0000000000000000e+00  -2.3274341872856760e-04 -1.6340718257524572e-05 0.0000000000000000e+00  -2.9528183620094870e-04 -2.1405779631117158e-05 0.0000000000000000e+00  -3.7479757762791751e-04 -2.8261752770788184e-05 0.0000000000000000e+00  -4.7689177881426347e-04 -3.7804274805714662e-05 0.0000000000000000e+00  -6.0887896983460052e-04 -5.1575278934554436e-05 0.0000000000000000e+00  -7.7987754197521536e-04 -7.2390721234671232e-05 0.0000000000000000e+00  -1.0001650760056932e-03 -1.0551347117527313e-04 0.0000000000000000e+00  -1.2792130612963421e-03 -1.5969969580249618e-04 0.0000000000000000e+00  -1.6300396331731732e-03 -2.3168548037201148e-04 0.0000000000000000e+00  0.0000000000000000e+00 0.0000000000000000e+00 0.0000000000000000e+00  -1.4606014435301913e-05 -9.3834665125118403e-07 0.0000000000000000e+00  -2.9905533084718244e-05 -1.9308524206189793e-06 0.0000000000000000e+00  -4.6631082338092014e-05 -3.0360595699205726e-06 0.0000000000000000e+00  -6.5617297656241281e-05 -4.3230484963069576e-06 0.0000000000000000e+00  -8.7867085348374422e-05 -5.8784247991062960e-06 0.0000000000000000e+00  -1.1464006134227646e-04 -7.8157535756831850e-06 0.0000000000000000e+00  -1.4757675797319949e-04 -1.0288926191625409e-05 0.0000000000000000e+00  -1.8887865884325398e-04 -1.3511947605036446e-05 0.0000000000000000e+00  -2.4157347024253957e-04 -1.7790131500218105e-05 0.0000000000000000e+00  -3.0990579163487513e-04 -2.3574926505325682e-05 0.0000000000000000e+00  -3.9989722950159381e-04 -3.1577177999592550e-05 0.0000000000000000e+00  -5.2008629227110771e-04 -4.3044887640868024e-05 0.0000000000000000e+00  -6.8228966811953700e-04 -6.0532357143176336e-05 0.0000000000000000e+00  -9.0163002013069697e-04 -9.0183081019788765e-05 0.0000000000000000e+00  -1.1930099023920843e-03 -1.4929723840074812e-04 0.0000000000000000e+00  -1.5482718184527638e-03 -3.0562813928673564e-04 0.0000000000000000e+00  0.0000000000000000e+00 0.0000000000000000e+00 0.0000000000000000e+00  -1.0147299958107602e-05 -6.5830105918805713e-07 0.0000000000000000e+00  -2.0789080757347109e-05 -1.3558988457221663e-06 0.0000000000000000e+00  -3.2449322223956841e-05 -2.1353213952417008e-06 0.0000000000000000e+00  -4.5730527316444305e-05 -3.0469203022642702e-06 0.0000000000000000e+00  -6.1366263558369731e-05 -4.1538833461878817e-06 0.0000000000000000e+00  -8.0293958443903817e-05 -5.5386000311691029e-06 0.0000000000000000e+00  -1.0376185359501585e-04 -7.3105776563398840e-06 0.0000000000000000e+00  -1.3349308848988270e-04 -9.6152266985577296e-06 0.0000000000000000e+00  -1.7194584085743797e-04 -1.2640284858442331e-05 0.0000000000000000e+00  -2.2273594881478984e-04 -1.6610422870201111e-05 0.0000000000000000e+00  -2.9133378668538422e-04 -2.1748557142236249e-05 0.0000000000000000e+00  -3.8621548036352627e-04 -2.8171638786988178e-05 0.0000000000000000e+00  -5.2073068032339501e-04 -3.5738524463401713e-05 0.0000000000000000e+00  -7.1593898478413505e-04 -4.4206702678214406e-05 0.0000000000000000e+00  -1.0037451946482878e-03 -5.5123821892468668e-05 0.0000000000000000e+00  -1.4245417632852680e-03 -7.9110365774389123e-05 0.0000000000000000e+00  0.0000000000000000e+00 0.0000000000000000e+00 0.0000000000000000e+00  -5.2009408265562924e-06 -3.3938438166916733e-07 0.0000000000000000e+00  -1.0659534979445911e-05 -6.9943042793608668e-07 0.0000000000000000e+00  -1.6649423231905149e-05 -1.1025046518805637e-06 0.0000000000000000e+00  -2.3487206550957094e-05 -1.5751103880182118e-06 0.0000000000000000e+00  -3.1561849295287314e-05 -2.1504378396595544e-06 0.0000000000000000e+00  -4.1376450677288320e-05 -2.8713479099348342e-06 0.0000000000000000e+00  -5.3611583469540070e-05 -3.7932844108402577e-06 0.0000000000000000e+00  -6.9226321382631869e-05 -4.9848273788480944e-06 0.0000000000000000e+00  -8.9626060961942036e-05 -6.5179565217603741e-06 0.0000000000000000e+00  -1.1694942497315605e-04 -8.4224551133697218e-06 0.0000000000000000e+00  -1.5456039616061409e-04 -1.0524055813221679e-05 0.0000000000000000e+00  -2.0783857386131064e-04 -1.1919373069295004e-05 0.0000000000000000e+00  -2.8509014343126057e-04 -9.3789956839299524e-06 0.0000000000000000e+00  -3.9672501171339567e-04 6.9235214740217218e-06 0.0000000000000000e+00  -5.4471740977669924e-04 6.0839213855925500e-05 0.0000000000000000e+00  -6.8965925996977251e-04 1.8174545025761676e-04 0.0000000000000000e+00  0.0000000000000000e+00 0.0000000000000000e+00 0.0000000000000000e+00  0.0000000000000000e+00 0.0000000000000000e+00 0.0000000000000000e+00  0.0000000000000000e+00 0.0000000000000000e+00 0.0000000000000000e+00  0.0000000000000000e+00 0.0000000000000000e+00 0.0000000000000000e+00  0.0000000000000000e+00 0.0000000000000000e+00 0.0000000000000000e+00  0.0000000000000000e+00 0.0000000000