<?xml version="1.0"?>
<VTKFile type="UnstructuredGrid"  version="0.1"  >
<UnstructuredGrid>
<Piece  NumberOfPoints="289" NumberOfCells="512">
<Points>
<DataArray  type="Float64"  NumberOfComponents="3"  format="ascii">0 0 0  0.0625 0 0  0.125 0 0  0.1875 0 0  0.25 0 0  0.3125 0 0  0.375 0 0  0.4375 0 0  0.5 0 0  0.5625 0 0  0.625 0 0  0.6875 0 0  0.75 0 0  0.8125 0 0  0.875 0 0  0.9375 0 0  1 0 0  0 0.0625 0  0.06247388073259787 0.06246912464501241 0  0.1249478418441166 0.06243771296675879 0  0.1874220399672671 0.06240526893891168 0  0.2498969266089328 0.06237141414477444 0  0.3123734473980383 0.06233596336185791 0  0.37485331596852 0.06229901861845698 0  0.4373394072843644 0.06226108222972956 0  0.4998363453293552 0.06222318097157901 0  0.5623514274518522 0.06218697830997399 0  0.6248961888035078 0.06215482595400543 0  0.6874893208564322 0.06212966616320293 0  0.7501627652528955 0.06211463916752197 0  0.8129759385766755 0.06211217374434796 0  0.8760522173423722 0.06212224419921162 0  0.9396788763969915 0.06213954417787325 0  1.00458714155275 0.06215417886728498 0  0 0.125 0  0.06244770458175017 0.1249387604376988 0  0.1248954469065965 0.1248763885498568 0  0.1873434103359965 0.1248118265268539 0  0.2497923413024999 0.124744238216913 0  0.3122439328589909 0.1246731561313818 0  0.3747013536463477 0.1245986702719073 0  0.4371700043027587 0.1245216643855579 0  0.499658628609464 0.1244440913987305 0  0.562180997120529 0.1243692528329243 0  0.6247585685755408 0.1243019995503206 0  0.6874249265861262 0.1242486965876842 0  0.7502335745267062 0.1242166987940036 0  0.8132720175589218 0.1242130291160147 0  0.8766862499612696 0.1242422244407979 0  0.9407152305820482 0.1243049750524454 0  1.005703232728528 0.1244045205241736 0  0 0.1875 0  0.06242160183462572 0.1874095191168524 0  0.1248429480274652 0.187317201676677 0  0.1872639768572655 0.1872213070374195 0  0.2496853878109413 0.1871203907906057 0  0.312109166046902 0.1870135118878657 0  0.3745393090970194 0.1869005122060493 0  0.4369828596385323 0.1867823873903867 0  0.4994513873696759 0.186661754414111 0  0.5619631242076881 0.1865433904204954 0  0.624546048004086 0.1864347548118449 0  0.687242319442529 0.1863462893899869 0  0.7501144905715449 0.1862910791076671 0  0.813253325786929 0.1862830479075406 0  0.8767843207847204 0.1863318944503113 0  0.9408614749890989 0.1864299120916133 0  1.005620128676254 0.186514650121014 0  0 0.25 0  0.06239595039916503 0.2498821187171118 0  0.1247910073064686 0.2497615551202017 0  0.1871844866373764 0.2496357237508368 0  0.2495765570539619 0.2495023615929739 0  0.3119688408302579 0.2493597727352852 0  0.374365258407344 0.2492071819170819 0  0.4367732329504607 0.2490452387167615 0  0.4992053971407726 0.2488767104802692 0  0.5616819630036392 0.2487073820679529 0  0.624233896674387 0.2485471249457613 0  0.6869069038474225 0.2484109726276962 0  0.7497657797143895 0.2483197845033151 0  0.8128974699937549 0.2482995980359494 0  0.8764084852683324 0.2483779361116881 0  0.9404077559535328 0.248574286796771 0  1.004962957712144 0.2488831122733734 0  0 0.3125 0  0.06237144963941336 0.3123574148063011 0  0.1247409814675794 0.3122111510437137 0  0.1871068613077463 0.3120575996971907 0  0.2494681654478199 0.311893431614115 0  0.3118253788246274 0.3117158416656269 0  0.3741812655107795 0.3115229372694195 0  0.4365421426063152 0.3113143434203899 0  0.4989197126885596 0.3110921134422096 0  0.5613336123054331 0.310862045402606 0  0.6238147684476431 0.3106354890867569 0  0.6864094280615353 0.3104316457644909 0  0.7491831755246599 0.3102801327245365 0  0.8122231795102639 0.3102230787336688 0  0.8756353408825338 0.3103151045694388 0  0.9395321488614028 0.3106183287043742 0  1.00401135346521 0.3111888827253812 0  0 0.375 0  0.0623491435127601 0.3748364072319988 0  0.1246949812938297 0.3746680137352469 0  0.1870343192053129 0.3744900266900932 0  0.2493645805374798 0.3742978041492873 0  0.3116843109886774 0.3740870435068845 0  0.3739939701324012 0.3738541364879484 0  0.4362971643013023 0.3735967932886486 0  0.4986025215493164 0.3733150855437403 0  0.5609264440819748 0.3730131199905292 0  0.6232969536866608 0.3727016215629142 0  0.6857586843052675 0.3724017370984138 0  0.7483786386222711 0.3721502655178536 0  0.8112515045465168 0.3720060606236502 0  0.8745023487334254 0.3720562067475935 0  0.9382846687340194 0.3724185230462471 0  1.002776355874511 0.3732345667494719 0  0 0.4375 0  0.06233038487535824 0.4373202135742938 0  0.1246558077272674 0.4371344438391279 0  0.1869712988437399 0.4369366177166031 0  0.2492721581677232 0.4367205897452899 0  0.3115542669074619 0.4364802061294257 0  0.3738146740989021 0.4362095283226884 0  0.4360526409263218 0.4359033366684175 0  0.4982714182339365 0.435558113713496 0  0.5604811548154921 0.435173833631244 0  0.622703464256855 0.4347570738621164 0  0.684978246221192 0.4343262116793208 0  0.7473732096914982 0.4339196839741198 0  0.8099959519260326 0.43360816737848 0  0.8730073488109049 0.4335103765868528 0  0.9366343867791923 0.4338090540588765 0  1.00118407421781 0.4347590497401651 0  0 0.5 0  0.06231673789778541 0.4998100026065296 0  0.1246267567795009 0.4996128875627507 0  0.1869231684658243 0.4994013194005659 0  0.2491988672908308 0.4991675827277064 0  0.3114465444390029 0.4989034507758935 0  0.3736589192642082 0.4986001630719812 0  0.4358293832361794 0.4982486223245053 0  0.4979534054500421 0.4978400197918771 0  0.5600313027376074 0.4973672807366624 0  0.6220733669992992 0.4968280480097663 0  0.6841088607445018 0.496230475927385 0  0.7462008821627313 0.4956039410429737 0  0.8084690589960321 0.4950176798385993 0  0.871120527742962 0.4946102198647607 0  0.9344864720875431 0.4946284291702601 0  0.9990620259479028 0.4954642219017679 0  0 0.5625 0  0.06230982114639132 0.5623068861594194 0  0.1246112955006166 0.5621057142542338 0  0.1868957176994319 0.5618880649688122 0  0.2491535822979993 0.5616447812842665 0  0.3113742091454156 0.5613655869753019 0  0.3735454589752106 0.5610387153238582 0  0.4356537023303705 0.5606506067325426 0  0.4976844043937859 0.5601858226508829 0  0.5596240785275612 0.5596275129335299 0  0.6214650862000761 0.5589591769431573 0  0.6832160011481493 0.5581693031014375 0  0.7449220728662916 0.5572621675532752 0  0.8067021123136916 0.5562811153524365 0  0.8688074040596152 0.5553545154530565 0  0.9317002938244993 0.5547737222985695 0  0.9961347481609814 0.5550938749798495 0  0 0.625 0  0.06231110119691972 0.6248117760241576 0  0.1246126253946768 0.6246149132882423 0  0.1868944458956235 0.624400276901467 0  0.249145037742075 0.6241576448999379 0  0.3113506634986321 0.6238750616822551 0  0.3734944449454142 0.6235380663069271 0  0.4355553755001162 0.6231287621066949 0  0.4975075146894309 0.6226247285632237 0  0.5593200503956927 0.6219978841813647 0  0.6209599129731459 0.6212137158147015 0  0.682400729416539 0.6202321312619354 0  0.7436459465631049 0.6190134513082065 0  0.8047804074782043 0.617538883434825 0  0.8660703699983019 0.615867997495372 0  0.9281226214176129 0.6142727980909204 0  0.9920820336632594 0.61346173737573 0  0 0.6875 0  0.06232165651681417 0.6873252228013855 0  0.1246331709071856 0.6871417443871438 0  0.1869236961943656 0.6869402702380332 0  0.2491804873639031 0.6867101526429799 0  0.3113876752692315 0.6864385227559395 0  0.3735246684014416 0.6861091579769166 0  0.4355640447767305 0.6857009398768471 0  0.4974688661497381 0.6851857026532462 0  0.559189642767727 0.684525205373227 0  0.620662100979484 0.6836669301723122 0  0.681809447772265 0.6825386333056205 0  0.7425592447194662 0.6810429608834703 0  0.8028996615108369 0.6790595309821621 0  0.8630264199784379 0.6764859871164989 0  0.923637720833975 0.673430766482583 0  0.9863264063691369 0.6706841166849495 0  0 0.75 0  0.06234194323319096 0.7498472633368775 0  0.1246740587092458 0.749686398790631 0  0.1869857374362811 0.7495086531631459 0  0.2492642005839832 0.7493038105393537 0  0.3114929984745763 0.7490592101615123 0  0.3736498938051305 0.7487584009242638 0  0.4357037550827331 0.7483791993654256 0  0.4976099326122519 0.7478907778249363 0  0.5593034603738002 0.7472491539810818 0  0.6206896092071276 0.74638997386351 0  0.6816328322319687 0.7452165793601093 0  0.741951321812695 0.7435798269266367 0  0.8014455412633444 0.7412449092718418 0  0.8600553783331197 0.7378499986453664 0  0.9184130760649082 0.7329681973648657 0  0.978462424414684 0.7274347731277472 0  0 0.8125 0  0.06237160543826006 0.8123773090121105 0  0.1247346823167911 0.8122477436303277 0  0.1870799582702407 0.81210385483221 0  0.2493960552316442 0.8119368273301423 0  0.3116679608351036 0.8117355369449661 0  0.3738747554345068 0.8114852253706708 0  0.4359860404883969 0.8111655357664485 0  0.4979561155091702 0.8107474868079099 0  0.5597142441893913 0.8101886462515567 0  0.62114817897931 0.8094251050853999 0  0.68207653802677 0.8083573106971518 0  0.7422052266795688 0.8068228145998462 0  0.8010728571885107 0.8045379885827941 0  0.8580536697233931 0.8009604914409257 0  0.9128422997275167 0.7949413084950728 0  0.9698500987115779 0.7836478836658437 0  0 0.875 0  0.06240937761460815 0.8749141053390012 0  0.1248124631338819 0.8748232198930331 0  0.1872023835403507 0.8747219128876847 0  0.2495706001305224 0.8746036967757219 0  0.3119056610549051 0.8744602877262924 0  0.3741912822814052 0.8742805548152889 0  0.4364031980770157 0.8740489540932249 0  0.4985037241618848 0.8737431297210022 0  0.5604319368464677 0.8733301826113451 0  0.6220851410554885 0.8727608101354031 0  0.6832824224986612 0.8719599213674634 0  0.7436904219700662 0.8708104149554391 0  0.802669226448706 0.8691182292762011 0  0.8589569360895849 0.8665069631861684 0  0.9100803966059106 0.8620240483258852 0  0.9515562637489268 0.8526456612232997 0  0 0.9375 0  0.062453119433957 0.9374557826476272 0  0.1249029066585192 0.9374089411813185 0  0.1873457144680011 0.9373566133898817 0  0.2497769844900725 0.9372953620500228 0  0.3121905550427029 0.9372207702260507 0  0.3745775791694481 0.9371268651844427 0  0.436924711144235 0.937005265496
[...]
<PointData  Vectors="f_54"> 
<DataArray  type="Float64"  Name="f_54"  NumberOfComponents="3" format="ascii">0.0000000000000000e+00 0.0000000000000000e+00 0.0000000000000000e+00  0.0000000000000000e+00 0.0000000000000000e+00 0.0000000000000000e+00  0.0000000000000000e+00 0.0000000000000000e+00 0.0000000000000000e+00  0.0000000000000000e+00 0.0000000000000000e+00 0.0000000000000000e+00  0.0000000000000000e+00 0.0000000000000000e+00 0.0000000000000000e+00  0.0000000000000000e+00 0.0000000000000000e+00 0.0000000000000000e+00  0.0000000000000000e+00 0.0000000000000000e+00 0.0000000000000000e+00  0.0000000000000000e+00 0.0000000000000000e+00 0.0000000000000000e+00  0.0000000000000000e+00 0.0000000000000000e+00 0.0000000000000000e+00  0.0000000000000000e+00 0.0000000000000000e+00 0.0000000000000000e+00  0.0000000000000000e+00 0.0000000000000000e+00 0.0000000000000000e+00  0.0000000000000000e+00 0.0000000000000000e+00 0.0000000000000000e+00  0.0000000000000000e+00 0.0000000000000000e+00 0.0000000000000000e+00  0.0000000000000000e+00 0.0000000000000000e+00 0.0000000000000000e+00  0.0000000000000000e+00 0.0000000000000000e+00 0.0000000000000000e+00  0.0000000000000000e+00 0.0000000000000000e+00 0.0000000000000000e+00  0.0000000000000000e+00 0.0000000000000000e+00 0.0000000000000000e+00  0.0000000000000000e+00 0.0000000000000000e+00 0.0000000000000000e+00  -9.6559255049750246e-07 -2.7467388517039716e-08 0.0000000000000000e+00  -1.9830225996632482e-06 -5.5933343538049809e-08 0.0000000000000000e+00  -3.1086680195454178e-06 -8.6418226828516647e-08 0.0000000000000000e+00  -4.4065794061128887e-06 -1.1991921022268769e-07 0.0000000000000000e+00  -5.9530845905927012e-06 -1.5734940089389738e-07 0.0000000000000000e+00  -7.8423706580185472e-06 -1.9939519388480361e-07 0.0000000000000000e+00  -1.0193702319619454e-05 -2.4622110873653145e-07 0.0000000000000000e+00  -1.3161611547592655e-05 -2.9688999454595772e-07 0.0000000000000000e+00  -1.6952207677854917e-05 -3.4823324874091255e-07 0.0000000000000000e+00  -2.1853725809533910e-05 -3.9257444964137316e-07 0.0000000000000000e+00  -2.8303531801356183e-05 -4.1275887395670252e-07 0.0000000000000000e+00  -3.7055990504596498e-05 -3.6985905679698259e-07 0.0000000000000000e+00  -4.9650655197877053e-05 -1.6796185100602025e-07 0.0000000000000000e+00  -6.9847552198547166e-05 4.6161789586949792e-07 0.0000000000000000e+00  -1.0846732202936017e-04 2.3886457295307306e-06 0.0000000000000000e+00  -2.0174396542592331e-04 8.8713506402224613e-06 0.0000000000000000e+00  0.0000000000000000e+00 0.0000000000000000e+00 0.0000000000000000e+00  -1.8775883638241697e-06 -5.3885948391527778e-08 0.0000000000000000e+00  -3.8551197751094045e-06 -1.0977116341566867e-07 0.0000000000000000e+00  -6.0411919088095142e-06 -1.6971281559334300e-07 0.0000000000000000e+00  -8.5591810153769589e-06 -2.3576398128023582e-07 0.0000000000000000e+00  -1.1556069095402499e-05 -3.0989228300439864e-07 0.0000000000000000e+00  -1.5213017490724509e-05 -3.9376625097087495e-07 0.0000000000000000e+00  -1.9758634636802687e-05 -4.8829803253655504e-07 0.0000000000000000e+00  -2.5486580650901045e-05 -5.9274791466989148e-07 0.0000000000000000e+00  -3.2780902514313603e-05 -7.0304958314712333e-07 0.0000000000000000e+00  -4.2156814866683198e-05 -8.0875390229952086e-07 0.0000000000000000e+00  -5.4334945618598431e-05 -8.8753271538744934e-07 0.0000000000000000e+00  -7.0390149299721995e-05 -8.9554934680648961e-07 0.0000000000000000e+00  -9.2060415277700516e-05 -7.5241977398240176e-07 0.0000000000000000e+00  -1.2234547864908130e-04 -3.3064081068188649e-07 0.0000000000000000e+00  -1.6628280139114343e-04 4.5738803074977228e-07 0.0000000000000000e+00  -2.2920494447654322e-04 8.5224469473122183e-07 0.0000000000000000e+00  0.0000000000000000e+00 0.0000000000000000e+00 0.0000000000000000e+00  -2.6871156116043458e-06 -7.8231425157864297e-08 0.0000000000000000e+00  -5.5152100824357858e-06 -1.5945155621151797e-07 0.0000000000000000e+00  -8.6372379591741468e-06 -2.4676496687344416e-07 0.0000000000000000e+00  -1.2226990698771461e-05 -3.4335906233289661e-07 0.0000000000000000e+00  -1.6491505431919857e-05 -4.5246659373325080e-07 0.0000000000000000e+00  -2.1685770784680832e-05 -5.7719218033294934e-07 0.0000000000000000e+00  -2.8130604436459434e-05 -7.2008614105906606e-07 0.0000000000000000e+00  -3.6234719673540907e-05 -8.8226910774488910e-07 0.0000000000000000e+00  -4.6522301217818144e-05 -1.0617963372857708e-06 0.0000000000000000e+00  -5.9667934626740533e-05 -1.2508248936512135e-06 0.0000000000000000e+00  -7.6540963810514982e-05 -1.4311368470058946e-06 0.0000000000000000e+00  -9.8257669440107831e-05 -1.5681319021619364e-06 0.0000000000000000e+00  -1.2621571707810609e-04 -1.6058900114658813e-06 0.0000000000000000e+00  -1.6198028248716191e-04 -1.4733654739489341e-06 0.0000000000000000e+00  -2.0651620007653649e-04 -1.1239164802823341e-06 0.0000000000000000e+00  -2.5722122421487396e-04 -5.7380073980473027e-07 0.0000000000000000e+00  0.0000000000000000e+00 0.0000000000000000e+00 0.0000000000000000e+00  -3.3526644458364342e-06 -9.9497081447143396e-08 0.0000000000000000e+00  -6.8774232998223025e-06 -2.0291882417705830e-07 0.0000000000000000e+00  -1.0760581892181192e-05 -3.1438271972163576e-07 0.0000000000000000e+00  -1.5213892749544730e-05 -4.3824416392241284e-07 0.0000000000000000e+00  -2.0489782838158795e-05 -5.7916958783215683e-07 0.0000000000000000e+00  -2.6899420844973187e-05 -7.4211852840072518e-07 0.0000000000000000e+00  -3.4834412402060017e-05 -9.3214194735105201e-07 0.0000000000000000e+00  -4.4792468352717314e-05 -1.1538301262260344e-06 0.0000000000000000e+00  -5.7406267047765932e-05 -1.4101335092633624e-06 0.0000000000000000e+00  -7.3472041366031535e-05 -1.7001557412043551e-06 0.0000000000000000e+00  -9.3967994935262178e-05 -2.0154966466562764e-06 0.0000000000000000e+00  -1.2003700475604661e-04 -2.3351725683094814e-06 0.0000000000000000e+00  -1.5286981530714485e-04 -2.6209595688759890e-06 0.0000000000000000e+00  -1.9333605252188770e-04 -2.8198467495992950e-06 0.0000000000000000e+00  -2.4103757731824656e-04 -2.8901744233216251e-06 0.0000000000000000e+00  -2.9229466888975350e-04 -2.8888475679556565e-06 0.0000000000000000e+00  0.0000000000000000e+00 0.0000000000000000e+00 0.0000000000000000e+00  -3.8430485488509621e-06 -1.1673904282826773e-07 0.0000000000000000e+00  -7.8772267994742657e-06 -2.3821436304136786e-07 0.0000000000000000e+00  -1.2308800463303818e-05 -3.6943728268045533e-07 0.0000000000000000e+00  -1.7372250135261654e-05 -5.1585350770400849e-07 0.0000000000000000e+00  -2.3347433898297678e-05 -6.8357465671629836e-07 0.0000000000000000e+00  -3.0580344624685209e-05 -8.7960638540453594e-07 0.0000000000000000e+00  -3.9508513767376497e-05 -1.1120332033543812e-06 0.0000000000000000e+00  -5.0691507562626605e-05 -1.3900564517654657e-06 0.0000000000000000e+00  -6.4845321935625788e-05 -1.7236528098055272e-06 0.0000000000000000e+00  -8.2875655020726280e-05 -2.1223805412249362e-06 0.0000000000000000e+00  -1.0589683384668737e-04 -2.5924686944099719e-06 0.0000000000000000e+00  -1.3520671571474224e-04 -3.1308225535016313e-06 0.0000000000000000e+00  -1.7215734907009866e-04 -3.7142796858585819e-06 0.0000000000000000e+00  -2.1781222888284790e-04 -4.2831728318060943e-06 0.0000000000000000e+00  -2.7223011072289547e-04 -4.7209166366574659e-06 0.0000000000000000e+00  -3.3326212965236905e-04 -4.8331326673085355e-06 0.0000000000000000e+00  0.0000000000000000e+00 0.0000000000000000e+00 0.0000000000000000e+00  -4.1396066609405430e-06 -1.2914933099083521e-07 0.0000000000000000e+00  -8.4760308101128972e-06 -2.6363488080531272e-07 0.0000000000000000e+00  -1.3220673926374867e-05 -4.0913344010476310e-07 0.0000000000000000e+00  -1.8613618704814350e-05 -5.7194464908717901e-07 0.0000000000000000e+00  -2.4941579838640038e-05 -7.5939023786281766e-07 0.0000000000000000e+00  -3.2560431543830435e-05 -9.8032548691826193e-07 0.0000000000000000e+00  -4.1924125130492699e-05 -1.2458084201396857e-06 0.0000000000000000e+00  -5.3621649758575849e-05 -1.5699485380278755e-06 0.0000000000000000e+00  -6.8422681221930716e-05 -1.9708520829315610e-06 0.0000000000000000e+00  -8.7329637295911346e-05 -2.4712645664822857e-06 0.0000000000000000e+00  -1.1162715780063975e-04 -3.0977140341408140e-06 0.0000000000000000e+00  -1.4290693545082519e-04 -3.8752215563274761e-06 0.0000000000000000e+00  -1.8302441484614325e-04 -4.8114660799443459e-06 0.0000000000000000e+00  -2.3391862784621692e-04 -5.8599146139026838e-06 0.0000000000000000e+00  -2.9722222319538262e-04 -6.8486695838967746e-06 0.0000000000000000e+00  -3.7366897844480615e-04 -7.3673899373502670e-06 0.0000000000000000e+00  0.0000000000000000e+00 0.0000000000000000e+00 0.0000000000000000e+00  -4.2374280888908844e-06 -1.3614375707285881e-07 0.0000000000000000e+00  -8.6638597276076914e-06 -2.7793010757375684e-07 0.0000000000000000e+00  -1.3480760213128291e-05 -4.3136670943870050e-07 0.0000000000000000e+00  -1.8915946217712847e-05 -6.0320339282262963e-07 0.0000000000000000e+00  -2.5240729366964037e-05 -8.0145454388088571e-07 0.0000000000000000e+00  -3.2792559700260335e-05 -1.0361462383206877e-06 0.0000000000000000e+00  -4.2006096406594883e-05 -1.3204428373391414e-06 0.0000000000000000e+00  -5.3456486723506067e-05 -1.6723768062177086e-06 0.0000000000000000e+00  -6.7919314557892305e-05 -2.1174498170263292e-06 0.0000000000000000e+00  -8.6451389102017021e-05 -2.6922408408724805e-06 0.0000000000000000e+00  -1.1049359642118725e-04 -3.4484034239985842e-06 0.0000000000000000e+00  -1.4198862979769228e-04 -4.4539737926289142e-06 0.0000000000000000e+00  -1.8349000449514112e-04 -5.7826436879690278e-06 0.0000000000000000e+00  -2.3821927174791358e-04 -7.4691641179246717e-06 0.0000000000000000e+00  -3.1003669316160567e-04 -9.3922589329899761e-06 0.0000000000000000e+00  -4.0340206609563257e-04 -1.1038950724587611e-05 0.0000000000000000e+00  0.0000000000000000e+00 0.0000000000000000e+00 0.0000000000000000e+00  -4.1453829901933612e-06 -1.3744218090556172e-07 0.0000000000000000e+00  -8.4596292970561966e-06 -2.8048957929070965e-07 0.0000000000000000e+00  -1.3120411571332265e-05 -4.3507782635243903e-07 0.0000000000000000e+00  -1.8326268960039706e-05 -6.0788109673647489e-07 0.0000000000000000e+00  -2.4310832153255899e-05 -8.0685600279985122e-07 0.0000000000000000e+00  -3.1362860255154657e-05 -1.0420695395817665e-06 0.0000000000000000e+00  -3.9856065390549989e-05 -1.3270581497559490e-06 0.0000000000000000e+00  -5.0294915506809512e-05 -1.6811643561674546e-06 0.0000000000000000e+00  -6.3385791731919626e-05 -2.1336328535783870e-06 0.0000000000000000e+00  -8.0146854558534167e-05 -2.7307160357615557e-06 0.0000000000000000e+00  -1.0207348221332081e-04 -3.5473537879855553e-06 0.0000000000000000e+00  -1.3137544178248934e-04 -4.7038417486051923e-06 0.0000000000000000e+00  -1.7128968711858125e-04 -6.3811027209921029e-06 0.0000000000000000e+00  -2.2644423693402325e-04 -8.8061381401549750e-06 0.0000000000000000e+00  -3.0323913786399384e-04 -1.2132195366801726e-05 0.0000000000000000e+00  -4.1037473100777609e-04 -1.6095277286282488e-05 0.0000000000000000e+00  0.0000000000000000e+00 0.0000000000000000e+00 0.0000000000000000e+00  -3.8847601794580417e-06 -1.3311472164126115e-07 0.0000000000000000e+00  -7.9085546587207518e-06 -2.7145698359743329e-07 0.0000000000000000e+00  -1.2214308735892441e-05 -4.2048885201106468e-07 0.0000000000000000e+00  -1.6957241943635181e-05 -5.8626304309940481e-07 0.0000000000000000e+00  -2.2313739599664425e-05 -7.7585126358475436e-07 0.0000000000000000e+00  -2.8495078381431212e-05 -9.9800956253820407e-07 0.0000000000000000e+00  -3.5770343862097818e-05 -1.2643316020801708e-06 0.0000000000000000e+00  -4.4506373938054712e-05 -1.5914258079916376e-06 0.0000000000000000e+00  -5.5238546918252828e-05 -2.0052769320880337e-06 0.0000000000000000e+00  -6.8795847285180270e-05 -2.5502705784784518e-06 0.0000000000000000e+00  -8.6517461970670768e-05 -3.3079091103774501e-06 0.0000000000000000e+00  -1.1061350664779402e-04 -4.4342064575702275e-06 0.0000000000000000e+00  -1.4472632488279167e-04 -6.2267616661126942e-06 0.0000000000000000e+00  -1.9470836443278490e-04 -9.2136945001258025e-06 0.0000000000000000e+00  -2.6953652822734871e-04 -1.4158184381003325e-05 0.0000000000000000e+00  -3.8240473566016709e-04 -2.1637735112065722e-05 0.0000000000000000e+00  0.0000000000000000e+00 0.0000000000000000e+00 0.0000000000000000e+00  -3.4864173233276553e-06 -1.2357252773306416e-07 0.0000000000000000e+00  -7.0763724290801644e-06 -2.5171893005328808e-07 0.0000000000000000e+00  -1.0871683785605386e-05 -3.8911088233798197e-07 0.0000000000000000e+00  -1.4975612187124739e-05 -5.4075104671606477e-07 0.0000000000000000e+00  -1.9494152516352825e-05 -7.1216621560769742e-07 0.0000000000000000e+00  -2.4539461659337271e-05 -9.0966778894777438e-07 0.0000000000000000e+00  -3.0238761683011969e-05 -1.1407854332804007e-06 0.0000000000000000e+00  -3.6756083366895532e-05 -1.4151794670444427e-06 0.0000000000000000e+00  -4.4342204416481616e-05 -1.7469213920863885e-06 0.0000000000000000e+00  -5.3443368929348114e-05 -2.1606928180827410e-06 0.0000000000000000e+00  -6.4926859924934897e-05 -2.7089908144575851e-06 0.0000000000000000e+00  -8.0526511235402341e-05 -3.5190765299345901e-06 0.0000000000000000e+00  -1.0366856285993832e-04 -4.9148580971828898e-06 0.0000000000000000e+00  -1.4084348676794578e-04 -7.6998203255264965e-06 0.0000000000000000e+00  -2.0341383952500257e-04 -1.3635167162469252e-05 0.0000000000000000e+00  -3.0942678452713836e-04 -2.5544349830382186e-05 0.0000000000000000e+00  0.0000000000000000e+00 0.0000000000000000e+00 0.0000000000000000e+00  -2.9865705427201669e-06 -1.0949710583477011e-07 0.0000000000000000e+00  -6.0405026818524742e-06 -2.2274861412972774e-07 0.0000000000000000e+00  -9.2220436409642681e-06 -3.4346913392344392e-07 0.0000000000000000e+00  -1.2581482549824508e-05 -4.7541918184216319e-07 0.0000000000000000e+00  -1.6151680353056941e-05 -6.2232929032373833e-07 0.0000000000000000e+00  -1.9938297172802609e-05 -7.8766310898556910e-07 0.0000000000000000e+00  -2.3908260915968249e-05 -9.7406245196593835e-07 0.0000000000000000e+00  -2.7980014302955115e-05 -1.1822069200362649e-06 0.0000000000000000e+00  -3.2026537798912528e-05 -1.4087510307743899e-06 0.0000000000000000e+00  -3.5919596919967746e-05 -1.6434385939885460e-06 0.0000000000000000e+00  -3.9682546690278256e-05 -1.8684014397377990e-06 0.0000000000000000e+00  -4.3901876116460628e-05 -2.0752864826028136e-06 0.0000000000000000e+00  -5.0713099506654056e-05 -2.3632873594010950e-06 0.0000000000000000e+00  -6.5940292605909482e-05 -3.3443921203858577e-06 0.0000000000000000e+00  -1.0279573239088185e-04 -7.5366340957215913e-06 0.0000000000000000e+00  -1.8422428989644523e-04 -2.1927331973827814e-05 0.0000000000000000e+00  0.0000000000000000e+00 0.0000000000000000e+00 0.0000000000000000e+00  -2.4216873834418189e-06 -9.1724784689730055e-08 0.0000000000000000e+00  -4.8790180074614915e-06 -1.8633924106671087e-07 0.0000000000000000e+00  -7.3964817954982574e-06 -2.8659866557220126e-07 0.0000000000000000e+00  -9.9791894743028166e-06 -3.9509901851812573e-07 0.0000000000000000e+00  -1.2597429145981571e-05 -5.1402291173718693e-07 0.0000000000000000e+00  -1.5163675261149663e-05 -6.4457933302571723e-07 0.0000000000000000e+00  -1.7498258248455343e-05 -7.8577537706899602e-07 0.0000000000000000e+00  -1.9279778827341248e-05 -9.3169912738594952e-07 0.0000000000000000e+00  -1.9978977170010690e-05 -1.0654347548615861e-06 0.0000000000000000e+00  -1.8786160586253258e-05 -1.1454404261003598e-06 0.0000000000000000e+00  -1.4578293834423664e-05 -1.0759864646218903e-06 0.0000000000000000e+00  -6.0729176671922356e-06 -6.4876850909454354e-07 0.0000000000000000e+00  7.4131366731006018e-06 5.4422620976120258e-07 0.0000000000000000e+00  2.3449254846154571e-05 3.0923589927514687e-06 0.0000000000000000e+00  2.9076417979555404e-05 6.5986265780459552e-06 0.0000000000000000e+00  -1.0280521747898371e-05 -8.2862729808117680e-07 0.0000000000000000e+00  0.0000000000000000e+00 0.0000000000000000e+00 0.0000000000000000e+00  -1.8233279039253897e-06 -7.1123145620179357e-08 0.0000000000000000e+00  -3.6591912574127308e-06 -1.4431560001915386e-07 0.0000000000000000e+00  -5.5074023420785320e-06 -2.2148569004921644e-07 0.0000000000000000e+00  -7.3437027571689537e-06 -3.0432021454679502e-07 0.0000000000000000e+00  -9.0997006695212574e-06 -3.9402568142710900e-07 0.0000000000000000e+00  -1.0631094541886364e-05 -4.9082535550331714e-07 0.0000000000000000e+00  -1.1665924716750591e-05 -5.9293452632478563e-07 0.0000000000000000e+00  -1.1719850630354131e-05 -6.9431515820302469e-07 0.0000000000000000e+00  -9.9589044330535375e-06 -7.7927014510536223e-07 0.0000000000000000e+00  -4.9842581782728721e-06 -8.0822630021062348e-07 0.0000000000000000e+00  5.4800688365585431e-06 -6.7823942873160576e-07 0.0000000000000000e+00  2.4955524922233011e-05 -1.1238881197291860e-07 0.0000000000000000e+00  5.8347679680947255e-05 1.6378125632213667e-06 0.0000000000000000e+00  1.1073042268036409e-04 6.5304257906324633e-06 0.0000000000000000e+00  1.8059450122153776e-04 1.9461292872312857e-05 0.0000000000000000e+00  2.2077976649485421e-04 5.5094475708908996e-05 0.0000000000000000e+00  0.0000000000000000e+00 0.0000000000000000e+00 0.0000000000000000e+00  -1.2140645244128506e-06 -4.8501245410120714e-08 0.0000000000000000e+00  -2.4281554854779473e-06 -9.8329960509360108e-08 0.0000000000000000e+00  -3.6311643254413162e-06 -1.5068591446123571e-07 0.0000000000000000e+00  -4.7899244818105477e-06 -2.0660517720699383e-07 0.0000000000000000e+00  -5.8301534392762004e-06 -2.6682878787428243e-07 0.0000000000000000e+00  -6.6049481638481879e-06 -3.3165085235750137e-07 0.0000000000000000e+00  -6.8405262290649159e-06 -4.0084727006386130e-07 0.0000000000000000e+00  -6.0405555894100757e-06 -4.7401369965418447e-07 0.0000000000000000e+00  -3.3148363276780856e-06 -5.5210582859535060e-07 0.0000000000000000e+00  2.9298496679253265e-06 -6.4140697926008594e-07 0.0000000000000000e+00  1.5544125132210826e-05 -7.5873152635733466e-07 0.0000000000000000e+00  3.9595328020685656e-05 -9.1695476505331108e-07 0.0000000000000000e+00  8.3858399635288291e-05 -9.8036109610862909e-07 0.0000000000000000e+00  1.6241063436401619e-04 -7.1315046141444161e-09 0.0000000000000000e+00  2.9321093028017323e-04 5.7035636460865790e-06 0.0000000000000000e+00  4.8274298884759602e-04 2.6201425382017214e-05 0.0000000000000000e+00  0.0000000000000000e+00 0.0000000000000000e+00 0.0000000000000000e+00  -6.0562488409541363e-07 -2.4577824870063042e-08 0.0000000000000000e+00  -1.2083961798023011e-06 -4.9805105060144162e-08 0.0000000000000000e+00  -1.7989397709710842e-06 -7.6265675782358145e-08 0.0000000000000000e+00  -2.3546355122869650e-06 -1.0447274906706799e-07 0.0000000000000000e+00  -2.8278757666817040e-06 -1.3485263782889435e-07 0.0000000000000000e+00  -3.1260870085745224e-06 -1.6784601012084660e-07 0.0000000000000000e+00  -3.0760178480468530e-06 -2.0446854475278583e-07 0.0000000000000000e+00  -2.3576596058982469e-06 -2.4846267192991495e-07 0.0000000000000000e+00  -3.7831745834417077e-07 -3.1371422068323607e-07 0.0000000000000000e+00  3.9732155384107277e-06 -4.4882117908931608e-07 0.0000000000000000e+00  1.2811020564230953e-05 -8.1702056264838098e-07 0.0000000000000000e+00  3.0176590371312740e-05 -1.9501799765986572e-06 0.0000000000000000e+00  6.3545523844812799e-05 -5.5057387829994488e-06 0.0000000000000000e+00  1.2481669211080015e-04 -1.6125728617391741e-05 0.0000000000000000e+00  2.2371901312699349e-04 -4.3458913543430563e-05 0.0000000000000000e+00  3.3904820638015352e-04 -9.2982846359844823e-05 0.0000000000000000e+00  0.0000000000000000e+00 0.0000000000000000e+00 0.0000000000000000e+00  0.0000000000000000e+00 0.0000000000000000e+00 0.0000000000000000e+00  0.0000000000000000e+00 0.0000000000000000e+00 0.0000000000000000e+00  0.0000000000000000e+00 0.0000000000000000e+00 0.0000000000000000e+00  0.0000000000000000e+00 0.0000000000000000e+00 0.0000000000000000e+00  0.0000000000000000e+00 0.0000000000000000e+00 0.00000000000