<?xml version="1.0"?>
<VTKFile type="UnstructuredGrid"  version="0.1"  >
<UnstructuredGrid>
<Piece  NumberOfPoints="289" NumberOfCells="512">
<Points>
<DataArray  type="Float64"  NumberOfComponents="3"  format="ascii">0 0 0  0.0625 0 0  0.125 0 0  0.1875 0 0  0.25 0 0  0.3125 0 0  0.375 0 0  0.4375 0 0  0.5 0 0  0.5625 0 0  0.625 0 0  0.6875 0 0  0.75 0 0  0.8125 0 0  0.875 0 0  0.9375 0 0  1 0 0  0 0.0625 0  0.06247819740305587 0.06249665820416722 0  0.1249562749098754 0.06249326133142116 0  0.1874341948889631 0.06248976063798636 0  0.2499121093752183 0.06248612127158164 0  0.3123904906112214 0.06248233111647335 0  0.3748703101846073 0.06247841158719619 0  0.4373532945808454 0.06247443024278633 0  0.4998423025946637 0.06247051397157148 0  0.5623419103443643 0.06246685945636668 0  0.6248593893861983 0.06246373411826137 0  0.6874065285819068 0.06246145470847298 0  0.7500035048069059 0.0624603188670024 0  0.8126883093828724 0.06246043239102415 0  0.8755427921957983 0.06246124904574493 0  0.9387731973413715 0.06246007889178592 0  1.002988187326935 0.06244647763243239 0  0 0.125 0  0.06245651933318365 0.1249933679519101 0  0.1249127122575845 0.124986618862935 0  0.1873684044305996 0.1249796475768924 0  0.249823773292799 0.1249723752428279 0  0.3122795911413089 0.1249647666121596 0  0.3747375582133428 0.1249568518539829 0  0.4372007731797953 0.124948753204856 0  0.4996744112962964 0.1249407148872679 0  0.5621667262708462 0.1249331311788911 0  0.6246905893242962 0.1249265615050209 0  0.6872659916673035 0.1249217128194268 0  0.7499243905123287 0.1249193622617887 0  0.8127166379697565 0.1249202104602032 0  0.8757272042351012 0.1249248115143099 0  0.9390943789131171 0.1249345559578538 0  1.003002070029611 0.1249586404495698 0  0 0.1875 0  0.06243518103246488 0.1874901914938238 0  0.124869667321142 0.1874801913296057 0  0.1873029618714107 0.1874698236090802 0  0.2497350284061333 0.1874589478812667 0  0.3121666131393769 0.187447483739224 0  0.3745996869153215 0.1874354434680413 0  0.4370380647930458 0.1874229745302356 0  0.499488276481657 0.1874104117271869 0  0.5619607841870018 0.1873983345925377 0  0.6244716752363217 0.1873876171374154 0  0.687044985692056 0.1873794416298646 0  0.7497157761327955 0.1873752204530202 0  0.8125337149673946 0.1873763148793014 0  0.8755652820066769 0.1873832858352579 0  0.9388870326030389 0.1873937862269577 0  1.002547458548153 0.1873951667872044 0  0 0.25 0  0.06241455949455477 0.2499872037232725 0  0.1248278442322729 0.2499741244556851 0  0.1872387897259043 0.2499604961285599 0  0.249646828268857 0.2499460917842539 0  0.3120522449461222 0.2499307530149975 0  0.3744566742437226 0.2499144318221582 0  0.4368637995587327 0.2498972494162514 0  0.499280326264023 0.249879575625922 0  0.561717298428671 0.2498621293927001 0  0.6241918009633899 0.2498460926966856 0  0.6867289877987196 0.2498332126026661 0  0.7493640969115202 0.2498258313333634 0  0.8121434203955125 0.2498267212122687 0  0.8751216534209085 0.2498385027111228 0  0.9383501994697647 0.2498623585629619 0  1.001848130774497 0.2498963756883961 0  0 0.3125 0  0.06239524132759414 0.3124844961686294 0  0.1247884012873056 0.3124685999953317 0  0.1871775821812335 0.3124519334250612 0  0.2495613330980422 0.3124341532335228 0  0.3119389887955834 0.3124149809706151 0  0.3743111611291049 0.3123942497193847 0  0.4366804523434735 0.3123719759602718 0  0.4990524679982635 0.3123484665180052 0  0.5614372016574568 0.3123244710945436 0  0.6238508191691214 0.3123013875279675 0  0.6863177388041473 0.3122815140139218 0  0.7488725988465212 0.3122683098063582 0  0.8115611039491603 0.3122665584518626 0  0.8744377660309095 0.3122822154418637 0  0.9375575071705345 0.3123215998756081 0  1.000958552191909 0.3123896075183506 0  0 0.375 0  0.06237803577628415 0.3749821782151517 0  0.1247529833866718 0.374963839281913 0  0.187121870049185 0.3749444730191705 0  0.2494820271979621 0.3749235896488821 0  0.3118313557089426 0.374900743736731 0  0.3741687458292249 0.3748755778187103 0  0.4364947317637717 0.3748478978887791 0  0.4988124813069799 0.3748177984071123 0  0.5611292350384768 0.3747858615360667 0  0.6234582972516659 0.3747534623072353 0  0.6858216016584007 0.3747232129787539 0  0.7482526612011127 0.3746995622626281 0  0.810799278227567 0.3746894994569699 0  0.873524710272519 0.374703150183071 0  0.9365052938716508 0.3747537287812048 0  0.9998226453916936 0.374855801424716 0  0 0.4375 0  0.06236394701788269 0.437480374469554 0  0.1247236694374094 0.4374600988601249 0  0.1870749496541297 0.4374385177507022 0  0.2494136408006921 0.4374149704808015 0  0.3117357983204827 0.4373888007912649 0  0.3740379519872838 0.4373593854522593 0  0.436317607954594 0.437326196390151 0  0.4985741124397484 0.4372889204113388 0  0.5608100639622116 0.4372476759865175 0  0.6230335221890493 0.4372033894183064 0  0.6852613030039776 0.4371584220882369 0  0.7475236104535379 0.4371175653284373 0  0.8098700198960738 0.4370895014282542 0  0.8723762243652584 0.437088671628619 0  0.9351498727336539 0.4371370114018811 0  0.9983325155016579 0.4372640057893382 0  0 0.5 0  0.06235410336387168 0.4999792173886944 0  0.1247028291162101 0.499957656054802 0  0.1870406653147531 0.4999345153341428 0  0.249361859769536 0.4999089535716529 0  0.3116603591947133 0.4998800747493894 0  0.3739298479515248 0.4998469279573782 0  0.4361639742082062 0.4998085328864666 0  0.4983569166813491 0.499763956582454 0  0.560504551829031 0.4997124890569667 0  0.6226066454008687 0.4996540055754181 0  0.6846707204034602 0.4995896720135196 0  0.7467185108671156 0.4995232544644734 0  0.8087960450474339 0.4994634168409498 0  0.8709880134700149 0.4994274156249104 0  0.9334354364974253 0.4994461695370525 0  0.9963521561420811 0.4995690523574888 0  0 0.5625 0  0.06234964526170983 0.5624788348848364 0  0.1246928912554398 0.5624567834716664 0  0.1870230445513794 0.5624329186271632 0  0.2493328126898944 0.5624062304586026 0  0.3116140035174828 0.5623755832159124 0  0.3738572477061495 0.5623396727945997 0  0.436051805990081 0.5622969913018103 0  0.4981855999281632 0.5622458154702682 0  0.5602457522008084 0.5621842582303735 0  0.6222201912751735 0.5621104712484767 0  0.6841013379537053 0.5620231883008692 0  0.7458936126591486 0.5619230047119649 0  0.8076274200408464 0.5618151649053056 0  0.8693828479104357 0.5617151878768765 0  0.9313248627857689 0.5616590113259743 0  0.9937449682339701 0.5617178048057013 0  0 0.625 0  0.06235157966648243 0.6249793336307553 0  0.124696037293478 0.6249577135813753 0  0.187025800843833 0.6249341273894123 0  0.2493323416665311 0.6249074391838445 0  0.3116056139274844 0.6248763151279467 0  0.3738334046654584 0.6248391328093241 0  0.4360005950079001 0.6247938690511861 0  0.4980883946937067 0.624737963203391 0  0.560073756545459 0.6246681631707305 0  0.6219294956205168 0.6245803935222792 0  0.6836262999737895 0.6244697771235337 0  0.7451391118152518 0.6243311913523291 0  0.8064626357482469 0.6241613767144583 0  0.8676439837789175 0.6239650871345641 0  0.928842593627395 0.6237704957827753 0  0.9904205196339242 0.6236611538732875 0  0 0.6875 0  0.06236061565265935 0.6874807800837021 0  0.1247138487840171 0.6874605974783884 0  0.1870517441563714 0.6874384176478926 0  0.2493650996655657 0.6874130521523777 0  0.3116426715927198 0.6873830582950496 0  0.3738701568455647 0.6873466060803369 0  0.4360288583152317 0.6873012929469293 0  0.4980939456148721 0.687243877047419 0  0.5600322873874395 0.6871698852381891 0  0.6218000572012159 0.6870730343521134 0  0.6833409536289953 0.6869444021247179 0  0.7445875014543797 0.6867713829480803 0  0.8054717256703439 0.6865369916964286 0  0.8659595745761863 0.6862221476295917 0  0.9261368365681188 0.68582033081622 0  0.9863794529286395 0.6853895752375777 0  0 0.75 0  0.06237700420713042 0.7499831824843257 0  0.1247469564742031 0.7499654648847823 0  0.1871021734712298 0.7499458707057549 0  0.2494335750136466 0.7499232577684296 0  0.3117297404210223 0.7498962054756596 0  0.3739756211733566 0.7498628587274688 0  0.4361507094235306 0.7498206989788211 0  0.4982263777152658 0.7497661927375505 0  0.5601620012739151 0.7496942283918163 0  0.6218994004073872 0.7495971727397847 0  0.6833552922503486 0.7494632164798075 0  0.7444124698173672 0.7492733654568235 0  0.8049143507851797 0.7489959745445066 0  0.8646802191018178 0.7485779313316009 0  0.9235945487183721 0.7479385729998783 0  0.9818937430349934 0.7470241815173548 0  0 0.8125 0  0.06240041176333531 0.8124864777715698 0  0.1247947551445569 0.8124721943056483 0  0.1871763604000653 0.8124563180333985 0  0.2495372119858071 0.8124378638530863 0  0.3118669997191397 0.8124155864838277 0  0.3741517651511563 0.8123878302711246 0  0.4363718663556215 0.8123523055350675 0  0.4984988094194144 0.8123057408320454 0  0.5604901914550461 0.8122433185078983 0  0.6222814845463382 0.812157707074656 0  0.6837725639514056 0.8120372695564301 0  0.7448057939583925 0.8118623822487819 0  0.8051322073561501 0.8115969110496764 0  0.8643693046203356 0.8111662384626418 0  0.9220017511258594 0.8103964687118833 0  0.9777496317770819 0.8088409397615668 0  0 0.875 0  0.06242985890169064 0.874990527033224 0  0.1248552554370789 0.874980501746374 0  0.1872712536730324 0.8749693180996565 0  0.2496718493967822 0.8749562524451086 0  0.3120491939067983 0.8749403814068363 0  0.3743924519345921 0.8749204664319334 0  0.436686018929217 0.8748947842063217 0  0.4989066151237685 0.8748608720340439 0  0.5610183706194632 0.8748151430553327 0  0.6229642107640539 0.8747523075958407 0  0.684650182685603 0.8746645086004111 0  0.7459157431004221 0.8745399844844457 0  0.8064747469691513 0.874360533718939 0  0.8657922353399873 0.8740939832861048 0  0.9228192039104327 0.8736615742050768 0  0.9754731264281071 0.8727679226627726 0  0 0.9375 0  0.06246374948973216 0.9374951216445252 0  0.1249251328119785 0.9374899530951094 0  0.187381522544465 0.9374841751971837 0  0.2498296991334905 0.9374774053624737 0  0.312265412836647 0.937469153421871 0  0.3746827273450645 0.9374587602716592 0  0.4370729726964797 
[...]
<PointData  Vectors="f_54"> 
<DataArray  type="Float64"  Name="f_54"  NumberOfComponents="3" format="ascii">0.0000000000000000e+00 0.0000000000000000e+00 0.0000000000000000e+00  0.0000000000000000e+00 0.0000000000000000e+00 0.0000000000000000e+00  0.0000000000000000e+00 0.0000000000000000e+00 0.0000000000000000e+00  0.0000000000000000e+00 0.0000000000000000e+00 0.0000000000000000e+00  0.0000000000000000e+00 0.0000000000000000e+00 0.0000000000000000e+00  0.0000000000000000e+00 0.0000000000000000e+00 0.0000000000000000e+00  0.0000000000000000e+00 0.0000000000000000e+00 0.0000000000000000e+00  0.0000000000000000e+00 0.0000000000000000e+00 0.0000000000000000e+00  0.0000000000000000e+00 0.0000000000000000e+00 0.0000000000000000e+00  0.0000000000000000e+00 0.0000000000000000e+00 0.0000000000000000e+00  0.0000000000000000e+00 0.0000000000000000e+00 0.0000000000000000e+00  0.0000000000000000e+00 0.0000000000000000e+00 0.0000000000000000e+00  0.0000000000000000e+00 0.0000000000000000e+00 0.0000000000000000e+00  0.0000000000000000e+00 0.0000000000000000e+00 0.0000000000000000e+00  0.0000000000000000e+00 0.0000000000000000e+00 0.0000000000000000e+00  0.0000000000000000e+00 0.0000000000000000e+00 0.0000000000000000e+00  0.0000000000000000e+00 0.0000000000000000e+00 0.0000000000000000e+00  0.0000000000000000e+00 0.0000000000000000e+00 0.0000000000000000e+00  -4.4919343989421240e-06 -1.4359168662611533e-07 0.0000000000000000e+00  -9.1171080551107703e-06 -2.9042139154330312e-07 0.0000000000000000e+00  -1.4009351410016912e-05 -4.4351418695594203e-07 0.0000000000000000e+00  -1.9302409700912277e-05 -6.0538597616509319e-07 0.0000000000000000e+00  -2.5128849871727928e-05 -7.7764444410033174e-07 0.0000000000000000e+00  -3.1617765553276580e-05 -9.6040345306449423e-07 0.0000000000000000e+00  -3.8891177959757063e-05 -1.1514309512457590e-06 0.0000000000000000e+00  -4.7059727062522443e-05 -1.3449385867247132e-06 0.0000000000000000e+00  -5.6220100893414778e-05 -1.5298969256245431e-06 0.0000000000000000e+00  -6.6461562436441278e-05 -1.6876588717173826e-06 0.0000000000000000e+00  -7.7902477862884422e-05 -1.7882152991675546e-06 0.0000000000000000e+00  -9.0817711836983179e-05 -1.7824584280651130e-06 0.0000000000000000e+00  -1.0604564570907691e-04 -1.5797940293891076e-06 0.0000000000000000e+00  -1.2630959320230950e-04 -9.6693345893000516e-07 0.0000000000000000e+00  -1.6079826159035946e-04 7.2288513761355739e-07 0.0000000000000000e+00  -2.4291321714822237e-04 6.0994765174109610e-06 0.0000000000000000e+00  0.0000000000000000e+00 0.0000000000000000e+00 0.0000000000000000e+00  -8.8469372993766237e-06 -2.8382779180662974e-07 0.0000000000000000e+00  -1.7959900681554840e-05 -5.7435121747834674e-07 0.0000000000000000e+00  -2.7606491908274313e-05 -8.7789580157916429e-07 0.0000000000000000e+00  -3.8055027767999096e-05 -1.1998884452977150e-06 0.0000000000000000e+00  -4.9572749600448329e-05 -1.5441313932762598e-06 0.0000000000000000e+00  -6.2421432073796816e-05 -1.9117148944290432e-06 0.0000000000000000e+00  -7.6849759123002776e-05 -2.2994096064597655e-06 0.0000000000000000e+00  -9.3082528602116574e-05 -2.6973649055661283e-06 0.0000000000000000e+00  -1.1130856230193234e-04 -3.0859498541637414e-06 0.0000000000000000e+00  -1.3167349130679059e-04 -3.4316385595254371e-06 0.0000000000000000e+00  -1.5429312509785662e-04 -3.6820265756381745e-06 0.0000000000000000e+00  -1.7932271206564699e-04 -3.7606792878284518e-06 0.0000000000000000e+00  -2.0715000531677796e-04 -3.5654598606754402e-06 0.0000000000000000e+00  -2.3878811323091177e-04 -2.9906551595604996e-06 0.0000000000000000e+00  -2.7619673844284087e-04 -2.0890870449295018e-06 0.0000000000000000e+00  -3.1938818163064031e-04 -2.0409381337706670e-06 0.0000000000000000e+00  0.0000000000000000e+00 0.0000000000000000e+00 0.0000000000000000e+00  -1.2931725382628162e-05 -4.1723484368113051e-07 0.0000000000000000e+00  -2.6261195345992533e-05 -8.4501137717608855e-07 0.0000000000000000e+00  -4.0389493090817264e-05 -1.2934488556518720e-06 0.0000000000000000e+00  -5.5720989480113725e-05 -1.7716048086580559e-06 0.0000000000000000e+00  -7.2661740980977681e-05 -2.2865606323927524e-06 0.0000000000000000e+00  -9.1613718846978625e-05 -2.8419944402834551e-06 0.0000000000000000e+00  -1.1296325002721052e-04 -3.4359951466722263e-06 0.0000000000000000e+00  -1.3706210315661440e-04 -4.0578334910174294e-06 0.0000000000000000e+00  -1.6420007237218174e-04 -4.6834166701019908e-06 0.0000000000000000e+00  -1.9456882338276710e-04 -5.2693073064475423e-06 0.0000000000000000e+00  -2.2821754171560864e-04 -5.7456887152812816e-06 0.0000000000000000e+00  -2.6499753075646666e-04 -6.0099427086598549e-06 0.0000000000000000e+00  -3.0446880298794086e-04 -5.9253956573256358e-06 0.0000000000000000e+00  -3.4564028572041210e-04 -5.3346460281765524e-06 0.0000000000000000e+00  -3.8607690765347322e-04 -4.0921928678114754e-06 0.0000000000000000e+00  -4.1907870056338484e-04 -1.9897977371638256e-06 0.0000000000000000e+00  0.0000000000000000e+00 0.0000000000000000e+00 0.0000000000000000e+00  -1.6614129191306836e-05 -5.3995181516553018e-07 0.0000000000000000e+00  -3.3755144530231714e-05 -1.0947403333323626e-06 0.0000000000000000e+00  -5.1956180328877802e-05 -1.6788702254891393e-06 0.0000000000000000e+00  -7.1758889832724513e-05 -2.3059338657700319e-06 0.0000000000000000e+00  -9.3713562678234954e-05 -2.9877098911959901e-06 0.0000000000000000e+00  -1.1837365560624055e-04 -3.7326435562159041e-06 0.0000000000000000e+00  -1.4628198190618207e-04 -4.5433676619143016e-06 0.0000000000000000e+00  -1.7794501472733639e-04 -5.4128170850971887e-06 0.0000000000000000e+00  -2.1379063836826989e-04 -6.3184025911366215e-06 0.0000000000000000e+00  -2.5410277571999060e-04 -7.2137404510873244e-06 0.0000000000000000e+00  -2.9892216878810916e-04 -8.0178105782754481e-06 0.0000000000000000e+00  -3.4789210779040576e-04 -8.6025839652872490e-06 0.0000000000000000e+00  -4.0000129355573471e-04 -8.7828317108215365e-06 0.0000000000000000e+00  -4.5311545705891467e-04 -8.3166971322706504e-06 0.0000000000000000e+00  -5.0308702322074590e-04 -6.9326723159655839e-06 0.0000000000000000e+00  -5.4221831737745062e-04 -4.4155997613718339e-06 0.0000000000000000e+00  0.0000000000000000e+00 0.0000000000000000e+00 0.0000000000000000e+00  -1.9764662806027906e-05 -6.4767096034105916e-07 0.0000000000000000e+00  -4.0179967556806616e-05 -1.3148355745515336e-06 0.0000000000000000e+00  -6.1907142401004307e-05 -2.0209076603612136e-06 0.0000000000000000e+00  -8.5624542239179168e-05 -2.7849006171175278e-06 0.0000000000000000e+00  -1.1203166484583970e-04 -3.6247923297826021e-06 0.0000000000000000e+00  -1.4184676414300841e-04 -4.5562529640781769e-06 0.0000000000000000e+00  -1.7579439532362556e-04 -5.5903166345644438e-06 0.0000000000000000e+00  -2.1457770200081141e-04 -6.7293656766463064e-06 0.0000000000000000e+00  -2.5882801222938472e-04 -7.9605072779585070e-06 0.0000000000000000e+00  -3.0902093429127002e-04 -9.2450983702123719e-06 0.0000000000000000e+00  -3.6534283442940394e-04 -1.0502983143352360e-05 0.0000000000000000e+00  -4.2748298765167130e-04 -1.1590395021838196e-05 0.0000000000000000e+00  -4.9431355083012513e-04 -1.2272415363541322e-05 0.0000000000000000e+00  -5.6340522382730739e-04 -1.2196184781422315e-05 0.0000000000000000e+00  -6.3033707949811308e-04 -1.0882726689794451e-05 0.0000000000000000e+00  -6.8788955335061393e-04 -7.7782162844561439e-06 0.0000000000000000e+00  0.0000000000000000e+00 0.0000000000000000e+00 0.0000000000000000e+00  -2.2259379217734781e-05 -7.3572609699806793e-07 0.0000000000000000e+00  -4.5283352502734820e-05 -1.4957100145120096e-06 0.0000000000000000e+00  -6.9852963243976398e-05 -2.3045345058907918e-06 0.0000000000000000e+00  -9.6778675957191724e-05 -3.1872475942080349e-06 0.0000000000000000e+00  -1.2691090801930847e-04 -4.1692702603353490e-06 0.0000000000000000e+00  -1.6114436887595230e-04 -5.2757857685738763e-06 0.0000000000000000e+00  -2.0041213641039496e-04 -6.5301841104852897e-06 0.0000000000000000e+00  -2.4566334073521307e-04 -7.9508182137232866e-06 0.0000000000000000e+00  -2.9781533038416593e-04 -9.5447928902063304e-06 0.0000000000000000e+00  -3.5766703328567005e-04 -1.1296660083423223e-05 0.0000000000000000e+00  -4.2575483004254764e-04 -1.3148699382904248e-05 0.0000000000000000e+00  -5.0212626744103892e-04 -1.4968155284216815e-05 0.0000000000000000e+00  -5.8600316274367388e-04 -1.6496384220417207e-05 0.0000000000000000e+00  -6.7531255221073684e-04 -1.7277979351220604e-05 0.0000000000000000e+00  -7.6610208441895160e-04 -1.6579573248727331e-05 0.0000000000000000e+00  -8.5196298402640566e-04 -1.3332930768598475e-05 0.0000000000000000e+00  0.0000000000000000e+00 0.0000000000000000e+00 0.0000000000000000e+00  -2.3984309583310664e-05 -7.9934833547135045e-07 0.0000000000000000e+00  -4.8831228721058512e-05 -1.6274120364930364e-06 0.0000000000000000e+00  -7.5427017744380070e-05 -2.5137428342725332e-06 0.0000000000000000e+00  -1.0470300730897176e-04 -3.4894869232905928e-06 0.0000000000000000e+00  -1.3765529875799535e-04 -4.5880780685143368e-06 0.0000000000000000e+00  -1.7535981497159624e-04 -5.8457052800352826e-06 0.0000000000000000e+00  -2.1897892265269374e-04 -7.3012552963312046e-06 0.0000000000000000e+00  -2.6975345766035841e-04 -8.9950851152400237e-06 0.0000000000000000e+00  -3.2897042445868309e-04 -1.0965284444780691e-05 0.0000000000000000e+00  -3.9789166340882781e-04 -1.3238747700963668e-05 0.0000000000000000e+00  -4.7762249516498234e-04 -1.5811955156984300e-05 0.0000000000000000e+00  -5.6889295531746716e-04 -1.8612431450202460e-05 0.0000000000000000e+00  -6.7172148010143486e-04 -2.1426637486366779e-05 0.0000000000000000e+00  -7.8494032038952982e-04 -2.3776305554953115e-05 0.0000000000000000e+00  -9.0559760855507532e-04 -2.4731722014693249e-05 0.0000000000000000e+00  -1.0283229518580931e-03 -2.2684540640534442e-05 0.0000000000000000e+00  0.0000000000000000e+00 0.0000000000000000e+00 0.0000000000000000e+00  -2.4841584504298117e-05 -8.3408039503031448e-07 0.0000000000000000e+00  -5.0620209256380026e-05 -1.7005001825915768e-06 0.0000000000000000e+00  -7.8304565491860425e-05 -2.6329689348944653e-06 0.0000000000000000e+00  -1.0892627757422959e-04 -3.6680009848416780e-06 0.0000000000000000e+00  -1.4361091922808096e-04 -4.8465199375236712e-06 0.0000000000000000e+00  -1.8360739225206009e-04 -6.2156890149576027e-06 0.0000000000000000e+00  -2.3031301923285980e-04 -7.8309668524430758e-06 0.0000000000000000e+00  -2.8528924881438130e-04 -9.7581781035250180e-06 0.0000000000000000e+00  -3.5025893940307968e-04 -1.2074813497783852e-05 0.0000000000000000e+00  -4.2707020985156927e-04 -1.4868354315532274e-05 0.0000000000000000e+00  -5.1760342349571403e-04 -1.8226187851292906e-05 0.0000000000000000e+00  -6.2358748072609477e-04 -2.2204953201096884e-05 0.0000000000000000e+00  -7.4628226499836399e-04 -2.6754699130705773e-05 0.0000000000000000e+00  -8.8598457839617105e-04 -3.1554470244511289e-05 0.0000000000000000e+00  -1.0413428295682685e-03 -3.5699779160735861e-05 0.0000000000000000e+00  -1.2085376680370363e-03 -3.7202732745544065e-05 0.0000000000000000e+00  0.0000000000000000e+00 0.0000000000000000e+00 0.0000000000000000e+00  -2.4757034938067664e-05 -8.3630311997671838e-07 0.0000000000000000e+00  -5.0493371367056680e-05 -1.7071816815510084e-06 0.0000000000000000e+00  -7.8227849212885323e-05 -2.6490264125021809e-06 0.0000000000000000e+00  -1.0906031006463905e-04 -3.7020693929918184e-06 0.0000000000000000e+00  -1.4421494594351046e-04 -4.9128226559061198e-06 0.0000000000000000e+00  -1.8508639462683698e-04 -6.3372496627800318e-06 0.0000000000000000e+00  -2.3328799705693077e-04 -8.0451023690858272e-06 0.0000000000000000e+00  -2.9069954934076933e-04 -1.0125987955077768e-05 0.0000000000000000e+00  -3.5950806193895643e-04 -1.2697727104875882e-05 0.0000000000000000e+00  -4.4222835882449797e-04 -1.5916970527011148e-05 0.0000000000000000e+00  -5.4167929414628815e-04 -1.9989588533548957e-05 0.0000000000000000e+00  -6.6087442705845077e-04 -2.5170954779871238e-05 0.0000000000000000e+00  -8.0276339799117535e-04 -3.1727346666875873e-05 0.0000000000000000e+00  -9.6973938214864330e-04 -3.9788395019928903e-05 0.0000000000000000e+00  -1.1628373846599078e-03 -4.8950047684466419e-05 0.0000000000000000e+00  -1.3806620866340538e-03 -5.7428720292653965e-05 0.0000000000000000e+00  0.0000000000000000e+00 0.0000000000000000e+00 0.0000000000000000e+00  -2.3688699024770408e-05 -8.0378842481366469e-07 0.0000000000000000e+00  -4.8358246991486210e-05 -1.6425318262344985e-06 0.0000000000000000e+00  -7.5035573927629857e-05 -2.5532471053800421e-06 0.0000000000000000e+00  -1.0484410842935046e-04 -3.5773900183260647e-06 0.0000000000000000e+00  -1.3905871255034217e-04 -4.7638012319683602e-06 0.0000000000000000e+00  -1.7916869526752324e-04 -6.1727569768373541e-06 0.0000000000000000e+00  -2.2695128265441444e-04 -7.8819658284823541e-06 0.0000000000000000e+00  -2.8455686702130533e-04 -9.9959504438913484e-06 0.0000000000000000e+00  -3.5460463836519800e-04 -1.2661237404721131e-05 0.0000000000000000e+00  -4.4028113156244615e-04 -1.6091157759266163e-05 0.0000000000000000e+00  -5.4542186855661761e-04 -2.0605193423745123e-05 0.0000000000000000e+00  -6.7453302404757703e-04 -2.6685712674701421e-05 0.0000000000000000e+00  -8.3267008882070533e-04 -3.5039699729896741e-05 0.0000000000000000e+00  -1.0250316496226235e-03 -4.6597364522434720e-05 0.0000000000000000e+00  -1.2560700378686522e-03 -6.2225123228625554e-05 0.0000000000000000e+00  -1.5279530458245081e-03 -8.1626384582731784e-05 0.0000000000000000e+00  0.0000000000000000e+00 0.0000000000000000e+00 0.0000000000000000e+00  -2.1635271529819048e-05 -7.3616514772177978e-07 0.0000000000000000e+00  -4.4205040284564355e-05 -1.5055388359215354e-06 0.0000000000000000e+00  -6.8693670807772124e-05 -2.3433709258758920e-06 0.0000000000000000e+00  -9.6191703858237998e-05 -3.2893295727448208e-06 0.0000000000000000e+00  -1.2795935020146312e-04 -4.3904270253640764e-06 0.0000000000000000e+00  -1.6550349706290546e-04 -5.7050702078137774e-06 0.0000000000000000e+00  -2.1067415676216829e-04 -7.3092033261598290e-06 0.0000000000000000e+00  -2.6578704812243959e-04 -9.3064246663826444e-06 0.0000000000000000e+00  -3.3377885092047179e-04 -1.1845862261748775e-05 0.0000000000000000e+00  -4.1839876951866575e-04 -1.5155430544171495e-05 0.0000000000000000e+00  -5.2443044883709173e-04 -1.9605332945062426e-05 0.0000000000000000e+00  -6.5791421567545038e-04 -2.5828460275908496e-05 0.0000000000000000e+00  -8.2628720153165582e-04 -3.4936355456190868e-05 0.0000000000000000e+00  -1.0382585382973154e-03 -4.8850948543525560e-05 0.0000000000000000e+00  -1.3030865213513347e-03 -7.0595329611013773e-05 0.0000000000000000e+00  -1.6289404176568728e-03 -1.0373215639402847e-04 0.0000000000000000e+00  0.0000000000000000e+00 0.0000000000000000e+00 0.0000000000000000e+00  -1.8643197943069905e-05 -6.3518505993380267e-07 0.0000000000000000e+00  -3.8122324517425761e-05 -1.2997084646800112e-06 0.0000000000000000e+00  -5.9322854465926819e-05 -2.0246689571140562e-06 0.0000000000000000e+00  -8.3237114006001081e-05 -2.8449472735864190e-06 0.0000000000000000e+00  -1.1103081213511620e-04 -3.8015536822674672e-06 0.0000000000000000e+00  -1.4412734009719010e-04 -4.9446648375944686e-06 0.0000000000000000e+00  -1.8431917216013636e-04 -6.3379349746711287e-06 0.0000000000000000e+00  -2.3391887167348446e-04 -8.0653584090971802e-06 0.0000000000000000e+00  -2.9596609074223235e-04 -1.0243750581955453e-05 0.0000000000000000e+00  -3.7451048965087919e-04 -1.3048535325052523e-05 0.0000000000000000e+00  -4.7499036957372287e-04 -1.6772206256367638e-05 0.0000000000000000e+00  -6.0471424456087493e-04 -2.1963137735796926e-05 0.0000000000000000e+00  -7.7340678161514677e-04 -2.9755928263905862e-05 0.0000000000000000e+00  -9.9365662730807039e-04 -4.2624615714839564e-05 0.0000000000000000e+00  -1.2808075190168032e-03 -6.5887194491583674e-05 0.0000000000000000e+00  -1.6510431503815013e-03 -1.0909032652571486e-04 0.0000000000000000e+00  0.0000000000000000e+00 0.0000000000000000e+00 0.0000000000000000e+00  -1.4810927927910407e-05 -5.0471735385051930e-07 0.0000000000000000e+00  -3.0306991022865395e-05 -1.0330494065351647e-06 0.0000000000000000e+00  -4.7217474293780146e-05 -1.6099184488284817e-06 0.0000000000000000e+00  -6.6367815904502418e-05 -2.2629899918231081e-06 0.0000000000000000e+00  -8.8741488964525549e-05 -3.0241017387162385e-06 0.0000000000000000e+00  -1.1556120059372167e-04 -3.9306507973152373e-06 0.0000000000000000e+00  -1.4840080863255998e-04 -5.0266895922196357e-06 0.0000000000000000e+00  -1.8934475044877643e-04 -6.3632245629442447e-06 0.0000000000000000e+00  -2.4122000152675357e-04 -7.9970274084807549e-06 0.0000000000000000e+00  -3.0793747886252644e-04 -9.9880884214393225e-06 0.0000000000000000e+00  -3.9499553121917800e-04 -1.2401488658664365e-05 0.0000000000000000e+00  -5.1021478912151590e-04 -1.5343728168449168e-05 0.0000000000000000e+00  -6.6477784368273367e-04 -1.9153005085183804e-05 0.0000000000000000e+00  -8.7459770387194908e-04 -2.5173509041212690e-05 0.0000000000000000e+00  -1.1618816434005965e-03 -3.8663033246517009e-05 0.0000000000000000e+00  -1.5572293897797322e-03 -8.0558115507898409e-05 0.0000000000000000e+00  0.0000000000000000e+00 0.0000000000000000e+00 0.0000000000000000e+00  -1.0288905211865062e-05 -3.5047639842314575e-07 0.0000000000000000e+00  -2.1065261679085873e-05 -7.1744234268495104e-07 0.0000000000000000e+00  -3.2849957839408602e-05 -1.1182004534444505e-06 0.0000000000000000e+00  -4.6237231641842770e-05 -1.5716891220188540e-06 0.0000000000000000e+00  -6.1943114941666238e-05 -2.0990513039269946e-06 0.0000000000000000e+00  -8.0870745568322470e-05 -2.7235771335423522e-06 0.0000000000000000e+00  -1.0420334410088700e-04 -3.4690032305727453e-06 0.0000000000000000e+00  -1.3354174402648836e-04 -4.3537466318041415e-06 0.0000000000000000e+00  -1.7111348213950492e-04 -5.3754277004984208e-06 0.0000000000000000e+00  -2.2009695787732393e-04 -6.4727249397968884e-06 0.0000000000000000e+00  -2.8513074631520286e-04 -7.4354112601992795e-06 0.0000000000000000e+00  -3.7312182852814249e-04 -7.6991780953701354e-06 0.0000000000000000e+00  -4.9454565570452593e-04 -5.8951269168709382e-06 0.0000000000000000e+00  -6.6557916685180312e-04 1.0903575391524346e-06 0.0000000000000000e+00  -9.1140788416361573e-04 1.9944290536057022e-05 0.0000000000000000e+00  -1.2685444722809471e-03 6.3864413078447204e-05 0.0000000000000000e+00  0.0000000000000000e+00 0.0000000000000000e+00 0.0000000000000000e+00  -5.2742691957856974e-06 -1.7957022170496363e-07 0.0000000000000000e+00  -1.0802353814293658e-05 -3.6760677226444536e-07 0.0000000000000000e+00  -1.6856211951468216e-05 -5.7295097511874036e-07 0.0000000000000000e+00  -2.3747788750412516e-05 -8.0516254368291545e-07 0.0000000000000000e+00  -3.1855913325179557e-05 -1.0746184588019849e-06 0.0000000000000000e+00  -4.1663258195911670e-05 -1.3920009775572926e-06 0.0000000000000000e+00  -5.3810153054208902e-05 -1.7661954334071979e-06 0.0000000000000000e+00  -6.9176213607492984e-05 -2.1981218260577634e-06 0.0000000000000000e+00  -8.9007617691854395e-05 -2.6641599824737783e-06 0.0000000000000000e+00  -1.1511774463624144e-04 -3.0726029210637680e-06 0.0000000000000000e+00  -1.5019647345078667e-04 -3.1489944451940467e-06 0.0000000000000000e+00  -1.9823514370612654e-04 -2.1317165921274271e-06 0.0000000000000000e+00  -2.6485878819509760e-04 2.0338374512247953e-06 0.0000000000000000e+00  -3.5639093004784922e-04 1.4741755860356573e-05 0.0000000000000000e+00  -4.7319874212156221e-04 4.9212681485903708e-05 0.0000000000000000e+00  -5.8638343243271529e-04 1.3197328024342270e-04 0.0000000000000000e+00  0.0000000000000000e+00 0.0000000000000000e+00 0.0000000000000000e+00  0.0000000000000000e+00 0.0000000000000000e+00 0.0000000000000000e+00  0.0000000000000000e+00 0.0000000000000000e+00 0.0000000000000000e+00  0.0000000000000000e+00 0.0000000000000000e+00 0.0000000000000000e+00  0.0000000000000000e+00 0.0000000000000000e+00 0.0000000000000000e+00  0.0000000000000000e+00 0.000000