<?xml version="1.0"?>
<VTKFile type="UnstructuredGrid"  version="0.1"  >
<UnstructuredGrid>
<Piece  NumberOfPoints="289" NumberOfCells="512">
<Points>
<DataArray  type="Float64"  NumberOfComponents="3"  format="ascii">0 0 0  0.0625 0 0  0.125 0 0  0.1875 0 0  0.25 0 0  0.3125 0 0  0.375 0 0  0.4375 0 0  0.5 0 0  0.5625 0 0  0.625 0 0  0.6875 0 0  0.75 0 0  0.8125 0 0  0.875 0 0  0.9375 0 0  1 0 0  0 0.0625 0  0.06259823735105613 0.06248453643229076 0  0.1251997304918226 0.06246873746130523 0  0.1878078306362381 0.06245228221286338 0  0.2504260080684366 0.06243488945279298 0  0.3130579061090687 0.06241634481225454 0  0.3757073891385109 0.06239653645564799 0  0.4383785920422614 0.06237550022591128 0  0.501075998176066 0.06235347219693999 0  0.5638046248350495 0.06233094002672507 0  0.62657053293216 0.06230867109257673 0  0.6893822561356441 0.06228766676794401 0  0.7522548389837624 0.06226892315418562 0  0.8152215196218636 0.06225267752000898 0  0.8783689068446295 0.06223611749007565 0  0.9419484812392195 0.06220578153775613 0  1.00675468195624 0.06211003740002727 0  0 0.125 0  0.06269330846230221 0.1249693983093279 0  0.1253930993402821 0.1249381056232631 0  0.1881060519110436 0.1249054571267768 0  0.2508391041149134 0.1248708609937701 0  0.3135995717409695 0.124833850372369 0  0.3763952542683118 0.1247941537504399 0  0.4392345338522471 0.1247517876208598 0  0.5021264967061226 0.1247071709148623 0  0.5650811619206043 0.1246612511265961 0  0.6281100321494938 0.1246156138028912 0  0.6912274643405986 0.1245725165526499 0  0.754453921681464 0.124534751636536 0  0.8178230053399782 0.1245052615565137 0  0.8813939183177846 0.12448687119219 0  0.9452606306928278 0.1244851238533016 0  1.0094829933089 0.1245298990370542 0  0 0.1875 0  0.06278197090430609 0.1874549449566429 0  0.1255735524285563 0.1874088079104318 0  0.1883846582887632 0.1873605388988764 0  0.2512256261015869 0.1873091813731279 0  0.3141074149595125 0.187253943185703 0  0.3770417790009969 0.1871942978330186 0  0.4400414111406347 0.1871301255778705 0  0.503120058044778 0.187061900829165 0  0.5662926231214664 0.1869909233990592 0  0.6295752976951884 0.1869195719962279 0  0.6929857599469609 0.1868515202398147 0  0.7565432989705289 0.1867917830367849 0  0.8202677750011305 0.1867463102899441 0  0.8841728579279338 0.1867204181352848 0  0.9482390728447231 0.1867136087398114 0  1.012333955628189 0.186699969448062 0  0 0.25 0  0.06286109384701359 0.2499415704141181 0  0.1257347461320805 0.2498816237280413 0  0.1886339280634366 0.2498186718740512 0  0.2515722304854175 0.2497513204386431 0  0.3145641586303719 0.2496783483060066 0  0.3776253953223252 0.2495988303000366 0  0.4407730114524029 0.2495123209130054 0  0.5040255882049943 0.2494191182656292 0  0.567403184834776 0.2493206246730047 0  0.6309270112580661 0.2492198083295389 0  0.6946184722255491 0.2491217397952209 0  0.7584967560881931 0.2490341088119388 0  0.8225729577812881 0.2489674882544871 0  0.8868362915545844 0.2489348577669011 0  0.951224538078788 0.24894961810495 0  1.015572041442957 0.2490224363156593 0  0 0.3125 0  0.06292773621941605 0.3124297116399988 0  0.1258707015049508 0.3123574283141605 0  0.1888446485810207 0.3122811693413417 0  0.2518661778617611 0.3121990206392485 0  0.3149531540806429 0.3121092070838132 0  0.3781250968807137 0.3120102186731716 0  0.4414035177592591 0.311901018385655 0  0.5048121485216523 0.3117813678745853 0  0.568376950977197 0.3116523157955402 0  0.6321256820785391 0.3115168988642276 0  0.6960865496467644 0.3113810991298346 0  0.7602850249529981 0.3112550653295068 0  0.8247370727896614 0.3111545136413114 0  0.8894360832345064 0.3111020480385347 0  0.9543309966443119 0.311127927074347 0  1.019298829923375 0.3112697641635689 0  0 0.375 0  0.0629792388659372 0.3749198467584248 0  0.1259759881505153 0.374837192418471 0  0.1890083897172807 0.3747495217340265 0  0.252095687900537 0.3746543264200152 0  0.3152587934338355 0.3745491488189542 0  0.3785208470436094 0.3744316839946492 0  0.4419077656878385 0.3742999764413172 0  0.5054487297676319 0.3741527646359619 0  0.5691765205476244 0.3739900506356634 0  0.6331275197541099 0.3738140025892543 0  0.6973409983827774 0.3736303304570343 0  0.7618570033360966 0.3734502927226795 0  0.8267117116002473 0.3732934540909426 0  0.8919288461420165 0.3731911458774871 0  0.9575066280475105 0.3731901832241906 0  1.023403731020787 0.3733556878676301 0  0 0.4375 0  0.06301333276643564 0.4374124802579987 0  0.1260459435830825 0.437321954841421 0  0.189117839475533 0.4372253617559505 0  0.2522503952290895 0.4371195526292541 0  0.3154670815063843 0.4370012828236393 0  0.3787942386810899 0.4368672536849414 0  0.4422619079857411 0.4367142460360252 0  0.5059047256803126 0.4365394089770761 0  0.5697628734163589 0.4363408078547424 0  0.6338830504914191 0.4361183958387416 0  0.6983193756030146 0.4358756586168719 0  0.7631340166418037 0.4356222819620154 0  0.8283971904441968 0.4353782573029881 0  0.8941860993531878 0.4351797289094184 0  0.9605828615552414 0.4350863277736461 0  1.027673654899551 0.4351885121601685 0  0 0.5 0  0.06302826154999092 0.4999081131102554 0  0.1260769257985864 0.4998127627355826 0  0.189167202116126 0.4997103759353815 0  0.2523219165576825 0.4995971718125776 0  0.3155664027294927 0.4994690740618427 0  0.3789294970242983 0.4993216548091721 0  0.4424446901205031 0.4991501423890584 0  0.5061515111192909 0.4989495542060232 0  0.5700972685507979 0.4987150662836458 0  0.6343393615829772 0.4984428182909929 0  0.6989485278974938 0.4981314974000256 0  0.7640136255273301 0.4977852639641833 0  0.8296488227355364 0.4974188490573618 0  0.8960042797337565 0.4970657592441188 0  0.9632815107385687 0.4967897688103798 0  1.031755715268567 0.4966967245622347 0  0 0.5625 0  0.06302291110752606 0.5624071978453218 0  0.1260665847339143 0.5623105787331597 0  0.1891526375458199 0.5622061583044888 0  0.2523045015784062 0.5620896080579121 0  0.3155484515825466 0.5619560734776147 0  0.3789147946356931 0.5617999874477031 0  0.4424393137290276 0.5616148931305356 0  0.5061651134220887 0.5613933143430851 0  0.5701451322862855 0.5611267597102008 0  0.634445824404266 0.5608060431555877 0  0.6991529756625574 0.5604222924458807 0  0.7643814531549729 0.5599693765508389 0  0.8302919726504859 0.5594491038271244 0  0.8971194344938133 0.5588813458539258 0  0.965218026955316 0.5583211480116139 0  1.035127768056781 0.5578798455965066 0  0 0.625 0  0.06299693344740713 0.6249100816578785 0  0.1260141255633081 0.6248161604598945 0  0.1890726974152871 0.6247140126894165 0  0.2521956991916278 0.6245989412611257 0  0.3154092224400672 0.6244654968250781 0  0.3787437176325593 0.6243071471605586 0  0.4422356341313785 0.6241158792555651 0  0.505929574450418 0.6238817271094312 0  0.5698813185100214 0.623592244394891 0  0.6341624398828694 0.6232320102931492 0  0.6988680496888849 0.6227824314765917 0  0.7641309382335454 0.6222225361041965 0  0.8301487579639831 0.6215325001002977 0  0.8972362979722313 0.6207039238325653 0  0.9659201086654504 0.6197641047340241 0  1.03709094603355 0.6188164781415613 0  0 0.6875 0  0.06295084769173739 0.6874169441933352 0  0.1259205272289608 0.6873299259947979 0  0.1889286960476861 0.6872347243344085 0  0.2519969405246651 0.6871265491885147 0  0.3151499019687658 0.686999683054647 0  0.3784166272981272 0.6868470222590514 0  0.441832263488067 0.6866594669957571 0  0.5054402808272237 0.6864250935725842 0  0.569295560861097 0.686128026142411 0  0.6334690612228076 0.6857469207236634 0  0.6980557518959262 0.6852530268220685 0  0.7631900891159742 0.6846080639388465 0  0.8290797623000625 0.6837632321243072 0  0.8960830550673464 0.6826646752144873 0  0.9648793974535417 0.6812840567438253 0  1.036791268491347 0.679715820399359 0  0 0.75 0  0.06288609968688101 0.7499277399565271 0  0.1257886764191629 0.7498518265510704 0  0.1887249489044958 0.7497683362814898 0  0.251713931890951 0.7496727410773046 0  0.3147774944625257 0.7495595093029702 0  0.3779416385033786 0.7494215699986129 0  0.4412380982505637 0.7492495583009209 0  0.5047063917221656 0.7490307191321981 0  0.5683965158634372 0.7487472808506032 0  0.6323726540671589 0.7483740066999282 0  0.6967188858150978 0.7478744703080927 0  0.761550154968194 0.7471953812529877 0  0.8270398257923596 0.7462582237851069 0  0.8935023884289743 0.7449493310958326 0  0.9616504741117006 0.7431254318367743 0  1.03322816173234 0.7407691561193119 0  0 0.8125 0  0.06280506382187682 0.8124421572056595 0  0.1256233818322963 0.8123812525926803 0  0.188468819991792 0.8123139764962254 0  0.2513567677979969 0.8122364579128029 0  0.3143050452453203 0.8121438816571124 0  0.3773350071426473 0.8120299571641346 0  0.4404729221553284 0.8118861421241417 0  0.5037516939304733 0.8117004672620075 0  0.5672129332482706 0.811455710708086 0  0.6309092201848006 0.8111264983540375 0  0.6949060500055924 0.8106745875663257 0  0.7592827180282705 0.8100409434466138 0  0.8241340206085377 0.8091317580158848 0  0.8895967832915889 0.8077922543688204 0  0.9560598173215694 0.8057581055167311 0  1.025565328913296 0.8026298392898594 0  0 0.875 0  0.06271097612898169 0.8749596046970221 0  0.1254312451939838 0.8749169992270029 0  0.1881705397260308 0.8748697830947612 0  0.2509397091662933 0.8748151212776425 0  0.3137513940575256 0.8747494410169953 0  0.3766208586724747 0.8746680015960101 0  0.4395670427845175 0.8745642497358728 0  0.5026138713545807 0.87442881736379 0  0.5657917512385839 0.8742479204117455 0  0.6291388024526098 0.8740007440479899 0  0.6927001931993537 0.8736550823404684 0  0.756520539190063 0.8731598399181043 0  0.8206151716803447 0.8724311724733989 0  0.8848854294409937 0.871321980066299 0  0.9489254166662869 0.8695320212987919 0  1.011920594447102 0.8662472254719769 0  0 0.9375 0  0.06260779563470208 0.9374792341441091 0  0.1252203816265325 0.9374573094477821 0  0.1878427801470484 0.9374329636007903 0  0.2504806094966605 0.9374046969488026 0  0.3131404502769163 0.937370604501083 0  0.3758303073630142 0.937328134160994 0  0.4385602104969684 0.93727371851
[...]
<PointData  Vectors="f_54"> 
<DataArray  type="Float64"  Name="f_54"  NumberOfComponents="3" format="ascii">0.0000000000000000e+00 0.0000000000000000e+00 0.0000000000000000e+00  0.0000000000000000e+00 0.0000000000000000e+00 0.0000000000000000e+00  0.0000000000000000e+00 0.0000000000000000e+00 0.0000000000000000e+00  0.0000000000000000e+00 0.0000000000000000e+00 0.0000000000000000e+00  0.0000000000000000e+00 0.0000000000000000e+00 0.0000000000000000e+00  0.0000000000000000e+00 0.0000000000000000e+00 0.0000000000000000e+00  0.0000000000000000e+00 0.0000000000000000e+00 0.0000000000000000e+00  0.0000000000000000e+00 0.0000000000000000e+00 0.0000000000000000e+00  0.0000000000000000e+00 0.0000000000000000e+00 0.0000000000000000e+00  0.0000000000000000e+00 0.0000000000000000e+00 0.0000000000000000e+00  0.0000000000000000e+00 0.0000000000000000e+00 0.0000000000000000e+00  0.0000000000000000e+00 0.0000000000000000e+00 0.0000000000000000e+00  0.0000000000000000e+00 0.0000000000000000e+00 0.0000000000000000e+00  0.0000000000000000e+00 0.0000000000000000e+00 0.0000000000000000e+00  0.0000000000000000e+00 0.0000000000000000e+00 0.0000000000000000e+00  0.0000000000000000e+00 0.0000000000000000e+00 0.0000000000000000e+00  0.0000000000000000e+00 0.0000000000000000e+00 0.0000000000000000e+00  0.0000000000000000e+00 0.0000000000000000e+00 0.0000000000000000e+00  -4.6636437884996945e-07 -8.9727117900642570e-08 0.0000000000000000e+00  -9.2141262216043844e-07 -1.8104665148794601e-07 0.0000000000000000e+00  -1.3497908526887835e-06 -2.7551247042604298e-07 0.0000000000000000e+00  -1.7269698557575128e-06 -3.7452162839639127e-07 0.0000000000000000e+00  -2.0130112910783230e-06 -4.7927457310100973e-07 0.0000000000000000e+00  -2.1440667316795322e-06 -5.9081254382260165e-07 0.0000000000000000e+00  -2.0202205329928781e-06 -7.1022526401332378e-07 0.0000000000000000e+00  -1.4873093780210726e-06 -8.3921126420015626e-07 0.0000000000000000e+00  -3.0808854280193750e-07 -9.8135164365009722e-07 0.0000000000000000e+00  1.8875446781766758e-06 -1.1448634317539454e-06 0.0000000000000000e+00  5.6988040136739295e-06 -1.3486823968887643e-06 0.0000000000000000e+00  1.2166386854937929e-05 -1.6370920234292440e-06 0.0000000000000000e+00  2.3307769077224101e-05 -2.1198022724575238e-06 0.0000000000000000e+00  4.3642168520226629e-05 -3.0983497390040418e-06 0.0000000000000000e+00  8.5065584454159046e-05 -5.5194260291449768e-06 0.0000000000000000e+00  1.8483562747844122e-04 -1.2859199589809351e-05 0.0000000000000000e+00  0.0000000000000000e+00 0.0000000000000000e+00 0.0000000000000000e+00  -9.4522077243795789e-07 -1.7810057196300123e-07 0.0000000000000000e+00  -1.8720092158638077e-06 -3.5949640424158379e-07 0.0000000000000000e+00  -2.7543985946874325e-06 -5.4739228313720261e-07 0.0000000000000000e+00  -3.5491948990983118e-06 -7.4464865072462071e-07 0.0000000000000000e+00  -4.1842463594519910e-06 -9.5365721433015627e-07 0.0000000000000000e+00  -4.5424894146624544e-06 -1.1763254587979280e-06 0.0000000000000000e+00  -4.4394056342623542e-06 -1.4143188159468904e-06 0.0000000000000000e+00  -3.5902423654752551e-06 -1.6698460093316636e-06 0.0000000000000000e+00  -1.5607631089033631e-06 -1.9475032625922592e-06 0.0000000000000000e+00  2.3101945701407776e-06 -2.2580679343981999e-06 0.0000000000000000e+00  9.0399666978969559e-06 -2.6256917167312276e-06 0.0000000000000000e+00  2.0231696317182502e-05 -3.1004617541174739e-06 0.0000000000000000e+00  3.8498132672979627e-05 -3.7766733478773594e-06 0.0000000000000000e+00  6.8211368051412116e-05 -4.8004002575247981e-06 0.0000000000000000e+00  1.1644793852804967e-04 -6.2456117694656324e-06 0.0000000000000000e+00  1.9149635783581996e-04 -7.1492452943353034e-06 0.0000000000000000e+00  0.0000000000000000e+00 0.0000000000000000e+00 0.0000000000000000e+00  -1.4433353665499262e-06 -2.6336870458244814e-07 0.0000000000000000e+00  -2.8690798008808691e-06 -5.3194206480518661e-07 0.0000000000000000e+00  -4.2497146978878866e-06 -8.1076489667626334e-07 0.0000000000000000e+00  -5.5347657867949761e-06 -1.1043115145343791e-06 0.0000000000000000e+00  -6.6350828779711816e-06 -1.4162060589191619e-06 0.0000000000000000e+00  -7.4014718938008161e-06 -1.7490053544793745e-06 0.0000000000000000e+00  -7.5948575011444164e-06 -2.1041929191254972e-06 0.0000000000000000e+00  -6.8442166845128298e-06 -2.4826854591936841e-06 0.0000000000000000e+00  -4.5871732265125337e-06 -2.8863887725797745e-06 0.0000000000000000e+00  1.3596324119967394e-08 -3.3216449579477795e-06 0.0000000000000000e+00  8.1862454008219176e-06 -3.8056418568442016e-06 0.0000000000000000e+00  2.1702047919307709e-05 -4.3764613716698897e-06 0.0000000000000000e+00  4.3039703192433955e-05 -5.1049030161373489e-06 0.0000000000000000e+00  7.5417581708610141e-05 -6.0989070336761912e-06 0.0000000000000000e+00  1.2214859429989335e-04 -7.4851847680820450e-06 0.0000000000000000e+00  1.8375520556389267e-04 -9.4509585881256700e-06 0.0000000000000000e+00  0.0000000000000000e+00 0.0000000000000000e+00 0.0000000000000000e+00  -1.9594898117733293e-06 -3.4357900616654918e-07 0.0000000000000000e+00  -3.9128582202179567e-06 -6.9458496788044308e-07 0.0000000000000000e+00  -5.8431950604504365e-06 -1.0602124203605520e-06 0.0000000000000000e+00  -7.7081635466311851e-06 -1.4468546750711104e-06 0.0000000000000000e+00  -9.4223133245291322e-06 -1.8596074468951157e-06 0.0000000000000000e+00  -1.0832816672387199e-05 -2.3016972329676234e-06 0.0000000000000000e+00  -1.1685590258798291e-05 -2.7739199056351531e-06 0.0000000000000000e+00  -1.1578253141972738e-05 -3.2743259326967504e-06 0.0000000000000000e+00  -9.8962853225539387e-06 -3.7986464683890769e-06 0.0000000000000000e+00  -5.7301814049472061e-06 -4.3423377114637251e-06 0.0000000000000000e+00  2.2228641242997398e-06 -4.9055586312891335e-06 0.0000000000000000e+00  1.5752232939856193e-05 -5.5025676461098943e-06 0.0000000000000000e+00  3.7157567186031401e-05 -6.1761067023925786e-06 0.0000000000000000e+00  6.9037413851949709e-05 -7.0139451725426235e-06 0.0000000000000000e+00  1.1349512483514614e-04 -8.1574003492310887e-06 0.0000000000000000e+00  1.7028897221210305e-04 -9.7717500915977788e-06 0.0000000000000000e+00  0.0000000000000000e+00 0.0000000000000000e+00 0.0000000000000000e+00  -2.4819006569906577e-06 -4.1647897929430989e-07 0.0000000000000000e+00  -4.9809095039872892e-06 -8.4301828437689341e-07 0.0000000000000000e+00  -7.5042817527272821e-06 -1.2894051247848868e-06 0.0000000000000000e+00  -1.0035265294835897e-05 -1.7644729100721888e-06 0.0000000000000000e+00  -1.2515801465442107e-05 -2.2753780462711086e-06 0.0000000000000000e+00  -1.4822125021702373e-05 -2.8265788631562346e-06 0.0000000000000000e+00  -1.6729931861349964e-05 -3.4184653267909363e-06 0.0000000000000000e+00  -1.7865281770689866e-05 -4.0457018727111918e-06 0.0000000000000000e+00  -1.7637564402092429e-05 -4.6956105163612663e-06 0.0000000000000000e+00  -1.5152981861961725e-05 -5.3474647239678623e-06 0.0000000000000000e+00  -9.1137945883852799e-06 -5.9745645598898685e-06 0.0000000000000000e+00  2.2749776967152577e-06 -6.5526019424874643e-06 0.0000000000000000e+00  2.1336378768968572e-05 -7.0801235363433863e-06 0.0000000000000000e+00  5.0781140908211295e-05 -7.6193462173783530e-06 0.0000000000000000e+00  9.3241233089299717e-05 -8.3664347674901903e-06 0.0000000000000000e+00  1.5041856016909637e-04 -9.7561079822682088e-06 0.0000000000000000e+00  0.0000000000000000e+00 0.0000000000000000e+00 0.0000000000000000e+00  -2.9872004012396367e-06 -4.7942630065784350e-07 0.0000000000000000e+00  -6.0257846422922280e-06 -9.7200822345198487e-07 0.0000000000000000e+00  -9.1601041581065396e-06 -1.4906712427116172e-06 0.0000000000000000e+00  -1.2416134126782329e-05 -2.0474362573425861e-06 0.0000000000000000e+00  -1.5787161151749510e-05 -2.6525540572728758e-06 0.0000000000000000e+00  -1.9212325535721713e-05 -3.3130702539517424e-06 0.0000000000000000e+00  -2.2544235640673264e-05 -4.0305529189577949e-06 0.0000000000000000e+00  -2.5500799804066221e-05 -4.7977114699427034e-06 0.0000000000000000e+00  -2.7595571519201247e-05 -5.5937807854422984e-06 0.0000000000000000e+00  -2.8041224127905886e-05 -6.3790848599655031e-06 0.0000000000000000e+00  -2.5624183863455752e-05 -7.0906346498175970e-06 0.0000000000000000e+00  -1.8558061539545687e-05 -7.6438773380820711e-06 0.0000000000000000e+00  -4.3422876583882526e-06 -7.9521901092455636e-06 0.0000000000000000e+00  2.0323630761610520e-05 -7.9867408413623771e-06 0.0000000000000000e+00  5.9520274059084928e-05 -7.9142636923633828e-06 0.0000000000000000e+00  1.1804351328496601e-04 -8.3632607623447642e-06 0.0000000000000000e+00  0.0000000000000000e+00 0.0000000000000000e+00 0.0000000000000000e+00  -3.4412588783023536e-06 -5.2934619207581095e-07 0.0000000000000000e+00  -6.9765207331661241e-06 -1.0753537878340597e-06 0.0000000000000000e+00  -1.0697347293851379e-05 -1.6546365979818114e-06 0.0000000000000000e+00  -1.4686704230395815e-05 -2.2832931040173085e-06 0.0000000000000000e+00  -1.9010392803832859e-05 -2.9761119135089335e-06 0.0000000000000000e+00  -2.3702087331723302e-05 -3.7449669742672249e-06 0.0000000000000000e+00  -2.8737833316770093e-05 -4.5958663245491634e-06 0.0000000000000000e+00  -3.3993797256530580e-05 -5.5238813750761936e-06 0.0000000000000000e+00  -3.9178229367308678e-05 -6.5049572679809510e-06 0.0000000000000000e+00  -4.3725220761301362e-05 -7.4836414312833620e-06 0.0000000000000000e+00  -4.6634838251820795e-05 -8.3567749347280266e-06 0.0000000000000000e+00  -4.6243799260076584e-05 -8.9568676042267520e-06 0.0000000000000000e+00  -3.9916293912335098e-05 -9.0487097629704176e-06 0.0000000000000000e+00  -2.3656182798447737e-05 -8.3744595568972174e-06 0.0000000000000000e+00  8.3582295783646911e-06 -6.8216885588561687e-06 0.0000000000000000e+00  6.4394608192357784e-05 -4.8438684450218019e-06 0.0000000000000000e+00  0.0000000000000000e+00 0.0000000000000000e+00 0.0000000000000000e+00  -3.8019539415686021e-06 -5.6278869516284717e-07 0.0000000000000000e+00  -7.7442459680148622e-06 -1.1459439985228889e-06 0.0000000000000000e+00  -1.1970769094242106e-05 -1.7701458394976828e-06 0.0000000000000000e+00  -1.6630139072443074e-05 -2.4563922503523932e-06 0.0000000000000000e+00  -2.1875551429961656e-05 -3.2256215741913759e-06 0.0000000000000000e+00  -2.7860254970597642e-05 -4.0974419561571908e-06 0.0000000000000000e+00  -3.4724729484499237e-05 -5.0872037438449686e-06 0.0000000000000000e+00  -4.2568601909629699e-05 -6.2000947948088713e-06 0.0000000000000000e+00  -5.1395197471979596e-05 -7.4200632795925976e-06 0.0000000000000000e+00  -6.1008434674659957e-05 -8.6901677965069525e-06 0.0000000000000000e+00  -7.0829811434385147e-05 -9.8798125665595329e-06 0.0000000000000000e+00  -7.9588369792822812e-05 -1.0734959768937137e-05 0.0000000000000000e+00  -8.4824059282445109e-05 -1.0815066921850412e-05 0.0000000000000000e+00  -8.2146970220991922e-05 -9.4479196089697161e-06 0.0000000000000000e+00  -6.4219466405641298e-05 -5.8035700828229665e-06 0.0000000000000000e+00  -1.9417111005240723e-05 6.7853068634215629e-07 0.0000000000000000e+00  0.0000000000000000e+00 0.0000000000000000e+00 0.0000000000000000e+00  -4.0237967436071372e-06 -5.7614007767807495e-07 0.0000000000000000e+00  -8.2317700453949242e-06 -1.1761435351635308e-06 0.0000000000000000e+00  -1.2818382372073013e-05 -1.8247213298648499e-06 0.0000000000000000e+00  -1.7998319605692693e-05 -2.5481843133402478e-06 0.0000000000000000e+00  -2.4016894491183924e-05 -3.3749048916256805e-06 0.0000000000000000e+00  -3.1159703684866776e-05 -4.3351043383154974e-06 0.0000000000000000e+00  -3.9759052340052821e-05 -5.4591721993626629e-06 0.0000000000000000e+00  -5.0191258359602464e-05 -6.7729084914286618e-06 0.0000000000000000e+00  -6.2852228801924781e-05 -8.2865041187255473e-06 0.0000000000000000e+00  -7.8085989017292050e-05 -9.9711294202034985e-06 0.0000000000000000e+00  -9.6018219154609839e-05 -1.1711816784347077e-05 0.0000000000000000e+00  -1.1621043515302776e-04 -1.3217356609567578e-05 0.0000000000000000e+00  -1.3700251639019230e-04 -1.3859898167415620e-05 0.0000000000000000e+00  -1.5437709115116843e-04 -1.2424975461837663e-05 0.0000000000000000e+00  -1.6022854370734886e-04 -6.8294543967340495e-06 0.0000000000000000e+00  -1.4009794859377213e-04 5.8935681246377715e-06 0.0000000000000000e+00  0.0000000000000000e+00 0.0000000000000000e+00 0.0000000000000000e+00  -4.0640531099988016e-06 -5.6602265141399695e-07 0.0000000000000000e+00  -8.3465150800834583e-06 -1.1586030089707458e-06 0.0000000000000000e+00  -1.3082560792547549e-05 -1.8057827422851177e-06 0.0000000000000000e+00  -1.8543063999980881e-05 -2.5387760574559333e-06 0.0000000000000000e+00  -2.5056381006583344e-05 -3.3936381969855271e-06 0.0000000000000000e+00  -3.3034590522201494e-05 -4.4128592715662177e-06 0.0000000000000000e+00  -4.3004727204711050e-05 -5.6464209777619595e-06 0.0000000000000000e+00  -5.5643172963260836e-05 -7.1510766665083501e-06 0.0000000000000000e+00  -7.1805310966567378e-05 -8.9848224392489308e-06 0.0000000000000000e+00  -9.2528342482620191e-05 -1.1189429557408164e-05 0.0000000000000000e+00  -1.1895405164068913e-04 -1.3744647778352103e-05 0.0000000000000000e+00  -1.5205506602131210e-04 -1.6457269493714618e-05 0.0000000000000000e+00  -1.9193394425974213e-04 -1.8706099841631419e-05 0.0000000000000000e+00  -2.3630699281878520e-04 -1.8892615641349401e-05 0.0000000000000000e+00  -2.7773721422365440e-04 -1.3405292773422301e-05 0.0000000000000000e+00  -2.9967014186619483e-04 4.7711879361636684e-06 0.0000000000000000e+00  0.0000000000000000e+00 0.0000000000000000e+00 0.0000000000000000e+00  -3.8896770924689663e-06 -5.2987130398344441e-07 0.0000000000000000e+00  -8.0154387792054950e-06 -1.0874931264911199e-06 0.0000000000000000e+00  -1.2635151172387480e-05 -1.7026975088029297e-06 0.0000000000000000e+00  -1.8054920195418521e-05 -2.4100139213667265e-06 0.0000000000000000e+00  -2.4661008614631293e-05 -3.2516687776977013e-06 0.0000000000000000e+00  -3.2962183870031268e-05 -4.2814121310229794e-06 0.0000000000000000e+00  -4.3647479845991504e-05 -5.5694336200659644e-06 0.0000000000000000e+00  -5.7664869379893348e-05 -7.2083765653372749e-06 0.0000000000000000e+00  -7.6324724711378754e-05 -9.3195136666352312e-06 0.0000000000000000e+00  -1.0142335182391200e-04 -1.2055166495355350e-05 0.0000000000000000e+00  -1.3535374185519048e-04 -1.5584574420311852e-05 0.0000000000000000e+00  -1.8109224574634913e-04 -2.0024374727238456e-05 0.0000000000000000e+00  -2.4175303276266345e-04 -2.5198537467873794e-05 0.0000000000000000e+00  -3.1897319405239331e-04 -2.9894083396204942e-05 0.0000000000000000e+00  -4.0879450917843084e-04 -2.9744790884931203e-05 0.0000000000000000e+00  -4.9446156971362531e-04 -1.2462917054609595e-05 0.0000000000000000e+00  0.0000000000000000e+00 0.0000000000000000e+00 0.0000000000000000e+00  -3.4840344332868984e-06 -4.6660801775257355e-07 0.0000000000000000e+00  -7.1998101871095721e-06 -9.6000777321646038e-07 0.0000000000000000e+00  -1.1403180428586682e-05 -1.5094485935685193e-06 0.0000000000000000e+00  -1.6404749775130312e-05 -2.1498956771293058e-06 0.0000000000000000e+00  -2.2608086417933862e-05 -2.9260753567087665e-06 0.0000000000000000e+00  -3.0563506379725131e-05 -3.8982667827121806e-06 0.0000000000000000e+00  -4.1047182706509524e-05 -5.1510027059844787e-06 0.0000000000000000e+00  -5.5180208289516796e-05 -6.8064930243832384e-06 0.0000000000000000e+00  -7.4609040416971124e-05 -9.0455461050364960e-06 0.0000000000000000e+00  -1.0177578478898181e-04 -1.2139857266827811e-05 0.0000000000000000e+00  -1.4030498456945768e-04 -1.6499353691096182e-05 0.0000000000000000e+00  -1.9548852132209919e-04 -2.2729769545893814e-05 0.0000000000000000e+00  -2.7464526195256805e-04 -3.1645509278623287e-05 0.0000000000000000e+00  -3.8639609815818585e-04 -4.3929402333530240e-05 0.0000000000000000e+00  -5.3562300502920128e-04 -5.7852556811700637e-05 0.0000000000000000e+00  -7.1003929309041412e-04 -5.8150301400249170e-05 0.0000000000000000e+00  0.0000000000000000e+00 0.0000000000000000e+00 0.0000000000000000e+00  -2.8521474764516524e-06 -3.7726661413776122e-07 0.0000000000000000e+00  -5.9070534307655048e-06 -7.7780989355278279e-07 0.0000000000000000e+00  -9.3903423866767394e-06 -1.2273537604780790e-06 0.0000000000000000e+00  -1.3580455985991191e-05 -1.7574198692954356e-06 0.0000000000000000e+00  -1.8846938594824938e-05 -2.4096912452291570e-06 0.0000000000000000e+00  -2.5706562477406565e-05 -3.2426535701596554e-06 0.0000000000000000e+00  -3.4910162826892624e-05 -4.3423167256770846e-06 0.0000000000000000e+00  -4.7582005423629332e-05 -5.8402638814852444e-06 0.0000000000000000e+00  -6.5449722701788960e-05 -7.9451226831213855e-06 0.0000000000000000e+00  -9.1231701970446378e-05 -1.0999362142000718e-05 0.0000000000000000e+00  -1.2929721026868276e-04 -1.5585738863571441e-05 0.0000000000000000e+00  -1.8678111299086359e-04 -2.2735686492238369e-05 0.0000000000000000e+00  -2.7535499398972452e-04 -3.4356684015078500e-05 0.0000000000000000e+00  -4.1343182970753366e-04 -5.4126397058288426e-05 0.0000000000000000e+00  -6.2540501196434682e-04 -8.9010144761603546e-05 0.0000000000000000e+00  -9.0651363746665386e-04 -1.4388547672303210e-04 0.0000000000000000e+00  0.0000000000000000e+00 0.0000000000000000e+00 0.0000000000000000e+00  -2.0231779787797183e-06 -2.6537991298096120e-07 0.0000000000000000e+00  -4.1967163727314719e-06 -5.4798140430272394e-07 0.0000000000000000e+00  -6.6888125883030410e-06 -8.6699992393590804e-07 0.0000000000000000e+00  -9.7093340355198439e-06 -1.2463594861835785e-06 0.0000000000000000e+00  -1.3540793006413400e-05 -1.7184006911031536e-06 0.0000000000000000e+00  -1.8584988251986040e-05 -2.3296800358590011e-06 0.0000000000000000e+00  -2.5437610212925630e-05 -3.1506657738298657e-06 0.0000000000000000e+00  -3.5013154173900763e-05 -4.2926831281393871e-06 0.0000000000000000e+00  -4.8762778440657696e-05 -5.9386795102971967e-06 0.0000000000000000e+00  -6.9070033777783225e-05 -8.4012537643672666e-06 0.0000000000000000e+00  -1.0000021091177092e-04 -1.2237011833690476e-05 0.0000000000000000e+00  -1.4877767053844947e-04 -1.8485582620232844e-05 0.0000000000000000e+00  -2.2879582556360718e-04 -2.9218171036012935e-05 0.0000000000000000e+00  -3.6585021261733062e-04 -4.9017413366566259e-05 0.0000000000000000e+00  -6.1117192204166045e-04 -9.0124379010143304e-05 0.0000000000000000e+00  -1.0751956796070344e-03 -1.9698320968263060e-04 0.0000000000000000e+00  0.0000000000000000e+00 0.0000000000000000e+00 0.0000000000000000e+00  -1.0491978923844166e-06 -1.3696098243546831e-07 0.0000000000000000e+00  -2.1782694094857377e-06 -2.8306619559831980e-07 0.0000000000000000e+00  -3.4768014741410593e-06 -4.4855557909848494e-07 0.0000000000000000e+00  -5.0572162766644472e-06 -6.4630906258772441e-07 0.0000000000000000e+00  -7.0719621279561407e-06 -8.9393976924698886e-07 0.0000000000000000e+00  -9.7397541663507033e-06 -1.2171309061999864e-06 0.0000000000000000e+00  -1.3388272106015054e-05 -1.6552848239371729e-06 0.0000000000000000e+00  -1.8527249421319580e-05 -2.2714882279847770e-06 0.0000000000000000e+00  -2.5979776512795721e-05 -3.1706403224371335e-06 0.0000000000000000e+00  -3.7130711986512904e-05 -4.5331243634026374e-06 0.0000000000000000e+00  -5.4424546618050322e-05 -6.6774715973548452e-06 0.0000000000000000e+00  -8.2427221152762026e-05 -1.0171426279974457e-05 0.0000000000000000e+00  -1.3022241516046792e-04 -1.5986700962870229e-05 0.0000000000000000e+00  -2.1688958362266374e-04 -2.5444077430610608e-05 0.0000000000000000e+00  -3.8177658961123051e-04 -3.8239686360775450e-05 0.0000000000000000e+00  -6.7972726017128142e-04 -4.2354573966910263e-05 0.0000000000000000e+00  0.0000000000000000e+00 0.0000000000000000e+00 0.0000000000000000e+00  0.0000000000000000e+00 0.0000000000000000e+00 0.0000000000000000e+00  0.0000000000000000e+00 0.0000000000000000e+00 0.0000000000000000e+00  0.0000000000000000e+00 0.0000000000000000e+00 0.0000000000000000e+00  0.0000000000000000e+00 0.0000000000000000e+00 0.0000000000000000e+00  0.0000000000000000e+00 0.0000000000000000e+00 0.00000000000000