<?xml version="1.0"?>
<VTKFile type="UnstructuredGrid"  version="0.1"  >
<UnstructuredGrid>
<Piece  NumberOfPoints="289" NumberOfCells="512">
<Points>
<DataArray  type="Float64"  NumberOfComponents="3"  format="ascii">0 0 0  0.0625 0 0  0.125 0 0  0.1875 0 0  0.25 0 0  0.3125 0 0  0.375 0 0  0.4375 0 0  0.5 0 0  0.5625 0 0  0.625 0 0  0.6875 0 0  0.75 0 0  0.8125 0 0  0.875 0 0  0.9375 0 0  1 0 0  0 0.0625 0  0.06245691061978362 0.06249461749299028 0  0.1249124063904953 0.0624891332207891 0  0.1873650452174797 0.06248345324823348 0  0.2498133475876772 0.0624775012524534 0  0.3122557862818239 0.06247122986482431 0  0.3746907867847116 0.06246463464068065 0  0.4371167409216308 0.06245777053915491 0  0.4995320309820399 0.06245076937166666 0  0.5619350442645625 0.06244385409605496 0  0.6243241060535784 0.06243734147161557 0  0.6866971045675823 0.06243161779004203 0  0.7490501030995872 0.0624270632587501 0  0.81137264857596 0.06242389456241986 0  0.8736317855137368 0.06242193069092856 0  0.9357146844749554 0.06242062857258424 0  0.9972099659237997 0.06242264002512461 0  0 0.125 0  0.06241526227790713 0.124989336705145 0  0.1248277219666411 0.1249784615417494 0  0.1872345214396801 0.1249671772676071 0  0.2496327255110179 0.1249553198593856 0  0.312019300673567 0.124942780611316 0  0.3743911188144201 0.1249295342508098 0  0.4367449959413949 0.1249156735627673 0  0.4990777747982565 0.1249014486499815 0  0.5613864497632691 0.124887304455585 0  0.6236682986587072 0.1248739022187326 0  0.685920896310355 0.1248620973301562 0  0.7481416736269014 0.1248528249741652 0  0.8103262799703446 0.1248468093320078 0  0.8724647362423361 0.1248439264690009 0  0.9345380801354165 0.1248416680054043 0  0.9965533628930431 0.1248295907448726 0  0 0.1875 0  0.06237645469910184 0.1874842682640969 0  0.1247487673924372 0.1874681990061788 0  0.1871127097708629 0.1874514739315759 0  0.249463924823213 0.1874338192034064 0  0.3117978894553349 0.1874150367081646 0  0.3741099158773926 0.1873950459100844 0  0.4363952138616423 0.1873739386707711 0  0.4986490438274216 0.1873520470462173 0  0.5608670000843945 0.1873300190073463 0  0.623045474535468 0.1873088872715279 0  0.685182369218319 0.1872900990787432 0  0.7472781846100265 0.187275445791686 0  0.8093378585603336 0.1872667853187668 0  0.8713747374637677 0.187265383519687 0  0.9334216609468942 0.1872706597493458 0  0.9955640575256777 0.1872787607295594 0  0 0.25 0  0.06234183921468964 0.2499795383107921 0  0.1246782719662544 0.249958592962832 0  0.1870037680442534 0.2499367005944209 0  0.2493125986190283 0.2499134463094052 0  0.311598769194288 0.2498885008465358 0  0.3738560011291648 0.2498616739204448 0  0.4360777939703099 0.2498329894852923 0  0.4982576179316379 0.2498027876357983 0  0.5603893124798722 0.2497718542709205 0  0.622467809564906 0.2497415709351427 0  0.6844903729599559 0.2497140591954778 0  0.7464586832484389 0.2496922600514639 0  0.8083823852921154 0.2496798304401362 0  0.87028532939762 0.2496806473538212 0  0.9322168836594293 0.2496975881626544 0  0.9942715797296527 0.2497300964233656 0  0 0.3125 0  0.06231268874960394 0.3124752933512027 0  0.1246188169676278 0.312449935145389 0  0.1869116552574309 0.3124232902590602 0  0.2491841821861943 0.3123947656316802 0  0.3114289692119473 0.3123638477172646 0  0.3736381146401047 0.3123301617365559 0  0.4358032632784659 0.312293563038083 0  0.4979157710217146 0.3122542727082457 0  0.5599671090874049 0.3122130701096441 0  0.6219496573226969 0.3121715515767684 0  0.6838581188142635 0.312132451701652 0  0.7456919107821782 0.3120999917774467 0  0.8074590616391343 0.3120801535818283 0  0.8691823650817071 0.3120806571139762 0  0.9309086918263229 0.3121102415086134 0  0.9927218727858471 0.312176647482816 0  0 0.375 0  0.06229015936237046 0.3749717014520919 0  0.124572760557405 0.3749425655032894 0  0.186840024439775 0.3749117612149546 0  0.249083763710878 0.3748784800238808 0  0.3112952001270523 0.3748419651520973 0  0.3734648190633832 0.3748015666985246 0  0.4355822948330657 0.3747568374575875 0  0.497636544055394 0.3747076905701031 0  0.5596160020854063 0.3746546476303048 0  0.6215092741871731 0.3745992131390585 0  0.683306392753732 0.3745444130464187 0  0.7450010129365364 0.3744955189927967 0  0.8065939866576163 0.3744609195652855 0  0.8680988293267735 0.3744529507905988 0  0.9295495525313991 0.3744882105766629 0  0.9910110217467896 0.374586482791586 0  0 0.4375 0  0.062275242369722 0.4374689483609511 0  0.1245421412393187 0.4374368656443117 0  0.1867920764384192 0.4374027106666425 0  0.2490158885875661 0.4373654301104062 0  0.3112036128340326 0.4373239692756209 0  0.3733442260159888 0.4372773082688503 0  0.4354254296056163 0.4372245418284723 0  0.4974335127118466 0.4371650317580415 0  0.5593533759855751 0.4370986774328668 0  0.6211688549299637 0.4370263733372993 0  0.6828635651915662 0.436950751759718 0  0.7444226008872248 0.4368773334203415 0  0.8058355296315428 0.4368161952999532 0  0.867101195884131 0.4367841295971435 0  0.9282348066007389 0.4368068506504343 0  0.9892776726826393 0.4369199214438484 0  0 0.5 0  0.06226870849426603 0.4999672273698107 0  0.1245285621554472 0.4999332390614263 0  0.1867703762957565 0.4998967868480042 0  0.2489842956516247 0.499856562093288 0  0.3111594381587124 0.4998111764572187 0  0.3732835183974668 0.4997591613469799 0  0.4353424551645985 0.4996990035901159 0  0.49731998461431 0.4996292489625477 0  0.5591973335893576 0.4995487299057029 0  0.620953068927217 0.4994570156638873 0  0.682563343025111 0.4993552508638869 0  0.7440029149914889 0.4992476482039748 0  0.8052475231431937 0.4991440160551456 0  0.8662783236323698 0.4990637352575699 0  0.9270889781759234 0.4990412428139577 0  0.9876954285209011 0.499131655026396 0  0 0.5625 0  0.06227104830238286 0.5624667224426743 0  0.1245330648613174 0.5624320766477342 0  0.1867766454101672 0.5623946358603068 0  0.2489916032037175 0.5623528556104449 0  0.3111665299399958 0.5623050149543611 0  0.3732882975157044 0.562249162108441 0  0.4353414819447964 0.562183075267351 0  0.4973076989859098 0.5621042630510866 0  0.5591648662663218 0.5620100561470911 0  0.6208864699439105 0.5618978951009423 0  0.6824410526937532 0.5617660229877675 0  0.7437924062771475 0.5616149877925466 0  0.8049013743569389 0.5614507051189054 0  0.8657306081886572 0.5612903412617752 0  0.9262534238149142 0.5611726507596047 0  0.9864655870979405 0.5611732944643659 0  0 0.625 0  0.06228241576909874 0.6249675853534259 0  0.1245560071578175 0.6249337085701993 0  0.1868115536652186 0.6248968235497273 0  0.2490389815662933 0.6248552089144812 0  0.3112268650800649 0.6248068659216878 0  0.3733618314235417 0.6247493998669881 0  0.4354278255949507 0.6246798825320264 0  0.4974051850023752 0.6245947002960838 0  0.5592694813503203 0.6244894105501545 0  0.6209901374402568 0.6243586729789776 0  0.6825289901666818 0.6241964276558895 0  0.7438393905019168 0.6239967433055916 0  0.8048673238813649 0.6237563498411284 0  0.8655574874209517 0.6234811797680183 0  0.9258683235689023 0.6232016636164424 0  0.9857967359738207 0.623003565582173 0  0 0.6875 0  0.06230258341078736 0.6874699092236918 0  0.1245969634775848 0.6874383472073569 0  0.1868745434831804 0.687403739089266 0  0.249125863071071 0.6873642888059901 0  0.3113400781678388 0.6873178387596023 0  0.373504318417741 0.6872616897315761 0  0.4356028553817488 0.6871923610823839 0  0.4976159904497841 0.687105265861672 0  0.5595185461292218 0.6869942709044582 0  0.6212778453644987 0.6868511154033708 0  0.6828511822510176 0.6866646972240832 0  0.7441832851902082 0.6864203877924568 0  0.8052057884834438 0.6861000882286304 0  0.8658444359471635 0.6856856299024312 0  0.9260461153434202 0.6851740674247104 0  0.9858386934968457 0.6846270383056215 0  0 0.75 0  0.06233091752305712 0.7499737025647583 0  0.1246546669953146 0.7499460298465814 0  0.1869637201418297 0.7499154944663592 0  0.2492497466691702 0.7498803661292952 0  0.3115031222440838 0.7498385087517407 0  0.3737123066963761 0.7497871590210913 0  0.4358630138707162 0.7497226101232055 0  0.4979370528453004 0.7496397448159058 0  0.5599106537562719 0.7495313288666291 0  0.6217519996327502 0.7493869185071886 0  0.6834176168182821 0.7491911346168827 0  0.7448474917931392 0.7489208871915357 0  0.8059603215363051 0.7485409465292124 0  0.8666566571192718 0.7479977720145845 0  0.9268578450787717 0.7472178591631452 0  0.9866429999370836 0.7461623871353775 0  0 0.8125 0  0.06236638040727418 0.8124788691624609 0  0.1247270093686301 0.8124565729301434 0  0.1870758381554329 0.812431840538928 0  0.2494061498575331 0.8124031705036783 0  0.3117101465986609 0.8123686700373748 0  0.3739784232045604 0.8123258286453934 0  0.4361992550671391 0.812271181339066 0  0.4983575813158971 0.8121997886398418 0  0.5604334736300012 0.8121044090734795 0  0.6223997004429928 0.8119741411525543 0  0.6842176421427968 0.8117921048280319 0  0.7458301996801653 0.8115312423501942 0  0.8071498320022455 0.8111460068650589 0  0.8680432478146323 0.8105538903530189 0  0.9283460246575752 0.8095895424033718 0  0.9881512228630787 0.8078866924655504 0  0 0.875 0  0.06240756321975301 0.874985199283244 0  0.1248111069080627 0.8749695503409346 0  0.1872064014646372 0.8749521227014455 0  0.2495887426178091 0.8749318045522148 0  0.3119526596161739 0.874907173388321 0  0.3742915455787036 0.8748763094555723 0  0.4365971620169854 0.8748365116344882 0  0.498858937870515 0.8747838487470181 0  0.5610629145242984 0.8747124318398078 0  0.6231900226725953 0.8746132074131016 0  0.6852129394341493 0.8744719088648372 0  0.747089524842108 0.874265447570753 0  0.8087470417153544 0.8739550112506267 0  0.8700393656571204 0.8734702831889956 0  0.9306224617759631 0.8726616222568904 0  0.989614252009873 0.8711029112580048 0  0 0.9375 0  0.06245274884540339 0.937492376301799 0  0.1249034321830653 0.9374843054114389 0  0.1873498768724 0.9374752949671196 0  0.2497896661646754 0.9374647526080574 0  0.3122199921581496 0.9374519135997483 0  0.3746374728510936 0.9374357350788558 0  0.4370379154166246 0.9374147
[...]
<PointData  Vectors="f_54"> 
<DataArray  type="Float64"  Name="f_54"  NumberOfComponents="3" format="ascii">0.0000000000000000e+00 0.0000000000000000e+00 0.0000000000000000e+00  0.0000000000000000e+00 0.0000000000000000e+00 0.0000000000000000e+00  0.0000000000000000e+00 0.0000000000000000e+00 0.0000000000000000e+00  0.0000000000000000e+00 0.0000000000000000e+00 0.0000000000000000e+00  0.0000000000000000e+00 0.0000000000000000e+00 0.0000000000000000e+00  0.0000000000000000e+00 0.0000000000000000e+00 0.0000000000000000e+00  0.0000000000000000e+00 0.0000000000000000e+00 0.0000000000000000e+00  0.0000000000000000e+00 0.0000000000000000e+00 0.0000000000000000e+00  0.0000000000000000e+00 0.0000000000000000e+00 0.0000000000000000e+00  0.0000000000000000e+00 0.0000000000000000e+00 0.0000000000000000e+00  0.0000000000000000e+00 0.0000000000000000e+00 0.0000000000000000e+00  0.0000000000000000e+00 0.0000000000000000e+00 0.0000000000000000e+00  0.0000000000000000e+00 0.0000000000000000e+00 0.0000000000000000e+00  0.0000000000000000e+00 0.0000000000000000e+00 0.0000000000000000e+00  0.0000000000000000e+00 0.0000000000000000e+00 0.0000000000000000e+00  0.0000000000000000e+00 0.0000000000000000e+00 0.0000000000000000e+00  0.0000000000000000e+00 0.0000000000000000e+00 0.0000000000000000e+00  0.0000000000000000e+00 0.0000000000000000e+00 0.0000000000000000e+00  3.9796179538764523e-06 4.9815770298563525e-09 0.0000000000000000e+00  8.0529092468893027e-06 1.1758971119923324e-08 0.0000000000000000e+00  1.2310070041685767e-05 2.2311395117160761e-08 0.0000000000000000e+00  1.6832258869937430e-05 3.8975487285967868e-08 0.0000000000000000e+00  2.1684653219581373e-05 6.4590413789933080e-08 0.0000000000000000e+00  2.6906373724931721e-05 1.0257279106252973e-07 0.0000000000000000e+00  3.2495910681100266e-05 1.5684144256828995e-07 0.0000000000000000e+00  3.8390390126949297e-05 2.3144960854345997e-07 0.0000000000000000e+00  4.4436519130225297e-05 3.2968662634830469e-07 0.0000000000000000e+00  5.0349971497477972e-05 4.5226728412927116e-07 0.0000000000000000e+00  5.5657117446739440e-05 5.9399614788763764e-07 0.0000000000000000e+00  5.9604694122233216e-05 7.3782122376225666e-07 0.0000000000000000e+00  6.0997820770636012e-05 8.4377609219760724e-07 0.0000000000000000e+00  5.7847457408665974e-05 8.2475001333463346e-07 0.0000000000000000e+00  4.6449375592773824e-05 4.7690337292727364e-07 0.0000000000000000e+00  1.8687123864080318e-05 -7.6880509048524240e-07 0.0000000000000000e+00  0.0000000000000000e+00 0.0000000000000000e+00 0.0000000000000000e+00  7.8593557461297865e-06 8.1577230454735498e-09 0.0000000000000000e+00  1.5909543826430648e-05 1.9716041784624158e-08 0.0000000000000000e+00  2.4335320746217472e-05 3.8449054706957342e-08 0.0000000000000000e+00  3.3305322535156203e-05 6.8869957957871877e-08 0.0000000000000000e+00  4.2959374300443958e-05 1.1655968963233078e-07 0.0000000000000000e+00  5.3389811107231910e-05 1.8839392662814045e-07 0.0000000000000000e+00  6.4614221266013597e-05 2.9253354504417301e-07 0.0000000000000000e+00  7.6536560226791105e-05 4.3793044863362198e-07 0.0000000000000000e+00  8.8892996347162193e-05 6.3292823626304137e-07 0.0000000000000000e+00  1.0117792280589571e-04 8.8229421243382209e-07 0.0000000000000000e+00  1.1254357367180275e-04 1.1817185356465272e-06 0.0000000000000000e+00  1.2166166552914246e-04 1.5085669104566779e-06 0.0000000000000000e+00  1.2652315944205233e-04 1.8079974176701224e-06 0.0000000000000000e+00  1.2412634287754337e-04 1.9769466868360980e-06 0.0000000000000000e+00  1.0997147316171113e-04 1.8673852157878435e-06 0.0000000000000000e+00  7.7364191807605077e-05 1.4272589556875396e-06 0.0000000000000000e+00  0.0000000000000000e+00 0.0000000000000000e+00 0.0000000000000000e+00  1.1541576511937005e-05 7.9218234756348439e-09 0.0000000000000000e+00  2.3377748316189877e-05 2.0467879192674078e-08 0.0000000000000000e+00  3.5796117258418694e-05 4.2832153098279971e-08 0.0000000000000000e+00  4.9064819112499416e-05 8.1360640477986040e-08 0.0000000000000000e+00  6.3416329327209563e-05 1.4412552707508167e-07 0.0000000000000000e+00  7.9022861464661789e-05 2.4143498618359851e-07 0.0000000000000000e+00  9.5959684465766435e-05 3.8613336371586238e-07 0.0000000000000000e+00  1.1415211039860709e-04 5.9339971678546756e-07 0.0000000000000000e+00  1.3330146088040492e-04 8.7951827292914909e-07 0.0000000000000000e+00  1.5278526751881836e-04 1.2587458999580193e-06 0.0000000000000000e+00  1.7152770246972951e-04 1.7369326915401918e-06 0.0000000000000000e+00  1.8783855042213757e-04 2.3000207830330310e-06 0.0000000000000000e+00  1.9922515641740299e-04 2.8951431965836015e-06 0.0000000000000000e+00  2.0219956545743114e-04 3.4019547460453927e-06 0.0000000000000000e+00  1.9215937149304055e-04 3.5900235189598771e-06 0.0000000000000000e+00  1.6359451139521565e-04 3.0334886368357294e-06 0.0000000000000000e+00  0.0000000000000000e+00 0.0000000000000000e+00 0.0000000000000000e+00  1.4922147781612143e-05 3.0487125702815135e-09 0.0000000000000000e+00  3.0250568667831866e-05 1.1366706981924937e-08 0.0000000000000000e+00  4.6385956561717454e-05 3.0978354490591347e-08 0.0000000000000000e+00  6.3711406909130685e-05 6.9472935683516657e-08 0.0000000000000000e+00  8.2575864946547872e-05 1.3687908985381860e-07 0.0000000000000000e+00  1.0326734465621862e-04 2.4659664740406321e-07 0.0000000000000000e+00  1.2597124205304948e-04 4.1629077058061659e-07 0.0000000000000000e+00  1.5070823174728311e-04 6.6850111428174862e-07 0.0000000000000000e+00  1.7724568672004292e-04 1.0304518518198200e-06 0.0000000000000000e+00  2.0497694918357321e-04 1.5321072863330469e-06 0.0000000000000000e+00  2.3276532329143980e-04 2.2008343346955822e-06 0.0000000000000000e+00  2.5875659481741734e-04 3.0500517604926515e-06 0.0000000000000000e+00  2.8017930112620332e-04 4.0579541522816279e-06 0.0000000000000000e+00  2.9318318535357090e-04 5.1308113169607853e-06 0.0000000000000000e+00  2.9282451891905374e-04 6.0433061701398150e-06 0.0000000000000000e+00  2.7339909840437668e-04 6.3460678538899185e-06 0.0000000000000000e+00  0.0000000000000000e+00 0.0000000000000000e+00 0.0000000000000000e+00  1.7889135471766218e-05 -7.1062498179131225e-09 0.0000000000000000e+00  3.6302935077849311e-05 -9.0646576448488499e-09 0.0000000000000000e+00  5.5764662184185154e-05 1.6611460316313618e-10 0.0000000000000000e+00  7.6788100666709097e-05 2.8528706274579543e-08 0.0000000000000000e+00  9.9864523016284000e-05 8.7049864822659533e-08 0.0000000000000000e+00  1.2543844363353541e-04 1.9128124574446876e-07 0.0000000000000000e+00  1.5386656930353455e-04 3.6302241060092481e-07 0.0000000000000000e+00  1.8535295028907029e-04 6.3223708355445433e-07 0.0000000000000000e+00  2.1985204099742302e-04 1.0388356870010743e-06 0.0000000000000000e+00  2.5693095669609013e-04 1.6335362718590046e-06 0.0000000000000000e+00  2.9558415549184726e-04 2.4761841099951337e-06 0.0000000000000000e+00  3.3400075307766732e-04 3.6285068636004037e-06 0.0000000000000000e+00  3.6930098064702065e-04 5.1360890378812080e-06 0.0000000000000000e+00  3.9728981035927100e-04 6.9912935300154299e-06 0.0000000000000000e+00  4.1232833921191913e-04 9.0656703272423631e-06 0.0000000000000000e+00  4.0749805647323343e-04 1.1001267055938211e-05 0.0000000000000000e+00  0.0000000000000000e+00 0.0000000000000000e+00 0.0000000000000000e+00  2.0324004283361311e-05 -2.2417713088802988e-08 0.0000000000000000e+00  4.1293582273123129e-05 -4.0717484780009250e-08 0.0000000000000000e+00  6.3559983700957719e-05 -4.9847460017793023e-08 0.0000000000000000e+00  8.7779777125735115e-05 -4.2709774162556274e-08 0.0000000000000000e+00  1.1460970565654679e-04 -8.7480020556401176e-09 0.0000000000000000e+00  1.4469055823458407e-04 6.7968005745745669e-08 0.0000000000000000e+00  1.7861382590567563e-04 2.1136543303970930e-07 0.0000000000000000e+00  2.1686260942666499e-04 4.5689035526811322e-07 0.0000000000000000e+00  2.5971546767617306e-04 8.5600674117694268e-07 0.0000000000000000e+00  3.0709916046280599e-04 1.4814199391899913e-06 0.0000000000000000e+00  3.5837480141551583e-04 2.4319977730796584e-06 0.0000000000000000e+00  4.1204433117279587e-04 3.8347652747435316e-06 0.0000000000000000e+00  4.6537482757103970e-04 5.8383270311310614e-06 0.0000000000000000e+00  5.1396335721798218e-04 8.5867409491511239e-06 0.0000000000000000e+00  5.5131219113110626e-04 1.2154061345937418e-05 0.0000000000000000e+00  5.6856003595085814e-04 1.6406219818952478e-05 0.0000000000000000e+00  0.0000000000000000e+00 0.0000000000000000e+00 0.0000000000000000e+00  2.2105811979102841e-05 -4.1847288762310829e-08 0.0000000000000000e+00  4.4973270083172608e-05 -8.1558963263512566e-08 0.0000000000000000e+00  6.9379411529368689e-05 -1.1617772011795746e-07 0.0000000000000000e+00  9.6127658331509827e-05 -1.4087753995049283e-07 0.0000000000000000e+00  1.2605502596839855e-04 -1.4751520768213937e-07 0.0000000000000000e+00  1.6003028484442916e-04 -1.2245883518674523e-07 0.0000000000000000e+00  1.9893685157407228e-04 -4.3277312372986198e-08 0.0000000000000000e+00  2.4363087544050730e-04 1.2626833839704244e-07 0.0000000000000000e+00  2.9486025065319485e-04 4.4362412933774739e-07 0.0000000000000000e+00  3.5312401763103012e-04 9.9794292771559289e-07 0.0000000000000000e+00  4.1844426663683313e-04 1.9240554882174311e-06 0.0000000000000000e+00  4.9001598241968348e-04 3.4190944870675441e-06 0.0000000000000000e+00  5.6569851088778098e-04 5.7579832361799525e-06 0.0000000000000000e+00  6.4132349157367365e-04 9.2975281913054712e-06 0.0000000000000000e+00  7.0982993087861880e-04 1.4445576263013969e-05 0.0000000000000000e+00  7.6030965572686281e-04 2.1544744645390223e-05 0.0000000000000000e+00  0.0000000000000000e+00 0.0000000000000000e+00 0.0000000000000000e+00  2.3118566964903609e-05 -6.3399493522838166e-08 0.0000000000000000e+00  4.7099750984938147e-05 -1.2748788048365785e-07 0.0000000000000000e+00  7.2833161454927741e-05 -1.9243687546959548e-07 0.0000000000000000e+00  1.0126061746719875e-04 -2.5715326286007564e-07 0.0000000000000000e+00  1.3339964136061338e-04 -3.1810434299115052e-07 0.0000000000000000e+00  1.7036200491751138e-04 -3.6732039361757011e-07 0.0000000000000000e+00  2.1336228352512391e-04 -3.8898331246403263e-07 0.0000000000000000e+00  2.6370736479972609e-04 -3.5367562269941160e-07 0.0000000000000000e+00  3.2275133875702333e-04 -2.0888738616201920e-07 0.0000000000000000e+00  3.9179005745036298e-04 1.3621756476512975e-07 0.0000000000000000e+00  4.7185481200919790e-04 8.3434557876284449e-07 0.0000000000000000e+00  5.6334485397519071e-04 2.1346312093015030e-06 0.0000000000000000e+00  6.6541664246040362e-04 4.4297039863271453e-06 0.0000000000000000e+00  7.7503300094956698e-04 8.3124390791831135e-06 0.0000000000000000e+00  8.8558668001853383e-04 1.4628612604963300e-05 0.0000000000000000e+00  9.8506971685625479e-04 2.4485185175070227e-05 0.0000000000000000e+00  0.0000000000000000e+00 0.0000000000000000e+00 0.0000000000000000e+00  2.3261491224051964e-05 -8.4233275018499956e-08 0.0000000000000000e+00  4.7459079427742941e-05 -1.7251630236650707e-07 0.0000000000000000e+00  7.3568036304531563e-05 -2.6888047439170603e-07 0.0000000000000000e+00  1.0264362636812753e-04 -3.7714831958877837e-07 0.0000000000000000e+00  1.3586338508797210e-04 -5.0041566889924955e-07 0.0000000000000000e+00  1.7457087309946954e-04 -6.3983374091452908e-07 0.0000000000000000e+00  2.2031869797627449e-04 -7.9205357930064552e-07 0.0000000000000000e+00  2.7490478827453020e-04 -9.4419760118617157e-07 0.0000000000000000e+00  3.4038879799790463e-04 -1.0643944556959784e-06 0.0000000000000000e+00  4.1906278707356859e-04 -1.0846168637645991e-06 0.0000000000000000e+00  5.1332860470057441e-04 -8.7070470508777062e-07 0.0000000000000000e+00  6.2539978157507333e-04 -1.7213723247028788e-07 0.0000000000000000e+00  7.5669617699401532e-04 1.4581670217655058e-06 0.0000000000000000e+00  9.0674198650705451e-04 4.7851710630208329e-06 0.0000000000000000e+00  1.0713419982868431e-03 1.1065922756086512e-05 0.0000000000000000e+00  1.2398627719443589e-03 2.2291703069086196e-05 0.0000000000000000e+00  0.0000000000000000e+00 0.0000000000000000e+00 0.0000000000000000e+00  2.2461393708479830e-05 -1.0097048824567048e-07 0.0000000000000000e+00  4.5891743860558075e-05 -2.0938321855731294e-07 0.0000000000000000e+00  7.1310120358942925e-05 -3.3329967735880071e-07 0.0000000000000000e+00  9.9841244684180180e-05 -4.8197726390383477e-07 0.0000000000000000e+00  1.3277654155790703e-04 -6.6636795302290334e-07 0.0000000000000000e+00  1.7164496147618278e-04 -8.9933111198080751e-07 0.0000000000000000e+00  2.1829603174040529e-04 -1.1950999873392717e-06 0.0000000000000000e+00  2.7499547080340954e-04 -1.5670080298732317e-06 0.0000000000000000e+00  3.4452843686050147e-04 -2.0214576943186861e-06 0.0000000000000000e+00  4.3029380035966873e-04 -2.5442463467560251e-06 0.0000000000000000e+00  5.3634889003741938e-04 -3.0721802530320490e-06 0.0000000000000000e+00  6.6731856320419614e-04 -3.4379985734194043e-06 0.0000000000000000e+00  8.2800290543522364e-04 -3.2701077267527189e-06 0.0000000000000000e+00  1.0223968458723475e-03 -1.8213934724259782e-06 0.0000000000000000e+00  1.2516974668150555e-03 2.3082887080990589e-06 0.0000000000000000e+00  1.5108338505015785e-03 1.1625222665301219e-05 0.0000000000000000e+00  0.0000000000000000e+00 0.0000000000000000e+00 0.0000000000000000e+00  2.0685756012523515e-05 -1.1020401654643316e-07 0.0000000000000000e+00  4.2320792342813209e-05 -2.3062617564644275e-07 0.0000000000000000e+00  6.5912040280563256e-05 -3.7275975623901822e-07 0.0000000000000000e+00  9.2590625492131037e-05 -5.5078879863085712e-07 0.0000000000000000e+00  1.2368816577912876e-04 -7.8330001495585765e-07 0.0000000000000000e+00  1.6083168240594182e-04 -1.0953954085447813e-06 0.0000000000000000e+00  2.0606559124431185e-04 -1.5211993020830117e-06 0.0000000000000000e+00  2.6201053123588787e-04 -2.1064202722190975e-06 0.0000000000000000e+00  3.3206872825394254e-04 -2.9097912812996605e-06 0.0000000000000000e+00  4.2068113796221767e-04 -4.0002947591989212e-06 0.0000000000000000e+00  5.3362590109110367e-04 -5.4430654998597206e-06 0.0000000000000000e+00  6.7830644784285009e-04 -7.2593643324724785e-06 0.0000000000000000e+00  8.6388472044115832e-04 -9.3344395363569069e-06 0.0000000000000000e+00  1.1009330816510253e-03 -1.1235716995207226e-05 0.0000000000000000e+00  1.3999982797651875e-03 -1.1906659541838435e-05 0.0000000000000000e+00  1.7683453556572521e-03 -9.1909374529140242e-06 0.0000000000000000e+00  0.0000000000000000e+00 0.0000000000000000e+00 0.0000000000000000e+00  1.7954568797843581e-05 -1.0914895487061745e-07 0.0000000000000000e+00  3.6777827407172735e-05 -2.3000564563552219e-07 0.0000000000000000e+00  5.7398134392985491e-05 -3.7605702175845785e-07 0.0000000000000000e+00  8.0874406203866006e-05 -5.6467760857691070e-07 0.0000000000000000e+00  1.0848010049367571e-04 -8.1994065616977607e-07 0.0000000000000000e+00  1.4181299895269785e-04 -1.1766346712942226e-06 0.0000000000000000e+00  1.8294519801051166e-04 -1.6861568171380829e-06 0.0000000000000000e+00  2.3463359967427108e-04 -2.4251225801640390e-06 0.0000000000000000e+00  3.0061935660236365e-04 -3.5074889381607844e-06 0.0000000000000000e+00  3.8605458754510571e-04 -5.1001135942089390e-06 0.0000000000000000e+00  4.9810263387753385e-04 -7.4383401913090038e-06 0.0000000000000000e+00  6.4675189431810914e-04 -1.0828787524548236e-05 0.0000000000000000e+00  8.4582887534857224e-04 -1.5605288881320033e-05 0.0000000000000000e+00  1.1140139111549320e-03 -2.1973386039946430e-05 0.0000000000000000e+00  1.4752056267856959e-03 -2.9726822330710758e-05 0.0000000000000000e+00  1.9567483738758794e-03 -3.8617877283220562e-05 0.0000000000000000e+00  0.0000000000000000e+00 0.0000000000000000e+00 0.0000000000000000e+00  1.4348603063487200e-05 -9.6313494626544781e-08 0.0000000000000000e+00  2.9421835130010890e-05 -2.0401993000395814e-07 0.0000000000000000e+00  4.5998936434936127e-05 -3.3646770369860750e-07 0.0000000000000000e+00  6.4980005678235163e-05 -5.1136916864712307e-07 0.0000000000000000e+00  8.7466531372517445e-05 -7.5419754372662361e-07 0.0000000000000000e+00  1.1487061141882277e-04 -1.1034153993639643e-06 0.0000000000000000e+00  1.4907091061421802e-04 -1.6188849917453764e-06 0.0000000000000000e+00  1.9264335822029112e-04 -2.3956946164618267e-06 0.0000000000000000e+00  2.4921118767423536e-04 -3.5870414865369961e-06 0.0000000000000000e+00  3.2398631566306568e-04 -5.4417016833635298e-06 0.0000000000000000e+00  4.2461835513061283e-04 -8.3628229577147128e-06 0.0000000000000000e+00  5.6253524916826260e-04 -1.2989435064323103e-05 0.0000000000000000e+00  7.5504688226195685e-04 -2.0266949086413879e-05 0.0000000000000000e+00  1.0285350298199455e-03 -3.1323178115434116e-05 0.0000000000000000e+00  1.4228591134930258e-03 -4.6387286004094426e-05 0.0000000000000000e+00  1.9960726796617715e-03 -5.9473426958897909e-05 0.0000000000000000e+00  0.0000000000000000e+00 0.0000000000000000e+00 0.0000000000000000e+00  1.0011853563321445e-05 -7.2015556471406438e-08 0.0000000000000000e+00  2.0545755945639735e-05 -1.5311811511111995e-07 0.0000000000000000e+00  3.2165792713875120e-05 -2.5408227582874821e-07 0.0000000000000000e+00  4.5529822456692077e-05 -3.8950272591186572e-07 0.0000000000000000e+00  6.1453596657686036e-05 -5.8091727117223736e-07 0.0000000000000000e+00  8.1000058531891496e-05 -8.6185169374369424e-07 0.0000000000000000e+00  1.0561091546058313e-04 -1.2864265689156775e-06 0.0000000000000000e+00  1.3730856752456466e-04 -1.9445992370439420e-06 0.0000000000000000e+00  1.7901635191709325e-04 -2.9899995671882048e-06 0.0000000000000000e+00  2.3508176255705238e-04 -4.6922081535824232e-06 0.0000000000000000e+00  3.1215736494838296e-04 -7.5374183330684423e-06 0.0000000000000000e+00  4.2073489450877800e-04 -1.2425842612986806e-05 0.0000000000000000e+00  5.7793360717894925e-04 -2.1060246470291965e-05 0.0000000000000000e+00  8.1287672059980403e-04 -3.6689355729899321e-05 0.0000000000000000e+00  1.1778958547311751e-03 -6.5390226732103642e-05 0.0000000000000000e+00  1.7742002545151452e-03 -1.1759431107831067e-04 0.0000000000000000e+00  0.0000000000000000e+00 0.0000000000000000e+00 0.0000000000000000e+00  5.1465087642436082e-06 -3.8565859403930611e-08 0.0000000000000000e+00  1.0566912408946346e-05 -8.2185337323832616e-08 0.0000000000000000e+00  1.6558097524567320e-05 -1.3689532928650507e-07 0.0000000000000000e+00  2.3468487649211606e-05 -2.1097814405160322e-07 0.0000000000000000e+00  3.1733877540818002e-05 -3.1685394943658160e-07 0.0000000000000000e+00  4.1928188498967834e-05 -4.7423127231334061e-07 0.0000000000000000e+00  5.4839729075308001e-05 -7.1568624096140817e-07 0.0000000000000000e+00  7.1590853054886709e-05 -1.0970297113107429e-06 0.0000000000000000e+00  9.3832402937307210e-05 -1.7174987357533473e-06 0.0000000000000000e+00  1.2406928965155340e-04 -2.7611770357447391e-06 0.0000000000000000e+00  1.6621869901439404e-04 -4.5871364102427311e-06 0.0000000000000000e+00  2.2657593096664581e-04 -7.9389086344857837e-06 0.0000000000000000e+00  3.1543514854826221e-04 -1.4465202342881484e-05 0.0000000000000000e+00  4.4939763133097213e-04 -2.8091171971487543e-05 0.0000000000000000e+00  6.5224008075574357e-04 -5.8697564258170364e-05 0.0000000000000000e+00  9.4020704933777527e-04 -1.3074293546797255e-04 0.0000000000000000e+00  0.0000000000000000e+00 0.0000000000000000e+00 0.0000000000000000e+00  0.0000000000000000e+00 0.0000000000000000e+00 0.0000000000000000e+00  0.0000000000000000e+00 0.0000000000000000e+00 0.0000000000000000e+00  0.0000000000000000e+00 0.0000000000000000e+00 0.0000000000000000e+00  0.0000000000000000e+00 0.0000000000000000e+00 0.0000000000000000e+00  0.0000000000000000e+00 0.0000000000000000e+00 0.0000000000000000e+00  0.0000000000000000e+00 0.0000000000000000e+00 0.0000000000000000e+00  0.0000000000000000e+00 0.0000000000000000e+00 0.0000000000000000e+00  0.0000000000000000e+00 0.0000000000000000e+00 0.0000000000000000e+00  0.0000000000000000e+00 0.0000000000000000e+00 0.0000000000000000e+00  0.0000000000000000e+00