<?xml version="1.0"?>
<VTKFile type="UnstructuredGrid"  version="0.1"  >
<UnstructuredGrid>
<Piece  NumberOfPoints="289" NumberOfCells="512">
<Points>
<DataArray  type="Float64"  NumberOfComponents="3"  format="ascii">0 0 0  0.0625 0 0  0.125 0 0  0.1875 0 0  0.25 0 0  0.3125 0 0  0.375 0 0  0.4375 0 0  0.5 0 0  0.5625 0 0  0.625 0 0  0.6875 0 0  0.75 0 0  0.8125 0 0  0.875 0 0  0.9375 0 0  1 0 0  0 0.0625 0  0.06245303624792771 0.06248692091639587 0  0.1249052653552604 0.06247361380100341 0  0.1873559481291365 0.06245987182318629 0  0.2498045476536145 0.06244553906788174 0  0.3122508713626648 0.06243054354240338 0  0.3746952680901412 0.0624149383782825 0  0.437138907570817 0.06239895161321465 0  0.4995841826517769 0.06238304148731859 0  0.5620353026585754 0.06236794804361772 0  0.6244992145660596 0.0623547221385599 0  0.686987165314085 0.06234470037322926 0  0.7495176994473098 0.06233938526531053 0  0.812123244886692 0.06234020964469962 0  0.8748663713360894 0.06234830695442595 0  0.9378831256047581 0.06236510164551998 0  1.001500239791061 0.06239912026363596 0  0 0.125 0  0.06240691701838075 0.1249740650939931 0  0.1248121347863036 0.1249476493976682 0  0.1872140792670347 0.124920311548081 0  0.249611553842766 0.1248917059665561 0  0.3120040082715513 0.1248616468395618 0  0.3743919150569627 0.1248301903648391 0  0.4367773049328304 0.1247977378372223 0  0.4991645322545857 0.1247651562662198 0  0.5615613775505691 0.1247339018091528 0  0.6239806700090543 0.124706111398038 0  0.6864427747962641 0.1246845971254924 0  0.7489796277966559 0.124672638749643 0  0.8116416155078261 0.1246734433104786 0  0.8745092929963623 0.1246892066257973 0  0.9377107630154659 0.1247200681586154 0  1.001435363729256 0.1247635469499072 0  0 0.1875 0  0.06236257083378306 0.1874616881433488 0  0.124722384227669 0.1874225972221789 0  0.1870768413981441 0.1873819996075352 0  0.2494238362010129 0.1873392953851372 0  0.3117621157690124 0.1872941021642845 0  0.3740917936490243 0.1872463760935454 0  0.4364150853755172 0.1871965721674326 0  0.4987373534582065 0.1871458460057204 0  0.5610685712654988 0.1870962856440892 0  0.6234253433747771 0.187051134047743 0  0.6858336453312182 0.1870149104743788 0  0.7483324180396007 0.1869932423236774 0  0.810977864919974 0.1869920325854348 0  0.8738470945937922 0.1870151572521775 0  0.9370360848066064 0.1870586233154549 0  1.000639250307244 0.1870949480057811 0  0 0.25 0  0.0623210912511121 0.2499500908594436 0  0.1246381489293154 0.2498990447349007 0  0.1869472964216091 0.2498457782773776 0  0.2492451765578635 0.2497893468088894 0  0.311529351973968 0.2497290500040279 0  0.3737988939827773 0.2496645839985177 0  0.4360552452954448 0.2495962575651629 0  0.4983034560194458 0.2495252880664641 0  0.5605538982409918 0.2494541835319624 0  0.6228245430015457 0.2493871917728441 0  0.6851437906816866 0.2493307405163884 0  0.7475535830801637 0.249293678328435 0  0.8101118873986418 0.2492869164242933 0  0.8728922854326921 0.2493217339955436 0  0.9359760930967596 0.2494056694918289 0  0.9994302642792955 0.2495357032887579 0  0 0.3125 0  0.06228378066891473 0.312439632972388 0  0.1245620247757976 0.3123777077707644 0  0.1868293073576594 0.3123127086523302 0  0.2490806391377394 0.3122432399654614 0  0.3113118409825411 0.3121681312183746 0  0.3735201324128358 0.3120866031938741 0  0.4357050368365756 0.3119985254146043 0  0.4978697257254466 0.3119048020484511 0  0.5600229307390506 0.3118079270308926 0  0.6221815189953567 0.3117127412851052 0  0.6843736976878946 0.3116273876262113 0  0.7466424967909226 0.3115643592175921 0  0.8090485517353113 0.3115413249048475 0  0.871670234356315 0.3115810430395661 0  0.9345982937028383 0.3117091933940231 0  0.9979230878716205 0.3119486605359165 0  0 0.375 0  0.06225215162918915 0.3749307363612612 0  0.124497081321771 0.3748594408203397 0  0.1867275849482341 0.3747840965338077 0  0.2489366861159711 0.374702751377413 0  0.3111179077608744 0.37461359871078 0  0.3732657679021948 0.3745151279414583 0  0.4353766224589209 0.3744063877311328 0  0.4974500169953739 0.3742874240355775 0  0.5594907457716016 0.374159980642434 0  0.6215118249400829 0.3740285772052765 0  0.6835385140436503 0.3739020934770531 0  0.7456132766438499 0.3737959479286968 0  0.8078010529665687 0.3737347775950155 0  0.8701934279822559 0.3737550579754106 0  0.9329096419133893 0.37390618904616 0  0.9960931460560155 0.374247226173801 0  0 0.4375 0  0.06222787719551023 0.4374238739594153 0  0.1244467683502684 0.4373452178233409 0  0.1866475635027392 0.4372614723198654 0  0.2488210469212813 0.4371700477338462 0  0.3109579810171578 0.4370683510942568 0  0.3730493983532713 0.4369538793379873 0  0.4350872415712592 0.4368244281720026 0  0.4970655624810416 0.4366784987832456 0  0.5589825881620218 0.43651603663643 0  0.6208440734678004 0.4363397150185801 0  0.6826684461125194 0.4361570802401103 0  0.7444942152420382 0.4359839757407594 0  0.8063897788969117 0.435849647540861 0  0.8684649242061168 0.4358035218401368 0  0.9308820464146726 0.4359223373344131 0  0.9938645649885607 0.4363137097786627 0  0 0.5 0  0.06221268636344305 0.4999195414853979 0  0.1244147059083427 0.4998360764291905 0  0.1865950862310376 0.4997465107263903 0  0.2487423069394118 0.4996475895365966 0  0.3108441111821422 0.4995358409301431 0  0.3728874680014864 0.4994075631965222 0  0.4348588248017044 0.4992589000314395 0  0.4967448970013352 0.4990860876390935 0  0.5585344186490575 0.4988860311448601 0  0.6202215491502461 0.4986574994728634 0  0.6818120040844219 0.4984034534798006 0  0.7433333806909292 0.4981353718116592 0  0.8048513026421465 0.4978808631109267 0  0.8664922601420919 0.4976959985982151 0  0.9284714927508553 0.4976825713407828 0  0.9911206569700929 0.4980059052242833 0  0 0.5625 0  0.06220820632233803 0.562418211327285 0  0.1244043588429682 0.5623330229654242 0  0.1865758945348239 0.5622408821129342 0  0.2487091933516492 0.5621379246870691 0  0.3107890483598057 0.5620198129539157 0  0.3727981749197781 0.5618815742560584 0  0.4347168608983684 0.561717462027213 0  0.4965229890525433 0.5615208939749754 0  0.5581929105066772 0.5612845948642096 0  0.6197041032239284 0.5610012261943752 0  0.6810413323876107 0.5606651100716363 0  0.7422092326522449 0.5602763106922249 0  0.8032556717195829 0.5598495481716944 0  0.8643108035780595 0.5594322014932295 0  0.9256432365477113 0.559136610713712 0  0.9877227799180149 0.5591866032386922 0  0 0.625 0  0.06221576141022685 0.6249202714696493 0  0.1244186129502997 0.6248369029550849 0  0.1865949391260353 0.6247460396828683 0  0.2487295627954129 0.6246433699273458 0  0.3108048444414959 0.6245238514597492 0  0.3727996528693061 0.6243813820439602 0  0.4346882186024061 0.6242083953517911 0  0.4964389901857086 0.6239953726395469 0  0.5580138704201928 0.6237302938148345 0  0.6193687801594757 0.6233981535219618 0  0.6804576955961315 0.6229809576913601 0  0.7412446478717786 0.6224594036818111 0  0.8017322330368096 0.6218194823765586 0  0.8620204821837086 0.6210719977517689 0  0.9224110921958107 0.6203013997830047 0  0.9835544852623592 0.6197629546109916 0  0 0.6875 0  0.06223614888560521 0.6874259567943029 0  0.1244592919841888 0.6873482520693837 0  0.1866555674065646 0.6872629649926907 0  0.2488091485597813 0.6871656085065706 0  0.3109010105057824 0.6870507646136089 0  0.3729073664181988 0.6869116065601885 0  0.4347976411179587 0.686739242991562 0  0.4965318726192657 0.6865217895494098 0  0.5580575717168107 0.6862430300166449 0  0.6193065297158268 0.6858804792269232 0  0.6801933474691833 0.6854026624129378 0  0.7406207216057951 0.6847657543241316 0  0.8005041633027756 0.6839114621759002 0  0.85984448342516 0.6827750940826723 0  0.9188978444225347 0.681336741882941 0  0.9784739346449565 0.6797900728450189 0  0 0.75 0  0.06226942298655654 0.749935284263022 0  0.124526681020353 0.7498671524012572 0  0.1867586901003247 0.7497919138961644 0  0.248950207532448 0.7497052692689073 0  0.3110823917655194 0.7496019007091981 0  0.3731308490437729 0.7494749116263025 0  0.4350628674526456 0.7493150161497233 0  0.4968334169800309 0.74910931641639 0  0.558379360567313 0.7488393852992887 0  0.6196112990046444 0.7484781350038767 0  0.6804030143505623 0.7479844759943105 0  0.7405810632945521 0.7472938646445624 0  0.7999262649164235 0.7463015477347762 0  0.8582278150693571 0.7448364597272966 0  0.9155105061910149 0.742651128466603 0  0.9726285568273842 0.7397047171491967 0  0 0.8125 0  0.06231472819347569 0.8124480058054793 0  0.1246191456883727 0.812393125104357 0  0.1869020805832517 0.8123322189316321 0  0.249150306433227 0.8122615824190179 0  0.3113471089309263 0.8121765554373559 0  0.3734702463853769 0.812070978569873 0  0.4354888832005501 0.8119363911102584 0  0.4973588022039483 0.8117608002948473 0  0.5590147260984336 0.8115267185462318 0  0.6203577809278858 0.8112078788051169 0  0.6812349333636505 0.8107633395995832 0  0.7414060644242182 0.8101258018180645 0  0.8004965290681625 0.8091754825526486 0  0.857956041396861 0.8076744128612182 0  0.9131785700191795 0.8050834134274258 0  0.9667848340505046 0.7999632294662973 0  0 0.875 0  0.06237022562779452 0.8749635917259168 0  0.1247329477489888 0.8749250889780421 0  0.187079992007594 0.8748822039387941 0  0.2494015672659067 0.8748322129684551 0  0.31168510228488 0.8747716538384803 0  0.3739135358311307 0.8746959009455865 0  0.4360626411346763 0.8745985421526467 0  0.4980966351079784 0.8744704431720035 0  0.5599606667135278 0.874298330908008 0  0.6215674350253229 0.8740626517683441 0  0.6827723299209986 0.8737343344146565 0  0.7433251685550334 0.8732696687585297 0  0.8027721833193243 0.8726003474255004 0  0.8602496097187006 0.8716043894185664 0  0.914053214709959 0.8699890572642192 0  0.9608872558013798 0.8667428034453213 0  0 0.9375 0  0.06243314838265153 0.9374812526008132 0  0.1248623429928891 0.9374614038569004 0  0.1872832628398673 0.9374392477373424 0  0.2496906968188546 0.9374133416282163 0  0.3120778920508496 0.9373818416759436 0  0.3744355787471841 0.937342272776156 0  0.436750411063735 0.9372
[...]
<PointData  Vectors="f_54"> 
<DataArray  type="Float64"  Name="f_54"  NumberOfComponents="3" format="ascii">0.0000000000000000e+00 0.0000000000000000e+00 0.0000000000000000e+00  0.0000000000000000e+00 0.0000000000000000e+00 0.0000000000000000e+00  0.0000000000000000e+00 0.0000000000000000e+00 0.0000000000000000e+00  0.0000000000000000e+00 0.0000000000000000e+00 0.0000000000000000e+00  0.0000000000000000e+00 0.0000000000000000e+00 0.0000000000000000e+00  0.0000000000000000e+00 0.0000000000000000e+00 0.0000000000000000e+00  0.0000000000000000e+00 0.0000000000000000e+00 0.0000000000000000e+00  0.0000000000000000e+00 0.0000000000000000e+00 0.0000000000000000e+00  0.0000000000000000e+00 0.0000000000000000e+00 0.0000000000000000e+00  0.0000000000000000e+00 0.0000000000000000e+00 0.0000000000000000e+00  0.0000000000000000e+00 0.0000000000000000e+00 0.0000000000000000e+00  0.0000000000000000e+00 0.0000000000000000e+00 0.0000000000000000e+00  0.0000000000000000e+00 0.0000000000000000e+00 0.0000000000000000e+00  0.0000000000000000e+00 0.0000000000000000e+00 0.0000000000000000e+00  0.0000000000000000e+00 0.0000000000000000e+00 0.0000000000000000e+00  0.0000000000000000e+00 0.0000000000000000e+00 0.0000000000000000e+00  0.0000000000000000e+00 0.0000000000000000e+00 0.0000000000000000e+00  0.0000000000000000e+00 0.0000000000000000e+00 0.0000000000000000e+00  -2.5069016665757224e-06 -1.2053891691792373e-07 0.0000000000000000e+00  -5.1018210481728745e-06 -2.4412595015745493e-07 0.0000000000000000e+00  -7.8759810700659269e-06 -3.7373226604879430e-07 0.0000000000000000e+00  -1.0925161020774801e-05 -5.1204661582346281e-07 0.0000000000000000e+00  -1.4351992295576532e-05 -6.6123553848633558e-07 0.0000000000000000e+00  -1.8268329368054750e-05 -8.2257068373082810e-07 0.0000000000000000e+00  -2.2798050717215242e-05 -9.9585961093471895e-07 0.0000000000000000e+00  -2.8081355585991290e-05 -1.1785998034453170e-06 0.0000000000000000e+00  -3.4283525894260373e-05 -1.3647473902340475e-06 0.0000000000000000e+00  -4.1616265791611366e-05 -1.5429143231998141e-06 0.0000000000000000e+00  -5.0394141382495967e-05 -1.6935171227794993e-06 0.0000000000000000e+00  -6.1191411220041326e-05 -1.7832246774501167e-06 0.0000000000000000e+00  -7.5300969658142653e-05 -1.7501996721647171e-06 0.0000000000000000e+00  -9.6168341325422046e-05 -1.4530669484995447e-06 0.0000000000000000e+00  -1.3424290794549634e-04 -4.6571007948753329e-07 0.0000000000000000e+00  -2.2501163056340157e-04 2.8289630765199391e-06 0.0000000000000000e+00  0.0000000000000000e+00 0.0000000000000000e+00 0.0000000000000000e+00  -4.9208975461500324e-06 -2.3779565058486500e-07 0.0000000000000000e+00  -1.0015133046539721e-05 -4.8179439473535259e-07 0.0000000000000000e+00  -1.5462326826118108e-05 -7.3807956863432357e-07 0.0000000000000000e+00  -2.1451178934984531e-05 -1.0122527728197174e-06 0.0000000000000000e+00  -2.8183958340276369e-05 -1.3090085329526867e-06 0.0000000000000000e+00  -3.5880916935004753e-05 -1.6314581518070325e-06 0.0000000000000000e+00  -4.4784915397036069e-05 -1.9800807720869374e-06 0.0000000000000000e+00  -5.5167249901391514e-05 -2.3511526617167213e-06 0.0000000000000000e+00  -6.7337471506913573e-05 -2.7344833439406280e-06 0.0000000000000000e+00  -8.1664375893141953e-05 -3.1102840760205540e-06 0.0000000000000000e+00  -9.8625543053235394e-05 -3.4450528878869550e-06 0.0000000000000000e+00  -1.1892501516887266e-04 -3.6866982220289828e-06 0.0000000000000000e+00  -1.4375957240319435e-04 -3.7610543154074977e-06 0.0000000000000000e+00  -1.7534551876818237e-04 -3.5832390736449682e-06 0.0000000000000000e+00  -2.1753247161322871e-04 -3.1625039028996551e-06 0.0000000000000000e+00  -2.7364389006795761e-04 -3.2528918194877308e-06 0.0000000000000000e+00  0.0000000000000000e+00 0.0000000000000000e+00 0.0000000000000000e+00  -7.1557469401173848e-06 -3.4857027374436248e-07 0.0000000000000000e+00  -1.4565226856633680e-05 -7.0668953352708328e-07 0.0000000000000000e+00  -2.2491337397998936e-05 -1.0838065934737932e-06 0.0000000000000000e+00  -3.1210638249635341e-05 -1.4888425091668375e-06 0.0000000000000000e+00  -4.1019990410605052e-05 -1.9296796097235829e-06 0.0000000000000000e+00  -5.2242758834865989e-05 -2.4123080959114346e-06 0.0000000000000000e+00  -6.5234384107202526e-05 -2.9394535779365356e-06 0.0000000000000000e+00  -8.0387205769833140e-05 -3.5084627940455292e-06 0.0000000000000000e+00  -9.8134709053937437e-05 -4.1081896047857390e-06 0.0000000000000000e+00  -1.1895592371860547e-04 -4.7146421201364799e-06 0.0000000000000000e+00  -1.4338092185495831e-04 -5.2853225775752684e-06 0.0000000000000000e+00  -1.7199443345289092e-04 -5.7527180492657987e-06 0.0000000000000000e+00  -2.0541028131806739e-04 -6.0185698496173816e-06 0.0000000000000000e+00  -2.4408659033207453e-04 -5.9516105928565038e-06 0.0000000000000000e+00  -2.8749806594545452e-04 -5.3803202700949075e-06 0.0000000000000000e+00  -3.3125565341287760e-04 -3.9493157336827490e-06 0.0000000000000000e+00  0.0000000000000000e+00 0.0000000000000000e+00 0.0000000000000000e+00  -9.1303316653977307e-06 -4.4947936393339351e-07 0.0000000000000000e+00  -1.8587581975112179e-05 -9.1205565315144513e-07 0.0000000000000000e+00  -2.8710486454715076e-05 -1.4008265026877080e-06 0.0000000000000000e+00  -3.9856228120168120e-05 -1.9285200891092717e-06 0.0000000000000000e+00  -5.2409390833414358e-05 -2.5070359305832991e-06 0.0000000000000000e+00  -6.6790173825263051e-05 -3.1465929855403460e-06 0.0000000000000000e+00  -8.3461136055531485e-05 -3.8542605490255580e-06 0.0000000000000000e+00  -1.0293110895949130e-04 -4.6315639085806714e-06 0.0000000000000000e+00  -1.2575369260472757e-04 -5.4707626381137917e-06 0.0000000000000000e+00  -1.5251516377094189e-04 -6.3493341571905499e-06 0.0000000000000000e+00  -1.8380069804893367e-04 -7.2222609896650718e-06 0.0000000000000000e+00  -2.2011354222387707e-04 -8.0121404636022437e-06 0.0000000000000000e+00  -2.6168739087166048e-04 -8.5983306436507845e-06 0.0000000000000000e+00  -3.0805470013222698e-04 -8.8090564600198512e-06 0.0000000000000000e+00  -3.5709098985523728e-04 -8.4269729737291548e-06 0.0000000000000000e+00  -4.0314457019177116e-04 -7.2483550808237586e-06 0.0000000000000000e+00  0.0000000000000000e+00 0.0000000000000000e+00 0.0000000000000000e+00  -1.0771052734155158e-05 -5.3694897330926410e-07 0.0000000000000000e+00  -2.1932604721253591e-05 -1.0906597181708719e-06 0.0000000000000000e+00  -3.3889356400160835e-05 -1.6780822007145001e-06 0.0000000000000000e+00  -4.7069522658195897e-05 -2.3161815971281967e-06 0.0000000000000000e+00  -6.1936466585530396e-05 -3.0216923083932442e-06 0.0000000000000000e+00  -7.8999670907847338e-05 -3.8104911481668107e-06 0.0000000000000000e+00  -9.8824101323339788e-05 -4.6963391107448630e-06 0.0000000000000000e+00  -1.2203601097602999e-04 -5.6886081739362898e-06 0.0000000000000000e+00  -1.4932129436246919e-04 -6.7884151384461074e-06 0.0000000000000000e+00  -1.8140872215423694e-04 -7.9823288430777690e-06 0.0000000000000000e+00  -2.1902305274289406e-04 -9.2325497283902155e-06 0.0000000000000000e+00  -2.6277909453624975e-04 -1.0462363173547131e-05 0.0000000000000000e+00  -3.1296305941686469e-04 -1.1536223375562685e-05 0.0000000000000000e+00  -3.6911044624831567e-04 -1.2236133968887746e-05 0.0000000000000000e+00  -4.2925925464348640e-04 -1.2242308659478089e-05 0.0000000000000000e+00  -4.8882524038598089e-04 -1.1139812162093233e-05 0.0000000000000000e+00  0.0000000000000000e+00 0.0000000000000000e+00 0.0000000000000000e+00  -1.2014302978695401e-05 -6.0730334924633959e-07 0.0000000000000000e+00  -2.4470555877570185e-05 -1.2349598518519417e-06 0.0000000000000000e+00  -3.7826942655343046e-05 -1.9037726908456706e-06 0.0000000000000000e+00  -5.2570381165230008e-05 -2.6351533594297126e-06 0.0000000000000000e+00  -6.9231222859806932e-05 -3.4512512129731984e-06 0.0000000000000000e+00  -8.8397914715055207e-05 -4.3747973200118191e-06 0.0000000000000000e+00  -1.1073097229025752e-04 -5.4284333550306469e-06 0.0000000000000000e+00  -1.3697470086532646e-04 -6.6331260047836189e-06 0.0000000000000000e+00  -1.6796334233043673e-04 -8.0049708615913871e-06 0.0000000000000000e+00  -2.0461500121912230e-04 -9.5491933225357103e-06 0.0000000000000000e+00  -2.4790064431983296e-04 -1.1249376251855749e-05 0.0000000000000000e+00  -2.9876512357719372e-04 -1.3048870734451377e-05 0.0000000000000000e+00  -3.5796160571967067e-04 -1.4820246484693142e-05 0.0000000000000000e+00  -4.2574344900547865e-04 -1.6318507911856184e-05 0.0000000000000000e+00  -5.0135574856654912e-04 -1.7116761376475132e-05 0.0000000000000000e+00  -5.8232681038552006e-04 -1.6530789382829396e-05 0.0000000000000000e+00  0.0000000000000000e+00 0.0000000000000000e+00 0.0000000000000000e+00  -1.2809016394454742e-05 -6.5695779072344417e-07 0.0000000000000000e+00  -2.6096723948100329e-05 -1.3375012204779653e-06 0.0000000000000000e+00  -4.0359580429406887e-05 -2.0659701594371927e-06 0.0000000000000000e+00  -5.6127738827727818e-05 -2.8680476853935738e-06 0.0000000000000000e+00  -7.3982940021935885e-05 -3.7713929128515766e-06 0.0000000000000000e+00  -9.4577469920515030e-05 -4.8061745717902928e-06 0.0000000000000000e+00  -1.1865428762470931e-04 -6.0053700540968456e-06 0.0000000000000000e+00  -1.4706801863068124e-04 -7.4045355756747134e-06 0.0000000000000000e+00  -1.8080563361839050e-04 -9.0404253022333995e-06 0.0000000000000000e+00  -2.2100384633534512e-04 -1.0947179781701613e-05 0.0000000000000000e+00  -2.6895676747062068e-04 -1.3147538718239295e-05 0.0000000000000000e+00  -3.2610095215281017e-04 -1.5634254899401580e-05 0.0000000000000000e+00  -3.9395454902145353e-04 -1.8333231358708100e-05 0.0000000000000000e+00  -4.7397393808065513e-04 -2.1035263191796463e-05 0.0000000000000000e+00  -5.6728408727573811e-04 -2.3280463025787397e-05 0.0000000000000000e+00  -6.7426032595082664e-04 -2.4184948325402961e-05 0.0000000000000000e+00  0.0000000000000000e+00 0.0000000000000000e+00 0.0000000000000000e+00  -1.3119206966085675e-05 -6.8270457202729533e-07 0.0000000000000000e+00  -2.6736697982539553e-05 -1.3915203046780682e-06 0.0000000000000000e+00  -4.1369363446112009e-05 -2.1536095208037994e-06 0.0000000000000000e+00  -5.7571841647027261e-05 -2.9982393719930722e-06 0.0000000000000000e+00  -7.5957223721267455e-05 -3.9579674583304178e-06 0.0000000000000000e+00  -9.7220112547057144e-05 -5.0699841817156470e-06 0.0000000000000000e+00  -1.2216312998003783e-04 -6.3776484411533574e-06 0.0000000000000000e+00  -1.5172829457896759e-04 -7.9321857799359767e-06 0.0000000000000000e+00  -1.8703514623148422e-04 -9.7943113767953124e-06 0.0000000000000000e+00  -2.2942798731058464e-04 -1.2034987775579188e-05 0.0000000000000000e+00  -2.8053475070072910e-04 -1.4733173707256193e-05 0.0000000000000000e+00  -3.4233864382873276e-04 -1.7965341000508804e-05 0.0000000000000000e+00  -4.1725826857757099e-04 -2.1775103103336060e-05 0.0000000000000000e+00  -5.0821859643743834e-04 -2.6099521124020921e-05 0.0000000000000000e+00  -6.1867499601478773e-04 -3.0612340292506729e-05 0.0000000000000000e+00  -7.5254805865407380e-04 -3.4438426181900024e-05 0.0000000000000000e+00  0.0000000000000000e+00 0.0000000000000000e+00 0.0000000000000000e+00  -1.2926297376603124e-05 -6.8205851291036016e-07 0.0000000000000000e+00  -2.6351322137881144e-05 -1.3916894693664811e-06 0.0000000000000000e+00  -4.0792376743716768e-05 -2.1577474000230640e-06 0.0000000000000000e+00  -5.6806917004449701e-05 -3.0118329127726089e-06 0.0000000000000000e+00  -7.5015068834568090e-05 -3.9899642140589949e-06 0.0000000000000000e+00  -9.6125559867235572e-05 -5.1346687415372096e-06 0.0000000000000000e+00  -1.2096703064030646e-04 -6.4977458339068896e-06 0.0000000000000000e+00  -1.5052775809256425e-04 -8.1440549503994403e-06 0.0000000000000000e+00  -1.8600870674222251e-04 -1.0156786942685002e-05 0.0000000000000000e+00  -2.2889800841891718e-04 -1.2644648111519974e-05 0.0000000000000000e+00  -2.8107998285490483e-04 -1.5750809673439216e-05 0.0000000000000000e+00  -3.4499859769311072e-04 -1.9661171018502508e-05 0.0000000000000000e+00  -4.2390127771468243e-04 -2.4602438250912180e-05 0.0000000000000000e+00  -5.2218511391662222e-04 -3.0801832446641904e-05 0.0000000000000000e+00  -6.4583905864297442e-04 -3.8337268374936324e-05 0.0000000000000000e+00  -8.0296112218524547e-04 -4.6728662640708523e-05 0.0000000000000000e+00  0.0000000000000000e+00 0.0000000000000000e+00 0.0000000000000000e+00  -1.2230948637122965e-05 -6.5360810268944579e-07 0.0000000000000000e+00  -2.4940689418822081e-05 -1.3348854021226249e-06 0.0000000000000000e+00  -3.8625595388714198e-05 -2.0728953890808732e-06 0.0000000000000000e+00  -5.3822337419994933e-05 -2.8998246940687653e-06 0.0000000000000000e+00  -7.1130680336619619e-05 -3.8529458791875442e-06 0.0000000000000000e+00  -9.1240128217582887e-05 -4.9771773217416525e-06 0.0000000000000000e+00  -1.1496276590041240e-04 -6.3286641773912539e-06 0.0000000000000000e+00  -1.4327614121031123e-04 -7.9800969743039818e-06 0.0000000000000000e+00  -1.7738292178886810e-04 -1.0029000276058436e-05 0.0000000000000000e+00  -2.1879959310360089e-04 -1.2611076936188640e-05 0.0000000000000000e+00  -2.6949686411142140e-04 -1.5921923533276081e-05 0.0000000000000000e+00  -3.3213322278946128e-04 -2.0251596889286376e-05 0.0000000000000000e+00  -4.1045389376630258e-04 -2.6035269553645576e-05 0.0000000000000000e+00  -5.0996492641117055e-04 -3.3910832460839898e-05 0.0000000000000000e+00  -6.3898397372312815e-04 -4.4723140212700640e-05 0.0000000000000000e+00  -8.0998120384354576e-04 -5.9240971011973873e-05 0.0000000000000000e+00  0.0000000000000000e+00 0.0000000000000000e+00 0.0000000000000000e+00  -1.1054079940658127e-05 -5.9730620118561872e-07 0.0000000000000000e+00  -2.2546463049357901e-05 -1.2208337416271797e-06 0.0000000000000000e+00  -3.4931124362283073e-05 -1.8981629404361243e-06 0.0000000000000000e+00  -4.8699928752370308e-05 -2.6600166557479075e-06 0.0000000000000000e+00  -6.4403928187788389e-05 -3.5422275284006073e-06 0.0000000000000000e+00  -8.2678100866330584e-05 -4.5883041208562142e-06 0.0000000000000000e+00  -1.0427151276148427e-04 -5.8530444043565639e-06 0.0000000000000000e+00  -1.3008617862369164e-04 -7.4080213953741843e-06 0.0000000000000000e+00  -1.6123068280185786e-04 -9.3505488656806344e-06 0.0000000000000000e+00  -1.9910072823862382e-04 -1.1819358879604014e-05 0.0000000000000000e+00  -2.4551237320441396e-04 -1.5023528114107416e-05 0.0000000000000000e+00  -3.0294417552395369e-04 -1.9297654201252061e-05 0.0000000000000000e+00  -3.7501249368110807e-04 -2.5207978104166038e-05 0.0000000000000000e+00  -4.6744887595065953e-04 -3.3751623156306778e-05 0.0000000000000000e+00  -5.9007736899680094e-04 -4.6702236376498318e-05 0.0000000000000000e+00  -7.6006229762281305e-04 -6.7199582784169411e-05 0.0000000000000000e+00  0.0000000000000000e+00 0.0000000000000000e+00 0.0000000000000000e+00  -9.4368355760805582e-06 -5.1463857929070964e-07 0.0000000000000000e+00  -1.9251956101598283e-05 -1.0524868588911033e-06 0.0000000000000000e+00  -2.9836687805067452e-05 -1.6379385345681525e-06 0.0000000000000000e+00  -4.1615416349525007e-05 -2.2981880033578478e-06 0.0000000000000000e+00  -5.5063765608407595e-05 -3.0649086724978137e-06 0.0000000000000000e+00  -7.0729077251668597e-05 -3.9763309631662956e-06 0.0000000000000000e+00  -8.9254072480024054e-05 -5.0799782587337357e-06 0.0000000000000000e+00  -1.1140488592789618e-04 -6.4365477220273552e-06 0.0000000000000000e+00  -1.3810566938856993e-04 -8.1260011005272602e-06 0.0000000000000000e+00  -1.7048520255390258e-04 -1.0258420265042006e-05 0.0000000000000000e+00  -2.0995093907848488e-04 -1.2996012064864047e-05 0.0000000000000000e+00  -2.5833578622288253e-04 -1.6602346093176278e-05 0.0000000000000000e+00  -3.1825159879109903e-04 -2.1558938300424909e-05 0.0000000000000000e+00  -3.9405238366899939e-04 -2.8846605986019866e-05 0.0000000000000000e+00  -4.9464112191009843e-04 -4.0596886924786221e-05 0.0000000000000000e+00  -6.4114155068668952e-04 -6.0879826261809262e-05 0.0000000000000000e+00  0.0000000000000000e+00 0.0000000000000000e+00 0.0000000000000000e+00  -7.4393995614152163e-06 -4.0863230438008906e-07 0.0000000000000000e+00  -1.5179729279591767e-05 -8.3604353279795688e-07 0.0000000000000000e+00  -2.3531888835254695e-05 -1.3019249472929469e-06 0.0000000000000000e+00  -3.2833077102610106e-05 -1.8281580920581894e-06 0.0000000000000000e+00  -4.3460757451683461e-05 -2.4400111473582283e-06 0.0000000000000000e+00  -5.5847511932648978e-05 -3.1674194334386208e-06 0.0000000000000000e+00  -7.0496256969154828e-05 -4.0462611635184371e-06 0.0000000000000000e+00  -8.7994093428842894e-05 -5.1193800393511576e-06 0.0000000000000000e+00  -1.0902084551655450e-04 -6.4368629047008116e-06 0.0000000000000000e+00  -1.3434484209846328e-04 -8.0549067151639132e-06 0.0000000000000000e+00  -1.6479493798308328e-04 -1.0033373663047541e-05 0.0000000000000000e+00  -2.0120210949996182e-04 -1.2437435503909558e-05 0.0000000000000000e+00  -2.4435014489226225e-04 -1.5372254216438171e-05 0.0000000000000000e+00  -2.9520118190063961e-04 -1.9175648827348750e-05 0.0000000000000000e+00  -3.5671339173410982e-04 -2.5323206217255059e-05 0.0000000000000000e+00  -4.4477158673713815e-04 -4.1313763170193215e-05 0.0000000000000000e+00  0.0000000000000000e+00 0.0000000000000000e+00 0.0000000000000000e+00  -5.1387316011791384e-06 -2.8370427517340017e-07 0.0000000000000000e+00  -1.0486877079308040e-05 -5.8060992950564438e-07 0.0000000000000000e+00  -1.6260566114354274e-05 -9.0452058697858596e-07 0.0000000000000000e+00  -2.2694176225349044e-05 -1.2706965586942917e-06 0.0000000000000000e+00  -3.0049650033400770e-05 -1.6965440886599539e-06 0.0000000000000000e+00  -3.8625665763376879e-05 -2.2021376522870419e-06 0.0000000000000000e+00  -4.8765185881729407e-05 -2.8101965788930525e-06 0.0000000000000000e+00  -6.0857535243026912e-05 -3.5445808504209268e-06 0.0000000000000000e+00  -7.5325942379683337e-05 -4.4251092650064699e-06 0.0000000000000000e+00  -9.2580318455458819e-05 -5.4536734236400103e-06 0.0000000000000000e+00  -1.1289223809620103e-04 -6.5803531802742080e-06 0.0000000000000000e+00  -1.3610651753045048e-04 -7.6246242823693542e-06 0.0000000000000000e+00  -1.6104051478028382e-04 -8.0986018873927408e-06 0.0000000000000000e+00  -1.8439936069563714e-04 -6.8328258279509366e-06 0.0000000000000000e+00  -1.9945688109787197e-04 -1.3330954846598646e-06 0.0000000000000000e+00  -1.9787172458643189e-04 1.2316251275877283e-05 0.0000000000000000e+00  0.0000000000000000e+00 0.0000000000000000e+00 0.0000000000000000e+00  -2.6254337633969150e-06 -1.4538850390464387e-07 0.0000000000000000e+00  -5.3585043198197345e-06 -2.9759697434918970e-07 0.0000000000000000e+00  -8.3102563870499878e-06 -4.6374177501836471e-07 0.0000000000000000e+00  -1.1601146155429925e-05 -6.5165731017097390e-07 0.0000000000000000e+00  -1.5365717778089413e-05 -8.7018709521290208e-07 0.0000000000000000e+00  -1.9756907844008030e-05 -1.1292850587148695e-06 0.0000000000000000e+00  -2.4948712868784164e-05 -1.4395721419661745e-06 0.0000000000000000e+00  -3.1133884580530727e-05 -1.8104548115634101e-06 0.0000000000000000e+00  -3.8508301725628753e-05 -2.2446017107925854e-06 0.0000000000000000e+00  -4.7221417302970141e-05 -2.7234021109487433e-06 0.0000000000000000e+00  -5.7242275907974973e-05 -3.1705560763762178e-06 0.0000000000000000e+00  -6.8019915992813176e-05 -3.3648172430267992e-06 0.0000000000000000e+00  -7.7670125062342975e-05 -2.7468291311497292e-06 0.0000000000000000e+00  -8.1248393679549265e-05 -7.1185864908978077e-08 0.0000000000000000e+00  -6.8281849335204129e-05 6.8418924791135981e-06 0.0000000000000000e+00  -2.5090699396524336e-05 1.9627271263686677e-05 0.0000000000000000e+00  0.0000000000000000e+00 0.0000000000000000e+00 0.0000000000000000e+00  0.0000000000000000e+00 0.0000000000000000e+00 0.0000000000000000e+00  0.0000000000000000e+00 0.0000000000000000e+00 0.0000000000000000e+00  0.0000000000000000e+00 0.0000000000000000e+00 0.0000000000000000e+00  0.0000000000000000e+00 0.0000000000000000e+00 0.0000000000000000e+00  0.0000000000000000e+00 0.0