<?xml version="1.0"?>
<VTKFile type="UnstructuredGrid"  version="0.1"  >
<UnstructuredGrid>
<Piece  NumberOfPoints="289" NumberOfCells="512">
<Points>
<DataArray  type="Float64"  NumberOfComponents="3"  format="ascii">0 0 0  0.0625 0 0  0.125 0 0  0.1875 0 0  0.25 0 0  0.3125 0 0  0.375 0 0  0.4375 0 0  0.5 0 0  0.5625 0 0  0.625 0 0  0.6875 0 0  0.75 0 0  0.8125 0 0  0.875 0 0  0.9375 0 0  1 0 0  0 0.0625 0  0.06253012721278309 0.06249971139347416 0  0.1250610792974864 0.06249941676701266 0  0.1875936724116539 0.06249911046620386 0  0.2501287011157124 0.06249878763220146 0  0.3126669184159186 0.06249844474534419 0  0.3752090051311391 0.06249808033861858 0  0.4377555261680435 0.0624976959224974 0  0.5003068737152012 0.06249729713430909 0  0.5628632030657201 0.06249689505519523 0  0.6254243800053554 0.06249650743095254 0  0.6879899913248064 0.06249615877074115 0  0.7505595599773731 0.06249587504304153 0  0.8131333878891462 0.06249565386106174 0  0.875715432643557 0.06249532165699713 0  0.9383233644633797 0.06249385932000905 0  1.001026190341308 0.06248618205780567 0  0 0.125 0  0.06255944210745268 0.1249994286562584 0  0.1251205443450206 0.1249988448891353 0  0.1876849531602064 0.1249982369475418 0  0.2502542792643151 0.1249975945552819 0  0.3128300610808065 0.1249969099463416 0  0.3754137058317716 0.1249961792534019 0  0.438006401900692 0.1249954043501177 0  0.5006089991814802 0.124994595216243 0  0.5632218612920334 0.1249937728496728 0  0.6258447081728847 0.1249929727570834 0  0.6884764948928731 0.1249922494827867 0  0.7511154176231535 0.1249916852989131 0  0.8137591865360343 0.1249914200100569 0  0.8764055992785192 0.124991788438402 0  0.939052176919108 0.1249940035408643 0  1.001685522025272 0.1250036121136144 0  0 0.1875 0  0.0625871092483514 0.1874991581946116 0  0.1251767295115559 0.187498296868654 0  0.1877713606546027 0.1874973973613689 0  0.2503734678065047 0.1874964429276708 0  0.3129854356156395 0.1874954201514257 0  0.3756094873617393 0.1874943209113697 0  0.4382475565079707 0.1874931450773662 0  0.500901099936704 0.1874919040766673 0  0.5635708473543135 0.1874906253834429 0  0.6262564921820287 0.1874893578375706 0  0.688956345874254 0.1874881774950548 0  0.7516669914066888 0.1874871933277802 0  0.8143829442448458 0.1874865497398214 0  0.8770961407646327 0.1874864041068059 0  0.9397944651552869 0.1874867254966112 0  1.002457570030916 0.1874859184856075 0  0 0.25 0  0.06261227768370092 0.249998907107368 0  0.1252279306145243 0.2499977867123185 0  0.187850336637003 0.2499966121790373 0  0.2504828628889195 0.2499953588618538 0  0.3131288232173491 0.2499940057100795 0  0.3757913876974555 0.2499925376360601 0  0.4384734239495163 0.2499909489309707 0  0.5011772483521946 0.2499892479882801 0  0.5639042665146999 0.2499874634791729 0  0.6266544891324125 0.2499856518149966 0  0.6894259238329828 0.2499839050119669 0  0.7522138644236163 0.2499823563961446 0  0.8150101154192273 0.2499811774286466 0  0.8778021827059901 0.249980548671484 0  0.9405724593755641 0.2499805712722079 0  1.003297783235042 0.2499811502259505 0  0 0.3125 0  0.06263408328857646 0.3124986833755397 0  0.1252724058690519 0.3124973303722936 0  0.1879192378509907 0.3124959052459185 0  0.250578892995646 0.3124943738238876 0  0.3132557071920592 0.3124927050297491 0  0.3759539586948221 0.3124908733704076 0  0.4386777009685217 0.3124888628159166 0  0.5014304721102415 0.3124866725448134 0  0.5642148394135672 0.3124843249860662 0  0.6270317380513039 0.3124818763338931 0  0.689879576620828 0.3124794290191322 0  0.7527531211288488 0.3124771441696109 0  0.8156422499923043 0.3124752497694035 0  0.8785308224322187 0.3124740389681775 0  0.9413961717710936 0.312473864809598 0  1.004210215500335 0.3124752101098757 0  0 0.375 0  0.06265166236532616 0.3749984958708326 0  0.1253083998097804 0.374996945821682 0  0.1879753629915853 0.3749953040503059 0  0.2506578360931838 0.3749935253076667 0  0.3133612595432284 0.3749915659749039 0  0.3760911902090837 0.3749893862406557 0  0.4388531617487899 0.374986953974593 0  0.5016523933705932 0.3749842510710792 0  0.5644932787288389 0.3749812831975398 0  0.6273785731336126 0.3749780939089669 0  0.6903081985993564 0.3749747837486547 0  0.7532776264175814 0.3749715338467388 0  0.816275917237146 0.3749686311096067 0  0.8792837576823489 0.3749664877907828 0  0.9422722831083625 0.374965640528049 0  1.00520407737916 0.3749666893136419 0  0 0.4375 0  0.06266417976366272 0.4374983541249765 0  0.125334197448755 0.4374966526389818 0  0.18801602772834 0.4374948392302761 0  0.2507159050681712 0.4374928564659002 0  0.3134404174664318 0.4374906459698317 0  0.3761965441048288 0.4374881496927763 0  0.4389915950699801 0.4374853130054165 0  0.5018329876232385 0.4374820907096518 0  0.5647277607117153 0.4374784575448087 0  0.6276816898083243 0.437474425314163 0  0.6906978290189041 0.4374700691767662 0  0.753774307560688 0.4374655654431142 0  0.8169013093374939 0.4374612412807964 0  0.8800574817468234 0.4374576308339553 0  0.9432066954153707 0.4374555181975793 0  1.006297154841867 0.4374559201134763 0  0 0.5 0  0.06267087358356598 0.4999982678144549 0  0.1253482138086877 0.4999964709948999 0  0.1880386982035172 0.4999945431178586 0  0.2507494207512732 0.4999924143515283 0  0.3134880832154108 0.4999900102451758 0  0.3762631524441311 0.4999872513549244 0  0.4390839453400577 0.4999840544573671 0  0.5019605712203768 0.4999803366478976 0  0.5649036098399749 0.4999760244815505 0  0.6279233261904077 0.4999710715860949 0  0.6910281202434559 0.4999654898737863 0  0.754221803049958 0.4999594013160528 0  0.817499258050612 0.4999531181196239 0  0.8808402793039856 0.4999472558883798 0  0.9442022387063528 0.499942869021791 0  1.007514203533747 0.4999415536762069 0  0 0.5625 0  0.06267111631647346 0.5624982459435544 0  0.125349119667832 0.5624964199867307 0  0.1880411873986162 0.5624944471814014 0  0.2507550851433391 0.5624922464629271 0  0.3134994757683696 0.5624897276191996 0  0.376284235222998 0.5624867885121597 0  0.4391207537535824 0.5624833131028502 0  0.5020221669439552 0.5624791714629349 0  0.5650033970657738 0.5624742241004431 0  0.6280807703898658 0.5624683349143047 0  0.6912707828403576 0.5624614003675754 0  0.7545872930302218 0.562453407519667 0  0.8180360594358721 0.5624445406037893 0  0.8816053159423928 0.5624353636841721 0  0.9452516372985095 0.5624271073767599 0  1.008883084119825 0.5624220333157171 0  0 0.625 0  0.06266448895333024 0.6249982957574934 0  0.1253359974831441 0.6249965153636894 0  0.188021908100465 0.6249945783715118 0  0.2507303532041447 0.6249923954603557 0  0.3134706465618105 0.6249898633579218 0  0.3762537801493739 0.6249868590916539 0  0.4390929984022351 0.6249832336194727 0  0.5020044392198687 0.6249788053904104 0  0.565007775466569 0.6249733554820555 0  0.6281266658336425 0.6249666282114389 0  0.6913885618685796 0.6249583454779898 0  0.7548229057082895 0.6249482511583129 0  0.8184558458887941 0.6249362164894852 0  0.8822982565031886 0.6249224657830204 0  0.9463226394601757 0.6249080510819043 0  1.010425899769557 0.6248959325409024 0  0 0.6875 0  0.06265086035783828 0.6874984214862966 0  0.1253085122722137 0.6874967668342895 0  0.187980160685436 0.6874949546201062 0  0.2506738780461357 0.6874928922802576 0  0.3133991390848762 0.6874904691336875 0  0.37616748793738 0.6874875475904989 0  0.4389933981504633 0.6874839517989441 0  0.501895393099829 0.6874794530400168 0  0.5648974837758688 0.6874737516560557 0  0.6280309143942265 0.6874664568268538 0  0.6913359896865648 0.687457069307485 0  0.7548631738848176 0.6874449802993868 0  0.8186712416410612 0.6874295141719887 0  0.8828172059342625 0.6874100640718632 0  0.947327141479246 0.6873863928563619 0  1.012129967484938 0.6873591947474121 0  0 0.75 0  0.0626304597931088 0.7499986230992247 0  0.1252670720984805 0.7499971753265686 0  0.1879164152545931 0.7499955800676219 0  0.2505859725540846 0.749993748417027 0  0.3132847209512237 0.7499915709568773 0  0.3760239099184167 0.7499889066376293 0  0.4388181429540069 0.7499855670710662 0  0.5016869259754649 0.7499812938560407 0  0.5646569203442762 0.74997572575222 0  0.6277652256736292 0.749968352022212 0  0.6910640667571936 0.7499584493372013 0  0.7546270719852508 0.7499450049760702 0  0.8185562706938087 0.7499266415425235 0  0.8829851652023476 0.7499015698609629 0  0.9480621911517956 0.7498675497614692 0  1.013873091318917 0.7498216014963472 0  0 0.8125 0  0.0626039272100548 0.8124988953176809 0  0.1252129445341356 0.8124977307386847 0  0.1878325303728722 0.8124964409288743 0  0.2504689965517935 0.8124949487742669 0  0.3131300533796719 0.8124931570977093 0  0.3758255905425025 0.8124909368573089 0  0.4385688208733463 0.8124881093780377 0  0.5013780281389107 0.8124844186169502 0  0.5642793273505615 0.8124794868783112 0  0.6273111432900941 0.8124727434340889 0  0.6905316336680007 0.8124633106450919 0  0.7540311491500206 0.8124498304470535 0  0.817953020411841 0.8124302288552034 0  0.8825263828146132 0.8124014614038425 0  0.9481073685007547 0.8123591647207096 0  1.015175539751441 0.8122949243298597 0  0 0.875 0  0.06257232545875634 0.8749992271611504 0  0.1251482930776145 0.8749984108012012 0  0.1877318423859988 0.8749975031254992 0  0.2503275558153276 0.874996446997018 0  0.312941107613268 0.8749951691210552 0  0.3755799034349467 0.8749935699547697 0  0.4382540522594398 0.8749915077689495 0  0.5009779190158341 0.8749887722102924 0  0.5637727153878789 0.8749850385933349 0  0.6266710100225945 0.874979785943566 0  0.6897249358571936 0.8749721459374218 0  0.7530218675219956 0.8749606234929836 0  0.8167160634751719 0.874942614156254 0  0.8810968709896845 0.8749138350416005 0  0.9467488890609067 0.8748694237418965 0  1.014978814640058 0.8748185349042873 0  0 0.9375 0  0.06253710246584811 0.9374996022554232 0  0.1250761048966418 0.9374991815967219 0  0.1876190686442931 0.9374987127541657 0  0.2501684054785795 0.9374981652792218 0  0.3127271265533545 0.9374974996785812 0  0.3752992034729407 0.9374966615468334 0  0.4378901287500062 0.9374955719918
[...]
<PointData  Vectors="f_54"> 
<DataArray  type="Float64"  Name="f_54"  NumberOfComponents="3" format="ascii">0.0000000000000000e+00 0.0000000000000000e+00 0.0000000000000000e+00  0.0000000000000000e+00 0.0000000000000000e+00 0.0000000000000000e+00  0.0000000000000000e+00 0.0000000000000000e+00 0.0000000000000000e+00  0.0000000000000000e+00 0.0000000000000000e+00 0.0000000000000000e+00  0.0000000000000000e+00 0.0000000000000000e+00 0.0000000000000000e+00  0.0000000000000000e+00 0.0000000000000000e+00 0.0000000000000000e+00  0.0000000000000000e+00 0.0000000000000000e+00 0.0000000000000000e+00  0.0000000000000000e+00 0.0000000000000000e+00 0.0000000000000000e+00  0.0000000000000000e+00 0.0000000000000000e+00 0.0000000000000000e+00  0.0000000000000000e+00 0.0000000000000000e+00 0.0000000000000000e+00  0.0000000000000000e+00 0.0000000000000000e+00 0.0000000000000000e+00  0.0000000000000000e+00 0.0000000000000000e+00 0.0000000000000000e+00  0.0000000000000000e+00 0.0000000000000000e+00 0.0000000000000000e+00  0.0000000000000000e+00 0.0000000000000000e+00 0.0000000000000000e+00  0.0000000000000000e+00 0.0000000000000000e+00 0.0000000000000000e+00  0.0000000000000000e+00 0.0000000000000000e+00 0.0000000000000000e+00  0.0000000000000000e+00 0.0000000000000000e+00 0.0000000000000000e+00  0.0000000000000000e+00 0.0000000000000000e+00 0.0000000000000000e+00  4.1591951405537288e-06 -7.2918562749316651e-08 0.0000000000000000e+00  8.4409174521532301e-06 -1.4787785559938473e-07 0.0000000000000000e+00  1.2967718223842458e-05 -2.2688165379327369e-07 0.0000000000000000e+00  1.7861579422067046e-05 -3.1183925148369081e-07 0.0000000000000000e+00  2.3242529292182778e-05 -4.0447268043999021e-07 0.0000000000000000e+00  2.9225975972529887e-05 -5.0616462438577165e-07 0.0000000000000000e+00  3.5918525839907015e-05 -6.1772117518049613e-07 0.0000000000000000e+00  4.3412546151549431e-05 -7.3902255146239137e-07 0.0000000000000000e+00  5.1781042380414564e-05 -8.6854295767241054e-07 0.0000000000000000e+00  6.1077829102112281e-05 -1.0027581271860845e-06 0.0000000000000000e+00  7.1357155471393912e-05 -1.1356008900647697e-06 0.0000000000000000e+00  8.2753529302416633e-05 -1.2586934213468211e-06 0.0000000000000000e+00  9.5746532330545788e-05 -1.3655572509310203e-06 0.0000000000000000e+00  1.1202545428776587e-04 -1.4743558638592466e-06 0.0000000000000000e+00  1.3745202093143444e-04 -1.7375356848815400e-06 0.0000000000000000e+00  1.9299013303638671e-04 -2.9696039589818553e-06 0.0000000000000000e+00  0.0000000000000000e+00 0.0000000000000000e+00 0.0000000000000000e+00  8.1999017079657721e-06 -1.4386711982722610e-07 0.0000000000000000e+00  1.6645403638052900e-05 -2.9186231134719413e-07 0.0000000000000000e+00  2.5582621222971746e-05 -4.4805747951748908e-07 0.0000000000000000e+00  3.5257471941967668e-05 -6.1637288824213681e-07 0.0000000000000000e+00  4.5913319981099972e-05 -8.0041374173100105e-07 0.0000000000000000e+00  5.7785870675459380e-05 -1.0031907256901998e-06 0.0000000000000000e+00  7.1094508646889928e-05 -1.2266698655268523e-06 0.0000000000000000e+00  8.6029768707954738e-05 -1.4710880959223845e-06 0.0000000000000000e+00  1.0273797861771433e-04 -1.7339665837268486e-06 0.0000000000000000e+00  1.2130727188163172e-04 -2.0087525689804305e-06 0.0000000000000000e+00  1.4176590098282196e-04 -2.2829762001102926e-06 0.0000000000000000e+00  1.6411661294167578e-04 -2.5354331474758038e-06 0.0000000000000000e+00  1.8844873253496622e-04 -2.7296865244094859e-06 0.0000000000000000e+00  2.1515607824651965e-04 -2.7894999956476192e-06 0.0000000000000000e+00  2.4498606584316798e-04 -2.4822066899675168e-06 0.0000000000000000e+00  2.7656462058722595e-04 -8.3306101869540903e-07 0.0000000000000000e+00  0.0000000000000000e+00 0.0000000000000000e+00 0.0000000000000000e+00  1.1998983340247572e-05 -2.1075716415096316e-07 0.0000000000000000e+00  2.4366790838174403e-05 -4.2779732380782362e-07 0.0000000000000000e+00  3.7474167292843248e-05 -6.5736176294422388e-07 0.0000000000000000e+00  5.1693915545070043e-05 -9.0555470311095578e-07 0.0000000000000000e+00  6.7398518956432739e-05 -1.1781541148312720e-06 0.0000000000000000e+00  8.4953398382213568e-05 -1.4802585863002016e-06 0.0000000000000000e+00  1.0470403627399140e-04 -1.8156855551372240e-06 0.0000000000000000e+00  1.2695520475112347e-04 -2.1860151123719937e-06 0.0000000000000000e+00  1.5194095477487961e-04 -2.5891582032607869e-06 0.0000000000000000e+00  1.7978513342846903e-04 -3.0173345392329776e-06 0.0000000000000000e+00  2.1045383269279537e-04 -3.4544059734349847e-06 0.0000000000000000e+00  2.4370089760822390e-04 -3.8727154143581437e-06 0.0000000000000000e+00  2.7899464026140750e-04 -4.2303808776752862e-06 0.0000000000000000e+00  3.1535239433181912e-04 -4.4742377013226693e-06 0.0000000000000000e+00  3.5081032635200820e-04 -4.5791557534398753e-06 0.0000000000000000e+00  3.8085307881237992e-04 -4.8082304713628207e-06 0.0000000000000000e+00  0.0000000000000000e+00 0.0000000000000000e+00 0.0000000000000000e+00  1.5433191681942562e-05 -2.7143334008028510e-07 0.0000000000000000e+00  3.1357263260887392e-05 -5.5135936406714992e-07 0.0000000000000000e+00  4.8267763894821019e-05 -8.4828933316859052e-07 0.0000000000000000e+00  6.6667394273292702e-05 -1.1707112384683922e-06 0.0000000000000000e+00  8.7065237483044291e-05 -1.5269407960033487e-06 0.0000000000000000e+00  1.0997014848083870e-04 -1.9247787757344444e-06 0.0000000000000000e+00  1.3587538480838607e-04 -2.3708615208912974e-06 0.0000000000000000e+00  1.6523080887388686e-04 -2.8695500048254386e-06 0.0000000000000000e+00  1.9839818257678300e-04 -3.4211599059191507e-06 0.0000000000000000e+00  2.3558425125192503e-04 -4.0193177229946195e-06 0.0000000000000000e+00  2.7674520576583743e-04 -4.6473061891880276e-06 0.0000000000000000e+00  3.2145339600348800e-04 -5.2736067635898219e-06 0.0000000000000000e+00  3.6870921027500075e-04 -5.8478454572110342e-06 0.0000000000000000e+00  4.1666241999512634e-04 -6.3006815346335330e-06 0.0000000000000000e+00  4.6218691592890727e-04 -6.5541512312724758e-06 0.0000000000000000e+00  5.0033437514730337e-04 -6.5323481594180616e-06 0.0000000000000000e+00  0.0000000000000000e+00 0.0000000000000000e+00 0.0000000000000000e+00  1.8380504362988071e-05 -3.2368672090340412e-07 0.0000000000000000e+00  3.7370095580151334e-05 -6.5807165729150829e-07 0.0000000000000000e+00  5.7586954720814864e-05 -1.0139833114316705e-06 0.0000000000000000e+00  7.9665141081127687e-05 -1.4024545216130753e-06 0.0000000000000000e+00  1.0425777186883901e-04 -1.8346956592697057e-06 0.0000000000000000e+00  1.3203347924502015e-04 -2.3218756194859389e-06 0.0000000000000000e+00  1.6366219102666971e-04 -2.8745782443651994e-06 0.0000000000000000e+00  1.9978467208515646e-04 -3.5017309351826118e-06 0.0000000000000000e+00  2.4095814940986639e-04 -4.2087043787094914e-06 0.0000000000000000e+00  2.8756781312061979e-04 -4.9941698582225394e-06 0.0000000000000000e+00  3.3969142346973853e-04 -5.8452259287576629e-06 0.0000000000000000e+00  3.9690282526134790e-04 -6.7304044863252957e-06 0.0000000000000000e+00  4.5800326582017161e-04 -7.5906783015958157e-06 0.0000000000000000e+00  5.2068697357768204e-04 -8.3296449231782507e-06 0.0000000000000000e+00  5.8120715852093502e-04 -8.8043995828214927e-06 0.0000000000000000e+00  6.3427444732358442e-04 -8.8118697496101175e-06 0.0000000000000000e+00  0.0000000000000000e+00 0.0000000000000000e+00 0.0000000000000000e+00  2.0722823713942611e-05 -3.6531412229025485e-07 0.0000000000000000e+00  4.2164710123134691e-05 -7.4341709111549432e-07 0.0000000000000000e+00  6.5060041737870352e-05 -1.1473870588289175e-06 0.0000000000000000e+00  9.0171822842319890e-05 -1.5908424558927135e-06 0.0000000000000000e+00  1.1830168798440450e-04 -2.0881246861402317e-06 0.0000000000000000e+00  1.5029342365561590e-04 -2.6543361227980606e-06 0.0000000000000000e+00  1.8702547078731653e-04 -3.3051060513198874e-06 0.0000000000000000e+00  2.2938541320989493e-04 -4.0558586284010013e-06 0.0000000000000000e+00  2.7821591615951523e-04 -4.9201906085925950e-06 0.0000000000000000e+00  3.3421691223294427e-04 -5.9067044587191712e-06 0.0000000000000000e+00  3.9778362845119557e-04 -7.0132756753745082e-06 0.0000000000000000e+00  4.6875663419106931e-04 -8.2173382989394102e-06 0.0000000000000000e+00  5.4606484493478411e-04 -9.4606664443454621e-06 0.0000000000000000e+00  6.2726983501260882e-04 -1.0628178982668791e-05 0.0000000000000000e+00  7.0809701814407596e-04 -1.1524564565412507e-05 0.0000000000000000e+00  7.8220134626528332e-04 -1.1865328952022591e-05 0.0000000000000000e+00  0.0000000000000000e+00 0.0000000000000000e+00 0.0000000000000000e+00  2.2350371556103950e-05 -3.9422901910477993e-07 0.0000000000000000e+00  4.5515337831727755e-05 -8.0306406578019905e-07 0.0000000000000000e+00  7.0332632049312550e-05 -1.2415904878665825e-06 0.0000000000000000e+00  9.7685055540358402e-05 -1.7258458730672552e-06 0.0000000000000000e+00  1.2852032968878454e-04 -2.2732859691789740e-06 0.0000000000000000e+00  1.6386629647251172e-04 -2.9032093265118236e-06 0.0000000000000000e+00  2.0483720509638221e-04 -3.6370612456009637e-06 0.0000000000000000e+00  2.5262370220671850e-04 -4.4984355737540264e-06 0.0000000000000000e+00  3.0845418807102972e-04 -5.5123848240383866e-06 0.0000000000000000e+00  3.7350775805013842e-04 -6.7032427348031048e-06 0.0000000000000000e+00  4.4874871617640812e-04 -8.0894197671632929e-06 0.0000000000000000e+00  5.3464084618926142e-04 -9.6724109497547501e-06 0.0000000000000000e+00  6.3069166401370585e-04 -1.1415639864202538e-05 0.0000000000000000e+00  7.3478733627072251e-04 -1.3207742484507214e-05 0.0000000000000000e+00  8.4233857017743607e-04 -1.4807924116643516e-05 0.0000000000000000e+00  9.4541790135532961e-04 -1.5786263288278357e-05 0.0000000000000000e+00  0.0000000000000000e+00 0.0000000000000000e+00 0.0000000000000000e+00  2.3167903325529904e-05 -4.0861993607168360e-07 0.0000000000000000e+00  4.7223654117572951e-05 -8.3319955615878130e-07 0.0000000000000000e+00  7.3087013562545211e-05 -1.2903701316391934e-06 0.0000000000000000e+00  1.0174170617834445e-04 -1.7981415343446125e-06 0.0000000000000000e+00  1.3426762226665523e-04 -2.3766853506642255e-06 0.0000000000000000e+00  1.7187209546456399e-04 -3.0492296343973530e-06 0.0000000000000000e+00  2.1591751064233694e-04 -3.8430880440121972e-06 0.0000000000000000e+00  2.6793929347264584e-04 -4.7907929704078621e-06 0.0000000000000000e+00  3.2964259163937036e-04 -5.9311440886219277e-06 0.0000000000000000e+00  4.0285599063503785e-04 -7.3095694221938932e-06 0.0000000000000000e+00  4.8940402413887366e-04 -8.9762062771113640e-06 0.0000000000000000e+00  5.9083441045504369e-04 -1.0977950478375280e-05 0.0000000000000000e+00  7.0790012710852696e-04 -1.3336533058569574e-05 0.0000000000000000e+00  8.3965794365261986e-04 -1.5997993363923971e-05 0.0000000000000000e+00  9.8203379059716846e-04 -1.8732422524551635e-05 0.0000000000000000e+00  1.1258038521425055e-03 -2.0970055438317102e-05 0.0000000000000000e+00  0.0000000000000000e+00 0.0000000000000000e+00 0.0000000000000000e+00  2.3102529549261724e-05 -4.0714000519219643e-07 0.0000000000000000e+00  4.7135064164953843e-05 -8.3093701928605085e-07 0.0000000000000000e+00  7.3068161111765150e-05 -1.2888769568980086e-06 0.0000000000000000e+00  1.0195538770431368e-04 -1.8001811354692537e-06 0.0000000000000000e+00  1.3497904799690538e-04 -2.3868741124569782e-06 0.0000000000000000e+00  1.7350049076740725e-04 -3.0751321681882541e-06 0.0000000000000000e+00  2.1911526498051684e-04 -3.8970781798474557e-06 0.0000000000000000e+00  2.7371116790055023e-04 -4.8932511995906419e-06 0.0000000000000000e+00  3.3952239244503316e-04 -6.1160233700235097e-06 0.0000000000000000e+00  4.1916287268595410e-04 -7.6341351433600868e-06 0.0000000000000000e+00  5.1560156985968263e-04 -9.5378759140976301e-06 0.0000000000000000e+00  6.3200305609198415e-04 -1.1942180100749061e-05 0.0000000000000000e+00  7.7128462722015126e-04 -1.4978506998097008e-05 0.0000000000000000e+00  9.3512015909550912e-04 -1.8750902382406789e-05 0.0000000000000000e+00  1.1219477512894333e-03 -2.3201030251769504e-05 0.0000000000000000e+00  1.3233702376675008e-03 -2.7787253061820546e-05 0.0000000000000000e+00  0.0000000000000000e+00 0.0000000000000000e+00 0.0000000000000000e+00  2.2112500667847964e-05 -3.8909898441644865e-07 0.0000000000000000e+00  4.5157377901220368e-05 -7.9473777971003206e-07 0.0000000000000000e+00  7.0114598541705565e-05 -1.2343708695552435e-06 0.0000000000000000e+00  9.8063140853667379e-05 -1.7273889864276951e-06 0.0000000000000000e+00  1.3023923308668389e-04 -2.2963595697716008e-06 0.0000000000000000e+00  1.6810573340795819e-04 -2.9686725654103908e-06 0.0000000000000000e+00  2.1343723810349178e-04 -3.7788888938918361e-06 0.0000000000000000e+00  2.6842565469840826e-04 -4.7723028314100070e-06 0.0000000000000000e+00  3.3580974139834236e-04 -6.0106093989092578e-06 0.0000000000000000e+00  4.1902694141648640e-04 -7.5811853877898650e-06 0.0000000000000000e+00  5.2237067321547715e-04 -9.6122865324591301e-06 0.0000000000000000e+00  6.5109725151612976e-04 -1.2296679111705866e-05 0.0000000000000000e+00  8.1133401281303376e-04 -1.5922560576643672e-05 0.0000000000000000e+00  1.0094357714568742e-03 -2.0892049774155408e-05 0.0000000000000000e+00  1.2500255581945590e-03 -2.7643603803120969e-05 0.0000000000000000e+00  1.5312343355436766e-03 -3.6217334812595992e-05 0.0000000000000000e+00  0.0000000000000000e+00 0.0000000000000000e+00 0.0000000000000000e+00  2.0195852450948875e-05 -3.5462057367624140e-07 0.0000000000000000e+00  4.1279581747782436e-05 -7.2476250652324325e-07 0.0000000000000000e+00  6.4190486522429434e-05 -1.1268523959271533e-06 0.0000000000000000e+00  8.9976212167041836e-05 -1.5792392516317250e-06 0.0000000000000000e+00  1.1985970466558168e-04 -2.1034326898828099e-06 0.0000000000000000e+00  1.5532351757015114e-04 -2.7257615440723811e-06 0.0000000000000000e+00  1.9822083224992700e-04 -3.4797885306380481e-06 0.0000000000000000e+00  2.5092617930210745e-04 -4.4101206715492082e-06 0.0000000000000000e+00  3.1654390033667031e-04 -5.5789112986593594e-06 0.0000000000000000e+00  3.9919847618142434e-04 -7.0777741205124062e-06 0.0000000000000000e+00  5.0443531329770475e-04 -9.0508760611146344e-06 0.0000000000000000e+00  6.3975336607436316e-04 -1.1741126016771420e-05 0.0000000000000000e+00  8.1524000189686933e-04 -1.5581996885354940e-05 0.0000000000000000e+00  1.0440922348713040e-03 -2.1367868715819234e-05 0.0000000000000000e+00  1.3422572223110729e-03 -3.0509279655499745e-05 0.0000000000000000e+00  1.7250323946994945e-03 -4.5172574864942508e-05 0.0000000000000000e+00  0.0000000000000000e+00 0.0000000000000000e+00 0.0000000000000000e+00  1.7397438485409470e-05 -3.0472839633288708e-07 0.0000000000000000e+00  3.5587529183013269e-05 -6.2306714496117789e-07 0.0000000000000000e+00  5.5413575665730050e-05 -9.6942685354446165e-07 0.0000000000000000e+00  7.7826648610746624e-05 -1.3599089382661544e-06 0.0000000000000000e+00  1.0395468007422094e-04 -1.8133574583609780e-06 0.0000000000000000e+00  1.3519295490310723e-04 -2.3527109910467267e-06 0.0000000000000000e+00  1.7332909371570512e-04 -3.0068755476025787e-06 0.0000000000000000e+00  2.2072268384997927e-04 -3.8135538834796378e-06 0.0000000000000000e+00  2.8057173521885484e-04 -4.8240087558260083e-06 0.0000000000000000e+00  3.5731873436136807e-04 -6.1121796599935736e-06 0.0000000000000000e+00  4.5728453553155082e-04 -7.7945382655465013e-06 0.0000000000000000e+00  5.8967838144994569e-04 -1.0078151467787552e-05 0.0000000000000000e+00  7.6822557933133137e-04 -1.3385188820785167e-05 0.0000000000000000e+00  1.0137554436551940e-03 -1.8683311340984627e-05 0.0000000000000000e+00  1.3580064841020958e-03 -2.8333785878584818e-05 0.0000000000000000e+00  1.8479592354253133e-03 -4.7992923094566968e-05 0.0000000000000000e+00  0.0000000000000000e+00 0.0000000000000000e+00 0.0000000000000000e+00  1.3812735416457384e-05 -2.4133682610080242e-07 0.0000000000000000e+00  2.8272963524044720e-05 -4.9358526365232626e-07 0.0000000000000000e+00  4.4072670933743676e-05 -7.6828093916590571e-07 0.0000000000000000e+00  6.1999185343695619e-05 -1.0782601629205633e-06 0.0000000000000000e+00  8.2997920663182591e-05 -1.4384039651107796e-06 0.0000000000000000e+00  1.0825678317229167e-04 -1.8664798748391548e-06 0.0000000000000000e+00  1.3932643355797622e-04 -2.3840734464535588e-06 0.0000000000000000e+00  1.7829938335796867e-04 -3.0175377979996180e-06 0.0000000000000000e+00  2.2808691569825329e-04 -3.7987885419332941e-06 0.0000000000000000e+00  2.9286301781799771e-04 -4.7657328165745327e-06 0.0000000000000000e+00  3.7880433859695744e-04 -5.9627870302556799e-06 0.0000000000000000e+00  4.9538105986099337e-04 -7.4464605586649540e-06 0.0000000000000000e+00  6.5773536434269523e-04 -9.3238404314641311e-06 0.0000000000000000e+00  8.9133935431165185e-04 -1.1959305649614249e-05 0.0000000000000000e+00  1.2415485532659472e-03 -1.6982576459466124e-05 0.0000000000000000e+00  1.7923465618224729e-03 -3.1921830853600602e-05 0.0000000000000000e+00  0.0000000000000000e+00 0.0000000000000000e+00 0.0000000000000000e+00  9.5870209950876924e-06 -1.6714599174299004e-07 0.0000000000000000e+00  1.9632668494085840e-05 -3.4189406297236509e-07 0.0000000000000000e+00  3.0628657541953658e-05 -5.3226036033922416e-07 0.0000000000000000e+00  4.3137935419532513e-05 -7.4710718479633911e-07 0.0000000000000000e+00  5.7842340022341486e-05 -9.9656577460467486e-07 0.0000000000000000e+00  7.5607754472414594e-05 -1.2923921956010055e-06 0.0000000000000000e+00  9.7578595183448824e-05 -1.6480601621357835e-06 0.0000000000000000e+00  1.2532116419638231e-04 -2.0780683506133707e-06 0.0000000000000000e+00  1.6104962291679250e-04 -2.5951322604160830e-06 0.0000000000000000e+00  2.0799560742694752e-04 -3.2018964703090657e-06 0.0000000000000000e+00  2.7103779226900351e-04 -3.8685269487280699e-06 0.0000000000000000e+00  3.5782979545335899e-04 -4.4732661727993040e-06 0.0000000000000000e+00  4.8097136584368132e-04 -4.6420501727318145e-06 0.0000000000000000e+00  6.6269495471523419e-04 -3.2958104409640912e-06 0.0000000000000000e+00  9.4712507349434987e-04 2.7249527665682352e-06 0.0000000000000000e+00  1.4438629268505882e-03 2.3264487946867146e-05 0.0000000000000000e+00  0.0000000000000000e+00 0.0000000000000000e+00 0.0000000000000000e+00  4.9091397987734070e-06 -8.5464892547259911e-08 0.0000000000000000e+00  1.0055858640945220e-05 -1.7482317107013127e-07 0.0000000000000000e+00  1.5695329232534096e-05 -2.7217031963344816e-07 0.0000000000000000e+00  2.2120688485881379e-05 -3.8200690176220662e-07 0.0000000000000000e+00  2.9688636398253351e-05 -5.0941202345731990e-07 0.0000000000000000e+00  3.8854678695026751e-05 -6.6012211875645708e-07 0.0000000000000000e+00  5.0224574899237860e-05 -8.4032641232810257e-07 0.0000000000000000e+00  6.4632784243823298e-05 -1.0556864301280756e-06 0.0000000000000000e+00  8.3266314521271290e-05 -1.3083031230564965e-06 0.0000000000000000e+00  1.0786615734655558e-04 -1.5882728103860079e-06 0.0000000000000000e+00  1.4106335857049372e-04 -1.8507196569851237e-06 0.0000000000000000e+00  1.8694991349570226e-04 -1.9524894838254328e-06 0.0000000000000000e+00  2.5204741868359602e-04 -1.4709966605544827e-06 0.0000000000000000e+00  3.4684849163759069e-04 8.4717025244037814e-07 0.0000000000000000e+00  4.8744990676462632e-04 8.9388438296604192e-06 0.0000000000000000e+00  6.9023580192221698e-04 3.6813999368496155e-05 0.0000000000000000e+00  0.0000000000000000e+00 0.0000000000000000e+00 0.0000000000000000e+00  0.0000000000000000e+00 0.0000000000000000e+00 0.0000000000000000e+00  0.0000000000000000e+00 0.0000000000000000e+00 0.0000000000000000e+00  0.0000000000000000e+00 0.0000000000000000e+00 0.0000000000000000e+00  0.0000000000000000e+00 0.0000000000000000e+00 0.0000000000000000e+00  0.0000000000000000e+00 0.0000000000000000e+00 0.0000000000000000e+00  0.0000000000000000e+00 0.0000000000000000e+00 0.0000000000000000e+00  0.0000000000000000e+00 0.0000000000000000e+00 0.0000000000000000e+00  0.0000000000000000e+00 0.0000000000000000e+00 0.000000000