<?xml version="1.0"?>
<VTKFile type="UnstructuredGrid"  version="0.1"  >
<UnstructuredGrid>
<Piece  NumberOfPoints="289" NumberOfCells="512">
<Points>
<DataArray  type="Float64"  NumberOfComponents="3"  format="ascii">0 0 0  0.0625 0 0  0.125 0 0  0.1875 0 0  0.25 0 0  0.3125 0 0  0.375 0 0  0.4375 0 0  0.5 0 0  0.5625 0 0  0.625 0 0  0.6875 0 0  0.75 0 0  0.8125 0 0  0.875 0 0  0.9375 0 0  1 0 0  0 0.0625 0  0.06261017398618669 0.06247725189535227 0  0.125224175183606 0.06245401774055601 0  0.1878459841291767 0.06242983073427898 0  0.2504797882718767 0.062404283167121 0  0.313130094624485 0.0623770662910027 0  0.3758018567993638 0.06234802178078792 0  0.438500639061731 0.06231720541768934 0  0.5012328729096085 0.06228495815840017 0  0.5640063434034115 0.06225196821545561 0  0.6268312526803033 0.06221928354711695 0  0.6897227761279348 0.06218818040468319 0  0.7527076529279327 0.06215965878979015 0  0.8158422937759527 0.0621329373783681 0  0.8792657851159122 0.06210095010706143 0  0.9433655946378831 0.06203558856146271 0  1.009341671225781 0.06183384710421758 0  0 0.125 0  0.06271662028560444 0.124954969375321 0  0.125440836892948 0.1249089355644276 0  0.188180555043727 0.1248609300151428 0  0.2509441105979717 0.1248100934897139 0  0.3137405036974807 0.1247557526811884 0  0.3765796573547558 0.124697522722167 0  0.4394727338209478 0.1246354400246399 0  0.5024325831690876 0.124570122053822 0  0.565474492337516 0.1245029341388273 0  0.6286176109278357 0.1244361118705529 0  0.6918878772314784 0.1243727338051156 0  0.7553241548704407 0.1243163686782295 0  0.8189906606479048 0.1242702297939541 0  0.8829987884265965 0.1242363292329269 0  0.9475273880789566 0.1242193221495633 0  1.012736966009781 0.1242608407309907 0  0 0.1875 0  0.06281554644975101 0.1874336778025627 0  0.1256422921145223 0.1873657810717905 0  0.1884918950006431 0.1872947774376763 0  0.2513766789817912 0.1872192755798412 0  0.3143099909721381 0.1871381308694053 0  0.3773065843138296 0.1870505948420532 0  0.4403830528736452 0.1869565215854515 0  0.5035583625940996 0.1868566382468032 0  0.5668545672912632 0.186752872116184 0  0.6302978536706724 0.1866486956706428 0  0.69392009345119 0.1865493923861093 0  0.7577608607577633 0.1864620426919946 0  0.821868541911886 0.1863948366398583 0  0.8862940773586554 0.1863548092651883 0  0.9510559047120765 0.1863408930474202 0  1.016025468790781 0.1863176336793009 0  0 0.25 0  0.06290334596619003 0.2499139553195866 0  0.1258212132530034 0.2498256968950761 0  0.1887687195772306 0.2497330484139709 0  0.2517618923940406 0.249633976928964 0  0.3148181532743194 0.2495267129320572 0  0.3779568270974643 0.2494099342646506 0  0.4411996848198048 0.2492830402961478 0  0.5045715229712332 0.2491465438033407 0  0.5681007589678553 0.2490026028649567 0  0.6318199384529809 0.2488556960034535 0  0.695765797667377 0.2487133966940448 0  0.7599778190137995 0.2485871033073485 0  0.8244924498980213 0.2484923829835126 0  0.889326380881365 0.2484482253726993 0  0.954436647964606 0.2484740464281069 0  1.01964588642074 0.248584516180878 0  0 0.3125 0  0.06297670699245794 0.3123964454257892 0  0.1259708570478498 0.3122899710549399 0  0.1890006094339865 0.3121776732334178 0  0.252085282898012 0.3120567534613514 0  0.3152459750447527 0.3119246295887333 0  0.3785062145966711 0.3117791285391989 0  0.4418926486438095 0.3116188028427484 0  0.5054357454935322 0.3114434257293763 0  0.5691704375202086 0.3112547323127143 0  0.6331364898418667 0.3110574811638923 0  0.6973780610100525 0.3108608967395455 0  0.7619412471977168 0.3106804887839469 0  0.8268671699691069 0.3105400780947925 0  0.892176539381568 0.3104735286741699 0  0.9578415202822754 0.3105252229743254 0  1.023748782270003 0.3107480250966843 0  0 0.375 0  0.06303272464639385 0.3748818549358319 0  0.1260852908739381 0.3747600378575393 0  0.1891783529427303 0.3746308519535241 0  0.252333972597665 0.3744906181629474 0  0.3155763812386119 0.3743357453738813 0  0.3789328009413396 0.3741628908114306 0  0.4424343395680171 0.3739692668762449 0  0.5061169601279413 0.3737531774919712 0  0.5700224827011022 0.3735149044664845 0  0.6341994743790847 0.37325811098297 0  0.6987036572435201 0.3729919737945847 0  0.7635970358613834 0.3727342622641691 0  0.828944305121838 0.3725154670908101 0  0.8948046368890571 0.3723836962557943 0  0.9612182047716397 0.3724092485569929 0  1.028193212048558 0.3726866063349524 0  0 0.4375 0  0.06306901766064635 0.4373709325506545 0  0.1261596297867115 0.4372374385724567 0  0.1892943104272052 0.4370950057461805 0  0.2524971713766186 0.4369390004048188 0  0.3157948657220043 0.436764658679256 0  0.379217592995641 0.4365671598237229 0  0.4428002541040848 0.436341843974232 0  0.5065838178564398 0.4360846769657662 0  0.5706169774120317 0.4357931293350041 0  0.6349581863304647 0.4354677341174905 0  0.6996781495621877 0.435114720855367 0  0.7648627713466579 0.4347502635075516 0  0.8306164247141808 0.4344069116022117 0  0.8970654108226936 0.4341423955234711 0  0.9643625322504487 0.4340497012038546 0  1.032698330250305 0.4342648871144483 0  0 0.5 0  0.0630838475494231 0.4998644247730619 0  0.1261902819416734 0.4997237337014806 0  0.1893428006970592 0.4995726478823834 0  0.2525667276899477 0.4994055838428631 0  0.3158902382103844 0.4992165281643165 0  0.3793455338736939 0.4989989634633517 0  0.4429702574995759 0.4987458993517441 0  0.5068092941289283 0.4984501095001431 0  0.5709172104971172 0.4981047609120314 0  0.6353617772744996 0.4977047696663319 0  0.7002293411361841 0.4972494635931834 0  0.7656332958380413 0.496747499713514 0  0.8317274943087625 0.4962253889321184 0  0.8987269897351065 0.4957409372801148 0  0.9669391602604122 0.4954009385188838 0  1.03681198017044 0.4953757111025574 0  0 0.5625 0  0.06307623389679978 0.5623630089867884 0  0.12617518953652 0.5622203648309981 0  0.1893204903123269 0.5620661666587579 0  0.2525377059806794 0.5618940020162614 0  0.3158554568879227 0.5616966779235507 0  0.3793067046814375 0.5614659481859384 0  0.4429303521699454 0.561192262584066 0  0.5067733698817045 0.5608646049190132 0  0.5708938666026553 0.5604705718821099 0  0.6353659304682077 0.5599970177208548 0  0.7002878645813529 0.5594319370437929 0  0.765796864137318 0.5587689307731984 0  0.8320953548640938 0.5580167720276081 0  0.8994966433226265 0.557218015124109 0  0.9684987305404077 0.5564797601388493 0  1.039896079828936 0.5560084440561576 0  0 0.625 0  0.06304605459379932 0.6248672081434878 0  0.1261140413260173 0.6247284739567064 0  0.1892267445501066 0.6245775289800281 0  0.2524089234517423 0.6244073953100262 0  0.3156884348049698 0.6242099677611185 0  0.3790975525764884 0.6239755191487195 0  0.4426746112226999 0.6236921075289443 0  0.5064662057296251 0.6233448814144906 0  0.5705304294774967 0.6229153294060367 0  0.6349422079261885 0.6223806548693467 0  0.6998030932401862 0.621713801757069 0  0.7652606861712064 0.6208855380988741 0  0.8315482466290104 0.6198721937349062 0  0.8990633304478308 0.6186775240023856 0  0.968510851116984 0.6173835865283447 0  1.041131518514167 0.616230882873069 0  0 0.6875 0  0.06299411672577789 0.6873772970123768 0  0.1260084256929335 0.6872487005218992 0  0.1890638859660913 0.6871079353550686 0  0.2521833550099714 0.6869478693861482 0  0.3153926623483992 0.6867599725331567 0  0.3787218609876357 0.6865336228079795 0  0.4422067512429542 0.6862551816326001 0  0.5058908414731877 0.6859067381941124 0  0.5698281013030762 0.6854644021520269 0  0.6340873993505769 0.6848960323530885 0  0.6987610132056776 0.6841584232061756 0  0.7639836415122906 0.6831945830903955 0  0.8299786148382186 0.681934148787318 0  0.8971707635481218 0.6803090852144535 0  0.9664376884608632 0.6783281415866951 0  1.039565214667535 0.6762961030439509 0  0 0.75 0  0.06292218371090813 0.7498932150573416 0  0.1258618934082436 0.7497809884434793 0  0.1888373080508222 0.7496574801164536 0  0.2518683207246273 0.7495159367857521 0  0.3149775009354878 0.7493480874875024 0  0.3781911984418007 0.7491433286003835 0  0.4415408284884358 0.7488875710320614 0  0.5050643690504775 0.7485615579564068 0  0.5688081090605367 0.7481383579838776 0  0.6328288348033378 0.7475795734531175 0  0.697197445745436 0.7468295467524776 0  0.7620083889979823 0.7458065136490934 0  0.8274120657216285 0.7443897204129125 0  0.8937314618441021 0.7424058072468055 0  0.9618558474276313 0.7396535419492017 0  1.034101415995271 0.7362875403806315 0  0 0.8125 0  0.06283294749390679 0.8124145040126219 0  0.125679906894567 0.8123244431838582 0  0.1885554077030084 0.812224887451038 0  0.2514754047282776 0.8121100576595747 0  0.3144580771029457 0.8119727446720796 0  0.377524735521463 0.811803499657598 0  0.4407008335550837 0.8115894450084534 0  0.5040169930165617 0.8113124654617005 0  0.5675097418191999 0.8109463831927403 0  0.6312211937539687 0.81045244295744 0  0.6951960294908418 0.8097719050809548 0  0.7594732882215036 0.8088134252610867 0  0.8240740824583901 0.8074302592057165 0  0.8890209290569325 0.8053761844114126 0  0.9546400765039483 0.8022229226698127 0  1.023949999494037 0.7973625430036575 0  0 0.875 0  0.0627299401901653 0.8749402874951119 0  0.1254696651839349 0.8748772784496713 0  0.1882293236335302 0.8748073961793151 0  0.2510201007508716 0.8747264066572716 0  0.3138548061759939 0.8746289584819625 0  0.3767485485621793 0.8745079272095513 0  0.4397194862509571 0.8743534286141875 0  0.5027895430191491 0.8741512780905587 0  0.5659846852732885 0.8738805203502648 0  0.629333534316507 0.873509384397218 0  0.6928608231747798 0.8729885257935788 0  0.7565661542306314 0.8722393593811294 0  0.8203633949268211 0.8711320699551797 0  0.8839249873469888 0.8694342363727773 0  0.9463531967396123 0.8666459065484059 0  1.005864148417691 0.8613144966234504 0  0 0.9375 0  0.06261738597504476 0.9374693046195619 0  0.1252398064256116 0.9374368809016393 0  0.1878724870737265 0.9374008484527473 0  0.2505212086268107 0.9373589681631406 0  0.3131926295494202 0.9373083876583227 0  0.3758946694370295 0.937245273432982 0  0.4386369599580198 0.9371642483336899 0
[...]
<PointData  Vectors="f_54"> 
<DataArray  type="Float64"  Name="f_54"  NumberOfComponents="3" format="ascii">0.0000000000000000e+00 0.0000000000000000e+00 0.0000000000000000e+00  0.0000000000000000e+00 0.0000000000000000e+00 0.0000000000000000e+00  0.0000000000000000e+00 0.0000000000000000e+00 0.0000000000000000e+00  0.0000000000000000e+00 0.0000000000000000e+00 0.0000000000000000e+00  0.0000000000000000e+00 0.0000000000000000e+00 0.0000000000000000e+00  0.0000000000000000e+00 0.0000000000000000e+00 0.0000000000000000e+00  0.0000000000000000e+00 0.0000000000000000e+00 0.0000000000000000e+00  0.0000000000000000e+00 0.0000000000000000e+00 0.0000000000000000e+00  0.0000000000000000e+00 0.0000000000000000e+00 0.0000000000000000e+00  0.0000000000000000e+00 0.0000000000000000e+00 0.0000000000000000e+00  0.0000000000000000e+00 0.0000000000000000e+00 0.0000000000000000e+00  0.0000000000000000e+00 0.0000000000000000e+00 0.0000000000000000e+00  0.0000000000000000e+00 0.0000000000000000e+00 0.0000000000000000e+00  0.0000000000000000e+00 0.0000000000000000e+00 0.0000000000000000e+00  0.0000000000000000e+00 0.0000000000000000e+00 0.0000000000000000e+00  0.0000000000000000e+00 0.0000000000000000e+00 0.0000000000000000e+00  0.0000000000000000e+00 0.0000000000000000e+00 0.0000000000000000e+00  0.0000000000000000e+00 0.0000000000000000e+00 0.0000000000000000e+00  -1.0140496419476055e-06 -1.2714490221990188e-07 0.0000000000000000e+00  -2.0333246042891558e-06 -2.5571238240573610e-07 0.0000000000000000e+00  -3.0596501810161755e-06 -3.8696441711735329e-07 0.0000000000000000e+00  -4.0859024702251634e-06 -5.2165719472988338e-07 0.0000000000000000e+00  -5.0898145662058142e-06 -6.5981040783119287e-07 0.0000000000000000e+00  -6.0254025432487104e-06 -8.0054866462648286e-07 0.0000000000000000e+00  -6.8105996579977756e-06 -9.4214144589158470e-07 0.0000000000000000e+00  -7.3087508834656471e-06 -1.0825054689072472e-06 0.0000000000000000e+00  -7.2994790040409827e-06 -1.2207042137818978e-06 0.0000000000000000e+00  -6.4291247941950970e-06 -1.3605706709796576e-06 0.0000000000000000e+00  -4.1167571036157473e-06 -1.5190781463165861e-06 0.0000000000000000e+00  6.4914937551462325e-07 -1.7465227635641771e-06 0.0000000000000000e+00  9.8149366106915476e-06 -2.1804772742835367e-06 0.0000000000000000e+00  2.7682502916346951e-05 -3.2103713741072229e-06 0.0000000000000000e+00  6.5436495523415230e-05 -6.0531576337790804e-06 0.0000000000000000e+00  1.5816816019044666e-04 -1.5160791654268568e-05 0.0000000000000000e+00  0.0000000000000000e+00 0.0000000000000000e+00 0.0000000000000000e+00  -2.0256744698135705e-06 -2.5322113971225305e-07 0.0000000000000000e+00  -4.0661347187715198e-06 -5.0957464417328292e-07 0.0000000000000000e+00  -6.1299191477199810e-06 -7.7186211386198633e-07 0.0000000000000000e+00  -8.2088906972380568e-06 -1.0418483773215424e-06 0.0000000000000000e+00  -1.0266618644145119e-05 -1.3197408534451994e-06 0.0000000000000000e+00  -1.2222268081809531e-05 -1.6037398678470517e-06 0.0000000000000000e+00  -1.3927525929669832e-05 -1.8898532355392777e-06 0.0000000000000000e+00  -1.5132808242131553e-05 -2.1723846961957244e-06 0.0000000000000000e+00  -1.5436424202348137e-05 -2.4458821973104916e-06 0.0000000000000000e+00  -1.4204938907086561e-05 -2.7099675612308057e-06 0.0000000000000000e+00  -1.0441170998735851e-05 -2.9794809612942049e-06 0.0000000000000000e+00  -2.5511624104257345e-06 -3.3036398247904275e-06 0.0000000000000000e+00  1.2085782888486937e-05 -3.7973090924219850e-06 0.0000000000000000e+00  3.7891237920033461e-05 -4.6706865738533657e-06 0.0000000000000000e+00  8.2162477086219438e-05 -6.1276659318853578e-06 0.0000000000000000e+00  1.5422523946698028e-04 -7.3133944236526769e-06 0.0000000000000000e+00  0.0000000000000000e+00 0.0000000000000000e+00 0.0000000000000000e+00  -3.0244517744442326e-06 -3.7641471117367533e-07 0.0000000000000000e+00  -6.0811831582449361e-06 -7.5822060843682061e-07 0.0000000000000000e+00  -9.1944901419082941e-06 -1.1503061492716634e-06 0.0000000000000000e+00  -1.2366784809678779e-05 -1.5559859193829752e-06 0.0000000000000000e+00  -1.5563152353106005e-05 -1.9761088311757580e-06 0.0000000000000000e+00  -1.8689813319883284e-05 -2.4081124420122882e-06 0.0000000000000000e+00  -2.1563439035311307e-05 -2.8451889599129916e-06 0.0000000000000000e+00  -2.3867233888319496e-05 -3.2759658318188965e-06 0.0000000000000000e+00  -2.5088166431096834e-05 -3.6854983440098311e-06 0.0000000000000000e+00  -2.4427597993392632e-05 -4.0589489641850949e-06 0.0000000000000000e+00  -2.0675356427435141e-05 -4.3899648751384628e-06 0.0000000000000000e+00  -1.2038891053137908e-05 -4.6958176504439607e-06 0.0000000000000000e+00  4.0582531779016730e-06 -5.0387485008514645e-06 0.0000000000000000e+00  3.1087830751413640e-05 -5.5428839488384869e-06 0.0000000000000000e+00  7.2935569734757397e-05 -6.3777007781065728e-06 0.0000000000000000e+00  1.3127831947346848e-04 -7.7432472612523769e-06 0.0000000000000000e+00  0.0000000000000000e+00 0.0000000000000000e+00 0.0000000000000000e+00  -3.9920838552450448e-06 -4.9437072424413838e-07 0.0000000000000000e+00  -8.0442889302388477e-06 -9.9719209714058204e-07 0.0000000000000000e+00  -1.2208553247010242e-05 -1.5162725883201387e-06 0.0000000000000000e+00  -1.6513275959643218e-05 -2.0573873249443885e-06 0.0000000000000000e+00  -2.0946243052365827e-05 -2.6229691716196760e-06 0.0000000000000000e+00  -2.5430374560478454e-05 -3.2104818469396226e-06 0.0000000000000000e+00  -2.9788904075104670e-05 -3.8105034855783232e-06 0.0000000000000000e+00  -3.3695909613195619e-05 -4.4047587486796300e-06 0.0000000000000000e+00  -3.6607711410497105e-05 -4.9647310700284776e-06 0.0000000000000000e+00  -3.7671482250405041e-05 -5.4521422243990505e-06 0.0000000000000000e+00  -3.5611971779994617e-05 -5.8235093553546624e-06 0.0000000000000000e+00  -2.8611935230333580e-05 -6.0419183443527301e-06 0.0000000000000000e+00  -1.4242144918089829e-05 -6.0992441223816668e-06 0.0000000000000000e+00  1.0405704057299900e-05 -6.0498526031269309e-06 0.0000000000000000e+00  4.8040461543258711e-05 -6.0519888937910984e-06 0.0000000000000000e+00  9.9435960118059356e-05 -6.4067570498346965e-06 0.0000000000000000e+00  0.0000000000000000e+00 0.0000000000000000e+00 0.0000000000000000e+00  -4.9001418003351878e-06 -6.0395759723158535e-07 0.0000000000000000e+00  -9.8993259009865577e-06 -1.2204244514554139e-06 0.0000000000000000e+00  -1.5090004435653010e-05 -1.8612232765266804e-06 0.0000000000000000e+00  -2.0543707264461982e-05 -2.5359160803135318e-06 0.0000000000000000e+00  -2.6294933748090464e-05 -3.2501346135668202e-06 0.0000000000000000e+00  -3.2317261218210076e-05 -4.0032140942534608e-06 0.0000000000000000e+00  -3.8487903334769230e-05 -4.7849033063371526e-06 0.0000000000000000e+00  -4.4536220353139593e-05 -5.5710293500830402e-06 0.0000000000000000e+00  -4.9971491598638621e-05 -6.3183115540907582e-06 0.0000000000000000e+00  -5.3986845108726314e-05 -6.9592663647181797e-06 0.0000000000000000e+00  -5.5342223358162952e-05 -7.3996834319649113e-06 0.0000000000000000e+00  -5.2244643036730109e-05 -7.5239941216977278e-06 0.0000000000000000e+00  -4.2276572772955062e-05 -7.2185737207204119e-06 0.0000000000000000e+00  -2.2478770430642650e-05 -6.4299804449402930e-06 0.0000000000000000e+00  1.0250572522770624e-05 -5.2839050698210087e-06 0.0000000000000000e+00  5.8357972530545730e-05 -4.2990364513645766e-06 0.0000000000000000e+00  0.0000000000000000e+00 0.0000000000000000e+00 0.0000000000000000e+00  -5.7095137254483776e-06 -7.0108759436602850e-07 0.0000000000000000e+00  -1.1566772989886691e-05 -1.4198155792186760e-06 0.0000000000000000e+00  -1.7716388244740249e-05 -2.1732696429724101e-06 0.0000000000000000e+00  -2.4289297817205641e-05 -2.9764845802095362e-06 0.0000000000000000e+00  -3.1390513835308310e-05 -3.8406360762526040e-06 0.0000000000000000e+00  -3.9079073415277712e-05 -4.7701200097322290e-06 0.0000000000000000e+00  -4.7335942115317779e-05 -5.7579309511546433e-06 0.0000000000000000e+00  -5.6014279668492455e-05 -6.7786220865734282e-06 0.0000000000000000e+00  -6.4765276997554038e-05 -7.7781414745353041e-06 0.0000000000000000e+00  -7.2932702587711425e-05 -8.6603323493133940e-06 0.0000000000000000e+00  -7.9412451479052973e-05 -9.2716151834584803e-06 0.0000000000000000e+00  -8.2483326445312029e-05 -9.3898373018876812e-06 0.0000000000000000e+00  -7.9635808934092650e-05 -8.7329806033021520e-06 0.0000000000000000e+00  -6.7453601419822993e-05 -7.0212803642935066e-06 0.0000000000000000e+00  -4.1606072171294976e-05 -4.1526041678050237e-06 0.0000000000000000e+00  3.1138006702591114e-06 -5.7713097716021245e-07 0.0000000000000000e+00  0.0000000000000000e+00 0.0000000000000000e+00 0.0000000000000000e+00  -6.3718606378011739e-06 -7.8066256710272492e-07 0.0000000000000000e+00  -1.2946465957199907e-05 -1.5850274375447559e-06 0.0000000000000000e+00  -1.9928599575888331e-05 -2.4366273777066552e-06 0.0000000000000000e+00  -2.7521163828244095e-05 -3.3577955328026160e-06 0.0000000000000000e+00  -3.5919830950434430e-05 -4.3681433611888458e-06 0.0000000000000000e+00  -4.5300830425602337e-05 -5.4816176026845325e-06 0.0000000000000000e+00  -5.5797271368856607e-05 -6.7011516103362737e-06 0.0000000000000000e+00  -6.7457013991158168e-05 -8.0094093798497326e-06 0.0000000000000000e+00  -8.0171859451214178e-05 -9.3534674961779626e-06 0.0000000000000000e+00  -9.3564062363396078e-05 -1.0620745688878011e-05 0.0000000000000000e+00  -1.0681322805385126e-04 -1.1603956559912076e-05 0.0000000000000000e+00  -1.1840771746598946e-04 -1.1956642371536774e-05 0.0000000000000000e+00  -1.2581466713640946e-04 -1.1153164022298571e-05 0.0000000000000000e+00  -1.2508255194925772e-04 -8.4965397254443991e-06 0.0000000000000000e+00  -1.1039416367986506e-04 -3.2724102513987617e-06 0.0000000000000000e+00  -7.3476131069353436e-05 4.7795002288642507e-06 0.0000000000000000e+00  0.0000000000000000e+00 0.0000000000000000e+00 0.0000000000000000e+00  -6.8331886555012742e-06 -8.3672945017601119e-07 0.0000000000000000e+00  -1.3924822907806626e-05 -1.7037141593728102e-06 0.0000000000000000e+00  -2.1541876991134657e-05 -2.6317175282866637e-06 0.0000000000000000e+00  -2.9965042439219618e-05 -3.6519167278568136e-06 0.0000000000000000e+00  -3.9493215163665554e-05 -4.7952723264973501e-06 0.0000000000000000e+00  -5.0443487443109549e-05 -6.0904753671931604e-06 0.0000000000000000e+00  -6.3142356656317841e-05 -7.5592183516668061e-06 0.0000000000000000e+00  -7.7900392028609915e-05 -9.2065625197685140e-06 0.0000000000000000e+00  -9.4956836216975591e-05 -1.1002540185168573e-05 0.0000000000000000e+00  -1.1437167274709804e-04 -1.2848607586425748e-05 0.0000000000000000e+00  -1.3583034194032716e-04 -1.4519309128782972e-05 0.0000000000000000e+00  -1.5831304234012177e-04 -1.5567350728375215e-05 0.0000000000000000e+00  -1.7957552690479921e-04 -1.5186054898448456e-05 0.0000000000000000e+00  -1.9540884945143996e-04 -1.2054923539112361e-05 0.0000000000000000e+00  -1.9869327473245622e-04 -4.2827172398305658e-06 0.0000000000000000e+00  -1.7821713056660212e-04 1.0283342378176064e-05 0.0000000000000000e+00  0.0000000000000000e+00 0.0000000000000000e+00 0.0000000000000000e+00  -7.0394090087223357e-06 -8.6292145901431989e-07 0.0000000000000000e+00  -1.4386367677600538e-05 -1.7623659687330236e-06 0.0000000000000000e+00  -2.2364043864277992e-05 -2.7362984426924757e-06 0.0000000000000000e+00  -3.1327141560482791e-05 -3.8254106696747417e-06 0.0000000000000000e+00  -4.1678486882121855e-05 -5.0740511675990673e-06 0.0000000000000000e+00  -5.3885322415484722e-05 -6.5302292958886399e-06 0.0000000000000000e+00  -6.8492643157565191e-05 -8.2435325219060767e-06 0.0000000000000000e+00  -8.6126987316602669e-05 -1.0258533745611958e-05 0.0000000000000000e+00  -1.0747639878716086e-04 -1.2598750506054658e-05 0.0000000000000000e+00  -1.3321791927804641e-04 -1.5231308250072339e-05 0.0000000000000000e+00  -1.6383912032814956e-04 -1.7993260643790278e-05 0.0000000000000000e+00  -1.9926258288844291e-04 -2.0444816850175150e-05 0.0000000000000000e+00  -2.3814088863186326e-04 -2.1593944402377991e-05 0.0000000000000000e+00  -2.7668898166308961e-04 -1.9432266432077365e-05 0.0000000000000000e+00  -3.0705649912249257e-04 -1.0313073115620283e-05 0.0000000000000000e+00  -3.1548751153707554e-04 1.1493406642323614e-05 0.0000000000000000e+00  0.0000000000000000e+00 0.0000000000000000e+00 0.0000000000000000e+00  -6.9434544526547387e-06 -8.5321736176385804e-07 0.0000000000000000e+00  -1.4228768084513189e-05 -1.7478744497476758e-06 0.0000000000000000e+00  -2.2220066956307920e-05 -2.7279045507134359e-06 0.0000000000000000e+00  -3.1330500435003061e-05 -3.8426572996611938e-06 0.0000000000000000e+00  -4.2051713129999227e-05 -5.1498966096586752e-06 0.0000000000000000e+00  -5.4989004753883151e-05 -6.7189323250252564e-06 0.0000000000000000e+00  -7.0902922164088153e-05 -8.6333722329146544e-06 0.0000000000000000e+00  -9.0755146069738737e-05 -1.0991932202140132e-05 0.0000000000000000e+00  -1.1574920967781052e-04 -1.3903228545693845e-05 0.0000000000000000e+00  -1.4733955679426637e-04 -1.7464501219902839e-05 0.0000000000000000e+00  -1.8714570094364517e-04 -2.1700089599985799e-05 0.0000000000000000e+00  -2.3663569163571093e-04 -2.6402584087420986e-05 0.0000000000000000e+00  -2.9632079703831397e-04 -3.0746928452203100e-05 0.0000000000000000e+00  -3.6407501984100975e-04 -3.2414117614118184e-05 0.0000000000000000e+00  -4.3234673018846835e-04 -2.5864294259568625e-05 0.0000000000000000e+00  -4.8492763915653544e-04 8.0946309845301650e-08 0.0000000000000000e+00  0.0000000000000000e+00 0.0000000000000000e+00 0.0000000000000000e+00  -6.5131551549882591e-06 -8.0297018079283778e-07 0.0000000000000000e+00  -1.3379814973504985e-05 -1.6497491507570292e-06 0.0000000000000000e+00  -2.0980679033254835e-05 -2.5875752504073032e-06 0.0000000000000000e+00  -2.9759276737890461e-05 -3.6715840996384335e-06 0.0000000000000000e+00  -4.0262744001980089e-05 -4.9699429669082792e-06 0.0000000000000000e+00  -5.3195173321762163e-05 -6.5705531063960931e-06 0.0000000000000000e+00  -6.9489357788133767e-05 -8.5899786159771219e-06 0.0000000000000000e+00  -9.0403050699844545e-05 -1.1185113464418803e-05 0.0000000000000000e+00  -1.1764317599455266e-04 -1.4567161601742186e-05 0.0000000000000000e+00  -1.5350944329192305e-04 -1.9014011976675915e-05 0.0000000000000000e+00  -2.0101156070746837e-04 -2.4865605050909856e-05 0.0000000000000000e+00  -2.6381383530533158e-04 -3.2450293695510141e-05 0.0000000000000000e+00  -3.4561796453680036e-04 -4.1773798244649967e-05 0.0000000000000000e+00  -4.4810604370823455e-04 -5.1440137825268060e-05 0.0000000000000000e+00  -5.6622700058761826e-04 -5.5349486751424392e-05 0.0000000000000000e+00  -6.8229893018268133e-04 -3.5532632038386930e-05 0.0000000000000000e+00  0.0000000000000000e+00 0.0000000000000000e+00 0.0000000000000000e+00  -5.7387029745725703e-06 -7.1005148154726297e-07 0.0000000000000000e+00  -1.1813890722626492e-05 -1.4626699341855457e-06 0.0000000000000000e+00  -1.8591158975186214e-05 -2.3043945702451503e-06 0.0000000000000000e+00  -2.6505495290386752e-05 -3.2912098556672369e-06 0.0000000000000000e+00  -3.6108814046647304e-05 -4.4952358838411245e-06 0.0000000000000000e+00  -4.8136038310345484e-05 -6.0143289863214762e-06 0.0000000000000000e+00  -6.3601113949631323e-05 -7.9865575706330673e-06 0.0000000000000000e+00  -8.3939694974166157e-05 -1.0612695001004421e-05 0.0000000000000000e+00  -1.1122211901785539e-04 -1.4191784509365931e-05 0.0000000000000000e+00  -1.4846542569267951e-04 -1.9177650479092109e-05 0.0000000000000000e+00  -2.0006258932904570e-04 -2.6267003845162461e-05 0.0000000000000000e+00  -2.7227214125041035e-04 -3.6524741616633655e-05 0.0000000000000000e+00  -3.7341511487273875e-04 -5.1493828333666473e-05 0.0000000000000000e+00  -5.1241801465760298e-04 -7.2868921188367741e-05 0.0000000000000000e+00  -6.9129804113121380e-04 -9.9129676191330026e-05 0.0000000000000000e+00  -8.9213672867651406e-04 -1.0679905211043728e-04 0.0000000000000000e+00  0.0000000000000000e+00 0.0000000000000000e+00 0.0000000000000000e+00  -4.6382642981742728e-06 -5.7586079480181181e-07 0.0000000000000000e+00  -9.5647639214201827e-06 -1.1888165476991926e-06 0.0000000000000000e+00  -1.5094804782385147e-05 -1.8798531760487874e-06 0.0000000000000000e+00  -2.1609613815634811e-05 -2.6993904313649218e-06 0.0000000000000000e+00  -2.9603323298025203e-05 -3.7143119807332324e-06 0.0000000000000000e+00  -3.9751174754600906e-05 -5.0185747016987871e-06 0.0000000000000000e+00  -5.3014101232186178e-05 -6.7501655689721709e-06 0.0000000000000000e+00  -7.0805178273589342e-05 -9.1193418037762856e-06 0.0000000000000000e+00  -9.5261736240037761e-05 -1.2457366866027167e-05 0.0000000000000000e+00  -1.2969814867561604e-04 -1.7303803037808556e-05 0.0000000000000000e+00  -1.7936210223577762e-04 -2.4569989241612418e-05 0.0000000000000000e+00  -2.5266586315646959e-04 -3.5863064842177674e-05 0.0000000000000000e+00  -3.6299719974054333e-04 -5.4172660976185740e-05 0.0000000000000000e+00  -5.3045819533584075e-04 -8.5396574462005899e-05 0.0000000000000000e+00  -7.7824573822096179e-04 -1.4128173172344585e-04 0.0000000000000000e+00  -1.0721948416221848e-03 -2.3212594138876465e-04 0.0000000000000000e+00  0.0000000000000000e+00 0.0000000000000000e+00 0.0000000000000000e+00  -3.2602912247003259e-06 -4.0590727411390266e-07 0.0000000000000000e+00  -6.7313733432932615e-06 -8.3928967723512585e-07 0.0000000000000000e+00  -1.0644905154118660e-05 -1.3307208088087379e-06 0.0000000000000000e+00  -1.5284092580471397e-05 -1.9183755114148686e-06 0.0000000000000000e+00  -2.1021433549172990e-05 -2.6538575516973457e-06 0.0000000000000000e+00  -2.8375135966495189e-05 -3.6112240116336829e-06 0.0000000000000000e+00  -3.8098842057252139e-05 -4.9017944205081231e-06 0.0000000000000000e+00  -5.1331232373905186e-05 -6.6994640264648319e-06 0.0000000000000000e+00  -6.9856059650380586e-05 -9.2854679444596992e-06 0.0000000000000000e+00  -9.6572474183685843e-05 -1.3130254303289582e-05 0.0000000000000000e+00  -1.3637852005088020e-04 -1.9049421049706894e-05 0.0000000000000000e+00  -1.9788377584559606e-04 -2.8519741409795678e-05 0.0000000000000000e+00  -2.9677980064989501e-04 -4.4397958059716740e-05 0.0000000000000000e+00  -4.6237686384686629e-04 -7.2934492779771270e-05 0.0000000000000000e+00  -7.5000596531626918e-04 -1.3121222418145396e-04 0.0000000000000000e+00  -1.2719960319716630e-03 -2.8064766621210878e-04 0.0000000000000000e+00  0.0000000000000000e+00 0.0000000000000000e+00 0.0000000000000000e+00  -1.6814635678045629e-06 -2.0972097518004439e-07 0.0000000000000000e+00  -3.4739983116234031e-06 -4.3403193209747274e-07 0.0000000000000000e+00  -5.4999575455646283e-06 -6.8922828155206251e-07 0.0000000000000000e+00  -7.9097972875882585e-06 -9.9581540099440950e-07 0.0000000000000000e+00  -1.0902945154596464e-05 -1.3817754287687104e-06 0.0000000000000000e+00  -1.4759477820784081e-05 -1.8876737008367401e-06 0.0000000000000000e+00  -1.9891493400677560e-05 -2.5750939015901625e-06 0.0000000000000000e+00  -2.6930977164637601e-05 -3.5410595882880550e-06 0.0000000000000000e+00  -3.6887847495059368e-05 -4.9431782531139286e-06 0.0000000000000000e+00  -5.1449617664580982e-05 -7.0434547316499680e-06 0.0000000000000000e+00  -7.3582311392957604e-05 -1.0281080021621062e-05 0.0000000000000000e+00  -1.0880275275038010e-04 -1.5370308586201304e-05 0.0000000000000000e+00  -1.6796069920596256e-04 -2.3300934070509854e-05 0.0000000000000000e+00  -2.7294188986024020e-04 -3.4475738510089898e-05 0.0000000000000000e+00  -4.6293461445073570e-04 -4.3719302385309168e-05 0.0000000000000000e+00  -7.6373044026866192e-04 -2.7356951397859610e-05 0.0000000000000000e+00  0.0000000000000000e+00 0.0000000000000000e+00 0.0000000000000000e+00  0.0000000000000000e+00 0.0000000000000000e+00 0.0000000000000000e+00  0.0000000000000000e+00 0.0000000000000000e+00 0.0000000000000000e+00  0.0000000000000000e+00 0.0000000000000000e+00 0.0000000000000000e+00  0.0000000000000000e+00 0.0000000000000000e+00 0.0000000000000000e+00  0.0000000000000000e+00 0.0000000000000000e+00