<?xml version="1.0"?>
<VTKFile type="UnstructuredGrid"  version="0.1"  >
<UnstructuredGrid>
<Piece  NumberOfPoints="289" NumberOfCells="512">
<Points>
<DataArray  type="Float64"  NumberOfComponents="3"  format="ascii">0 0 0  0.0625 0 0  0.125 0 0  0.1875 0 0  0.25 0 0  0.3125 0 0  0.375 0 0  0.4375 0 0  0.5 0 0  0.5625 0 0  0.625 0 0  0.6875 0 0  0.75 0 0  0.8125 0 0  0.875 0 0  0.9375 0 0  1 0 0  0 0.0625 0  0.06260251287473181 0.06247657422059943 0  0.1252087450706794 0.06245265807784744 0  0.1878225831857561 0.06242778182533103 0  0.2504481633742477 0.06240153859103647 0  0.3130900141180512 0.062373626140502 0  0.3757532255994062 0.06234389998464575 0  0.4384436752961042 0.06231243782337675 0  0.5011683765968032 0.06227960911786989 0  0.5639361086206623 0.06224613065561049 0  0.6267587193372486 0.06221306188040025 0  0.6896541249656065 0.06218163318963764 0  0.7526538343738663 0.0621526463327976 0  0.8158233204813802 0.06212472459779157 0  0.8793212956052822 0.0620890892285296 0  0.9435851741437407 0.06201233985234568 0  1.009969023366185 0.06177238454553825 0  0 0.125 0  0.06270138535018804 0.1249536165292504 0  0.1254101293675912 0.124906219238794 0  0.1881339246979257 0.1248568316902666 0  0.2508809732402392 0.1248045943965071 0  0.3136602759282038 0.1247488455253454 0  0.3764819706530232 0.1246892274141973 0  0.4393577636077491 0.1246258223770827 0  0.5023015469980869 0.1245593122535266 0  0.565330401803629 0.124491137571163 0  0.6284664173198455 0.1244235971675342 0  0.6917402606420258 0.1243597698061961 0  0.7551984324497052 0.1243030616887774 0  0.8189177409129483 0.1242561920105897 0  0.8830308348643675 0.1242201541378073 0  0.9477519771039842 0.1241983631802323 0  1.013289975980338 0.124235188191515 0  0 0.1875 0  0.06279296089027316 0.187431659191402 0  0.1255967149787274 0.1873617230105852 0  0.1884225449312603 0.1872886422876976 0  0.2512825004329216 0.1872110202570598 0  0.3141898291131377 0.1871277248469754 0  0.3771594654007029 0.1870380455826073 0  0.4402086175573535 0.1869419074464892 0  0.5033575205851858 0.1868401468178628 0  0.5666304704126944 0.1867348375408075 0  0.6300573238236482 0.1866296204947768 0  0.693675694108004 0.1865299268126795 0  0.7575338522470361 0.1864428781073305 0  0.8216929282664427 0.1863764605324098 0  0.886221483480314 0.18633709453602 0  0.9511589163527343 0.1863225910470505 0  1.016390242551387 0.1862956763091605 0  0 0.25 0  0.06287380673820178 0.2499112911095146 0  0.1257615114503025 0.2498203318077991 0  0.1886776371817481 0.2497249141160497 0  0.2516377215012593 0.2496229877854818 0  0.3146588806349213 0.2495127896882225 0  0.3777604359742328 0.2493930394737525 0  0.4409646296097335 0.2492632280575611 0  0.5042974538584174 0.2491240253533528 0  0.567789598579082 0.2489778262447307 0  0.631477434959949 0.2488294306094953 0  0.6954036831505499 0.2486867996410622 0  0.7596166445146154 0.2485617221749636 0  0.8241649373243023 0.2484700192732826 0  0.8890804687671862 0.2484305511285106 0  0.9543358654384451 0.2484618434808536 0  1.019762198189308 0.2485764134612329 0  0 0.3125 0  0.0629408320061737 0.3123931720456491 0  0.1258982160474069 0.3122833648671646 0  0.188889438203532 0.3121676206253395 0  0.2519330297433526 0.3120431023425566 0  0.3150494584003889 0.3119072165463477 0  0.3782618932268659 0.3117578221349873 0  0.441597065202791 0.3115935694538201 0  0.5050862286896827 0.3114144256037453 0  0.5687661748497144 0.3112224531596914 0  0.6326801039599994 0.3110229120855002 0  0.6968778183317835 0.3108257317385242 0  0.7614139540409656 0.3106473179587154 0  0.8263415887286328 0.3105124629367719 0  0.8916966699947517 0.3104557492264656 0  0.9574683060645354 0.3105213163204681 0  1.023558247484048 0.3107595163158969 0  0 0.375 0  0.06299140028644201 0.3748780317736084 0  0.1260014425198076 0.3747523019781719 0  0.1890495792027951 0.3746190285362235 0  0.2521567124175614 0.3744744612868906 0  0.3153460045926731 0.3743149642245615 0  0.378643788492364 0.3741371950002924 0  0.4420806141738282 0.3739384418031208 0  0.5056924631327208 0.3737172055945345 0  0.5695221253231767 0.3734741535891776 0  0.6336206341242154 0.3732136145723393 0  0.6980484156136492 0.3729458226158462 0  0.7628753328547054 0.3726900987279122 0  0.8281780626063021 0.3724789913926699 0  0.8940326279758306 0.3723629111285076 0  0.9605011084611604 0.3724138370816837 0  1.027618449798205 0.3727253582101848 0  0 0.4375 0  0.06302343601798815 0.4373666489661689 0  0.1260669383666699 0.4372287453246186 0  0.1891514225484432 0.4370816523981287 0  0.2522994164896397 0.436920620750296 0  0.315535973195679 0.4367407892472389 0  0.3788897197454 0.4365372769777058 0  0.4423941147338777 0.4363054343709312 0  0.5060890127255253 0.4360413655824226 0  0.5700226682224513 0.4357429032691353 0  0.6342543432439235 0.4354113190565131 0  0.6988576837950145 0.4350541864065494 0  0.763924949809109 0.4346899372135205 0  0.8295719858261416 0.4343546252971421 0  0.8959436959312898 0.4341108791116633 0  0.9632207629262334 0.4340574407673137 0  1.031633434484918 0.4343348917285674 0  0 0.5 0  0.06303552224963346 0.4998598060522016 0  0.1260917868952419 0.4997143300985483 0  0.1891903821336581 0.4995581244465482 0  0.2523546102737059 0.4993854352205859 0  0.3156104671329208 0.4991900810811593 0  0.3789877925592697 0.4989653916526248 0  0.4425217039359516 0.4987042666861947 0  0.5062544987680194 0.4983994703601701 0  0.5702383486581006 0.4980443701746098 0  0.6345393451001206 0.4976344942346445 0  0.6992438424116175 0.4971705496620495 0  0.7644685872444398 0.4966639339442424 0  0.8303767243344121 0.4961461624441543 0  0.8972021633667462 0.4956834486573464 0  0.9652851243771791 0.4953952592751881 0  1.035125480513596 0.4954681691880099 0  0 0.5625 0  0.06302698422025478 0.5623582194429421 0  0.12607458240816 0.5622105808191368 0  0.1891642084308317 0.5620509698696859 0  0.2523190127912525 0.5618727448580455 0  0.3155648750205979 0.5616684619846749 0  0.3789315806198529 0.5614296021262366 0  0.4424543178415821 0.56114633102086 0  0.506175744809605 0.5608073735757458 0  0.570149117047715 0.5604001824782664 0  0.6344434486628433 0.5599117830783368 0  0.699152604074667 0.5593310791187006 0  0.7644118260563262 0.5586541747200633 0  0.8304275653812738 0.557895582393377 0  0.8975288374248948 0.5571096984045197 0  0.9662486630023673 0.5564256988527787 0  1.037443558270852 0.5560862472634958 0  0 0.625 0  0.06299795005932195 0.6248624494365755 0  0.1260155591186469 0.6247187207440374 0  0.1890732028048194 0.6245622947772231 0  0.2521929278822364 0.6243859107581767 0  0.3153993937893386 0.6241811302761632 0  0.3787209765726924 0.6239378230214094 0  0.4421911562082693 0.6236435555017762 0  0.5058504292580331 0.6232828867343666 0  0.5697492747414298 0.622836638865981 0  0.6339533662388629 0.622281377580496 0  0.6985537197830732 0.6215897613430166 0  0.7636876377589936 0.6207334862558213 0  0.8295823092068361 0.6196931688511699 0  0.896641760839422 0.6184852042675643 0  0.9656032882553283 0.6172227863839168 0  1.03777990240587 0.6162110429403074 0  0 0.6875 0  0.06294937875807544 0.6873728001155075 0  0.1259166516045526 0.687239455195874 0  0.188920319745417 0.6870934180459244 0  0.2519804069011809 0.6869272375713733 0  0.3151192920129267 0.6867319870045564 0  0.3783626481516371 0.6864965294223395 0  0.4417405492055202 0.6862065383102681 0  0.5052888737184974 0.6858431686393233 0  0.5690513400793206 0.6853812572705424 0  0.6330831066086285 0.6847869562861723 0  0.6974585614887359 0.6840148945045721 0  0.7622904931341625 0.6830057669754235 0  0.8277793490225674 0.6816882943636917 0  0.8943364928573099 0.6800006366753474 0  0.9628587915943602 0.6779830836025594 0  1.035209847796754 0.6760376418619544 0  0 0.75 0  0.06288304744363553 0.7498892252758294 0  0.1257814694165968 0.7497727631022787 0  0.1887111260568524 0.7496445040103202 0  0.2516891846040631 0.7494973693420309 0  0.314734806636385 0.749322667149677 0  0.3778698733084169 0.7491092202307367 0  0.4411197256204576 0.7488421272844515 0  0.5045138585969883 0.7485009466008163 0  0.5680864800068265 0.748056975997203 0  0.6318769664667147 0.7474691180007926 0  0.6959311142629365 0.7466775370588586 0  0.7603078861108499 0.7455939828813147 0  0.8251106925379704 0.7440879737661696 0  0.8906116332481467 0.7419741853522916 0  0.9576844670372713 0.7390540541221579 0  1.028724882788383 0.7356047300764184 0  0 0.8125 0  0.06280149458165339 0.8124112599718804 0  0.1256151798441308 0.8123177401888309 0  0.188453610415338 0.8122142726060343 0  0.2513303840752463 0.8120947844522604 0  0.3142606720819917 0.811951676017685 0  0.3772617401681954 0.8117749488338706 0  0.4403533730290723 0.8115509178067026 0  0.5035579736248439 0.8112602387198506 0  0.566899799504572 0.8108748024800396 0  0.6304021651805534 0.810352719263973 0  0.6940803241933218 0.8096299738088264 0  0.7579266626439395 0.8086059355614437 0  0.821888855779761 0.8071165390717671 0  0.8858803267588854 0.8048809975287717 0  0.9501028393306564 0.8013998770429931 0  1.017767114798321 0.7959766074069479 0  0 0.875 0  0.0627079213156797 0.8749379967261434 0  0.1254243060188982 0.8748725374120468 0  0.1881578637994762 0.8747998675658355 0  0.2509180441026458 0.8747155306810981 0  0.3137154095149689 0.8746138741773469 0  0.3765619926884601 0.8744873414220187 0  0.4394715460827204 0.8743253999340476 0  0.5024594288737748 0.8741128570499175 0  0.5655414540515584 0.8738271389847514 0  0.6287299336575519 0.8734337951058229 0  0.6920223547158987 0.8728788980356822 0  0.7553709641529942 0.8720756987853546 0  0.8186043329166346 0.8708788401764312 0  0.881237490098922 0.8690221642080226 0  0.9420783021463586 0.865913158907602 0  0.9987477471066868 0.8597703688715873 0  0 0.9375 0  0.06260605742918468 0.9374681197436683 0  0.1252164561328189 0.9374344263550585 0  0.1878356653349531 0.937396944588025 0  0.2504685479776381 0.9373533157861255 0  0.3131205652386153 0.9373005243315985 0  0.3757979819215966 0.9372345003499043 0  0.4385080309417582 0.937149509166
[...]
<PointData  Vectors="f_54"> 
<DataArray  type="Float64"  Name="f_54"  NumberOfComponents="3" format="ascii">0.0000000000000000e+00 0.0000000000000000e+00 0.0000000000000000e+00  0.0000000000000000e+00 0.0000000000000000e+00 0.0000000000000000e+00  0.0000000000000000e+00 0.0000000000000000e+00 0.0000000000000000e+00  0.0000000000000000e+00 0.0000000000000000e+00 0.0000000000000000e+00  0.0000000000000000e+00 0.0000000000000000e+00 0.0000000000000000e+00  0.0000000000000000e+00 0.0000000000000000e+00 0.0000000000000000e+00  0.0000000000000000e+00 0.0000000000000000e+00 0.0000000000000000e+00  0.0000000000000000e+00 0.0000000000000000e+00 0.0000000000000000e+00  0.0000000000000000e+00 0.0000000000000000e+00 0.0000000000000000e+00  0.0000000000000000e+00 0.0000000000000000e+00 0.0000000000000000e+00  0.0000000000000000e+00 0.0000000000000000e+00 0.0000000000000000e+00  0.0000000000000000e+00 0.0000000000000000e+00 0.0000000000000000e+00  0.0000000000000000e+00 0.0000000000000000e+00 0.0000000000000000e+00  0.0000000000000000e+00 0.0000000000000000e+00 0.0000000000000000e+00  0.0000000000000000e+00 0.0000000000000000e+00 0.0000000000000000e+00  0.0000000000000000e+00 0.0000000000000000e+00 0.0000000000000000e+00  0.0000000000000000e+00 0.0000000000000000e+00 0.0000000000000000e+00  0.0000000000000000e+00 0.0000000000000000e+00 0.0000000000000000e+00  -2.2797856764505583e-06 -1.5091830726104772e-07 0.0000000000000000e+00  -4.6049450341416928e-06 -3.0198819797786655e-07 0.0000000000000000e+00  -7.0189957481839581e-06 -4.5292361467414351e-07 0.0000000000000000e+00  -9.5576309986762446e-06 -6.0231086970282260e-07 0.0000000000000000e+00  -1.2243014581738485e-05 -7.4700603681198324e-07 0.0000000000000000e+00  -1.5075577480085427e-05 -8.8154076639545969e-07 0.0000000000000000e+00  -1.8021965962397787e-05 -9.9765995499032296e-07 0.0000000000000000e+00  -2.0997063440123461e-05 -1.0842700168243971e-06 0.0000000000000000e+00  -2.3836421186025290e-05 -1.1283558992136826e-06 0.0000000000000000e+00  -2.6251633233871636e-05 -1.1179497410482424e-06 0.0000000000000000e+00  -2.7751299089104732e-05 -1.0493432245556887e-06 0.0000000000000000e+00  -2.7482424628132236e-05 -9.4355998925074481e-07 0.0000000000000000e+00  -2.3862891778308130e-05 -8.8582760449256313e-07 0.0000000000000000e+00  -1.3598828657717347e-05 -1.1330340559943847e-06 0.0000000000000000e+00  1.1333062163349480e-05 -2.4613392582765367e-06 0.0000000000000000e+00  7.4773515083499626e-05 -7.5739544015857571e-06 0.0000000000000000e+00  0.0000000000000000e+00 0.0000000000000000e+00 0.0000000000000000e+00  -4.5200101781046765e-06 -3.0205871075833094e-07 0.0000000000000000e+00  -9.1351389111239804e-06 -6.0499209912001881e-07 0.0000000000000000e+00  -1.3937365254875240e-05 -9.0881006443102030e-07 0.0000000000000000e+00  -1.9004499152489130e-05 -1.2112737998872394e-06 0.0000000000000000e+00  -2.4389654026737729e-05 -1.5066335312210672e-06 0.0000000000000000e+00  -3.0105935468392413e-05 -1.7842887184732341e-06 0.0000000000000000e+00  -3.6103878105176974e-05 -2.0275486602704661e-06 0.0000000000000000e+00  -4.2238086674520383e-05 -2.2129371268542410e-06 0.0000000000000000e+00  -4.8217480448164532e-05 -2.3109449727125528e-06 0.0000000000000000e+00  -5.3529298006744724e-05 -2.2898945414535428e-06 0.0000000000000000e+00  -5.7317822889103795e-05 -2.1257607443730493e-06 0.0000000000000000e+00  -5.8178760542705797e-05 -1.8223936129893131e-06 0.0000000000000000e+00  -5.3789371209081597e-05 -1.4475599427364808e-06 0.0000000000000000e+00  -4.0230437716975634e-05 -1.1830633398797594e-06 0.0000000000000000e+00  -1.0876840746655652e-05 -1.3267740003119805e-06 0.0000000000000000e+00  4.4229730168988280e-05 -1.8020600336998585e-06 0.0000000000000000e+00  0.0000000000000000e+00 0.0000000000000000e+00 0.0000000000000000e+00  -6.6691587326928495e-06 -4.5256155372775101e-07 0.0000000000000000e+00  -1.3490493215256147e-05 -9.0783351760224884e-07 0.0000000000000000e+00  -2.0612835838550261e-05 -1.3672831190756507e-06 0.0000000000000000e+00  -2.8167401247272441e-05 -1.8290922751193086e-06 0.0000000000000000e+00  -3.6254209150374288e-05 -2.2861807699399904e-06 0.0000000000000000e+00  -4.4921891707974020e-05 -2.7239073641019064e-06 0.0000000000000000e+00  -5.4137648269790374e-05 -3.1175576894249917e-06 0.0000000000000000e+00  -6.3743094428114175e-05 -3.4300351549094805e-06 0.0000000000000000e+00  -7.3390266555973204e-05 -3.6107244404588654e-06 0.0000000000000000e+00  -8.2449874151503295e-05 -3.5974117689030667e-06 0.0000000000000000e+00  -8.9880990861742699e-05 -3.3244907460413621e-06 0.0000000000000000e+00  -9.4049284301042215e-05 -2.7422737477360218e-06 0.0000000000000000e+00  -9.2488846378993163e-05 -1.8531262540290702e-06 0.0000000000000000e+00  -8.1659495241448300e-05 -7.6792859754535747e-07 0.0000000000000000e+00  -5.6990383048886855e-05 2.1982884778377185e-07 0.0000000000000000e+00  -1.4267104676932555e-05 5.0952734544334513e-07 0.0000000000000000e+00  0.0000000000000000e+00 0.0000000000000000e+00 0.0000000000000000e+00  -8.6686900627515413e-06 -6.0045710354301900e-07 0.0000000000000000e+00  -1.7555485529533015e-05 -1.2070563320060123e-06 0.0000000000000000e+00  -2.6876414731603940e-05 -1.8244362338658296e-06 0.0000000000000000e+00  -3.6830501156161781e-05 -2.4531575079047627e-06 0.0000000000000000e+00  -4.7585609847930597e-05 -3.0870337143667076e-06 0.0000000000000000e+00  -5.9256391834638896e-05 -3.7097180336210462e-06 0.0000000000000000e+00  -7.1870531498007093e-05 -4.2904266960892814e-06 0.0000000000000000e+00  -8.5318606527356685e-05 -4.7789328026286207e-06 0.0000000000000000e+00  -9.9282067085350908e-05 -5.1005060606379446e-06 0.0000000000000000e+00  -1.1313374799203710e-04 -5.1525148973977933e-06 0.0000000000000000e+00  -1.2580754176786684e-04 -4.8062166373504073e-06 0.0000000000000000e+00  -1.3564255664206146e-04 -3.9200771535556506e-06 0.0000000000000000e+00  -1.4023298922768255e-04 -2.3747709905915374e-06 0.0000000000000000e+00  -1.3638297240584150e-04 -1.4422314713380602e-07 0.0000000000000000e+00  -1.2041718386047796e-04 2.5799829931881102e-06 0.0000000000000000e+00  -8.9314581424488476e-05 5.1991951743427932e-06 0.0000000000000000e+00  0.0000000000000000e+00 0.0000000000000000e+00 0.0000000000000000e+00  -1.0451743051107428e-05 -7.4220456102240073e-07 0.0000000000000000e+00  -2.1196012102468253e-05 -1.4959249573243310e-06 0.0000000000000000e+00  -3.2526224463723772e-05 -2.2711305416761274e-06 0.0000000000000000e+00  -4.4724284912560288e-05 -3.0734092018902612e-06 0.0000000000000000e+00  -5.8048844695657656e-05 -3.9007950887036836e-06 0.0000000000000000e+00  -7.2714989138969091e-05 -4.7393002165119861e-06 0.0000000000000000e+00  -8.8861035676346699e-05 -5.5566336641756564e-06 0.0000000000000000e+00  -1.0649704557818814e-04 -6.2936456519498262e-06 0.0000000000000000e+00  -1.2542885617430207e-04 -6.8533536046687962e-06 0.0000000000000000e+00  -1.4515190090384552e-04 -7.0883365795310670e-06 0.0000000000000000e+00  -1.6471287792791604e-04 -6.7894497099632386e-06 0.0000000000000000e+00  -1.8254849080936658e-04 -5.6832334625681165e-06 0.0000000000000000e+00  -1.9633588472104909e-04 -3.4534522244269529e-06 0.0000000000000000e+00  -2.0293715621262935e-04 1.8498967577381937e-07 0.0000000000000000e+00  -1.9858484582426804e-04 5.3152330970691861e-06 0.0000000000000000e+00  -1.7945779317333634e-04 1.1494643029941459e-05 0.0000000000000000e+00  0.0000000000000000e+00 0.0000000000000000e+00 0.0000000000000000e+00  -1.1943777117200958e-05 -8.7237499411995282e-07 0.0000000000000000e+00  -2.4260279400693630e-05 -1.7636770241779534e-06 0.0000000000000000e+00  -3.7327838830579660e-05 -2.6915737619536399e-06 0.0000000000000000e+00  -5.1524022219600925e-05 -3.6698306825122200e-06 0.0000000000000000e+00  -6.7219644406084993e-05 -4.7050725609132002e-06 0.0000000000000000e+00  -8.4764362880816179e-05 -5.7916993944185750e-06 0.0000000000000000e+00  -1.0445903805959299e-04 -6.9039200685976152e-06 0.0000000000000000e+00  -1.2650830802384393e-04 -7.9835306905609112e-06 0.0000000000000000e+00  -1.5094502012826606e-04 -8.9217999190063384e-06 0.0000000000000000e+00  -1.7751720297899977e-04 -9.5340150028300200e-06 0.0000000000000000e+00  -2.0553020420600439e-04 -9.5268265911542341e-06 0.0000000000000000e+00  -2.3364521564938121e-04 -8.4634879334937293e-06 0.0000000000000000e+00  -2.5965564237246741e-04 -5.7439009637568912e-06 0.0000000000000000e+00  -2.8029582631152041e-04 -6.3937852004410763e-07 0.0000000000000000e+00  -2.9116227910554789e-04 7.5431841650782211e-06 0.0000000000000000e+00  -2.8676645682208118e-04 1.9060030823300859e-05 0.0000000000000000e+00  0.0000000000000000e+00 0.0000000000000000e+00 0.0000000000000000e+00  -1.3065475935211702e-05 -9.8358611201860636e-07 0.0000000000000000e+00  -2.6584452036753208e-05 -1.9952653242865120e-06 0.0000000000000000e+00  -4.1022319029913369e-05 -3.0625793254660676e-06 0.0000000000000000e+00  -5.6859489556451739e-05 -4.2106903759347810e-06 0.0000000000000000e+00  -7.4594642502582331e-05 -5.4597910505167767e-06 0.0000000000000000e+00  -9.4740922400916448e-05 -6.8203449817684081e-06 0.0000000000000000e+00  -1.1781006589183365e-04 -8.2846171131629463e-06 0.0000000000000000e+00  -1.4427664456544801e-04 -9.8120586389648372e-06 0.0000000000000000e+00  -1.7451082629789608e-04 -1.1304826603678244e-05 0.0000000000000000e+00  -2.0866369878233540e-04 -1.2568171513654403e-05 0.0000000000000000e+00  -2.4648599777345084e-04 -1.3249404620989527e-05 0.0000000000000000e+00  -2.8706330628496717e-04 -1.2751172532599522e-05 0.0000000000000000e+00  -3.2846586877476573e-04 -1.0125929370592452e-05 0.0000000000000000e+00  -3.6734470568153455e-04 -3.9898063947993497e-06 0.0000000000000000e+00  -3.9853856143903679e-04 7.4444313072105161e-06 0.0000000000000000e+00  -4.1469482398172206e-04 2.6039473906720974e-05 0.0000000000000000e+00  0.0000000000000000e+00 0.0000000000000000e+00 0.0000000000000000e+00  -1.3738007603186721e-05 -1.0668077353288537e-06 0.0000000000000000e+00  -2.8003320825849092e-05 -2.1718657017208262e-06 0.0000000000000000e+00  -4.3342530054993664e-05 -3.3540227909115445e-06 0.0000000000000000e+00  -6.0337052449685920e-05 -4.6524198782507726e-06 0.0000000000000000e+00  -7.9618827922029405e-05 -6.1054725999828746e-06 0.0000000000000000e+00  -1.0188207310308355e-04 -7.7478615471605165e-06 0.0000000000000000e+00  -1.2788666103384183e-04 -9.6037469540581030e-06 0.0000000000000000e+00  -1.5844483938877405e-04 -1.1672975839063973e-05 0.0000000000000000e+00  -1.9437669650766294e-04 -1.3904504581114041e-05 0.0000000000000000e+00  -2.3641029744242374e-04 -1.6147010318145518e-05 0.0000000000000000e+00  -2.8499015751047834e-04 -1.8060241082635195e-05 0.0000000000000000e+00  -3.3994706019612158e-04 -1.8963073630969788e-05 0.0000000000000000e+00  -3.9998666186596678e-04 -1.7592085455573133e-05 0.0000000000000000e+00  -4.6199912939837861e-04 -1.1768098946988034e-05 0.0000000000000000e+00  -5.2028614007819146e-04 1.9456684324104104e-06 0.0000000000000000e+00  -5.6581766304399095e-04 2.8364731939046686e-05 0.0000000000000000e+00  0.0000000000000000e+00 0.0000000000000000e+00 0.0000000000000000e+00  -1.3890436389673842e-05 -1.1121303302370816e-06 0.0000000000000000e+00  -2.8365677288567888e-05 -2.2723891010568395e-06 0.0000000000000000e+00  -4.4037523041908543e-05 -3.5310002844519009e-06 0.0000000000000000e+00  -6.1574373503550331e-05 -4.9421183030244603e-06 0.0000000000000000e+00  -8.1731678315917318e-05 -6.5653158367041511e-06 0.0000000000000000e+00  -1.0538365535431612e-04 -8.4659734075533528e-06 0.0000000000000000e+00  -1.3355391119251021e-04 -1.0713106758709944e-05 0.0000000000000000e+00  -1.6743832814741807e-04 -1.3371501595648520e-05 0.0000000000000000e+00  -2.0840526308730332e-04 -1.6481617211914807e-05 0.0000000000000000e+00  -2.5794286502345141e-04 -2.0013827738790436e-05 0.0000000000000000e+00  -3.1749787110582010e-04 -2.3769978403432141e-05 0.0000000000000000e+00  -3.8811458137111190e-04 -2.7180050904737647e-05 0.0000000000000000e+00  -4.6975296579146279e-04 -2.8902016109661519e-05 0.0000000000000000e+00  -5.6020332106687437e-04 -2.6097473650468952e-05 0.0000000000000000e+00  -6.5374560039427061e-04 -1.3317988563097479e-05 0.0000000000000000e+00  -7.4009127334864538e-04 1.8758153207766202e-05 0.0000000000000000e+00  0.0000000000000000e+00 0.0000000000000000e+00 0.0000000000000000e+00  -1.3468708300810807e-05 -1.1100125593891624e-06 0.0000000000000000e+00  -2.7553321808246462e-05 -2.2760823286565631e-06 0.0000000000000000e+00  -4.2903625153412109e-05 -3.5579700775705786e-06 0.0000000000000000e+00  -6.0246575120244829e-05 -5.0234222423350168e-06 0.0000000000000000e+00  -8.0431965407368295e-05 -6.7527738748749612e-06 0.0000000000000000e+00  -1.0448655299409388e-04 -8.8440697079846191e-06 0.0000000000000000e+00  -1.3367833027747657e-04 -1.1418299991986755e-05 0.0000000000000000e+00  -1.6958953414351264e-04 -1.4623183892051509e-05 0.0000000000000000e+00  -2.1418899657883983e-04 -1.8631023811321050e-05 0.0000000000000000e+00  -2.6987593519913958e-04 -2.3618955412888435e-05 0.0000000000000000e+00  -3.3942803476378589e-04 -2.9702153533245875e-05 0.0000000000000000e+00  -4.2571187827458344e-04 -3.6747065248643937e-05 0.0000000000000000e+00  -5.3089760745724868e-04 -4.3889454400586236e-05 0.0000000000000000e+00  -6.5483944757947039e-04 -4.8374728594318383e-05 0.0000000000000000e+00  -7.9262338440825328e-04 -4.3119181213643211e-05 0.0000000000000000e+00  -9.3248595162203967e-04 -1.2913308340159339e-05 0.0000000000000000e+00  0.0000000000000000e+00 0.0000000000000000e+00 0.0000000000000000e+00  -1.2445198904946753e-05 -1.0528996154972709e-06 0.0000000000000000e+00  -2.5501690098933610e-05 -2.1660277858757482e-06 0.0000000000000000e+00  -3.9819295045783838e-05 -3.4046838517816066e-06 0.0000000000000000e+00  -5.6140317708080555e-05 -4.8457439000033132e-06 0.0000000000000000e+00  -7.5358039476243095e-05 -6.5853051579443683e-06 0.0000000000000000e+00  -9.8591828526699320e-05 -8.7488450031717316e-06 0.0000000000000000e+00  -1.2728646495832412e-04 -1.1505138309124738e-05 0.0000000000000000e+00  -1.6334375390089043e-04 -1.5085343184154972e-05 0.0000000000000000e+00  -2.0929148618589193e-04 -1.9808230007634216e-05 0.0000000000000000e+00  -2.6848111852388292e-04 -2.6109720837889314e-05 0.0000000000000000e+00  -3.4526350805075891e-04 -3.4563756527010756e-05 0.0000000000000000e+00  -4.4498148093368578e-04 -4.5841649537954168e-05 0.0000000000000000e+00  -5.7336049428567736e-04 -6.0418358242542561e-05 0.0000000000000000e+00  -7.3440347391431503e-04 -7.7365581492488792e-05 0.0000000000000000e+00  -9.2587153781538303e-04 -9.0259659796345927e-05 0.0000000000000000e+00  -1.1354269324785151e-03 -7.7938834017512846e-05 0.0000000000000000e+00  0.0000000000000000e+00 0.0000000000000000e+00 0.0000000000000000e+00  -1.0827383478816920e-05 -9.3695734467916377e-07 0.0000000000000000e+00  -2.2219076695462286e-05 -1.9330061405189443e-06 0.0000000000000000e+00  -3.4778910529172749e-05 -3.0530497341732538e-06 0.0000000000000000e+00  -4.9208983163598135e-05 -4.3756852662790864e-06 0.0000000000000000e+00  -6.6375088786897011e-05 -6.0029115120771029e-06 0.0000000000000000e+00  -8.7395763783866542e-05 -8.0740637591726353e-06 0.0000000000000000e+00  -1.1376904548842545e-04 -1.0786858079324539e-05 0.0000000000000000e+00  -1.4755728250293731e-04 -1.4430253789901211e-05 0.0000000000000000e+00  -1.9165799738350196e-04 -1.9437053444539413e-05 0.0000000000000000e+00  -2.5019352268553549e-04 -2.6469713093863465e-05 0.0000000000000000e+00  -3.2903684550218172e-04 -3.6561585913389608e-05 0.0000000000000000e+00  -4.3639941191030206e-04 -5.1343562439932308e-05 0.0000000000000000e+00  -5.8306445014919667e-04 -7.3350368179732450e-05 0.0000000000000000e+00  -7.8072759105610439e-04 -1.0603203668916313e-04 0.0000000000000000e+00  -1.0336539443822062e-03 -1.5047926762604342e-04 0.0000000000000000e+00  -1.3288462382404415e-03 -1.8103158316570375e-04 0.0000000000000000e+00  0.0000000000000000e+00 0.0000000000000000e+00 0.0000000000000000e+00  -8.6638953659195324e-06 -7.6354697798464798e-07 0.0000000000000000e+00  -1.7800644996398711e-05 -1.5788801570396337e-06 0.0000000000000000e+00  -2.7918915416363025e-05 -2.5034185770533931e-06 0.0000000000000000e+00  -3.9618603804541467e-05 -3.6081104914865123e-06 0.0000000000000000e+00  -5.3654035432521749e-05 -4.9874225274131547e-06 0.0000000000000000e+00  -7.1023815807965819e-05 -6.7742608563928191e-06 0.0000000000000000e+00  -9.3105888189814621e-05 -9.1635323800918681e-06 0.0000000000000000e+00  -1.2186846885428606e-04 -1.2450867991502878e-05 0.0000000000000000e+00  -1.6020847887803660e-04 -1.7098599774844469e-05 0.0000000000000000e+00  -2.1250350267577490e-04 -2.3852835917852998e-05 0.0000000000000000e+00  -2.8551247013353922e-04 -3.3962568026620082e-05 0.0000000000000000e+00  -3.8979946160477141e-04 -4.9620492016350502e-05 0.0000000000000000e+00  -5.4173982787168121e-04 -7.4931728139514278e-05 0.0000000000000000e+00  -7.6523833423677889e-04 -1.1820881830540323e-04 0.0000000000000000e+00  -1.0868489273659731e-03 -1.9723769499532456e-04 0.0000000000000000e+00  -1.4607523371275792e-03 -3.4182159545494823e-04 0.0000000000000000e+00  0.0000000000000000e+00 0.0000000000000000e+00 0.0000000000000000e+00  -6.0462509097084361e-06 -5.4003132240998653e-07 0.0000000000000000e+00  -1.2433258265458599e-05 -1.1185429321198948e-06 0.0000000000000000e+00  -1.9528971183517125e-05 -1.7784639117874059e-06 0.0000000000000000e+00  -2.7771749124782066e-05 -2.5735331103138842e-06 0.0000000000000000e+00  -3.7720523264147864e-05 -3.5764527548789203e-06 0.0000000000000000e+00  -5.0128339453246137e-05 -4.8912936528967160e-06 0.0000000000000000e+00  -6.6057224936970235e-05 -6.6734062212178424e-06 0.0000000000000000e+00  -8.7066544820112049e-05 -9.1625294319733998e-06 0.0000000000000000e+00  -1.1553510728693820e-04 -1.2739371720531529e-05 0.0000000000000000e+00  -1.5523375988299161e-04 -1.8024864480014373e-05 0.0000000000000000e+00  -2.1237956794793015e-04 -2.6060432952349070e-05 0.0000000000000000e+00  -2.9762909604269592e-04 -3.8658294632537146e-05 0.0000000000000000e+00  -4.2988276237983214e-04 -5.9192355153861031e-05 0.0000000000000000e+00  -6.4343272044214137e-04 -9.4923004435871415e-05 0.0000000000000000e+00  -1.0014046775345471e-03 -1.6593352774212170e-04 0.0000000000000000e+00  -1.6291824940290963e-03 -3.4215410179187083e-04 0.0000000000000000e+00  0.0000000000000000e+00 0.0000000000000000e+00 0.0000000000000000e+00  -3.1049947884864206e-06 -2.7959767477304634e-07 0.0000000000000000e+00  -6.3880732215680364e-06 -5.7966773244948098e-07 0.0000000000000000e+00  -1.0041908320226199e-05 -9.2312034144579343e-07 0.0000000000000000e+00  -1.4297323746962041e-05 -1.3388253991086325e-06 0.0000000000000000e+00  -1.9450896287876093e-05 -1.8661435155814472e-06 0.0000000000000000e+00  -2.5906123835568077e-05 -2.5618520164575604e-06 0.0000000000000000e+00  -3.4239138660081737e-05 -3.5112538239935629e-06 0.0000000000000000e+00  -4.5309532506018456e-05 -4.8464187810640053e-06 0.0000000000000000e+00  -6.0457057381091748e-05 -6.7761357578487493e-06 0.0000000000000000e+00  -8.1869162680725023e-05 -9.6330322422610774e-06 0.0000000000000000e+00  -1.1330382670621853e-04 -1.3935938884041440e-05 0.0000000000000000e+00  -1.6157292600147295e-04 -2.0413206608461431e-05 0.0000000000000000e+00  -2.3959987268942193e-04 -2.9671101171070041e-05 0.0000000000000000e+00  -3.7185932880683342e-04 -4.0085943781257172e-05 0.0000000000000000e+00  -5.9627188847891002e-04 -3.9387595132295808e-05 0.0000000000000000e+00  -9.1818229846614267e-04 8.6420658379483096e-06 0.0000000000000000e+00  0.0000000000000000e+00 0.0000000000000000e+00 0.0000000000000000e+00  0.0000000000000000e+00 0.0000000000000000e+00 0.0000000000000000e+00  0.0000000000000000e+00 0.0000000000000000e+00 0.0000000000000000e+00  0.0000000000000000e+00 0.0000000000000000e+00 0.0000000000000000e+00  0.0000000000000000e+00 0.0000000000000000e+00 0.0000000000000000e+00  0.0000000000000000e+00 0.000000000000000