<?xml version="1.0"?>
<VTKFile type="UnstructuredGrid"  version="0.1"  >
<UnstructuredGrid>
<Piece  NumberOfPoints="289" NumberOfCells="512">
<Points>
<DataArray  type="Float64"  NumberOfComponents="3"  format="ascii">0 0 0  0.0625 0 0  0.125 0 0  0.1875 0 0  0.25 0 0  0.3125 0 0  0.375 0 0  0.4375 0 0  0.5 0 0  0.5625 0 0  0.625 0 0  0.6875 0 0  0.75 0 0  0.8125 0 0  0.875 0 0  0.9375 0 0  1 0 0  0 0.0625 0  0.06245703796029472 0.06249592510046339 0  0.1249133154944046 0.06249177696356275 0  0.1873681494573068 0.06248748953245719 0  0.2498210423052435 0.06248301275462204 0  0.3122718148880489 0.06247832319159366 0  0.374720792578674 0.062473437508008 0  0.4371690724403726 0.06246842913745712 0  0.4996189129679309 0.06246344738502631 0  0.5620743182717892 0.06245873632731194 0  0.6245419620172195 0.06245464782937393 0  0.6870327891934309 0.062451638989355 0  0.7495651751523746 0.06245024107951944 0  0.8121721432864537 0.06245099044705696 0  0.8749203344620069 0.06245433793496834 0  0.9379662186861704 0.06246066362019004 0  1.00174086906965 0.06247146147914211 0  0 0.125 0  0.06241486437840334 0.1249919207214918 0  0.1248281262660561 0.1249836872225728 0  0.1872383237504382 0.1249751585929399 0  0.2496443350699177 0.1249662238661458 0  0.3120456247632873 0.1249568224758218 0  0.3744425904363177 0.1249469710095312 0  0.4368370595906685 0.1249367974126995 0  0.4992330049539169 0.1249265820465831 0  0.5616375827176562 0.1249168014874147 0  0.6240626723494578 0.124908164729327 0  0.6865272577626517 0.1249016220170065 0  0.7490613363069352 0.1248983162080426 0  0.8117127176732528 0.1248994493612986 0  0.8745589680978092 0.1249061122252012 0  0.9377254404348521 0.1249194961866081 0  1.001390950393706 0.1249432461421417 0  0 0.1875 0  0.06237433247723707 0.1874880682166126 0  0.1247460682430429 0.1874758870780265 0  0.1871127872401249 0.1874632244919326 0  0.2494725037026509 0.1874498878814977 0  0.3118239883690641 0.1874357526352859 0  0.3741672285789779 0.187420801080606 0  0.4365040899730392 0.187405175025568 0  0.4988392592808639 0.1873892432451256 0  0.5611815683593433 0.1873736811110302 0  0.6235458253534392 0.187359550654846 0  0.6859553030299503 0.1873483519497926 0  0.7484450154076641 0.1873419836882593 0  0.8110656698467067 0.1873424835042358 0  0.8738870616193118 0.1873512464941152 0  0.9369957747710039 0.1873668344609351 0  1.000471582963631 0.1873781451669492 0  0 0.25 0  0.06233644733987962 0.2499844630756683 0  0.124669110104973 0.2499685633273218 0  0.1869943786280696 0.2499519557670411 0  0.2493090877380554 0.2499343375337579 0  0.3116108642187535 0.2499154808871982 0  0.3738986387490785 0.2498952815103099 0  0.4361733966243092 0.2498738283168931 0  0.4984392536277181 0.2498515007153077 0  0.5607049484257638 0.2498290967006631 0  0.6229858245255335 0.2498079872343286 0  0.6853062960933828 0.2497902735762207 0  0.7477025689433658 0.2497788850167818 0  0.8102248392997241 0.2497774804818026 0  0.8729369781420121 0.2497898980296844 0  0.9359094385743028 0.2498187971374551 0  0.9991984500181278 0.2498636529297837 0  0 0.3125 0  0.06230240511391343 0.3124812190301942 0  0.1245996430285535 0.3124619427049676 0  0.1868866747203592 0.3124416895491374 0  0.2491588156027492 0.3124200132175561 0  0.3114120475544223 0.3123965344905674 0  0.3736435109636713 0.3123709929231923 0  0.4358522622757267 0.3123433283945066 0  0.4980403982094792 0.3123138055669979 0  0.5602146532422446 0.3122831963268038 0  0.6223885501430446 0.3122530338061202 0  0.6845850806847747 0.3122259403178163 0  0.7468396379165521 0.3122059983275815 0  0.8092023996574211 0.312199059184054 0  0.8717384837041395 0.3122127500376582 0  0.934523136874198 0.3122557636787853 0  0.99762908357389 0.312335919721151 0  0 0.375 0  0.0622735920187605 0.3749784686951437 0  0.1245404864328502 0.3749562943415893 0  0.1867940191443808 0.3749328384787216 0  0.2490276823579471 0.3749074790894558 0  0.3112353333976016 0.3748796338389571 0  0.3734115845287717 0.3748488051090047 0  0.4355524715034657 0.3748146608613919 0  0.4976565284360115 0.3747771723310165 0  0.5597264248932777 0.3747368391676176 0  0.6217713292060254 0.374695043838434 0  0.6838101110726742 0.3746545848687802 0  0.7458753175962708 0.3746204284686292 0  0.8080174546215819 0.3746006573730459 0  0.8703084131988631 0.3746074232393957 0  0.9328420344924158 0.3746573411696776 0  0.995729428711349 0.3747701468766395 0  0 0.4375 0  0.06225153598348016 0.4374763595905636 0  0.1244947944908899 0.4374519226335334 0  0.1867213914090449 0.4374258824896651 0  0.2489227960150064 0.4373974180363814 0  0.3110903653215928 0.4373656988446878 0  0.3732155379887137 0.4373299099290389 0  0.4352902934012211 0.437289311695768 0  0.4973080339716182 0.4372433617883479 0  0.559265119799718 0.4371919439876404 0  0.6211633684765711 0.4371357783205883 0  0.6830139039713808 0.4370771273034619 0  0.7448427324999174 0.4370209573007813 0  0.8066982091434747 0.4369767231512569 0  0.8686599331750677 0.4369608115399183 0  0.9308473937965146 0.4369991838151848 0  0.9934250724353633 0.4371286192624587 0  0 0.5 0  0.06223780815439567 0.4999750447426053 0  0.1244658565521294 0.4999491485003834 0  0.1866741027797099 0.499921341252084 0  0.2488519687677086 0.4998905973617087 0  0.31098813312133 0.4998558136024092 0  0.3730704286362896 0.4998157984371517 0  0.4350859433680279 0.4997692853395384 0  0.4970214990501413 0.4997149957182807 0  0.5588648035328752 0.499651801618228 0  0.6206067626176357 0.4995790845518859 0  0.6822457000409653 0.4994974695087923 0  0.7437945367636259 0.4994102483739385 0  0.8052921605754046 0.4993259877872333 0  0.866819845073869 0.499262934587642 0  0.928521858043366 0.4992554960771349 0  0.9906256634918208 0.4993613985339898 0  0 0.5625 0  0.06223387712695914 0.5624746678341164 0  0.1244567953579097 0.5624482785456654 0  0.1866573196877527 0.5624197252841664 0  0.2488230429578516 0.5623877995528888 0  0.3109400852299085 0.5623511359872664 0  0.3729926028286125 0.5623081538767631 0  0.4349623698580049 0.5622569994771384 0  0.4968285802339358 0.5621955025330609 0  0.5585681799950787 0.5621211823371135 0  0.6201573337689017 0.5620313887490721 0  0.6815751338435784 0.5619237749098548 0  0.7428114466525011 0.5617975342690347 0  0.803881799720191 0.5616562930021203 0  0.864852889786609 0.5615142917166116 0  0.9258808522675498 0.5614081750932204 0  0.9872572682007137 0.5614155211406221 0  0 0.625 0  0.06224092607522498 0.6249753440605449 0  0.1244701816651643 0.6249495642066289 0  0.1866754371132537 0.6249214680762327 0  0.24884296778254 0.6248897190403182 0  0.3109568446529291 0.6248527477642085 0  0.3729979994429739 0.6248086424091013 0  0.43494315347558 0.6247550077947943 0  0.4967636645513003 0.6246887833711298 0  0.5584244998435022 0.6246060148830141 0  0.6198838818931112 0.6245015990500199 0  0.6810948598723543 0.6243691047156493 0  0.7420114310747349 0.6242010271397526 0  0.8026042559778966 0.6239905254358483 0  0.8628944786907334 0.6237373914705637 0  0.9230165419557554 0.6234643814182734 0  0.9833139553285645 0.6232535062245429 0  0 0.6875 0  0.06225965192575688 0.6874771392465802 0  0.1245076031321629 0.6874531562025342 0  0.1867313561610022 0.6874268475634777 0  0.2489166894206652 0.6873968362565751 0  0.3110465787608359 0.6873614580309741 0  0.3730998375638068 0.6873186103890961 0  0.4350493557646646 0.6872655399110975 0  0.4968598205900239 0.6871985300278372 0  0.5584848647813316 0.6871124276719713 0  0.6198638219422629 0.6869999113222337 0  0.6809189370698716 0.6868503657427756 0  0.7415555826394442 0.6866482687078705 0  0.8016720179030172 0.686371453738678 0  0.8611936132761366 0.6859917197258817 0  0.9201602546384453 0.6854876760060429 0  0.9789006784303842 0.6848978883473145 0  0 0.75 0  0.06229007516789564 0.7499800509735929 0  0.1245692469763694 0.7499590625297929 0  0.1868257598052224 0.7499359113093548 0  0.2490459846617652 0.7499092921223141 0  0.3112131813872488 0.7498775955082911 0  0.3733058417441089 0.7498387394581955 0  0.4352953740185769 0.7497899235493989 0  0.4971427928494098 0.7497272506159374 0  0.5587939583930606 0.749645113826765 0  0.6201728201720209 0.749535146948363 0  0.681172269082297 0.7493843210223352 0  0.7416432638313997 0.7491713307477184 0  0.8013869498039443 0.748859666678177 0  0.8601674845118046 0.7483854243388098 0  0.9177999882830544 0.7476443161991753 0  0.9744399928200652 0.7465385003344772 0  0 0.8125 0  0.06233139620762399 0.8124839959195314 0  0.1246535743938948 0.8124671195847154 0  0.1869565194034498 0.8124484231431116 0  0.2492284438426408 0.8124267942739267 0  0.3114545676986964 0.8124008444771043 0  0.3736154122033292 0.8123687550306617 0  0.4356842847103644 0.8123280526486566 0  0.4976234358948333 0.8122752679008974 0  0.5593780367437035 0.8122053893341643 0  0.6208665651087271 0.8121109305352152 0  0.6819653120219239 0.8119801710008236 0  0.7424835734151896 0.811793385246421 0  0.8021257945274048 0.8115136051380669 0  0.8604440029843854 0.8110614776613793 0  0.9168314744219093 0.8102422516634785 0  0.9708749942109475 0.8085226516678297 0  0 0.875 0  0.0623819356647565 0.8749888069066332 0  0.1247571713270322 0.8749769845778328 0  0.1871183855935852 0.8749638470155289 0  0.2494568645333021 0.8749485846786832 0  0.3117615138516014 0.8749301812049991 0  0.3740174349857833 0.8749073007356196 0  0.4362037469758361 0.8748781305980229 0  0.4982901055996426 0.8748401611679354 0  0.5602309324434359 0.8747898865971349 0  0.6219555076611922 0.8747224273641856 0  0.6833503338879319 0.874631125648863 0  0.7442264471636382 0.8745072349057089 0  0.804255893252939 0.8743396114307341 0  0.8628416856658692 0.8741118212684482 0  0.9188436339996371 0.8737785570350641 0  0.9700604362675747 0.8731093213903056 0  0 0.9375 0  0.06243918810854948 0.9374942413009042 0  0.1248748456162804 0.9374881531060757 0  0.1873031005186989 0.9374813756528924 0  0.2497193120610987 0.9374734834036282 0  0.3121175153463911 0.9374639413441072 0  0.3744896057835881 0.9374520475658873 0  0.4368240638192
[...]
<PointData  Vectors="f_54"> 
<DataArray  type="Float64"  Name="f_54"  NumberOfComponents="3" format="ascii">0.0000000000000000e+00 0.0000000000000000e+00 0.0000000000000000e+00  0.0000000000000000e+00 0.0000000000000000e+00 0.0000000000000000e+00  0.0000000000000000e+00 0.0000000000000000e+00 0.0000000000000000e+00  0.0000000000000000e+00 0.0000000000000000e+00 0.0000000000000000e+00  0.0000000000000000e+00 0.0000000000000000e+00 0.0000000000000000e+00  0.0000000000000000e+00 0.0000000000000000e+00 0.0000000000000000e+00  0.0000000000000000e+00 0.0000000000000000e+00 0.0000000000000000e+00  0.0000000000000000e+00 0.0000000000000000e+00 0.0000000000000000e+00  0.0000000000000000e+00 0.0000000000000000e+00 0.0000000000000000e+00  0.0000000000000000e+00 0.0000000000000000e+00 0.0000000000000000e+00  0.0000000000000000e+00 0.0000000000000000e+00 0.0000000000000000e+00  0.0000000000000000e+00 0.0000000000000000e+00 0.0000000000000000e+00  0.0000000000000000e+00 0.0000000000000000e+00 0.0000000000000000e+00  0.0000000000000000e+00 0.0000000000000000e+00 0.0000000000000000e+00  0.0000000000000000e+00 0.0000000000000000e+00 0.0000000000000000e+00  0.0000000000000000e+00 0.0000000000000000e+00 0.0000000000000000e+00  0.0000000000000000e+00 0.0000000000000000e+00 0.0000000000000000e+00  0.0000000000000000e+00 0.0000000000000000e+00 0.0000000000000000e+00  -3.7497498822829168e-06 -1.4512918962854575e-07 0.0000000000000000e+00  -7.6174999203753746e-06 -2.9427898937741819e-07 0.0000000000000000e+00  -1.1722884073395205e-05 -4.5136743938985636e-07 0.0000000000000000e+00  -1.6187788582942296e-05 -6.2002713154037266e-07 0.0000000000000000e+00  -2.1136937893912754e-05 -8.0333216851493770e-07 0.0000000000000000e+00  -2.6697940544873374e-05 -1.0033496568953406e-06 0.0000000000000000e+00  -3.3001006494642455e-05 -1.2204284838878926e-06 0.0000000000000000e+00  -4.0179377966042575e-05 -1.4521159056947782e-06 0.0000000000000000e+00  -4.8373676461064938e-05 -1.6915612452662004e-06 0.0000000000000000e+00  -5.7749050844835428e-05 -1.9251885019462039e-06 0.0000000000000000e+00  -6.8549617420625582e-05 -2.1291147541786287e-06 0.0000000000000000e+00  -8.1260486857019019e-05 -2.2624734180441294e-06 0.0000000000000000e+00  -9.7093263725485555e-05 -2.2501199043785768e-06 0.0000000000000000e+00  -1.1951472240490955e-04 -1.9224866696234104e-06 0.0000000000000000e+00  -1.5944599566665018e-04 -7.6903256383521899e-07 0.0000000000000000e+00  -2.5489308102205540e-04 3.1820124102755789e-06 0.0000000000000000e+00  0.0000000000000000e+00 0.0000000000000000e+00 0.0000000000000000e+00  -7.3757490311727871e-06 -2.8601570024318685e-07 0.0000000000000000e+00  -1.4985685628542108e-05 -5.8017061631367970e-07 0.0000000000000000e+00  -2.3067425867071132e-05 -8.9044701041669959e-07 0.0000000000000000e+00  -3.1863491384249577e-05 -1.2243637906857994e-06 0.0000000000000000e+00  -4.1622590154932534e-05 -1.5885027704328408e-06 0.0000000000000000e+00  -5.2599553459277678e-05 -1.9877053426012419e-06 0.0000000000000000e+00  -6.5053860191055201e-05 -2.4237707012079829e-06 0.0000000000000000e+00  -7.9247542309647813e-05 -2.8934461349892049e-06 0.0000000000000000e+00  -9.5445413175226283e-05 -3.3854706822871660e-06 0.0000000000000000e+00  -1.1392559347384281e-04 -3.8764473637890407e-06 0.0000000000000000e+00  -1.3501959906697138e-04 -4.3254592379141651e-06 0.0000000000000000e+00  -1.5922503204805869e-04 -4.6679450378050485e-06 0.0000000000000000e+00  -1.8747605393869770e-04 -4.8121818689140122e-06 0.0000000000000000e+00  -2.2168354758826024e-04 -4.6567421223409798e-06 0.0000000000000000e+00  -2.6532685465454952e-04 -4.2305224016514664e-06 0.0000000000000000e+00  -3.2089784242308545e-04 -4.5268656232624372e-06 0.0000000000000000e+00  0.0000000000000000e+00 0.0000000000000000e+00 0.0000000000000000e+00  -1.0761352844138180e-05 -4.1852333750061495e-07 0.0000000000000000e+00  -2.1869819309710638e-05 -8.4946990247272195e-07 0.0000000000000000e+00  -3.3678101328684516e-05 -1.3051397029970160e-06 0.0000000000000000e+00  -4.6547372386584568e-05 -1.7973891543742380e-06 0.0000000000000000e+00  -6.0849636369394869e-05 -2.3370906495296589e-06 0.0000000000000000e+00  -7.6967675574830246e-05 -2.9331481624195608e-06 0.0000000000000000e+00  -9.5291721593203301e-05 -3.5908232721310916e-06 0.0000000000000000e+00  -1.1621216624905542e-04 -4.3090509502083507e-06 0.0000000000000000e+00  -1.4010820897210726e-04 -5.0763613258289755e-06 0.0000000000000000e+00  -1.6733346569587090e-04 -5.8650348018822332e-06 0.0000000000000000e+00  -1.9820067520974491e-04 -6.6233451768052261e-06 0.0000000000000000e+00  -2.3296469041331823e-04 -7.2664774386198057e-06 0.0000000000000000e+00  -2.7177860680654509e-04 -7.6683519547990300e-06 0.0000000000000000e+00  -3.1449082104326214e-04 -7.6582831190152147e-06 0.0000000000000000e+00  -3.5978110496753926e-04 -7.0134551031669402e-06 0.0000000000000000e+00  -4.0217949053141704e-04 -5.2897275604379749e-06 0.0000000000000000e+00  0.0000000000000000e+00 0.0000000000000000e+00 0.0000000000000000e+00  -1.3793222097111757e-05 -5.3835163893326833e-07 0.0000000000000000e+00  -2.8041294909123199e-05 -1.0935507326178449e-06 0.0000000000000000e+00  -4.3207399592109376e-05 -1.6824689778224036e-06 0.0000000000000000e+00  -5.9768236210166404e-05 -2.3218132181616781e-06 0.0000000000000000e+00  -7.8218309197990252e-05 -3.0277018161628815e-06 0.0000000000000000e+00  -9.9070786658226039e-05 -3.8147470970344727e-06 0.0000000000000000e+00  -1.2285311466162747e-04 -4.6943348337898706e-06 0.0000000000000000e+00  -1.5009489217499982e-04 -5.6716570391829608e-06 0.0000000000000000e+00  -1.8130440806045947e-04 -6.7408917883272101e-06 0.0000000000000000e+00  -2.1692809633261332e-04 -7.8777823103235697e-06 0.0000000000000000e+00  -2.5728220841618568e-04 -9.0288795565628424e-06 0.0000000000000000e+00  -3.0243347889596949e-04 -1.0097162066223611e-05 0.0000000000000000e+00  -3.5197406090242884e-04 -1.0925122412384767e-05 0.0000000000000000e+00  -4.0456353191429916e-04 -1.1279353883123241e-05 0.0000000000000000e+00  -4.5697922989072445e-04 -1.0846685075807200e-05 0.0000000000000000e+00  -5.0233711308389311e-04 -9.2781297948292406e-06 0.0000000000000000e+00  0.0000000000000000e+00 0.0000000000000000e+00 0.0000000000000000e+00  -1.6363304462466603e-05 -6.4106244307434399e-07 0.0000000000000000e+00  -3.3281346727794549e-05 -1.3033918637072841e-06 0.0000000000000000e+00  -5.1320690855235740e-05 -2.0085449862408685e-06 0.0000000000000000e+00  -7.1068422217024206e-05 -2.7784686252666999e-06 0.0000000000000000e+00  -9.3139699493094771e-05 -3.6354042559414350e-06 0.0000000000000000e+00  -1.1818134592346507e-04 -4.6013448791593694e-06 0.0000000000000000e+00  -1.4686896783632446e-04 -5.6967107538784201e-06 0.0000000000000000e+00  -1.7989377264899603e-04 -6.9377044377469725e-06 0.0000000000000000e+00  -2.1793310059269803e-04 -8.3314927973909258e-06 0.0000000000000000e+00  -2.6159501865439443e-04 -9.8679332038540331e-06 0.0000000000000000e+00  -3.1132086684595219e-04 -1.1506069695371769e-05 0.0000000000000000e+00  -3.6721816036810599e-04 -1.3153314976790455e-05 0.0000000000000000e+00  -4.2877691838118730e-04 -1.4635773945349672e-05 0.0000000000000000e+00  -4.9439618858568713e-04 -1.5661111224046250e-05 0.0000000000000000e+00  -5.6063705806477326e-04 -1.5784129470954154e-05 0.0000000000000000e+00  -6.2121951315467934e-04 -1.4406876542263261e-05 0.0000000000000000e+00  0.0000000000000000e+00 0.0000000000000000e+00 0.0000000000000000e+00  -1.8371533468774768e-05 -7.2222605330445435e-07 0.0000000000000000e+00  -3.7386252352965114e-05 -1.4698638578714035e-06 0.0000000000000000e+00  -5.7703459433874198e-05 -2.2689751411841739e-06 0.0000000000000000e+00  -8.0012102126374325e-05 -3.1467999800892947e-06 0.0000000000000000e+00  -1.0504323072456734e-04 -4.1321916386679994e-06 0.0000000000000000e+00  -1.3357878689757951e-04 -5.2557748093729106e-06 0.0000000000000000e+00  -1.6645404308568835e-04 -6.5495476178260350e-06 0.0000000000000000e+00  -2.0454940156768635e-04 -8.0453960674747581e-06 0.0000000000000000e+00  -2.4876471078213075e-04 -9.7715358138313194e-06 0.0000000000000000e+00  -2.9996528757606200e-04 -1.1745119041989694e-05 0.0000000000000000e+00  -3.5888284108829730e-04 -1.3958013348454272e-05 0.0000000000000000e+00  -4.2594606679976994e-04 -1.6351058823404409e-05 0.0000000000000000e+00  -5.0100586104361033e-04 -1.8770385419623850e-05 0.0000000000000000e+00  -5.8291503357217730e-04 -2.0899261701649152e-05 0.0000000000000000e+00  -6.6894136198835915e-04 -2.2164151031890929e-05 0.0000000000000000e+00  -7.5407834273382162e-04 -2.1628607573991413e-05 0.0000000000000000e+00  0.0000000000000000e+00 0.0000000000000000e+00 0.0000000000000000e+00  -1.9729431497296475e-05 -7.7769233023360206e-07 0.0000000000000000e+00  -4.0174491624940314e-05 -1.5842942345429149e-06 0.0000000000000000e+00  -6.2071851505806833e-05 -2.4497663572038504e-06 0.0000000000000000e+00  -8.6198748576741261e-05 -3.4061557042790837e-06 0.0000000000000000e+00  -1.1339193364773143e-04 -4.4886982314506638e-06 0.0000000000000000e+00  -1.4456422404939150e-04 -5.7369453535177359e-06 0.0000000000000000e+00  -1.8071643703081362e-04 -7.1958025095271411e-06 0.0000000000000000e+00  -2.2294088711852797e-04 -8.9161518069037826e-06 0.0000000000000000e+00  -2.7241014255197619e-04 -1.0954252424835214e-05 0.0000000000000000e+00  -3.3034098571620027e-04 -1.3368114854702119e-05 0.0000000000000000e+00  -3.9791816542713437e-04 -1.6207098743185228e-05 0.0000000000000000e+00  -4.7615557995167346e-04 -1.9487503497977654e-05 0.0000000000000000e+00  -5.6566527787079801e-04 -2.3141482683628815e-05 0.0000000000000000e+00  -6.6630162871318460e-04 -2.6920115696878713e-05 0.0000000000000000e+00  -7.7665968891741212e-04 -3.0228846097228646e-05 0.0000000000000000e+00  -8.9344834691939710e-04 -3.1887215788751913e-05 0.0000000000000000e+00  0.0000000000000000e+00 0.0000000000000000e+00 0.0000000000000000e+00  -2.0364658670239722e-05 -8.0396349495073432e-07 0.0000000000000000e+00  -4.1496022497426194e-05 -1.6392676124111919e-06 0.0000000000000000e+00  -6.4186998283429742e-05 -2.5386663520917064e-06 0.0000000000000000e+00  -8.9282881179253890e-05 -3.5378491186705798e-06 0.0000000000000000e+00  -1.1770788487979634e-04 -4.6772187585017861e-06 0.0000000000000000e+00  -1.5049149076778095e-04 -6.0040780824542864e-06 0.0000000000000000e+00  -1.8879343689578187e-04 -7.5753977352248579e-06 0.0000000000000000e+00  -2.3392486651827301e-04 -9.4612888458925182e-06 0.0000000000000000e+00  -2.8736105348966612e-04 -1.1749045276721907e-05 0.0000000000000000e+00  -3.5073784370544448e-04 -1.4546811432085726e-05 0.0000000000000000e+00  -4.2581903667771341e-04 -1.7983837121052386e-05 0.0000000000000000e+00  -5.1441493591773116e-04 -2.2199480765142722e-05 0.0000000000000000e+00  -6.1822317025566936e-04 -2.7303325577201296e-05 0.0000000000000000e+00  -7.3855311687652427e-04 -3.3271656153719134e-05 0.0000000000000000e+00  -8.7589055824069872e-04 -3.9723285159440683e-05 0.0000000000000000e+00  -1.0292709462946541e-03 -4.5509209546575839e-05 0.0000000000000000e+00  0.0000000000000000e+00 0.0000000000000000e+00 0.0000000000000000e+00  -2.0226329307713228e-05 -7.9861368655728432e-07 0.0000000000000000e+00  -4.1243355031617181e-05 -1.6295463775552354e-06 0.0000000000000000e+00  -6.3872743314706879e-05 -2.5267646397588067e-06 0.0000000000000000e+00  -8.8999828049521644e-05 -3.5277490846981863e-06 0.0000000000000000e+00  -1.1760791271623676e-04 -4.6757735520994086e-06 0.0000000000000000e+00  -1.5081529741382875e-04 -6.0229502945331540e-06 0.0000000000000000e+00  -1.8991537778022694e-04 -7.6345519869160312e-06 0.0000000000000000e+00  -2.3641939001692853e-04 -9.5953711011624734e-06 0.0000000000000000e+00  -2.9209997133400480e-04 -1.2019153890120097e-05 0.0000000000000000e+00  -3.5903124752739783e-04 -1.5062209055394013e-05 0.0000000000000000e+00  -4.3961697824605809e-04 -1.8941373028882239e-05 0.0000000000000000e+00  -5.3659130123905930e-04 -2.3952570253817064e-05 0.0000000000000000e+00  -6.5296510403996830e-04 -3.0474491681641670e-05 0.0000000000000000e+00  -7.9187289757039192e-04 -3.8913214227370481e-05 0.0000000000000000e+00  -9.5625152025929265e-04 -4.9486065445164845e-05 0.0000000000000000e+00  -1.1482790366045509e-03 -6.1663633189494051e-05 0.0000000000000000e+00  0.0000000000000000e+00 0.0000000000000000e+00 0.0000000000000000e+00  -1.9290660902091456e-05 -7.6067328436601421e-07 0.0000000000000000e+00  -3.9363538439085265e-05 -1.5529317447203966e-06 0.0000000000000000e+00  -6.1035410233421575e-05 -2.4100426043722716e-06 0.0000000000000000e+00  -8.5195619288554194e-05 -3.3689139983687789e-06 0.0000000000000000e+00  -1.1284710104978163e-04 -4.4725153174906010e-06 0.0000000000000000e+00  -1.4515331426105552e-04 -5.7732323287376975e-06 0.0000000000000000e+00  -1.8349322935163093e-04 -7.3379120894310252e-06 0.0000000000000000e+00  -2.2952649202024025e-04 -9.2559339663022869e-06 0.0000000000000000e+00  -2.8527049612375027e-04 -1.1652655971339787e-05 0.0000000000000000e+00  -3.5318997852513609e-04 -1.4712194124101108e-05 0.0000000000000000e+00  -4.3629720072333464e-04 -1.8715575928515459e-05 0.0000000000000000e+00  -5.3825559133882802e-04 -2.4101488517411248e-05 0.0000000000000000e+00  -6.6346961837260559e-04 -3.1551668063942413e-05 0.0000000000000000e+00  -8.1712374220099760e-04 -4.2074925578957029e-05 0.0000000000000000e+00  -1.0050908402037325e-03 -5.6972429336816502e-05 0.0000000000000000e+00  -1.2335259038526304e-03 -7.7347562925018397e-05 0.0000000000000000e+00  0.0000000000000000e+00 0.0000000000000000e+00 0.0000000000000000e+00  -1.7566279216027890e-05 -6.9088541823539624e-07 0.0000000000000000e+00  -3.5869637968473966e-05 -1.4108522096009897e-06 0.0000000000000000e+00  -5.5683295392782570e-05 -2.1904764570728919e-06 0.0000000000000000e+00  -7.7857573375191629e-05 -3.0635787001246667e-06 0.0000000000000000e+00  -1.0336519570434284e-04 -4.0693189851100405e-06 0.0000000000000000e+00  -1.3335537211998862e-04 -5.2550589901743486e-06 0.0000000000000000e+00  -1.6922061461809390e-04 -6.6807012252407326e-06 0.0000000000000000e+00  -2.1268105816283695e-04 -8.4259373604026541e-06 0.0000000000000000e+00  -2.6589193575868065e-04 -1.0603366451822356e-05 0.0000000000000000e+00  -3.3158053839203630e-04 -1.3383588476068638e-05 0.0000000000000000e+00  -4.1321904847609666e-04 -1.7044516440997360e-05 0.0000000000000000e+00  -5.1523859960841772e-04 -2.2068006554571321e-05 0.0000000000000000e+00  -6.4328803605978222e-04 -2.9322294768950403e-05 0.0000000000000000e+00  -8.0454123517902652e-04 -4.0376446867801573e-05 0.0000000000000000e+00  -1.0080665752125477e-03 -5.7932603075645073e-05 0.0000000000000000e+00  -1.2652999059623571e-03 -8.6060337906878327e-05 0.0000000000000000e+00  0.0000000000000000e+00 0.0000000000000000e+00 0.0000000000000000e+00  -1.5098330730708067e-05 -5.9175967668719650e-07 0.0000000000000000e+00  -3.0849882640467925e-05 -1.2084969364449945e-06 0.0000000000000000e+00  -4.7942843476957363e-05 -1.8763231413639539e-06 0.0000000000000000e+00  -6.7140906873721271e-05 -2.6237740133831467e-06 0.0000000000000000e+00  -8.9329036386759868e-05 -3.4831744580931654e-06 0.0000000000000000e+00  -1.1556993782136387e-04 -4.4922419086437026e-06 0.0000000000000000e+00  -1.4717657615241042e-04 -5.6961757114092629e-06 0.0000000000000000e+00  -1.8580770980221146e-04 -7.1508854455403512e-06 0.0000000000000000e+00  -2.3359553025464465e-04 -8.9291598906529556e-06 0.0000000000000000e+00  -2.9331700651695004e-04 -1.1134690005243340e-05 0.0000000000000000e+00  -3.6862329714645219e-04 -1.3936910422789763e-05 0.0000000000000000e+00  -4.6434488343385992e-04 -1.7659372692106534e-05 0.0000000000000000e+00  -5.8689722008459992e-04 -2.2999434033187061e-05 0.0000000000000000e+00  -7.4484047551027165e-04 -3.1548038650434805e-05 0.0000000000000000e+00  -9.4976362104656862e-04 -4.6902337610750329e-05 0.0000000000000000e+00  -1.2178505139487882e-03 -7.6264402911636862e-05 0.0000000000000000e+00  0.0000000000000000e+00 0.0000000000000000e+00 0.0000000000000000e+00  -1.1970498792905859e-05 -4.6739821706726326e-07 0.0000000000000000e+00  -2.4472514792253617e-05 -9.5442263946151181e-07 0.0000000000000000e+00  -3.8068130528132813e-05 -1.4814091164561873e-06 0.0000000000000000e+00  -5.3386025447520156e-05 -2.0701387773052519e-06 0.0000000000000000e+00  -7.1162877660169469e-05 -2.7443314589197309e-06 0.0000000000000000e+00  -9.2295800397925479e-05 -3.5296877374698777e-06 0.0000000000000000e+00  -1.1791169031501788e-04 -4.4529625221282058e-06 0.0000000000000000e+00  -1.4946149247882688e-04 -5.5391182241691221e-06 0.0000000000000000e+00  -1.8885023834633470e-04 -6.8050209408822782e-06 0.0000000000000000e+00  -2.3861720308906241e-04 -8.2478910198161238e-06 0.0000000000000000e+00  -3.0218440066231457e-04 -9.8290732876913185e-06 0.0000000000000000e+00  -3.8419598637549776e-04 -1.1467116243906897e-05 0.0000000000000000e+00  -4.9097976640172117e-04 -1.3107192039460360e-05 0.0000000000000000e+00  -6.3120347142768356e-04 -1.5120588796277679e-05 0.0000000000000000e+00  -8.1708915523473979e-04 -1.9954893127798371e-05 0.0000000000000000e+00  -1.0689853280025560e-03 -3.8939884992808306e-05 0.0000000000000000e+00  0.0000000000000000e+00 0.0000000000000000e+00 0.0000000000000000e+00  -8.3041208169551363e-06 -3.2314122692083352e-07 0.0000000000000000e+00  -1.6984554176666333e-05 -6.5973528456977058e-07 0.0000000000000000e+00  -2.6440489037822313e-05 -1.0235833619156828e-06 0.0000000000000000e+00  -3.7121279227266484e-05 -1.4291156383538414e-06 0.0000000000000000e+00  -4.9558272073391738e-05 -1.8912486031319870e-06 0.0000000000000000e+00  -6.4405954965026020e-05 -2.4243441610668671e-06 0.0000000000000000e+00  -8.2497614888340257e-05 -3.0391500194419315e-06 0.0000000000000000e+00  -1.0492271163812352e-04 -3.7352694256689828e-06 0.0000000000000000e+00  -1.3313564719186099e-04 -4.4837985127279069e-06 0.0000000000000000e+00  -1.6910775836355248e-04 -5.1884380058460240e-06 0.0000000000000000e+00  -2.1553377104382263e-04 -5.5997806613874729e-06 0.0000000000000000e+00  -2.7609564761066032e-04 -5.1289713427178697e-06 0.0000000000000000e+00  -3.5576317029260417e-04 -2.4497444998937305e-06 0.0000000000000000e+00  -4.6104780672724617e-04 5.3271902178171191e-06 0.0000000000000000e+00  -5.9978912517352474e-04 2.4247119609648774e-05 0.0000000000000000e+00  -7.7832926848152891e-04 6.5660999490700888e-05 0.0000000000000000e+00  0.0000000000000000e+00 0.0000000000000000e+00 0.0000000000000000e+00  -4.2538813500852805e-06 -1.6514222175183877e-07 0.0000000000000000e+00  -8.7032572843800609e-06 -3.3711388028698770e-07 0.0000000000000000e+00  -1.3555982142108702e-05 -5.2286648994951535e-07 0.0000000000000000e+00  -1.9047126672707079e-05 -7.2952333476649007e-07 0.0000000000000000e+00  -2.5456520059498441e-05 -9.6409973303449541e-07 0.0000000000000000e+00  -3.3131789003790842e-05 -1.2324899558250285e-06 0.0000000000000000e+00  -4.2520064038128654e-05 -1.5367476917729740e-06 0.0000000000000000e+00  -5.4212732853281385e-05 -1.8683781420575198e-06 0.0000000000000000e+00  -6.9008638078980875e-05 -2.1921737689381861e-06 0.0000000000000000e+00  -8.7999435092732414e-05 -2.4072152034671194e-06 0.0000000000000000e+00  -1.1266651070476572e-04 -2.2518518747734259e-06 0.0000000000000000e+00  -1.4491602350498185e-04 -1.0708668887991319e-06 0.0000000000000000e+00  -1.8674856846045274e-04 2.7461827579513303e-06 0.0000000000000000e+00  -2.3853200844421824e-04 1.3027562234094362e-05 0.0000000000000000e+00  -2.9308888488055950e-04 3.8095987088783636e-05 0.0000000000000000e+00  -3.2163668363468671e-04 9.2070753597676657e-05 0.0000000000000000e+00  0.0000000000000000e+00 0.0000000000000000e+00 0.0000000000000000e+00  0.0000000000000000e+00 0.0000000000000000e+00 0.0000000000000000e+00  0.0000000000000000e+00 0.0000000000000000e+00 0.0000000000000000e+00  0.0000000000000000e+00 0.0000000000000000e+00 0.0000000000000000e+00  0.0000000000000000e+00 0.0000000000000000e+00 0.0000000000000000e+00  0.0000000000000000e+00 0.00000