<?xml version="1.0"?>
<VTKFile type="UnstructuredGrid"  version="0.1"  >
<UnstructuredGrid>
<Piece  NumberOfPoints="289" NumberOfCells="512">
<Points>
<DataArray  type="Float64"  NumberOfComponents="3"  format="ascii">0 0 0  0.0625 0 0  0.125 0 0  0.1875 0 0  0.25 0 0  0.3125 0 0  0.375 0 0  0.4375 0 0  0.5 0 0  0.5625 0 0  0.625 0 0  0.6875 0 0  0.75 0 0  0.8125 0 0  0.875 0 0  0.9375 0 0  1 0 0  0 0.0625 0  0.06256045568052125 0.0624928697485842 0  0.1251225279753815 0.0624855978573714 0  0.187687814849329 0.06247805264429165 0  0.2502578429224314 0.06247012560098338 0  0.3128340036325888 0.06246174709813058 0  0.3754174524833363 0.06245290677183585 0  0.4380089553789259 0.06244367932479597 0  0.5006086635901267 0.06243425506090036 0  0.5632157969232351 0.06242497169216212 0  0.6258282141780658 0.06241633903483733 0  0.6884418521414937 0.06240904036691854 0  0.7510500177067025 0.06240388315927423 0  0.8136424938027488 0.0624016581124557 0  0.8762041365847296 0.06240284670490825 0  0.938710470365718 0.06240709369846653 0  1.001102415023691 0.0624131432157988 0  0 0.125 0  0.06261932407077861 0.1249858799594058 0  0.1252419220146438 0.1249714655913885 0  0.1878710425879873 0.1249564808429217 0  0.2505098196860095 0.1249406926698233 0  0.3131611619990509 0.1249239410860464 0  0.3758275730111042 0.1249061792648198 0  0.4385108709435078 0.1248875259857047 0  0.5012117737524509 0.1248683305154967 0  0.5639293113495215 0.1248492452845791 0  0.6266600278898048 0.1248312927773611 0  0.6893969412474328 0.124815898146484 0  0.7521282202283055 0.1248048390576898 0  0.814835443826944 0.1248000542473319 0  0.8774908134751622 0.1248033276222305 0  0.9400509828258693 0.1248163221349544 0  1.002443065691609 0.1248430547536807 0  0 0.1875 0  0.06267494442355702 0.1874791841234402 0  0.1253548780260208 0.1874579011185096 0  0.1880447792527478 0.1874357071083965 0  0.2507495163715247 0.1874122141431754 0  0.3134737201160581 0.1873871314420739 0  0.376221559976321 0.1873603229843211 0  0.4389963802737987 0.1873318866984341 0  0.5018001439078905 0.1873022587306115 0  0.5646326243272171 0.1872723413495153 0  0.6274902817850004 0.1872436418294798 0  0.6903647570187714 0.1872183863962782 0  0.7532408990827114 0.1871995264040661 0  0.8160941626921751 0.1871904539009117 0  0.8788869767148716 0.1871939922568677 0  0.9415635022396084 0.1872094385244131 0  1.004044528077225 0.1872236021159613 0  0 0.25 0  0.06272560255254861 0.2499729557156771 0  0.1254579621059526 0.2499452458120788 0  0.1882038666560367 0.2499162278071069 0  0.2509700630530574 0.2498853172853075 0  0.3137631526412471 0.249852034750543 0  0.376589372760952 0.2498160755342437 0  0.4394542082591609 0.2497774124556338 0  0.502361762703281 0.2497364413850674 0  0.5653138027613553 0.2496941779399891 0  0.6283083727247064 0.2496525057816786 0  0.6913378597947547 0.2496144565033264 0  0.7543863712657082 0.249584454660889 0  0.8174262601833007 0.2495683652483876 0  0.8804136632334533 0.2495730024366687 0  0.9432833471535569 0.2496045227639599 0  1.005945074827653 0.2496653604471234 0  0 0.3125 0  0.06276953429562832 0.3124673936680621 0  0.1255476098051377 0.312433897275335 0  0.1883428712285555 0.3123986370909555 0  0.2511640654621736 0.312360785067046 0  0.3140200082899036 0.3123196027620876 0  0.3769194323493595 0.3122745139567594 0  0.4398706522817298 0.3122252208695497 0  0.502880960692819 0.3121718833161206 0  0.5659556400336444 0.312115384781769 0  0.6290964414023632 0.3120577119597889 0  0.6922993440899555 0.3120024695199635 0  0.755551378452924 0.3119555284958223 0  0.818826303914551 0.3119257445946583 0  0.882079106309921 0.3119255557609098 0  0.9452399711880516 0.3119710707563611 0  1.008210327554415 0.3120810563929102 0  0 0.375 0  0.06280495955412529 0.3749627225335947 0  0.1256201896702233 0.374924311339849 0  0.1884561669763625 0.3748836344686801 0  0.2513236891631779 0.3748395760023475 0  0.3142339646516173 0.3747910656206125 0  0.3771985973035017 0.3747371391127258 0  0.4402294013771358 0.3746770490681401 0  0.5033379523372217 0.3746104542657123 0  0.5665347378160677 0.3745377297903831 0  0.6298277183415038 0.3744604582149078 0  0.6932200405579043 0.374382184007624 0  0.7567065773168166 0.3743095318478867 0  0.820268937415863 0.3742537846511147 0  0.8838686958929546 0.3742329419784307 0  0.9474390506259327 0.3742740420848485 0  1.010876121499933 0.3744149680020503 0  0 0.4375 0  0.06283015217067758 0.4374591856946551 0  0.125672142782872 0.4374169895852187 0  0.1885381432727446 0.4373720093715449 0  0.2514409301798928 0.4373228113783963 0  0.3143941470009515 0.4372679325680611 0  0.3774124977927441 0.4372059098201899 0  0.4405118189827764 0.4371353568722777 0  0.5037089428093018 0.4370551226040231 0  0.5670212163747255 0.436964586308764 0  0.6304654693673195 0.4368641810045366 0  0.6940561270243178 0.436756290752992 0  0.7578020444072344 0.4366467467864981 0  0.8217015105924014 0.436547242257031 0  0.8857347836186289 0.436479049878317 0  0.9498535396237578 0.4364783283721077 0  1.013966741552985 0.4366028070858086 0  0 0.5 0  0.06284354630053336 0.4999570305382778 0  0.1257002008569562 0.4999124496799935 0  0.1885835447667426 0.4998645971426248 0  0.2515080892757187 0.4998117191355226 0  0.3144897472308551 0.4997519302597912 0  0.3775462978169505 0.499683191264117 0  0.4406978179018837 0.4996033188680104 0  0.5039670246434227 0.4995100580987324 0  0.567379428178315 0.4994012734572141 0  0.6309631230287351 0.4992753619275322 0  0.6947479438561472 0.4991320741711186 0  0.7587635657061985 0.4989740746223523 0  0.8230359280939146 0.4988098044901395 0  0.8875810836649016 0.4986585311101874 0  0.952395176544364 0.4985587306684564 0  1.017438729762838 0.4985806748813038 0  0 0.5625 0  0.06284387393363008 0.5624564856283368 0  0.1257016731599445 0.562411178083994 0  0.1885879315978134 0.5623622042392166 0  0.2515184408325979 0.5623075279045295 0  0.3145109460581539 0.5622448631248249 0  0.3775859185643299 0.5621715842728926 0  0.4407674215206635 0.5620846386001978 0  0.5040840724167304 0.5619804771627478 0  0.567570081560362 0.5618550410482973 0  0.631266307681409 0.561703882752149 0  0.6952212166430515 0.5615225904873792 0  0.7594915556650641 0.5613078630784694 0  0.8241424464997072 0.5610599421787262 0  0.8892463732788496 0.560787769067101 0  0.9548799711773586 0.5605191941093602 0  1.021116400263629 0.5603190583333625 0  0 0.625 0  0.06283032122958974 0.6249577315221636 0  0.125674777717796 0.6249135681404933 0  0.1885482238380967 0.6248655063106199 0  0.2514670511080328 0.6248113137226484 0  0.3144500905664082 0.6247483932313079 0  0.3775196868974208 0.6246736196300182 0  0.440703017450314 0.6245831391727107 0  0.504033742519097 0.6244721228413915 0  0.5675540913615336 0.6243344699994133 0  0.6313175196022758 0.6241624767362726 0  0.6953921432098713 0.6239465322440221 0  0.7598653223340696 0.6236750387157469 0  0.8248501338297145 0.6233351024795426 0  0.8904950641631191 0.6229154419507824 0  0.956998606347372 0.622414908437568 0  1.02462923584034 0.6218622881058047 0  0 0.6875 0  0.0628026842780299 0.6874608687558892 0  0.1256189767932225 0.6874198508148202 0  0.1884632672930896 0.6873749304480792 0  0.2513516577354198 0.6873238148536471 0  0.3143030128762709 0.6872637583100143 0  0.3773402730411024 0.6871913356283776 0  0.440492162560847 0.6871021375565317 0  0.5037954749005579 0.6869903498639811 0  0.5672981898461129 0.6868481613040813 0  0.6310638053680182 0.6866649210764209 0  0.6951775196029281 0.6864259323717437 0  0.759755475651698 0.6861107370619547 0  0.8249596755456805 0.6856908061187872 0  0.8910243222934543 0.6851271327299919 0  0.9583048040278612 0.6843709715529206 0  1.027363329632702 0.6833787375036642 0  0 0.75 0  0.062761499327083 0.7499658881908132 0  0.1255352637287632 0.7499300292604762 0  0.1883343337413628 0.7498905404550736 0  0.2511734804283183 0.7498452439361406 0  0.3140703050305044 0.7497914713981331 0  0.3770466647055071 0.7497258013842302 0  0.4401306081870613 0.7496436885017507 0  0.5033590874028698 0.7495389224293589 0  0.5667818425910627 0.7494028184231274 0  0.6304670792323435 0.7492229770959452 0  0.6945099727817048 0.7489813305835061 0  0.759045988182128 0.7486509475440796 0  0.8242735925852698 0.7481905592320927 0  0.8904986510317459 0.7475348447725773 0  0.9582343705736471 0.7465783519501822 0  1.02842596945816 0.745167378595235 0  0 0.8125 0  0.06270812035247661 0.8124726497930504 0  0.1254263421566125 0.8124438306590326 0  0.1881654547687197 0.8124119488601403 0  0.2509378038275661 0.8123751366609944 0  0.3137583084742002 0.8123310655808187 0  0.3766458193843936 0.8122766883092688 0  0.4396250249409556 0.8122078635758897 0  0.5027292199194648 0.8121187923804143 0  0.5660044250395523 0.812001150027974 0  0.6295156292797072 0.8118427219276196 0  0.6933564097524703 0.811625209365705 0  0.7576641369327256 0.8113205758166302 0  0.8226455283880985 0.8108845783469273 0  0.8886269811067411 0.8102440453585077 0  0.9561887667327252 0.809267831426282 0  1.026659579424338 0.807688474029992 0  0 0.875 0  0.0626447198670906 0.8749808755122203 0  0.125296643500803 0.8749606881694902 0  0.1879634924107423 0.874938279114352 0  0.2506541708512371 0.8749122774497473 0  0.313379556165098 0.8748809528397272 0  0.3761535785144021 0.874842008033304 0  0.4389947775288494 0.8747922714946819 0  0.5019286323262501 0.8747272269449522 0  0.5649911439205179 0.8746402778946498 0  0.6282344462020883 0.8745215828173817 0  0.6917356780244581 0.8743561986917145 0  0.7556109674065277 0.8741211137309918 0  0.820037049024662 0.8737804297738356 0  0.8852843112541171 0.873276885525628 0  0.9517811846637741 0.8725133313411662 0  1.020456900518213 0.8712985797281969 0  0 0.9375 0  0.0625741980519457 0.9374901600301007 0  0.1251521472495946 0.9374797617936849 0  0.1877378776317421 0.9374681947484761 0  0.2503360602061734 0.9374547324656866 0  0.3129524419833505 0.9374384510597953 0  0.3755944502354157 0.93741811299575 0  0.4382720812871326 0.9373919926875628 0  0.5009
[...]
<PointData  Vectors="f_54"> 
<DataArray  type="Float64"  Name="f_54"  NumberOfComponents="3" format="ascii">0.0000000000000000e+00 0.0000000000000000e+00 0.0000000000000000e+00  0.0000000000000000e+00 0.0000000000000000e+00 0.0000000000000000e+00  0.0000000000000000e+00 0.0000000000000000e+00 0.0000000000000000e+00  0.0000000000000000e+00 0.0000000000000000e+00 0.0000000000000000e+00  0.0000000000000000e+00 0.0000000000000000e+00 0.0000000000000000e+00  0.0000000000000000e+00 0.0000000000000000e+00 0.0000000000000000e+00  0.0000000000000000e+00 0.0000000000000000e+00 0.0000000000000000e+00  0.0000000000000000e+00 0.0000000000000000e+00 0.0000000000000000e+00  0.0000000000000000e+00 0.0000000000000000e+00 0.0000000000000000e+00  0.0000000000000000e+00 0.0000000000000000e+00 0.0000000000000000e+00  0.0000000000000000e+00 0.0000000000000000e+00 0.0000000000000000e+00  0.0000000000000000e+00 0.0000000000000000e+00 0.0000000000000000e+00  0.0000000000000000e+00 0.0000000000000000e+00 0.0000000000000000e+00  0.0000000000000000e+00 0.0000000000000000e+00 0.0000000000000000e+00  0.0000000000000000e+00 0.0000000000000000e+00 0.0000000000000000e+00  0.0000000000000000e+00 0.0000000000000000e+00 0.0000000000000000e+00  0.0000000000000000e+00 0.0000000000000000e+00 0.0000000000000000e+00  0.0000000000000000e+00 0.0000000000000000e+00 0.0000000000000000e+00  3.4386041297323672e-06 -1.2749739184314436e-07 0.0000000000000000e+00  6.9997489271441847e-06 -2.5995501798348385e-07 0.0000000000000000e+00  1.0810151154687616e-05 -4.0248961501173647e-07 0.0000000000000000e+00  1.5003230251274082e-05 -5.6044519001240277e-07 0.0000000000000000e+00  1.9722448525622176e-05 -7.3943451076512994e-07 0.0000000000000000e+00  2.5124657118877672e-05 -9.4526225943576496e-07 0.0000000000000000e+00  3.1383720862649521e-05 -1.1836362467756240e-06 0.0000000000000000e+00  3.8695360025968878e-05 -1.4595181624579399e-06 0.0000000000000000e+00  4.7286039495273670e-05 -1.7758931854975433e-06 0.0000000000000000e+00  5.7434073387101930e-05 -2.1316699840584265e-06 0.0000000000000000e+00  6.9526499530431137e-05 -2.5184600609353396e-06 0.0000000000000000e+00  8.4221629154175907e-05 -2.9165485155451672e-06 0.0000000000000000e+00  1.0293518768512541e-04 -3.2932598936060114e-06 0.0000000000000000e+00  1.2937227630615089e-04 -3.6202632700457095e-06 0.0000000000000000e+00  1.7465970988190735e-04 -3.9881432906163733e-06 0.0000000000000000e+00  2.7566321622691549e-04 -5.1879801007274221e-06 0.0000000000000000e+00  0.0000000000000000e+00 0.0000000000000000e+00 0.0000000000000000e+00  6.7607059921178630e-06 -2.5025935387555784e-07 0.0000000000000000e+00  1.3764108894742376e-05 -5.1035187609164594e-07 0.0000000000000000e+00  2.1261288021735760e-05 -7.9044941000594222e-07 0.0000000000000000e+00  2.9516973612110123e-05 -1.1012472143013338e-06 0.0000000000000000e+00  3.8816277861430637e-05 -1.4541066729872040e-06 0.0000000000000000e+00  4.9471212925998625e-05 -1.8609952930758902e-06 0.0000000000000000e+00  6.1827087043327667e-05 -2.3340518015886419e-06 0.0000000000000000e+00  7.6269409397903678e-05 -2.8844902866594234e-06 0.0000000000000000e+00  9.3233502058014567e-05 -3.5203871718998102e-06 0.0000000000000000e+00  1.1322308692147300e-04 -4.2426521677794481e-06 0.0000000000000000e+00  1.3685384029183745e-04 -5.0381249735321662e-06 0.0000000000000000e+00  1.6495876652179844e-04 -5.8679984269145410e-06 0.0000000000000000e+00  1.9882663720362066e-04 -6.6470578205271681e-06 0.0000000000000000e+00  2.4064419919988812e-04 -7.1958627078117332e-06 0.0000000000000000e+00  2.9379035351950191e-04 -7.0789723859390940e-06 0.0000000000000000e+00  3.5952189803204750e-04 -4.8903016198290086e-06 0.0000000000000000e+00  0.0000000000000000e+00 0.0000000000000000e+00 0.0000000000000000e+00  9.8454892485815974e-06 -3.6338993398165782e-07 0.0000000000000000e+00  2.0048021852741610e-05 -7.4124549180389774e-07 0.0000000000000000e+00  3.0977213906188889e-05 -1.1485916342404047e-06 0.0000000000000000e+00  4.3023653042483416e-05 -1.6013838398443404e-06 0.0000000000000000e+00  5.6609190020859019e-05 -2.1168567397170849e-06 0.0000000000000000e+00  7.2196648704954890e-05 -2.7136555762410103e-06 0.0000000000000000e+00  9.0298450505202935e-05 -3.4115393950934423e-06 0.0000000000000000e+00  1.1148339496087685e-04 -4.2302832621016402e-06 0.0000000000000000e+00  1.3638052927421838e-04 -5.1871506662468140e-06 0.0000000000000000e+00  1.6567846807696214e-04 -6.2919291014817960e-06 0.0000000000000000e+00  2.0011642540210438e-04 -7.5380314456309965e-06 0.0000000000000000e+00  2.4045405565176100e-04 -8.8877544849404356e-06 0.0000000000000000e+00  2.8737051645611237e-04 -1.0250487468544661e-05 0.0000000000000000e+00  3.4111393122456495e-04 -1.1459739025245703e-05 0.0000000000000000e+00  4.0033715654803735e-04 -1.2295913790396026e-05 0.0000000000000000e+00  4.5874639308101723e-04 -1.2824055607098981e-05 0.0000000000000000e+00  0.0000000000000000e+00 0.0000000000000000e+00 0.0000000000000000e+00  1.2578198963778481e-05 -4.6224433059832107e-07 0.0000000000000000e+00  2.5618371617650905e-05 -9.4314679643631731e-07 0.0000000000000000e+00  3.9599202000358590e-05 -1.4621795239931248e-06 0.0000000000000000e+00  5.5028185281154726e-05 -2.0402654001962063e-06 0.0000000000000000e+00  7.2455910377531468e-05 -2.7004534933755028e-06 0.0000000000000000e+00  9.2489599181407820e-05 -3.4684591727891027e-06 0.0000000000000000e+00  1.1580482975781716e-04 -4.3728829937103469e-06 0.0000000000000000e+00  1.4315327998380210e-04 -5.4447401849335572e-06 0.0000000000000000e+00  1.7536224006628500e-04 -6.7156145137896305e-06 0.0000000000000000e+00  2.1331742399251122e-04 -8.2132214285552155e-06 0.0000000000000000e+00  2.5791159222892919e-04 -9.9523470320230562e-06 0.0000000000000000e+00  3.0992153362017740e-04 -1.1918015526530580e-05 0.0000000000000000e+00  3.6973227905851588e-04 -1.4036589168580645e-05 0.0000000000000000e+00  4.3674060197035867e-04 -1.6129953271639971e-05 0.0000000000000000e+00  5.0814222726761765e-04 -1.7845979593037030e-05 0.0000000000000000e+00  5.7680753891307273e-04 -1.8521278849186828e-05 0.0000000000000000e+00  0.0000000000000000e+00 0.0000000000000000e+00 0.0000000000000000e+00  1.4853813471023986e-05 -5.4263060190518604e-07 0.0000000000000000e+00  3.0261280906459457e-05 -1.1074274173427178e-06 0.0000000000000000e+00  4.6796770868433021e-05 -1.7176328066416313e-06 0.0000000000000000e+00  6.5071827549738725e-05 -2.3985226796944948e-06 0.0000000000000000e+00  8.5754083468583424e-05 -3.1785031696877523e-06 0.0000000000000000e+00  1.0958587127585978e-04 -4.0902563550741923e-06 0.0000000000000000e+00  1.3740137996716385e-04 -5.1718573204809713e-06 0.0000000000000000e+00  1.7013972594612326e-04 -6.4676353261418460e-06 0.0000000000000000e+00  2.0884848306963310e-04 -8.0282458542314875e-06 0.0000000000000000e+00  2.5466682931982718e-04 -9.9088163035379018e-06 0.0000000000000000e+00  3.0876737131254738e-04 -1.2162878261752486e-05 0.0000000000000000e+00  3.7221759679548412e-04 -1.4827689439458381e-05 0.0000000000000000e+00  4.4569264566930196e-04 -1.7892800139844058e-05 0.0000000000000000e+00  5.2893520601948957e-04 -2.1237139156697155e-05 0.0000000000000000e+00  6.1985220949328887e-04 -2.4508081617589938e-05 0.0000000000000000e+00  7.1327706367873395e-04 -2.6895781231913768e-05 0.0000000000000000e+00  0.0000000000000000e+00 0.0000000000000000e+00 0.0000000000000000e+00  1.6580914628878091e-05 -6.0105459396355904e-07 0.0000000000000000e+00  3.3789878056267206e-05 -1.2268340287900745e-06 0.0000000000000000e+00  5.2279342906117772e-05 -1.9033620197597433e-06 0.0000000000000000e+00  7.2747514880423073e-05 -2.6592379377360494e-06 0.0000000000000000e+00  9.5962472275343047e-05 -3.5271737639399564e-06 0.0000000000000000e+00  1.2278723021931205e-04 -4.5458400171736481e-06 0.0000000000000000e+00  1.5420522692451635e-04 -5.7621343351567866e-06 0.0000000000000000e+00  1.9134447155766485e-04 -7.2339494282689063e-06 0.0000000000000000e+00  2.3549620034981762e-04 -9.0333695554617799e-06 0.0000000000000000e+00  2.8811943868087687e-04 -1.1249801517204397e-05 0.0000000000000000e+00  3.5081506025137982e-04 -1.3991490054008304e-05 0.0000000000000000e+00  4.2524050040263899e-04 -1.7381446710247560e-05 0.0000000000000000e+00  5.1291989749111260e-04 -2.1538643831839228e-05 0.0000000000000000e+00  6.1489191288318409e-04 -2.6525049612815610e-05 0.0000000000000000e+00  7.3115240549392652e-04 -3.2220759312013642e-05 0.0000000000000000e+00  8.5992921697440649e-04 -3.8062990467857046e-05 0.0000000000000000e+00  0.0000000000000000e+00 0.0000000000000000e+00 0.0000000000000000e+00  1.7685723159214420e-05 -6.3498324340992196e-07 0.0000000000000000e+00  3.6052534960238732e-05 -1.2960615735612080e-06 0.0000000000000000e+00  5.5808998520843183e-05 -2.0107545588848000e-06 0.0000000000000000e+00  7.7717506744694859e-05 -2.8095217628253437e-06 0.0000000000000000e+00  1.0262373829849654e-04 -3.7276423938884838e-06 0.0000000000000000e+00  1.3148899366666265e-04 -4.8076712262047560e-06 0.0000000000000000e+00  1.6542617201612496e-04 -6.1028216696836581e-06 0.0000000000000000e+00  2.0573970004823409e-04 -7.6817816878717003e-06 0.0000000000000000e+00  2.5396870425311739e-04 -9.6356585006770196e-06 0.0000000000000000e+00  3.1193063839330407e-04 -1.2087893613079206e-05 0.0000000000000000e+00  3.8175876333786796e-04 -1.5207824859021871e-05 0.0000000000000000e+00  4.6592077798014833e-04 -1.9227374232231762e-05 0.0000000000000000e+00  5.6719821505160119e-04 -2.4456378113697952e-05 0.0000000000000000e+00  6.8860138630794261e-04 -3.1281652871043727e-05 0.0000000000000000e+00  8.3320358395792425e-04 -4.0111025271519899e-05 0.0000000000000000e+00  1.0039125109538914e-03 -5.1174404507873684e-05 0.0000000000000000e+00  0.0000000000000000e+00 0.0000000000000000e+00 0.0000000000000000e+00  1.8116125099629383e-05 -6.4307974350737954e-07 0.0000000000000000e+00  3.6941258143513012e-05 -1.3122829815356623e-06 0.0000000000000000e+00  5.7213945832688899e-05 -2.0351352658322646e-06 0.0000000000000000e+00  7.9733095694046712e-05 -2.8421567952859195e-06 0.0000000000000000e+00  1.0539210945753587e-04 -3.7688581639590132e-06 0.0000000000000000e+00  1.3521811467031412e-04 -4.8584857768789714e-06 0.0000000000000000e+00  1.7041868599702522e-04 -6.1660680470075191e-06 0.0000000000000000e+00  2.1243913446544651e-04 -7.7646853251589173e-06 0.0000000000000000e+00  2.6303441258612725e-04 -9.7555212148313308e-06 0.0000000000000000e+00  3.2436096698628764e-04 -1.2284294639173084e-05 0.0000000000000000e+00  3.9909542250038231e-04 -1.5568270661010285e-05 0.0000000000000000e+00  4.9058862608658874e-04 -1.9940185143633916e-05 0.0000000000000000e+00  6.0306516482968209e-04 -2.5917366018174851e-05 0.0000000000000000e+00  7.4188104559678319e-04 -3.4303348084938640e-05 0.0000000000000000e+00  9.1386235751688880e-04 -4.6318360547795009e-05 0.0000000000000000e+00  1.1277890035084428e-03 -6.3722125739094115e-05 0.0000000000000000e+00  0.0000000000000000e+00 0.0000000000000000e+00 0.0000000000000000e+00  1.7845347643164035e-05 -6.2535186672626592e-07 0.0000000000000000e+00  3.6399515750352211e-05 -1.2755004704791341e-06 0.0000000000000000e+00  5.6401540488679601e-05 -1.9764514039118272e-06 0.0000000000000000e+00  7.8654647251182958e-05 -2.7568749978106614e-06 0.0000000000000000e+00  1.0406345852173231e-04 -3.6498987146227977e-06 0.0000000000000000e+00  1.3367821684944842e-04 -4.6956278784009889e-06 0.0000000000000000e+00  1.6874993132347715e-04 -5.9450009160877003e-06 0.0000000000000000e+00  2.1080222556458709e-04 -7.4660903805442295e-06 0.0000000000000000e+00  2.6172881517086649e-04 -9.3549366015774572e-06 0.0000000000000000e+00  3.2393075783715148e-04 -1.1754885634142811e-05 0.0000000000000000e+00  4.0051598943134669e-04 -1.4892030126165000e-05 0.0000000000000000e+00  4.9559633244501407e-04 -1.9141224999528932e-05 0.0000000000000000e+00  6.1473455536483455e-04 -2.5149721524215398e-05 0.0000000000000000e+00  7.6561504941058205e-04 -3.4066952853994392e-05 0.0000000000000000e+00  9.5903850200863047e-04 -4.7961988607057271e-05 0.0000000000000000e+00  1.2104131800205278e-03 -7.0557251422136131e-05 0.0000000000000000e+00  0.0000000000000000e+00 0.0000000000000000e+00 0.0000000000000000e+00  1.6874812109104470e-05 -5.8315991085099477e-07 0.0000000000000000e+00  3.4428460139284751e-05 -1.1885896102369386e-06 0.0000000000000000e+00  5.3369026412486195e-05 -1.8394263007575103e-06 0.0000000000000000e+00  7.4468944423407323e-05 -2.5607857548299643e-06 0.0000000000000000e+00  9.8602853419318804e-05 -3.3810283734932097e-06 0.0000000000000000e+00  1.2679350594635837e-04 -4.3334905752141023e-06 0.0000000000000000e+00  1.6027053887069208e-04 -5.4591179579920634e-06 0.0000000000000000e+00  2.0054962478769359e-04 -6.8108733617747087e-06 0.0000000000000000e+00  2.4954439792905552e-04 -8.4617268007868492e-06 0.0000000000000000e+00  3.0973236586227088e-04 -1.0520066236389802e-05 0.0000000000000000e+00  3.8441186805597148e-04 -1.3160870761845637e-05 0.0000000000000000e+00  4.7811489666820618e-04 -1.6691112914156984e-05 0.0000000000000000e+00  5.9728626398840388e-04 -2.1690752305800264e-05 0.0000000000000000e+00  7.5140598846736213e-04 -2.9321798683104569e-05 0.0000000000000000e+00  9.5480987518080005e-04 -4.2007165131962222e-05 0.0000000000000000e+00  1.2295557606442711e-03 -6.4897485908202223e-05 0.0000000000000000e+00  0.0000000000000000e+00 0.0000000000000000e+00 0.0000000000000000e+00  1.5235659741126800e-05 -5.1905725951374528e-07 0.0000000000000000e+00  3.1090406323394549e-05 -1.0569642025181849e-06 0.0000000000000000e+00  4.8209916892067857e-05 -1.6330192033397807e-06 0.0000000000000000e+00  6.7300235350048474e-05 -2.2676035425130098e-06 0.0000000000000000e+00  8.9163417008120987e-05 -2.9827135929846656e-06 0.0000000000000000e+00  1.1474102892092350e-04 -3.8025077944602833e-06 0.0000000000000000e+00  1.4517023327521370e-04 -4.7539262154827887e-06 0.0000000000000000e+00  1.8185997455831150e-04 -5.8675697402123955e-06 0.0000000000000000e+00  2.2660009431441517e-04 -7.1793858457625580e-06 0.0000000000000000e+00  2.8172659558946533e-04 -8.7346918331261926e-06 0.0000000000000000e+00  3.5038728701967974e-04 -1.0598767032998539e-05 0.0000000000000000e+00  4.3699516699129820e-04 -1.2885799746593988e-05 0.0000000000000000e+00  5.4804437928842719e-04 -1.5839642023307380e-05 0.0000000000000000e+00  6.9362925037504293e-04 -2.0063129331348180e-05 0.0000000000000000e+00  8.9026371573259426e-04 -2.7175293602078525e-05 0.0000000000000000e+00  1.1658050406388068e-03 -4.1653083916712821e-05 0.0000000000000000e+00  0.0000000000000000e+00 0.0000000000000000e+00 0.0000000000000000e+00  1.2988545686030203e-05 -4.3648049310630903e-07 0.0000000000000000e+00  2.6508633543132609e-05 -8.8789155913524489e-07 0.0000000000000000e+00  4.1114266276285614e-05 -1.3692189106755650e-06 0.0000000000000000e+00  5.7411852583964816e-05 -1.8956571987657255e-06 0.0000000000000000e+00  7.6090927594501452e-05 -2.4824136219306634e-06 0.0000000000000000e+00  9.7961341248922992e-05 -3.1440463536961821e-06 0.0000000000000000e+00  1.2400054006491909e-04 -3.8929485758807772e-06 0.0000000000000000e+00  1.5541650205214787e-04 -4.7362880359152646e-06 0.0000000000000000e+00  1.9373564604738928e-04 -5.6701657811851332e-06 0.0000000000000000e+00  2.4093298039854172e-04 -6.6687734691212534e-06 0.0000000000000000e+00  2.9964010705524005e-04 -7.6646119288639646e-06 0.0000000000000000e+00  3.7351252160070420e-04 -8.5132230151851879e-06 0.0000000000000000e+00  4.6795790383773026e-04 -8.9342847076352644e-06 0.0000000000000000e+00  5.9174360990628383e-04 -8.4360884691190767e-06 0.0000000000000000e+00  7.6076006894392856e-04 -6.3578275101556139e-06 0.0000000000000000e+00  1.0063614702709724e-03 -2.8856293193119268e-06 0.0000000000000000e+00  0.0000000000000000e+00 0.0000000000000000e+00 0.0000000000000000e+00  1.0221517191597227e-05 -3.3935392340699311e-07 0.0000000000000000e+00  2.0863072383050813e-05 -6.8960361109194861e-07 0.0000000000000000e+00  3.2361978520181587e-05 -1.0614314705581591e-06 0.0000000000000000e+00  4.5196799498408807e-05 -1.4651124773716543e-06 0.0000000000000000e+00  5.9911123384361772e-05 -1.9098268707966110e-06 0.0000000000000000e+00  7.7141707820633241e-05 -2.4021974203831338e-06 0.0000000000000000e+00  9.7652936997187908e-05 -2.9433561567606024e-06 0.0000000000000000e+00  1.2237996258520313e-04 -3.5232265142245932e-06 0.0000000000000000e+00  1.5248347195983764e-04 -4.1094571879390665e-06 0.0000000000000000e+00  1.8942010170649244e-04 -4.6258231459354008e-06 0.0000000000000000e+00  2.3503621504120155e-04 -4.9091037292560898e-06 0.0000000000000000e+00  2.9170951040956197e-04 -4.6196412917168082e-06 0.0000000000000000e+00  3.6264036520617542e-04 -3.0450940956586284e-06 0.0000000000000000e+00  4.5274157845763059e-04 1.3630333719151324e-06 0.0000000000000000e+00  5.7204132516040090e-04 1.2166945821232066e-05 0.0000000000000000e+00  7.4836650681912626e-04 3.7805671585644960e-05 0.0000000000000000e+00  0.0000000000000000e+00 0.0000000000000000e+00 0.0000000000000000e+00  7.0460771413388498e-06 -2.3170586576013730e-07 0.0000000000000000e+00  1.4382094651299213e-05 -4.7043154679102571e-07 0.0000000000000000e+00  2.2309527707525792e-05 -7.2289930546198110e-07 0.0000000000000000e+00  3.1157904884658177e-05 -9.9521191893345429e-07 0.0000000000000000e+00  4.1300601914645182e-05 -1.2920618717685597e-06 0.0000000000000000e+00  5.3172928013868759e-05 -1.6151616498975762e-06 0.0000000000000000e+00  6.7292950246216124e-05 -1.9601880399460873e-06 0.0000000000000000e+00  8.4284659355750074e-05 -2.3108949703381567e-06 0.0000000000000000e+00  1.0490069516782295e-04 -2.6277630022045677e-06 0.0000000000000000e+00  1.3003551367815063e-04 -2.8258821455888000e-06 0.0000000000000000e+00  1.6070355398149948e-04 -2.7309458172008129e-06 0.0000000000000000e+00  1.9791630560801334e-04 -1.9885514468554594e-06 0.0000000000000000e+00  2.4230123237682167e-04 1.3455020390877669e-07 0.0000000000000000e+00  2.9319383401037104e-04 5.2389314484215722e-06 0.0000000000000000e+00  3.4772425223994003e-04 1.7290702106924685e-05 0.0000000000000000e+00  4.1289681390531375e-04 4.9499295221702873e-05 0.0000000000000000e+00  0.0000000000000000e+00 0.0000000000000000e+00 0.0000000000000000e+00  3.5917968850855648e-06 -1.1739397320713219e-07 0.0000000000000000e+00  7.3312313711351430e-06 -2.3819625565262575e-07 0.0000000000000000e+00  1.1371622579996400e-05 -3.6561190004643706e-07 0.0000000000000000e+00  1.5880281349846724e-05 -5.0241392322530256e-07 0.0000000000000000e+00  2.1046202257394187e-05 -6.5043306755155211e-07 0.0000000000000000e+00  2.7088560832037524e-05 -8.0957135593740576e-07 0.0000000000000000e+00  3.4265812483087528e-05 -9.7591115147808377e-07 0.0000000000000000e+00  4.2884200138689948e-05 -1.1381166587480902e-06 0.0000000000000000e+00  5.3301819169061471e-05 -1.2706030008876417e-06 0.0000000000000000e+00  6.5917114197880169e-05 -1.3205787157518075e-06 0.0000000000000000e+00  8.1109778655813207e-05 -1.1836010224620220e-06 0.0000000000000000e+00  9.9037249850418967e-05 -6.5861931705553732e-07 0.0000000000000000e+00  1.1896904855225296e-04 6.2716140201375133e-07 0.0000000000000000e+00  1.3700505219988685e-04 3.2965359044327139e-06 0.0000000000000000e+00  1.3760419883217926e-04 7.9746474515052782e-06 0.0000000000000000e+00  6.1730056192754206e-05 1.2498875221389875e-05 0.0000000000000000e+00  0.0000000000000000e+00 0.0000000000000000e+00 0.0000000000000000e+00  0.0000000000000000e+00 0.0000000000000000e+00 0.0000000000000000e+00  0.0000000000000000e+00 0.0000000000000000e+00 0.0000000000000000e+00  0.0000000000000000e+00 0.0000000000000000e+00 0.0000000000000000e+00  0.0000000000000000e+00 0.0000000000000000e+00 0.0000000000000000e+00  0.0000000000000000e+00 0.0000000000000000e+00 0.0000000000000000e+00  0.0000000000000000e+00 0.0000000000000000e+00 0.0000000000000000e+00  0.0000000000000000e+00 0.0000000000000000e+00 0.0000000000000000e+00  0.0000000000000000e+00 0.0000000000000000e+00 0.000000000000000