<?xml version="1.0"?>
<VTKFile type="UnstructuredGrid"  version="0.1"  >
<UnstructuredGrid>
<Piece  NumberOfPoints="289" NumberOfCells="512">
<Points>
<DataArray  type="Float64"  NumberOfComponents="3"  format="ascii">0 0 0  0.0625 0 0  0.125 0 0  0.1875 0 0  0.25 0 0  0.3125 0 0  0.375 0 0  0.4375 0 0  0.5 0 0  0.5625 0 0  0.625 0 0  0.6875 0 0  0.75 0 0  0.8125 0 0  0.875 0 0  0.9375 0 0  1 0 0  0 0.0625 0  0.06242772049019766 0.06249453609438559 0  0.1248535714513392 0.06248895594999623 0  0.1872757180776972 0.0624831504629011 0  0.2496924311555698 0.06247702707373042 0  0.3121021757504541 0.06247052147450719 0  0.3745037462911829 0.0624636133513088 0  0.4368964675494592 0.0624563471025888 0  0.4992804831741152 0.06244885763886378 0  0.5616571536636424 0.06244139968358851 0  0.6240295795980401 0.06243437618922115 0  0.68640323949728 0.06242835819513286 0  0.7487866304785598 0.06242408952844218 0  0.8111913922393671 0.06242249783208509 0  0.8736296319609014 0.06242488999398253 0  0.936098088219405 0.06243429090783746 0  0.998499813704546 0.06246333727143009 0  0 0.125 0  0.06235739699486166 0.1249891885462023 0  0.1247110198935415 0.1249781370519413 0  0.1870571526632877 0.1249666184185955 0  0.2493922642535287 0.1249544359159553 0  0.3117131709706807 0.1249414453467995 0  0.3740172900393984 0.1249275856276053 0  0.4363030243539818 0.1249129201630518 0  0.4985703252241923 0.1248976900764266 0  0.5608214863299993 0.1248823772670526 0  0.6230622265710822 0.1248677691160822 0  0.6853031206536998 0.124855005811576 0  0.7475614359731957 0.1248455737389436 0  0.809863462173537 0.124841179135666 0  0.8722477257466517 0.1248433597692111 0  0.9347719582928902 0.1248522945988275 0  0.9975449633748602 0.1248614728325738 0  0 0.1875 0  0.06229094925647038 0.187484081709429 0  0.1245761512698736 0.187467785789897 0  0.1868499167787988 0.1874507506814121 0  0.2491067668978099 0.1874326534508901 0  0.3113416372215144 0.1874132396750828 0  0.3735502125646324 0.1873923665655551 0  0.4357294523541734 0.1873700640756671 0  0.4978783793054324 0.1873466178193444 0  0.5599992174059032 0.1873226744415803 0  0.6220989777560859 0.1872993622453024 0  0.684191602291841 0.1872784032560574 0  0.7463007933065067 0.1872621599571377 0  0.8084637189129499 0.1872534949339162 0  0.8707360443243292 0.1872551865659932 0  0.9331997231354683 0.1872683615526423 0  0.9959776094300186 0.1872891400700788 0  0 0.25 0  0.06223036487244977 0.2499793536927509 0  0.1244529335058772 0.249958174932799 0  0.1866599340407334 0.2499359464654501 0  0.2488437526947196 0.2499121894611075 0  0.3109971321748682 0.2498864965130881 0  0.3731135303658893 0.2498585827228287 0  0.4351877172420596 0.2498283629867042 0  0.4972167073761429 0.2497960644445855 0  0.5592011458563997 0.2497623821535182 0  0.6211472813115685 0.2497286806116406 0  0.6830696610917224 0.2496972283994884 0  0.7449946544180502 0.2496714183885933 0  0.8069648274830047 0.2496558569261239 0  0.8690440355889619 0.2496560878296778 0  0.9313228075804397 0.2496775793015662 0  0.9939227054495278 0.249723684897339 0  0 0.3125 0  0.06217770358136873 0.3124751597129128 0  0.1243455162337132 0.3124496156021848 0  0.1864934974714914 0.3124226730585863 0  0.2486117182553798 0.3123936646191903 0  0.3106903939044994 0.3123619793320352 0  0.3727201920418007 0.3123271139363856 0  0.4346928079209128 0.3122887578291411 0  0.496601928135684 0.3122469278021105 0  0.558444735598947 0.3122021727785604 0  0.6202241349289289 0.3121558710377745 0  0.6819518789275988 0.3121106372768581 0  0.7436527181915734 0.3120708329370366 0  0.8053695206659169 0.3120431102234917 0  0.867168944427863 0.312036790620731 0  0.929146628991869 0.3120636656750856 0  0.9914299278171785 0.3121365349363518 0  0 0.375 0  0.06213506447952348 0.3749716713055176 0  0.1242581727566948 0.3749424568440456 0  0.1863572027613868 0.3749114683631609 0  0.2484197966577129 0.3748778207416498 0  0.310433360905999 0.3748406489997508 0  0.3723852352746126 0.3747991479649633 0  0.4342631315906844 0.3747526496235465 0  0.496055984421702 0.3747007611966496 0  0.5577554080419913 0.3746435986955838 0  0.6193580094289557 0.3745821660846608 0  0.6808688446467998 0.3745189460851264 0  0.7423062809360782 0.3744587737937681 0  0.8037083613378743 0.374410029772441 0  0.8651403595841545 0.3743860565799988 0  0.9267024824125457 0.3744063839579819 0  0.9885356653077966 0.3744967826139707 0  0 0.4375 0  0.06210450932396368 0.4374690702642702 0  0.124195148928578 0.4374370741311591 0  0.1862577288320452 0.4374029256039003 0  0.2482774832709306 0.4373655053048367 0  0.3102388701643067 0.4373236554288061 0  0.3721255058684833 0.4372761933512441 0  0.4339203338195031 0.4372219592930418 0  0.495606181944176 0.4371599248554223 0  0.5571669451918986 0.4370894087519605 0  0.6185897376730035 0.4370104779428732 0  0.6798684823716361 0.4369246604184177 0  0.7410095032067332 0.4368361570974583 0  0.8020396537998951 0.4367537873399399 0  0.8630171767228045 0.4366938463798324 0  0.9240446087851057 0.4366836929672607 0  0.9852815930634417 0.4367649297379345 0  0 0.5 0  0.06208794020146825 0.4999675367134285 0  0.1241604138002031 0.4999338452008822 0  0.1862014534959575 0.4998976566676765 0  0.2481941087348307 0.4998576229845241 0  0.3101199866836536 0.4998122809121242 0  0.3719588612252301 0.4997600248631699 0  0.4336884286656565 0.4996990993407273 0  0.4952843567638953 0.4996276342067127 0  0.5567208865143997 0.4995437695665793 0  0.6179724244270782 0.499445962526787 0  0.6790168243012256 0.4993336521660476 0  0.7398413905143215 0.4992086033750824 0  0.800452936637069 0.4990774631245396 0  0.860893191022601 0.4989562721708571 0  0.9212598246105725 0.4988775600637121 0  0.9817307577983123 0.4988994030706807 0  0 0.5625 0  0.06208693652061759 0.5624672316492009 0  0.1241573204453742 0.5624331135411555 0  0.1861939125745651 0.5623962334523415 0  0.2481780608090494 0.5623550507304411 0  0.3100889483730654 0.5623078249825669 0  0.3719028072574233 0.5622525375686784 0  0.4335921303103211 0.5621868072202056 0  0.4951249821121506 0.5621078086350437 0  0.5564646386154353 0.562012221498763 0  0.6175700279264944 0.5618962817522205 0  0.6783978731961573 0.5617561090533296 0  0.7389081346920277 0.5615887081646734 0  0.7990753109985326 0.5613944942034698 0  0.8589090259448995 0.5611829733394267 0  0.9184867607371524 0.5609841116499491 0  0.9779966163917522 0.5608674837605527 0  0 0.625 0  0.06210256432634455 0.624968275563175 0  0.1241882022235562 0.6249351426370158 0  0.1862391377037227 0.6248991114160243 0  0.2482357945330342 0.6248585204095801 0  0.3101557573133976 0.624811431521093 0  0.3719725666114306 0.6247554997092728 0  0.4336543071755646 0.6246878046755463 0  0.4951619893591532 0.6246046293434394 0  0.5564478313753196 0.6245011704534781 0  0.6174538024927847 0.6243711818068722 0  0.6781113370248587 0.624206615742572 0  0.7383442411022236 0.6239975427667973 0  0.7980788470151465 0.6237332473619016 0  0.8572685349580467 0.6234069705279014 0  0.9159423241181071 0.6230300356344133 0  0.9742832451857205 0.6226649316648212 0  0 0.6875 0  0.06213517963911057 0.6874707261385435 0  0.1242539487452999 0.6874400672858622 0  0.1863389404727305 0.6874065455321393 0  0.248370720137213 0.6873684836731698 0  0.3103265197319872 0.6873238769050957 0  0.3721786678335636 0.6872702238950277 0  0.4338925771547548 0.687204291458628 0  0.4954241360294558 0.6871217717671317 0  0.5567163716276898 0.6870167643857494 0  0.6176953950960148 0.6868809723160639 0  0.6782661105387627 0.6867024458894126 0  0.7383094611843438 0.6864637016803973 0  0.7976861449617463 0.686139380828969 0  0.8562585401080471 0.6856954036118056 0  0.9139538541808552 0.6850982106078228 0  0.9708955910422292 0.6843591147848505 0  0 0.75 0  0.06218425541405833 0.7499745590534447 0  0.1243536240995047 0.7499478508920003 0  0.186492244635045 0.7499185142903934 0  0.2485821170258725 0.74988498458939 0  0.3106017335894695 0.7498453593832809 0  0.3725242944167279 0.7497972172274787 0  0.4343152735523514 0.7497373576506999 0  0.495929006001444 0.7496614082455521 0  0.5573038378652568 0.7495631984846268 0  0.6183552538424911 0.7494337014006666 0  0.678966413982908 0.7492591301763564 0  0.7389762167578695 0.7490173272858547 0  0.7981680370023848 0.7486707801679421 0  0.8562726051880177 0.7481540087373731 0  0.9130281789784589 0.7473585603844514 0  0.9683963854839965 0.7461718634701536 0  0 0.8125 0  0.06224826649261479 0.8124796561341281 0  0.124484202435024 0.8124582584102044 0  0.1866945954368786 0.8124346696553442 0  0.248864277734526 0.8124075717241325 0  0.3109748304554361 0.8123753454483621 0  0.3730028316891522 0.8123359087557473 0  0.4349173571700447 0.8122864866240203 0  0.4966762754682466 0.8122232699074687 0  0.5582205948064803 0.8121408850481052 0  0.6194656373777975 0.8120315122396581 0  0.6802870316161961 0.8118832583798854 0  0.7404983952141467 0.81167670009521 0  0.7998168886233086 0.811376355050233 0  0.85781780089205 0.8109070292984091 0  0.9139184330421729 0.8100834668124191 0  0.9676611421434028 0.8083904401007471 0  0 0.875 0  0.06232466578886715 0.8749858041485595 0  0.1246404960834493 0.8749708525938816 0  0.1869379826957282 0.8749543276933787 0  0.2492061150254896 0.8749352772385611 0  0.3114313596197135 0.8749125260705116 0  0.3735962446831586 0.8748845594796332 0  0.4356772776449423 0.8748493651450822 0  0.4976417420585625 0.8748042198554774 0  0.5594425802902054 0.8747454140995514 0  0.6210099103718557 0.874667935340283 0  0.6822363810665288 0.8745652039068412 0  0.7429506165312034 0.8744290807012717 0  0.8028659390615718 0.8742502884708236 0  0.8614735567879684 0.8740171824318901 0  0.9178062561348969 0.8736953416860253 0  0.969946693188779 0.873072760679806 0  0 0.9375 0  0.06240997560155355 0.9374927055379538 0  0.1248153328630395 0.9374850165587612 0  0.1872110881100839 0.9374765056663688 0  0.2495914383052529 0.9374666741436749 0  0.3119491961359009 0.9374549058191187 0  0.3742749945100011 0.9374404080388254 0  0.4365560957743369 
[...]
<PointData  Vectors="f_54"> 
<DataArray  type="Float64"  Name="f_54"  NumberOfComponents="3" format="ascii">0.0000000000000000e+00 0.0000000000000000e+00 0.0000000000000000e+00  0.0000000000000000e+00 0.0000000000000000e+00 0.0000000000000000e+00  0.0000000000000000e+00 0.0000000000000000e+00 0.0000000000000000e+00  0.0000000000000000e+00 0.0000000000000000e+00 0.0000000000000000e+00  0.0000000000000000e+00 0.0000000000000000e+00 0.0000000000000000e+00  0.0000000000000000e+00 0.0000000000000000e+00 0.0000000000000000e+00  0.0000000000000000e+00 0.0000000000000000e+00 0.0000000000000000e+00  0.0000000000000000e+00 0.0000000000000000e+00 0.0000000000000000e+00  0.0000000000000000e+00 0.0000000000000000e+00 0.0000000000000000e+00  0.0000000000000000e+00 0.0000000000000000e+00 0.0000000000000000e+00  0.0000000000000000e+00 0.0000000000000000e+00 0.0000000000000000e+00  0.0000000000000000e+00 0.0000000000000000e+00 0.0000000000000000e+00  0.0000000000000000e+00 0.0000000000000000e+00 0.0000000000000000e+00  0.0000000000000000e+00 0.0000000000000000e+00 0.0000000000000000e+00  0.0000000000000000e+00 0.0000000000000000e+00 0.0000000000000000e+00  0.0000000000000000e+00 0.0000000000000000e+00 0.0000000000000000e+00  0.0000000000000000e+00 0.0000000000000000e+00 0.0000000000000000e+00  0.0000000000000000e+00 0.0000000000000000e+00 0.0000000000000000e+00  1.4378678843486771e-07 -2.8204272182211130e-08 0.0000000000000000e+00  2.6395542919523276e-07 -5.7224079898874056e-08 0.0000000000000000e+00  3.3248255881112482e-07 -8.7924298098053721e-08 0.0000000000000000e+00  3.1196388252356694e-07 -1.2127480662140795e-07 0.0000000000000000e+00  1.4962795537085717e-07 -1.5844013202350615e-07 0.0000000000000000e+00  -2.3037730065458908e-07 -2.0092049059723518e-07 0.0000000000000000e+00  -9.3740357154487348e-07 -2.5077279660880662e-07 0.0000000000000000e+00  -2.1291303212137393e-06 -3.1095083461556099e-07 0.0000000000000000e+00  -4.0343538919173371e-06 -3.8582445435958196e-07 0.0000000000000000e+00  -6.9922120292177163e-06 -4.8199606203926390e-07 0.0000000000000000e+00  -1.1530023967644152e-05 -6.0972570642986936e-07 0.0000000000000000e+00  -1.8542184709547255e-05 -7.8591275971131696e-07 0.0000000000000000e+00  -2.9758930629645397e-05 -1.0415949768560461e-06 0.0000000000000000e+00  -4.9121440023555630e-05 -1.4429712009703827e-06 0.0000000000000000e+00  -8.7234599348806071e-05 -2.1517368029565382e-06 0.0000000000000000e+00  -1.7696066244653346e-04 -3.5886462745442540e-06 0.0000000000000000e+00  0.0000000000000000e+00 0.0000000000000000e+00 0.0000000000000000e+00  3.1088109264635700e-07 -5.5521994141845081e-08 0.0000000000000000e+00  5.7912214407523670e-07 -1.1262212328377464e-07 0.0000000000000000e+00  7.5384422369125808e-07 -1.7296205859319674e-07 0.0000000000000000e+00  7.6660535372578223e-07 -2.3838117336424480e-07 0.0000000000000000e+00  5.2022461126480837e-07 -3.1105265251409787e-07 0.0000000000000000e+00  -1.2549445109806801e-07 -3.9373392738961940e-07 0.0000000000000000e+00  -1.3726520869295668e-06 -4.9016449189139866e-07 0.0000000000000000e+00  -3.5110212547674234e-06 -6.0567879383126386e-07 0.0000000000000000e+00  -6.9547281053316908e-06 -7.4811629433111006e-07 0.0000000000000000e+00  -1.2298079666710115e-05 -9.2913338867603734e-07 0.0000000000000000e+00  -2.0408709134250437e-05 -1.1661049208122957e-06 0.0000000000000000e+00  -3.2598554454067730e-05 -1.4851544661376140e-06 0.0000000000000000e+00  -5.0957094952724699e-05 -1.9272214623630172e-06 0.0000000000000000e+00  -7.8981186015398351e-05 -2.5642601639957738e-06 0.0000000000000000e+00  -1.2245169201967638e-04 -3.5534363785509634e-06 0.0000000000000000e+00  -1.8842964349118367e-04 -5.3504437579381439e-06 0.0000000000000000e+00  0.0000000000000000e+00 0.0000000000000000e+00 0.0000000000000000e+00  5.2032488060609724e-07 -8.1187136067593548e-08 0.0000000000000000e+00  9.8743404791307887e-07 -1.6463154697460525e-07 0.0000000000000000e+00  1.3370392658488743e-06 -2.5268193692667278e-07 0.0000000000000000e+00  1.4811760684328492e-06 -3.4788104074630493e-07 0.0000000000000000e+00  1.2931099386800904e-06 -4.5314697965413173e-07 0.0000000000000000e+00  5.8815669355886563e-07 -5.7207754705231780e-07 0.0000000000000000e+00  -9.0121082645307807e-07 -7.0945307014030715e-07 0.0000000000000000e+00  -3.5578286772384798e-06 -8.7203393632254786e-07 0.0000000000000000e+00  -7.9220722694297151e-06 -1.0697505252736794e-06 0.0000000000000000e+00  -1.4746506919808800e-05 -1.3173251458971762e-06 0.0000000000000000e+00  -2.5065833007430729e-05 -1.6361542381069586e-06 0.0000000000000000e+00  -4.0282300600644743e-05 -2.0556720930744486e-06 0.0000000000000000e+00  -6.2248793523502865e-05 -2.6116088554334561e-06 0.0000000000000000e+00  -9.3251925243114742e-05 -3.3322015549491656e-06 0.0000000000000000e+00  -1.3551089196141478e-04 -4.1768101121304175e-06 0.0000000000000000e+00  -1.8901755564386245e-04 -4.7656527727228140e-06 0.0000000000000000e+00  0.0000000000000000e+00 0.0000000000000000e+00 0.0000000000000000e+00  7.8271358215078708e-07 -1.0451812334861948e-07 0.0000000000000000e+00  1.5129349070040152e-06 -2.1188413079135015e-07 0.0000000000000000e+00  2.1256037976690935e-06 -3.2501325837153394e-07 0.0000000000000000e+00  2.5286116836711939e-06 -4.4696115824009159e-07 0.0000000000000000e+00  2.5853407498036885e-06 -5.8107537456933019e-07 0.0000000000000000e+00  2.0923348517361883e-06 -7.3127619484997335e-07 0.0000000000000000e+00  7.5041280050647996e-07 -9.0256550501390051e-07 0.0000000000000000e+00  -1.8721747702071838e-06 -1.1019061870920374e-06 0.0000000000000000e+00  -6.3849392978692957e-06 -1.3396455273255488e-06 0.0000000000000000e+00  -1.3626478637275233e-05 -1.6316152680127384e-06 0.0000000000000000e+00  -2.4713509895875003e-05 -2.0017905863448186e-06 0.0000000000000000e+00  -4.1064898313784285e-05 -2.4846508155756678e-06 0.0000000000000000e+00  -6.4345502625693746e-05 -3.1246950148112257e-06 0.0000000000000000e+00  -9.6204011019920222e-05 -3.9676358193423957e-06 0.0000000000000000e+00  -1.3754554429087649e-04 -5.0367018743482875e-06 0.0000000000000000e+00  -1.8693028533729513e-04 -6.3164449856899230e-06 0.0000000000000000e+00  0.0000000000000000e+00 0.0000000000000000e+00 0.0000000000000000e+00  1.0972975392081977e-06 -1.2492333935373668e-07 0.0000000000000000e+00  2.1556409932429139e-06 -2.5322242035369171e-07 0.0000000000000000e+00  3.1236084199569221e-06 -3.8828692615474790e-07 0.0000000000000000e+00  3.9226248963493655e-06 -5.3352600853611602e-07 0.0000000000000000e+00  4.4289029431248885e-06 -6.9242715985853140e-07 0.0000000000000000e+00  4.4497576762491958e-06 -8.6871459240430231e-07 0.0000000000000000e+00  3.6922501327965775e-06 -1.0667202744554178e-06 0.0000000000000000e+00  1.7224584001102662e-06 -1.2921680903750168e-06 0.0000000000000000e+00  -2.0849770129161491e-06 -1.5536893194945941e-06 0.0000000000000000e+00  -8.6038732993130749e-06 -1.8655004236452317e-06 0.0000000000000000e+00  -1.9009128041607479e-05 -2.2516626109392122e-06 0.0000000000000000e+00  -3.4798350569239079e-05 -2.7519225304895178e-06 0.0000000000000000e+00  -5.7727537623086130e-05 -3.4277948836651265e-06 0.0000000000000000e+00  -8.9561314548988885e-05 -4.3647611002748428e-06 0.0000000000000000e+00  -1.3148854696857912e-04 -5.6628167033160749e-06 0.0000000000000000e+00  -1.8306218616824825e-04 -7.4070041509854784e-06 0.0000000000000000e+00  0.0000000000000000e+00 0.0000000000000000e+00 0.0000000000000000e+00  1.4504269633983996e-06 -1.4187529161838277e-07 0.0000000000000000e+00  2.8881645610609133e-06 -2.8764524904072416e-07 0.0000000000000000e+00  4.2899329130626352e-06 -4.4114969132853046e-07 0.0000000000000000e+00  5.6088863094782585e-06 -6.0608580049843829e-07 0.0000000000000000e+00  6.7580127209914130e-06 -7.8591718083500553e-07 0.0000000000000000e+00  7.5872233270087672e-06 -9.8379802658973340e-07 0.0000000000000000e+00  7.8513329288731772e-06 -1.2026075671126416e-06 0.0000000000000000e+00  7.1659038810293407e-06 -1.4453210113225424e-06 0.0000000000000000e+00  4.9483972891399431e-06 -1.7161794260144193e-06 0.0000000000000000e+00  3.4428547055591715e-07 -2.0234984147286454e-06 0.0000000000000000e+00  -7.8563931548630565e-06 -2.3854495506208896e-06 0.0000000000000000e+00  -2.1294146494070495e-05 -2.8405254470522431e-06 0.0000000000000000e+00  -4.2066290950220331e-05 -3.4639005474384369e-06 0.0000000000000000e+00  -7.2629385770365886e-05 -4.3877113474971195e-06 0.0000000000000000e+00  -1.1546497796165747e-04 -5.8138823390551494e-06 0.0000000000000000e+00  -1.7238755536082349e-04 -7.9864981737485007e-06 0.0000000000000000e+00  0.0000000000000000e+00 0.0000000000000000e+00 0.0000000000000000e+00  1.8156188370449195e-06 -1.5485607005820605e-07 0.0000000000000000e+00  3.6556504168811935e-06 -3.1418457789184491e-07 0.0000000000000000e+00  5.5376445748980763e-06 -4.8234608031574084e-07 0.0000000000000000e+00  7.4631247758603402e-06 -6.6341159860872458e-07 0.0000000000000000e+00  9.4048783064789008e-06 -8.6089490491212439e-07 0.0000000000000000e+00  1.1287678881357741e-05 -1.0773513156156817e-06 0.0000000000000000e+00  1.2958718814614394e-05 -1.3138559914033490e-06 0.0000000000000000e+00  1.4142701328394132e-05 -1.5695081228291093e-06 0.0000000000000000e+00  1.4375100752779082e-05 -1.8414214976360599e-06 0.0000000000000000e+00  1.2906166996622625e-05 -2.1263150348576556e-06 0.0000000000000000e+00  8.5693275073957509e-06 -2.4260153542062294e-06 0.0000000000000000e+00  -3.8619163155291709e-07 -2.7610382487429565e-06 0.0000000000000000e+00  -1.6481929503585012e-05 -3.1984373612294122e-06 0.0000000000000000e+00  -4.3164024337293318e-05 -3.8999297066148872e-06 0.0000000000000000e+00  -8.4812204338669195e-05 -5.1874042794591211e-06 0.0000000000000000e+00  -1.4641561013650957e-04 -7.5931007641123022e-06 0.0000000000000000e+00  0.0000000000000000e+00 0.0000000000000000e+00 0.0000000000000000e+00  2.1554508179635984e-06 -1.6328824200030419e-07 0.0000000000000000e+00  4.3794725441059626e-06 -3.3174001782810747e-07 0.0000000000000000e+00  6.7392293951952731e-06 -5.1039979964181479e-07 0.0000000000000000e+00  9.2972455326105355e-06 -7.0397638379301526e-07 0.0000000000000000e+00  1.2105318715650844e-05 -9.1643709331279541e-07 0.0000000000000000e+00  1.5192625657019943e-05 -1.1502757288022929e-06 0.0000000000000000e+00  1.8543708115605186e-05 -1.4053025813171561e-06 0.0000000000000000e+00  2.2059410530478729e-05 -1.6768457844694812e-06 0.0000000000000000e+00  2.5489900279797390e-05 -1.9534852729804376e-06 0.0000000000000000e+00  2.8323471330413392e-05 -2.2151514236334215e-06 0.0000000000000000e+00  2.9608463811116292e-05 -2.4341693981651283e-06 0.0000000000000000e+00  2.7680949698835723e-05 -2.5855208135434030e-06 0.0000000000000000e+00  1.9775350373938843e-05 -2.6791687907741680e-06 0.0000000000000000e+00  1.5259032215278527e-06 -2.8360352471001817e-06 0.0000000000000000e+00  -3.3546391230290332e-05 -3.4325921922662204e-06 0.0000000000000000e+00  -9.4296968035312385e-05 -5.3134285506142897e-06 0.0000000000000000e+00  0.0000000000000000e+00 0.0000000000000000e+00 0.0000000000000000e+00  2.4253751105052300e-06 -1.6647884892294126e-07 0.0000000000000000e+00  4.9649682831379581e-06 -3.3892853217248555e-07 0.0000000000000000e+00  7.7383414886469009e-06 -5.2328280810229144e-07 0.0000000000000000e+00  1.0874879060976971e-05 -7.2529094137196968e-07 0.0000000000000000e+00  1.4516987080509660e-05 -9.5011151352325774e-07 0.0000000000000000e+00  1.8819870346916954e-05 -1.2014133174338306e-06 0.0000000000000000e+00  2.3943989705212574e-05 -1.4796127622688558e-06 0.0000000000000000e+00  3.0032743270770506e-05 -1.7786997320459525e-06 0.0000000000000000e+00  3.7161711344378975e-05 -2.0809721669669018e-06 0.0000000000000000e+00  4.5235511843964148e-05 -2.3492132853355607e-06 0.0000000000000000e+00  5.3792400303606007e-05 -2.5172241659413235e-06 0.0000000000000000e+00  6.1654981175191038e-05 -2.4840858149143247e-06 0.0000000000000000e+00  6.6343007874228665e-05 -2.1288505708568930e-06 0.0000000000000000e+00  6.3162465974264656e-05 -1.3859983906293163e-06 0.0000000000000000e+00  4.3962157467932238e-05 -4.5865595356194055e-07 0.0000000000000000e+00  -4.1812052729091784e-06 -2.6458243099698640e-07 0.0000000000000000e+00  0.0000000000000000e+00 0.0000000000000000e+00 0.0000000000000000e+00  2.5793403517884860e-06 -1.6361546412359830e-07 0.0000000000000000e+00  5.3131111681646919e-06 -3.3403704887384660e-07 0.0000000000000000e+00  8.3682880107425170e-06 -5.1822669339529865e-07 0.0000000000000000e+00  1.1937497250515063e-05 -7.2337606247914157e-07 0.0000000000000000e+00  1.6253371007362959e-05 -9.5674090370654546e-07 0.0000000000000000e+00  2.1603792755995086e-05 -1.2249630229292468e-06 0.0000000000000000e+00  2.8346153355859617e-05 -1.5323424948740096e-06 0.0000000000000000e+00  3.6915292795868912e-05 -1.8770517893392893e-06 0.0000000000000000e+00  4.7812833195366897e-05 -2.2435097724845504e-06 0.0000000000000000e+00  6.1552141081088661e-05 -2.5880683692869305e-06 0.0000000000000000e+00  7.8508402520132149e-05 -2.8143190268694637e-06 0.0000000000000000e+00  9.8580591881948843e-05 -2.7358349735894433e-06 0.0000000000000000e+00  1.2050533889694921e-04 -2.0345239965288768e-06 0.0000000000000000e+00  1.4057770546124185e-04 -2.5824196467055490e-07 0.0000000000000000e+00  1.5048881859853078e-04 3.0066176246610001e-06 0.0000000000000000e+00  1.3418939301491101e-04 7.4790868151973394e-06 0.0000000000000000e+00  0.0000000000000000e+00 0.0000000000000000e+00 0.0000000000000000e+00  2.5767794419941083e-06 -1.5385449401735262e-07 0.0000000000000000e+00  5.3353414299695891e-06 -3.1517734528550394e-07 0.0000000000000000e+00  8.4764102284047429e-06 -4.9187701898285126e-07 0.0000000000000000e+00  1.2240834383782574e-05 -6.9274412073478288e-07 0.0000000000000000e+00  1.6935203360875983e-05 -9.2781136447433344e-07 0.0000000000000000e+00  2.2964210454659270e-05 -1.2084564912399297e-06 0.0000000000000000e+00  3.0871687092744106e-05 -1.5467738363791325e-06 0.0000000000000000e+00  4.1390605747021643e-05 -1.9530917555333252e-06 0.0000000000000000e+00  5.5497606653562509e-05 -2.4291348050838030e-06 0.0000000000000000e+00  7.4455811843084638e-05 -2.9515728609328544e-06 0.0000000000000000e+00  9.9802899553523878e-05 -3.4356943237211137e-06 0.0000000000000000e+00  1.3318440133435060e-04 -3.6614336747889843e-06 0.0000000000000000e+00  1.7581791265241085e-04 -3.1380016667216456e-06 0.0000000000000000e+00  2.2716128585964095e-04 -8.9955723920399659e-07 0.0000000000000000e+00  2.8202178870536797e-04 4.6645331641862409e-06 0.0000000000000000e+00  3.2515455094296917e-04 1.5454011082453174e-05 0.0000000000000000e+00  0.0000000000000000e+00 0.0000000000000000e+00 0.0000000000000000e+00  2.3900898037502444e-06 -1.3652370447914880e-07 0.0000000000000000e+00  4.9698111555944640e-06 -2.8071119561587779e-07 0.0000000000000000e+00  7.9518272863623115e-06 -4.4096504822887963e-07 0.0000000000000000e+00  1.1598625953797875e-05 -6.2729498671811340e-07 0.0000000000000000e+00  1.6256820929806553e-05 -8.5239236946086887e-07 0.0000000000000000e+00  2.2404255801919178e-05 -1.1330103454500747e-06 0.0000000000000000e+00  3.0716773186420198e-05 -1.4916241691414650e-06 0.0000000000000000e+00  4.2163510018788286e-05 -1.9579371432463223e-06 0.0000000000000000e+00  5.8140942082065654e-05 -2.5685694111528864e-06 0.0000000000000000e+00  8.0653669601116079e-05 -3.3599262010071751e-06 0.0000000000000000e+00  1.1253611701436919e-04 -4.3408247545941714e-06 0.0000000000000000e+00  1.5766388551198933e-04 -5.4118945497167892e-06 0.0000000000000000e+00  2.2097875941374333e-04 -6.1581213404344714e-06 0.0000000000000000e+00  3.0783655405195511e-04 -5.3726762398499350e-06 0.0000000000000000e+00  4.2141794133801225e-04 -1.2576855666085044e-07 0.0000000000000000e+00  5.5509019668986822e-04 1.5304942800391317e-05 0.0000000000000000e+00  0.0000000000000000e+00 0.0000000000000000e+00 0.0000000000000000e+00  2.0113019379278262e-06 -1.1141834904228314e-07 0.0000000000000000e+00  4.1962670176079834e-06 -2.2992104813276551e-07 0.0000000000000000e+00  6.7519832281366167e-06 -3.6351922416176313e-07 0.0000000000000000e+00  9.9269729666957990e-06 -5.2232949612730039e-07 0.0000000000000000e+00  1.4058543398920755e-05 -7.2027116546968593e-07 0.0000000000000000e+00  1.9626980400639915e-05 -9.7775571167034923e-07 0.0000000000000000e+00  2.7337758721738630e-05 -1.3261154311217742e-06 0.0000000000000000e+00  3.8249290928057448e-05 -1.8149381263250843e-06 0.0000000000000000e+00  5.3973770842445836e-05 -2.5238848640739081e-06 0.0000000000000000e+00  7.6993399585226587e-05 -3.5801622244618322e-06 0.0000000000000000e+00  1.1115264340680640e-04 -5.1785049552703373e-06 0.0000000000000000e+00  1.6239926122654910e-04 -7.5820111804890742e-06 0.0000000000000000e+00  2.3981306840172926e-04 -1.1018111174872722e-05 0.0000000000000000e+00  3.5675444859320651e-04 -1.5183006332378529e-05 0.0000000000000000e+00  5.3123195545128575e-04 -1.7435711267108990e-05 0.0000000000000000e+00  7.8260972341401129e-04 -6.1732049398861386e-06 0.0000000000000000e+00  0.0000000000000000e+00 0.0000000000000000e+00 0.0000000000000000e+00  1.4563780445356432e-06 -7.9111198158727955e-08 0.0000000000000000e+00  3.0460834596565566e-06 -1.6375730758257177e-07 0.0000000000000000e+00  4.9217789026359506e-06 -2.6035186958185036e-07 0.0000000000000000e+00  7.2790424205755744e-06 -3.7736036088027663e-07 0.0000000000000000e+00  1.0388772357100835e-05 -5.2713743797606610e-07 0.0000000000000000e+00  1.4646078612033368e-05 -7.2914598449082328e-07 0.0000000000000000e+00  2.0647994539269529e-05 -1.0159416923581915e-06 0.0000000000000000e+00  2.9321223263788726e-05 -1.4447412330044656e-06 0.0000000000000000e+00  4.2137367483608986e-05 -2.1204384193624176e-06 0.0000000000000000e+00  6.1482734876678531e-05 -3.2423840449771556e-06 0.0000000000000000e+00  9.1303772396468918e-05 -5.2006921542224649e-06 0.0000000000000000e+00  1.3824632869352516e-04 -8.7748826334232002e-06 0.0000000000000000e+00  2.1367299290285104e-04 -1.5538876893310578e-05 0.0000000000000000e+00  3.3714469711482279e-04 -2.8664719346896765e-05 0.0000000000000000e+00  5.4151346072567406e-04 -5.4432616268789970e-05 0.0000000000000000e+00  8.7446109907984382e-04 -1.0444689431479264e-04 0.0000000000000000e+00  0.0000000000000000e+00 0.0000000000000000e+00 0.0000000000000000e+00  7.6570713725727883e-07 -4.1147921674933266e-08 0.0000000000000000e+00  1.6040706975834830e-06 -8.5356666981158517e-08 0.0000000000000000e+00  2.5987788092898048e-06 -1.3623028826626490e-07 0.0000000000000000e+00  3.8581812012360508e-06 -1.9866298445453808e-07 0.0000000000000000e+00  5.5344099159954759e-06 -2.8006643108448107e-07 0.0000000000000000e+00  7.8529907006509192e-06 -3.9264373270570400e-07 0.0000000000000000e+00  1.1161378413905959e-05 -5.5790288873965234e-07 0.0000000000000000e+00  1.6011644299089798e-05 -8.1609978637522043e-07 0.0000000000000000e+00  2.3305540009177580e-05 -1.2469527830773892e-06 0.0000000000000000e+00  3.4554456092326363e-05 -2.0171508530385263e-06 0.0000000000000000e+00  5.2348701383635037e-05 -3.4937126524898627e-06 0.0000000000000000e+00  8.1185136136715781e-05 -6.5224035150934825e-06 0.0000000000000000e+00  1.2878796133054045e-04 -1.3116499776934870e-05 0.0000000000000000e+00  2.0755937967960325e-04 -2.8100030633816791e-05 0.0000000000000000e+00  3.3333342137574837e-04 -6.2528206605895066e-05 0.0000000000000000e+00  5.1087512010400209e-04 -1.3785513431095601e-04 0.0000000000000000e+00  0.0000000000000000e+00 0.0000000000000000e+00 0.0000000000000000e+00  0.0000000000000000e+00 0.0000000000000000e+00 0.0000000000000000e+00  0.0000000000000000e+00 0.0000000000000000e+00 0.0000000000000000e+00  0.0000000000000000e+00 0.0000000000000000e+00 0.0000000000000000e+00  0.0000000000000000e+00 0.0000000000000000e+00 0.0000000000000000e+00  0.0000000000000000e+00 0.0000000000000000e+00 0.0000000000000000e+00  0.0000000000000000e+00 0.0000000000000000e+00 0.0000000000000000e+00  0.0000000000000000e+00 0.0000000000000000e+00 0.0000000000000000