<?xml version="1.0"?>
<VTKFile type="UnstructuredGrid"  version="0.1"  >
<UnstructuredGrid>
<Piece  NumberOfPoints="289" NumberOfCells="512">
<Points>
<DataArray  type="Float64"  NumberOfComponents="3"  format="ascii">0 0 0  0.0625 0 0  0.125 0 0  0.1875 0 0  0.25 0 0  0.3125 0 0  0.375 0 0  0.4375 0 0  0.5 0 0  0.5625 0 0  0.625 0 0  0.6875 0 0  0.75 0 0  0.8125 0 0  0.875 0 0  0.9375 0 0  1 0 0  0 0.0625 0  0.06251240476086953 0.06248064863561493 0  0.1250259801008926 0.06246095707565042 0  0.1875420163392197 0.06244061277774732 0  0.2500620835517628 0.06241937450941449 0  0.3125882113526293 0.06239711775245546 0  0.375123124760055 0.06237389033790651 0  0.4376705727869211 0.06234997768195532 0  0.5002358160311007 0.06232597109100626 0  0.5628264100466223 0.06230282160050927 0  0.6254535986997818 0.06228184205158939 0  0.6881351043129694 0.06226458427122397 0  0.7509014361738302 0.06225244626070378 0  0.8138118398144638 0.06224568389350787 0  0.8769987209477611 0.06224091606688458 0  0.9408022825038332 0.06222398992201693 0  1.00621540791294 0.0621470208453506 0  0 0.125 0  0.06252361805222521 0.1249616225223106 0  0.1250494568030817 0.1249225288701608 0  0.1875799676502949 0.1248820544367603 0  0.2501181420000393 0.1248396694674118 0  0.3126678589686252 0.1247950678014309 0  0.3752343399911103 0.1247482793755001 0  0.4378247731946417 0.1246998083384039 0  0.5004492100327648 0.1246507889919311 0  0.5631219206047008 0.1246031333006578 0  0.6258635764291219 0.1245596112593411 0  0.6887050247141764 0.1245237541943617 0  0.7516942321369151 0.12449940650766 0  0.8149093904914059 0.1244897358665688 0  0.878482238143045 0.1244958823109385 0  0.9426280815112877 0.1245177749422481 0  1.00761822630219 0.1245707733743595 0  0 0.1875 0  0.06253262186216971 0.1874433039241667 0  0.1250682704273787 0.1873854502899107 0  0.187610291480921 0.1873253490118931 0  0.2501627803163709 0.1872620912315628 0  0.3127310651790629 0.1871950753076017 0  0.3753223363033456 0.1871241750884724 0  0.4379464940508191 0.1870499601365995 0  0.5006173168745556 0.1869739680766289 0  0.5633540925938249 0.18689900845176 0  0.626183917639069 0.1868294367238077 0  0.689144925371444 0.1867712631345518 0  0.7522906096857057 0.1867318322884493 0  0.8156945638592528 0.1867185722421814 0  0.8794513915102862 0.1867357494683906 0  0.9436582918935614 0.1867762048470785 0  1.008336749132798 0.1867964683909289 0  0 0.25 0  0.06253864675840096 0.2499261397504923 0  0.1250807826367492 0.2498505944890292 0  0.1876302702142234 0.2497717495899541 0  0.2501918544706033 0.2496881893200471 0  0.3127717362493774 0.2495988471676286 0  0.3753783201278553 0.2495032211792059 0  0.4380232143214297 0.2494016780364806 0  0.5007225698783572 0.2492958659018817 0  0.5634988405050779 0.2491892417133325 0  0.6263829876441592 0.2490876821640901 0  0.6894169573626484 0.2490000693537075 0  0.7526556941036995 0.2489385898397041 0  0.8161665391061725 0.248918211054047 0  0.8800207358810723 0.2489543544338523 0  0.9442664620728993 0.2490573311295091 0  1.00886955582914 0.2492234437333831 0  0 0.3125 0  0.06254126090450032 0.3124106613588511 0  0.1250860670460174 0.31231901802145 0  0.1876383489395217 0.3122228203521761 0  0.2502029557416021 0.3121199937028827 0  0.3127862637797656 0.3120087905134312 0  0.37539698365294 0.3118880302240951 0  0.4380472539440258 0.3117574697044715 0  0.5007541151695876 0.3116183556270103 0  0.5635414345726237 0.3114742139842788 0  0.6264422533642734 0.3113319188687663 0  0.6895012577134361 0.3112030283370745 0  0.7527764660840062 0.3111052353022147 0  0.8163380627939708 0.3110634894243371 0  0.8802605815850889 0.3111098449777092 0  0.9446035179318439 0.3112804691687698 0  1.009379518213412 0.311607976990568 0  0 0.375 0  0.06254042213142749 0.3748974897811169 0  0.1250840231404992 0.3747919771127747 0  0.1876343307536286 0.3746804767061826 0  0.2501957159669 0.374560101241734 0  0.3127739723419866 0.3744281816625166 0  0.3753771133156527 0.3742824905634893 0  0.4380164985594928 0.3741216308824568 0  0.5007084254185755 0.3739456790121701 0  0.5634763295626087 0.3737572057614447 0  0.626353689704704 0.3735628329308542 0  0.6893875455423852 0.3733754936215462 0  0.7526420936858871 0.3732174909367758 0  0.816201019014489 0.3731241707434543 0  0.8801662271608736 0.3731473512315586 0  0.9446505865866341 0.3733564327381651 0  1.009766024485999 0.3738335182759749 0  0 0.4375 0  0.06253648625798099 0.4373873207386195 0  0.1250753996218217 0.4372709025096722 0  0.1876194292156958 0.4371469614054581 0  0.2501719120715848 0.4370116754645594 0  0.3127373078290299 0.4368612304514978 0  0.3753218959995691 0.4366919665737873 0  0.4379348368980454 0.4365007007463204 0  0.5005898043786746 0.4362853458917599 0  0.5633074860197765 0.4360460221747621 0  0.6261193375087797 0.4357869616008474 0  0.6890730192401361 0.4355196400985047 0  0.7522398167712725 0.4352676756482428 0  0.8157238721857143 0.4350739312255247 0  0.8796721499891611 0.4350095539081149 0  0.9442833553905899 0.4351827637056088 0  1.009816045795953 0.4357419431935247 0  0 0.5 0  0.06253016754575984 0.4998808848914639 0  0.1250617178747417 0.4997573218450322 0  0.187596162014095 0.4996247347660016 0  0.2501353473732061 0.4994783193874901 0  0.3126817436956313 0.4993129692687799 0  0.3752389220493592 0.4991232737833337 0  0.4378123871762914 0.4989036582713025 0  0.5004110431623964 0.4986487970054789 0  0.5630497730754366 0.4983545382453267 0  0.6257539280539713 0.4980197699863326 0  0.6885669609739252 0.4976499669276251 0  0.7515629167586816 0.4972636133364135 0  0.8148656668049271 0.4969031650232454 0  0.878675927781718 0.4966520794630904 0  0.9433047062632181 0.4966570648994834 0  1.009210742110963 0.4971478119731174 0  0 0.5625 0  0.0625224502547202 0.5623788817407126 0  0.1250450910419785 0.5622527241754284 0  0.1875680725397267 0.5621162647731164 0  0.2500914783314885 0.5619637885446378 0  0.3126153413849516 0.5617888979663638 0  0.3751397687935286 0.5615842949929252 0  0.4376653175178588 0.5613416156310844 0  0.5001939213016513 0.5610514139230102 0  0.5627309789239505 0.5607035092037972 0  0.6252897967691343 0.5602881514075726 0  0.6879006034520445 0.5597989471993937 0  0.7506279520375218 0.5592394380420658 0  0.813602232412898 0.5586368763571662 0  0.8770716625297623 0.5580688432022348 0  0.941476717314276 0.5577080453995342 0  1.007537521039468 0.5578795724861516 0  0 0.625 0  0.06251445515832206 0.6248818906519621 0  0.125027943198752 0.6247583720172496 0  0.1875392763737971 0.6246237201236803 0  0.2500467590445031 0.6244715359450872 0  0.3125478787376333 0.6242943465220855 0  0.3750389579707438 0.6240831334165275 0  0.4375148288967677 0.623826772724382 0  0.4999687390581659 0.6235113963356258 0  0.5623930414975618 0.6231197567236807 0  0.6247819984257456 0.6226308713960399 0  0.6871396852633693 0.6220207275991056 0  0.749499273744999 0.6212661206082656 0  0.8119656938837517 0.6203569012742649 0  0.8748007580629333 0.6193290142680408 0  0.9385691477029799 0.6183410911176231 0  1.00433840600658 0.6178083029011457 0  0 0.6875 0  0.06250727260189855 0.687390269002303 0  0.1250126495608284 0.6872750808387662 0  0.1875138560744231 0.6871485952845146 0  0.250007711361465 0.6870041233624807 0  0.3124894969233766 0.6868335834570671 0  0.3749520916854318 0.6866267941234522 0  0.4373847883876124 0.6863705167636278 0  0.4997717579818561 0.6860471319232249 0  0.5620903448845971 0.685632801986481 0  0.6243100506703168 0.6850949734692463 0  0.6863949388146371 0.6843892382736578 0  0.7483170266784905 0.6834564178030954 0  0.8100997353452171 0.6822241580667348 0  0.8719339579967068 0.6806300821913011 0  0.9344356303501593 0.6787250469764181 0  0.9990570854205644 0.6769617752619168 0  0 0.75 0  0.06250178380535464 0.7499040539401802 0  0.1250011423327518 0.7498030013102589 0  0.1874951721142271 0.7496913262811181 0  0.2499798052001675 0.7495625873765548 0  0.3124489395615813 0.7494087936487829 0  0.3748931494811062 0.7492195493262168 0  0.4372977089531612 0.7489808192932904 0  0.499639540176319 0.7486730817025172 0  0.5618825795080005 0.7482684815158295 0  0.6239711185188161 0.7477263225051117 0  0.6858216178578461 0.7469857348543014 0  0.7473176334406605 0.7459535457021037 0  0.8083272570081566 0.7444848490458056 0  0.8688102387081581 0.7423594385276463 0  0.9292160339309927 0.7393135625223426 0  0.9913303668678101 0.7356514153425925 0  0 0.8125 0  0.06249850202979037 0.8124228884252321 0  0.1249945520576325 0.8123414504086629 0  0.1874852112655408 0.8122509793140716 0  0.2499663402952582 0.8121458970006438 0  0.3124316616673133 0.8120191475910719 0  0.374871299373389 0.8118613404985493 0  0.4372693913693996 0.8116594721936852 0  0.49960006687759 0.8113949450762179 0  0.5618205285486648 0.8110403930130846 0  0.6238590234022741 0.8105544015641573 0  0.6855940485749968 0.809872266350715 0  0.7468200225509164 0.8088885642988061 0  0.8071995077163266 0.8074208599503979 0  0.8662424649501141 0.8051258262523431 0  0.9235898745279584 0.8012900203812343 0  0.9816319800497376 0.7942789243600052 0  0 0.875 0  0.062497470350338 0.8749459917907377 0  0.1249929698950422 0.8748888379648385 0  0.1874841337912098 0.874825099347466 0  0.24996761704515 0.8747506582018509 0  0.3124383072564419 0.8746602374035221 0  0.3748880604785746 0.8745467099809843 0  0.4373035514328231 0.8744000555628978 0  0.4996624569691404 0.8742057315530343 0  0.5619264095693635 0.8739420758366705 0  0.6240274659078241 0.873576096164321 0  0.685841077855234 0.8730564955150227 0  0.7471300821231683 0.8723014746776063 0  0.8074253430032378 0.8711739756608732 0  0.8657698136001065 0.8694151563244937 0  0.9201966850611161 0.8664087416781538 0  0.9668886246417927 0.860221018170272 0  0 0.9375 0  0.06249824801061458 0.9374721888157428 0  0.1249954085298281 0.9374427219301762 0  0.1874901768061749 0.9374097838984151 0  0.2499807048492479 0.9373711883476094 0  0.3124641596791463 0.9373241127312776 0  0.3749360039988582 0.9372647150226873 0  0.4373887498480926 0.93718755
[...]
<PointData  Vectors="f_54"> 
<DataArray  type="Float64"  Name="f_54"  NumberOfComponents="3" format="ascii">0.0000000000000000e+00 0.0000000000000000e+00 0.0000000000000000e+00  0.0000000000000000e+00 0.0000000000000000e+00 0.0000000000000000e+00  0.0000000000000000e+00 0.0000000000000000e+00 0.0000000000000000e+00  0.0000000000000000e+00 0.0000000000000000e+00 0.0000000000000000e+00  0.0000000000000000e+00 0.0000000000000000e+00 0.0000000000000000e+00  0.0000000000000000e+00 0.0000000000000000e+00 0.0000000000000000e+00  0.0000000000000000e+00 0.0000000000000000e+00 0.0000000000000000e+00  0.0000000000000000e+00 0.0000000000000000e+00 0.0000000000000000e+00  0.0000000000000000e+00 0.0000000000000000e+00 0.0000000000000000e+00  0.0000000000000000e+00 0.0000000000000000e+00 0.0000000000000000e+00  0.0000000000000000e+00 0.0000000000000000e+00 0.0000000000000000e+00  0.0000000000000000e+00 0.0000000000000000e+00 0.0000000000000000e+00  0.0000000000000000e+00 0.0000000000000000e+00 0.0000000000000000e+00  0.0000000000000000e+00 0.0000000000000000e+00 0.0000000000000000e+00  0.0000000000000000e+00 0.0000000000000000e+00 0.0000000000000000e+00  0.0000000000000000e+00 0.0000000000000000e+00 0.0000000000000000e+00  0.0000000000000000e+00 0.0000000000000000e+00 0.0000000000000000e+00  0.0000000000000000e+00 0.0000000000000000e+00 0.0000000000000000e+00  -4.4663276971691786e-06 -2.2033363467440325e-07 0.0000000000000000e+00  -9.0600388795836139e-06 -4.4274997898368069e-07 0.0000000000000000e+00  -1.3910728285218166e-05 -6.6876449188763738e-07 0.0000000000000000e+00  -1.9146690658343602e-05 -8.9840568826278396e-07 0.0000000000000000e+00  -2.4893146846305170e-05 -1.1292609131852706e-06 0.0000000000000000e+00  -3.1268977437829879e-05 -1.3552779138177273e-06 0.0000000000000000e+00  -3.8381599866478468e-05 -1.5652751237520508e-06 0.0000000000000000e+00  -4.6320031606865390e-05 -1.7411554121965140e-06 0.0000000000000000e+00  -5.5147366093786673e-05 -1.8558527315389131e-06 0.0000000000000000e+00  -6.4897216239146827e-05 -1.8709400514067303e-06 0.0000000000000000e+00  -7.5588306782218466e-05 -1.7330826969992023e-06 0.0000000000000000e+00  -8.7300950526264450e-05 -1.3652551169198387e-06 0.0000000000000000e+00  -1.0045662781158232e-04 -6.3578057598412244e-07 0.0000000000000000e+00  -1.1678928445724111e-04 7.6228739727808209e-07 0.0000000000000000e+00  -1.4286036385192762e-04 3.7999911455465950e-06 0.0000000000000000e+00  -2.0436362332088381e-04 1.2286144541380137e-05 0.0000000000000000e+00  0.0000000000000000e+00 0.0000000000000000e+00 0.0000000000000000e+00  -8.8042933686912130e-06 -4.3853183368771863e-07 0.0000000000000000e+00  -1.7864244120886876e-05 -8.8194204896106056e-07 0.0000000000000000e+00  -2.7440213734036198e-05 -1.3340532962727915e-06 0.0000000000000000e+00  -3.7791129866056769e-05 -1.7958833637582297e-06 0.0000000000000000e+00  -4.9171531820299808e-05 -2.2638045322190776e-06 0.0000000000000000e+00  -6.1825552672981705e-05 -2.7271819917005970e-06 0.0000000000000000e+00  -7.5976834591707517e-05 -3.1653736175791326e-06 0.0000000000000000e+00  -9.1813696712346639e-05 -3.5440744266490897e-06 0.0000000000000000e+00  -1.0946987911549704e-04 -3.8111763749151442e-06 0.0000000000000000e+00  -1.2900372235390804e-04 -3.8926018529078569e-06 0.0000000000000000e+00  -1.5038440632069623e-04 -3.6889327036609124e-06 0.0000000000000000e+00  -1.7350550248470970e-04 -3.0741757924948248e-06 0.0000000000000000e+00  -1.9826272190774872e-04 -1.9003126504661688e-06 0.0000000000000000e+00  -2.2471455154337948e-04 -2.7817367450955303e-08 0.0000000000000000e+00  -2.5299211259588369e-04 2.4901512125344680e-06 0.0000000000000000e+00  -2.8002707095702950e-04 4.2883974686943951e-06 0.0000000000000000e+00  0.0000000000000000e+00 0.0000000000000000e+00 0.0000000000000000e+00  -1.2883021641363736e-05 -6.5165740488936173e-07 0.0000000000000000e+00  -2.6150821491533800e-05 -1.3123163259430890e-06 0.0000000000000000e+00  -4.0195861341656146e-05 -1.9895950927535188e-06 0.0000000000000000e+00  -5.5411200878209454e-05 -2.6873428912318278e-06 0.0000000000000000e+00  -7.2187520789756906e-05 -3.4030692003199008e-06 0.0000000000000000e+00  -9.0905502610533716e-05 -4.1245226778231433e-06 0.0000000000000000e+00  -1.1192165075497947e-04 -4.8251669755371834e-06 0.0000000000000000e+00  -1.3554545366985905e-04 -5.4584244890122433e-06 0.0000000000000000e+00  -1.6200569083518927e-04 -5.9508759321015775e-06 0.0000000000000000e+00  -1.9140356359117331e-04 -6.1953001870734519e-06 0.0000000000000000e+00  -2.2364909783679235e-04 -6.0458693568854605e-06 0.0000000000000000e+00  -2.5837040680895697e-04 -5.3207424800751950e-06 0.0000000000000000e+00  -2.9475671050017852e-04 -3.8235698866923414e-06 0.0000000000000000e+00  -3.3119405266986894e-04 -1.4089553163986691e-06 0.0000000000000000e+00  -3.6424148592159925e-04 1.8623108593890804e-06 0.0000000000000000e+00  -3.8579616858045812e-04 5.4927047684292724e-06 0.0000000000000000e+00  0.0000000000000000e+00 0.0000000000000000e+00 0.0000000000000000e+00  -1.6571313402335934e-05 -8.5545796020881445e-07 0.0000000000000000e+00  -3.3656239421581754e-05 -1.7258029435955851e-06 0.0000000000000000e+00  -5.1779728409736161e-05 -2.6244571167607130e-06 0.0000000000000000e+00  -7.1472455063213033e-05 -3.5606661350109239e-06 0.0000000000000000e+00  -9.3269608927446231e-05 -4.5364764174646289e-06 0.0000000000000000e+00  -1.1770371765987533e-04 -5.5424892740760074e-06 0.0000000000000000e+00  -1.4528863607596602e-04 -6.5519051695780758e-06 0.0000000000000000e+00  -1.7649103001107175e-04 -7.5124071612893019e-06 0.0000000000000000e+00  -2.1168451721265288e-04 -8.3356844788304001e-06 0.0000000000000000e+00  -2.5107957629153205e-04 -8.8851530573659406e-06 0.0000000000000000e+00  -2.9461780056613959e-04 -8.9642410464708992e-06 0.0000000000000000e+00  -3.4180779645620943e-04 -8.3114565997212593e-06 0.0000000000000000e+00  -3.9145240085349268e-04 -6.6158767430945217e-06 0.0000000000000000e+00  -4.4115757216154879e-04 -3.5792637948498912e-06 0.0000000000000000e+00  -4.8642600010499352e-04 9.3294191752612955e-07 0.0000000000000000e+00  -5.1919172835242927e-04 6.6015040718604570e-06 0.0000000000000000e+00  0.0000000000000000e+00 0.0000000000000000e+00 0.0000000000000000e+00  -1.9739085363030018e-05 -1.0439470643530572e-06 0.0000000000000000e+00  -4.0117663797251204e-05 -2.1105871321777923e-06 0.0000000000000000e+00  -6.1791026742986086e-05 -3.2213909302635489e-06 0.0000000000000000e+00  -8.5429123463051263e-05 -4.3940087900553491e-06 0.0000000000000000e+00  -1.1171948847981688e-04 -5.6392323476638052e-06 0.0000000000000000e+00  -1.4136348383180923e-04 -6.9563871699260708e-06 0.0000000000000000e+00  -1.7506224544221478e-04 -8.3263497407141536e-06 0.0000000000000000e+00  -2.1348739532532729e-04 -9.7011805309437868e-06 0.0000000000000000e+00  -2.5722972341688920e-04 -1.0989255010166886e-05 0.0000000000000000e+00  -3.0671632677230058e-04 -1.2035042824646426e-05 0.0000000000000000e+00  -3.6208233699261535e-04 -1.2593970743511487e-05 0.0000000000000000e+00  -4.2297579059839499e-04 -1.2306350561594314e-05 0.0000000000000000e+00  -4.8826145041659403e-04 -1.0682158409224740e-05 0.0000000000000000e+00  -5.5557414660973344e-04 -7.1226454397484370e-06 0.0000000000000000e+00  -6.2068258640115778e-04 -1.0245843464521272e-06 0.0000000000000000e+00  -6.7676454801607561e-04 7.9722216470020481e-06 0.0000000000000000e+00  0.0000000000000000e+00 0.0000000000000000e+00 0.0000000000000000e+00  -2.2260283824054994e-05 -1.2092650848517757e-06 0.0000000000000000e+00  -4.5278459317656117e-05 -2.4507379414125076e-06 0.0000000000000000e+00  -6.9833504779709534e-05 -3.7560233765466494e-06 0.0000000000000000e+00  -9.6732094859434470e-05 -5.1541893459297206e-06 0.0000000000000000e+00  -1.2681840965990973e-04 -6.6693219869534980e-06 0.0000000000000000e+00  -1.6097748461900367e-04 -8.3163310975938573e-06 0.0000000000000000e+00  -2.0012812795421162e-04 -1.0093884963441476e-05 0.0000000000000000e+00  -2.4519967243361062e-04 -1.1972791832681997e-05 0.0000000000000000e+00  -2.9708449970909873e-04 -1.3877373943769224e-05 0.0000000000000000e+00  -3.5655543681580677e-04 -1.5656517476390718e-05 0.0000000000000000e+00  -4.2413407435301561e-04 -1.7040641837927515e-05 0.0000000000000000e+00  -4.9989364830410566e-04 -1.7582254723393988e-05 0.0000000000000000e+00  -5.8318061780075867e-04 -1.6584186647063503e-05 0.0000000000000000e+00  -6.7224852748076216e-04 -1.3036070659546941e-05 0.0000000000000000e+00  -7.6383181309470948e-04 -5.6099263270979439e-06 0.0000000000000000e+00  -8.5277652871910959e-04 7.1978642913256481e-06 0.0000000000000000e+00  0.0000000000000000e+00 0.0000000000000000e+00 0.0000000000000000e+00  -2.4017548122922698e-05 -1.3419091727885477e-06 0.0000000000000000e+00  -4.8897399375515273e-05 -2.7266016165811415e-06 0.0000000000000000e+00  -7.5528914849251231e-05 -4.1972512723249420e-06 0.0000000000000000e+00  -1.0484597837819300e-04 -5.7967516038461961e-06 0.0000000000000000e+00  -1.3784646554633161e-04 -7.5665961316466175e-06 0.0000000000000000e+00  -1.7560671133765322e-04 -9.5441731226066727e-06 0.0000000000000000e+00  -2.1928715044769890e-04 -1.1757211883228285e-05 0.0000000000000000e+00  -2.7012312837635359e-04 -1.4213194577778568e-05 0.0000000000000000e+00  -3.2939197938064484e-04 -1.6879970938724344e-05 0.0000000000000000e+00  -3.9834415119286418e-04 -1.9651280995212703e-05 0.0000000000000000e+00  -4.7808357814853829e-04 -2.2287283415479530e-05 0.0000000000000000e+00  -5.6938351340588434e-04 -2.4316374701243011e-05 0.0000000000000000e+00  -6.7243414510351316e-04 -2.4884395524089938e-05 0.0000000000000000e+00  -7.8654522019649357e-04 -2.2550496512534591e-05 0.0000000000000000e+00  -9.0987410541147498e-04 -1.5069966813908455e-05 0.0000000000000000e+00  -1.0393004503175620e-03 7.2804185426478160e-07 0.0000000000000000e+00  0.0000000000000000e+00 0.0000000000000000e+00 0.0000000000000000e+00  -2.4908688664620287e-05 -1.4313933911627786e-06 0.0000000000000000e+00  -5.0761809648473690e-05 -2.9161149112958079e-06 0.0000000000000000e+00  -7.8537149667700878e-05 -4.5091649450232529e-06 0.0000000000000000e+00  -1.0927652873961728e-04 -6.2683338447186940e-06 0.0000000000000000e+00  -1.4411728218098751e-04 -8.2551227108847492e-06 0.0000000000000000e+00  -1.8432165409749122e-04 -1.0534729604873699e-05 0.0000000000000000e+00  -2.3130109767683090e-04 -1.3174068510511266e-05 0.0000000000000000e+00  -2.8662990465588492e-04 -1.6235719482186780e-05 0.0000000000000000e+00  -3.5203882533271422e-04 -1.9763573920689907e-05 0.0000000000000000e+00  -4.2937456661788222e-04 -2.3751776841360933e-05 0.0000000000000000e+00  -5.2050672227250071e-04 -2.8080841490622726e-05 0.0000000000000000e+00  -6.2716437375672754e-04 -3.2391851539177694e-05 0.0000000000000000e+00  -7.5070092682539874e-04 -3.5852460943589987e-05 0.0000000000000000e+00  -8.9183557036759376e-04 -3.6759277422777870e-05 0.0000000000000000e+00  -1.0505144053212989e-03 -3.1956432190018349e-05 0.0000000000000000e+00  -1.2261237871835679e-03 -1.6164583135081604e-05 0.0000000000000000e+00  0.0000000000000000e+00 0.0000000000000000e+00 0.0000000000000000e+00  -2.4854751785463742e-05 -1.4673394490536775e-06 0.0000000000000000e+00  -5.0704271427202492e-05 -2.9970737225858281e-06 0.0000000000000000e+00  -7.8582695300163000e-05 -4.6546556701234822e-06 0.0000000000000000e+00  -1.0960838526710236e-04 -6.5117952016562175e-06 0.0000000000000000e+00  -1.4502878087963497e-04 -8.6498906617173029e-06 0.0000000000000000e+00  -1.8626763255010897e-04 -1.1163663816314386e-05 0.0000000000000000e+00  -2.3497334953144711e-04 -1.4164688716082964e-05 0.0000000000000000e+00  -2.9306444225881654e-04 -1.7783757145319855e-05 0.0000000000000000e+00  -3.6276331081696174e-04 -2.2169171998779413e-05 0.0000000000000000e+00  -4.4660232348264902e-04 -2.7473574468463551e-05 0.0000000000000000e+00  -5.4737682082164451e-04 -3.3811378023087190e-05 0.0000000000000000e+00  -6.6801329899236815e-04 -4.1145439029207235e-05 0.0000000000000000e+00  -8.1133453470885730e-04 -4.9014640333279763e-05 0.0000000000000000e+00  -9.7977955596315947e-04 -5.5940786280464515e-05 0.0000000000000000e+00  -1.1753470074449027e-03 -5.8310122683091261e-05 0.0000000000000000e+00  -1.4004293215310302e-03 -4.8673104347709414e-05 0.0000000000000000e+00  0.0000000000000000e+00 0.0000000000000000e+00 0.0000000000000000e+00  -2.3809087532342270e-05 -1.4409056430652890e-06 0.0000000000000000e+00  -4.8621764935304850e-05 -2.9501904222680287e-06 0.0000000000000000e+00  -7.5485853328371275e-05 -4.6005195297311938e-06 0.0000000000000000e+00  -1.0555136817591917e-04 -6.4740294268756466e-06 0.0000000000000000e+00  -1.4012842951354536e-04 -8.6682451062275971e-06 0.0000000000000000e+00  -1.8075341253165767e-04 -1.1303587915156474e-05 0.0000000000000000e+00  -2.2926498919256599e-04 -1.4533277364394090e-05 0.0000000000000000e+00  -2.8788944080483984e-04 -1.8556568737689580e-05 0.0000000000000000e+00  -3.5932956190465678e-04 -2.3636012182121877e-05 0.0000000000000000e+00  -4.4684147645963061e-04 -3.0117491247267701e-05 0.0000000000000000e+00  -5.5426642985178956e-04 -3.8444136163930879e-05 0.0000000000000000e+00  -6.8596110413684565e-04 -4.9129868329096089e-05 0.0000000000000000e+00  -8.4655754169955300e-04 -6.2583582769981571e-05 0.0000000000000000e+00  -1.0405549322216063e-03 -7.8484657533854204e-05 0.0000000000000000e+00  -1.2720867091468142e-03 -9.4085577657188106e-05 0.0000000000000000e+00  -1.5457832978144107e-03 -1.0080540198586741e-04 0.0000000000000000e+00  0.0000000000000000e+00 0.0000000000000000e+00 0.0000000000000000e+00  -2.1766450462848163e-05 -1.3463534226983947e-06 0.0000000000000000e+00  -4.4495299053564024e-05 -2.7625212257754443e-06 0.0000000000000000e+00  -6.9195797159704529e-05 -4.3233937514496100e-06 0.0000000000000000e+00  -9.6991520357844887e-05 -6.1155522887417900e-06 0.0000000000000000e+00  -1.2918864651582224e-04 -8.2449995912351539e-06 0.0000000000000000e+00  -1.6735904902928555e-04 -1.0847648040961248e-05 0.0000000000000000e+00  -2.1344400372647125e-04 -1.4104448240174862e-05 0.0000000000000000e+00  -2.6988379825578667e-04 -1.8264323337624626e-05 0.0000000000000000e+00  -3.3977515926410278e-04 -2.3680397193247544e-05 0.0000000000000000e+00  -4.2704816838900345e-04 -3.0868828633127856e-05 0.0000000000000000e+00  -5.3662985063261453e-04 -4.0604095819486365e-05 0.0000000000000000e+00  -6.7451253402470320e-04 -5.4061726802178801e-05 0.0000000000000000e+00  -8.4756984753830283e-04 -7.2969066985517243e-05 0.0000000000000000e+00  -1.0629395846960329e-03 -9.9459167625410905e-05 0.0000000000000000e+00  -1.3273399140810655e-03 -1.3428642131699535e-04 0.0000000000000000e+00  -1.6489217674615158e-03 -1.7175874273856460e-04 0.0000000000000000e+00  0.0000000000000000e+00 0.0000000000000000e+00 0.0000000000000000e+00  -1.8770801737169805e-05 -1.1824626670030369e-06 0.0000000000000000e+00  -3.8407247596689428e-05 -2.4306226900862398e-06 0.0000000000000000e+00  -5.9821046940185919e-05 -3.8153932482660937e-06 0.0000000000000000e+00  -8.4040695739839819e-05 -5.4200022164405954e-06 0.0000000000000000e+00  -1.1228451009017825e-04 -7.3482952378732656e-06 0.0000000000000000e+00  -1.4605434371982859e-04 -9.7362312518523362e-06 0.0000000000000000e+00  -1.8726060283654383e-04 -1.2768869771047710e-05 0.0000000000000000e+00  -2.3839206847344447e-04 -1.6707037424908219e-05 0.0000000000000000e+00  -3.0274588945694065e-04 -2.1932020527751383e-05 0.0000000000000000e+00  -3.8472936363821491e-04 -2.9026089860941279e-05 0.0000000000000000e+00  -4.9022377571792861e-04 -3.8928142604265308e-05 0.0000000000000000e+00  -6.2693353603132987e-04 -5.3249865593762755e-05 0.0000000000000000e+00  -8.0447497033886255e-04 -7.4920760065742205e-05 0.0000000000000000e+00  -1.0336138484222798e-03 -1.0937973014778057e-04 0.0000000000000000e+00  -1.3237981855132057e-03 -1.6555677706092385e-04 0.0000000000000000e+00  -1.6866129343000198e-03 -2.3948136035172550e-04 0.0000000000000000e+00  0.0000000000000000e+00 0.0000000000000000e+00 0.0000000000000000e+00  -1.4920227890765194e-05 -9.5348179249500476e-07 0.0000000000000000e+00  -3.0552961051473586e-05 -1.9627133191374493e-06 0.0000000000000000e+00  -4.7651597357387725e-05 -3.0880827210063147e-06 0.0000000000000000e+00  -6.7075952511026492e-05 -4.4010880797518982e-06 0.0000000000000000e+00  -8.9861513024195106e-05 -5.9917645221484525e-06 0.0000000000000000e+00  -1.1731237301263885e-04 -7.9787916012035870e-06 0.0000000000000000e+00  -1.5113234682602274e-04 -1.0523939381944021e-05 0.0000000000000000e+00  -1.9361597728981454e-04 -1.3853637171040828e-05 0.0000000000000000e+00  -2.4793162388985683e-04 -1.8293176574201887e-05 0.0000000000000000e+00  -3.1854132865852437e-04 -2.4326754413034054e-05 0.0000000000000000e+00  -4.1180832364999135e-04 -3.2720193763567418e-05 0.0000000000000000e+00  -5.3681035242790780e-04 -4.4817290288705706e-05 0.0000000000000000e+00  -7.0619920375739249e-04 -6.3350154153707982e-05 0.0000000000000000e+00  -9.3629342637193802e-04 -9.4825169939057185e-05 0.0000000000000000e+00  -1.2432235555820007e-03 -1.5736847870221167e-04 0.0000000000000000e+00  -1.6164801595620318e-03 -3.2095651450090825e-04 0.0000000000000000e+00  0.0000000000000000e+00 0.0000000000000000e+00 0.0000000000000000e+00  -1.0367369193094201e-05 -6.6936718295711066e-07 0.0000000000000000e+00  -2.1243017865960271e-05 -1.3792593661285331e-06 0.0000000000000000e+00  -3.3166166987361487e-05 -2.1736413092301436e-06 0.0000000000000000e+00  -4.6757926347430404e-05 -3.1047743317683665e-06 0.0000000000000000e+00  -6.2776330898171111e-05 -4.2386039329098343e-06 0.0000000000000000e+00  -8.2192895142847326e-05 -5.6617147400699717e-06 0.0000000000000000e+00  -1.0630559379094013e-04 -7.4902185624364491e-06 0.0000000000000000e+00  -1.3691305923674293e-04 -9.8801864376314111e-06 0.0000000000000000e+00  -1.7659234619336422e-04 -1.3036902810456951e-05 0.0000000000000000e+00  -2.2915327735324953e-04 -1.7214357054767536e-05 0.0000000000000000e+00  -3.0039391072265027e-04 -2.2684981180271551e-05 0.0000000000000000e+00  -3.9936156282183513e-04 -2.9650275016998533e-05 0.0000000000000000e+00  -5.4042612340893259e-04 -3.8118674199937642e-05 0.0000000000000000e+00  -7.4649572527638540e-04 -4.8146483493921978e-05 0.0000000000000000e+00  -1.0528317101584951e-03 -6.2018274475379492e-05 0.0000000000000000e+00  -1.5055823754315948e-03 -9.2233297480899068e-05 0.0000000000000000e+00  0.0000000000000000e+00 0.0000000000000000e+00 0.0000000000000000e+00  -5.3140980815792229e-06 -3.4521905937198134e-07 0.0000000000000000e+00  -1.0893077331398962e-05 -7.1176664471853935e-07 0.0000000000000000e+00  -1.7018585414143633e-05 -1.1227927979389141e-06 0.0000000000000000e+00  -2.4017061819041016e-05 -1.6058511278297260e-06 0.0000000000000000e+00  -3.2290524611163773e-05 -2.1956642756732575e-06 0.0000000000000000e+00  -4.2360469583523292e-05 -2.9374524399115902e-06 0.0000000000000000e+00  -5.4934710634512647e-05 -3.8904255041081808e-06 0.0000000000000000e+00  -7.1014488186701210e-05 -5.1293392684336672e-06 0.0000000000000000e+00  -9.2073384049299670e-05 -6.7365069477528917e-06 0.0000000000000000e+00  -1.2036546126438738e-04 -8.7591607054406409e-06 0.0000000000000000e+00  -1.5945991253896568e-04 -1.1051919610286915e-05 0.0000000000000000e+00  -2.1511879549118555e-04 -1.2754108511244988e-05 0.0000000000000000e+00  -2.9638201689646050e-04 -1.0670253139972017e-05 0.0000000000000000e+00  -4.1500828083166930e-04 5.1581839831974654e-06 0.0000000000000000e+00  -5.7478762153764145e-04 5.9505098096189775e-05 0.0000000000000000e+00  -7.3565402330202565e-04 1.8435763576058427e-04 0.0000000000000000e+00  0.0000000000000000e+00 0.0000000000000000e+00 0.0000000000000000e+00  0.0000000000000000e+00 0.0000000000000000e+00 0.0000000000000000e+00  0.0000000000000000e+00 0.0000000000000000e+00 0.0000000000000000e+00  0.0000000000000000e+00 0.0000000000000000e+00 0.0000000000000000e+00  0.0000000000000000e+00 0.0000000000000000e+00 0.0000000000000000e+00  0.0000000000000000e+00 0.000000000000