<?xml version="1.0"?>
<VTKFile type="UnstructuredGrid"  version="0.1"  >
<UnstructuredGrid>
<Piece  NumberOfPoints="289" NumberOfCells="512">
<Points>
<DataArray  type="Float64"  NumberOfComponents="3"  format="ascii">0 0 0  0.0625 0 0  0.125 0 0  0.1875 0 0  0.25 0 0  0.3125 0 0  0.375 0 0  0.4375 0 0  0.5 0 0  0.5625 0 0  0.625 0 0  0.6875 0 0  0.75 0 0  0.8125 0 0  0.875 0 0  0.9375 0 0  1 0 0  0 0.0625 0  0.06258255654515739 0.06248575415356928 0  0.125167597126433 0.06247121761790857 0  0.1877576414045164 0.0624561165324926 0  0.2503552181805346 0.06244022023530953 0  0.3129628506995644 0.06242337061989119 0  0.3755830173112392 0.06240552038625389 0  0.4382180817714091 0.06238678153965791 0  0.5008701954589779 0.06236748271099387 0  0.5635411968172473 0.06234822830521664 0  0.6262325959459996 0.06232994221098668 0  0.6889459032258726 0.06231386087656367 0  0.7516840436468303 0.06230140938703706 0  0.8144560177904585 0.06229383268973872 0  0.8772912640007099 0.06229129023088035 0  0.940283169003402 0.0622905846131344 0  1.003717535639568 0.06228012886178299 0  0 0.125 0  0.06266267924283049 0.124971792159487 0  0.1253303406527681 0.1249429816039187 0  0.1880080480936407 0.1249129962806163 0  0.2507009112861377 0.1248813441421195 0  0.3134140730423216 0.1248476693035848 0  0.3761526495292465 0.1248118273945303 0  0.4389216097120997 0.1247739844827668 0  0.5017255891367469 0.1247347397137703 0  0.5645686590183002 0.1246952626821618 0  0.627454134115206 0.1246574191446325 0  0.6903846383453529 0.1246238294264817 0  0.7533629000521009 0.1245977648719074 0  0.8163940563585652 0.1245827743043027 0  0.8794897867714101 0.1245821327403124 0  0.9426690098296587 0.1245994325222078 0  1.005922781302429 0.1246466797320833 0  0 0.1875 0  0.06273785953354459 0.1874584292701965 0  0.1254831928471317 0.1874159056046245 0  0.1882436161216691 0.187371514480633 0  0.251026869887458 0.1873244449454069 0  0.3138408324858308 0.187274066589002 0  0.3766934662884228 0.1872200378619063 0  0.4395926698318494 0.1871624558825918 0  0.5025460090911619 0.1871020546236814 0  0.565560306750148 0.1870404492005449 0  0.6286410802816694 0.186980403039763 0  0.6917918219629005 0.1869260512141421 0  0.7550130230146902 0.1868829251314581 0  0.8183003605026234 0.1868574324754327 0  0.8816397616364613 0.1868549427335904 0  0.9449927011729266 0.1868739395251489 0  1.008259682406736 0.1868871788016341 0  0 0.25 0  0.0628056057681082 0.2499460183968158 0  0.1256211296801699 0.2498906852771026 0  0.1884567103660419 0.2498326859933108 0  0.2513227426430711 0.2497708123617787 0  0.3142299499521389 0.2497040497803521 0  0.3771893755955781 0.2496317086642822 0  0.4402122519737858 0.2495536189816304 0  0.5033096937094956 0.2494704077889958 0  0.5664921394304778 0.2493838764917338 0  0.6297684258183371 0.2492974807357149 0  0.6931442806576517 0.2492168788083595 0  0.7566197789105836 0.2491504299075303 0  0.8201847344221715 0.2491093475761311 0  0.8838098916404985 0.2491068872016338 0  0.9474305530129856 0.2491555440915242 0  1.010921161585091 0.2492620069638861 0  0 0.3125 0  0.06286347991360496 0.3124349598547572 0  0.1257392087624874 0.3123681213006536 0  0.1886397519840437 0.3122977090057379 0  0.2515781230914318 0.3122220290989619 0  0.314567955204036 0.312139550062891 0  0.377623590807704 0.3120490388761659 0  0.4407600409720309 0.3119497812712342 0  0.5039927413158064 0.3118419237565154 0  0.5673369920424323 0.3117269843864423 0  0.6308068983300587 0.3116085850122913 0  0.694413495368371 0.3114934499907845 0  0.7581615016942997 0.3113926743357551 0  0.8220437631641607 0.3113231519753282 0  0.8860320873612607 0.3113088308863477 0  0.9500637058712141 0.3113811454342633 0  1.014026515332268 0.3115777542649723 0  0 0.375 0  0.06290915954045276 0.374925700912941 0  0.1258326903655943 0.3748491217048168 0  0.1887853914987559 0.3747679773420272 0  0.2517827603297828 0.3746800060408885 0  0.3148413061084979 0.3745830220054586 0  0.3779788009955216 0.374475027874994 0  0.4412144241556179 0.3743544241700193 0  0.5045687275804763 0.3742203711442894 0  0.5680633085856504 0.3740733846693364 0  0.6317200012946976 0.3739162828821098 0  0.6955592793782199 0.3737556409160743 0  0.7595973774048603 0.3736039419995053 0  0.8238414127123418 0.3734825935168786 0  0.8882817113113893 0.3734258216493133 0  0.9528811817689946 0.3734850391737374 0  1.017563907309382 0.3737324654221915 0  0 0.4375 0  0.06294052956811801 0.4374187220051139 0  0.1258972219339482 0.43733467643421 0  0.1888867872893369 0.4372450486523685 0  0.2519269296426668 0.43714695486894 0  0.3150368398571638 0.4370374413747259 0  0.3782376684342723 0.4369135365884615 0  0.4415529532056113 0.4367723957062365 0  0.5050089576567965 0.436611603806112 0  0.5686348462979386 0.4364297460143312 0  0.6324625794467523 0.4362274212695812 0  0.6965263437846023 0.4360089784884173 0  0.7608612403393457 0.4357853917753972 0  0.8255008373677541 0.4355788321850408 0  0.8904731321188576 0.4354295160949143 0  0.955794660659457 0.4354050488861077 0  1.021463327703265 0.4356114762116194 0  0 0.5 0  0.06295580373692138 0.499914507569315 0  0.1259290873943082 0.4998257990272584 0  0.1889379953712023 0.4997305578699898 0  0.2520019801430107 0.4996252776170393 0  0.3151424972764392 0.4995061833438334 0  0.3783837428794647 0.4993691842360126 0  0.4417534427370088 0.4992098893887913 0  0.5052837003374751 0.499023747653462 0  0.5690119148913907 0.4988064241068457 0  0.6329817998046249 0.4985546183445506 0  0.6972445816976537 0.4982676917853365 0  0.7618605534294973 0.4979507401160818 0  0.8269012802778637 0.4976201412871109 0  0.892452839319665 0.4973130133584103 0  0.9586203853569143 0.4971018845196455 0  1.025534407256427 0.4971138637966022 0  0 0.5625 0  0.06295366958352017 0.5624135016150738 0  0.1259255095323839 0.5623234345996129 0  0.1889344548788341 0.5622260717981981 0  0.2520010435014671 0.5621173608747592 0  0.3151483110613159 0.5619927516250617 0  0.3784028037132887 0.561847017572993 0  0.4417957608579795 0.5616740842340804 0  0.5053645417953518 0.5614668983988166 0  0.569154420672178 0.5612174179772528 0  0.6332209896148718 0.5609168944345767 0  0.6976336581815561 0.5605568085631344 0  0.7624812191955848 0.5601311999122101 0  0.8278812449462287 0.5596418539588188 0  0.8939960424091057 0.5591089810084781 0  0.961058385453377 0.5585910119881055 0  1.029409676044782 0.5582146933244114 0  0 0.625 0  0.06293344366406503 0.6249160512176238 0  0.1258849785589301 0.6248283399984722 0  0.1888735278936665 0.6247328919010415 0  0.2519198467343765 0.6246252794967335 0  0.3150475838909026 0.6245003537094844 0  0.3782845377639301 0.6243519227298989 0  0.4416642016716577 0.6241723605189855 0  0.5052277378842203 0.6239521319440253 0  0.5690266143100742 0.6236792397051516 0  0.6331263548529323 0.6233386502315162 0  0.6976123566341289 0.622911895197931 0  0.7625998442797349 0.6223774129950297 0  0.828252290278461 0.6217131491722346 0  0.8948164011656408 0.6209052403504833 0  0.9626857862948446 0.6199707512177236 0  1.032505534339677 0.619001846518026 0  0 0.6875 0  0.06289521723133298 0.6874223447284343 0  0.1258075656451588 0.6873409500739294 0  0.1887550273366926 0.6872518269204322 0  0.2517575314956829 0.687150439137558 0  0.3148381174405169 0.6870313572172714 0  0.3780243555989318 0.6868878128564396 0  0.4413501568592968 0.686711102273069 0  0.5048581563869897 0.6864897673464501 0  0.5686029707923752 0.6862084586463058 0  0.6326558898856049 0.6858463565256848 0  0.6971122359939944 0.6853750171510513 0  0.7621043986250451 0.6847556194447284 0  0.8278281006220588 0.6839362467669327 0  0.8945999181328429 0.6828527982374361 0  0.962982014118128 0.681448567245738 0  1.034020741927864 0.6797517856046276 0  0 0.75 0  0.06283996814766571 0.7499323546934946 0  0.125695170149537 0.7498612515538446 0  0.188581648550244 0.7497829714344331 0  0.2515173522208591 0.7496932133031065 0  0.3145233047790555 0.749586709393156 0  0.3776250706510905 0.7494567076426789 0  0.4408546709355534 0.7492942414072611 0  0.5042531566372497 0.7490870656038097 0  0.567874138903953 0.7488180709282878 0  0.6317887661669861 0.7484628735191863 0  0.6960931593176074 0.7479860759228212 0  0.7609210301770225 0.7473353307135958 0  0.8264701602541376 0.7464317491951711 0  0.8930715183941431 0.7451550484803714 0  0.9613893873856784 0.7433297072197889 0  1.032905634225749 0.7408113151131951 0  0 0.8125 0  0.06276961406529825 0.8124457971911971 0  0.1255516467849196 0.8123886904612794 0  0.1883592143376905 0.8123255360791632 0  0.2512071141405483 0.812252650269614 0  0.3141128800804521 0.8121654410669192 0  0.3770981394085914 0.8120578983886098 0  0.4401904304286887 0.8119218509479309 0  0.5034256920619057 0.8117458463578897 0  0.5668516922064558 0.8115134219920948 0  0.6305326972984377 0.8112003799410202 0  0.6945556810626855 0.8107703944497932 0  0.7590385534195746 0.810167689627089 0  0.8241432925368486 0.8093041086022474 0  0.8901140275755132 0.8080341317630707 0  0.9574634849363666 0.8061017482320819 0  1.028065915994954 0.8030267729868992 0  0 0.875 0  0.06268698593572603 0.874962118575246 0  0.1253827663928379 0.874922138020614 0  0.1880966530231544 0.8748777750958548 0  0.2508392234729422 0.874826328821759 0  0.3136231339328738 0.8747643897066475 0  0.3764641893883196 0.8746874288600454 0  0.4393828170736457 0.8745891862282642 0  0.5024061422612028 0.8744607281891866 0  0.5655709128573501 0.8742889619969776 0  0.6289274747957314 0.8740542569551643 0  0.6925445682881028 0.8737265921474844 0  0.7565129853328943 0.8732592210138657 0  0.8209406467507973 0.8725776955930694 0  0.8859179028638229 0.8715574228390326 0  0.9514203145043396 0.86996107082437 0  1.017358119546891 0.8672030033678191 0  0 0.9375 0  0.06259571001854589 0.9374805169999023 0  0.1251959820558779 0.9374599323821463 0  0.1878056555199119 0.9374370444441587 0  0.2504302553177476 0.9374104233767988 0  0.3130764405563594 0.937378250382788 0  0.3757526088766248 0.937338087362377 0  0.438469752418626 0.9372865288723
[...]
<PointData  Vectors="f_54"> 
<DataArray  type="Float64"  Name="f_54"  NumberOfComponents="3" format="ascii">0.0000000000000000e+00 0.0000000000000000e+00 0.0000000000000000e+00  0.0000000000000000e+00 0.0000000000000000e+00 0.0000000000000000e+00  0.0000000000000000e+00 0.0000000000000000e+00 0.0000000000000000e+00  0.0000000000000000e+00 0.0000000000000000e+00 0.0000000000000000e+00  0.0000000000000000e+00 0.0000000000000000e+00 0.0000000000000000e+00  0.0000000000000000e+00 0.0000000000000000e+00 0.0000000000000000e+00  0.0000000000000000e+00 0.0000000000000000e+00 0.0000000000000000e+00  0.0000000000000000e+00 0.0000000000000000e+00 0.0000000000000000e+00  0.0000000000000000e+00 0.0000000000000000e+00 0.0000000000000000e+00  0.0000000000000000e+00 0.0000000000000000e+00 0.0000000000000000e+00  0.0000000000000000e+00 0.0000000000000000e+00 0.0000000000000000e+00  0.0000000000000000e+00 0.0000000000000000e+00 0.0000000000000000e+00  0.0000000000000000e+00 0.0000000000000000e+00 0.0000000000000000e+00  0.0000000000000000e+00 0.0000000000000000e+00 0.0000000000000000e+00  0.0000000000000000e+00 0.0000000000000000e+00 0.0000000000000000e+00  0.0000000000000000e+00 0.0000000000000000e+00 0.0000000000000000e+00  0.0000000000000000e+00 0.0000000000000000e+00 0.0000000000000000e+00  0.0000000000000000e+00 0.0000000000000000e+00 0.0000000000000000e+00  2.7333623002594593e-06 -1.1158329354350533e-07 0.0000000000000000e+00  5.5716102332879712e-06 -2.2826224624500066e-07 0.0000000000000000e+00  8.6249407818462594e-06 -3.5544249524026853e-07 0.0000000000000000e+00  1.2011868248202756e-05 -4.9904909830752719e-07 0.0000000000000000e+00  1.5863953110854015e-05 -6.6578517243373311e-07 0.0000000000000000e+00  2.0331292313713517e-05 -8.6336758175851143e-07 0.0000000000000000e+00  2.5589473735082570e-05 -1.1007009800305727e-06 0.0000000000000000e+00  3.1849573249320347e-05 -1.3879263802031995e-06 0.0000000000000000e+00  3.9375063273963917e-05 -1.7362752577891782e-06 0.0000000000000000e+00  4.8515689272132201e-05 -2.1577753499336499e-06 0.0000000000000000e+00  5.9785846562599939e-05 -2.6654635363757061e-06 0.0000000000000000e+00  7.4067163037897833e-05 -3.2772490669034831e-06 0.0000000000000000e+00  9.3180940755960531e-05 -4.0362388278489895e-06 0.0000000000000000e+00  1.2164112859770522e-04 -5.0984990498098904e-06 0.0000000000000000e+00  1.7247247100561441e-04 -7.0971289183745540e-06 0.0000000000000000e+00  2.8841716679285504e-04 -1.2704091296538687e-05 0.0000000000000000e+00  0.0000000000000000e+00 0.0000000000000000e+00 0.0000000000000000e+00  5.3680193262185422e-06 -2.1832563560368061e-07 0.0000000000000000e+00  1.0942933186686184e-05 -4.4663940626689023e-07 0.0000000000000000e+00  1.6942069273425170e-05 -6.9554959856868879e-07 0.0000000000000000e+00  2.3599307321424672e-05 -9.7672574520297197e-07 0.0000000000000000e+00  3.1174376506649293e-05 -1.3034443128816056e-06 0.0000000000000000e+00  3.9963390335420829e-05 -1.6911107726543223e-06 0.0000000000000000e+00  5.0311521932649437e-05 -2.1576836308829902e-06 0.0000000000000000e+00  6.2629619032953721e-05 -2.7238484842794381e-06 0.0000000000000000e+00  7.7418720723934794e-05 -3.4126734489828799e-06 0.0000000000000000e+00  9.5311555818058011e-05 -4.2483195070037813e-06 0.0000000000000000e+00  1.1715178121083093e-04 -5.2531631441227707e-06 0.0000000000000000e+00  1.4415625380994327e-04 -6.4421259969178783e-06 0.0000000000000000e+00  1.7824608985788550e-04 -7.8098745043168304e-06 0.0000000000000000e+00  2.2263552776703176e-04 -9.2874417773805478e-06 0.0000000000000000e+00  2.8230287323931924e-04 -1.0536454898576321e-05 0.0000000000000000e+00  3.6044841135579798e-04 -9.8647655651916500e-06 0.0000000000000000e+00  0.0000000000000000e+00 0.0000000000000000e+00 0.0000000000000000e+00  7.8009125192676526e-06 -3.1529556975462397e-07 0.0000000000000000e+00  1.5903908596551610e-05 -6.4500575692637790e-07 0.0000000000000000e+00  2.4626140003899947e-05 -1.0044620663263890e-06 0.0000000000000000e+00  3.4309179012119343e-05 -1.4106137379991453e-06 0.0000000000000000e+00  4.5332558460327433e-05 -1.8829001449675099e-06 0.0000000000000000e+00  5.8128714296166489e-05 -2.4441482007618629e-06 0.0000000000000000e+00  7.3199917767063357e-05 -3.1214145930155517e-06 0.0000000000000000e+00  9.1137946609389336e-05 -3.9465673854406174e-06 0.0000000000000000e+00  1.1264751541932631e-04 -4.9561654226628188e-06 0.0000000000000000e+00  1.3857464529329439e-04 -6.1897548345936895e-06 0.0000000000000000e+00  1.6993971860891928e-04 -7.6848804517260540e-06 0.0000000000000000e+00  2.0796534099548264e-04 -9.4655521834788221e-06 0.0000000000000000e+00  2.5404681104793537e-04 -1.1518108986898191e-05 0.0000000000000000e+00  3.0945938230320997e-04 -1.3745678179338879e-05 0.0000000000000000e+00  3.7412969323658625e-04 -1.5909956172324406e-05 0.0000000000000000e+00  4.4278246882716244e-04 -1.7761295258100560e-05 0.0000000000000000e+00  0.0000000000000000e+00 0.0000000000000000e+00 0.0000000000000000e+00  9.9361828962913273e-06 -3.9804613742125464e-07 0.0000000000000000e+00  2.0259029225917568e-05 -8.1420243504336482e-07 0.0000000000000000e+00  3.1374192198565943e-05 -1.2677557950317989e-06 0.0000000000000000e+00  4.3719075223043261e-05 -1.7801471686527110e-06 0.0000000000000000e+00  5.7780329055893548e-05 -2.3762002414753466e-06 0.0000000000000000e+00  7.4112895534345530e-05 -3.0854927038196855e-06 0.0000000000000000e+00  9.3360787895496351e-05 -3.9438457185836272e-06 0.0000000000000000e+00  1.1627915352091633e-04 -4.9947813837311664e-06 0.0000000000000000e+00  1.4375561228811211e-04 -6.2905259724928571e-06 0.0000000000000000e+00  1.7682510368021220e-04 -7.8915713170815591e-06 0.0000000000000000e+00  2.1666330265561460e-04 -9.8626732621474687e-06 0.0000000000000000e+00  2.6452142949195999e-04 -1.2260993991073455e-05 0.0000000000000000e+00  3.2151353437569099e-04 -1.5108219970006208e-05 0.0000000000000000e+00  3.8805953877562639e-04 -1.8332318873155101e-05 0.0000000000000000e+00  4.6262084592716134e-04 -2.1655025354741502e-05 0.0000000000000000e+00  5.3935132588518243e-04 -2.4366979514860827e-05 0.0000000000000000e+00  0.0000000000000000e+00 0.0000000000000000e+00 0.0000000000000000e+00  1.1689063197268788e-05 -4.6288278039846944e-07 0.0000000000000000e+00  2.3835223465433205e-05 -9.4659125497761674e-07 0.0000000000000000e+00  3.6917595958380578e-05 -1.4733164520034926e-06 0.0000000000000000e+00  5.1453661696414550e-05 -2.0678507376078999e-06 0.0000000000000000e+00  6.8020509780412330e-05 -2.7591580708983826e-06 0.0000000000000000e+00  8.7278100843823228e-05 -3.5822668485362002e-06 0.0000000000000000e+00  1.0999473001985715e-04 -4.5805908281446148e-06 0.0000000000000000e+00  1.3707389586890224e-04 -5.8087332038965846e-06 0.0000000000000000e+00  1.6957955768185360e-04 -7.3356658830022784e-06 0.0000000000000000e+00  2.0875190976490240e-04 -9.2477486125400218e-06 0.0000000000000000e+00  2.5599569825030617e-04 -1.1650047999660538e-05 0.0000000000000000e+00  3.1280339471752647e-04 -1.4662231744996875e-05 0.0000000000000000e+00  3.8054127796027836e-04 -1.8400885597825128e-05 0.0000000000000000e+00  4.5998093952908536e-04 -2.2931757756886631e-05 0.0000000000000000e+00  5.5044515652307965e-04 -2.8160903457961551e-05 0.0000000000000000e+00  6.4860662103733791e-04 -3.3611637208642406e-05 0.0000000000000000e+00  0.0000000000000000e+00 0.0000000000000000e+00 0.0000000000000000e+00  1.2989461437143382e-05 -5.0711170602188965e-07 0.0000000000000000e+00  2.6489128452321659e-05 -1.0365833564407620e-06 0.0000000000000000e+00  4.1033191109302013e-05 -1.6122170619996206e-06 0.0000000000000000e+00  5.7199786072523824e-05 -2.2606789670890649e-06 0.0000000000000000e+00  7.5635673016982412e-05 -3.0133168469827161e-06 0.0000000000000000e+00  9.7083892814023266e-05 -3.9084982037149181e-06 0.0000000000000000e+00  1.2241516984023876e-04 -4.9947545014559562e-06 0.0000000000000000e+00  1.5266317571199404e-04 -6.3351170780678677e-06 0.0000000000000000e+00  1.8906217525837412e-04 -8.0131370494769300e-06 0.0000000000000000e+00  2.3308207191695570e-04 -1.0141121449758575e-05 0.0000000000000000e+00  2.8644895460121353e-04 -1.2870877991795509e-05 0.0000000000000000e+00  3.5112726931648997e-04 -1.6406206306005535e-05 0.0000000000000000e+00  4.2922321383440223e-04 -2.1013302418217157e-05 0.0000000000000000e+00  5.2275785456351706e-04 -2.7017781713853265e-05 0.0000000000000000e+00  6.3328732665673124e-04 -3.4761358939107178e-05 0.0000000000000000e+00  7.6148520924026661e-04 -4.4463634876604337e-05 0.0000000000000000e+00  0.0000000000000000e+00 0.0000000000000000e+00 0.0000000000000000e+00  1.3785121208706706e-05 -5.2923682148282392e-07 0.0000000000000000e+00  2.8113575596614534e-05 -1.0810746758544007e-06 0.0000000000000000e+00  4.3553418861956582e-05 -1.6794869079702280e-06 0.0000000000000000e+00  6.0720675346269801e-05 -2.3512923484444975e-06 0.0000000000000000e+00  8.0306769890131261e-05 -3.1280297641862159e-06 0.0000000000000000e+00  1.0311023448461499e-04 -4.0484909461188551e-06 0.0000000000000000e+00  1.3007452127594251e-04 -5.1623638930880619e-06 0.0000000000000000e+00  1.6233397527694150e-04 -6.5357184065620335e-06 0.0000000000000000e+00  2.0127003450617507e-04 -8.2595405592977428e-06 0.0000000000000000e+00  2.4857916525968383e-04 -1.0463295881883616e-05 0.0000000000000000e+00  3.0635235145421872e-04 -1.3336687324635365e-05 0.0000000000000000e+00  3.7716276604392844e-04 -1.7164373476678912e-05 0.0000000000000000e+00  4.6415500252319276e-04 -2.2379940574591324e-05 0.0000000000000000e+00  5.7113393182320197e-04 -2.9645058409152350e-05 0.0000000000000000e+00  7.0268791933076084e-04 -3.9953082437663279e-05 0.0000000000000000e+00  8.6449868154269435e-04 -5.4736503800164007e-05 0.0000000000000000e+00  0.0000000000000000e+00 0.0000000000000000e+00 0.0000000000000000e+00  1.4044189737402932e-05 -5.2906445481854200e-07 0.0000000000000000e+00  2.8642968411441412e-05 -1.0796951070912432e-06 0.0000000000000000e+00  4.4375030311834092e-05 -1.6746005404221867e-06 0.0000000000000000e+00  6.1868861134417352e-05 -2.3389768136393053e-06 0.0000000000000000e+00  8.1831675952673890e-05 -3.1021725661312888e-06 0.0000000000000000e+00  1.0508383804667762e-04 -4.0000067562869707e-06 0.0000000000000000e+00  1.3260178061917671e-04 -5.0782534938016005e-06 0.0000000000000000e+00  1.6557380132706297e-04 -6.3982143648744091e-06 0.0000000000000000e+00  2.0547524567703993e-04 -8.0460745980290993e-06 0.0000000000000000e+00  2.5417290981926766e-04 -1.0149227773475515e-05 0.0000000000000000e+00  3.1407342132048723e-04 -1.2905603044544672e-05 0.0000000000000000e+00  3.8833737530638839e-04 -1.6637402250176609e-05 0.0000000000000000e+00  4.8119094760342714e-04 -2.1890431425602503e-05 0.0000000000000000e+00  5.9838341306629489e-04 -2.9616927801208853e-05 0.0000000000000000e+00  7.4788085670201925e-04 -4.1506457166136943e-05 0.0000000000000000e+00  9.4102181727150752e-04 -6.0575206520930242e-05 0.0000000000000000e+00  0.0000000000000000e+00 0.0000000000000000e+00 0.0000000000000000e+00  1.3756955407585152e-05 -5.0767770780018731e-07 0.0000000000000000e+00  2.8057037515688251e-05 -1.0347785382346092e-06 0.0000000000000000e+00  4.3465492100171875e-05 -1.6015001464452199e-06 0.0000000000000000e+00  6.0596432966934956e-05 -2.2298493231134318e-06 0.0000000000000000e+00  8.0141466804888029e-05 -2.9448203383845949e-06 0.0000000000000000e+00  1.0290438768460373e-04 -3.7760276125012014e-06 0.0000000000000000e+00  1.2984577815030834e-04 -4.7601968844278040e-06 0.0000000000000000e+00  1.6214369595883023e-04 -5.9452984922586437e-06 0.0000000000000000e+00  2.0128083034904565e-04 -7.3978992607455061e-06 0.0000000000000000e+00  2.4917594580070146e-04 -9.2170045476868816e-06 0.0000000000000000e+00  3.0839019761403209e-04 -1.1561368743987730e-05 0.0000000000000000e+00  3.8245967527916384e-04 -1.4705493118879259e-05 0.0000000000000000e+00  4.7643639178308536e-04 -1.9157914300785499e-05 0.0000000000000000e+00  5.9776050156629113e-04 -2.5915685564746457e-05 0.0000000000000000e+00  7.5764129972410641e-04 -3.7013533191387919e-05 0.0000000000000000e+00  9.7327022337880605e-04 -5.6696445618678982e-05 0.0000000000000000e+00  0.0000000000000000e+00 0.0000000000000000e+00 0.0000000000000000e+00  1.2936488617202645e-05 -4.6726100793663396e-07 0.0000000000000000e+00  2.6382352722269939e-05 -9.5099967840847516e-07 0.0000000000000000e+00  4.0865904704168707e-05 -1.4680242205213146e-06 0.0000000000000000e+00  5.6960456478721010e-05 -2.0360677276894147e-06 0.0000000000000000e+00  7.5310507397423782e-05 -2.6742838781364021e-06 0.0000000000000000e+00  9.6663552675973244e-05 -3.4038340258479846e-06 0.0000000000000000e+00  1.2191131923669762e-04 -4.2486863692656622e-06 0.0000000000000000e+00  1.5214697665292027e-04 -5.2369109046685686e-06 0.0000000000000000e+00  1.8875023523825103e-04 -6.4031456143288820e-06 0.0000000000000000e+00  2.3352276952101083e-04 -7.7938841725731895e-06 0.0000000000000000e+00  2.8891689376652272e-04 -9.4797656474170086e-06 0.0000000000000000e+00  3.5843917077342540e-04 -1.1585895674836023e-05 0.0000000000000000e+00  4.4737925155995654e-04 -1.4370381506012401e-05 0.0000000000000000e+00  5.6411951936595375e-04 -1.8435415966156392e-05 0.0000000000000000e+00  7.2239851438676687e-04 -2.5304054828219503e-05 0.0000000000000000e+00  9.4499479419828309e-04 -3.8972014914047061e-05 0.0000000000000000e+00  0.0000000000000000e+00 0.0000000000000000e+00 0.0000000000000000e+00  1.1617980596864204e-05 -4.1078869116678280e-07 0.0000000000000000e+00  2.3691078082361185e-05 -8.3469942962184709e-07 0.0000000000000000e+00  3.6689358803162034e-05 -1.2847550279979710e-06 0.0000000000000000e+00  5.1121407335329211e-05 -1.7740034884007506e-06 0.0000000000000000e+00  6.7556134697465314e-05 -2.3152995376034606e-06 0.0000000000000000e+00  8.6648638330775703e-05 -2.9207607503678005e-06 0.0000000000000000e+00  1.0917281585514324e-04 -3.6006593518670328e-06 0.0000000000000000e+00  1.3606557407340401e-04 -4.3613463125744649e-06 0.0000000000000000e+00  1.6849212757759463e-04 -5.2015050018562147e-06 0.0000000000000000e+00  2.0795229729997114e-04 -6.1054975860106376e-06 0.0000000000000000e+00  2.5647151066129301e-04 -7.0317101819574728e-06 0.0000000000000000e+00  3.1697481504920107e-04 -7.8929986193808030e-06 0.0000000000000000e+00  3.9406489423921996e-04 -8.5289270983320170e-06 0.0000000000000000e+00  4.9567953387470265e-04 -8.6936569270729910e-06 0.0000000000000000e+00  6.3650837971052792e-04 -8.2104184588909338e-06 0.0000000000000000e+00  8.4418592490684546e-04 -7.9252747243428327e-06 0.0000000000000000e+00  0.0000000000000000e+00 0.0000000000000000e+00 0.0000000000000000e+00  9.8567366568009637e-06 -3.4162999560036033e-07 0.0000000000000000e+00  2.0096811153523729e-05 -6.9301271957607838e-07 0.0000000000000000e+00  3.1114276590151397e-05 -1.0634799756244557e-06 0.0000000000000000e+00  4.3333478451988593e-05 -1.4616838791013968e-06 0.0000000000000000e+00  5.7225267263835109e-05 -1.8948257339411693e-06 0.0000000000000000e+00  7.3324977282781398e-05 -2.3672395147527501e-06 0.0000000000000000e+00  9.2252925954401191e-05 -2.8778118383594128e-06 0.0000000000000000e+00  1.1473867495232512e-04 -3.4152950991079178e-06 0.0000000000000000e+00  1.4165182615308986e-04 -3.9496985721238616e-06 0.0000000000000000e+00  1.7404702603824557e-04 -4.4160528651674359e-06 0.0000000000000000e+00  2.1324645880456259e-04 -4.6824888170271576e-06 0.0000000000000000e+00  2.6103237180778727e-04 -4.4839670964989895e-06 0.0000000000000000e+00  3.2017539987765677e-04 -3.2763116702267499e-06 0.0000000000000000e+00  3.9598624785196234e-04 1.0006374106295718e-07 0.0000000000000000e+00  5.0083610600593260e-04 8.1749419316084001e-06 0.0000000000000000e+00  6.6513916265347937e-04 2.5873179581730072e-05 0.0000000000000000e+00  0.0000000000000000e+00 0.0000000000000000e+00 0.0000000000000000e+00  7.7250084739098280e-06 -2.6315207666410367e-07 0.0000000000000000e+00  1.5747878658925729e-05 -5.3298541430928121e-07 0.0000000000000000e+00  2.4373297063922352e-05 -8.1561448093216048e-07 0.0000000000000000e+00  3.3927450920418520e-05 -1.1161223315220624e-06 0.0000000000000000e+00  4.4768516913959772e-05 -1.4375438356168925e-06 0.0000000000000000e+00  5.7296737107761813e-05 -1.7790944239355257e-06 0.0000000000000000e+00  7.1962821804058791e-05 -2.1330475674162485e-06 0.0000000000000000e+00  8.9271829349796568e-05 -2.4791949679936048e-06 0.0000000000000000e+00  1.0977659488764227e-04 -2.7748913951672760e-06 0.0000000000000000e+00  1.3404930446864270e-04 -2.9367084718734020e-06 0.0000000000000000e+00  1.6261220282877333e-04 -2.8050933489879124e-06 0.0000000000000000e+00  1.9580845185053199e-04 -2.0711309767207866e-06 0.0000000000000000e+00  2.3366148450262880e-04 -1.0673742880843766e-07 0.0000000000000000e+00  2.7619611259534086e-04 4.4956137546089806e-06 0.0000000000000000e+00  3.2678646436589900e-04 1.5445577782320264e-05 0.0000000000000000e+00  4.1093146506630948e-04 4.5399443877114803e-05 0.0000000000000000e+00  0.0000000000000000e+00 0.0000000000000000e+00 0.0000000000000000e+00  5.3080684047436663e-06 -1.7840897712911208e-07 0.0000000000000000e+00  1.0818989070557820e-05 -3.6088514294711746e-07 0.0000000000000000e+00  1.6739329882593088e-05 -5.5097880953742313e-07 0.0000000000000000e+00  2.3288891263276971e-05 -7.5126291992192587e-07 0.0000000000000000e+00  3.0706375249026236e-05 -9.6241931974673279e-07 0.0000000000000000e+00  3.9253464438438227e-05 -1.1816921403240021e-06 0.0000000000000000e+00  4.9215005622678669e-05 -1.4002360378012956e-06 0.0000000000000000e+00  6.0890165961191162e-05 -1.5985731472104506e-06 0.0000000000000000e+00  7.4563111837702196e-05 -1.7388505588964006e-06 0.0000000000000000e+00  9.0427312303341791e-05 -1.7517667427485577e-06 0.0000000000000000e+00  1.0840387881536073e-04 -1.5148536026068868e-06 0.0000000000000000e+00  1.2771610531156797e-04 -8.1734060411671342e-07 0.0000000000000000e+00  1.4591518311145191e-04 6.9539717519649721e-07 0.0000000000000000e+00  1.5682757087979220e-04 3.6199218149491970e-06 0.0000000000000000e+00  1.4768456314060867e-04 9.1177359255714073e-06 0.0000000000000000e+00  1.0636789054258380e-04 2.1159427307694411e-05 0.0000000000000000e+00  0.0000000000000000e+00 0.0000000000000000e+00 0.0000000000000000e+00  2.7000461165050425e-06 -8.9982749704012978e-08 0.0000000000000000e+00  5.5024426548392919e-06 -1.8186036152306116e-07 0.0000000000000000e+00  8.5110558842778846e-06 -2.7722405404793664e-07 0.0000000000000000e+00  1.1835839690921651e-05 -3.7708259133487793e-07 0.0000000000000000e+00  1.5595094910321249e-05 -4.8133306423906894e-07 0.0000000000000000e+00  1.9916399269774263e-05 -5.8788308948999181e-07 0.0000000000000000e+00  2.4934455392092480e-05 -6.9118284394772363e-07 0.0000000000000000e+00  3.0781927864028824e-05 -7.7980393976162792e-07 0.0000000000000000e+00  3.7564208905825772e-05 -8.3258472402561993e-07 0.0000000000000000e+00  4.5296264516740815e-05 -8.1297780642935936e-07 0.0000000000000000e+00  5.3745521231818728e-05 -6.6256722455378582e-07 0.0000000000000000e+00  6.2025553507209105e-05 -3.0123568718366188e-07 0.0000000000000000e+00  6.7473039324203124e-05 3.3070116200830912e-07 0.0000000000000000e+00  6.2310704585591129e-05 1.0378863351605336e-06 0.0000000000000000e+00  2.3613888353493136e-05 3.5780193400719323e-07 0.0000000000000000e+00  -1.0782534429282422e-04 -7.5492484864291801e-06 0.0000000000000000e+00  0.0000000000000000e+00 0.0000000000000000e+00 0.0000000000000000e+00  0.0000000000000000e+00 0.0000000000000000e+00 0.0000000000000000e+00  0.0000000000000000e+00 0.0000000000000000e+00 0.0000000000000000e+00  0.0000000000000000e+00 0.0000000000000000e+00 0.0000000000000000e+00  0.0000000000000000e+00 0.0000000000000000e+00 0.0000000000000000e+00  0.0000000000000000e+00 0.0000000000000000e+00 0.0000000000000000e+00  0.0000000000000000e+00 0.0000000000000000e+00 0.0000000000000000e+00  0.0000000000000000e+00 0.0000000000000000e+00 0.0000000000000000e+00  0.0000000000000000e+00 0.0000000000000000e+00 0.0000000000000000