<?xml version="1.0"?>
<VTKFile type="UnstructuredGrid"  version="0.1"  >
<UnstructuredGrid>
<Piece  NumberOfPoints="289" NumberOfCells="512">
<Points>
<DataArray  type="Float64"  NumberOfComponents="3"  format="ascii">0 0 0  0.0625 0 0  0.125 0 0  0.1875 0 0  0.25 0 0  0.3125 0 0  0.375 0 0  0.4375 0 0  0.5 0 0  0.5625 0 0  0.625 0 0  0.6875 0 0  0.75 0 0  0.8125 0 0  0.875 0 0  0.9375 0 0  1 0 0  0 0.0625 0  0.06259377243916561 0.06247217963398612 0  0.1251905831029547 0.06244380388417803 0  0.1877935671593219 0.06241434523170312 0  0.2504059665726658 0.06238336226664082 0  0.3130311839153044 0.06235055725993379 0  0.3756728397637736 0.06231585035789085 0  0.4383348496058969 0.06227947213353119 0  0.5010215622224909 0.0622420698477831 0  0.5637380636687154 0.0622048099180341 0  0.6264909045282713 0.06216943459268245 0  0.6892899070429312 0.06213818499196778 0  0.7521528057067087 0.06211341315456124 0  0.8151176510912028 0.06209650570160994 0  0.8782774453901616 0.06208519619467141 0  0.9418805533644218 0.06206668475794572 0  1.006626900755762 0.06200146510684954 0  0 0.125 0  0.06268454617940927 0.124944885992246 0  0.1253751518062364 0.1248886164165975 0  0.1880780771184254 0.1248300862197699 0  0.2507998189465727 0.1247683505343721 0  0.3135472313579938 0.124702735525307 0  0.3763276527978037 0.1246329859886966 0  0.4391490641931516 0.1245594570347866 0  0.5020203390311357 0.1244833475296688 0  0.5649517257938257 0.1244069524463115 0  0.6279558723178593 0.1243338721045732 0  0.6910500507841868 0.1242690494881257 0  0.7542609043342011 0.1242184137529155 0  0.8176339963159274 0.1241878572775463 0  0.8812503293405187 0.1241816519160029 0  0.9452427041050413 0.1242029264372655 0  1.009754137133483 0.1242693559984481 0  0 0.1875 0  0.06276928873591445 0.1874187319392706 0  0.1255475773862552 0.1873356290590827 0  0.1883441735533664 0.1872489189750039 0  0.2511687737977786 0.1871570381262548 0  0.314031660499102 0.187058785082919 0  0.3769439010953833 0.1869535354592227 0  0.4399175679622453 0.186841537683914 0  0.5029660221838749 0.1867243014601977 0  0.5661043497787974 0.1866050707958296 0  0.6293501085985846 0.186489329069028 0  0.6927246099227027 0.1863851939239926 0  0.7562548562083881 0.1863033849064824 0  0.8199753692806201 0.1862560831463504 0  0.8839256787865938 0.1862530643552625 0  0.9481296547715797 0.1862902720570512 0  1.012527770439978 0.186313146476657 0  0 0.25 0  0.06284506609453848 0.2498944075264042 0  0.1257019165076429 0.2497862006382381 0  0.188582749667141 0.2496728225703808 0  0.2515003290894739 0.2495519334998162 0  0.3144682677019367 0.2494215860276809 0  0.3775013068766534 0.2492804898119741 0  0.4406155938593038 0.2491284031414582 0  0.5038289650624014 0.2489666914137349 0  0.5671612396427792 0.2487990856786197 0  0.630634490859914 0.2486326454909391 0  0.6942731108299079 0.2484788534362029 0  0.7581030081311613 0.2483545938587044 0  0.8221480307822311 0.2482824014626543 0  0.8864190639887217 0.2482886602922834 0  0.9508875972465844 0.2483974334150885 0  1.015436909389274 0.248618571162052 0  0 0.3125 0  0.06290910861321389 0.3123726995175868 0  0.12583254231892 0.312241903566985 0  0.1887851430203747 0.3121041471230639 0  0.2517825192720562 0.311956134508005 0  0.3148414346495063 0.3117949047949439 0  0.3779801892069503 0.3116181105480822 0  0.4412189872998756 0.3114244699164064 0  0.5045802737328566 0.3112144711060712 0  0.568088987931257 0.3109914285413204 0  0.6317725986755971 0.3107630019783966 0  0.6956605657712271 0.3105432693785702 0  0.7597823964217176 0.3103553388577137 0  0.8241625737206537 0.3102341973843556 0  0.8888094966034841 0.3102288989755683 0  0.9536957885689458 0.3104023069528953 0  1.018734131375755 0.3108259943648173 0  0 0.375 0  0.06295888878435313 0.374854490750317 0  0.1259342993194229 0.374704529370017 0  0.1889433652708572 0.3745456405774483 0  0.2520042120424112 0.3743734034434683 0  0.315136469111151 0.3741835624086458 0  0.3783617886130369 0.3739722629417212 0  0.4417043672117092 0.3737364912600936 0  0.5051914576179006 0.3734748376359305 0  0.5688538288659111 0.3731887610058374 0  0.6327260667541464 0.3728846092590599 0  0.6968464519800075 0.3725767313731445 0  0.7612558500994043 0.3722920536723981 0  0.8259945818002812 0.3720763533661475 0  0.8910959084682064 0.3720019115295266 0  0.9565757613687795 0.3721750410000239 0  1.022423304659426 0.3727404190571306 0  0 0.4375 0  0.06299221487731148 0.437340732903557 0  0.1260026915040668 0.4371760389616648 0  0.1890503857657358 0.4370003879813882 0  0.2521554843590758 0.43680811873465 0  0.3153400573443488 0.4365934434032336 0  0.3786287474307834 0.4363505643385658 0  0.4420495135060477 0.4360739899159472 0  0.5056344535989488 0.4357591954377665 0  0.5694207462083271 0.4354038731741504 0  0.6334517675378255 0.4350101717816209 0  0.6977784562236424 0.4345885552041318 0  0.7624609852977903 0.4341641945267348 0  0.8275707503791513 0.4337869984770836 0  0.8931927013979273 0.4335460664683793 0  0.9594287204665767 0.4335878146934251 0  1.026406014673835 0.4341343540652888 0  0 0.5 0  0.0630073419166686 0.4998323884140983 0  0.1260341083393473 0.4996584468756504 0  0.1891004807179398 0.4994716407588318 0  0.2522281055875218 0.4992650596749522 0  0.3154408912161678 0.4990312646902761 0  0.3787658834460482 0.4987622038005907 0  0.4422342693554974 0.4984492682576752 0  0.5058825955593432 0.4980836294003188 0  0.5697543708678179 0.4976571198558048 0  0.633902389346825 0.4971641497478785 0  0.698392413161488 0.4966055496579129 0  0.7633093401562018 0.4959958889120021 0  0.8287676172459887 0.4953766966473446 0  0.8949282545613287 0.4948385223276138 0  0.9620252398821025 0.4945528646229866 0  1.03040661697609 0.4948071304277802 0  0 0.5625 0  0.06300309650160885 0.5623303416119931 0  0.1260260825362599 0.5621536373729183 0  0.1890896413498854 0.5619625265011975 0  0.2522161243391175 0.5617489968575413 0  0.3154304769017777 0.561504039676714 0  0.378761287093416 0.5612172960525833 0  0.4422420345679088 0.5608767264251013 0  0.5059126846411288 0.5604683885908138 0  0.5698219302447877 0.5599765251788998 0  0.6340307356094856 0.5593844068149663 0  0.6986185618464876 0.5586768973405013 0  0.7636950088744425 0.5578467877660743 0  0.8294217467992245 0.5569090189371314 0  0.8960521017068389 0.5559299781641721 0  0.9639971130269828 0.5550797906985447 0  1.03392763590057 0.5547027996363556 0  0 0.625 0  0.0629790056711599 0.6248352854968588 0  0.1259775599353256 0.6246631240620315 0  0.1890160104862321 0.6244756528838481 0  0.2521165148183577 0.6242640963069797 0  0.3153040602220848 0.6240182234322297 0  0.378607640778196 0.6237256989963811 0  0.4420616813657122 0.6233712934885002 0  0.5057078740751821 0.6229359351646673 0  0.5695977881599006 0.6223956425782231 0  0.6337971091853679 0.6217205379081199 0  0.6983935526384285 0.6208745892506482 0  0.7635131479187475 0.619817962596165 0  0.8293547830328829 0.6185172009538396 0  0.896260776682169 0.6169766310262649 0  0.9648474667634459 0.615316808827465 0  1.036218540153918 0.6139075174810273 0  0 0.6875 0  0.06293541398524662 0.6873475979336551 0  0.1258891488726515 0.6871877813262541 0  0.1888802951164977 0.6870126495449111 0  0.2519298030212346 0.6868131965007365 0  0.3150615448451187 0.6865786084432726 0  0.3783035547661588 0.6862953565281861 0  0.441689527437717 0.6859459758359856 0  0.5052607020955612 0.6855073848777763 0  0.5690684027468188 0.6849485537512465 0  0.6331779542211922 0.6842272959757543 0  0.6976760489891376 0.6832860358523288 0  0.7626874962982357 0.6820470080850211 0  0.8284173478413048 0.6804102613420113 0  0.8952564626598216 0.678270596444996 0  0.964014472974579 0.6756202430853465 0  1.036351603820524 0.6728697258879646 0  0 0.75 0  0.06287356890406734 0.7498672275545264 0  0.1257633077840707 0.7497275913409894 0  0.1886860889557264 0.7495737219190397 0  0.2516605749159417 0.7493970731138179 0  0.3147082572407152 0.7491871410955703 0  0.3778546853008439 0.7489304078260992 0  0.441130945915349 0.7486088408762805 0  0.5045754426689215 0.7481976938571723 0  0.5682360119189811 0.747662205389069 0  0.6321725005197403 0.7469525444255477 0  0.6964605997009626 0.745995906272847 0  0.7612009157263612 0.7446838816468043 0  0.8265499903843861 0.7428521816550991 0  0.892835601320607 0.7402516387322615 0  0.9609554208732595 0.7365450541042735 0  1.033082852730707 0.7318120134037346 0  0 0.8125 0  0.06279565368103704 0.8123936130362719 0  0.125604427847974 0.8122814594102754 0  0.1884400369445971 0.8121573107436331 0  0.2513177712123486 0.8120138475766915 0  0.3142554329923843 0.8118419134308257 0  0.3772744701358904 0.8116294754598737 0  0.4404013609131693 0.8113601007053043 0  0.5036692472946525 0.8110106454831446 0  0.5671196357740413 0.8105476641610926 0  0.630803535005016 0.809921704371786 0  0.6947804691402557 0.8090580013426254 0  0.7591126634553274 0.8078406307754838 0  0.8238545819034794 0.8060834588963985 0  0.8890721831746434 0.8034713651723723 0  0.955154030011075 0.7994352671284388 0  1.025457576845878 0.7929446843846498 0  0 0.875 0  0.06270474992906978 0.8749256577337967 0  0.125418772666922 0.8748471478847077 0  0.1881517811499727 0.8747599500775632 0  0.2509146873706664 0.8746587018288193 0  0.3137203378864775 0.8745366111974643 0  0.3765844374463616 0.8743846224263809 0  0.439526728690069 0.8741901674094323 0  0.5025724513980129 0.8739352336372948 0  0.5657539066410008 0.8735933079701554 0  0.6291112732719361 0.8731244746656449 0  0.692689730806835 0.872467478274107 0  0.7565239066876195 0.8715266037752102 0  0.8205847586408291 0.8701479483253155 0  0.884629598174257 0.8680636196312531 0  0.9478638028613818 0.8647047335286816 0  1.008554651785666 0.8584392780517591 0  0 0.9375 0  0.06260471878899858 0.9374617741146218 0  0.125214248831688 0.9374213628458342 0  0.1878336408591347 0.9373763899122713 0  0.2504686070186025 0.9373240206779522 0  0.3131259412719656 0.9372606385324309 0  0.3758140708781925 0.937181379464507 0  0.4385438060350282 0.937079425591757
[...]
<PointData  Vectors="f_54"> 
<DataArray  type="Float64"  Name="f_54"  NumberOfComponents="3" format="ascii">0.0000000000000000e+00 0.0000000000000000e+00 0.0000000000000000e+00  0.0000000000000000e+00 0.0000000000000000e+00 0.0000000000000000e+00  0.0000000000000000e+00 0.0000000000000000e+00 0.0000000000000000e+00  0.0000000000000000e+00 0.0000000000000000e+00 0.0000000000000000e+00  0.0000000000000000e+00 0.0000000000000000e+00 0.0000000000000000e+00  0.0000000000000000e+00 0.0000000000000000e+00 0.0000000000000000e+00  0.0000000000000000e+00 0.0000000000000000e+00 0.0000000000000000e+00  0.0000000000000000e+00 0.0000000000000000e+00 0.0000000000000000e+00  0.0000000000000000e+00 0.0000000000000000e+00 0.0000000000000000e+00  0.0000000000000000e+00 0.0000000000000000e+00 0.0000000000000000e+00  0.0000000000000000e+00 0.0000000000000000e+00 0.0000000000000000e+00  0.0000000000000000e+00 0.0000000000000000e+00 0.0000000000000000e+00  0.0000000000000000e+00 0.0000000000000000e+00 0.0000000000000000e+00  0.0000000000000000e+00 0.0000000000000000e+00 0.0000000000000000e+00  0.0000000000000000e+00 0.0000000000000000e+00 0.0000000000000000e+00  0.0000000000000000e+00 0.0000000000000000e+00 0.0000000000000000e+00  0.0000000000000000e+00 0.0000000000000000e+00 0.0000000000000000e+00  0.0000000000000000e+00 0.0000000000000000e+00 0.0000000000000000e+00  3.6562883744421173e-06 -6.1946578958955563e-08 0.0000000000000000e+00  7.4393869559948500e-06 -1.2937302238682372e-07 0.0000000000000000e+00  1.1482596083210209e-05 -2.0834261078408282e-07 0.0000000000000000e+00  1.5925887344504143e-05 -3.0601013421606337e-07 0.0000000000000000e+00  2.0919400544049033e-05 -4.3123052661171955e-07 0.0000000000000000e+00  2.6627031293657089e-05 -5.9521494573979332e-07 0.0000000000000000e+00  3.3230488051327757e-05 -8.1221480770507717e-07 0.0000000000000000e+00  4.0934951536384664e-05 -1.1001979047095765e-06 0.0000000000000000e+00  4.9979536110924606e-05 -1.4815329046031235e-06 0.0000000000000000e+00  6.0661490407814063e-05 -1.9840443419259635e-06 0.0000000000000000e+00  7.3399589154735326e-05 -2.6442203562723433e-06 0.0000000000000000e+00  8.8912244873997075e-05 -3.5195922970699696e-06 0.0000000000000000e+00  1.0874736465156915e-04 -4.7363950562260993e-06 0.0000000000000000e+00  1.3695850934874904e-04 -6.6704341787349144e-06 0.0000000000000000e+00  1.8581570695409307e-04 -1.0647634895994900e-05 0.0000000000000000e+00  2.9752393034314313e-04 -2.1880348412898661e-05 0.0000000000000000e+00  0.0000000000000000e+00 0.0000000000000000e+00 0.0000000000000000e+00  7.1937722121334120e-06 -1.1856132767275144e-07 0.0000000000000000e+00  1.4639618165712112e-05 -2.4761776665904673e-07 0.0000000000000000e+00  2.2602428202952129e-05 -3.9880696996431210e-07 0.0000000000000000e+00  3.1360874842902871e-05 -5.8593954676288770e-07 0.0000000000000000e+00  4.1214559691823346e-05 -8.2623688762824508e-07 0.0000000000000000e+00  5.2491137982691051e-05 -1.1416962212201038e-06 0.0000000000000000e+00  6.5553738047406204e-05 -1.5605398935778019e-06 0.0000000000000000e+00  8.0809716154663612e-05 -2.1186096945100758e-06 0.0000000000000000e+00  9.8723678621915887e-05 -2.8604426618048734e-06 0.0000000000000000e+00  1.1984234978077807e-04 -3.8396653150836499e-06 0.0000000000000000e+00  1.4484962395982904e-04 -5.1183875030693509e-06 0.0000000000000000e+00  1.7469271083799421e-04 -6.7653843482892389e-06 0.0000000000000000e+00  2.1085624159702482e-04 -8.8504954877202267e-06 0.0000000000000000e+00  2.5585323005125556e-04 -1.1409385185788059e-05 0.0000000000000000e+00  3.1350056306433174e-04 -1.4200247567687473e-05 0.0000000000000000e+00  3.8478696950239695e-04 -1.5185343526776842e-05 0.0000000000000000e+00  0.0000000000000000e+00 0.0000000000000000e+00 0.0000000000000000e+00  1.0484342400958642e-05 -1.6480354734688778e-07 0.0000000000000000e+00  2.1341138609986710e-05 -3.4413765515078846e-07 0.0000000000000000e+00  3.2961486486763239e-05 -5.5416386987179176e-07 0.0000000000000000e+00  4.5757920403894507e-05 -8.1422498159287283e-07 0.0000000000000000e+00  6.0175423208766899e-05 -1.1487210683984764e-06 0.0000000000000000e+00  7.6702123569091373e-05 -1.5892643703269307e-06 0.0000000000000000e+00  9.5879487267764760e-05 -2.1770852251874674e-06 0.0000000000000000e+00  1.1831179666300005e-04 -2.9654733420472546e-06 0.0000000000000000e+00  1.4467477894050657e-04 -4.0216676849924381e-06 0.0000000000000000e+00  1.7572315672110755e-04 -5.4268884007153387e-06 0.0000000000000000e+00  2.1229505676226835e-04 -7.2717697282508876e-06 0.0000000000000000e+00  2.5530055751225823e-04 -9.6413815032997252e-06 0.0000000000000000e+00  3.0563602325940306e-04 -1.2576977435583516e-05 0.0000000000000000e+00  3.6380126018958919e-04 -1.5986322671249416e-05 0.0000000000000000e+00  4.2849468083713647e-04 -1.9458166469770219e-05 0.0000000000000000e+00  4.9235326847418489e-04 -2.2071034825591974e-05 0.0000000000000000e+00  0.0000000000000000e+00 0.0000000000000000e+00 0.0000000000000000e+00  1.3405617947456661e-05 -1.9664533217768778e-07 0.0000000000000000e+00  2.7295550002135926e-05 -4.1040413323797415e-07 0.0000000000000000e+00  4.2177817206283396e-05 -6.6038073483003623e-07 0.0000000000000000e+00  5.8590209205351359e-05 -9.6969280357586874e-07 0.0000000000000000e+00  7.7115595461429631e-05 -1.3679523508090014e-06 0.0000000000000000e+00  9.8396771293217267e-05 -1.8942825228982957e-06 0.0000000000000000e+00  1.2315010138085365e-04 -2.6009604466424309e-06 0.0000000000000000e+00  1.5217638858823355e-04 -3.5575781927745448e-06 0.0000000000000000e+00  1.8636569280076117e-04 -4.8551421899765679e-06 0.0000000000000000e+00  2.2668903137412224e-04 -6.6084884494595173e-06 0.0000000000000000e+00  2.7416083756461837e-04 -8.9531943804169008e-06 0.0000000000000000e+00  3.2973383637821757e-04 -1.2028731403344660e-05 0.0000000000000000e+00  3.9403504684759741e-04 -1.5931155546642085e-05 0.0000000000000000e+00  4.6673886497842820e-04 -2.0604395563539672e-05 0.0000000000000000e+00  5.4519874436717521e-04 -2.5621188950619126e-05 0.0000000000000000e+00  6.2197521190879681e-04 -2.9789106737685797e-05 0.0000000000000000e+00  0.0000000000000000e+00 0.0000000000000000e+00 0.0000000000000000e+00  1.5844905306567453e-05 -2.1154351230810951e-07 0.0000000000000000e+00  3.2273470980025814e-05 -4.4095217177352597e-07 0.0000000000000000e+00  4.9897150911517956e-05 -7.0824400883796104e-07 0.0000000000000000e+00  6.9366199877989593e-05 -1.0379538777605550e-06 0.0000000000000000e+00  9.1389920636445620e-05 -1.4620891052829652e-06 0.0000000000000000e+00  1.1675682767232120e-04 -2.0239711060418756e-06 0.0000000000000000e+00  1.4635385544750463e-04 -2.7833065092339013e-06 0.0000000000000000e+00  1.8118249669130953e-04 -3.8227726651688114e-06 0.0000000000000000e+00  2.2236731283268826e-04 -5.2561180164532538e-06 0.0000000000000000e+00  2.7114738756574475e-04 -7.2369487388788938e-06 0.0000000000000000e+00  3.2883158038785049e-04 -9.9653580987810344e-06 0.0000000000000000e+00  3.9667964922832164e-04 -1.3685185700668672e-05 0.0000000000000000e+00  4.7563829545430725e-04 -1.8656177278516881e-05 0.0000000000000000e+00  5.6581697156831345e-04 -2.5070869304457295e-05 0.0000000000000000e+00  6.6558020304439459e-04 -3.2866720873779039e-05 0.0000000000000000e+00  7.7033499756165818e-04 -4.1370522935274258e-05 0.0000000000000000e+00  0.0000000000000000e+00 0.0000000000000000e+00 0.0000000000000000e+00  1.7703395512503438e-05 -2.0880773773069901e-07 0.0000000000000000e+00  3.6072936912850995e-05 -4.3418743616063891e-07 0.0000000000000000e+00  5.5805486704790895e-05 -6.9475714882571142e-07 0.0000000000000000e+00  7.7646174765019928e-05 -1.0136407570230713e-06 0.0000000000000000e+00  1.0241419372777396e-04 -1.4216121850293615e-06 0.0000000000000000e+00  1.3102965361918610e-04 -1.9614827012045691e-06 0.0000000000000000e+00  1.6454113158733582e-04 -2.6944246271035270e-06 0.0000000000000000e+00  2.0415246990155181e-04 -3.7091641809583785e-06 0.0000000000000000e+00  2.5124530929203912e-04 -5.1352116320369275e-06 0.0000000000000000e+00  3.0739002776175253e-04 -7.1613341432228885e-06 0.0000000000000000e+00  3.7433108906124974e-04 -1.0059810956720870e-05 0.0000000000000000e+00  4.5392239858731956e-04 -1.4214511086551288e-05 0.0000000000000000e+00  5.4797600661029113e-04 -2.0144327465462741e-05 0.0000000000000000e+00  6.5798625118285387e-04 -2.8499656362391704e-05 0.0000000000000000e+00  7.8474350165174322e-04 -3.9985209667757796e-05 0.0000000000000000e+00  9.2804672542681505e-04 -5.5127826479609708e-05 0.0000000000000000e+00  0.0000000000000000e+00 0.0000000000000000e+00 0.0000000000000000e+00  1.8900550825237353e-05 -1.8979535948690595e-07 0.0000000000000000e+00  3.8528314227238049e-05 -3.9285691112726279e-07 0.0000000000000000e+00  5.9642805843326038e-05 -6.2407065195184431e-07 0.0000000000000000e+00  8.3061050110728321e-05 -9.0213509987147849e-07 0.0000000000000000e+00  1.0968916509094813e-04 -1.2524276016350051e-06 0.0000000000000000e+00  1.4055686743930036e-04 -1.7113215770388712e-06 0.0000000000000000e+00  1.7685565390834876e-04 -2.3329712107746861e-06 0.0000000000000000e+00  2.1998097619965526e-04 -3.2002023764655958e-06 0.0000000000000000e+00  2.7157784838440792e-04 -4.4421455293377193e-06 0.0000000000000000e+00  3.3358777654914019e-04 -6.2627490961278965e-06 0.0000000000000000e+00  4.0829265300695058e-04 -8.9863382116360672e-06 0.0000000000000000e+00  4.9834942219225678e-04 -1.3128489858598128e-05 0.0000000000000000e+00  6.0681296691735280e-04 -1.9501055664507355e-05 0.0000000000000000e+00  7.3716995375914542e-04 -2.9355634532856261e-05 0.0000000000000000e+00  8.9349493745486069e-04 -4.4556720767055976e-05 0.0000000000000000e+00  1.0810797336678619e-03 -6.7764837713345073e-05 0.0000000000000000e+00  0.0000000000000000e+00 0.0000000000000000e+00 0.0000000000000000e+00  1.9378506431404682e-05 -1.5785671721795223e-07 0.0000000000000000e+00  3.9519423550578547e-05 -3.2400637618915319e-07 0.0000000000000000e+00  6.1217579220775002e-05 -5.0761560780448943e-07 0.0000000000000000e+00  8.5333301152905135e-05 -7.2021870170780230e-07 0.0000000000000000e+00  1.1282933002690495e-04 -9.7770790418535162e-07 0.0000000000000000e+00  1.4481293202855142e-04 -1.3036551019436144e-06 0.0000000000000000e+00  1.8258547335366773e-04 -1.7350954144566272e-06 0.0000000000000000e+00  2.2770222785681500e-04 -2.3328290257336047e-06 0.0000000000000000e+00  2.8204597083284866e-04 -3.2000169606450189e-06 0.0000000000000000e+00  3.4791924236414760e-04 -4.5160000358224265e-06 0.0000000000000000e+00  4.2816282274418398e-04 -6.5979181171403732e-06 0.0000000000000000e+00  5.2631420341587741e-04 -1.0012365082229637e-05 0.0000000000000000e+00  6.4683625897630679e-04 -1.5774550139405478e-05 0.0000000000000000e+00  7.9549223194305078e-04 -2.5694077521168421e-05 0.0000000000000000e+00  9.8007279537035271e-04 -4.2959348158985331e-05 0.0000000000000000e+00  1.2120370649228004e-03 -7.3150838606032384e-05 0.0000000000000000e+00  0.0000000000000000e+00 0.0000000000000000e+00 0.0000000000000000e+00  1.9106154942336867e-05 -1.1797071425027039e-07 0.0000000000000000e+00  3.8980195690744448e-05 -2.3827040532270633e-07 0.0000000000000000e+00  6.0421017532557400e-05 -3.6311252766146267e-07 0.0000000000000000e+00  8.4298526088266563e-05 -4.9499294999724457e-07 0.0000000000000000e+00  1.1159451934804518e-04 -6.3721512896548833e-07 0.0000000000000000e+00  1.4345099618933953e-04 -7.9518595043490927e-07 0.0000000000000000e+00  1.8122970564026297e-04 -9.7934952490226411e-07 0.0000000000000000e+00  2.2658830511555994e-04 -1.2115629460540488e-06 0.0000000000000000e+00  2.8158111448547637e-04 -1.5386710059600188e-06 0.0000000000000000e+00  3.4879698823046503e-04 -2.0611320632679419e-06 0.0000000000000000e+00  4.3155498805252614e-04 -2.9931508886631253e-06 0.0000000000000000e+00  5.3419388123467765e-04 -4.7886752329664522e-06 0.0000000000000000e+00  6.6252207273154032e-04 -8.4036378147385556e-06 0.0000000000000000e+00  8.2456207918188179e-04 -1.5832301196652736e-05 0.0000000000000000e+00  1.0318992627340235e-03 -3.1171345401680100e-05 0.0000000000000000e+00  1.3024725470463031e-03 -6.2698079763180017e-05 0.0000000000000000e+00  0.0000000000000000e+00 0.0000000000000000e+00 0.0000000000000000e+00  1.8082447901585789e-05 -7.6059084887968508e-08 0.0000000000000000e+00  3.6905858780898716e-05 -1.4843962302761148e-07 0.0000000000000000e+00  5.7239362058103467e-05 -2.1227661149831661e-07 0.0000000000000000e+00  7.9924945428916472e-05 -2.6059385780555887e-07 0.0000000000000000e+00  1.0592005972401160e-04 -2.8299175466896913e-07 0.0000000000000000e+00  1.3634930537626726e-04 -2.6414736616579693e-07 0.0000000000000000e+00  1.7257023266734777e-04 -1.8231047126030742e-07 0.0000000000000000e+00  2.1626074584340461e-04 -8.4874221466728230e-09 0.0000000000000000e+00  2.6953988992864440e-04 2.9171204432825890e-07 0.0000000000000000e+00  3.3514150325021234e-04 7.4836104273932607e-07 0.0000000000000000e+00  4.1667457246070060e-04 1.3562437062305774e-06 0.0000000000000000e+00  5.1903176821147727e-04 1.9882728883416334e-06 0.0000000000000000e+00  6.4906175820269988e-04 2.1654918628060431e-06 0.0000000000000000e+00  8.1672596179488931e-04 4.6614198141127796e-07 0.0000000000000000e+00  1.0371707049543616e-03 -6.9123822510247717e-06 0.0000000000000000e+00  1.3347092949104013e-03 -2.9375455834543562e-05 0.0000000000000000e+00  0.0000000000000000e+00 0.0000000000000000e+00 0.0000000000000000e+00  1.6338394056207368e-05 -3.8045415405289970e-08 0.0000000000000000e+00  3.3357502908528914e-05 -6.7424598629658545e-08 0.0000000000000000e+00  5.1762175413042243e-05 -7.7354150066475007e-08 0.0000000000000000e+00  7.2327448673702453e-05 -5.2749889260441661e-08 0.0000000000000000e+00  9.5939979258196820e-05 2.8878402184875821e-08 0.0000000000000000e+00  1.2364920625467269e-04 2.0183267865220158e-07 0.0000000000000000e+00  1.5673382403208282e-04 5.1868235492952448e-07 0.0000000000000000e+00  1.9679209519909245e-04 1.0598067738441709e-06 0.0000000000000000e+00  2.4586983061057529e-04 1.9473514589763584e-06 0.0000000000000000e+00  3.0664981222417771e-04 3.3648181917545174e-06 0.0000000000000000e+00  3.8274630552157559e-04 5.5813506734346479e-06 0.0000000000000000e+00  4.7919067072961941e-04 8.9691459143016002e-06 0.0000000000000000e+00  6.0328893030979925e-04 1.3958941798234478e-05 0.0000000000000000e+00  7.6624260196341877e-04 2.0714256461054818e-05 0.0000000000000000e+00  9.8630438023151177e-04 2.7787535460828831e-05 0.0000000000000000e+00  1.2946079018458904e-03 2.8606547668295985e-05 0.0000000000000000e+00  0.0000000000000000e+00 0.0000000000000000e+00 0.0000000000000000e+00  1.3937292229703214e-05 -8.8124863388033628e-09 0.0000000000000000e+00  2.8462969701522723e-05 -5.9446914959332018e-09 0.0000000000000000e+00  4.4184714492253742e-05 2.2964873183678890e-08 0.0000000000000000e+00  6.1772908861366149e-05 9.8003208845617629e-08 0.0000000000000000e+00  8.1997767162768852e-05 2.4933152768538084e-07 0.0000000000000000e+00  1.0577562973074564e-04 5.2372134234394724e-07 0.0000000000000000e+00  1.3422967709314672e-04 9.9484599204423837e-07 0.0000000000000000e+00  1.6877313661676669e-04 1.7799877874743340e-06 0.0000000000000000e+00  2.1122814243695515e-04 3.0678749163367197e-06 0.0000000000000000e+00  2.6400325705321597e-04 5.1663297936832498e-06 0.0000000000000000e+00  3.3037367371535831e-04 8.5861930275733111e-06 0.0000000000000000e+00  4.1495835426370121e-04 1.4192562314479321e-05 0.0000000000000000e+00  5.2462176584815124e-04 2.3473961648240538e-05 0.0000000000000000e+00  6.7040898517461620e-04 3.8941891910505073e-05 0.0000000000000000e+00  8.7224835931280060e-04 6.3983834963431526e-05 0.0000000000000000e+00  1.1712490054200228e-03 9.5636585915826752e-05 0.0000000000000000e+00  0.0000000000000000e+00 0.0000000000000000e+00 0.0000000000000000e+00  1.0972908416308413e-05 8.7232360957378019e-09 0.0000000000000000e+00  2.2413376381149568e-05 2.9563353435936982e-08 0.0000000000000000e+00  3.4803073005921748e-05 7.7356162761041567e-08 0.0000000000000000e+00  4.8674428696726903e-05 1.7289921993521129e-07 0.0000000000000000e+00  6.4640622914939212e-05 3.4758750541685917e-07 0.0000000000000000e+00  8.3433035463011297e-05 6.5054962017822247e-07 0.0000000000000000e+00  1.0595029725144004e-04 1.1601777619247123e-06 0.0000000000000000e+00  1.3332509518929099e-04 2.0033829783020075e-06 0.0000000000000000e+00  1.6701832952806161e-04 3.3887463590429577e-06 0.0000000000000000e+00  2.0895657644625601e-04 5.6657023972954958e-06 0.0000000000000000e+00  2.6174254289090050e-04 9.4356086399632006e-06 0.0000000000000000e+00  3.2900535099915270e-04 1.5775782429103479e-05 0.0000000000000000e+00  4.1607976133986021e-04 2.6738632877051994e-05 0.0000000000000000e+00  5.3163632348189409e-04 4.6603457898406781e-05 0.0000000000000000e+00  6.9220585489729097e-04 8.5378871844084010e-05 0.0000000000000000e+00  9.3026763428995685e-04 1.6911856806749097e-04 0.0000000000000000e+00  0.0000000000000000e+00 0.0000000000000000e+00 0.0000000000000000e+00  7.5655598824846824e-06 1.4190910007233450e-08 0.0000000000000000e+00  1.5455139875122942e-05 3.8282297201117230e-08 0.0000000000000000e+00  2.4001757882697127e-05 8.4369632444578777e-08 0.0000000000000000e+00  3.3573792632968651e-05 1.6943260974815576e-07 0.0000000000000000e+00  4.4595723888476061e-05 3.1916738771534660e-07 0.0000000000000000e+00  5.7573899037755096e-05 5.7392938621471470e-07 0.0000000000000000e+00  7.3129896387008901e-05 9.9837285878539124e-07 0.0000000000000000e+00  9.2044961421982379e-05 1.6975115409298852e-06 0.0000000000000000e+00  1.1532000014241290e-04 2.8439989551285228e-06 0.0000000000000000e+00  1.4425604454869055e-04 4.7252752343664240e-06 0.0000000000000000e+00  1.8055809754037323e-04 7.8268092769921851e-06 0.0000000000000000e+00  2.2645969532971656e-04 1.2985408457233036e-05 0.0000000000000000e+00  2.8488896928335683e-04 2.1705172974041828e-05 0.0000000000000000e+00  3.6008707951119790e-04 3.7008402442573104e-05 0.0000000000000000e+00  4.6223295874543469e-04 6.6800710911956714e-05 0.0000000000000000e+00  6.3738770449094399e-04 1.4019913355969114e-04 0.0000000000000000e+00  0.0000000000000000e+00 0.0000000000000000e+00 0.0000000000000000e+00  3.8563460091844357e-06 9.8308414719646202e-09 0.0000000000000000e+00  7.8779901788683904e-06 2.5196180209703938e-08 0.0000000000000000e+00  1.2234489273962359e-05 5.2846344134099754e-08 0.0000000000000000e+00  1.7113316278909818e-05 1.0225609377751262e-07 0.0000000000000000e+00  2.2730262628857956e-05 1.8776255882102842e-07 0.0000000000000000e+00  2.9342230534397796e-05 3.3187371863147731e-07 0.0000000000000000e+00  3.7263496435946183e-05 5.7059293450679663e-07 0.0000000000000000e+00  4.6886640879825884e-05 9.6212007329741332e-07 0.0000000000000000e+00  5.8708819239664159e-05 1.6009940139288468e-06 0.0000000000000000e+00  7.3360798273745990e-05 2.6401436640138112e-06 0.0000000000000000e+00  9.1622013740804702e-05 4.3205381129335097e-06 0.0000000000000000e+00  1.1434658357032334e-04 6.9883142937066293e-06 0.0000000000000000e+00  1.4198560289534445e-04 1.0979344808040770e-05 0.0000000000000000e+00  1.7245431718835216e-04 1.5810468429943190e-05 0.0000000000000000e+00  1.9354424774911829e-04 1.6726359355710701e-05 0.0000000000000000e+00  1.7166682073701967e-04 -1.5478284933894877e-06 0.0000000000000000e+00  0.0000000000000000e+00 0.0000000000000000e+00 0.0000000000000000e+00  0.0000000000000000e+00 0.0000000000000000e+00 0.0000000000000000e+00  0.0000000000000000e+00 0.0000000000000000e+00 0.0000000000000000e+00  0.0000000000000000e+00 0.0000000000000000e+00 0.0000000000000000e+00  0.0000000000000000e+00 0.0000000000000000e+00 0.0000000000000000e+00  0.0000000000000000e+00 0.0000000000000000e+00 0.0000000000000000e+00  0.0000000000000000e+00 0.0000000000000000e+00 0.0000000000000000e+00  0.0000000000000000e+00 0.0000000000000000e+00 0.0000000000000000e+00  0.0000000000000000e+00 0.0000000000000000e+00 0.0000000000000000e+00  0.0000000000000000e+00 0.0000000000000000e+00 0.0000000000000