<?xml version="1.0"?>
<VTKFile type="UnstructuredGrid"  version="0.1"  >
<UnstructuredGrid>
<Piece  NumberOfPoints="289" NumberOfCells="512">
<Points>
<DataArray  type="Float64"  NumberOfComponents="3"  format="ascii">0 0 0  0.0625 0 0  0.125 0 0  0.1875 0 0  0.25 0 0  0.3125 0 0  0.375 0 0  0.4375 0 0  0.5 0 0  0.5625 0 0  0.625 0 0  0.6875 0 0  0.75 0 0  0.8125 0 0  0.875 0 0  0.9375 0 0  1 0 0  0 0.0625 0  0.06245620586882646 0.06247781309454133 0  0.124911664285531 0.06245523816282736 0  0.1873656691304486 0.06243191925359384 0  0.2498177065725697 0.06240758518777791 0  0.3122675918004896 0.06238210437922537 0  0.3747156628277214 0.06235555333359342 0  0.437163062137926 0.06232829955668673 0  0.4996121529199937 0.06230109397652443 0  0.5620671500937965 0.06227515794688936 0  0.624535122378843 0.0622522339942155 0  0.6870277067999553 0.06223454851332694 0  0.749564349017822 0.06222461869188606 0  0.8121791052229856 0.06222486825115236 0  0.874936075845282 0.06223726847472207 0  0.9379645760158991 0.06226451443402893 0  1.001522938912037 0.06232292610119516 0  0 0.125 0  0.06241320117637018 0.1249560024111424 0  0.1248248314023765 0.1249111867926083 0  0.1872333965369367 0.1248647945781252 0  0.249637764818761 0.1248162267308846 0  0.3120374285540488 0.1247651500723878 0  0.3744328786762687 0.1247116341552399 0  0.436826151331727 0.1246563231567667 0  0.4992216320272484 0.1246006377117782 0  0.5616272521964109 0.1245469830355684 0  0.6240563104382292 0.1244989071941591 0  0.686530347505975 0.1244611027858495 0  0.7490838870097808 0.1244390800159594 0  0.8117724908646675 0.1244382915357338 0  0.8746861707488026 0.1244625777160325 0  0.9379691058007705 0.124512274907885 0  1.001844485689761 0.1245820194470972 0  0 0.1875 0  0.06237187498382885 0.1874350060496432 0  0.1247411994944688 0.1873686873339143 0  0.1871055181714008 0.1872997961211213 0  0.2494628514642165 0.1872272974513013 0  0.3118120482707947 0.1871505184545615 0  0.3741532986888117 0.1870693499070243 0  0.4364888867540045 0.1869845137635549 0  0.4988242894931854 0.1868979009235568 0  0.5611697671625142 0.1868129614791533 0  0.6235426433814593 0.1867350846916538 0  0.6859705364003295 0.1866718206253573 0  0.7484958169247434 0.1866326378717125 0  0.8111812991874304 0.1866276039758507 0  0.8741159326968505 0.1866636556132678 0  0.93741582391797 0.1867350149314418 0  1.001210978013006 0.186797519379119 0  0 0.25 0  0.06233326903673047 0.2499153378420765 0  0.1246627998077593 0.2498287437838866 0  0.186984940561665 0.2497383649979373 0  0.2492965423759937 0.2496425797128327 0  0.3115953505696117 0.2495401729831419 0  0.37388059176356 0.2494305902386217 0  0.4361538515219304 0.2493142983205925 0  0.4984203603609983 0.2491932808807642 0  0.5606908256623307 0.2490716802722791 0  0.6229839452770638 0.2489565574005526 0  0.6853296689698706 0.2488586491486588 0  0.7477730267629574 0.2487928164760719 0  0.8103776907808404 0.2487775263110532 0  0.8732270325082429 0.2488321211153345 0  0.9364182172337733 0.2489699402998043 0  1.000043428642713 0.2491862468349393 0  0 0.3125 0  0.06229861546946207 0.3123976099688133 0  0.1245920863635489 0.3122925743711563 0  0.1868753120127981 0.3121823074739602 0  0.2491436129738596 0.3120644235617089 0  0.3113930954757303 0.3119369117481917 0  0.373621234169995 0.3117984132121827 0  0.4358277829479398 0.3116486517083794 0  0.4980161497691648 0.3114890798239887 0  0.5601953877167545 0.3113238103064697 0  0.6223829320430019 0.3111608901465641 0  0.6846080932988793 0.3110139157836423 0  0.7469159996653458 0.3109038257472428 0  0.8093710479520274 0.3108603557676061 0  0.8720579971418254 0.3109220157447144 0  0.9350783201940993 0.3111326219616623 0  0.9985417023431291 0.3115319386338275 0  0 0.375 0  0.06226933356297622 0.3748825379578897 0  0.1245319399621172 0.3747616280455758 0  0.1867810555271819 0.3746338372527602 0  0.2490101350811613 0.3744958399651153 0  0.3112131137835667 0.3743445523996672 0  0.3733848934471317 0.3741773845404508 0  0.4355221803983116 0.373992681488366 0  0.4976248458839504 0.3737904585978835 0  0.5596980233404689 0.3735735775984935 0  0.6217551724352804 0.3733495571896594 0  0.6838222705876287 0.373133235811669 0  0.745943045238918 0.3729504389745242 0  0.8081846434741734 0.3728425052792257 0  0.8706424386633818 0.3728707611141098 0  0.9334424992608535 0.3731185940753097 0  0.9967424132970888 0.373686836372773 0  0 0.4375 0  0.06224697866217638 0.4373709217992268 0  0.1244855713109895 0.4372375517848112 0  0.186707237713357 0.4370955411118211 0  0.2489033325947443 0.4369404888512673 0  0.3110651832863837 0.4367679872425633 0  0.3731843723386851 0.4365737788701987 0  0.4352533673162092 0.4363541096734671 0  0.4972667168395747 0.4361064160926894 0  0.5592231376827826 0.4358305717543657 0  0.6211289420820018 0.4355310498076551 0  0.6830033541029022 0.4352205299389761 0  0.7448862325857533 0.4349256428216003 0  0.8068483715517869 0.4346955104120491 0  0.8690037297096521 0.4346130460409951 0  0.9315219948862784 0.4348068892445967 0  0.9946407672874852 0.4354581272041898 0  0 0.5 0  0.06223314105624512 0.4998635984151623 0  0.1244563171383614 0.4997220970176303 0  0.1866592605411919 0.4995702443789697 0  0.2488311724229725 0.4994025180052565 0  0.3109605361921252 0.4992130301686885 0  0.3730350765180402 0.4989955095322582 0  0.4350420054267227 0.498743434432404 0  0.4969688131859442 0.4984504612213127 0  0.5588050567011491 0.4981114147233415 0  0.6205459037415585 0.4977243287238551 0  0.6821986169500511 0.4972944005276507 0  0.743793620015297 0.4968413010125843 0  0.8054019405253011 0.4964119606071347 0  0.8671599125132161 0.4961010946212529 0  0.929299272309885 0.4960794921467219 0  0.992178282390149 0.4966226983223953 0  0 0.5625 0  0.06222929821998566 0.5623613643516358 0  0.124447333859524 0.562216960525212 0  0.1866423769409186 0.5620607625142576 0  0.2488016799242416 0.561886219081187 0  0.3109109628411448 0.5616859818520223 0  0.3729539315174677 0.5614516391809138 0  0.4349119331231767 0.561173494974107 0  0.4967639947609583 0.5608404909223234 0  0.5584877708055392 0.5604404964389178 0  0.6200624526441663 0.5599614562241094 0  0.6814756198722584 0.559394438509542 0  0.7427374372905005 0.5587407377053494 0  0.8039072361406754 0.5580272156036858 0  0.8651377889291012 0.55733692189833 0  0.9267375359258326 0.5568628983233584 0  0.9892363950853739 0.5569830914825828 0  0 0.625 0  0.06223663082850101 0.6248648734175316 0  0.1244612074978587 0.6247235676611197 0  0.1866610517588261 0.6245695455103152 0  0.2488219909751895 0.6243954967471332 0  0.3109274898654819 0.6241928782980677 0  0.3729576478845169 0.6239513649036648 0  0.4348880738778022 0.6236581846957836 0  0.4966887711012987 0.6232973350453033 0  0.5583234640326447 0.6228487409993684 0  0.6197504835062527 0.6222876099458179 0  0.6809278016540407 0.6215847595422211 0  0.7418277274574999 0.6207100931813753 0  0.8024717577389289 0.6196449874476287 0  0.8630019161118799 0.618417649508661 0  0.9238031959528931 0.6171886455856433 0  0.9856675544896608 0.6164093037022206 0  0 0.6875 0  0.06225582157234479 0.6873745213222979 0  0.124499517340515 0.68724282224063 0  0.1867182209252638 0.6870982515368271 0  0.2488971981301315 0.6869331965064314 0  0.3110186659244177 0.6867384664047362 0  0.3730602773703559 0.6865024886558169 0  0.4349931347309882 0.6862102147303156 0  0.4967792209206009 0.6858415916448751 0  0.5583683086621575 0.6853694016743848 0  0.6196949842467574 0.6847562308300896 0  0.6806780785877653 0.6839504185392985 0  0.7412290980240679 0.6828815848311828 0  0.8012863801602558 0.6814597569930559 0  0.860911690250536 0.6795957154849563 0  0.9205053123564942 0.6773063278260177 0  0.981146963974431 0.6750136215340591 0  0 0.75 0  0.06228686515843156 0.7498903363203109 0  0.1245624130154456 0.7497748640432812 0  0.1868145439409535 0.7496473186922127 0  0.2490291219101276 0.7495003968198122 0  0.3111886068480317 0.7493250587451141 0  0.3732701746446375 0.7491095751511727 0  0.4352430150406539 0.7488381533943939 0  0.497064362181458 0.7484888806577443 0  0.5586736665837643 0.7480305403958257 0  0.619984325129889 0.7474175164078053 0  0.680873175619814 0.7465813413236041 0  0.7411716535301541 0.7454162656560481 0  0.8006757780238113 0.7437548640981981 0  0.8592345113617721 0.7413338402916976 0  0.9170889713143354 0.7378077607522833 0  0.9755141726239562 0.7334266005992717 0  0 0.8125 0  0.06232892554996464 0.8124118989156848 0  0.1246482849809237 0.8123188855338342 0  0.1869477893698958 0.8122156273707748 0  0.2492152297379237 0.8120958213424191 0  0.3114351302582454 0.8119515244816687 0  0.3735868058841112 0.8117722152425008 0  0.4356413935724692 0.8115434053841428 0  0.4975571239802259 0.8112445070969273 0  0.5592715577430499 0.81084544085425 0  0.6206885754045242 0.8103010152836461 0  0.6816564962130137 0.8095410525232818 0  0.741932528698082 0.8084514692998174 0  0.801133058775178 0.8068337187982451 0  0.8587067436128984 0.8043071463253909 0  0.9141895599157804 0.8000484123989176 0  0.9696629850229896 0.7919444630912958 0  0 0.875 0  0.06238027853799891 0.8749383124209454 0  0.1247536170376429 0.8748730580266851 0  0.1871125203431933 0.8748003474575236 0  0.2494479991095857 0.874715540137911 0  0.3117484918616368 0.8746127187804716 0  0.3739982619356045 0.8744839444538414 0  0.4361748500064477 0.8743181489359227 0  0.4982448058283923 0.8740994414788305 0  0.5601561831896479 0.8738044811103464 0  0.6218246942026721 0.8733983659756778 0  0.6831068862448405 0.8728281223460551 0  0.7437456219473991 0.8720118110292345 0  0.8032545075963026 0.8708165887070569 0  0.8606670042222844 0.8689963261759093 0  0.9140065836030754 0.8659556385165202 0  0.9593560076204379 0.8597552371841313 0  0 0.9375 0  0.06243836992906836 0.9374682385927775 0  0.124873094857155 0.9374346010595048 0  0.1873002304217683 0.9373970363391705 0  0.2497150199991087 0.9373530841543104 0  0.3121113012649617 0.9372995869976352 0  0.3744806113260719 0.9372322809392748 0  0.4368107394251344 0.
[...]
<PointData  Vectors="f_54"> 
<DataArray  type="Float64"  Name="f_54"  NumberOfComponents="3" format="ascii">0.0000000000000000e+00 0.0000000000000000e+00 0.0000000000000000e+00  0.0000000000000000e+00 0.0000000000000000e+00 0.0000000000000000e+00  0.0000000000000000e+00 0.0000000000000000e+00 0.0000000000000000e+00  0.0000000000000000e+00 0.0000000000000000e+00 0.0000000000000000e+00  0.0000000000000000e+00 0.0000000000000000e+00 0.0000000000000000e+00  0.0000000000000000e+00 0.0000000000000000e+00 0.0000000000000000e+00  0.0000000000000000e+00 0.0000000000000000e+00 0.0000000000000000e+00  0.0000000000000000e+00 0.0000000000000000e+00 0.0000000000000000e+00  0.0000000000000000e+00 0.0000000000000000e+00 0.0000000000000000e+00  0.0000000000000000e+00 0.0000000000000000e+00 0.0000000000000000e+00  0.0000000000000000e+00 0.0000000000000000e+00 0.0000000000000000e+00  0.0000000000000000e+00 0.0000000000000000e+00 0.0000000000000000e+00  0.0000000000000000e+00 0.0000000000000000e+00 0.0000000000000000e+00  0.0000000000000000e+00 0.0000000000000000e+00 0.0000000000000000e+00  0.0000000000000000e+00 0.0000000000000000e+00 0.0000000000000000e+00  0.0000000000000000e+00 0.0000000000000000e+00 0.0000000000000000e+00  0.0000000000000000e+00 0.0000000000000000e+00 0.0000000000000000e+00  0.0000000000000000e+00 0.0000000000000000e+00 0.0000000000000000e+00  5.3347719001834039e-07 3.7808611843873908e-08 0.0000000000000000e+00  1.0540148325755057e-06 7.5826841131054023e-08 0.0000000000000000e+00  1.5446297670492951e-06 1.1414055717041608e-07 0.0000000000000000e+00  1.9789965036376076e-06 1.5252111920257442e-07 0.0000000000000000e+00  2.3154954760672563e-06 1.9023101881870614e-07 0.0000000000000000e+00  2.4895898523799992e-06 2.2579405484867325e-07 0.0000000000000000e+00  2.4036676021512745e-06 2.5674185647430517e-07 0.0000000000000000e+00  1.9129073737219955e-06 2.7938412706391408e-07 0.0000000000000000e+00  8.0419530616171583e-07 2.8871969922221526e-07 0.0000000000000000e+00  -1.2390783522525833e-06 2.7874587262195987e-07 0.0000000000000000e+00  -4.7054306375250206e-06 2.4374413410218986e-07 0.0000000000000000e+00  -1.0411448263739029e-05 1.8202688951741303e-07 0.0000000000000000e+00  -1.9912528804659104e-05 1.0678661921431560e-07 0.0000000000000000e+00  -3.6717838712971897e-05 8.1287959523255771e-08 0.0000000000000000e+00  -7.0271250257753653e-05 3.5010127809062508e-07 0.0000000000000000e+00  -1.5030207042446018e-04 1.8877909665685416e-06 0.0000000000000000e+00  0.0000000000000000e+00 0.0000000000000000e+00 0.0000000000000000e+00  1.0787724066135820e-06 7.5327586871588318e-08 0.0000000000000000e+00  2.1361116028256154e-06 1.5122189245939230e-07 0.0000000000000000e+00  3.1430326039777988e-06 2.2801801074252309e-07 0.0000000000000000e+00  4.0529697467364097e-06 3.0545406071629853e-07 0.0000000000000000e+00  4.7905589616610703e-06 3.8229006272277923e-07 0.0000000000000000e+00  5.2373158154299303e-06 4.5583902879527903e-07 0.0000000000000000e+00  5.2128165228363704e-06 5.2141533025619678e-07 0.0000000000000000e+00  4.4493999147597085e-06 5.7175931272462755e-07 0.0000000000000000e+00  2.5569688204101514e-06 5.9659828612145898e-07 0.0000000000000000e+00  -1.0291107508764721e-06 5.8267434842724327e-07 0.0000000000000000e+00  -7.1327186689300099e-06 5.1481361533572625e-07 0.0000000000000000e+00  -1.6989939760174558e-05 3.7881343812103854e-07 0.0000000000000000e+00  -3.2545581422571805e-05 1.6628963568480209e-07 0.0000000000000000e+00  -5.7014703889122831e-05 -1.2443726332640001e-07 0.0000000000000000e+00  -9.5668086449272728e-05 -5.3484145191227816e-07 0.0000000000000000e+00  -1.5489495770753197e-04 -1.5015893283317985e-06 0.0000000000000000e+00  0.0000000000000000e+00 0.0000000000000000e+00 0.0000000000000000e+00  1.6439986937238143e-06 1.1217479652016203e-07 0.0000000000000000e+00  3.2663781353784333e-06 2.2555239099961028e-07 0.0000000000000000e+00  4.8354349083041258e-06 3.4102884096833786e-07 0.0000000000000000e+00  6.2956608484968848e-06 4.5868933016663991e-07 0.0000000000000000e+00  7.5524326260357078e-06 5.7726283762704064e-07 0.0000000000000000e+00  8.4524220632949020e-06 6.9341167696781000e-07 0.0000000000000000e+00  8.7581099811684475e-06 8.0082602114369710e-07 0.0000000000000000e+00  8.1146534879987983e-06 8.8914568928811489e-07 0.0000000000000000e+00  6.0071791926096915e-06 9.4284044480076384e-07 0.0000000000000000e+00  1.7063226927235296e-06 9.4037384286780019e-07 0.0000000000000000e+00  -5.8001696692848232e-06 8.5426001277957696e-07 0.0000000000000000e+00  -1.7889222998578761e-05 6.5291853946598749e-07 0.0000000000000000e+00  -3.6379682310740973e-05 3.0531320046232079e-07 0.0000000000000000e+00  -6.3509622081543319e-05 -2.1060373868752023e-07 0.0000000000000000e+00  -1.0143758426025016e-04 -8.8808815092780285e-07 0.0000000000000000e+00  -1.5010627814435111e-04 -1.5815789098956193e-06 0.0000000000000000e+00  0.0000000000000000e+00 0.0000000000000000e+00 0.0000000000000000e+00  2.2289468451883331e-06 1.4769141259679806e-07 0.0000000000000000e+00  4.4472795286493609e-06 2.9759597403261974e-07 0.0000000000000000e+00  6.6331034987787585e-06 4.5159736677163613e-07 0.0000000000000000e+00  8.7372899755300511e-06 6.1066966172388769e-07 0.0000000000000000e+00  1.0665598849179691e-05 7.7421971112307438e-07 0.0000000000000000e+00  1.2255452939961235e-05 9.3916733269394288e-07 0.0000000000000000e+00  1.3245509965965164e-05 1.0986672186593053e-06 0.0000000000000000e+00  1.3236475046622787e-05 1.2404009832873617e-06 0.0000000000000000e+00  1.1642601920333459e-05 1.3444549366161229e-06 0.0000000000000000e+00  7.6358891619853297e-06 1.3810079664014698e-06 0.0000000000000000e+00  9.0941882196392705e-08 1.3084564529617954e-06 0.0000000000000000e+00  -1.2447821073939568e-05 1.0732317912880361e-06 0.0000000000000000e+00  -3.1723267258944828e-05 6.1326300929405192e-07 0.0000000000000000e+00  -5.9522534577449497e-05 -1.3292060122884769e-07 0.0000000000000000e+00  -9.6970528200212384e-05 -1.2128911289364956e-06 0.0000000000000000e+00  -1.4293741549891882e-04 -2.6677545777952000e-06 0.0000000000000000e+00  0.0000000000000000e+00 0.0000000000000000e+00 0.0000000000000000e+00  2.8222039759342714e-06 1.8084805064665950e-07 0.0000000000000000e+00  5.6575046656585621e-06 3.6533094260647800e-07 0.0000000000000000e+00  8.5081399402184104e-06 5.5680346226991062e-07 0.0000000000000000e+00  1.1349165142038300e-05 7.5777898556103563e-07 0.0000000000000000e+00  1.4109867887903227e-05 9.6925461298155817e-07 0.0000000000000000e+00  1.6648748882758154e-05 1.1896794005042214e-06 0.0000000000000000e+00  1.8719654218862306e-05 1.4133779814560205e-06 0.0000000000000000e+00  1.9926915633799130e-05 1.6282020176452101e-06 0.0000000000000000e+00  1.9668626456548947e-05 1.8121875679946150e-06 0.0000000000000000e+00  1.7070614386411261e-05 1.9291457649914070e-06 0.0000000000000000e+00  1.0921352210487225e-05 1.9235992188528135e-06 0.0000000000000000e+00  -3.6655937146139046e-07 1.7165988794585274e-06 0.0000000000000000e+00  -1.8714686451016073e-05 1.2060148981592111e-06 0.0000000000000000e+00  -4.6158773922827768e-05 2.7773128815715251e-07 0.0000000000000000e+00  -8.4302023258460228e-05 -1.1637677611904467e-06 0.0000000000000000e+00  -1.3330243859896627e-04 -3.1383701793254023e-06 0.0000000000000000e+00  0.0000000000000000e+00 0.0000000000000000e+00 0.0000000000000000e+00  3.3996720091898919e-06 2.1020988412122294e-07 0.0000000000000000e+00  6.8486617437395987e-06 4.2584371343737216e-07 0.0000000000000000e+00  1.0387667735318011e-05 6.5218057634544633e-07 0.0000000000000000e+00  1.4034342028913528e-05 8.9393602450321079e-07 0.0000000000000000e+00  1.7766276335315039e-05 1.1547135945590624e-06 0.0000000000000000e+00  2.1496560554532634e-05 1.4360479726463897e-06 0.0000000000000000e+00  2.5038527941524106e-05 1.7357578281693239e-06 0.0000000000000000e+00  2.8055907853298751e-05 2.0451807737515384e-06 0.0000000000000000e+00  2.9994952078684955e-05 2.3446902792275840e-06 0.0000000000000000e+00  2.9997334031183357e-05 2.5967937217608599e-06 0.0000000000000000e+00  2.6798769117194130e-05 2.7363769974407223e-06 0.0000000000000000e+00  1.8631353222997863e-05 2.6589733840245761e-06 0.0000000000000000e+00  3.1704085768405467e-06 2.2114984217272146e-06 0.0000000000000000e+00  -2.2402670505614593e-05 1.1970263356110236e-06 0.0000000000000000e+00  -6.1128965467882577e-05 -5.8467104099884197e-07 0.0000000000000000e+00  -1.1573435390251873e-04 -3.2317619763021183e-06 0.0000000000000000e+00  0.0000000000000000e+00 0.0000000000000000e+00 0.0000000000000000e+00  3.9248273821690251e-06 2.3398334832114317e-07 0.0000000000000000e+00  7.9455156436871297e-06 4.7540543391317494e-07 0.0000000000000000e+00  1.2153445535769045e-05 7.3177963938346798e-07 0.0000000000000000e+00  1.6625588486252409e-05 1.0105541958837225e-06 0.0000000000000000e+00  2.1411843867984583e-05 1.3188696990528441e-06 0.0000000000000000e+00  2.6514470281642747e-05 1.6629544974626816e-06 0.0000000000000000e+00  3.1855068789759417e-05 2.0468278128897312e-06 0.0000000000000000e+00  3.7222930070449995e-05 2.4697111729167549e-06 0.0000000000000000e+00  4.2196833616722635e-05 2.9211031202743613e-06 0.0000000000000000e+00  4.6031468112266662e-05 3.3718377204090819e-06 0.0000000000000000e+00  4.7501524336662283e-05 3.7588357310064354e-06 0.0000000000000000e+00  4.4704875129494300e-05 3.9615643119898352e-06 0.0000000000000000e+00  3.4845966245755278e-05 3.7718837858897537e-06 0.0000000000000000e+00  1.4052491793330301e-05 2.8705951461268238e-06 0.0000000000000000e+00  -2.2696577999019348e-05 8.4765283140770549e-07 0.0000000000000000e+00  -8.1497148670986962e-05 -2.6691691892635955e-06 0.0000000000000000e+00  0.0000000000000000e+00 0.0000000000000000e+00 0.0000000000000000e+00  4.3509902347816245e-06 2.5016053357597683e-07 0.0000000000000000e+00  8.8503617701964786e-06 5.0976000232243383e-07 0.0000000000000000e+00  1.3647929552484358e-05 7.8859012140413023e-07 0.0000000000000000e+00  1.8892216433425711e-05 1.0970492420710707e-06 0.0000000000000000e+00  2.4725324910330897e-05 1.4463803869303501e-06 0.0000000000000000e+00  3.1270621922424981e-05 1.8487384111953102e-06 0.0000000000000000e+00  3.8607881232398812e-05 2.3168248305624219e-06 0.0000000000000000e+00  4.6727314438060016e-05 2.8624918199403224e-06 0.0000000000000000e+00  5.5449269575706325e-05 3.4930146031200292e-06 0.0000000000000000e+00  6.4290434516259300e-05 4.2023719129357965e-06 0.0000000000000000e+00  7.2251624567328530e-05 4.9525514134305609e-06 0.0000000000000000e+00  7.7501282892091888e-05 5.6368737276650846e-06 0.0000000000000000e+00  7.6942859279666595e-05 6.0164048219755119e-06 0.0000000000000000e+00  6.5697044081511368e-05 5.6314281628449995e-06 0.0000000000000000e+00  3.6592527451026735e-05 3.7319436249111771e-06 0.0000000000000000e+00  -2.0274261180746443e-05 -6.5180807713508272e-07 0.0000000000000000e+00  0.0000000000000000e+00 0.0000000000000000e+00 0.0000000000000000e+00  4.6257407590151955e-06 2.5676082998607941e-07 0.0000000000000000e+00  9.4519296883667638e-06 5.2463298648930821e-07 0.0000000000000000e+00  1.4687685417153160e-05 8.1536373462510799e-07 0.0000000000000000e+00  2.0557615715549950e-05 1.1420305596319031e-06 0.0000000000000000e+00  2.7307385304904791e-05 1.5198575670364292e-06 0.0000000000000000e+00  3.5204748525606803e-05 1.9671974866860780e-06 0.0000000000000000e+00  4.4530971335614544e-05 2.5066616779342010e-06 0.0000000000000000e+00  5.5553013236188094e-05 3.1661506177328383e-06 0.0000000000000000e+00  6.8459090946509211e-05 3.9788613865200270e-06 0.0000000000000000e+00  8.3227907382096321e-05 4.9795737455928812e-06 0.0000000000000000e+00  9.9384219418569884e-05 6.1903028483489767e-06 0.0000000000000000e+00  1.1557356836834081e-04 7.5795927220985522e-06 0.0000000000000000e+00  1.2888135588095127e-04 8.9650896315637319e-06 0.0000000000000000e+00  1.3386534817329214e-04 9.8183009030948991e-06 0.0000000000000000e+00  1.2142218288940121e-04 8.9739472382642499e-06 0.0000000000000000e+00  7.7789749529815394e-05 4.4476503486338048e-06 0.0000000000000000e+00  0.0000000000000000e+00 0.0000000000000000e+00 0.0000000000000000e+00  4.6973773254047868e-06 2.5214279171562192e-07 0.0000000000000000e+00  9.6387610292594554e-06 5.1641228375215935e-07 0.0000000000000000e+00  1.5084501750397459e-05 8.0578604266229205e-07 0.0000000000000000e+00  2.1328936243805820e-05 1.1351630064016594e-06 0.0000000000000000e+00  2.8718962585022966e-05 1.5226961177300668e-06 0.0000000000000000e+00  3.7673102228045416e-05 1.9916792724843001e-06 0.0000000000000000e+00  4.8698123406816870e-05 2.5733638420826443e-06 0.0000000000000000e+00  6.2395473704828294e-05 3.3112202887031200e-06 0.0000000000000000e+00  7.9440140507966141e-05 4.2671221432830841e-06 0.0000000000000000e+00  1.0049631659664318e-04 5.5289970797024038e-06 0.0000000000000000e+00  1.2600188470531388e-04 7.2154522655224031e-06 0.0000000000000000e+00  1.5570194251486241e-04 9.4597664778948275e-06 0.0000000000000000e+00  1.8774551308299936e-04 1.2319863805126378e-05 0.0000000000000000e+00  2.1713389071685866e-04 1.5483327883492950e-05 0.0000000000000000e+00  2.3352050234102866e-04 1.7559117521909670e-05 0.0000000000000000e+00  2.1888267395949685e-04 1.4981749101904396e-05 0.0000000000000000e+00  0.0000000000000000e+00 0.0000000000000000e+00 0.0000000000000000e+00  4.5229239430710022e-06 2.3532832089541750e-07 0.0000000000000000e+00  9.3162092622720989e-06 4.8287679839296598e-07 0.0000000000000000e+00  1.4673332428309294e-05 7.5579454462442267e-07 0.0000000000000000e+00  2.0938768088728154e-05 1.0694199449696615e-06 0.0000000000000000e+00  2.8539877260347792e-05 1.4428615477099336e-06 0.0000000000000000e+00  3.8026355289717295e-05 1.9013772634775264e-06 0.0000000000000000e+00  5.0118751895694561e-05 2.4802820015748936e-06 0.0000000000000000e+00  6.5764525825137246e-05 3.2317843385320119e-06 0.0000000000000000e+00  8.6191922006740259e-05 4.2373817102093935e-06 0.0000000000000000e+00  1.1293237938428791e-04 5.6303252135115181e-06 0.0000000000000000e+00  1.4773879928022636e-04 7.6341118681411154e-06 0.0000000000000000e+00  1.9223742562362898e-04 1.0617598541222843e-05 0.0000000000000000e+00  2.4698215599301085e-04 1.5129232499093036e-05 0.0000000000000000e+00  3.0932433147073360e-04 2.1711579043839938e-05 0.0000000000000000e+00  3.6951501924636373e-04 2.9783575674892775e-05 0.0000000000000000e+00  4.0663842577803963e-04 3.5085655626812789e-05 0.0000000000000000e+00  0.0000000000000000e+00 0.0000000000000000e+00 0.0000000000000000e+00  4.0766902702507945e-06 2.0625909602026394e-07 0.0000000000000000e+00  8.4250881013085021e-06 4.2378771705802826e-07 0.0000000000000000e+00  1.3344241999641463e-05 6.6469640528111652e-07 0.0000000000000000e+00  1.9195597240447593e-05 9.4312604356356050e-07 0.0000000000000000e+00  2.6445322278387914e-05 1.2766616252370259e-06 0.0000000000000000e+00  3.5721820199092867e-05 1.6884262333530183e-06 0.0000000000000000e+00  4.7896134944904193e-05 2.2105735490679157e-06 0.0000000000000000e+00  6.4194303032661222e-05 2.8908225514300370e-06 0.0000000000000000e+00  8.6349394729602082e-05 3.8059460238503190e-06 0.0000000000000000e+00  1.1679039702889004e-04 5.0915179357427520e-06 0.0000000000000000e+00  1.5882796231462146e-04 7.0092179280709284e-06 0.0000000000000000e+00  2.1669116206685476e-04 1.0096112654265317e-05 0.0000000000000000e+00  2.9499577257389596e-04 1.5469438708951776e-05 0.0000000000000000e+00  3.9655691516499902e-04 2.5310078614469782e-05 0.0000000000000000e+00  5.1599517959933811e-04 4.2713765091125717e-05 0.0000000000000000e+00  6.2897757270399400e-04 6.0908852379558470e-05 0.0000000000000000e+00  0.0000000000000000e+00 0.0000000000000000e+00 0.0000000000000000e+00  3.3578762465062196e-06 1.6590872349683343e-07 0.0000000000000000e+00  6.9587663600432064e-06 3.4115217926018271e-07 0.0000000000000000e+00  1.1073138269984521e-05 5.3568796524452187e-07 0.0000000000000000e+00  1.6035517108075054e-05 7.6098612385466784e-07 0.0000000000000000e+00  2.2290581874244712e-05 1.0309077131690477e-06 0.0000000000000000e+00  3.0459880906795701e-05 1.3627426276685437e-06 0.0000000000000000e+00  4.1442785221375931e-05 1.7785186693894565e-06 0.0000000000000000e+00  5.6572724657440899e-05 2.3070053106979781e-06 0.0000000000000000e+00  7.7860485279811998e-05 2.9881387943470007e-06 0.0000000000000000e+00  1.0836854762983073e-04 3.8863959345176460e-06 0.0000000000000000e+00  1.5276277390671817e-04 5.1358366804265278e-06 0.0000000000000000e+00  2.1803690990397810e-04 7.0901283352593412e-06 0.0000000000000000e+00  3.1415933983617970e-04 1.0798059010788613e-05 0.0000000000000000e+00  4.5350710629559968e-04 1.9442409148288815e-05 0.0000000000000000e+00  6.4486357596251311e-04 4.2853222233197330e-05 0.0000000000000000e+00  8.6109420359015522e-04 1.1885439338680337e-04 0.0000000000000000e+00  0.0000000000000000e+00 0.0000000000000000e+00 0.0000000000000000e+00  2.3953919919496834e-06 1.1621445811368563e-07 0.0000000000000000e+00  4.9746055580990696e-06 2.3905831940225728e-07 0.0000000000000000e+00  7.9439845528612406e-06 3.7552546423563645e-07 0.0000000000000000e+00  1.1563204856937589e-05 5.3347810295616682e-07 0.0000000000000000e+00  1.6185369916958280e-05 7.2191580725484509e-07 0.0000000000000000e+00  2.2317731120761480e-05 9.5080323360920594e-07 0.0000000000000000e+00  3.0718808664954511e-05 1.2296724822545037e-06 0.0000000000000000e+00  4.2559451921046419e-05 1.5630895981644992e-06 0.0000000000000000e+00  5.9697016730718273e-05 1.9385835243107979e-06 0.0000000000000000e+00  8.5150947103231870e-05 2.2977050150673731e-06 0.0000000000000000e+00  1.2393567335794380e-04 2.4736476074216491e-06 0.0000000000000000e+00  1.8451041401309641e-04 2.0795785299651300e-06 0.0000000000000000e+00  2.8120297865958944e-04 3.9329149209995641e-07 0.0000000000000000e+00  4.3770400356375863e-04 -3.4340868521208898e-06 0.0000000000000000e+00  6.8914807932126418e-04 -8.7878300014586428e-06 0.0000000000000000e+00  1.0691142332936927e-03 -7.8946879996747932e-06 0.0000000000000000e+00  0.0000000000000000e+00 0.0000000000000000e+00 0.0000000000000000e+00  1.2481735243145699e-06 5.9860146891157734e-08 0.0000000000000000e+00  2.5956560420721278e-06 1.2315323940052065e-07 0.0000000000000000e+00  4.1545632463469234e-06 1.9346448109703050e-07 0.0000000000000000e+00  6.0676075054635470e-06 2.7472554607309451e-07 0.0000000000000000e+00  8.5317868768596847e-06 3.7116577444178007e-07 0.0000000000000000e+00  1.1835353125992261e-05 4.8670547076748382e-07 0.0000000000000000e+00  1.6419133858777883e-05 6.2277448199088483e-07 0.0000000000000000e+00  2.2982819420209787e-05 7.7173527033582495e-07 0.0000000000000000e+00  3.2675764535621960e-05 8.9794102947630016e-07 0.0000000000000000e+00  4.7448699840048614e-05 8.8340462395103623e-07 0.0000000000000000e+00  7.0708066426915483e-05 3.7049871651421056e-07 0.0000000000000000e+00  1.0849279190421288e-04 -1.6951903661052573e-06 0.0000000000000000e+00  1.7127254174720955e-04 -8.3573119824393755e-06 0.0000000000000000e+00  2.7499105394051827e-04 -2.7893135400686623e-05 0.0000000000000000e+00  4.3317136669072167e-04 -7.8940391822978712e-05 0.0000000000000000e+00  6.1969379804635181e-04 -1.8234479908652357e-04 0.0000000000000000e+00  0.0000000000000000e+00 0.0000000000000000e+00 0.0000000000000000e+00  0.0000000000000000e+00 0.0000000000000000e+00 0.0000000000000000e+00  0.0000000000000000e+00 0.0000000000000000e+00 0.0000000000000000e+00  0.0000000000000000e+00 0.0000000000000000e+00 0.0000000000000000e+00  0.0000000000000000e+00 0.0000000000000000e+00 0.0000000000000000e+00  0.0000000000000000e+00 0.0000000000000000e+00 0.0000000000000000e+00  0.0000000000000000e+00 0.0000000000000000e+00 0.0000000000000000e+00  0.0000000000000000e+00 0.0000000000000000e+00 0.0000000000000000e+00  0.0000000000000000e+00 0.0000000000000000e+00 0.0000000000000000e+00  0.0000000000000000e+00 0.0000000000000000e+00 0.0000000000000000e+00  0.0000000000000000e+00 0.0000000000000000e+00 0.0000000000000000e+00  0.0000000000000000e+00 