<?xml version="1.0"?>
<VTKFile type="UnstructuredGrid"  version="0.1"  >
<UnstructuredGrid>
<Piece  NumberOfPoints="289" NumberOfCells="512">
<Points>
<DataArray  type="Float64"  NumberOfComponents="3"  format="ascii">0 0 0  0.0625 0 0  0.125 0 0  0.1875 0 0  0.25 0 0  0.3125 0 0  0.375 0 0  0.4375 0 0  0.5 0 0  0.5625 0 0  0.625 0 0  0.6875 0 0  0.75 0 0  0.8125 0 0  0.875 0 0  0.9375 0 0  1 0 0  0 0.0625 0  0.06261375535389711 0.0624688857164695 0  0.1252317553467608 0.06243712179501248 0  0.1878584627417575 0.0624040820650285 0  0.250498667810449 0.06236922340882598 0  0.3131576833801125 0.06233214056546516 0  0.3758415849517747 0.06229263552380022 0  0.4385575397178978 0.06225080093600261 0  0.5013143179225787 0.06220710805444952 0  0.5641231995283503 0.06216247080686015 0  0.6269997911809386 0.06211821714735205 0  0.6899680768272692 0.06207580583339416 0  0.7530703280588662 0.06203588500916801 0  0.8163934793756593 0.06199556032459204 0  0.8801450290137145 0.06194023413595814 0  0.944889054409541 0.06181676567300253 0  1.012361555005782 0.06143271564116011 0  0 0.125 0  0.0627233571272211 0.1249383828186997 0  0.1254550993811479 0.1248754212071753 0  0.1882040445922031 0.1248098129488122 0  0.2509796734160006 0.1247404104693032 0  0.3137925217753444 0.1246663270384257 0  0.3766546566365058 0.1245870767089475 0  0.4395803053596367 0.1245027519314096 0  0.5025867750148748 0.1244142299458301 0  0.5656959412383717 0.1243233724945633 0  0.628936896921483 0.1242331327411987 0  0.6923510143500572 0.1241473957407385 0  0.756002000901313 0.1240702588009849 0  0.8199956692453202 0.1240044451183127 0  0.8845148224192543 0.1239495228298518 0  0.9498569004691764 0.1239071947693229 0  1.016334706943279 0.1239356727863899 0  0 0.1875 0  0.06282464255753106 0.187409201738411 0  0.1256615468552972 0.1873162858199118 0  0.1885236016571323 0.1872191857751919 0  0.2514246800624268 0.1871160368993815 0  0.3143802143409936 0.1870053245305865 0  0.3774078751736798 0.1868860915340311 0  0.4405284246887 0.1867582211691658 0  0.5037668560170283 0.1866228015689352 0  0.5671540059035667 0.1864825546662821 0  0.6307289353587818 0.1863422652821024 0  0.6945424637442114 0.1862090619256571 0  0.7586620109324308 0.1860922658548875 0  0.8231761623285968 0.186002313591653 0  0.8881903455430918 0.1859477625821725 0  0.9537834687555263 0.1859269615234458 0  1.019850060430701 0.1858960861711518 0  0 0.25 0  0.06291373798803854 0.249882128821907 0  0.1258431958149897 0.2497612677469759 0  0.1888048810169168 0.2496344713668835 0  0.2518165776886519 0.2494990032104229 0  0.3148980823561569 0.2493525071414867 0  0.3780720544991066 0.2491932676506999 0  0.4413650372823759 0.249020595022674 0  0.5048087122570768 0.2488353716107367 0  0.568441440345626 0.2486407862860515 0  0.6323100553836433 0.2484432544927706 0  0.6964715604652291 0.2482534526336375 0  0.7609934305813734 0.2480872571353151 0  0.8259487476789424 0.2479661170003652 0  0.8913968947308945 0.2479159091748514 0  0.9573317527529216 0.2479626248092661 0  1.023578088496188 0.2481242314716074 0  0 0.3125 0  0.06298720431289441 0.3123580447993848 0  0.1259930258728595 0.3122121279658018 0  0.1890369870431697 0.3120583039146412 0  0.2521401388332207 0.3118927868000783 0  0.3153259366523989 0.3117121132616104 0  0.3786212442350822 0.3115134216093823 0  0.4420575163427298 0.3112949076923452 0  0.5056722004362481 0.3110565351231242 0  0.569510345359212 0.3108010945229097 0  0.6336262439121885 0.3105357126106029 0  0.6980845227263163 0.3102738833067474 0  0.7629591647367207 0.3100379798988603 0  0.8283271703256694 0.3098619202858209 0  0.8942510339176193 0.3097930771799794 0  0.9607434772396339 0.3098916327285611 0  1.02771857479262 0.3102247877731034 0  0 0.375 0  0.06304216779759958 0.3748379232033641 0  0.1261051654087856 0.3746708405362538 0  0.1892107951397733 0.3744937073113459 0  0.2523825885770248 0.3743015194692759 0  0.3156467989481739 0.3740894224315569 0  0.3790335475572531 0.3738529517806718 0  0.4425781924661567 0.3735884884977761 0  0.5063229896529637 0.373294051148281 0  0.5703190901029271 0.3729706020732462 0  0.6346288116278846 0.3726241097884653 0  0.6993278481651668 0.3722686618532167 0  0.7645064985641975 0.3719308916131351 0  0.8302680593649696 0.371655709856702 0  0.8967217473150665 0.3715125539328829 0  0.9639692123918852 0.3715998725919384 0  1.032093565827071 0.37204372750938 0  0 0.4375 0  0.06307643448255044 0.437322801778376 0  0.1261751256938211 0.4371395409898969 0  0.1893193156794065 0.4369440338380216 0  0.2525341097679915 0.4367299430582491 0  0.3158475518309369 0.4364907778596964 0  0.3792918880982585 0.4362200171535904 0  0.4429051260972229 0.4359114503572609 0  0.5067330402738465 0.4355598921310406 0  0.5708318368633111 0.4351625265206462 0  0.635271756809298 0.4347212840578336 0  0.7001419311896243 0.4342468489046952 0  0.7655567396066442 0.4337650664602618 0  0.83166371504908 0.4333264384644107 0  0.898652995347286 0.4330184870462857 0  0.9667701032579665 0.4329782238637429 0  1.036342517912776 0.4333978664520497 0  0 0.5 0  0.06308858587897674 0.4998137218639309 0  0.1261999984655059 0.4996204063546471 0  0.1893580068999073 0.4994127895876103 0  0.2525882937878774 0.4991831945771671 0  0.3159195619257681 0.4989233667116622 0  0.3793848557330957 0.4986243900326441 0  0.4430232460527144 0.4982767686179981 0  0.5068821315982404 0.497870833120252 0  0.5710206018706251 0.4973977693803953 0  0.6355146396364021 0.4968518063716869 0  0.7004654752329513 0.4962344996869246 0  0.7660131496633131 0.4955626272621186 0  0.8323581505508442 0.4948817743312582 0  0.8997945628575424 0.4942872414384616 0  0.9687591966702268 0.4939497760841745 0  1.039909268379481 0.4941318047919473 0  0 0.5625 0  0.06307805119529292 0.5623116350372201 0  0.1261786068361272 0.5621154628303549 0  0.1893250198398757 0.5619033334171097 0  0.2525425107462444 0.5616663869378494 0  0.3158592375922539 0.5613946830860985 0  0.3793075756053452 0.5610768316872745 0  0.4429257735828643 0.5606996687704067 0  0.506760307778044 0.5602480913364168 0  0.5708695764252175 0.5597053077064769 0  0.6353302291585499 0.5590540579362511 0  0.7002486651100582 0.5582799666476149 0  0.7657823641028685 0.5573793818514691 0  0.8321787371513696 0.5563761144727091 0  0.8998419292771351 0.5553537709431842 0  0.9694381411372341 0.5545076550244561 0  1.042052679513768 0.5541989881697678 0  0 0.625 0  0.06304514885758117 0.6248172829428468 0  0.1261115928305271 0.6246263313177929 0  0.1892213429899993 0.6244184596570772 0  0.2523981373717198 0.6241839861132039 0  0.3156684013156631 0.6239116455586515 0  0.379062366256262 0.6235878955972164 0  0.4426154813162813 0.6231960897445111 0  0.5063704076283351 0.6227155241661816 0  0.5703802620287914 0.62212045679265 0  0.6347146645026051 0.6213794447341969 0  0.6994721490027839 0.6204559915570663 0  0.7648067206444462 0.619313171846141 0  0.830984135860475 0.6179291335454806 0  0.8984939380968787 0.6163397474935566 0  0.9682461096007065 0.6147350862483378 0  1.041868038209033 0.6136001600678453 0  0 0.6875 0  0.06299108973463001 0.6873310642835081 0  0.1260014238337668 0.6871539390849322 0  0.1890508113911872 0.6869599071472328 0  0.2521605716182015 0.6867390390207502 0  0.3153543286906113 0.6864794252997087 0  0.3786588732204134 0.6861661878733557 0  0.4421051335882096 0.6857801577767554 0  0.5057293783001507 0.68529607621651 0  0.5695750304416267 0.6846801526062982 0  0.6336962703452623 0.683886852328203 0  0.6981668895752823 0.6828550807233233 0  0.763104065964317 0.6815051901738655 0  0.8287322824113106 0.6797431564990325 0  0.8955453125282206 0.6774969857605123 0  0.964653798156455 0.6748739028560257 0  1.038347350777603 0.6725755476089852 0  0 0.75 0  0.0629179373660943 0.7498529105028332 0  0.1258523076293531 0.749698243751977 0  0.1888199608548147 0.7495278716914303 0  0.2518389947719032 0.7493323691667403 0  0.314929363683226 0.7491001515041038 0  0.3781134550904169 0.7488163045702381 0  0.4414165565916948 0.7484609188998758 0  0.504867064983152 0.7480066412904051 0  0.5684962261123937 0.7474149973281465 0  0.6323373367285158 0.7466307797498437 0  0.6964255270114074 0.745573395492361 0  0.7608045711426364 0.7441235839839068 0  0.8255672882705452 0.7421044481413132 0  0.8910255122067089 0.7392655957456082 0  0.9583132664111483 0.7353580309169737 0  1.030387480067465 0.7309721505166888 0  0 0.8125 0  0.06282852599726058 0.8123821962041937 0  0.1256700197357004 0.8122580275582059 0  0.1885377389763299 0.8121206246544279 0  0.2514459087225845 0.8119619099765985 0  0.3144101608568477 0.8117717674152914 0  0.3774478826140109 0.8115368771123497 0  0.4405783098692623 0.8112389923565411 0  0.5038219871513847 0.8108522979605359 0  0.5671987634021399 0.8103392471601091 0  0.6307225923802721 0.8096438292966252 0  0.6943898861325269 0.8086803359294893 0  0.7581569174085929 0.8073137127224118 0  0.8219082569133237 0.8053226925462404 0  0.8854736677000655 0.8023255541698495 0  0.9490851298164381 0.7976426197823507 0  1.0174135207962 0.7904436552277663 0  0 0.875 0  0.06272634301389381 0.874917709351047 0  0.1254616608873347 0.8748308194038775 0  0.1882151153296974 0.874734344460907 0  0.2509965452979799 0.874622363592409 0  0.3138167676372648 0.8744873633231496 0  0.3766877946107781 0.874319295260145 0  0.4396228082542739 0.8741041495374255 0  0.5026354868838583 0.8738217148340365 0  0.5657376702125958 0.8734419672822634 0  0.6289328126227464 0.8729191275602303 0  0.6921987805445082 0.872181675018128 0  0.755443916758392 0.8711148947620759 0  0.8183984873484286 0.8695267609004144 0  0.8803663256340466 0.867061670143762 0  0.9397586434226612 0.8629012998037011 0  0.9936267952034068 0.8545528115222403 0  0 0.9375 0  0.06261538553829885 0.9374576984559926 0  0.1252353685223912 0.9374129857217154 0  0.1878646428700677 0.9373632413674432 0  0.2505082650256385 0.9373053353596689 0  0.3131718226049692 0.9372352652216233 0  0.37586157135072 0.9371476291214662 0  0.4385844633259495 0.937034816753279
[...]
<PointData  Vectors="f_54"> 
<DataArray  type="Float64"  Name="f_54"  NumberOfComponents="3" format="ascii">0.0000000000000000e+00 0.0000000000000000e+00 0.0000000000000000e+00  0.0000000000000000e+00 0.0000000000000000e+00 0.0000000000000000e+00  0.0000000000000000e+00 0.0000000000000000e+00 0.0000000000000000e+00  0.0000000000000000e+00 0.0000000000000000e+00 0.0000000000000000e+00  0.0000000000000000e+00 0.0000000000000000e+00 0.0000000000000000e+00  0.0000000000000000e+00 0.0000000000000000e+00 0.0000000000000000e+00  0.0000000000000000e+00 0.0000000000000000e+00 0.0000000000000000e+00  0.0000000000000000e+00 0.0000000000000000e+00 0.0000000000000000e+00  0.0000000000000000e+00 0.0000000000000000e+00 0.0000000000000000e+00  0.0000000000000000e+00 0.0000000000000000e+00 0.0000000000000000e+00  0.0000000000000000e+00 0.0000000000000000e+00 0.0000000000000000e+00  0.0000000000000000e+00 0.0000000000000000e+00 0.0000000000000000e+00  0.0000000000000000e+00 0.0000000000000000e+00 0.0000000000000000e+00  0.0000000000000000e+00 0.0000000000000000e+00 0.0000000000000000e+00  0.0000000000000000e+00 0.0000000000000000e+00 0.0000000000000000e+00  0.0000000000000000e+00 0.0000000000000000e+00 0.0000000000000000e+00  0.0000000000000000e+00 0.0000000000000000e+00 0.0000000000000000e+00  0.0000000000000000e+00 0.0000000000000000e+00 0.0000000000000000e+00  -2.4880433970261250e-06 -2.1074239454430281e-07 0.0000000000000000e+00  -5.0275930099371245e-06 -4.2203440929060857e-07 0.0000000000000000e+00  -7.6691735599555655e-06 -6.3388976611846351e-07 0.0000000000000000e+00  -1.0455766621296130e-05 -8.4478714081669931e-07 0.0000000000000000e+00  -1.3417320706819888e-05 -1.0508215375003049e-06 0.0000000000000000e+00  -1.6562829391291901e-05 -1.2448183301483107e-06 0.0000000000000000e+00  -1.9868694463468343e-05 -1.4155377126006756e-06 0.0000000000000000e+00  -2.3261425765530308e-05 -1.5472797786279834e-06 0.0000000000000000e+00  -2.6591278249994497e-05 -1.6205281207803555e-06 0.0000000000000000e+00  -2.9589958871796336e-05 -1.6148771546131965e-06 0.0000000000000000e+00  -3.1796549296463599e-05 -1.5167397022996507e-06 0.0000000000000000e+00  -3.2410701484898668e-05 -1.3374245133067000e-06 0.0000000000000000e+00  -2.9956642485836220e-05 -1.1565204819207362e-06 0.0000000000000000e+00  -2.1394584206068540e-05 -1.2386768266376916e-06 0.0000000000000000e+00  5.8926377263668745e-07 -2.4074204967421036e-06 0.0000000000000000e+00  5.7604156753222665e-05 -7.5762848354165385e-06 0.0000000000000000e+00  0.0000000000000000e+00 0.0000000000000000e+00 0.0000000000000000e+00  -4.9312205298795443e-06 -4.2148050433513125e-07 0.0000000000000000e+00  -9.9699196853387634e-06 -8.4484256697998809e-07 0.0000000000000000e+00  -1.5222122020129131e-05 -1.2709170778010577e-06 0.0000000000000000e+00  -2.0780246287028289e-05 -1.6974962814731219e-06 0.0000000000000000e+00  -2.6712985372609792e-05 -2.1175791205079724e-06 0.0000000000000000e+00  -3.3050493521786043e-05 -2.5174257597970506e-06 0.0000000000000000e+00  -3.9762501060956320e-05 -2.8745918263369012e-06 0.0000000000000000e+00  -4.6725963975216590e-05 -3.1564255436186576e-06 0.0000000000000000e+00  -5.3676901772634293e-05 -3.3200598165774847e-06 0.0000000000000000e+00  -6.0136999283058510e-05 -3.3158473533773259e-06 0.0000000000000000e+00  -6.5296589518670187e-05 -3.0976312509637196e-06 0.0000000000000000e+00  -6.7815768634338537e-05 -2.6452843295785639e-06 0.0000000000000000e+00  -6.5463439465611938e-05 -2.0067026961832296e-06 0.0000000000000000e+00  -5.4440465206485307e-05 -1.3607631647363037e-06 0.0000000000000000e+00  -2.8197789657829297e-05 -1.0443651046018787e-06 0.0000000000000000e+00  2.3694255475297435e-05 -1.0919206308200397e-06 0.0000000000000000e+00  0.0000000000000000e+00 0.0000000000000000e+00 0.0000000000000000e+00  -7.2710495367266277e-06 -6.3063860044308727e-07 0.0000000000000000e+00  -1.4712856201746674e-05 -1.2659961564928373e-06 0.0000000000000000e+00  -2.2495185920454542e-05 -1.9093023524815718e-06 0.0000000000000000e+00  -3.0771021175433017e-05 -2.5593998830214042e-06 0.0000000000000000e+00  -3.9663544935747950e-05 -3.2080473661757340e-06 0.0000000000000000e+00  -4.9246573812835506e-05 -3.8366872744864877e-06 0.0000000000000000e+00  -5.9515268710119099e-05 -4.4127394760220616e-06 0.0000000000000000e+00  -7.0342960102703854e-05 -4.8858369901326881e-06 0.0000000000000000e+00  -8.1418429911913630e-05 -5.1850799531405551e-06 0.0000000000000000e+00  -9.2155669936010029e-05 -5.2195046831980167e-06 0.0000000000000000e+00  -1.0156462142399866e-04 -4.8856780134172563e-06 0.0000000000000000e+00  -1.0806737122553787e-04 -4.0885362787961843e-06 0.0000000000000000e+00  -1.0924676489704908e-04 -2.7834695336677106e-06 0.0000000000000000e+00  -1.0155723595476356e-04 -1.0468370357306013e-06 0.0000000000000000e+00  -8.0237646341029876e-05 8.2325585053208985e-07 0.0000000000000000e+00  -4.0412049635207049e-05 2.1443489721234090e-06 0.0000000000000000e+00  0.0000000000000000e+00 0.0000000000000000e+00 0.0000000000000000e+00  -9.4421644566626625e-06 -8.3514445115817985e-07 0.0000000000000000e+00  -1.9127125197096097e-05 -1.6799785213013617e-06 0.0000000000000000e+00  -2.9298411308801030e-05 -2.5424299912424196e-06 0.0000000000000000e+00  -4.0183656024000068e-05 -3.4250672362244720e-06 0.0000000000000000e+00  -5.1981126830051340e-05 -4.3215352009954634e-06 0.0000000000000000e+00  -6.4838350778408847e-05 -5.2119041560364049e-06 0.0000000000000000e+00  -7.8819061206975108e-05 -6.0566850849164580e-06 0.0000000000000000e+00  -9.3853790124062651e-05 -6.7895383880921825e-06 0.0000000000000000e+00  -1.0966855830055829e-04 -7.3093252119432446e-06 0.0000000000000000e+00  -1.2568575249515655e-04 -7.4734011274090753e-06 0.0000000000000000e+00  -1.4089268646249028e-04 -7.0963159365740490e-06 0.0000000000000000e+00  -1.5368000201416193e-04 -5.9617938103621892e-06 0.0000000000000000e+00  -1.6167367530796806e-04 -3.8613391899194140e-06 0.0000000000000000e+00  -1.6164582201787602e-04 -6.8001193539256996e-07 0.0000000000000000e+00  -1.4973930186523308e-04 3.4419499178368141e-06 0.0000000000000000e+00  -1.2249177710994846e-04 7.8401501782008055e-06 0.0000000000000000e+00  0.0000000000000000e+00 0.0000000000000000e+00 0.0000000000000000e+00  -1.1371219135998677e-05 -1.0298390909176933e-06 0.0000000000000000e+00  -2.3065532751031889e-05 -2.0768950580203970e-06 0.0000000000000000e+00  -3.5409942480944118e-05 -3.1566382282935983e-06 0.0000000000000000e+00  -4.8721362786587999e-05 -4.2789009053570032e-06 0.0000000000000000e+00  -6.3295678800719108e-05 -5.4437419995838103e-06 0.0000000000000000e+00  -7.9388136446910810e-05 -6.6355309879593572e-06 0.0000000000000000e+00  -9.7180714237225625e-05 -7.8144938184189956e-06 0.0000000000000000e+00  -1.1673103384660601e-04 -8.9049644423028073e-06 0.0000000000000000e+00  -1.3789653404779065e-04 -9.7798882359098836e-06 0.0000000000000000e+00  -1.6022797521076721e-04 -1.0242157973556035e-05 0.0000000000000000e+00  -1.8282978651875604e-04 -1.0005941588999822e-05 0.0000000000000000e+00  -2.0419508348798088e-04 -8.6866589693856193e-06 0.0000000000000000e+00  -2.2204705008452145e-04 -5.8186402549713945e-06 0.0000000000000000e+00  -2.3326488638518873e-04 -9.3658009527742411e-07 0.0000000000000000e+00  -2.3404087173642198e-04 6.2204314591600499e-06 0.0000000000000000e+00  -2.2043478896043419e-04 1.5305973134652535e-05 0.0000000000000000e+00  0.0000000000000000e+00 0.0000000000000000e+00 0.0000000000000000e+00  -1.2977730098625252e-05 -1.2071011497549811e-06 0.0000000000000000e+00  -2.6364243695312851e-05 -2.4415751588973860e-06 0.0000000000000000e+00  -4.0576887759204018e-05 -3.7294829902688122e-06 0.0000000000000000e+00  -5.6034080043667508e-05 -5.0920279987295290e-06 0.0000000000000000e+00  -7.3150262740067268e-05 -6.5414564982363530e-06 0.0000000000000000e+00  -9.2322234584750227e-05 -8.0745182792312242e-06 0.0000000000000000e+00  -1.1390194007199817e-04 -9.6620794507682656e-06 0.0000000000000000e+00  -1.3814903642459623e-04 -1.1232971046751326e-05 0.0000000000000000e+00  -1.6515478285789972e-04 -1.2649675466799981e-05 0.0000000000000000e+00  -1.9472800788122052e-04 -1.3673452575744712e-05 0.0000000000000000e+00  -2.2623632325523071e-04 -1.3918147814093193e-05 0.0000000000000000e+00  -2.5840536336529685e-04 -1.2797722521866306e-05 0.0000000000000000e+00  -2.8910083339986532e-04 -9.4869590172049962e-06 0.0000000000000000e+00  -3.1515347321141275e-04 -2.9430944049864460e-06 0.0000000000000000e+00  -3.3231366166416415e-04 7.9224039723388565e-06 0.0000000000000000e+00  -3.3535490779405103e-04 2.3800128391120553e-05 0.0000000000000000e+00  0.0000000000000000e+00 0.0000000000000000e+00 0.0000000000000000e+00  -1.4177192330704956e-05 -1.3568236183979888e-06 0.0000000000000000e+00  -2.8848826245686797e-05 -2.7533675914763142e-06 0.0000000000000000e+00  -4.4523889315345832e-05 -4.2289927765491507e-06 0.0000000000000000e+00  -6.1728786724178197e-05 -5.8203473619502881e-06 0.0000000000000000e+00  -8.1011737543751388e-05 -7.5582474174948496e-06 0.0000000000000000e+00  -1.0293982311308233e-04 -9.4617766805236738e-06 0.0000000000000000e+00  -1.2808344247158723e-04 -1.1527593470429946e-05 0.0000000000000000e+00  -1.5698005975764651e-04 -1.3711217733019087e-05 0.0000000000000000e+00  -1.9006534402917505e-04 -1.5895271199301243e-05 0.0000000000000000e+00  -2.2755578417355286e-04 -1.7837350639917914e-05 0.0000000000000000e+00  -2.6926491780636467e-04 -1.9088330690688904e-05 0.0000000000000000e+00  -3.1434080977170626e-04 -1.8873541209637704e-05 0.0000000000000000e+00  -3.6093409092863239e-04 -1.5942190947430496e-05 0.0000000000000000e+00  -4.0584829285725092e-04 -8.4279422981149290e-06 0.0000000000000000e+00  -4.4425775551058409e-04 6.1666284919067442e-06 0.0000000000000000e+00  -4.6948469734600873e-04 3.0684894329241258e-05 0.0000000000000000e+00  0.0000000000000000e+00 0.0000000000000000e+00 0.0000000000000000e+00  -1.4886568993768661e-05 -1.4668869125610501e-06 0.0000000000000000e+00  -3.0345353397517513e-05 -2.9869673781550638e-06 0.0000000000000000e+00  -4.6970028204740605e-05 -4.6145539499525762e-06 0.0000000000000000e+00  -6.5392238866042424e-05 -6.4048481081920178e-06 0.0000000000000000e+00  -8.6298782630833126e-05 -8.4129806959964383e-06 0.0000000000000000e+00  -1.1044449597841554e-04 -1.0690586888691736e-05 0.0000000000000000e+00  -1.3865605194626629e-04 -1.3277660444713899e-05 0.0000000000000000e+00  -1.7181775839119676e-04 -1.6185540775831255e-05 0.0000000000000000e+00  -2.1082387722647872e-04 -1.9363510435074014e-05 0.0000000000000000e+00  -2.5647253177760626e-04 -2.2635726630090237e-05 0.0000000000000000e+00  -3.0926533179382877e-04 -2.5586275836985494e-05 0.0000000000000000e+00  -3.6907129186612622e-04 -2.7359113019426049e-05 0.0000000000000000e+00  -4.3463182533699785e-04 -2.6335124727361507e-05 0.0000000000000000e+00  -5.0295467022859355e-04 -1.9677364885528972e-05 0.0000000000000000e+00  -5.6875873391928021e-04 -2.8384295802041362e-06 0.0000000000000000e+00  -6.2408201817487857e-04 3.0753373605110365e-05 0.0000000000000000e+00  0.0000000000000000e+00 0.0000000000000000e+00 0.0000000000000000e+00  -1.5031958321196099e-05 -1.5242303530154931e-06 0.0000000000000000e+00  -3.0696275029722824e-05 -3.1145453389817412e-06 0.0000000000000000e+00  -4.7653914231368337e-05 -4.8400179116778200e-06 0.0000000000000000e+00  -6.6626513939251192e-05 -6.7753881684855996e-06 0.0000000000000000e+00  -8.8428824711995067e-05 -9.0034102316774819e-06 0.0000000000000000e+00  -1.1400214564396330e-04 -1.1615956741557045e-05 0.0000000000000000e+00  -1.4444590422736035e-04 -1.4712106987608049e-05 0.0000000000000000e+00  -1.8103972843389060e-04 -1.8389337500407968e-05 0.0000000000000000e+00  -2.2523917966758042e-04 -2.2719552881519542e-05 0.0000000000000000e+00  -2.7861196073454672e-04 -2.7692670626572563e-05 0.0000000000000000e+00  -3.4265547718155027e-04 -3.3092333899428974e-05 0.0000000000000000e+00  -4.1840480259669249e-04 -3.8234128436393215e-05 0.0000000000000000e+00  -5.0573017962684587e-04 -4.1442527823230470e-05 0.0000000000000000e+00  -6.0232367810049620e-04 -3.9098483990667203e-05 0.0000000000000000e+00  -7.0271635502578377e-04 -2.4192178596268015e-05 0.0000000000000000e+00  -7.9802444252994448e-04 1.5313283405768621e-05 0.0000000000000000e+00  0.0000000000000000e+00 0.0000000000000000e+00 0.0000000000000000e+00  -1.4557863513930346e-05 -1.5165211899332629e-06 0.0000000000000000e+00  -2.9780010138768856e-05 -3.1092417728288566e-06 0.0000000000000000e+00  -4.6365669471536978e-05 -4.8593078264891628e-06 0.0000000000000000e+00  -6.5096342770769615e-05 -6.8587457156466351e-06 0.0000000000000000e+00  -8.6884135905853944e-05 -9.2168117292024782e-06 0.0000000000000000e+00  -1.1282858831569572e-04 -1.2067199758427500e-05 0.0000000000000000e+00  -1.4428322251478561e-04 -1.5575736963568556e-05 0.0000000000000000e+00  -1.8292916249070372e-04 -1.9946799450972007e-05 0.0000000000000000e+00  -2.3084355360689936e-04 -2.5423079120417795e-05 0.0000000000000000e+00  -2.9052888821138418e-04 -3.2264175936602074e-05 0.0000000000000000e+00  -3.6482495222824924e-04 -4.0666275142745264e-05 0.0000000000000000e+00  -4.5654502189001539e-04 -5.0526829175808856e-05 0.0000000000000000e+00  -5.6757134023754127e-04 -6.0818221895247151e-05 0.0000000000000000e+00  -6.9716030119586301e-04 -6.8055215207969160e-05 0.0000000000000000e+00  -8.3991267748739827e-04 -6.3132335473590969e-05 0.0000000000000000e+00  -9.8527191947905455e-04 -2.6825088076218558e-05 0.0000000000000000e+00  0.0000000000000000e+00 0.0000000000000000e+00 0.0000000000000000e+00  -1.3437045462164551e-05 -1.4342617809437832e-06 0.0000000000000000e+00  -2.7532242658618131e-05 -2.9497332758990797e-06 0.0000000000000000e+00  -4.2982905113876300e-05 -4.6341857806246175e-06 0.0000000000000000e+00  -6.0584844018750467e-05 -6.5907814914584747e-06 0.0000000000000000e+00  -8.1294299500887481e-05 -8.9482320531275558e-06 0.0000000000000000e+00  -1.0630709523290896e-04 -1.1874328514817603e-05 0.0000000000000000e+00  -1.3716248771671321e-04 -1.5594561597473464e-05 0.0000000000000000e+00  -1.7587887395475728e-04 -2.0417877422427423e-05 0.0000000000000000e+00  -2.2512344717193360e-04 -2.6771276942951114e-05 0.0000000000000000e+00  -2.8839913740269632e-04 -3.5241740707891646e-05 0.0000000000000000e+00  -3.7017854304032503e-04 -4.6609982768439145e-05 0.0000000000000000e+00  -4.7577989589911901e-04 -6.1807850782200183e-05 0.0000000000000000e+00  -6.1048254185869883e-04 -8.1539769812316384e-05 0.0000000000000000e+00  -7.7691019923188892e-04 -1.0464034777203556e-04 0.0000000000000000e+00  -9.7049219581312905e-04 -1.2243152745772075e-04 0.0000000000000000e+00  -1.1793909745509282e-03 -1.0762074404053769e-04 0.0000000000000000e+00  0.0000000000000000e+00 0.0000000000000000e+00 0.0000000000000000e+00  -1.1679487019357229e-05 -1.2729957148895233e-06 0.0000000000000000e+00  -2.3965845834816299e-05 -2.6251543429907029e-06 0.0000000000000000e+00  -3.7505812938552793e-05 -4.1430135140842083e-06 0.0000000000000000e+00  -5.3050898247542111e-05 -5.9310445170615794e-06 0.0000000000000000e+00  -7.1526878023398988e-05 -8.1242923054918371e-06 0.0000000000000000e+00  -9.4128258573769415e-05 -1.0906467093967226e-05 0.0000000000000000e+00  -1.2245235232391207e-04 -1.4537202528552944e-05 0.0000000000000000e+00  -1.5869358522469052e-04 -1.9394573748928150e-05 0.0000000000000000e+00  -2.0592490871791801e-04 -2.6043208571518398e-05 0.0000000000000000e+00  -2.6849295719910389e-04 -3.5345814418449219e-05 0.0000000000000000e+00  -3.5252324583646006e-04 -4.8648088180885465e-05 0.0000000000000000e+00  -4.6639788723437415e-04 -6.8078329609416659e-05 0.0000000000000000e+00  -6.2061368063732407e-04 -9.6953371517945943e-05 0.0000000000000000e+00  -8.2499796106737667e-04 -1.3974468413801783e-04 0.0000000000000000e+00  -1.0771658178842798e-03 -1.9708901047255743e-04 0.0000000000000000e+00  -1.3610719279706222e-03 -2.2999569449458617e-04 0.0000000000000000e+00  0.0000000000000000e+00 0.0000000000000000e+00 0.0000000000000000e+00  -9.3386711986138388e-06 -1.0351345742130268e-06 0.0000000000000000e+00  -1.9185486792185995e-05 -2.1392967598476731e-06 0.0000000000000000e+00  -3.0084583012019526e-05 -3.3885658576623901e-06 0.0000000000000000e+00  -4.2677548897737272e-05 -4.8765543558051461e-06 0.0000000000000000e+00  -5.7770830843986571e-05 -6.7272344214759164e-06 0.0000000000000000e+00  -7.6431756102179253e-05 -9.1139847842025834e-06 0.0000000000000000e+00  -1.0013306901176081e-04 -1.2289481783809313e-05 0.0000000000000000e+00  -1.3097870787889761e-04 -1.6634534329336623e-05 0.0000000000000000e+00  -1.7206514660201463e-04 -2.2740871911194668e-05 0.0000000000000000e+00  -2.2806601751118965e-04 -3.1557655911740906e-05 0.0000000000000000e+00  -3.0616775144626360e-04 -4.4666208600278417e-05 0.0000000000000000e+00  -4.1748367332467901e-04 -6.4837334113463543e-05 0.0000000000000000e+00  -5.7882173006310544e-04 -9.7270019190196397e-05 0.0000000000000000e+00  -8.1332659685506197e-04 -1.5252620599003571e-04 0.0000000000000000e+00  -1.1414375464337803e-03 -2.5291906600814290e-04 0.0000000000000000e+00  -1.4710974209772871e-03 -4.3067005766330991e-04 0.0000000000000000e+00  0.0000000000000000e+00 0.0000000000000000e+00 0.0000000000000000e+00  -6.5133568126570102e-06 -7.3090016443166146e-07 0.0000000000000000e+00  -1.3392714444487279e-05 -1.5129020902660371e-06 0.0000000000000000e+00  -2.1031353764599716e-05 -2.4026240054606201e-06 0.0000000000000000e+00  -2.9897900442355649e-05 -3.4705885681714715e-06 0.0000000000000000e+00  -4.0590033350403022e-05 -4.8115870103133674e-06 0.0000000000000000e+00  -5.3913598417943715e-05 -6.5603142480357682e-06 0.0000000000000000e+00  -7.1006805841027754e-05 -8.9162141692506247e-06 0.0000000000000000e+00  -9.3544963677976499e-05 -1.2184304014851568e-05 0.0000000000000000e+00  -1.2409227154317040e-04 -1.6843931961677289e-05 0.0000000000000000e+00  -1.6672889975923291e-04 -2.3667297043767790e-05 0.0000000000000000e+00  -2.2820236648478110e-04 -3.3930883590826166e-05 0.0000000000000000e+00  -3.2007211652845124e-04 -4.9823636097076827e-05 0.0000000000000000e+00  -4.6263548781056633e-04 -7.5396382315141589e-05 0.0000000000000000e+00  -6.9162082372319306e-04 -1.1953547334261004e-04 0.0000000000000000e+00  -1.0686033771965281e-03 -2.0766405455680982e-04 0.0000000000000000e+00  -1.7025211192377026e-03 -4.2441251884421080e-04 0.0000000000000000e+00  0.0000000000000000e+00 0.0000000000000000e+00 0.0000000000000000e+00  -3.3435014748619982e-06 -3.7800871911190030e-07 0.0000000000000000e+00  -6.8781953349553378e-06 -7.8313893485565305e-07 0.0000000000000000e+00  -1.0809889615820528e-05 -1.2455158313566910e-06 0.0000000000000000e+00  -1.5385255973205362e-05 -1.8028927402127963e-06 0.0000000000000000e+00  -2.0921457177038914e-05 -2.5063712819462664e-06 0.0000000000000000e+00  -2.7850629174366137e-05 -3.4290522222718023e-06 0.0000000000000000e+00  -3.6791439402957474e-05 -4.6797191590368629e-06 0.0000000000000000e+00  -4.8670881426044416e-05 -6.4248671757817057e-06 0.0000000000000000e+00  -6.4942739215587914e-05 -8.9237057873351656e-06 0.0000000000000000e+00  -8.8000480165208210e-05 -1.2579601513786457e-05 0.0000000000000000e+00  -1.2199789513950774e-04 -1.7994675691402892e-05 0.0000000000000000e+00  -1.7454088742945665e-04 -2.5923031940141049e-05 0.0000000000000000e+00  -2.6011394163624529e-04 -3.6608626474840888e-05 0.0000000000000000e+00  -4.0551499709291962e-04 -4.6466973714218873e-05 0.0000000000000000e+00  -6.4689149732997529e-04 -3.7338794883741349e-05 0.0000000000000000e+00  -9.6645771165894607e-04 2.8490020489024272e-05 0.0000000000000000e+00  0.0000000000000000e+00 0.0000000000000000e+00 0.0000000000000000e+00  0.0000000000000000e+00 0.0000000000000000e+00 0.0000000000000000e+00  0.0000000000000000e+00 0.0000000000000000e+00 0.0000000000000000e+00  0.0000000000000000e+00 0.0000000000000000e+00 0.0000000000000000e+00  0.0000000000000000e+00 0.0000000000000000e+00 0.0000000000000000e+00  0.0000000000000000e+00 0.0000000000000