<?xml version="1.0"?>
<VTKFile type="UnstructuredGrid"  version="0.1"  >
<UnstructuredGrid>
<Piece  NumberOfPoints="289" NumberOfCells="512">
<Points>
<DataArray  type="Float64"  NumberOfComponents="3"  format="ascii">0 0 0  0.0625 0 0  0.125 0 0  0.1875 0 0  0.25 0 0  0.3125 0 0  0.375 0 0  0.4375 0 0  0.5 0 0  0.5625 0 0  0.625 0 0  0.6875 0 0  0.75 0 0  0.8125 0 0  0.875 0 0  0.9375 0 0  1 0 0  0 0.0625 0  0.06257439656925842 0.06249848136741729 0  0.1251510877815989 0.06249691440251268 0  0.187732387119371 0.06249525051123044 0  0.2503206356594775 0.06249344096263119 0  0.3129182022216622 0.06249143750581791 0  0.3755274686140717 0.06248919392205034 0  0.4381508004211592 0.06248666897400448 0  0.5007905157520141 0.06248383123777217 0  0.5634488955700793 0.06248066601591346 0  0.6261283606995822 0.06247718309787478 0  0.6888321621994339 0.06247341854554457 0  0.751566575906342 0.06246940219717453 0  0.814347618304887 0.06246497640890582 0  0.8772222180651568 0.06245898733359034 0  0.9403394245366959 0.06244574791964833 0  1.004212788534371 0.06239889584244682 0  0 0.125 0  0.06264658319327618 0.1249970087743183 0  0.1252977503209802 0.1249939207665858 0  0.1879581294941871 0.1249906383887938 0  0.2506324171302988 0.1249870631620528 0  0.3133253832236888 0.1249830965536472 0  0.3760418423865275 0.1249786426114415 0  0.4387865838890021 0.1249736133987177 0  0.5015642663440086 0.1249679385392631 0  0.5643793143943477 0.1249615804622958 0  0.6272359286049555 0.1249545571433873 0  0.6901384808410466 0.1249469749809245 0  0.7530928886151917 0.1249390817867674 0  0.8161100611754353 0.1249313983332615 0  0.8792124677098522 0.1249252622424531 0  0.9424387254984304 0.1249255859253471 0  1.005795612053633 0.1249552808762072 0  0 0.1875 0  0.06271426912240949 0.1874956307093285 0  0.1254353830780663 0.1874911165471728 0  0.1881702685221202 0.1874863107922783 0  0.2509259867774371 0.1874810639625611 0  0.3137097561646396 0.1874752240992138 0  0.37652891657703 0.1874686394643421 0  0.439390813708046 0.1874611651644373 0  0.502302581967188 0.1874526758953214 0  0.5652708138341719 0.1874430879301118 0  0.6283011225688453 0.1874323946721641 0  0.6913976266837086 0.1874207216358517 0  0.7545623456870163 0.1874084083517091 0  0.8177941360946999 0.1873961208951515 0  0.8810852502703977 0.1873849380834963 0  0.9444086499160768 0.1873758645883704 0  1.007678596055449 0.1873649159806773 0  0 0.25 0  0.06277519298457584 0.2499943952696954 0  0.1255594275656412 0.2499885989276501 0  0.1883618829801388 0.2499824158357361 0  0.2511919786321865 0.2499756447790502 0  0.3140594357735406 0.2499680771174477 0  0.3769742592607675 0.2499594980028305 0  0.4399465974296411 0.2499496919856155 0  0.5029864245017807 0.2499384558836741 0  0.566102971094484 0.2499256233642992 0  0.6293037982744977 0.2499111078835778 0  0.6925933489568922 0.2498949731983519 0  0.7559706602267939 0.249877542077453 0  0.8194255492310083 0.24985954837514 0  0.8829317871621982 0.249842310317521 0  0.9464346434458275 0.2498278515001041 0  1.009831078706669 0.2498191863128172 0  0 0.3125 0  0.06282715877908372 0.3124933491655297 0  0.1256654372515824 0.3124864629679233 0  0.1885261713670858 0.3124791002091197 0  0.2514210933762064 0.3124710088078315 0  0.3143624663349128 0.312461921603141 0  0.3773631263334278 0.3124515542133117 0  0.4404363744025337 0.3124396067022874 0  0.5035956320822077 0.3124257721028021 0  0.5668537330549144 0.3124097570201357 0  0.6302216616238082 0.3123913230371114 0  0.6937064571882297 0.312370362895306 0  0.757307871275707 0.3123470324855505 0  0.8210132010200578 0.3123219677122843 0  0.8847896613491764 0.3122966245476274 0  0.948574251305307 0.3122738086774917 0  1.01226389218973 0.3122585951182552 0  0 0.375 0  0.06286809058729413 0.374992536077986 0  0.1257491822046499 0.3749847983243602 0  0.1886565950228279 0.3749765043040084 0  0.2516042573166159 0.3749673547381648 0  0.3146069543246326 0.3749570253831883 0  0.3776804908329622 0.3749451596918045 0  0.4408417027107858 0.3749313633830024 0  0.5041082137252293 0.3749152032711016 0  0.5674977750592114 0.3748962150577496 0  0.6310269401563605 0.3748739292108156 0  0.6947087151271965 0.3748479320745002 0  0.7585487009404192 0.3748179931460443 0  0.822539175853116 0.374784311153703 0  0.8866507468107567 0.3747479599888821 0  0.9508220452177648 0.374711632502682 0  1.014950069602728 0.3746806913387488 0  0 0.4375 0  0.06289611072519309 0.4374919943697246 0  0.1258068038722629 0.4374836845006891 0  0.1887471045387069 0.4374747546689287 0  0.2517329074076951 0.4374648659383346 0  0.3147813824896025 0.4374536435218493 0  0.377911325431676 0.4374406629922382 0  0.4411433952371575 0.4374254352205827 0  0.5045001376707079 0.4374073905357454 0  0.5680056217261316 0.4373858641835938 0  0.6316844094868804 0.4373600889798043 0  0.6955594303905743 0.4373292097196905 0  0.7596481507411983 0.4372923524976804 0  0.823956277212565 0.4372488192203809 0  0.8884682629086695 0.4371985447241067 0  0.9531343747569907 0.4371430573928363 0  1.017855306521425 0.4370873034337188 0  0 0.5 0  0.06290964281231723 0.4999917543177638 0  0.1258350249006397 0.4999831849655223 0  0.1887924623512112 0.4999739542681425 0  0.2517994316711022 0.4999636956302568 0  0.3148751657163734 0.499951996602452 0  0.3780412525265985 0.4999383785891475 0  0.4413222056703834 0.4999222713840488 0  0.504745932962785 0.4999029801197278 0  0.5683439573783661 0.4998796417152807 0  0.6321511211795853 0.499851168382496 0  0.6962043080489233 0.4998161798280353 0  0.7605394269207174 0.4997729403270287 0  0.8251855190516816 0.4997193579272243 0  0.8901544556723348 0.4996532038570878 0  0.9554245143544181 0.4995729276408732 0  1.02091655527911 0.4994798470252515 0  0 0.5625 0  0.06290753603901984 0.5624918352146692 0  0.1258314079169402 0.5624833408750611 0  0.1887886563586352 0.5624741717625747 0  0.2517977671964767 0.5624639498541513 0  0.3148794695767 0.5624522443073806 0  0.378057619698607 0.5624385462518792 0  0.4413601840695242 0.5624222349475022 0  0.5048203102661636 0.5624025297498918 0  0.5684774174122705 0.5623784187126073 0  0.6323781256802186 0.5623485488839703 0  0.6965766267943883 0.5623110553690686 0  0.7611337005193806 0.5622632993188722 0  0.82611290488865 0.5622014941864699 0  0.8915714322679957 0.5621202726116877 0  0.9575418444301105 0.5620125032241533 0  1.024000068149508 0.5618703230983011 0  0 0.625 0  0.06288920038593755 0.6249922428137168 0  0.1257946429505798 0.6249841654562618 0  0.1887333749737058 0.6249754316750257 0  0.2517241194380714 0.6249656712752757 0  0.3147882548848954 0.6249544590993965 0  0.3779509767434538 0.6249412880589437 0  0.4412427157517097 0.6249255319706029 0  0.5047008949186105 0.6249063907611465 0  0.5683720974264079 0.6248828043149212 0  0.6323146666605238 0.6248533087424591 0  0.6966016059995027 0.6248157842631332 0  0.7613232641780318 0.6247669974671648 0  0.8265884387367867 0.6247017621852388 0  0.8925208064751828 0.6246114471810731 0  0.9592446054282143 0.6244815903600653 0  1.026849877934859 0.6242891581411191 0  0 0.6875 0  0.06285473586334721 0.687492967621144 0  0.12572482812924 0.6874856401988797 0  0.1886264870559053 0.6874777075674022 0  0.251577721786101 0.6874688275791215 0  0.3145994408710048 0.6874586065155971 0  0.3777168242809082 0.687446574282828 0  0.4409611096637332 0.6874321507542098 0  0.5043719869703892 0.6874145967516656 0  0.5680008644694892 0.6873929369105382 0  0.6319153481805242 0.6873658274795348 0  0.6962053311823302 0.6873313086040383 0  0.7609910075428088 0.6872862996725702 0  0.8264325934607801 0.6872255002256666 0  0.8927397478019481 0.68713889835761 0  0.9601738414507198 0.6870060884209339 0  1.02902573592167 0.6867837081313127 0  0 0.75 0  0.06280503364987129 0.7499939844259844 0  0.1256236959952685 0.749987713768444 0  0.1884704464704097 0.7499809199911321 0  0.2513615115949935 0.749973307758905 0  0.3143160051732724 0.7499645383465144 0  0.3773573792477203 0.7499542102929558 0  0.440515402778327 0.7499418351179505 0  0.503828964041347 0.7499268055325491 0  0.5673501538296825 0.7499083514638208 0  0.6311503452556786 0.7498854734318744 0  0.6953293934008351 0.749856825333133 0  0.7600296893672478 0.749820462379826 0  0.8254575960588146 0.7497731824286815 0  0.8919152715869115 0.7497085633437983 0  0.9598434103256627 0.7496108136586563 0  1.029860218827482 0.7494361088750503 0  0 0.8125 0  0.06274182522029316 0.81249525321551 0  0.1254947325413102 0.8124903039907919 0  0.1882705282737932 0.812484939917021 0  0.251082570494657 0.8124789277406153 0  0.3139467795353439 0.8124720018429628 0  0.3768829842730608 0.8124638517288704 0  0.439916820749307 0.812454109123988 0  0.5030825286105045 0.8124423369897251 0  0.5664272193774122 0.8124280267888456 0  0.6300176031720337 0.8124106197455943 0  0.6939509279919176 0.8123895897345952 0  0.7583733707866273 0.8123646747755339 0  0.8235121418895091 0.8123364396281979 0  0.8897340212984658 0.8123074075259195 0  0.9576561658054993 0.8122828897442488 0  1.028339276949371 0.8122601282736075 0  0 0.875 0  0.06266765881948018 0.87499672132613 0  0.1253431418983713 0.8749933025420136 0  0.1880348098306017 0.8749895969110135 0  0.2507521782243901 0.874985443978341 0  0.3135066838462706 0.8749806625733769 0  0.3763127250545728 0.8749750442995825 0  0.4391891624827868 0.8749683493513836 0  0.5021615878101553 0.8749603094674923 0  0.5652658946705335 0.8749506499145252 0  0.6285541187603785 0.8749391599017945 0  0.6921043811055748 0.8749258868801855 0  0.7560386190576788 0.874911663459065 0  0.8205561664313263 0.8748996147247394 0  0.8860036445949143 0.8748999822285241 0  0.9530493882749296 0.8749483069241375 0  1.023316738534144 0.875190360687038 0  0 0.9375 0  0.0625857916581869 0.9374983264441765 0  0.1251756286208617 0.9374965814051215 0  0.1877738408626876 0.9374946901386872 0  0.2503853731057896 0.9374925712077469 0  0.3130161967133199 0.9374901333025587 0  0.3756738748191912 0.9374872727457751 0  0.4383683872762009 0.9374838731071657 0  0
[...]
<PointData  Vectors="f_54"> 
<DataArray  type="Float64"  Name="f_54"  NumberOfComponents="3" format="ascii">0.0000000000000000e+00 0.0000000000000000e+00 0.0000000000000000e+00  0.0000000000000000e+00 0.0000000000000000e+00 0.0000000000000000e+00  0.0000000000000000e+00 0.0000000000000000e+00 0.0000000000000000e+00  0.0000000000000000e+00 0.0000000000000000e+00 0.0000000000000000e+00  0.0000000000000000e+00 0.0000000000000000e+00 0.0000000000000000e+00  0.0000000000000000e+00 0.0000000000000000e+00 0.0000000000000000e+00  0.0000000000000000e+00 0.0000000000000000e+00 0.0000000000000000e+00  0.0000000000000000e+00 0.0000000000000000e+00 0.0000000000000000e+00  0.0000000000000000e+00 0.0000000000000000e+00 0.0000000000000000e+00  0.0000000000000000e+00 0.0000000000000000e+00 0.0000000000000000e+00  0.0000000000000000e+00 0.0000000000000000e+00 0.0000000000000000e+00  0.0000000000000000e+00 0.0000000000000000e+00 0.0000000000000000e+00  0.0000000000000000e+00 0.0000000000000000e+00 0.0000000000000000e+00  0.0000000000000000e+00 0.0000000000000000e+00 0.0000000000000000e+00  0.0000000000000000e+00 0.0000000000000000e+00 0.0000000000000000e+00  0.0000000000000000e+00 0.0000000000000000e+00 0.0000000000000000e+00  0.0000000000000000e+00 0.0000000000000000e+00 0.0000000000000000e+00  0.0000000000000000e+00 0.0000000000000000e+00 0.0000000000000000e+00  1.1140022028708898e-06 -5.8103050989768160e-08 0.0000000000000000e+00  2.2791964392348289e-06 -1.1834585804507093e-07 0.0000000000000000e+00  3.5498683225642884e-06 -1.8294417772607326e-07 0.0000000000000000e+00  4.9865486459541282e-06 -2.5425824942538021e-07 0.0000000000000000e+00  6.6597840666783732e-06 -3.3486932535690794e-07 0.0000000000000000e+00  8.6548326694378037e-06 -4.2766160876796736e-07 0.0000000000000000e+00  1.1077985614978624e-05 -5.3591493429023414e-07 0.0000000000000000e+00  1.4065940518203383e-05 -6.6342534550922012e-07 0.0000000000000000e+00  1.7801489704200843e-05 -8.1471272944402263e-07 0.0000000000000000e+00  2.2543642915947934e-05 -9.9551968743030458e-07 0.0000000000000000e+00  2.8693775877670974e-05 -1.2143096664345799e-06 0.0000000000000000e+00  3.6958976438099539e-05 -1.4872759246625088e-06 0.0000000000000000e+00  4.8797962135574723e-05 -1.8561214715135440e-06 0.0000000000000000e+00  6.7754233959852890e-05 -2.4544942103506169e-06 0.0000000000000000e+00  1.0382590760576197e-04 -3.7713167531774419e-06 0.0000000000000000e+00  1.8960212718453911e-04 -7.7978870679805805e-06 0.0000000000000000e+00  0.0000000000000000e+00 0.0000000000000000e+00 0.0000000000000000e+00  2.1794922806832070e-06 -1.1420495545079907e-07 0.0000000000000000e+00  4.4588373433842718e-06 -2.3263851765342876e-07 0.0000000000000000e+00  6.9439027230135283e-06 -3.5968179664255756e-07 0.0000000000000000e+00  9.7526946974959085e-06 -5.0000708492876723e-07 0.0000000000000000e+00  1.3022611658477318e-05 -6.5873188510432987e-07 0.0000000000000000e+00  1.6919297594786377e-05 -8.4158132038977991e-07 0.0000000000000000e+00  2.1648098575020742e-05 -1.0550609394078766e-06 0.0000000000000000e+00  2.7469911262052295e-05 -1.3066439249624592e-06 0.0000000000000000e+00  3.4725029166869654e-05 -1.6049870264158341e-06 0.0000000000000000e+00  4.3872802835813559e-05 -1.9602191394841263e-06 0.0000000000000000e+00  5.5564490895703744e-05 -2.3843866953452685e-06 0.0000000000000000e+00  7.0787036383776876e-05 -2.8919570134962819e-06 0.0000000000000000e+00  9.1151381062808920e-05 -3.4981748455293998e-06 0.0000000000000000e+00  1.1941976348546642e-04 -4.1991182934652781e-06 0.0000000000000000e+00  1.6008601253372269e-04 -4.8377471283206699e-06 0.0000000000000000e+00  2.1742143843569609e-04 -4.3291464267410389e-06 0.0000000000000000e+00  0.0000000000000000e+00 0.0000000000000000e+00 0.0000000000000000e+00  3.1477768444267268e-06 -1.6621383659962852e-07 0.0000000000000000e+00  6.4386960239885852e-06 -3.3862216571944968e-07 0.0000000000000000e+00  1.0024445078382877e-05 -5.2364679869110772e-07 0.0000000000000000e+00  1.4073967477138730e-05 -7.2814690700826796e-07 0.0000000000000000e+00  1.8783656464319935e-05 -9.5965155071256128e-07 0.0000000000000000e+00  2.4389517211745342e-05 -1.2266045060138311e-06 0.0000000000000000e+00  3.1182174151663252e-05 -1.5386175849625376e-06 0.0000000000000000e+00  3.9525846541542369e-05 -1.9067139389452280e-06 0.0000000000000000e+00  4.9882799389557473e-05 -2.3435076621996149e-06 0.0000000000000000e+00  6.2845211147818860e-05 -2.8631803447314687e-06 0.0000000000000000e+00  7.9176018465719204e-05 -3.4809013919919684e-06 0.0000000000000000e+00  9.9854886881053009e-05 -4.2108106502625149e-06 0.0000000000000000e+00  1.2609860235891272e-04 -5.0605610486681053e-06 0.0000000000000000e+00  1.5922212989883430e-04 -6.0196958216571368e-06 0.0000000000000000e+00  1.9987793806963472e-04 -7.0531277043100140e-06 0.0000000000000000e+00  2.4543239549253609e-04 -8.2498984174991108e-06 0.0000000000000000e+00  0.0000000000000000e+00 0.0000000000000000e+00 0.0000000000000000e+00  3.9755805455524837e-06 -2.1216265581238264e-07 0.0000000000000000e+00  8.1297453603238136e-06 -4.3229127813870773e-07 0.0000000000000000e+00  1.2651596674924074e-05 -6.6864970222349761e-07 0.0000000000000000e+00  1.7751536258877026e-05 -9.3008104541625513e-07 0.0000000000000000e+00  2.3673783866565209e-05 -1.2263200079159021e-06 0.0000000000000000e+00  3.0711117750036668e-05 -1.5683282154429081e-06 0.0000000000000000e+00  3.9222491066949716e-05 -1.9686514599679394e-06 0.0000000000000000e+00  4.9653812943234892e-05 -2.4417772259008428e-06 0.0000000000000000e+00  6.2561125609438920e-05 -3.0044174338164762e-06 0.0000000000000000e+00  7.8632664161188017e-05 -3.6755105556935994e-06 0.0000000000000000e+00  9.8699486776786195e-05 -4.4754384491670590e-06 0.0000000000000000e+00  1.2370802071512107e-04 -5.4233308218315027e-06 0.0000000000000000e+00  1.5459031113769533e-04 -6.5302181583138983e-06 0.0000000000000000e+00  1.9188965934236209e-04 -7.7843026981904490e-06 0.0000000000000000e+00  2.3487429876961876e-04 -9.1229383514111009e-06 0.0000000000000000e+00  2.7983170014374325e-04 -1.0371254216864850e-05 0.0000000000000000e+00  0.0000000000000000e+00 0.0000000000000000e+00 0.0000000000000000e+00  4.6275091751125860e-06 -2.5028085881425995e-07 0.0000000000000000e+00  9.4592420738285054e-06 -5.1003603314112621e-07 0.0000000000000000e+00  1.4711221755727259e-05 -7.8910053185783634e-07 0.0000000000000000e+00  2.0623505845415040e-05 -1.0980196835618664e-06 0.0000000000000000e+00  2.7474395667368008e-05 -1.4484390034464225e-06 0.0000000000000000e+00  3.5597247673929473e-05 -1.8535360780337627e-06 0.0000000000000000e+00  4.5400588376027959e-05 -2.3285094579381679e-06 0.0000000000000000e+00  5.7391643707842007e-05 -2.8911326453442154e-06 0.0000000000000000e+00  7.2201793603592329e-05 -3.5623524494510766e-06 0.0000000000000000e+00  9.0608668866357344e-05 -4.3668219147369237e-06 0.0000000000000000e+00  1.1354138751422167e-04 -5.3330210051843773e-06 0.0000000000000000e+00  1.4203907739404102e-04 -6.4920523899843675e-06 0.0000000000000000e+00  1.7710390408064394e-04 -7.8729697480754018e-06 0.0000000000000000e+00  2.1934904824475664e-04 -9.4900173706455466e-06 0.0000000000000000e+00  2.6831672819152493e-04 -1.1312305934985669e-05 0.0000000000000000e+00  3.2143354792896840e-04 -1.3197115838573413e-05 0.0000000000000000e+00  0.0000000000000000e+00 0.0000000000000000e+00 0.0000000000000000e+00  5.0779844771245603e-06 -2.7906306848768761e-07 0.0000000000000000e+00  1.0374726523703312e-05 -5.6878288963118115e-07 0.0000000000000000e+00  1.6121247269508156e-05 -8.8022790816898929e-07 0.0000000000000000e+00  2.2573769695438880e-05 -1.2252875406428854e-06 0.0000000000000000e+00  3.0028868758772320e-05 -1.6171287175825080e-06 0.0000000000000000e+00  3.8841806995358900e-05 -2.0707149732866388e-06 0.0000000000000000e+00  4.9449235236504131e-05 -2.6034267230692398e-06 0.0000000000000000e+00  6.2397184376519822e-05 -3.2358436982079592e-06 0.0000000000000000e+00  7.8374252563601061e-05 -3.9927856377827724e-06 0.0000000000000000e+00  9.8247147810283811e-05 -4.9047496254582014e-06 0.0000000000000000e+00  1.2308960094907707e-04 -6.0098920450275426e-06 0.0000000000000000e+00  1.5418370704030462e-04 -7.3565367360729940e-06 0.0000000000000000e+00  1.9295297260345584e-04 -9.0054402818005547e-06 0.0000000000000000e+00  2.4076137262622917e-04 -1.1028730225826279e-05 0.0000000000000000e+00  2.9849906936579222e-04 -1.3496676124015661e-05 0.0000000000000000e+00  3.6591040812171107e-04 -1.6432330674467183e-05 0.0000000000000000e+00  0.0000000000000000e+00 0.0000000000000000e+00 0.0000000000000000e+00  5.3125261464078618e-06 -2.9733166989410394e-07 0.0000000000000000e+00  1.0846714800819969e-05 -6.0612383070718108e-07 0.0000000000000000e+00  1.6836022522553944e-05 -9.3828442086259517e-07 0.0000000000000000e+00  2.3538409675747343e-05 -1.3066234817459691e-06 0.0000000000000000e+00  3.1251406069848180e-05 -1.7253549668262863e-06 0.0000000000000000e+00  4.0330961271640936e-05 -2.2106708561239967e-06 0.0000000000000000e+00  5.1216043294670257e-05 -2.7814414342865702e-06 0.0000000000000000e+00  6.4461513415566536e-05 -3.4601456262611096e-06 0.0000000000000000e+00  8.0782307780701262e-05 -4.2742436607570654e-06 0.0000000000000000e+00  1.0111193167420607e-04 -5.2584269360228875e-06 0.0000000000000000e+00  1.2667668132140890e-04 -6.4586012488741471e-06 0.0000000000000000e+00  1.5908189779291495e-04 -7.9391500353168389e-06 0.0000000000000000e+00  2.0039492974703417e-04 -9.7958329785742107e-06 0.0000000000000000e+00  2.5318798786483002e-04 -1.2176567390397246e-05 0.0000000000000000e+00  3.2047062179001683e-04 -1.5307735074442681e-05 0.0000000000000000e+00  4.0539316415337697e-04 -1.9504996796478216e-05 0.0000000000000000e+00  0.0000000000000000e+00 0.0000000000000000e+00 0.0000000000000000e+00  5.3282585592271823e-06 -3.0428926522701173e-07 0.0000000000000000e+00  1.0869836424936181e-05 -6.2042493793602250e-07 0.0000000000000000e+00  1.6848381296967211e-05 -9.6072040961914825e-07 0.0000000000000000e+00  2.3509249063988463e-05 -1.3384390413486043e-06 0.0000000000000000e+00  3.1133104914356284e-05 -1.7683146755354106e-06 0.0000000000000000e+00  4.0053515772893230e-05 -2.2671340251710587e-06 0.0000000000000000e+00  5.0681210857478719e-05 -2.8544239453763381e-06 0.0000000000000000e+00  6.3539265796624188e-05 -3.5533360052481819e-06 0.0000000000000000e+00  7.9316010862507844e-05 -4.3919523483147523e-06 0.0000000000000000e+00  9.8946320080543516e-05 -5.4055707744489601e-06 0.0000000000000000e+00  1.2373718240011613e-04 -6.6413299223132965e-06 0.0000000000000000e+00  1.5555906991418191e-04 -8.1683378830760581e-06 0.0000000000000000e+00  1.9712662639042550e-04 -1.0100132692190225e-05 0.0000000000000000e+00  2.5238043391661571e-04 -1.2642614814345963e-05 0.0000000000000000e+00  3.2693612293735615e-04 -1.6188065750409937e-05 0.0000000000000000e+00  4.2845857949738042e-04 -2.1474231532853028e-05 0.0000000000000000e+00  0.0000000000000000e+00 0.0000000000000000e+00 0.0000000000000000e+00  5.1335226506048305e-06 -2.9955736984906165e-07 0.0000000000000000e+00  1.0462132238655335e-05 -6.1090528979588335e-07 0.0000000000000000e+00  1.6188851512840255e-05 -9.4630677937653439e-07 0.0000000000000000e+00  2.2533548821400441e-05 -1.3189939784676416e-06 0.0000000000000000e+00  2.9743467345453721e-05 -1.7436873990445771e-06 0.0000000000000000e+00  3.8107095395716994e-05 -2.2371509388409424e-06 0.0000000000000000e+00  4.7974182726478356e-05 -2.8187847569165834e-06 0.0000000000000000e+00  5.9787035258961992e-05 -3.5112586637991627e-06 0.0000000000000000e+00  7.4132577474914880e-05 -4.3412296365530883e-06 0.0000000000000000e+00  9.1832584356575197e-05 -5.3403840409770240e-06 0.0000000000000000e+00  1.1410316706555334e-04 -6.5477507175554682e-06 0.0000000000000000e+00  1.4283628631808439e-04 -8.0164278417306486e-06 0.0000000000000000e+00  1.8108503754277712e-04 -9.8340328298590733e-06 0.0000000000000000e+00  2.3385887782373420e-04 -1.2181733334516354e-05 0.0000000000000000e+00  3.0931750038900013e-04 -1.5490691623927545e-05 0.0000000000000000e+00  4.2032268671000092e-04 -2.0813333974873190e-05 0.0000000000000000e+00  0.0000000000000000e+00 0.0000000000000000e+00 0.0000000000000000e+00  4.7465211530563058e-06 -2.8319983163470700e-07 0.0000000000000000e+00  9.6622898205326581e-06 -5.7768241041961846e-07 0.0000000000000000e+00  1.4921443117347924e-05 -8.9519796199959505e-07 0.0000000000000000e+00  2.0708529943239460e-05 -1.2484656880745118e-06 0.0000000000000000e+00  2.7224514070371150e-05 -1.6516890591481122e-06 0.0000000000000000e+00  3.4694342578704774e-05 -2.1210883548226268e-06 0.0000000000000000e+00  4.3377979665427355e-05 -2.6754057344263533e-06 0.0000000000000000e+00  5.3589054240569621e-05 -3.3362567440570582e-06 0.0000000000000000e+00  6.5730097386219392e-05 -4.1280403594127275e-06 0.0000000000000000e+00  8.0363500626246773e-05 -5.0768403488916297e-06 0.0000000000000000e+00  9.8358075879738130e-05 -6.2074209764477966e-06 0.0000000000000000e+00  1.2119152085992012e-04 -7.5376705004755056e-06 0.0000000000000000e+00  1.5156135645658355e-04 -9.0735293000007009e-06 0.0000000000000000e+00  1.9456572219017358e-04 -1.0824732438370939e-05 0.0000000000000000e+00  2.5982052456881749e-04 -1.2922739722113401e-05 0.0000000000000000e+00  3.6482527614184441e-04 -1.6097543514592022e-05 0.0000000000000000e+00  0.0000000000000000e+00 0.0000000000000000e+00 0.0000000000000000e+00  4.1930508314924461e-06 -2.5573230511000133e-07 0.0000000000000000e+00  8.5248494822557360e-06 -5.2178855994997681e-07 0.0000000000000000e+00  1.3135827663221217e-05 -8.0894568585299311e-07 0.0000000000000000e+00  1.8169866158817154e-05 -1.1289340709278772e-06 0.0000000000000000e+00  2.3775026217975838e-05 -1.4949614852927607e-06 0.0000000000000000e+00  3.0103130041178122e-05 -1.9222741416823485e-06 0.0000000000000000e+00  3.7308057023916855e-05 -2.4287055968273692e-06 0.0000000000000000e+00  4.5543550398865164e-05 -3.0350341418250302e-06 0.0000000000000000e+00  5.4964148199118963e-05 -3.7646343290099690e-06 0.0000000000000000e+00  6.5740591527744434e-05 -4.6410728699604465e-06 0.0000000000000000e+00  7.8121133180108454e-05 -5.6802933135130972e-06 0.0000000000000000e+00  9.2619940647498656e-05 -6.8695190500436141e-06 0.0000000000000000e+00  1.1053051212867547e-04 -8.1162037632473553e-06 0.0000000000000000e+00  1.3521020766291635e-04 -9.1396884934802012e-06 0.0000000000000000e+00  1.7501036532432263e-04 -9.2981089780115528e-06 0.0000000000000000e+00  2.4913752308343905e-04 -7.5503615996079493e-06 0.0000000000000000e+00  0.0000000000000000e+00 0.0000000000000000e+00 0.0000000000000000e+00  3.5035742059125155e-06 -2.1812039458491034e-07 0.0000000000000000e+00  7.1138672203585803e-06 -4.4516693090636039e-07 0.0000000000000000e+00  1.0936551927190432e-05 -6.9048931770836984e-07 0.0000000000000000e+00  1.5074696596576363e-05 -9.6434714662038276e-07 0.0000000000000000e+00  1.9624699603768916e-05 -1.2784493240221600e-06 0.0000000000000000e+00  2.4668175610985038e-05 -1.6465992920114729e-06 0.0000000000000000e+00  3.0257017843161439e-05 -2.0854697497657280e-06 0.0000000000000000e+00  3.6387381609924124e-05 -2.6154649276148656e-06 0.0000000000000000e+00  4.2956438777828788e-05 -3.2613853779551237e-06 0.0000000000000000e+00  4.9694524236211227e-05 -4.0518043030398427e-06 0.0000000000000000e+00  5.6069512344055454e-05 -5.0135036174854975e-06 0.0000000000000000e+00  6.1187261190648342e-05 -6.1493225903500132e-06 0.0000000000000000e+00  6.3818752396602952e-05 -7.3631722632479146e-06 0.0000000000000000e+00  6.3039349315253403e-05 -8.2230970877819658e-06 0.0000000000000000e+00  6.0954782235165022e-05 -7.2627697797948776e-06 0.0000000000000000e+00  7.0822174307732982e-05 -2.2377075565214600e-07 0.0000000000000000e+00  0.0000000000000000e+00 0.0000000000000000e+00 0.0000000000000000e+00  2.7101019756978579e-06 -1.7176663215658806e-07 0.0000000000000000e+00  5.4960546500016562e-06 -3.5065159082252916e-07 0.0000000000000000e+00  8.4310068844995616e-06 -5.4414125935519349e-07 0.0000000000000000e+00  1.1581781626077423e-05 -7.6053018949953841e-07 0.0000000000000000e+00  1.5001873085009150e-05 -1.0094473686410647e-06 0.0000000000000000e+00  1.8718469234195244e-05 -1.3025709582397922e-06 0.0000000000000000e+00  2.2708604803050754e-05 -1.6546774540186645e-06 0.0000000000000000e+00  2.6855611030786731e-05 -2.0852800339649984e-06 0.0000000000000000e+00  3.0869533672356725e-05 -2.6212936722022390e-06 0.0000000000000000e+00  3.4140992091179020e-05 -3.3013982059282245e-06 0.0000000000000000e+00  3.5471829750908918e-05 -4.1826976049054511e-06 0.0000000000000000e+00  3.2582860878298919e-05 -5.3477936782089724e-06 0.0000000000000000e+00  2.1256224503420656e-05 -6.8948284751631010e-06 0.0000000000000000e+00  -5.9041678806450110e-06 -8.8109317034453421e-06 0.0000000000000000e+00  -5.9846103521719777e-05 -1.0205042661147199e-05 0.0000000000000000e+00  -1.4690161733005546e-04 -5.1986323411623525e-06 0.0000000000000000e+00  0.0000000000000000e+00 0.0000000000000000e+00 0.0000000000000000e+00  1.8435023540070847e-06 -1.1848056062207793e-07 0.0000000000000000e+00  3.7348049514827805e-06 -2.4191903073847399e-07 0.0000000000000000e+00  5.7187614757108007e-06 -3.7554946730305549e-07 0.0000000000000000e+00  7.8333681470875044e-06 -5.2522384449257905e-07 0.0000000000000000e+00  1.0102646544114575e-05 -6.9784858667845314e-07 0.0000000000000000e+00  1.2523613316773739e-05 -9.0203817406104301e-07 0.0000000000000000e+00  1.5042090346542253e-05 -1.1492062472219468e-06 0.0000000000000000e+00  1.7507250244661341e-05 -1.4555680878370903e-06 0.0000000000000000e+00  1.9584563778043707e-05 -1.8461290834748356e-06 0.0000000000000000e+00  2.0584441144627662e-05 -2.3632130477802665e-06 0.0000000000000000e+00  1.9112667800833592e-05 -3.0858813607233671e-06 0.0000000000000000e+00  1.2326027537581924e-05 -4.1767776217341061e-06 0.0000000000000000e+00  -5.7293800471272539e-06 -6.0014804043520368e-06 0.0000000000000000e+00  -4.7985026092370163e-05 -9.4484299052037974e-06 0.0000000000000000e+00  -1.4333980331739433e-04 -1.6816578643621618e-05 0.0000000000000000e+00  -3.5236197464480533e-04 -3.4125745262454549e-05 0.0000000000000000e+00  0.0000000000000000e+00 0.0000000000000000e+00 0.0000000000000000e+00  9.3182717071888957e-07 -6.0420895502642796e-08 0.0000000000000000e+00  1.8865063422070758e-06 -1.2338249861035923e-07 0.0000000000000000e+00  2.8850194432970204e-06 -1.9157366442617234e-07 0.0000000000000000e+00  3.9440019202406734e-06 -2.6801879544815863e-07 0.0000000000000000e+00  5.0713316420229515e-06 -3.5632730673998263e-07 0.0000000000000000e+00  6.2580818647016293e-06 -4.6108840691643628e-07 0.0000000000000000e+00  7.4634999120949561e-06 -5.8857421412036107e-07 0.0000000000000000e+00  8.5863985785406901e-06 -7.4812376637495651e-07 0.0000000000000000e+00  9.4091542547740652e-06 -9.5510938724530882e-07 0.0000000000000000e+00  9.4838014126312701e-06 -1.2377886824212187e-06 0.0000000000000000e+00  7.8880407617427493e-06 -1.6542767105803654e-06 0.0000000000000000e+00  2.6653111474723090e-06 -2.3376528078857073e-06 0.0000000000000000e+00  -1.0583019228925444e-05 -3.6254615460051719e-06 0.0000000000000000e+00  -4.2689288494916627e-05 -6.4670719350522821e-06 0.0000000000000000e+00  -1.2412238412020147e-04 -1.3859420909965558e-05 0.0000000000000000e+00  -3.5715159138378070e-04 -3.6629718871156617e-05 0.0000000000000000e+00  0.0000000000000000e+00 0.0000000000000000e+00 0.0000000000000000e+00  0.0000000000000000e+00 0.0000000000000000e+00 0.0000000000000000e+00  0.0000000000000000e+00 0.0000000000000000e+00 0.0000000000000000e+00  0.0000000000000000e+00 0.0000000000000000e+00 0.0000000000000000e+00  0.0000000000000000e+00 0.0000000000000000e+00 0.0000000000000000e+00  0.0000000000000000e+00 0.0000000000000000e+00 0.0000000000000000e+00  0.0000000000000000e+00 0.0000000000000000e+00 0.0000000000000000e+00  0.0000000000000000e+00 0.0000000000000000e+00 0.0000000000000000e+00  0.0000000000000000e+00 0.0000000000000000