<?xml version="1.0"?>
<VTKFile type="UnstructuredGrid"  version="0.1"  >
<UnstructuredGrid>
<Piece  NumberOfPoints="289" NumberOfCells="512">
<Points>
<DataArray  type="Float64"  NumberOfComponents="3"  format="ascii">0 0 0  0.0625 0 0  0.125 0 0  0.1875 0 0  0.25 0 0  0.3125 0 0  0.375 0 0  0.4375 0 0  0.5 0 0  0.5625 0 0  0.625 0 0  0.6875 0 0  0.75 0 0  0.8125 0 0  0.875 0 0  0.9375 0 0  1 0 0  0 0.0625 0  0.06250976353561294 0.06247116838884495 0  0.1250208147056646 0.06244183028844659 0  0.1875345759378703 0.06241151616821579 0  0.2500528177440745 0.06237986286647158 0  0.3125778847165884 0.06234668142066186 0  0.375112995644888 0.06231204058961506 0  0.4376626664220025 0.06227636541672441 0  0.5002333431523764 0.06224054146314768 0  0.5628344235078718 0.06220599889504715 0  0.6254800691436728 0.06217472065237923 0  0.6881928035035305 0.06214906365207707 0  0.751011542511608 0.06213116951150342 0  0.8140116072133401 0.06212146154189267 0  0.8773596316616722 0.0621148481000314 0  0.9414772374376044 0.06209007810225254 0  1.007571699082424 0.06197682537762076 0  0 0.125 0  0.06251822112080108 0.1249428157372952 0  0.1250388697926113 0.1248845640884816 0  0.1875646335360696 0.1248242462381036 0  0.2500988718513683 0.124761064342851 0  0.3126460537129809 0.1246945540316295 0  0.3752123372019243 0.1246247532850563 0  0.4378063762183234 0.1245524111335206 0  0.5004404931715377 0.1244792255474002 0  0.5631324692028058 0.1244080726070423 0  0.6259084450224937 0.1243431405293332 0  0.6888079432725377 0.1242898043177348 0  0.7518930815060865 0.1242539748564091 0  0.815265882322233 0.1242406129912682 0  0.8790990664345647 0.1242515734700881 0  0.9436769872284069 0.1242861031687422 0  1.009373165534084 0.1243622480414944 0  0 0.1875 0  0.06252428999671558 0.1874155167864009 0  0.1250518456811638 0.1873293066840034 0  0.187586291350277 0.1872397315516613 0  0.2501321815291039 0.1871454228191066 0  0.3126956080110447 0.1870454693023958 0  0.3752850009107068 0.1869396695066444 0  0.4379122246686692 0.1868288640131618 0  0.500594110368673 0.1867153501263968 0  0.5633546305353662 0.1866033510189837 0  0.6262280190840871 0.1864994523521582 0  0.6892632443261582 0.1864128114665693 0  0.752530181582989 0.1863547568418968 0  0.8161268610334946 0.1863370552000061 0  0.8801828342379375 0.1863673315195466 0  0.9448398465141613 0.1864374017717762 0  1.010160291097671 0.1864884765793511 0  0 0.25 0  0.06252719342744238 0.2498899431907902 0  0.125058066143515 0.2497773707415203 0  0.187596714336229 0.2496598574048881 0  0.2501483228001748 0.2495352727161985 0  0.3127198810801767 0.2494020044131588 0  0.3753211311167279 0.2492592805353349 0  0.4379658533644049 0.2491076272619143 0  0.5006736170777613 0.2489494953131879 0  0.5634721244003631 0.2487900683398439 0  0.6264002257905891 0.2486382152599755 0  0.6895114664255021 0.2485074355951681 0  0.7528773632729922 0.248416423528875 0  0.8165878858120871 0.2483884647451252 0  0.8807427185147729 0.2484481841177313 0  0.9454201690856883 0.2486133227014286 0  1.010606308816425 0.2488805633730574 0  0 0.3125 0  0.06252656715702197 0.3123668923015665 0  0.1250567278296887 0.3122303422257131 0  0.1875945004069201 0.3120869734774534 0  0.250145024488134 0.3119336671594695 0  0.31271531363683 0.3117677865847857 0  0.3753152690800588 0.3115875346948735 0  0.4379590734988923 0.311392509761358 0  0.5006670966018254 0.3111845399433971 0  0.563468423959082 0.310968885914463 0  0.6264040094099634 0.31075588549491 0  0.6895301307647727 0.3105630376491162 0  0.7529210887688024 0.3104173148272334 0  0.8166686570971748 0.310357041081061 0  0.8808736552124854 0.3104318670782479 0  0.9456236898189181 0.310698307533896 0  1.010956648998691 0.31120771442996 0  0 0.375 0  0.06252251784467631 0.374847293894087 0  0.1250480297935754 0.3746901025489011 0  0.1875799062040455 0.3745239505136177 0  0.2501225271410448 0.3743445027513764 0  0.3126819881353672 0.3741477402977215 0  0.3752670888043694 0.3739302906891006 0  0.4378907506226738 0.3736900079234194 0  0.5005720455767273 0.3734269393309272 0  0.5633390328825225 0.3731448722495862 0  0.6262325447402978 0.3728537112442864 0  0.6893108331714403 0.3725729595567869 0  0.7526544337957998 0.3723364704558327 0  0.8163695988240733 0.3721981971508437 0  0.8805874848767127 0.3722376057779389 0  0.9454565579971691 0.3725615444321966 0  1.011131481369768 0.3732972115316038 0  0 0.4375 0  0.06251562532219473 0.4373321865443787 0  0.125033186261693 0.4371587884167825 0  0.18755488739727 0.4369741404158979 0  0.2500836783134013 0.4367725128995646 0  0.312623816159704 0.4365481744823695 0  0.3751817136170759 0.4362956050751572 0  0.4377672550197713 0.4360099720333438 0  0.5003958512956774 0.4356880550081664 0  0.5630916183095187 0.4353299205585758 0  0.6258921789853708 0.4349418174303595 0  0.688855632914734 0.4345409777458806 0  0.7520700493403329 0.4341631794924917 0  0.815665199025251 0.4338737600622493 0  0.8798251548984201 0.4337816183290976 0  0.9448000848562162 0.4340527638045327 0  1.010920279891328 0.4349155658546532 0  0 0.5 0  0.06250688441774875 0.4998226571269538 0  0.125014312823805 0.4996386733797579 0  0.1875229365477634 0.4994412077987171 0  0.2500337408237617 0.499223070355086 0  0.3125483582643235 0.4989766047097825 0  0.3750696273608897 0.4986936765638864 0  0.4376026028592102 0.498365872669802 0  0.5001563809880065 0.4979851085736252 0  0.5627473628820875 0.4975450124045327 0  0.6254049824263739 0.4970437511900265 0  0.6881814697231458 0.4964894655010062 0  0.7511677609940804 0.4959102100542863 0  0.8145177108624312 0.495371034263403 0  0.8784814381863401 0.4950004959803624 0  0.9434459820184533 0.4950248052901848 0  1.009983699740341 0.4957973438439393 0  0 0.5625 0  0.06249758623448127 0.5623197414888744 0  0.1249941828877858 0.5621319639687807 0  0.1874887061349753 0.5619288131623443 0  0.2499798818430647 0.561701751884463 0  0.3124662087380745 0.5614412101058085 0  0.374946056973044 0.56113624989277 0  0.4374180869815373 0.5607743045055957 0  0.4998823825482883 0.5603411367585092 0  0.5623431017242565 0.5598213429120131 0  0.6248142143681085 0.5592001083085523 0  0.6873312181528566 0.5584677054767322 0  0.749973705731784 0.5576297758832255 0  0.81290573796916 0.5567291549409815 0  0.876440719655645 0.5558882567462972 0  0.9411303434741601 0.5553793598221742 0  1.007865570790667 0.5557108170955557 0  0 0.625 0  0.06248914483815372 0.6248242919442359 0  0.1249758623963234 0.6246405193925295 0  0.1874574170345781 0.6244401540634019 0  0.2499303146821877 0.6242136557359986 0  0.3123898482069945 0.6239498727347582 0  0.3748295868815463 0.6236353305845785 0  0.437240893460185 0.6232533830495512 0  0.4996127518426086 0.6227832375385267 0  0.5619326588586664 0.622198978098754 0  0.6241903887807352 0.6214690145754092 0  0.6863886726373836 0.6205572028036649 0  0.7485691747011455 0.6194290290332848 0  0.8108692657292633 0.6180716977554582 0  0.8736320014503722 0.6165490572796958 0  0.9375832150543404 0.615127310672635 0  1.004056913271427 0.6144781028981392 0  0 0.6875 0  0.06248288461498297 0.6873368268624582 0  0.124962250608211 0.6871655254299328 0  0.1874340843109873 0.6869774094444964 0  0.2498931068351242 0.686762526679358 0  0.3123319069752641 0.6865088475596983 0  0.3747397667079101 0.6862012083802977 0  0.4371010721556808 0.6858198776790833 0  0.4993932844240971 0.6853385687026871 0  0.561584763027285 0.6847216725456602 0  0.6236337089959665 0.6839204891403888 0  0.6854921675188383 0.6828685126066298 0  0.7471258229016274 0.6814772695737406 0  0.8085760875092243 0.6796402050152222 0  0.8701207193032184 0.6772751726101985 0  0.9326019658520974 0.6745123048594138 0  0.9978659004394848 0.6721614957100784 0  0 0.75 0  0.06247981575508107 0.7498573869665571 0  0.124955583424088 0.7497071753896841 0  0.1874226461878884 0.7495411755654097 0  0.2498747607347875 0.7493498229867694 0  0.3123029293449855 0.749121253411923 0  0.3746936804472424 0.7488400343589208 0  0.4370264518339945 0.7484853336314318 0  0.4992695837277398 0.7480281764337866 0  0.5613743091079376 0.7474272122356995 0  0.6232663287620303 0.7466219916868725 0  0.6848361312861182 0.7455219888406218 0  0.7459356274981753 0.743988388786294 0  0.8064107860612211 0.7418051014663933 0  0.8662704335373275 0.738646119989496 0  0.9262835318802699 0.7341504169453911 0  0.9887982347975615 0.7291426346804052 0  0 0.8125 0  0.06248043741698896 0.8123854286863569 0  0.1249569868382867 0.8122644260254526 0  0.1874251483836731 0.8121300149850414 0  0.2498788065566438 0.8119739290151611 0  0.3123089831368768 0.8117857181604049 0  0.3747019028949808 0.8115514871591959 0  0.4370358412779907 0.8112520165596557 0  0.4992758262492463 0.8108598561608962 0  0.5613645553845285 0.81033467457052 0  0.6232066984315283 0.8096155241070672 0  0.6846421331702073 0.8086072559586283 0  0.7454031938206516 0.8071547040181727 0  0.8050608517388153 0.8049884783358507 0  0.8630295129417437 0.8016000007257282 0  0.9190630769451602 0.7959388310652347 0  0.9777139592413455 0.7856324769234786 0  0 0.875 0  0.06248461453754084 0.8749197837812084 0  0.1249661878433039 0.8748348958514695 0  0.1874411873247364 0.8747402452216728 0  0.24990477074684 0.8746297401380373 0  0.3123497446721719 0.8744955825794999 0  0.3747648954154739 0.8743272583132324 0  0.4371321510450003 0.8741100173825214 0  0.499421533955773 0.8738225173897222 0  0.5615818123839675 0.873433098206549 0  0.6235224903252983 0.8728938098148821 0  0.6850778009446963 0.872130622979396 0  0.7459325390289321 0.8710262452982291 0  0.8054672876341182 0.8693836679818981 0  0.8624426822693343 0.8668207612982483 0  0.9144190423183802 0.8623867770017224 0  0.957012322137859 0.8531155070805918 0  0 0.9375 0  0.06249156847688889 0.9374587048815951 0  0.1249814810706234 0.9374149527622744 0  0.1874678126370105 0.9373660592886094 0  0.2499479155632983 0.9373087944595827 0  0.312417837662182 0.9372389949473344 0  0.3748713751743646 0.9371510064972421 0  0.4372984291139578 0.9370368459403834 0 
[...]
<PointData  Vectors="f_54"> 
<DataArray  type="Float64"  Name="f_54"  NumberOfComponents="3" format="ascii">0.0000000000000000e+00 0.0000000000000000e+00 0.0000000000000000e+00  0.0000000000000000e+00 0.0000000000000000e+00 0.0000000000000000e+00  0.0000000000000000e+00 0.0000000000000000e+00 0.0000000000000000e+00  0.0000000000000000e+00 0.0000000000000000e+00 0.0000000000000000e+00  0.0000000000000000e+00 0.0000000000000000e+00 0.0000000000000000e+00  0.0000000000000000e+00 0.0000000000000000e+00 0.0000000000000000e+00  0.0000000000000000e+00 0.0000000000000000e+00 0.0000000000000000e+00  0.0000000000000000e+00 0.0000000000000000e+00 0.0000000000000000e+00  0.0000000000000000e+00 0.0000000000000000e+00 0.0000000000000000e+00  0.0000000000000000e+00 0.0000000000000000e+00 0.0000000000000000e+00  0.0000000000000000e+00 0.0000000000000000e+00 0.0000000000000000e+00  0.0000000000000000e+00 0.0000000000000000e+00 0.0000000000000000e+00  0.0000000000000000e+00 0.0000000000000000e+00 0.0000000000000000e+00  0.0000000000000000e+00 0.0000000000000000e+00 0.0000000000000000e+00  0.0000000000000000e+00 0.0000000000000000e+00 0.0000000000000000e+00  0.0000000000000000e+00 0.0000000000000000e+00 0.0000000000000000e+00  0.0000000000000000e+00 0.0000000000000000e+00 0.0000000000000000e+00  0.0000000000000000e+00 0.0000000000000000e+00 0.0000000000000000e+00  -3.9736716289057939e-06 -2.4327413355912342e-07 0.0000000000000000e+00  -8.0657537584179084e-06 -4.8914448655907289e-07 0.0000000000000000e+00  -1.2398713904670835e-05 -7.3969059493482120e-07 0.0000000000000000e+00  -1.7095949878190184e-05 -9.9542706736040560e-07 0.0000000000000000e+00  -2.2281648228888643e-05 -1.2542819376171506e-06 0.0000000000000000e+00  -2.8079772379762087e-05 -1.5102835021158261e-06 0.0000000000000000e+00  -3.4612135662158943e-05 -1.7518731479064068e-06 0.0000000000000000e+00  -4.1996079438445889e-05 -1.9597734815622691e-06 0.0000000000000000e+00  -5.0343824153985721e-05 -2.1043061785462368e-06 0.0000000000000000e+00  -5.9769818821345962e-05 -2.1417749553416773e-06 0.0000000000000000e+00  -7.0424620048677701e-05 -2.0082830202115597e-06 0.0000000000000000e+00  -8.2611060169823943e-05 -1.6045395710763218e-06 0.0000000000000000e+00  -9.7160442095278515e-05 -7.4715169279578546e-07 0.0000000000000000e+00  -1.1667867610390516e-04 1.0076213634479531e-06 0.0000000000000000e+00  -1.4996687417413374e-04 5.0501481603247663e-06 0.0000000000000000e+00  -2.2998071668310448e-04 1.6732953788674361e-05 0.0000000000000000e+00  0.0000000000000000e+00 0.0000000000000000e+00 0.0000000000000000e+00  -7.8265335300890162e-06 -4.8379899011939286e-07 0.0000000000000000e+00  -1.5889769468918642e-05 -9.7354055865042922e-07 0.0000000000000000e+00  -2.4434526762237789e-05 -1.4742185509295322e-06 0.0000000000000000e+00  -3.3708293462086320e-05 -1.9878927735438095e-06 0.0000000000000000e+00  -4.3961322367532016e-05 -2.5117350193373416e-06 0.0000000000000000e+00  -5.5444858810230829e-05 -3.0354721706001047e-06 0.0000000000000000e+00  -6.8407081057102434e-05 -3.5380512240313289e-06 0.0000000000000000e+00  -8.3086874429466278e-05 -3.9834118163717199e-06 0.0000000000000000e+00  -9.9706989635769475e-05 -4.3153599009408359e-06 0.0000000000000000e+00  -1.1847159314786216e-04 -4.4516613968942417e-06 0.0000000000000000e+00  -1.3958110106132470e-04 -4.2775014335472406e-06 0.0000000000000000e+00  -1.6329368671735798e-04 -3.6383283501814591e-06 0.0000000000000000e+00  -1.9008976539893415e-04 -2.3335875042857067e-06 0.0000000000000000e+00  -2.2099327373497133e-04 -1.3122006156982626e-07 0.0000000000000000e+00  -2.5773383843169333e-04 3.0440310803900075e-06 0.0000000000000000e+00  -2.9942495952422875e-04 5.7479906623787034e-06 0.0000000000000000e+00  0.0000000000000000e+00 0.0000000000000000e+00 0.0000000000000000e+00  -1.1436930348048883e-05 -7.1800191179339236e-07 0.0000000000000000e+00  -2.3227895472332363e-05 -1.4466803621016242e-06 0.0000000000000000e+00  -3.5739049106503624e-05 -2.1954994374185270e-06 0.0000000000000000e+00  -4.9342410129796907e-05 -2.9700189699841422e-06 0.0000000000000000e+00  -6.4416922922619935e-05 -3.7692005279990984e-06 0.0000000000000000e+00  -8.1346551313702973e-05 -4.5817655884549728e-06 0.0000000000000000e+00  -1.0051427287613268e-04 -5.3812902124316439e-06 0.0000000000000000e+00  -1.2229083911993659e-04 -6.1198096583775661e-06 0.0000000000000000e+00  -1.4701731626374102e-04 -6.7199708286472031e-06 0.0000000000000000e+00  -1.7498057491147599e-04 -7.0663971358089911e-06 0.0000000000000000e+00  -2.0637987095863456e-04 -6.9983100789105459e-06 0.0000000000000000e+00  -2.4127520261706922e-04 -6.3085462584746363e-06 0.0000000000000000e+00  -2.7947470222731345e-04 -4.7615655623911595e-06 0.0000000000000000e+00  -3.2019422914941791e-04 -2.1615391530721685e-06 0.0000000000000000e+00  -3.6092542577936023e-04 1.4618869579176089e-06 0.0000000000000000e+00  -3.9397318961047044e-04 5.5154303052982105e-06 0.0000000000000000e+00  0.0000000000000000e+00 0.0000000000000000e+00 0.0000000000000000e+00  -1.4684894852961079e-05 -9.4094567939845696e-07 0.0000000000000000e+00  -2.9838594684328573e-05 -1.8991266678378679e-06 0.0000000000000000e+00  -4.5945937715051483e-05 -2.8905510839101810e-06 0.0000000000000000e+00  -6.3502912639516141e-05 -3.9269627239864353e-06 0.0000000000000000e+00  -8.3019862517909931e-05 -5.0127253012876453e-06 0.0000000000000000e+00  -1.0502077338578267e-04 -6.1403899304840160e-06 0.0000000000000000e+00  -1.3003673735662621e-04 -7.2844006897664813e-06 0.0000000000000000e+00  -1.5859104578600005e-04 -8.3924018577944777e-06 0.0000000000000000e+00  -1.9117227979926777e-04 -9.3738306626120520e-06 0.0000000000000000e+00  -2.2818945995076154e-04 -1.0086216681300553e-05 0.0000000000000000e+00  -2.6989759135766570e-04 -1.0321476092056781e-05 0.0000000000000000e+00  -3.1626700762119443e-04 -9.7986483217412952e-06 0.0000000000000000e+00  -3.6673237992451940e-04 -8.1779711971855645e-06 0.0000000000000000e+00  -4.1967332303370305e-04 -5.1264265293717820e-06 0.0000000000000000e+00  -4.7133933790470984e-04 -4.8575828542831328e-07 0.0000000000000000e+00  -5.1392304925099456e-04 5.3976356006002602e-06 0.0000000000000000e+00  0.0000000000000000e+00 0.0000000000000000e+00 0.0000000000000000e+00  -1.7454138783630258e-05 -1.1459159327564808e-06 0.0000000000000000e+00  -3.5486618747535371e-05 -2.3175865351954385e-06 0.0000000000000000e+00  -5.4695621723189218e-05 -3.5398423230200606e-06 0.0000000000000000e+00  -7.5698343904419935e-05 -4.8337028275402251e-06 0.0000000000000000e+00  -9.9137951707611613e-05 -6.2133124413723684e-06 0.0000000000000000e+00  -1.2568614927415772e-04 -7.6812331309064167e-06 0.0000000000000000e+00  -1.5603889841516442e-04 -9.2212389443145115e-06 0.0000000000000000e+00  -1.9090176470988073e-04 -1.0787529921907157e-05 0.0000000000000000e+00  -2.3095966187879142e-04 -1.2289140763194194e-05 0.0000000000000000e+00  -2.7682278821886260e-04 -1.3568559678414885e-05 0.0000000000000000e+00  -3.2893480241508812e-04 -1.4374867311693650e-05 0.0000000000000000e+00  -3.8741772259574516e-04 -1.4335368795647835e-05 0.0000000000000000e+00  -4.5180602794028509e-04 -1.2937810974864909e-05 0.0000000000000000e+00  -5.2058924671189615e-04 -9.5498567562796175e-06 0.0000000000000000e+00  -5.9046741659660347e-04 -3.5214650681174216e-06 0.0000000000000000e+00  -6.5535841480947744e-04 5.5766932096086412e-06 0.0000000000000000e+00  0.0000000000000000e+00 0.0000000000000000e+00 0.0000000000000000e+00  -1.9635022089113007e-05 -1.3243139333010122e-06 0.0000000000000000e+00  -3.9948719221865533e-05 -2.6846047726412057e-06 0.0000000000000000e+00  -6.1643271391766921e-05 -4.1165852177363407e-06 0.0000000000000000e+00  -8.5450490848134968e-05 -5.6535741135688275e-06 0.0000000000000000e+00  -1.1214439138732252e-04 -7.3241191886314203e-06 0.0000000000000000e+00  -1.4254963856080092e-04 -9.1478287950724843e-06 0.0000000000000000e+00  -1.7754325612637535e-04 -1.1128257754726033e-05 0.0000000000000000e+00  -2.1804569392105429e-04 -1.3241102700522146e-05 0.0000000000000000e+00  -2.6499557744795292e-04 -1.5415144325983853e-05 0.0000000000000000e+00  -3.1929998532908991e-04 -1.7502441014801551e-05 0.0000000000000000e+00  -3.8174865285237552e-04 -1.9233746873701825e-05 0.0000000000000000e+00  -4.5287572081157443e-04 -2.0156450079337018e-05 0.0000000000000000e+00  -5.3274684126417449e-04 -1.9558594125699171e-05 0.0000000000000000e+00  -6.2064723679768844e-04 -1.6398300946814948e-05 0.0000000000000000e+00  -7.1466827976168117e-04 -9.2851074295968855e-06 0.0000000000000000e+00  -8.1129203642065330e-04 3.4122583944582939e-06 0.0000000000000000e+00  0.0000000000000000e+00 0.0000000000000000e+00 0.0000000000000000e+00  -2.1128667169155183e-05 -1.4659414687951696e-06 0.0000000000000000e+00  -4.3021805684526162e-05 -2.9790726444913425e-06 0.0000000000000000e+00  -6.6470833224349576e-05 -4.5873197785757898e-06 0.0000000000000000e+00  -9.2309878137179197e-05 -6.3386196339385762e-06 0.0000000000000000e+00  -1.2143578845221798e-04 -8.2799716395223208e-06 0.0000000000000000e+00  -1.5482519566586999e-04 -1.0454904949652164e-05 0.0000000000000000e+00  -1.9354625970364737e-04 -1.2898085458248582e-05 0.0000000000000000e+00  -2.3876135414669671e-04 -1.5624836686586487e-05 0.0000000000000000e+00  -2.9171522745981499e-04 -1.8611712857160317e-05 0.0000000000000000e+00  -3.5370141445387719e-04 -2.1761614847633443e-05 0.0000000000000000e+00  -4.2599877892163804e-04 -2.4843136534476043e-05 0.0000000000000000e+00  -5.0977203084138860e-04 -2.7389752372742265e-05 0.0000000000000000e+00  -6.0593847849873921e-04 -2.8543980760310951e-05 0.0000000000000000e+00  -7.1502352471956366e-04 -2.6844005906034660e-05 0.0000000000000000e+00  -8.3706678386112024e-04 -1.9985785702965226e-05 0.0000000000000000e+00  -9.7171307915166984e-04 -4.6371848641619633e-06 0.0000000000000000e+00  0.0000000000000000e+00 0.0000000000000000e+00 0.0000000000000000e+00  -2.1852228860173136e-05 -1.5597306560748257e-06 0.0000000000000000e+00  -4.4533646770627637e-05 -3.1776898514820479e-06 0.0000000000000000e+00  -6.8903465605329940e-05 -4.9140880475757017e-06 0.0000000000000000e+00  -9.5878277760144020e-05 -6.8323516319749192e-06 0.0000000000000000e+00  -1.2646095092162758e-04 -9.0003089364167574e-06 0.0000000000000000e+00  -1.6176873398183117e-04 -1.1490487269203299e-05 0.0000000000000000e+00  -2.0305887382767465e-04 -1.4378503612577989e-05 0.0000000000000000e+00  -2.5174855690756394e-04 -1.7737444604874953e-05 0.0000000000000000e+00  -3.0942409587087085e-04 -2.1623940345235689e-05 0.0000000000000000e+00  -3.7783258494652555e-04 -2.6047331163142458e-05 0.0000000000000000e+00  -4.5884966644304506e-04 -3.0905298922908707e-05 0.0000000000000000e+00  -5.5442422483944359e-04 -3.5855904596827120e-05 0.0000000000000000e+00  -6.6652375816227767e-04 -4.0078511935627609e-05 0.0000000000000000e+00  -7.9715522313112785e-04 -4.1867894880545816e-05 0.0000000000000000e+00  -9.4862056348355057e-04 -3.8039518662783105e-05 0.0000000000000000e+00  -1.1242645108167310e-03 -2.3202754496749680e-05 0.0000000000000000e+00  0.0000000000000000e+00 0.0000000000000000e+00 0.0000000000000000e+00  -2.1745116199121186e-05 -1.5949064873960284e-06 0.0000000000000000e+00  -4.4355761714924227e-05 -3.2573887352264791e-06 0.0000000000000000e+00  -6.8729976845995246e-05 -5.0583091389401340e-06 0.0000000000000000e+00  -9.5837948762142916e-05 -7.0753070308441921e-06 0.0000000000000000e+00  -1.2676048124175363e-04 -9.3965561801769713e-06 0.0000000000000000e+00  -1.6272982664350779e-04 -1.2124807092893680e-05 0.0000000000000000e+00  -2.0517234833560241e-04 -1.5381447471894483e-05 0.0000000000000000e+00  -2.5575085547332148e-04 -1.9309567377338272e-05 0.0000000000000000e+00  -3.1640198515591958e-04 -2.4073130871338087e-05 0.0000000000000000e+00  -3.8936110364596455e-04 -2.9844730788266307e-05 0.0000000000000000e+00  -4.7716616546845643e-04 -3.6763461212611756e-05 0.0000000000000000e+00  -5.8264024272281498e-04 -4.4820071300462416e-05 0.0000000000000000e+00  -7.0888884426584112e-04 -5.3578453198674634e-05 0.0000000000000000e+00  -8.5944896346364585e-04 -6.1572198035196354e-05 0.0000000000000000e+00  -1.0389313613124518e-03 -6.5189083656705155e-05 0.0000000000000000e+00  -1.2548836001059088e-03 -5.6963847927262431e-05 0.0000000000000000e+00  0.0000000000000000e+00 0.0000000000000000e+00 0.0000000000000000e+00  -2.0775712533022975e-05 -1.5624750729307396e-06 0.0000000000000000e+00  -4.2417621930592303e-05 -3.1985228215327050e-06 0.0000000000000000e+00  -6.5826004435987645e-05 -4.9861146617173447e-06 0.0000000000000000e+00  -9.1986041546558182e-05 -7.0132442953486475e-06 0.0000000000000000e+00  -1.2201538380383216e-04 -9.3841807227423998e-06 0.0000000000000000e+00  -1.5721812079302200e-04 -1.2227404705991157e-05 0.0000000000000000e+00  -1.9914645926611706e-04 -1.5706090884168455e-05 0.0000000000000000e+00  -2.4966985770089175e-04 -2.0032158278060374e-05 0.0000000000000000e+00  -3.1104818869302341e-04 -2.5484660323604402e-05 0.0000000000000000e+00  -3.8600007020402760e-04 -3.2431260867849764e-05 0.0000000000000000e+00  -4.7775081123323135e-04 -4.1343412373595117e-05 0.0000000000000000e+00  -5.9004438494758224e-04 -5.2768904599372562e-05 0.0000000000000000e+00  -7.2714087837426572e-04 -6.7146263231396828e-05 0.0000000000000000e+00  -8.9398157158570202e-04 -8.4150399887506693e-05 0.0000000000000000e+00  -1.0970956463669109e-03 -1.0100104578354188e-04 0.0000000000000000e+00  -1.3469814541878947e-03 -1.0934019161120431e-04 0.0000000000000000e+00  0.0000000000000000e+00 0.0000000000000000e+00 0.0000000000000000e+00  -1.8947885160812621e-05 -1.4568237556138923e-06 0.0000000000000000e+00  -3.8720730234986623e-05 -2.9883718180754724e-06 0.0000000000000000e+00  -6.0177761965150470e-05 -4.6744282489339636e-06 0.0000000000000000e+00  -8.4271271977864350e-05 -6.6069793986005527e-06 0.0000000000000000e+00  -1.1210117595485900e-04 -8.8982311482393178e-06 0.0000000000000000e+00  -1.4498054471223025e-04 -1.1691452563425420e-05 0.0000000000000000e+00  -1.8451606702904209e-04 -1.5176577375817389e-05 0.0000000000000000e+00  -2.3270664345989437e-04 -1.9613811976218460e-05 0.0000000000000000e+00  -2.9206026671248816e-04 -2.5370865036222482e-05 0.0000000000000000e+00  -3.6572147269024985e-04 -3.2983219811919533e-05 0.0000000000000000e+00  -4.5758563648931919e-04 -4.3251005275667506e-05 0.0000000000000000e+00  -5.7235294243246934e-04 -5.7381226809057617e-05 0.0000000000000000e+00  -7.1547262933843638e-04 -7.7125625697442959e-05 0.0000000000000000e+00  -8.9311017001550950e-04 -1.0456280638078089e-04 0.0000000000000000e+00  -1.1133669972263043e-03 -1.4000932434438010e-04 0.0000000000000000e+00  -1.3910280448968782e-03 -1.7842196462851859e-04 0.0000000000000000e+00  0.0000000000000000e+00 0.0000000000000000e+00 0.0000000000000000e+00  -1.6306345819101307e-05 -1.2771363837492523e-06 0.0000000000000000e+00  -3.3350621507532712e-05 -2.6243035667228131e-06 0.0000000000000000e+00  -5.1903261037015294e-05 -4.1166203207130727e-06 0.0000000000000000e+00  -7.2828557231249669e-05 -5.8419316166168384e-06 0.0000000000000000e+00  -9.7142100511167910e-05 -7.9093005659984308e-06 0.0000000000000000e+00  -1.2608340362626672e-04 -1.0460698978999048e-05 0.0000000000000000e+00  -1.6121098387876485e-04 -1.3688197162607104e-05 0.0000000000000000e+00  -2.0452848224713745e-04 -1.7860866180116329e-05 0.0000000000000000e+00  -2.5864997038260664e-04 -2.3369838603038641e-05 0.0000000000000000e+00  -3.2700620786593813e-04 -3.0809563662607667e-05 0.0000000000000000e+00  -4.1407153940706802e-04 -4.1134724841070496e-05 0.0000000000000000e+00  -5.2553476593722600e-04 -5.5976912408230492e-05 0.0000000000000000e+00  -6.6822458340864261e-04 -7.8281120446540008e-05 0.0000000000000000e+00  -8.4947761815816676e-04 -1.1344928810948583e-04 0.0000000000000000e+00  -1.0763295087316297e-03 -1.7001856410333433e-04 0.0000000000000000e+00  -1.3722769986308726e-03 -2.3607164424070088e-04 0.0000000000000000e+00  0.0000000000000000e+00 0.0000000000000000e+00 0.0000000000000000e+00  -1.2939762274284522e-05 -1.0283107269951253e-06 0.0000000000000000e+00  -2.6484409206372044e-05 -2.1158684914362860e-06 0.0000000000000000e+00  -4.1267056566165878e-05 -3.3263672821946394e-06 0.0000000000000000e+00  -5.8005748621259457e-05 -4.7348913917741263e-06 0.0000000000000000e+00  -7.7557535339480390e-05 -6.4354143190328092e-06 0.0000000000000000e+00  -1.0099008723812115e-04 -8.5508968675341097e-06 0.0000000000000000e+00  -1.2968111318162638e-04 -1.1247553692364433e-05 0.0000000000000000e+00  -1.6546036691995205e-04 -1.4755940637069344e-05 0.0000000000000000e+00  -2.1081464738002709e-04 -1.9404272747228946e-05 0.0000000000000000e+00  -2.6918006246278445e-04 -2.5677430038971018e-05 0.0000000000000000e+00  -3.4533703648904381e-04 -3.4339916977211567e-05 0.0000000000000000e+00  -4.4586837560731368e-04 -4.6736752002204710e-05 0.0000000000000000e+00  -5.7944703151596927e-04 -6.5608305018094779e-05 0.0000000000000000e+00  -7.5614562501402551e-04 -9.7412757686237382e-05 0.0000000000000000e+00  -9.8306230995068820e-04 -1.5980003467497552e-04 0.0000000000000000e+00  -1.2356540155238046e-03 -3.2609073804977864e-04 0.0000000000000000e+00  0.0000000000000000e+00 0.0000000000000000e+00 0.0000000000000000e+00  -8.9804988156031013e-06 -7.2114279315522946e-07 0.0000000000000000e+00  -1.8391335757707133e-05 -1.4852661046315627e-06 0.0000000000000000e+00  -2.8683980319942434e-05 -2.3386038880185611e-06 0.0000000000000000e+00  -4.0375080036156094e-05 -3.3358426357347787e-06 0.0000000000000000e+00  -5.4089395589672480e-05 -4.5454902720063149e-06 0.0000000000000000e+00  -7.0618928345769094e-05 -6.0566612483975956e-06 0.0000000000000000e+00  -9.1009233043771857e-05 -7.9874443463200079e-06 0.0000000000000000e+00  -1.1669094728193842e-04 -1.0494051853980331e-05 0.0000000000000000e+00  -1.4968663803166863e-04 -1.3777274845573342e-05 0.0000000000000000e+00  -1.9294270473411588e-04 -1.8076759737427400e-05 0.0000000000000000e+00  -2.5086428702801410e-04 -2.3634461024335794e-05 0.0000000000000000e+00  -3.3015890585886193e-04 -3.0613620902502739e-05 0.0000000000000000e+00  -4.4107695554524177e-04 -3.9072440124634574e-05 0.0000000000000000e+00  -5.9890842713637769e-04 -4.9607258117351638e-05 0.0000000000000000e+00  -8.2453877082369067e-04 -6.6599322825818205e-05 0.0000000000000000e+00  -1.1399994765175351e-03 -1.0766999673956068e-04 0.0000000000000000e+00  0.0000000000000000e+00 0.0000000000000000e+00 0.0000000000000000e+00  -4.6000780807262083e-06 -3.7170196764590589e-07 0.0000000000000000e+00  -9.4241189245143622e-06 -7.6600231720486804e-07 0.0000000000000000e+00  -1.4707502922540213e-05 -1.2072079047736025e-06 0.0000000000000000e+00  -2.0721273778257494e-05 -1.7240946656028598e-06 0.0000000000000000e+00  -2.7796223000106495e-05 -2.3526326412103834e-06 0.0000000000000000e+00  -3.6357011824847611e-05 -3.1391404219011746e-06 0.0000000000000000e+00  -4.6973837705826919e-05 -4.1432536893959767e-06 0.0000000000000000e+00  -6.0444914004388586e-05 -5.4380339522275764e-06 0.0000000000000000e+00  -7.7933906824658524e-05 -7.0980246628400716e-06 0.0000000000000000e+00  -1.0120580535657119e-04 -9.1456897053382226e-06 0.0000000000000000e+00  -1.3303135516009836e-04 -1.1363704820766886e-05 0.0000000000000000e+00  -1.7782218868505804e-04 -1.2693743536510900e-05 0.0000000000000000e+00  -2.4225430555483617e-04 -9.4640734359932783e-06 0.0000000000000000e+00  -3.3391840527191010e-04 8.9240794788655611e-06 0.0000000000000000e+00  -4.5063793646373239e-04 6.4771695415037560e-05 0.0000000000000000e+00  -5.5552081707414401e-04 1.7172434127419336e-04 0.0000000000000000e+00  0.0000000000000000e+00 0.0000000000000000e+00 0.0000000000000000e+00  0.0000000000000000e+00 0.0000000000000000e+00 0.0000000000000000e+00  0.0000000000000000e+00 0.0000000000000000e+00 0.0000000000000000e+00  0.0000000000000000e+00 0.0000000000000000e+00 0.0000000000000000e+00  0.0000000000000000e+00 0.0000000000000000e+00 0.0000000000000000e+00  0.0000000000000000e+00 0.0000000000