<?xml version="1.0"?>
<VTKFile type="UnstructuredGrid"  version="0.1"  >
<UnstructuredGrid>
<Piece  NumberOfPoints="289" NumberOfCells="512">
<Points>
<DataArray  type="Float64"  NumberOfComponents="3"  format="ascii">0 0 0  0.0625 0 0  0.125 0 0  0.1875 0 0  0.25 0 0  0.3125 0 0  0.375 0 0  0.4375 0 0  0.5 0 0  0.5625 0 0  0.625 0 0  0.6875 0 0  0.75 0 0  0.8125 0 0  0.875 0 0  0.9375 0 0  1 0 0  0 0.0625 0  0.06247169876217037 0.06247854176019746 0  0.1249428371249225 0.06245670647622687 0  0.1874128647047182 0.06243414784812888 0  0.2498813346108894 0.06241060047017036 0  0.3123479810005378 0.06238593207182638 0  0.3748128343240139 0.06236020869782261 0  0.4372763960140132 0.0623337734563728 0  0.4997399061039229 0.06230733407889837 0  0.5622057598624005 0.06228204496019216 0  0.6246781760716312 0.06225955426795 0  0.6871643209262147 0.06224196727599039 0  0.7496763146521996 0.06223166463603753 0  0.8122349870132141 0.06223095787599568 0  0.8748766382051454 0.06224186258295213 0  0.9376604756608284 0.06226777294219656 0  1.000634742637119 0.06232849100801013 0  0 0.125 0  0.06244397063384502 0.1249574473669314 0  0.1248867850982316 0.1249141004294408 0  0.1873273068015226 0.1248692219245933 0  0.2497645966495882 0.1248222269097461 0  0.3121980640516031 0.1247727841681905 0  0.3746276941021974 0.1247209465810317 0  0.4370543944548683 0.1246673146073436 0  0.4994805271996225 0.1246132278351617 0  0.5619107300448728 0.124560961755908 0  0.6243532032719852 0.1245138757003055 0  0.6868217738069357 0.1244764090225283 0  0.7493392859374124 0.1244537585943889 0  0.8119432079313281 0.1244510191256401 0  0.8746945427400954 0.1244716240782266 0  0.9376909015998041 0.1245152182990174 0  1.001094443065588 0.1245737825209791 0  0 0.1875 0  0.06241746708143837 0.1874371417153398 0  0.124833102281136 0.1873729984287543 0  0.1872450956696197 0.1873063591321042 0  0.249651895838564 0.1872362161472303 0  0.3120524140254334 0.1871619076876175 0  0.3744463368320887 0.1870833100972159 0  0.4368346072833105 0.1870010927159836 0  0.4992201586266768 0.1869170391894269 0  0.5616090221948691 0.1868344179138825 0  0.6240119831308194 0.1867583410488395 0  0.6864470211962205 0.1866959690479306 0  0.7489428067099925 0.1866562638254665 0  0.8115433665659855 0.1866486892749892 0  0.8743133097283509 0.1866795433244876 0  0.9373414594668608 0.1867425410532777 0  1.000741239361351 0.1867938835741221 0  0 0.25 0  0.06239291745043019 0.2499181222037911 0  0.1247832189457092 0.2498343725818589 0  0.1871682997108242 0.249746955429158 0  0.2495458212847126 0.249654296109546 0  0.3119139351448793 0.2495552091199736 0  0.3742716374848067 0.2494491403191014 0  0.4366193253282765 0.2493365115190808 0  0.498959647404245 0.2492191928569476 0  0.561298769027743 0.2491011142660863 0  0.6236481871822913 0.2489889886274628 0  0.6860272078978024 0.2488930314655708 0  0.7484660548683119 0.2488273827222723 0  0.8110091609602521 0.2488095957805952 0  0.8737173117124557 0.2488579760634102 0  0.9366661285288376 0.2489848412042627 0  0.9999382829367832 0.2491844948281259 0  0 0.3125 0  0.06237114354025163 0.3124009804081472 0  0.1247387759919892 0.3122994000519307 0  0.1870993692659524 0.3121927560411548 0  0.2494496018882016 0.3120787372179825 0  0.3117865594136189 0.3119553916637081 0  0.3741080773691082 0.3118213921272531 0  0.4364133048789949 0.3116764477934114 0  0.4987035919449062 0.3115219217853877 0  0.5609838257842127 0.3113617203810901 0  0.6232643426807546 0.3112035093963885 0  0.6855634803070921 0.3110602584210413 0  0.7479106395945835 0.3109519628795918 0  0.8103493153144934 0.310907064452856 0  0.8729389900834773 0.310962496735745 0  0.9357547133393779 0.3111604848310168 0  0.9988855793427343 0.3115397410602829 0  0 0.375 0  0.06235304963883381 0.3748864069779806 0  0.124701611621848 0.374769479093632 0  0.1870411336644447 0.3746458963846885 0  0.249367136367447 0.3745124423271982 0  0.3116753424249865 0.3743661331850428 0  0.3739619468070589 0.3742044600658562 0  0.4362241140683382 0.3740258122892015 0  0.498460824362629 0.3738301813843686 0  0.560674229172294 0.3736202856654324 0  0.6228717040601182 0.3734032998875563 0  0.6850687599344686 0.3731934002996471 0  0.7472928304285734 0.3730152818396642 0  0.8095876287051876 0.3729085403750027 0  0.8720173450619542 0.3729321204541308 0  0.9346700105948672 0.3731666953042784 0  0.9976613419180808 0.3737109882708837 0  0 0.4375 0  0.06233958490855874 0.43737517372885 0  0.1246736886651509 0.4372461981723344 0  0.1869966991168226 0.4371088699745978 0  0.2493028721251574 0.4369589366506834 0  0.3115863399046288 0.4367921410693188 0  0.3738412411204045 0.436604373922269 0  0.4360620647574345 0.4363920144797077 0  0.4982443561210131 0.4361525913519984 0  0.560386015242372 0.4358859770863626 0  0.6224895226544686 0.4355964537802517 0  0.6845655299913411 0.4352961518176557 0  0.7466382822054679 0.435010527345812 0  0.8087531603973146 0.4347865412780819 0  0.8709861133563102 0.4347036189617436 0  0.9334540713801553 0.4348856195628738 0  0.9963259868081534 0.4355086297539531 0  0 0.5 0  0.06233167843344551 0.4998680883038881 0  0.1246569621868415 0.4997312468334992 0  0.1869692447545686 0.4995844006456746 0  0.2492615264152478 0.4994222154678492 0  0.311526255641229 0.4992390089674735 0  0.373755247642495 0.4990287363247731 0  0.4359397671638395 0.4987851233613581 0  0.4980709442343371 0.4985020844912312 0  0.5601408356298014 0.4981746790073853 0  0.6221446834587208 0.497801065556025 0  0.6840852779870532 0.4973862653714004 0  0.745980761425305 0.4969490871385888 0  0.8078774747801298 0.4965342258034243 0  0.8698689410739473 0.4962317803280146 0  0.9321199813782046 0.4962045943067027 0  0.9948923052939886 0.4967172493497031 0  0 0.5625 0  0.06233015082903704 0.5623659201884275 0  0.1246531941752777 0.5622262636231844 0  0.1869617243876763 0.5620752055711065 0  0.2492476544515439 0.5619064169202274 0  0.3115018572062315 0.5617128048204783 0  0.3737138066171227 0.5614862615568421 0  0.4358712770126052 0.5612174610723775 0  0.4979602540206791 0.5608957996332861 0  0.5599654126422116 0.5605096963029805 0  0.6218719201790713 0.5600477166071386 0  0.6836700660557703 0.5595014926837016 0  0.7453654376399914 0.5588724317605785 0  0.8069989009580739 0.5581860763932414 0  0.8686813294184952 0.5575206911301595 0  0.930644527347158 0.5570578374447003 0  0.9932975872820116 0.5571544981042738 0  0 0.625 0  0.06233561019218088 0.6248693024163561 0  0.1246637301729297 0.6247326281590777 0  0.1869764937565109 0.6245836548373174 0  0.2492650834056106 0.6244153151885535 0  0.3115191645921585 0.6242193559185487 0  0.3737262117425804 0.6239858139126319 0  0.4358707181448832 0.6237023887305273 0  0.4979333583687002 0.6233537131289257 0  0.5598903779609147 0.6229205907309661 0  0.6217139935596928 0.6223794533194063 0  0.6833757459182118 0.6217027752907113 0  0.7448571625396273 0.6208624509826589 0  0.8061764312406346 0.6198413718706398 0  0.8674453811889721 0.6186659398192885 0  0.9289713597588805 0.6174844868537701 0  0.9913996166987357 0.6167135458548565 0  0 0.6875 0  0.06234834436333252 0.6873786202935138 0  0.1246892622460383 0.6872512201491887 0  0.1870148997745109 0.6871113614456779 0  0.2493162565152259 0.6869516759465858 0  0.3115824482275303 0.6867632703607595 0  0.3737997388796571 0.6865349536955453 0  0.435950233976041 0.6862521920689251 0  0.4980101308409375 0.6858956625485694 0  0.5599475187786565 0.6854392378950246 0  0.6217201194654954 0.6848472138795879 0  0.6832746061998312 0.6840707036620705 0  0.7445525945160144 0.6830438268177814 0  0.8055169556204099 0.6816833882346538 0  0.8662298254127156 0.6799077737229781 0  0.927033478736216 0.6777320494209818 0  0.9888564844985862 0.6755448222329237 0  0 0.75 0  0.06236822555943185 0.7498939051987296 0  0.1247296130791439 0.7497821841207128 0  0.1870768896825287 0.74965876655238 0  0.2494015718326194 0.7495165727155615 0  0.3116931424063778 0.7493468357208383 0  0.3739378976691012 0.7491381761565141 0  0.4361172484561383 0.7488752726723172 0  0.4982051462485201 0.7485368834488925 0  0.5601641601399746 0.7480928166388972 0  0.6219396579662839 0.7474991629886553 0  0.6834520090617501 0.7466905757380861 0  0.7445894457012705 0.7455674594258861 0  0.805214954155307 0.743974918722678 0  0.8652368986152692 0.7416740086547728 0  0.9248939395900512 0.7383544560036913 0  0.9853164561332062 0.7341985946261044 0  0 0.8125 0  0.06239464619547609 0.8124147556348505 0  0.1247835843240149 0.8123247492998317 0  0.1871607189967918 0.8122248079955595 0  0.2495188485008139 0.8121088110453701 0  0.3118488842694707 0.8119690343410838 0  0.3741387088739123 0.811795227927953 0  0.4363713936446145 0.8115732485096442 0  0.498522277117611 0.8112829562252623 0  0.5605539850224522 0.8108948788096489 0  0.6224076887544672 0.8103647404139027 0  0.6839875688729312 0.8096240614405357 0  0.7451338949635564 0.8085628104946403 0  0.8055822318482543 0.80699391488482 0  0.8649354268381281 0.8045714238635918 0  0.9228675399099596 0.8005810399507327 0  0.9812751850674842 0.7933342620390886 0  0 0.875 0  0.06242650420406837 0.8749403069034563 0  0.1248489133165568 0.8748771537277024 0  0.1872628457175206 0.8748067635865061 0  0.2496630858229829 0.8747246227690574 0  0.3120429844839352 0.8746249613846637 0  0.374393561184299 0.874500010951427 0  0.4367020574537662 0.8743388880092821 0  0.4989494561955775 0.8741258616209091 0  0.5611059668065749 0.8738376103410361 0  0.6231222970703313 0.8734388205855765 0  0.6849117230494675 0.8728750221097452 0  0.7463110664074397 0.8720604582709161 0  0.8069915277821643 0.8708546637108865 0  0.8662486895003174 0.8690017396052145 0  0.922512769678279 0.8659121604293086 0  0.9723455583737016 0.8597386912328389 0  0 0.9375 0  0.0624622504934126 0.9374692639512656 0  0.1249223701459122 0.9374367071203996 0  0.1873780794049526 0.9374003364081992 0  0.2498266596164979 0.9373577559947851 0  0.3122646373632635 0.9373058806783003 0  0.3746873107642229 0.9372405229056738 0  0.437087982307
[...]
<PointData  Vectors="f_54"> 
<DataArray  type="Float64"  Name="f_54"  NumberOfComponents="3" format="ascii">0.0000000000000000e+00 0.0000000000000000e+00 0.0000000000000000e+00  0.0000000000000000e+00 0.0000000000000000e+00 0.0000000000000000e+00  0.0000000000000000e+00 0.0000000000000000e+00 0.0000000000000000e+00  0.0000000000000000e+00 0.0000000000000000e+00 0.0000000000000000e+00  0.0000000000000000e+00 0.0000000000000000e+00 0.0000000000000000e+00  0.0000000000000000e+00 0.0000000000000000e+00 0.0000000000000000e+00  0.0000000000000000e+00 0.0000000000000000e+00 0.0000000000000000e+00  0.0000000000000000e+00 0.0000000000000000e+00 0.0000000000000000e+00  0.0000000000000000e+00 0.0000000000000000e+00 0.0000000000000000e+00  0.0000000000000000e+00 0.0000000000000000e+00 0.0000000000000000e+00  0.0000000000000000e+00 0.0000000000000000e+00 0.0000000000000000e+00  0.0000000000000000e+00 0.0000000000000000e+00 0.0000000000000000e+00  0.0000000000000000e+00 0.0000000000000000e+00 0.0000000000000000e+00  0.0000000000000000e+00 0.0000000000000000e+00 0.0000000000000000e+00  0.0000000000000000e+00 0.0000000000000000e+00 0.0000000000000000e+00  0.0000000000000000e+00 0.0000000000000000e+00 0.0000000000000000e+00  0.0000000000000000e+00 0.0000000000000000e+00 0.0000000000000000e+00  0.0000000000000000e+00 0.0000000000000000e+00 0.0000000000000000e+00  3.0865534563505428e-06 1.1274086477617183e-07 0.0000000000000000e+00  6.2354462885029341e-06 2.2746191547395626e-07 0.0000000000000000e+00  9.5065668895730561e-06 3.4598759339272338e-07 0.0000000000000000e+00  1.2950173195780928e-05 4.6964992869745702e-07 0.0000000000000000e+00  1.6600093785994497e-05 5.9895294000992116e-07 0.0000000000000000e+00  2.0464307625669068e-05 7.3312862872436490e-07 0.0000000000000000e+00  2.4511773588626435e-05 8.6955717476224789e-07 0.0000000000000000e+00  2.8654052305220516e-05 1.0030396616949344e-06 0.0000000000000000e+00  3.2719517019042992e-05 1.1249378756206311e-06 0.0000000000000000e+00  3.6416001716555465e-05 1.2222245948416475e-06 0.0000000000000000e+00  3.9272253711568342e-05 1.2764812983264430e-06 0.0000000000000000e+00  4.0532410653817203e-05 1.2627164623743344e-06 0.0000000000000000e+00  3.8927748913757359e-05 1.1471912981678199e-06 0.0000000000000000e+00  3.2085466419091794e-05 8.8106286048903699e-07 0.0000000000000000e+00  1.4754957594625631e-05 3.7840458516380506e-07 0.0000000000000000e+00  -2.7113436700925404e-05 -5.6306583446142681e-07 0.0000000000000000e+00  0.0000000000000000e+00 0.0000000000000000e+00 0.0000000000000000e+00  6.1058394209955698e-06 2.2332152659247614e-07 0.0000000000000000e+00  1.2340616945601889e-05 4.5082596835799107e-07 0.0000000000000000e+00  1.8829007385640184e-05 6.8641635065197356e-07 0.0000000000000000e+00  2.5678119469429253e-05 9.3308646586277139e-07 0.0000000000000000e+00  3.2964898693531781e-05 1.1922863681524707e-06 0.0000000000000000e+00  4.0718494265180730e-05 1.4630652979148246e-06 0.0000000000000000e+00  4.8895496164594286e-05 1.7409287715961822e-06 0.0000000000000000e+00  5.7345534269970957e-05 2.0163750195961507e-06 0.0000000000000000e+00  6.5763969513973241e-05 2.2731335249180642e-06 0.0000000000000000e+00  7.3626691691363897e-05 2.4862184096560768e-06 0.0000000000000000e+00  8.0097812479516814e-05 2.6200069650273398e-06 0.0000000000000000e+00  8.3890784646670417e-05 2.6265690624096872e-06 0.0000000000000000e+00  8.3040874019975187e-05 2.4442219195517024e-06 0.0000000000000000e+00  7.4509173020978391e-05 1.9956202558091599e-06 0.0000000000000000e+00  5.3545058768419089e-05 1.1845936087851211e-06 0.0000000000000000e+00  1.3273981708241774e-05 -1.0062840990943197e-07 0.0000000000000000e+00  0.0000000000000000e+00 0.0000000000000000e+00 0.0000000000000000e+00  8.9893706638304157e-06 3.2946959370506155e-07 0.0000000000000000e+00  1.8182192533450676e-05 6.6573907985130604e-07 0.0000000000000000e+00  2.7777042200954904e-05 1.0152661630762315e-06 0.0000000000000000e+00  3.7950213878530250e-05 1.3833323444888712e-06 0.0000000000000000e+00  4.8839181226737004e-05 1.7731845790425982e-06 0.0000000000000000e+00  6.0518905122269200e-05 2.1848313295282020e-06 0.0000000000000000e+00  7.2968074797166870e-05 2.6133756779307698e-06 0.0000000000000000e+00  8.6022045351169987e-05 3.0467973072982859e-06 0.0000000000000000e+00  9.9308984119112474e-05 3.4631775717524217e-06 0.0000000000000000e+00  1.1216562249421582e-04 3.8275310095346077e-06 0.0000000000000000e+00  1.2352912918612159e-04 4.0886862384802759e-06 0.0000000000000000e+00  1.3180268509070661e-04 4.1770256261151723e-06 0.0000000000000000e+00  1.3469843580538754e-04 4.0042315191162394e-06 0.0000000000000000e+00  1.2909040098295515e-04 3.4663565616573063e-06 0.0000000000000000e+00  1.1102322201517146e-04 2.4519531961174738e-06 0.0000000000000000e+00  7.6374629272471422e-05 8.6080310720882107e-07 0.0000000000000000e+00  0.0000000000000000e+00 0.0000000000000000e+00 0.0000000000000000e+00  1.1661076451482112e-05 4.2850960904227708e-07 0.0000000000000000e+00  2.3610108067732950e-05 8.6696708476558506e-07 0.0000000000000000e+00  3.6131226409052371e-05 1.3250063172507285e-06 0.0000000000000000e+00  4.9486107229174874e-05 1.8110425414428271e-06 0.0000000000000000e+00  6.3896096021162931e-05 2.3313113606902969e-06 0.0000000000000000e+00  7.9515402572253175e-05 2.8884371793407699e-06 0.0000000000000000e+00  9.6391632691061521e-05 3.4793336763968320e-06 0.0000000000000000e+00  1.1440958303503657e-04 4.0922406017275028e-06 0.0000000000000000e+00  1.3321434230152170e-04 4.7027717132574568e-06 0.0000000000000000e+00  1.5211094318996196e-04 5.2690663369350540e-06 0.0000000000000000e+00  1.6994124501785380e-04 5.7266123121686452e-06 0.0000000000000000e+00  1.8494670542204067e-04 5.9841399524225611e-06 0.0000000000000000e+00  1.9464333059561107e-04 5.9231082211937666e-06 0.0000000000000000e+00  1.9577380883022331e-04 5.4040829817332329e-06 0.0000000000000000e+00  1.8448242462678043e-04 4.2815009725980596e-06 0.0000000000000000e+00  1.5698988016529455e-04 2.4165173387933328e-06 0.0000000000000000e+00  0.0000000000000000e+00 0.0000000000000000e+00 0.0000000000000000e+00  1.4035393402218173e-05 5.1725230437683204e-07 0.0000000000000000e+00  2.8453087613376816e-05 1.0481376540521126e-06 0.0000000000000000e+00  4.3634603623903224e-05 1.6061173769661767e-06 0.0000000000000000e+00  5.9944428026936981e-05 2.2036841906621242e-06 0.0000000000000000e+00  7.7714069816309507e-05 2.8514736720858205e-06 0.0000000000000000e+00  9.7215872115561988e-05 3.5568026388568124e-06 0.0000000000000000e+00  1.1862191178237038e-04 4.3213338383982348e-06 0.0000000000000000e+00  1.4194258551046619e-04 5.1374945617373452e-06 0.0000000000000000e+00  1.6693927460382008e-04 5.9832550015096670e-06 0.0000000000000000e+00  1.9300671468968410e-04 6.8150224910248243e-06 0.0000000000000000e+00  2.1902496781333561e-04 7.5589718096972543e-06 0.0000000000000000e+00  2.4319075681460855e-04 8.1024971971124756e-06 0.0000000000000000e+00  2.6285699686946816e-04 8.2900532712731216e-06 0.0000000000000000e+00  2.7444157609762631e-04 7.9313633319648180e-06 0.0000000000000000e+00  2.7351183067093790e-04 6.8330423208272681e-06 0.0000000000000000e+00  2.5519100937901893e-04 4.8627484612567750e-06 0.0000000000000000e+00  0.0000000000000000e+00 0.0000000000000000e+00 0.0000000000000000e+00  1.6017574516337603e-05 5.9199465917448975e-07 0.0000000000000000e+00  3.2518756793583932e-05 1.2017099174108427e-06 0.0000000000000000e+00  4.9991572518870246e-05 1.8469625263845024e-06 0.0000000000000000e+00  6.8918690133816556e-05 2.5451878688869107e-06 0.0000000000000000e+00  8.9767249837473636e-05 3.3128524952231917e-06 0.0000000000000000e+00  1.1296791072509427e-04 4.1642604532523130e-06 0.0000000000000000e+00  1.3887746104037903e-04 5.1093518998794479e-06 0.0000000000000000e+00  1.6771771641422521e-04 6.1498955694037591e-06 0.0000000000000000e+00  1.9948195381797029e-04 7.2732406182038942e-06 0.0000000000000000e+00  2.3379973968630147e-04 8.4426341349194558e-06 0.0000000000000000e+00  2.6975352111737746e-04 9.5833735024061153e-06 0.0000000000000000e+00  3.0564866050903077e-04 1.0565545162275465e-05 0.0000000000000000e+00  3.3875610062004084e-04 1.1188237846263870e-05 0.0000000000000000e+00  3.6507433513020701e-04 1.1178557903571161e-05 0.0000000000000000e+00  3.7918507947614554e-04 1.0231039016785263e-05 0.0000000000000000e+00  3.7427391225127062e-04 8.1213292834534372e-06 0.0000000000000000e+00  0.0000000000000000e+00 0.0000000000000000e+00 0.0000000000000000e+00  1.7506697659281838e-05 6.4866034793896840e-07 0.0000000000000000e+00  3.5599364013534961e-05 1.3192380616509418e-06 0.0000000000000000e+00  5.4875664897931369e-05 2.0341299443394670e-06 0.0000000000000000e+00  7.5945897162179067e-05 2.8162708463197532e-06 0.0000000000000000e+00  9.9432811659805901e-05 3.6891084974658802e-06 0.0000000000000000e+00  1.2596143573878984e-04 4.6760722963571670e-06 0.0000000000000000e+00  1.5613251724076125e-04 5.7990945182593724e-06 0.0000000000000000e+00  1.9047028945350688e-04 7.0753989793265539e-06 0.0000000000000000e+00  2.2933157453608872e-04 8.5112094148302951e-06 0.0000000000000000e+00  2.7275946236573399e-04 1.0090224859138230e-05 0.0000000000000000e+00  3.2026277266249370e-04 1.1753890100684779e-05 0.0000000000000000e+00  3.7050609945076191e-04 1.3370661180731624e-05 0.0000000000000000e+00  4.2091042419898934e-04 1.4695427096103896e-05 0.0000000000000000e+00  4.6719499768297680e-04 1.5333568818642027e-05 0.0000000000000000e+00  5.0292330339574056e-04 1.4752995006108594e-05 0.0000000000000000e+00  5.1908707374914698e-04 1.2427268724811283e-05 0.0000000000000000e+00  0.0000000000000000e+00 0.0000000000000000e+00 0.0000000000000000e+00  1.8401629547894872e-05 6.8309614684355341e-07 0.0000000000000000e+00  3.7483731354475556e-05 1.3919718056433208e-06 0.0000000000000000e+00  5.7947434735334543e-05 2.1533428769250683e-06 0.0000000000000000e+00  8.0529938371544328e-05 2.9956298265838790e-06 0.0000000000000000e+00  1.0601850391791575e-04 3.9497341901315478e-06 0.0000000000000000e+00  1.3525722449406102e-04 5.0495980490375023e-06 0.0000000000000000e+00  1.6914030551864833e-04 6.3322112246423442e-06 0.0000000000000000e+00  2.0858127078810982e-04 7.8363104641355309e-06 0.0000000000000000e+00  2.5444101050393274e-04 9.5981521741769649e-06 0.0000000000000000e+00  3.0738874173754516e-04 1.1641080915820399e-05 0.0000000000000000e+00  3.6765994210826011e-04 1.3952765366098618e-05 0.0000000000000000e+00  4.3466884563186106e-04 1.6440126794218678e-05 0.0000000000000000e+00  5.0644162241712592e-04 1.8850091672471024e-05 0.0000000000000000e+00  5.7887817727525959e-04 2.0655088040754789e-05 0.0000000000000000e+00  6.4492734373547942e-04 2.0949085336088462e-05 0.0000000000000000e+00  6.9376320847680604e-04 1.8502734297504454e-05 0.0000000000000000e+00  0.0000000000000000e+00 0.0000000000000000e+00 0.0000000000000000e+00  1.8609874067785219e-05 6.9151437113520774e-07 0.0000000000000000e+00  3.7975437736777545e-05 1.4117859632370377e-06 0.0000000000000000e+00  5.8882844357615045e-05 2.1909620299981255e-06 0.0000000000000000e+00  8.2181089143211548e-05 3.0621240338356574e-06 0.0000000000000000e+00  1.0881353828641891e-04 4.0629924693186881e-06 0.0000000000000000e+00  1.3984757424643154e-04 5.2378909473726629e-06 0.0000000000000000e+00  1.7649778644593652e-04 6.6399566235333367e-06 0.0000000000000000e+00  2.2013292604964720e-04 8.3332986530798511e-06 0.0000000000000000e+00  2.7224775873009230e-04 1.0393991394390527e-05 0.0000000000000000e+00  3.3436611983026317e-04 1.2906677137854187e-05 0.0000000000000000e+00  4.0781965803374546e-04 1.5948555376044887e-05 0.0000000000000000e+00  4.9332071500783647e-04 1.9542005962853367e-05 0.0000000000000000e+00  5.9023321698232990e-04 2.3539012766893004e-05 0.0000000000000000e+00  6.9548832353642320e-04 2.7383463476389658e-05 0.0000000000000000e+00  8.0227606553850506e-04 2.9729602481164672e-05 0.0000000000000000e+00  8.9899789693089209e-04 2.8082153636562270e-05 0.0000000000000000e+00  0.0000000000000000e+00 0.0000000000000000e+00 0.0000000000000000e+00  1.8058776754000163e-05 6.7103457976033021e-07 0.0000000000000000e+00  3.6916322348772089e-05 1.3723509754290386e-06 0.0000000000000000e+00  5.7411189675000569e-05 2.1359695527495175e-06 0.0000000000000000e+00  8.0471290399510654e-05 2.9978704263765822e-06 0.0000000000000000e+00  1.0716438862119281e-04 4.0005360376184063e-06 0.0000000000000000e+00  1.3875469951155054e-04 5.1963024188942853e-06 0.0000000000000000e+00  1.7676495372095081e-04 6.6520123922804154e-06 0.0000000000000000e+00  2.2303861868958394e-04 8.4556281693454039e-06 0.0000000000000000e+00  2.7978710769944049e-04 1.0725425535774481e-05 0.0000000000000000e+00  3.4958738574383303e-04 1.3621348629369028e-05 0.0000000000000000e+00  4.3526004158200805e-04 1.7353531011589800e-05 0.0000000000000000e+00  5.3950062941368810e-04 2.2168006338464057e-05 0.0000000000000000e+00  6.6406403400077790e-04 2.8248450115547734e-05 0.0000000000000000e+00  8.0827258270061721e-04 3.5381950468658171e-05 0.0000000000000000e+00  9.6684200255344062e-04 4.2125810823161156e-05 0.0000000000000000e+00  1.1276596370304302e-03 4.4309093758185622e-05 0.0000000000000000e+00  0.0000000000000000e+00 0.0000000000000000e+00 0.0000000000000000e+00  1.6707978029456963e-05 6.2023667100722534e-07 0.0000000000000000e+00  3.4213165742637408e-05 1.2703584074050742e-06 0.0000000000000000e+00  5.3359605748274147e-05 1.9821347122641178e-06 0.0000000000000000e+00  7.5102010099512427e-05 2.7918350598162716e-06 0.0000000000000000e+00  1.0057338591271179e-04 3.7432423024900530e-06 0.0000000000000000e+00  1.3116852127100255e-04 4.8918582755418792e-06 0.0000000000000000e+00  1.6864900180439847e-04 6.3112622932936819e-06 0.0000000000000000e+00  2.1527369313995872e-04 8.1033846835180502e-06 0.0000000000000000e+00  2.7395205979191978e-04 1.0415935046005943e-05 0.0000000000000000e+00  3.4839964870597012e-04 1.3472565006245202e-05 0.0000000000000000e+00  4.4323228100023865e-04 1.7623494433191296e-05 0.0000000000000000e+00  5.6384463258409175e-04 2.3419304231563689e-05 0.0000000000000000e+00  7.1574972858151262e-04 3.1669032403790945e-05 0.0000000000000000e+00  9.0282158475785558e-04 4.3264966166075284e-05 0.0000000000000000e+00  1.1239761705771094e-03 5.8023757819430807e-05 0.0000000000000000e+00  1.3700161535879977e-03 7.2344501406904614e-05 0.0000000000000000e+00  0.0000000000000000e+00 0.0000000000000000e+00 0.0000000000000000e+00  1.4561378916070843e-05 5.3960776377596708e-07 0.0000000000000000e+00  2.9863980673808258e-05 1.1065346914756290e-06 0.0000000000000000e+00  4.6698642499631900e-05 1.7298761279042194e-06 0.0000000000000000e+00  6.5977330021976729e-05 2.4431025616744612e-06 0.0000000000000000e+00  8.8811683192943205e-05 3.2869657419439138e-06 0.0000000000000000e+00  1.1661673512744333e-04 4.3135495139334665e-06 0.0000000000000000e+00  1.5125314223648589e-04 5.5924705386793542e-06 0.0000000000000000e+00  1.9522518235483939e-04 7.2213495347503282e-06 0.0000000000000000e+00  2.5195445753623934e-04 9.3453669192041615e-06 0.0000000000000000e+00  3.2614449009087869e-04 1.2197163041713321e-05 0.0000000000000000e+00  4.2422198266478951e-04 1.6183045149387193e-05 0.0000000000000000e+00  5.5474298303797751e-04 2.2071061714469038e-05 0.0000000000000000e+00  7.2838737121684431e-04 3.1376546533865953e-05 0.0000000000000000e+00  9.5653692215875877e-04 4.6976896581245233e-05 0.0000000000000000e+00  1.2462922564825773e-03 7.2840837457039127e-05 0.0000000000000000e+00  1.5943770272377883e-03 1.0004406855932583e-04 0.0000000000000000e+00  0.0000000000000000e+00 0.0000000000000000e+00 0.0000000000000000e+00  1.1676360859055626e-05 4.3176746266201058e-07 0.0000000000000000e+00  2.3979045147424612e-05 8.8616577491142336e-07 0.0000000000000000e+00  3.7580771842039517e-05 1.3872658584266169e-06 0.0000000000000000e+00  5.3269986416306961e-05 1.9627521028641220e-06 0.0000000000000000e+00  7.2029504652895235e-05 2.6461575560725343e-06 0.0000000000000000e+00  9.5145783460446473e-05 3.4797007547938523e-06 0.0000000000000000e+00  1.2436850649588318e-04 4.5180917838802878e-06 0.0000000000000000e+00  1.6215097179833428e-04 5.8341166448538088e-06 0.0000000000000000e+00  2.1201841963803338e-04 7.5283819877318998e-06 0.0000000000000000e+00  2.7913415511463208e-04 9.7511866334000528e-06 0.0000000000000000e+00  3.7115422892871014e-04 1.2763682896736334e-05 0.0000000000000000e+00  4.9944136484507515e-04 1.7128717872962283e-05 0.0000000000000000e+00  6.8050330476931943e-04 2.4320758687174507e-05 0.0000000000000000e+00  9.3664952022946152e-04 3.8659548264699655e-05 0.0000000000000000e+00  1.2915462625113716e-03 7.3675264005444759e-05 0.0000000000000000e+00  1.7361974683921028e-03 1.8144906618609648e-04 0.0000000000000000e+00  0.0000000000000000e+00 0.0000000000000000e+00 0.0000000000000000e+00  8.1678176101664260e-06 3.0140390832865273e-07 0.0000000000000000e+00  1.6791163884407336e-05 6.1895939829057488e-07 0.0000000000000000e+00  2.6361912856097808e-05 9.6978989523070223e-07 0.0000000000000000e+00  3.7463845804277755e-05 1.3734748586493792e-06 0.0000000000000000e+00  5.0837371465181959e-05 1.8533532008040157e-06 0.0000000000000000e+00  6.7472918481428074e-05 2.4377291518807219e-06 0.0000000000000000e+00  8.8753807977810263e-05 3.1603720692693671e-06 0.0000000000000000e+00  1.1668419239480213e-04 4.0585892075315385e-06 0.0000000000000000e+00  1.5426490925652829e-04 5.1645177743151502e-06 0.0000000000000000e+00  2.0613041237051936e-04 6.4796077650112586e-06 0.0000000000000000e+00  2.7965189499766388e-04 7.9124385985634178e-06 0.0000000000000000e+00  3.8687381316301948e-04 9.1544076267558010e-06 0.0000000000000000e+00  5.4790703055558880e-04 9.5278733893576120e-06 0.0000000000000000e+00  7.9663905810060454e-04 8.2283152859922956e-06 0.0000000000000000e+00  1.1887046409604690e-03 6.8337415784146346e-06 0.0000000000000000e+00  1.8040716004410751e-03 1.9768436302112363e-05 0.0000000000000000e+00  0.0000000000000000e+00 0.0000000000000000e+00 0.0000000000000000e+00  4.2049609789615417e-06 1.5493659527516931e-07 0.0000000000000000e+00  8.6502856316463599e-06 3.1827982196299324e-07 0.0000000000000000e+00  1.3596449263904075e-05 4.9891352553601774e-07 0.0000000000000000e+00  1.9355170441857619e-05 7.0692584417043627e-07 0.0000000000000000e+00  2.6326358523943760e-05 9.5412461239080006e-07 0.0000000000000000e+00  3.5052765825965268e-05 1.2541909097497963e-06 0.0000000000000000e+00  4.6306148006352420e-05 1.6215607545931033e-06 0.0000000000000000e+00  6.1229812515902493e-05 2.0663419234552816e-06 0.0000000000000000e+00  8.1584130603869743e-05 2.5773542500573767e-06 0.0000000000000000e+00  1.1018381280694913e-04 3.0697217871994555e-06 0.0000000000000000e+00  1.5169316925203009e-04 3.2254118531877988e-06 0.0000000000000000e+00  2.1405466622270101e-04 2.0070276133881555e-06 0.0000000000000000e+00  3.1077898311028345e-04 -3.8118384101800761e-06 0.0000000000000000e+00  4.6287283922956764e-04 -2.3802481673631174e-05 0.0000000000000000e+00  6.9086325496073232e-04 -8.2723528200935600e-05 0.0000000000000000e+00  9.6562270607350486e-04 -2.1904280632861894e-04 0.0000000000000000e+00  0.0000000000000000e+00 0.0000000000000000e+00 0.0000000000000000e+00  0.0000000000000000e+00 0.0000000000000000e+00 0.0000000000000000e+00  0.0000000000000000e+00 0.0000000000000000e+00 0.0000000000000000e+00  0.0000000000000000e+00 0.0000000000000000e+00 0.0000000000000000e+00  0.0000000000000000e+00 0.0000000000000000e+00 0.0000000000000000e+00  0.0000000000000000e+00 0.0000000000000000e+00 0.0000000000000000e+00  0.0000000000000000e+00 0.0000000000000000e+00 0.0000000000000000e+00  0.0000000000000000e+00 0.0000000000000000e+00 0.0000000000000000e+00  0.0000000000000000e+00 0.0000000000000000e+00 0.0000000000000000e+00  0.0000000000000000e+00 0.0000000000000000e+00 0.0000000000000000e+00  0.0000000000000000e+00 0.0000000000000000e+00 0.0000000000000000e+00  0.0000000000000000e+00 0.0000000000000000e+00 0.0000000000000000e+00  0.000