<?xml version="1.0"?>
<VTKFile type="UnstructuredGrid"  version="0.1"  >
<UnstructuredGrid>
<Piece  NumberOfPoints="289" NumberOfCells="512">
<Points>
<DataArray  type="Float64"  NumberOfComponents="3"  format="ascii">0 0 0  0.0625 0 0  0.125 0 0  0.1875 0 0  0.25 0 0  0.3125 0 0  0.375 0 0  0.4375 0 0  0.5 0 0  0.5625 0 0  0.625 0 0  0.6875 0 0  0.75 0 0  0.8125 0 0  0.875 0 0  0.9375 0 0  1 0 0  0 0.0625 0  0.06257694762146744 0.06249822031044253 0  0.1251563764181141 0.06249638379892192 0  0.1877408051144893 0.06249443311475545 0  0.2503328189904486 0.0624923102442927 0  0.3129350948574311 0.0624899567654135 0  0.3755504185529405 0.06248731487968838 0  0.4381817003274906 0.06248432954501276 0  0.5008320097170781 0.06248095191845618 0  0.5635046931778924 0.06247714369147059 0  0.6262037465683685 0.06247287949914562 0  0.6889349115290686 0.06246813592354231 0  0.7517088296272286 0.06246282353798183 0  0.8145503051158424 0.06245649328615589 0  0.8775269698189193 0.06244713182660896 0  0.9408448551951711 0.06242609782623084 0  1.005200754077242 0.06235538405556439 0  0 0.125 0  0.06265150512373967 0.1249964945169194 0  0.1253079504128625 0.1249928754326735 0  0.1879743559729717 0.1249890278325413 0  0.250655884702434 0.1249848349182474 0  0.313357894789687 0.1249801781824414 0  0.3760859713639014 0.1249749391217431 0  0.4388459381968826 0.1249690032823666 0  0.501643867627261 0.1249622675912552 0  0.5644861492800285 0.1249546519457022 0  0.6273797761651696 0.1249461157929057 0  0.6903332222564281 0.1249366806670133 0  0.7533587232698901 0.124926467465541 0  0.8164774816395443 0.1249158164554818 0  0.8797294285082354 0.1249059084447001 0  0.943181612795801 0.1249022082875562 0  1.006871003604823 0.1249330824465861 0  0 0.1875 0  0.06272121215802404 0.1874948794559273 0  0.1254497613512099 0.1874895892719686 0  0.188193115762185 0.1874839572622228 0  0.2509589810798311 0.1874778071344182 0  0.3137553877445403 0.1874709579221842 0  0.3765907377934238 0.1874632255509159 0  0.4394737967160043 0.1874544278309677 0  0.5024136195358471 0.1874443947455138 0  0.565419412097818 0.1874329867315032 0  0.6285003510334346 0.1874201249319114 0  0.6916654060195023 0.1874058396827704 0  0.7549231394971857 0.1873903478371798 0  0.8182809492448857 0.1873741727922522 0  0.881741096079483 0.1873582690635214 0  0.9452840472372758 0.1873435633574795 0  1.008814503153344 0.1873253076667211 0  0 0.25 0  0.06278367166232783 0.2499934311861963 0  0.1255769658500487 0.2499866385958681 0  0.1883897006789956 0.249979394098668 0  0.2512320556198632 0.2499714619132671 0  0.314114709858085 0.2499625963412818 0  0.3770489208761772 0.2499525418456534 0  0.4400465090005385 0.2499410370943637 0  0.5031196992439222 0.2499278255280174 0  0.5662807484618794 0.2499126765054794 0  0.6295412416747768 0.2498954234196026 0  0.6929108421693879 0.2498760286255101 0  0.7563950361316741 0.2498546891296272 0  0.8199908222913251 0.2498319977161658 0  0.8836780342843623 0.2498091578265623 0  0.9474020758576633 0.2497882168544214 0  1.011044341322989 0.2497726664679648 0  0 0.3125 0  0.06283659921398395 0.3124922038177184 0  0.1256849318197477 0.3124841333860544 0  0.1885570080290903 0.3124755077012439 0  0.2514653617786415 0.3124660331586827 0  0.31442326699752 0.3124553984789651 0  0.37744488436285 0.3124432716107502 0  0.4405452891798105 0.3124293002020641 0  0.503740301629873 0.3124131183558861 0  0.5670459924583038 0.3123943642977137 0  0.6304776568321271 0.3123727167818405 0  0.6940479131074315 0.3123479632676625 0  0.7577633573799749 0.312320120988802 0  0.8216188693484008 0.3122896441897314 0  0.8855883442739853 0.3122577715806716 0  0.9496110084566604 0.3122271242789975 0  1.013575696201612 0.3122028602893178 0  0 0.375 0  0.06287788626419737 0.3749912477452413 0  0.1257693612330552 0.3749821768169638 0  0.1886883891722677 0.3749724589234146 0  0.2516496623344595 0.3749617470633411 0  0.3146689289576812 0.3749496666222842 0  0.3777632602184511 0.3749358074125133 0  0.4409512029699788 0.3749197177393849 0  0.5042527273762912 0.3749009025814368 0  0.5676888176105179 0.3748788298132585 0  0.631280458372811 0.3748529517712068 0  0.6950466283925852 0.3748227555978444 0  0.7590007247386091 0.3747878668105678 0  0.8231446605852833 0.3747482497065937 0  0.8874599025718674 0.3747045791426457 0  0.9518954448776231 0.3746588954955302 0  1.016354986326567 0.374615626405944 0  0 0.4375 0  0.06290568095853806 0.4374906072650464 0  0.1258264510103712 0.437480860361901 0  0.1887778871249101 0.4374703924616835 0  0.2517765333500641 0.4374588113667584 0  0.3148403738857222 0.4374456861397529 0  0.3779892768253879 0.4374305330661102 0  0.4412453667962142 0.4374128010437184 0  0.5046332465039175 0.4373918569897419 0  0.5681799241667623 0.4373669729100431 0  0.6319142042940125 0.4373373185332949 0  0.6958651517997634 0.4373019682673204 0  0.7600590440858549 0.4372599416904159 0  0.8245140218804361 0.4372103190713899 0  0.8892315664747635 0.4371525195431635 0  0.9541842299979693 0.4370869201396217 0  1.019299998018852 0.4370161616751885 0  0 0.5 0  0.06291848729837941 0.4999903177032269 0  0.1258530953833231 0.4999802577624021 0  0.1888205491862097 0.499969427059014 0  0.2518387946032283 0.4999574008026457 0  0.3149276395068487 0.4999437047115282 0  0.3781094205065374 0.4999277946308604 0  0.4414096815927801 0.4999090323915702 0  0.5048578210929954 0.4998866563714874 0  0.5684876103785863 0.4998597447724749 0  0.6323373966733815 0.4998271692037645 0  0.6964496522785429 0.499787536357584 0  0.7608692988995661 0.4997391184203068 0  0.825639900741302 0.4996797845800134 0  0.8907964006740171 0.4996069837263684 0  0.9563526720057465 0.4995179353015459 0  1.022282000130469 0.4994104567905576 0  0 0.5625 0  0.06291527860531608 0.5624904023418229 0  0.1258471226845653 0.562480418465681 0  0.1888128070392466 0.5624696445498227 0  0.2518310634356913 0.5624576401936721 0  0.3149228914789452 0.5624439069723554 0  0.378112468025377 0.5624278626893375 0  0.4414281840068682 0.5624088088921129 0  0.5049038267247684 0.5623858879768046 0  0.5685798991533298 0.5623580239928767 0  0.632505009499581 0.5623238372518323 0  0.696737144059002 0.5622815155801629 0  0.7613443989172318 0.5622286122549995 0  0.8264042949121518 0.5621617201038103 0  0.8919999914922864 0.562075946316512 0  0.958210424322034 0.5619641121475377 0  1.025089829111589 0.5618157240106028 0  0 0.625 0  0.06289561544075713 0.6249908695553171 0  0.1258075465891337 0.6249813614295368 0  0.1887528938869758 0.6249710792978935 0  0.2517503912186614 0.6249595876869329 0  0.3148213590952768 0.6249463884699987 0  0.3779908351531595 0.6249308919240766 0  0.441288962700977 0.6249123791403741 0  0.504752736138369 0.6248899507998414 0  0.5684282213239101 0.6248624539852209 0  0.632373380464324 0.6248283721380893 0  0.6966616107681527 0.6247856496864544 0  0.7613859925082633 0.6247313935013528 0  0.8266638843653187 0.6246613283500951 0  0.8926405583354041 0.6245687417389137 0  0.9594883984059718 0.6244423727261338 0  1.027394316831087 0.6242623210103923 0  0 0.6875 0  0.06285975260184432 0.6874917106226441 0  0.1257347992412524 0.6874830703255427 0  0.1886412451808015 0.6874737098559057 0  0.2515969025013432 0.6874632211950655 0  0.3146223246307786 0.6874511340305214 0  0.3777420861844993 0.6874368865163565 0  0.4409864393660503 0.6874197870554111 0  0.5043935306357263 0.687398962181184 0  0.5680124407701836 0.6873732826295393 0  0.6319074286965954 0.6873412539070582 0  0.6961639267464915 0.6873008452648059 0  0.7608970544089184 0.6872492010449605 0  0.8262636281343498 0.6871820973314795 0  0.8924785023354607 0.6870927657368713 0  0.959834217203792 0.6869689337634913 0  1.028715537991294 0.6867843605378855 0  0 0.75 0  0.06280871608745774 0.7499928986329067 0  0.1256309047846971 0.7499854910726361 0  0.1884808120914024 0.749977454517688 0  0.2513743250381485 0.7499684308942701 0  0.3143299963655992 0.7499580054094479 0  0.3773703530874145 0.7499456799382177 0  0.4405236553173831 0.7499308385315268 0  0.5038263543254442 0.7499127013483853 0  0.5673266358448718 0.7498902620050406 0  0.6310896650927547 0.7498622018980118 0  0.6952055492779078 0.7498267742384626 0  0.7598017581467618 0.749781651861387 0  0.8250631278945405 0.7497237362130031 0  0.8912652336750061 0.7496489088088716 0  0.9588309578263161 0.7495515048603238 0  1.028417784048155 0.7494215940912748 0  0 0.8125 0  0.06274433047027775 0.8124943887607736 0  0.125499549897181 0.8124885323101441 0  0.1882772110557172 0.8124821718366456 0  0.2510902842373195 0.8124750195713779 0  0.313954062291169 0.8124667412354277 0  0.3768873434833858 0.8124569343983298 0  0.4399140647124644 0.8124451008088766 0  0.5030656537939234 0.8124306104051116 0  0.5663845364373935 0.8124126548556686 0  0.6299295301441233 0.8123901908939354 0  0.6937844094296822 0.8123618845202117 0  0.7580720401917801 0.8123261073963386 0  0.8229790266588934 0.8122811773057742 0  0.8888026368629289 0.8122265084391699 0  0.9560522431800983 0.8121669151704495 0  1.025686692008858 0.8121283492461864 0  0 0.875 0  0.06266918093587243 0.8749961199878469 0  0.1253460154833239 0.8749920689632218 0  0.188038643505209 0.8749876663293569 0  0.2507562477376774 0.8749827110543246 0  0.3135097298127666 0.874976969340114 0  0.3763126076079545 0.874970159508381 0  0.4391822763920638 0.8749619328311967 0  0.5021418608031383 0.8749518487935019 0  0.5652230340188157 0.8749393431849317 0  0.6284704485846392 0.8749236882173704 0  0.6919489194997026 0.8749039490035635 0  0.7557554743045537 0.8748789677312944 0  0.8200405914196771 0.8748475491566705 0  0.8850498348256149 0.8748097999151069 0  0.9512315979573081 0.8747750953380703 0  1.019725882700592 0.8748113398037084 0  0 0.9375 0  0.06258650245697681 0.9374980181455256 0  0.1251769512373344 0.9374959486057106 0  0.1877755490973447 0.9374936987749607 0  0.250387050084869 0.937491165552179 0  0.3130171198649976 0.9374882290342057 0  0.3756728180178082 0.9374847448118812 0  0.4383632822749254 0.937480
[...]
<PointData  Vectors="f_54"> 
<DataArray  type="Float64"  Name="f_54"  NumberOfComponents="3" format="ascii">0.0000000000000000e+00 0.0000000000000000e+00 0.0000000000000000e+00  0.0000000000000000e+00 0.0000000000000000e+00 0.0000000000000000e+00  0.0000000000000000e+00 0.0000000000000000e+00 0.0000000000000000e+00  0.0000000000000000e+00 0.0000000000000000e+00 0.0000000000000000e+00  0.0000000000000000e+00 0.0000000000000000e+00 0.0000000000000000e+00  0.0000000000000000e+00 0.0000000000000000e+00 0.0000000000000000e+00  0.0000000000000000e+00 0.0000000000000000e+00 0.0000000000000000e+00  0.0000000000000000e+00 0.0000000000000000e+00 0.0000000000000000e+00  0.0000000000000000e+00 0.0000000000000000e+00 0.0000000000000000e+00  0.0000000000000000e+00 0.0000000000000000e+00 0.0000000000000000e+00  0.0000000000000000e+00 0.0000000000000000e+00 0.0000000000000000e+00  0.0000000000000000e+00 0.0000000000000000e+00 0.0000000000000000e+00  0.0000000000000000e+00 0.0000000000000000e+00 0.0000000000000000e+00  0.0000000000000000e+00 0.0000000000000000e+00 0.0000000000000000e+00  0.0000000000000000e+00 0.0000000000000000e+00 0.0000000000000000e+00  0.0000000000000000e+00 0.0000000000000000e+00 0.0000000000000000e+00  0.0000000000000000e+00 0.0000000000000000e+00 0.0000000000000000e+00  0.0000000000000000e+00 0.0000000000000000e+00 0.0000000000000000e+00  -5.4858376673942547e-07 -2.4445755430376134e-08 0.0000000000000000e+00  -1.0951095923922546e-06 -4.9245371624325762e-08 0.0000000000000000e+00  -1.6344815855431601e-06 -7.4737522836833761e-08 0.0000000000000000e+00  -2.1549913522617688e-06 -1.0123605942978200e-07 0.0000000000000000e+00  -2.6338170402352190e-06 -1.2904613341815932e-07 0.0000000000000000e+00  -3.0308990413804151e-06 -1.5852941558342711e-07 0.0000000000000000e+00  -3.2802338061695611e-06 -1.9026435413555796e-07 0.0000000000000000e+00  -3.2769664611566358e-06 -2.2538537136155146e-07 0.0000000000000000e+00  -2.8570992115889449e-06 -2.6626068774052041e-07 0.0000000000000000e+00  -1.7626446668880853e-06 -3.1784472789580673e-07 0.0000000000000000e+00  4.2582113171722717e-07 -3.9053031259530202e-07 0.0000000000000000e+00  4.4388816989892162e-06 -5.0690126970275117e-07 0.0000000000000000e+00  1.1698369483533991e-05 -7.2041731711630498e-07 0.0000000000000000e+00  2.5405588788996415e-05 -1.1757951800896130e-06 0.0000000000000000e+00  5.4027272927129013e-05 -2.3316931769433824e-06 0.0000000000000000e+00  1.2413687201801241e-04 -5.9090290555475472e-06 0.0000000000000000e+00  0.0000000000000000e+00 0.0000000000000000e+00 0.0000000000000000e+00  -1.1005239681217625e-06 -4.8596445455871399e-08 0.0000000000000000e+00  -2.2000369218037027e-06 -9.7922414811873974e-08 0.0000000000000000e+00  -3.2918636673202164e-06 -1.4866755181014670e-07 0.0000000000000000e+00  -4.3569680222939452e-06 -2.0144831249194230e-07 0.0000000000000000e+00  -5.3555074826117175e-06 -2.5681546095620108e-07 0.0000000000000000e+00  -6.2153687999090254e-06 -3.1534030940387989e-07 0.0000000000000000e+00  -6.8160735569414992e-06 -3.7785598320133815e-07 0.0000000000000000e+00  -6.9656282781251044e-06 -4.4598718111690191e-07 0.0000000000000000e+00  -6.3662174731710772e-06 -5.2319376448003470e-07 0.0000000000000000e+00  -4.5609868921709045e-06 -6.1669608211921590e-07 0.0000000000000000e+00  -8.4603880626458745e-07 -7.4084518165624816e-07 0.0000000000000000e+00  5.8857519938758840e-06 -9.2259116156559797e-07 0.0000000000000000e+00  1.7435340407829127e-05 -1.2084783951705789e-06 0.0000000000000000e+00  3.6821187548096037e-05 -1.6628440459539922e-06 0.0000000000000000e+00  6.8973755860346120e-05 -2.2887482170937010e-06 0.0000000000000000e+00  1.1986950528321479e-04 -2.4793235099251927e-06 0.0000000000000000e+00  0.0000000000000000e+00 0.0000000000000000e+00 0.0000000000000000e+00  -1.6546809275685984e-06 -7.2073162480818919e-08 0.0000000000000000e+00  -3.3151853865953288e-06 -1.4529999692457894e-07 0.0000000000000000e+00  -4.9798724914534386e-06 -2.2075506388692374e-07 0.0000000000000000e+00  -6.6307294066354535e-06 -2.9935431286014678e-07 0.0000000000000000e+00  -8.2220772049834801e-06 -3.8181208521868458e-07 0.0000000000000000e+00  -9.6652172238855616e-06 -4.6867270385203509e-07 0.0000000000000000e+00  -1.0807106169546142e-05 -5.6050158848915063e-07 0.0000000000000000e+00  -1.1400638139915627e-05 -6.5838653936477834e-07 0.0000000000000000e+00  -1.1063444842937077e-05 -7.6499302123814254e-07 0.0000000000000000e+00  -9.2214028187090091e-06 -8.8652334576510970e-07 0.0000000000000000e+00  -5.0329668289539517e-06 -1.0359772994864868e-06 0.0000000000000000e+00  2.7056624788869712e-06 -1.2378821629422152e-06 0.0000000000000000e+00  1.5653741058730386e-05 -1.5336738435919705e-06 0.0000000000000000e+00  3.5914751676711938e-05 -1.9850581674616540e-06 0.0000000000000000e+00  6.5546540175784920e-05 -2.6779471103295515e-06 0.0000000000000000e+00  1.0451639417147923e-04 -3.8157186245344536e-06 0.0000000000000000e+00  0.0000000000000000e+00 0.0000000000000000e+00 0.0000000000000000e+00  -2.2041224173279027e-06 -9.4448262562454015e-08 0.0000000000000000e+00  -4.4285515541624563e-06 -1.9056379724299058e-07 0.0000000000000000e+00  -6.6854887404733432e-06 -2.8988445924659752e-07 0.0000000000000000e+00  -8.9691835280733556e-06 -3.9367241489551110e-07 0.0000000000000000e+00  -1.1243256776091589e-05 -5.0277620328612979e-07 0.0000000000000000e+00  -1.3423226838766155e-05 -6.1752176130448311e-07 0.0000000000000000e+00  -1.5352141686802829e-05 -7.3770201129725916e-07 0.0000000000000000e+00  -1.6767028463433027e-05 -8.6280665419138891e-07 0.0000000000000000e+00  -1.7254162494792833e-05 -9.9274420492481777e-07 0.0000000000000000e+00  -1.6192844992735312e-05 -1.1294499217376576e-06 0.0000000000000000e+00  -1.2692636158312182e-05 -1.2798889487093426e-06 0.0000000000000000e+00  -5.5428660970887378e-06 -1.4608801439538363e-06 0.0000000000000000e+00  6.7732759276330737e-06 -1.7055094156085910e-06 0.0000000000000000e+00  2.5874775395603269e-05 -2.0690786085722776e-06 0.0000000000000000e+00  5.2834236320749762e-05 -2.6283717921866093e-06 0.0000000000000000e+00  8.6726116029109683e-05 -3.4510895486396497e-06 0.0000000000000000e+00  0.0000000000000000e+00 0.0000000000000000e+00 0.0000000000000000e+00  -2.7343069111349904e-06 -1.1520527987422280e-07 0.0000000000000000e+00  -5.5117540811644041e-06 -2.3273248959989867e-07 0.0000000000000000e+00  -8.3681287488923459e-06 -3.5472659367629819e-07 0.0000000000000000e+00  -1.1322616505944461e-05 -4.8293689511477082e-07 0.0000000000000000e+00  -1.4365475721125037e-05 -6.1845497789555283e-07 0.0000000000000000e+00  -1.7440416341302087e-05 -7.6139263333679500e-07 0.0000000000000000e+00  -2.0419270471137493e-05 -9.1052374786667899e-07 0.0000000000000000e+00  -2.3066296499546289e-05 -1.0629847318903043e-06 0.0000000000000000e+00  -2.4989843606281555e-05 -1.2142646879065922e-06 0.0000000000000000e+00  -2.5581204405903714e-05 -1.3589552644581624e-06 0.0000000000000000e+00  -2.3946489841804364e-05 -1.4930959417115112e-06 0.0000000000000000e+00  -1.8851216580825492e-05 -1.6193981143803479e-06 0.0000000000000000e+00  -8.7247199960679962e-06 -1.7569009443308044e-06 0.0000000000000000e+00  8.1838094657619902e-06 -1.9559149618318598e-06 0.0000000000000000e+00  3.3358983665116342e-05 -2.3154922083017968e-06 0.0000000000000000e+00  6.7172572531129643e-05 -2.9903871645414542e-06 0.0000000000000000e+00  0.0000000000000000e+00 0.0000000000000000e+00 0.0000000000000000e+00  -3.2224290474321175e-06 -1.3368861287124146e-07 0.0000000000000000e+00  -6.5184844985278436e-06 -2.7054313008877960e-07 0.0000000000000000e+00  -9.9567042642098356e-06 -4.1353119328504306e-07 0.0000000000000000e+00  -1.3593597773013736e-05 -5.6515356236835632e-07 0.0000000000000000e+00  -1.7463646873792377e-05 -7.2706433651281398e-07 0.0000000000000000e+00  -2.1563844742823753e-05 -8.9950655038406344e-07 0.0000000000000000e+00  -2.5829877500707896e-05 -1.0805025425009840e-06 0.0000000000000000e+00  -3.0100257691864168e-05 -1.2647792267927982e-06 0.0000000000000000e+00  -3.4064138001372690e-05 -1.4425371684490836e-06 0.0000000000000000e+00  -3.7188954513819971e-05 -1.5984909683389579e-06 0.0000000000000000e+00  -3.8627089005394297e-05 -1.7122906345011890e-06 0.0000000000000000e+00  -3.7109176307748491e-05 -1.7627192049362258e-06 0.0000000000000000e+00  -3.0849019739866116e-05 -1.7401264439471562e-06 0.0000000000000000e+00  -1.7512412795183738e-05 -1.6740363556408455e-06 0.0000000000000000e+00  5.6706620424776494e-06 -1.6837017982579029e-06 0.0000000000000000e+00  4.1577618537940219e-05 -2.0531428409539639e-06 0.0000000000000000e+00  0.0000000000000000e+00 0.0000000000000000e+00 0.0000000000000000e+00  -3.6381538770156329e-06 -1.4905682708414602e-07 0.0000000000000000e+00  -7.3858505569004728e-06 -3.0233420672422709e-07 0.0000000000000000e+00  -1.1351286950722281e-05 -4.6388831279846294e-07 0.0000000000000000e+00  -1.5638439418009634e-05 -6.3735294480631291e-07 0.0000000000000000e+00  -2.0341563755271412e-05 -8.2550424518188563e-07 0.0000000000000000e+00  -2.5534706243972622e-05 -1.0295066345562020e-06 0.0000000000000000e+00  -3.1252921296298235e-05 -1.2476564335012076e-06 0.0000000000000000e+00  -3.7460203316712035e-05 -1.4733965347279825e-06 0.0000000000000000e+00  -4.3996787870369006e-05 -1.6923950794006971e-06 0.0000000000000000e+00  -5.0495585491824989e-05 -1.8787130554517414e-06 0.0000000000000000e+00  -5.6254774954348895e-05 -1.9908717374528638e-06 0.0000000000000000e+00  -6.0052869135741039e-05 -1.9706552840622561e-06 0.0000000000000000e+00  -5.9897588467224981e-05 -1.7518886804210238e-06 0.0000000000000000e+00  -5.2716057404634799e-05 -1.2945184157395748e-06 0.0000000000000000e+00  -3.4025546362203290e-05 -6.7083592211183722e-07 0.0000000000000000e+00  2.3311345555339476e-06 -2.3889978954672872e-07 0.0000000000000000e+00  0.0000000000000000e+00 0.0000000000000000e+00 0.0000000000000000e+00  -3.9458523654914880e-06 -1.6026271501230531e-07 0.0000000000000000e+00  -8.0388770665443032e-06 -3.2597692863040092e-07 0.0000000000000000e+00  -1.2429870340983496e-05 -5.0254451219634844e-07 0.0000000000000000e+00  -1.7276022739556513e-05 -6.9516966122596773e-07 0.0000000000000000e+00  -2.2742100231535094e-05 -9.0849837657610237e-07 0.0000000000000000e+00  -2.8998176921124353e-05 -1.1458473268482656e-06 0.0000000000000000e+00  -3.6210741802374959e-05 -1.4077050223086119e-06 0.0000000000000000e+00  -4.4521469688862351e-05 -1.6890000671498153e-06 0.0000000000000000e+00  -5.4003628577581666e-05 -1.9743878654847184e-06 0.0000000000000000e+00  -6.4579067215843249e-05 -2.2306104916207112e-06 0.0000000000000000e+00  -7.5868068388868000e-05 -2.3952072278783965e-06 0.0000000000000000e+00  -8.6930092769503813e-05 -2.3625477028238093e-06 0.0000000000000000e+00  -9.5838927512234185e-05 -1.9738352661786722e-06 0.0000000000000000e+00  -9.9032023768067697e-05 -1.0323720119835326e-06 0.0000000000000000e+00  -9.0403799343439037e-05 6.0363625164624043e-07 0.0000000000000000e+00  -6.0205369304720909e-05 2.7467071100325126e-06 0.0000000000000000e+00  0.0000000000000000e+00 0.0000000000000000e+00 0.0000000000000000e+00  -4.1082997770523124e-06 -1.6608829516123085e-07 0.0000000000000000e+00  -8.3981536506547943e-06 -3.3891984922395228e-07 0.0000000000000000e+00  -1.3060402640188471e-05 -5.2539358676168951e-07 0.0000000000000000e+00  -1.8304649892496314e-05 -7.3264851236094995e-07 0.0000000000000000e+00  -2.4368893244773217e-05 -9.6796629645612980e-07 0.0000000000000000e+00  -3.1528645075674857e-05 -1.2382861389930125e-06 0.0000000000000000e+00  -4.0103547297782559e-05 -1.5489378341970094e-06 0.0000000000000000e+00  -5.0456733844043637e-05 -1.9008475682691687e-06 0.0000000000000000e+00  -6.2976714940963651e-05 -2.2848491867744829e-06 0.0000000000000000e+00  -7.8021067158435026e-05 -2.6707163610068648e-06 0.0000000000000000e+00  -9.5782098577395865e-05 -2.9871187682354977e-06 0.0000000000000000e+00  -1.1600238750519872e-04 -3.0875628289770836e-06 0.0000000000000000e+00  -1.3742043869332797e-04 -2.6994456591971957e-06 0.0000000000000000e+00  -1.5677413958839617e-04 -1.3677629001812093e-06 0.0000000000000000e+00  -1.6717687228012018e-04 1.5462046593285427e-06 0.0000000000000000e+00  -1.5580420260643714e-04 6.6312065742332098e-06 0.0000000000000000e+00  0.0000000000000000e+00 0.0000000000000000e+00 0.0000000000000000e+00  -4.0915848591081493e-06 -1.6525946590865073e-07 0.0000000000000000e+00  -8.3901926493529481e-06 -3.3840900438035926e-07 0.0000000000000000e+00  -1.3117651286347830e-05 -5.2777035040751980e-07 0.0000000000000000e+00  -1.8526892205835185e-05 -7.4252316747297796e-07 0.0000000000000000e+00  -2.4920755729190644e-05 -9.9307022590292670e-07 0.0000000000000000e+00  -3.2674549629918671e-05 -1.2912163456963794e-06 0.0000000000000000e+00  -4.2262928396566631e-05 -1.6498396364218892e-06 0.0000000000000000e+00  -5.4289909570672681e-05 -2.0813113096145048e-06 0.0000000000000000e+00  -6.9516317602643420e-05 -2.5930141884117628e-06 0.0000000000000000e+00  -8.8868220680696702e-05 -3.1764123275644171e-06 0.0000000000000000e+00  -1.1338609063999082e-04 -3.7823068978323553e-06 0.0000000000000000e+00  -1.4402475044512418e-04 -4.2678168909459131e-06 0.0000000000000000e+00  -1.8111947437813252e-04 -4.2896446990297902e-06 0.0000000000000000e+00  -2.2317941477200941e-04 -3.1098113363564144e-06 0.0000000000000000e+00  -2.6449802272366415e-04 6.8936149516897841e-07 0.0000000000000000e+00  -2.9110779057002088e-04 9.3898092902169750e-06 0.0000000000000000e+00  0.0000000000000000e+00 0.0000000000000000e+00 0.0000000000000000e+00  -3.8706991162903797e-06 -1.5664918745583923e-07 0.0000000000000000e+00  -7.9594561182301126e-06 -3.2191468986061408e-07 0.0000000000000000e+00  -1.2503441653752221e-05 -5.0513457999895848e-07 0.0000000000000000e+00  -1.7780865862837696e-05 -7.1718089743694241e-07 0.0000000000000000e+00  -2.4137942812234330e-05 -9.7141231695297636e-07 0.0000000000000000e+00  -3.2024499745951575e-05 -1.2848242595791810e-06 0.0000000000000000e+00  -4.2042509097538880e-05 -1.6793602562530270e-06 0.0000000000000000e+00  -5.5012601540380124e-05 -2.1830843062423145e-06 0.0000000000000000e+00  -7.2063239538392368e-05 -2.8301706760574525e-06 0.0000000000000000e+00  -9.4742600584221321e-05 -3.6566774181194161e-06 0.0000000000000000e+00  -1.2513604196368299e-04 -4.6838997554731461e-06 0.0000000000000000e+00  -1.6592140493353874e-04 -5.8680248792071357e-06 0.0000000000000000e+00  -2.2016213309427159e-04 -6.9631040435985040e-06 0.0000000000000000e+00  -2.9033096301454115e-04 -7.1742430786676894e-06 0.0000000000000000e+00  -3.7547372287910339e-04 -4.3575153429625947e-06 0.0000000000000000e+00  -4.6477785582347381e-04 6.5201489591577445e-06 0.0000000000000000e+00  0.0000000000000000e+00 0.0000000000000000e+00 0.0000000000000000e+00  -3.4349764417313051e-06 -1.3954921214842559e-07 0.0000000000000000e+00  -7.0803127826440989e-06 -2.8773196844155863e-07 0.0000000000000000e+00  -1.1167491649142767e-05 -4.5412176282863669e-07 0.0000000000000000e+00  -1.5974030165210031e-05 -6.5036008582663639e-07 0.0000000000000000e+00  -2.1855433225483590e-05 -8.9164882884937854e-07 0.0000000000000000e+00  -2.9289940413423922e-05 -1.1989024694236065e-06 0.0000000000000000e+00  -3.8944205123244913e-05 -1.6019717179393005e-06 0.0000000000000000e+00  -5.1772393257615015e-05 -2.1445129279599915e-06 0.0000000000000000e+00  -6.9167854749768587e-05 -2.8911727400063982e-06 0.0000000000000000e+00  -9.3195561707244619e-05 -3.9373458777174664e-06 0.0000000000000000e+00  -1.2694165544869553e-04 -5.4192343865815336e-06 0.0000000000000000e+00  -1.7500718430136359e-04 -7.5116671955568972e-06 0.0000000000000000e+00  -2.4408380315988417e-04 -1.0363853062590306e-05 0.0000000000000000e+00  -3.4317390617217235e-04 -1.3794237035069309e-05 0.0000000000000000e+00  -4.8180629649965278e-04 -1.6146931503393362e-05 0.0000000000000000e+00  -6.6202503061077477e-04 -1.0639513465473781e-05 0.0000000000000000e+00  0.0000000000000000e+00 0.0000000000000000e+00 0.0000000000000000e+00  -2.7923298477267762e-06 -1.1395457212901981e-07 0.0000000000000000e+00  -5.7666099340214391e-06 -2.3563576598310326e-07 0.0000000000000000e+00  -9.1248234270540058e-06 -3.7376715673282082e-07 0.0000000000000000e+00  -1.3113075169282343e-05 -5.3931308419007652e-07 0.0000000000000000e+00  -1.8053412429577033e-05 -7.4723681517586665e-07 0.0000000000000000e+00  -2.4390182767789759e-05 -1.0192570568424168e-06 0.0000000000000000e+00  -3.2761442897972813e-05 -1.3884221220662491e-06 0.0000000000000000e+00  -4.4113349995441032e-05 -1.9069913700148626e-06 0.0000000000000000e+00  -5.9889232991170013e-05 -2.6604033875747107e-06 0.0000000000000000e+00  -8.2350757891863250e-05 -3.7925827735494999e-06 0.0000000000000000e+00  -1.1513635936638882e-04 -5.5524432687920015e-06 0.0000000000000000e+00  -1.6424658950387266e-04 -8.3790886043965051e-06 0.0000000000000000e+00  -2.3976843585779635e-04 -1.3049942992463520e-05 0.0000000000000000e+00  -3.5866694189193619e-04 -2.0878808442268004e-05 0.0000000000000000e+00  -5.4780324239491330e-04 -3.3546585716767771e-05 0.0000000000000000e+00  -8.3740615299769802e-04 -4.8922537490296015e-05 0.0000000000000000e+00  0.0000000000000000e+00 0.0000000000000000e+00 0.0000000000000000e+00  -1.9712085474676618e-06 -8.0776364997250354e-08 0.0000000000000000e+00  -4.0763957029601537e-06 -1.6739547961581915e-07 0.0000000000000000e+00  -6.4651827042525042e-06 -2.6653859837688678e-07 0.0000000000000000e+00  -9.3218838172729493e-06 -3.8679669780095995e-07 0.0000000000000000e+00  -1.2891159538103861e-05 -5.4024412994839158e-07 0.0000000000000000e+00  -1.7516349195758212e-05 -7.4502074440461063e-07 0.0000000000000000e+00  -2.3700356191593751e-05 -1.0298445446915898e-06 0.0000000000000000e+00  -3.2206930850517248e-05 -1.4422737116922612e-06 0.0000000000000000e+00  -4.4236309534770002e-05 -2.0644752302475954e-06 0.0000000000000000e+00  -6.1743066526634457e-05 -3.0446251983805966e-06 0.0000000000000000e+00  -8.8038839215813622e-05 -4.6624426349048251e-06 0.0000000000000000e+00  -1.2899648060852803e-04 -7.4737351735055979e-06 0.0000000000000000e+00  -1.9559825473622461e-04 -1.2652282388958627e-05 0.0000000000000000e+00  -3.0966566171596553e-04 -2.2880553906495189e-05 0.0000000000000000e+00  -5.1754251858653370e-04 -4.5046081880761166e-05 0.0000000000000000e+00  -9.2526645598431292e-04 -1.0097225011801317e-04 0.0000000000000000e+00  0.0000000000000000e+00 0.0000000000000000e+00 0.0000000000000000e+00  -1.0194761900225728e-06 -4.1894998364370954e-08 0.0000000000000000e+00  -2.1098755576575238e-06 -8.6935245857543864e-08 0.0000000000000000e+00  -3.3506552614039121e-06 -1.3874360575857479e-07 0.0000000000000000e+00  -4.8402674620589306e-06 -2.0203821332093039e-07 0.0000000000000000e+00  -6.7103819806521785e-06 -2.8355743739522054e-07 0.0000000000000000e+00  -9.1474077065799047e-06 -3.9361088268651868e-07 0.0000000000000000e+00  -1.2427197299962016e-05 -5.4885428923437618e-07 0.0000000000000000e+00  -1.6973864939393090e-05 -7.7750175683195183e-07 0.0000000000000000e+00  -2.3464251014381719e-05 -1.1295582070084240e-06 0.0000000000000000e+00  -3.3023095315895007e-05 -1.6978280630557491e-06 0.0000000000000000e+00  -4.7609864986217551e-05 -2.6631514291341337e-06 0.0000000000000000e+00  -7.0842201555196521e-05 -4.3968909382913820e-06 0.0000000000000000e+00  -1.0990892843367259e-04 -7.7057481744641328e-06 0.0000000000000000e+00  -1.8050756407017848e-04 -1.4446255760338015e-05 0.0000000000000000e+00  -3.2115900928993677e-04 -2.9103984793847227e-05 0.0000000000000000e+00  -6.3798483678741971e-04 -6.2367257417113024e-05 0.0000000000000000e+00  0.0000000000000000e+00 0.0000000000000000e+00 0.0000000000000000e+00  0.0000000000000000e+00 0.0000000000000000e+00 0.0000000000000000e+00  0.0000000000000000e+00 0.0000000000000000e+00 0.0000000000000000e+00  0.0000000000000000e+00 0.0000000000000000e+00 0.0000000000000000e+00  0.0000000000000000e+00 0.0000000000000000e+00 0.0000000000000000e+00  0.0000000000000000e+00 0.0000000000000000e+00 0.0000000