<?xml version="1.0"?>
<VTKFile type="UnstructuredGrid"  version="0.1"  >
<UnstructuredGrid>
<Piece  NumberOfPoints="289" NumberOfCells="512">
<Points>
<DataArray  type="Float64"  NumberOfComponents="3"  format="ascii">0 0 0  0.0625 0 0  0.125 0 0  0.1875 0 0  0.25 0 0  0.3125 0 0  0.375 0 0  0.4375 0 0  0.5 0 0  0.5625 0 0  0.625 0 0  0.6875 0 0  0.75 0 0  0.8125 0 0  0.875 0 0  0.9375 0 0  1 0 0  0 0.0625 0  0.06258319560335986 0.06247922204696881 0  0.1251689716031702 0.06245803269696712 0  0.1877599669527476 0.06243604440170242 0  0.250358866854538 0.06241293548690668 0  0.312968415856883 0.06238849423897577 0  0.3755914195627144 0.06236267567558977 0  0.4382307390007378 0.06233567247089988 0  0.5008892972248075 0.06230799693223033 0  0.5635701564086012 0.06228056189229582 0  0.6262768213198823 0.0622547317952892 0  0.6890141805360421 0.0622322862736294 0  0.7517911987350753 0.0622151881554777 0  0.8146284913347149 0.06220495164207306 0  0.8775798746044208 0.06220117509202004 0  0.9407944783336076 0.0621981700188396 0  1.004692400155935 0.06217901199193564 0  0 0.125 0  0.06266384303939831 0.1249588403587434 0  0.1253328489289039 0.1249168246669964 0  0.1880123064215071 0.1248731404083476 0  0.2507076218254742 0.1248270976559675 0  0.3134243600754497 0.1247782138550305 0  0.3761682642760171 0.1247263264222457 0  0.4389452576935196 0.1246717388127007 0  0.5017614532750958 0.1246153986318647 0  0.5646232443432383 0.1245590914540247 0  0.6275376565167061 0.1245056058291793 0  0.6905133617410693 0.1244587775245823 0  0.7535631675492127 0.1244232558636984 0  0.8167093507788021 0.1244037989831341 0  0.8799928893364247 0.1244041510038103 0  0.943480927743759 0.1244271547220664 0  1.007233815290866 0.1244840709053721 0  0 0.1875 0  0.06273935066078623 0.1874393066227217 0  0.1254864122610855 0.1873772531330586 0  0.1882490982826288 0.1873125340829253 0  0.2510355432165491 0.187244004061647 0  0.3138541886528195 0.1871707948589343 0  0.3767138357236685 0.1870924789152255 0  0.4396236588768161 0.1870092934031509 0  0.502593187905309 0.1869224335906801 0  0.5656322894505385 0.1868344089847223 0  0.628751218149554 0.1867494220579141 0  0.6919608408517056 0.186673660869751 0  0.7552730506960774 0.1866152612990307 0  0.8187007637625267 0.1865834079520837 0  0.8822545554333669 0.1865853064991014 0  0.9459268260362917 0.1866173296855051 0  1.009645990520643 0.1866373966846743 0  0 0.25 0  0.06280717463827462 0.249921130883217 0  0.1256245217377206 0.2498403218434149 0  0.188462502081317 0.249755685496994 0  0.2513319394851914 0.2496655014028274 0  0.3142441739134043 0.2495683502428358 0  0.3772111702685992 0.249463314654015 0  0.4402455644039212 0.2493502745745358 0  0.5033606239153616 0.2492303260627222 0  0.5665700909933179 0.2491063465530468 0  0.6298878401113518 0.2489837063462401 0  0.6933271709344138 0.2488710660276166 0  0.7568992291244941 0.2487810646283853 0  0.8206092188808738 0.2487304247746419 0  0.8844473764113536 0.2487384819467695 0  0.9483695360091594 0.2488224662887286 0  1.0122638044674 0.2489887936684678 0  0 0.3125 0  0.06286486429478486 0.3124048969287631 0  0.1257422048833486 0.312307197205586 0  0.1886448801352641 0.3122043368781891 0  0.2515862962935816 0.3120938839900624 0  0.3145806557002411 0.3119736655521242 0  0.3776431591711342 0.3118419790277802 0  0.4407901352073873 0.3116979324489422 0  0.504039052630446 0.3115419705592398 0  0.5674083403601723 0.3113766580148926 0  0.6309168658382679 0.3112077974353042 0  0.6945827639257275 0.3110459426095438 0  0.7584209775453188 0.3109082887837857 0  0.8224382889218779 0.3108207175827651 0  0.8866239465730155 0.3108193650812991 0  0.9509343988660944 0.3109504886871537 0  1.01527568044513 0.3112669867175168 0  0 0.375 0  0.06291012609593337 0.3748912625081289 0  0.1258347827117512 0.3747792137840812 0  0.1887889810871329 0.3746605346446616 0  0.25178850656567 0.3745319524064431 0  0.3148502930364716 0.3743903274839442 0  0.3779927663934275 0.3742328328730977 0  0.4412361331003303 0.3740572848435944 0  0.5046025725889053 0.3738627117465437 0  0.5681162596032752 0.373650288950976 0  0.6318030782264312 0.3734248217696251 0  0.6956897632379637 0.3731970162498903 0  0.759801978691042 0.3729868076405056 0  0.8241605227654056 0.3728279358612103 0  0.8887746534615105 0.3727736098159605 0  0.9536322662357654 0.37290230150359 0  1.0186899227358 0.3733214489123355 0  0 0.4375 0  0.06294091062251413 0.4373809395129415 0  0.1258980444099169 0.4372578381997656 0  0.1888882030289905 0.4371265856136043 0  0.2519292192910917 0.4369829794923818 0  0.3150404848942991 0.436822732941364 0  0.3782434812393492 0.436641565454116 0  0.4415623079530028 0.4364354414599307 0  0.5050241982483589 0.4362010624046136 0  0.5686600035669963 0.4359367879746822 0  0.6325046197935486 0.4356442722477323 0  0.6965973064588596 0.435331263359104 0  0.7609818052550131 0.4350162224246935 0  0.8257060888168013 0.4347355869621997 0  0.8908215302441391 0.4345543795020549 0  0.9563815878432266 0.4345799655376944 0  1.022441647098658 0.4349768897686171 0  0 0.5 0  0.06295552343368634 0.4998746508552656 0  0.1259284738656448 0.4997445832081784 0  0.1889369453086906 0.4996049304126766 0  0.2520003294346367 0.4994505509993458 0  0.3151400108625935 0.4992759184553323 0  0.3783801153980375 0.4990750623675906 0  0.4417483363634152 0.498841614186695 0  0.505276881020933 0.4985690587146326 0  0.5690036207530368 0.498251379961033 0  0.6329736193183839 0.4978844479471482 0  0.6972413879394542 0.497468770094844 0  0.7618745050810763 0.4970146859015309 0  0.8269596215871554 0.4965517177833706 0  0.892612197176608 0.4961442962891759 0  0.9589913640556835 0.4959152705263057 0  1.026321915137866 0.496074086524307 0  0 0.5625 0  0.06295275534312966 0.5623730639712098 0  0.1259235199396141 0.5622408701746455 0  0.1889310391419028 0.5620979266820383 0  0.2519956009905923 0.5619382601070747 0  0.3151398928355399 0.5617551613053905 0  0.37838996804945 0.5615409259114958 0  0.4417763818791577 0.5612866126522628 0  0.5053355969328679 0.5609818808711815 0  0.5691118577839462 0.5606150490625941 0  0.6331599587883984 0.5601736836082816 0  0.6975498037576909 0.5596463747397589 0  0.7623745606982174 0.5590270668837335 0  0.8277656818082985 0.5583246677755538 0  0.8939198264673793 0.5575827653076039 0  0.9611436852223056 0.5569154922000289 0  1.029922051440427 0.5565591899385967 0  0 0.625 0  0.06293202112624509 0.6248767056243888 0  0.1258818883969865 0.6247478483725806 0  0.1888682231953103 0.6246075517722298 0  0.2519113760603737 0.6244492610542662 0  0.3150344139390195 0.6242653407260733 0  0.3782642715848153 0.6240465939456854 0  0.441633152867059 0.6237816787029442 0  0.5051803228534991 0.6234564072644564 0  0.5689545681694402 0.6230529529823776 0  0.6330179424342852 0.6225490949212327 0  0.6974522292847136 0.6219179180090942 0  0.7623713923028722 0.6211291561157101 0  0.8279469714223288 0.6201553991667997 0  0.8944593444083445 0.6189913293179411 0  0.9623934626682176 0.6177024496629817 0  1.032596885488794 0.616514171750602 0  0 0.6875 0  0.06289348944301909 0.6873858682367694 0  0.1258038199307628 0.6872661920595557 0  0.1887486072714183 0.6871350572603493 0  0.2517472857647318 0.6869857252212458 0  0.3148221710007526 0.686810109539868 0  0.377999729850807 0.6865981008884611 0  0.441312156588268 0.686336660238399 0  0.5047994004700616 0.6860085728174717 0  0.5685119084901051 0.6855907204045263 0  0.6325146807446748 0.6850516997954608 0  0.6968941986370709 0.6843486473736651 0  0.7617724891521463 0.6834234677226054 0  0.8273396775176415 0.6822003328589047 0  0.8939325083855127 0.6805935275900951 0  0.9622106952245554 0.6785626447972726 0  1.033493065205376 0.6763001915500799 0  0 0.75 0  0.0628381823908269 0.7499005229673782 0  0.1256913091443161 0.749795908098794 0  0.1885750510878391 0.7496806304398093 0  0.2515068542260562 0.7495482848011208 0  0.3145070010978298 0.7493910015108821 0  0.3775999074423184 0.7491986570752205 0  0.4408157562260724 0.7489577551005476 0  0.504192589904733 0.7486497882060142 0  0.5677790155665443 0.7482487842858606 0  0.6316377991544397 0.7477175579273293 0  0.6958511678687941 0.74700186577103 0  0.7605309298154382 0.7460210934003012 0  0.8258453750004836 0.7446532793792467 0  0.8921062933302288 0.7427129821354457 0  0.9600536009966604 0.739940746312593 0  1.03147792589327 0.7362630399686148 0  0 0.8125 0  0.06276802201223092 0.8124202574703407 0  0.1255482165178661 0.8123361939584666 0  0.1883533800362568 0.8122431332938148 0  0.2511978804979172 0.8121355808760047 0  0.314098620657937 0.8120066636415822 0  0.3770762455960447 0.8118473504541622 0  0.4401566993571351 0.811645310096758 0  0.5033732335929967 0.8113831808598012 0  0.5667689116385871 0.8110358831605143 0  0.6303994455152249 0.8105663552426506 0  0.6943357251142553 0.8099186149359396 0  0.7586648328803849 0.8090060211348773 0  0.8234905531903102 0.807690038524832 0  0.8889583757373122 0.8057378868606562 0  0.9554891157428063 0.8027307507467215 0  1.025540903121864 0.7978783948987418 0  0 0.875 0  0.06268580419308921 0.8749442551748811 0  0.1253802308227316 0.8748853844870217 0  0.1880923668069633 0.8748199896148569 0  0.250832492940958 0.8747440389189275 0  0.3136128365896926 0.8746524250277318 0  0.3764485447499072 0.8745383366099694 0  0.4393589846273181 0.8743923184172726 0  0.5023694864324479 0.8742008163633874 0  0.5655135761677317 0.8739438737041918 0  0.6288354079735569 0.8735914270932452 0  0.6923909009973389 0.8730972856653757 0  0.756242321010813 0.8723891580677317 0  0.8204304001702114 0.8713509163296498 0  0.8848825880604477 0.8697834454192892 0  0.9491835822867538 0.8672825459210572 0  1.012329639599621 0.8627429020254936 0  0 0.9375 0  0.06259508797375857 0.9374713273722646 0  0.1251946535843056 0.9374410140825166 0  0.1878034260618924 0.9374072715683903 0  0.2504267888729059 0.9373679657137811 0  0.3130712038887373 0.93732037235565 0  0.3757447780564858 0.9372608256693384 0  0.4384580548641512 0.9371841843928858 0  0
[...]
<PointData  Vectors="f_54"> 
<DataArray  type="Float64"  Name="f_54"  NumberOfComponents="3" format="ascii">0.0000000000000000e+00 0.0000000000000000e+00 0.0000000000000000e+00  0.0000000000000000e+00 0.0000000000000000e+00 0.0000000000000000e+00  0.0000000000000000e+00 0.0000000000000000e+00 0.0000000000000000e+00  0.0000000000000000e+00 0.0000000000000000e+00 0.0000000000000000e+00  0.0000000000000000e+00 0.0000000000000000e+00 0.0000000000000000e+00  0.0000000000000000e+00 0.0000000000000000e+00 0.0000000000000000e+00  0.0000000000000000e+00 0.0000000000000000e+00 0.0000000000000000e+00  0.0000000000000000e+00 0.0000000000000000e+00 0.0000000000000000e+00  0.0000000000000000e+00 0.0000000000000000e+00 0.0000000000000000e+00  0.0000000000000000e+00 0.0000000000000000e+00 0.0000000000000000e+00  0.0000000000000000e+00 0.0000000000000000e+00 0.0000000000000000e+00  0.0000000000000000e+00 0.0000000000000000e+00 0.0000000000000000e+00  0.0000000000000000e+00 0.0000000000000000e+00 0.0000000000000000e+00  0.0000000000000000e+00 0.0000000000000000e+00 0.0000000000000000e+00  0.0000000000000000e+00 0.0000000000000000e+00 0.0000000000000000e+00  0.0000000000000000e+00 0.0000000000000000e+00 0.0000000000000000e+00  0.0000000000000000e+00 0.0000000000000000e+00 0.0000000000000000e+00  0.0000000000000000e+00 0.0000000000000000e+00 0.0000000000000000e+00  3.5396410522351209e-06 -8.9258086745413927e-08 0.0000000000000000e+00  7.2040266833442404e-06 -1.8392630093929697e-07 0.0000000000000000e+00  1.1123660777270759e-05 -2.8986283547704476e-07 0.0000000000000000e+00  1.5435979889265151e-05 -4.1371680323688931e-07 0.0000000000000000e+00  2.0288981222242736e-05 -5.6334024795617511e-07 0.0000000000000000e+00  2.5844999192110455e-05 -7.4819023987599538e-07 0.0000000000000000e+00  3.2285028253046245e-05 -9.7967566238116348e-07 0.0000000000000000e+00  3.9814749752966250e-05 -1.2713724889356355e-06 0.0000000000000000e+00  4.8675504835105710e-05 -1.6390371416509891e-06 0.0000000000000000e+00  5.9169234122341098e-05 -2.1005411783924072e-06 0.0000000000000000e+00  7.1722984597940196e-05 -2.6767689319470108e-06 0.0000000000000000e+00  8.7068640853201588e-05 -3.3980780735377618e-06 0.0000000000000000e+00  1.0677423693756525e-04 -4.3342345764944521e-06 0.0000000000000000e+00  1.3491510645844993e-04 -5.7167221438800090e-06 0.0000000000000000e+00  1.8372114046123777e-04 -8.4289129036470279e-06 0.0000000000000000e+00  2.9455394202992322e-04 -1.6068111706896397e-05 0.0000000000000000e+00  0.0000000000000000e+00 0.0000000000000000e+00 0.0000000000000000e+00  6.9618567517837966e-06 -1.7329780277227148e-07 0.0000000000000000e+00  1.4171252459694626e-05 -3.5708481104746566e-07 0.0000000000000000e+00  2.1887130354056304e-05 -5.6273841895108761e-07 0.0000000000000000e+00  3.0382626868110157e-05 -8.0323389848644883e-07 0.0000000000000000e+00  3.9952413389557299e-05 -1.0940012048859020e-06 0.0000000000000000e+00  5.0920108999035092e-05 -1.4537937496492091e-06 0.0000000000000000e+00  6.3646097867495704e-05 -1.9054805660289726e-06 0.0000000000000000e+00  7.8536796611328058e-05 -2.4765690761486464e-06 0.0000000000000000e+00  9.6058292902191387e-05 -3.1991196259953369e-06 0.0000000000000000e+00  1.1676191079019222e-04 -4.1085488503231529e-06 0.0000000000000000e+00  1.4134003314272145e-04 -5.2406883681886611e-06 0.0000000000000000e+00  1.7075322208276130e-04 -6.6262063647960475e-06 0.0000000000000000e+00  2.0650633529704609e-04 -8.2788978165556123e-06 0.0000000000000000e+00  2.5114676183817945e-04 -1.0154429688513272e-05 0.0000000000000000e+00  3.0857595824467426e-04 -1.1933470061053879e-05 0.0000000000000000e+00  3.8016782449731888e-04 -1.1792667612346236e-05 0.0000000000000000e+00  0.0000000000000000e+00 0.0000000000000000e+00 0.0000000000000000e+00  1.0141808585479185e-05 -2.4700112157973695e-07 0.0000000000000000e+00  2.0648537307501198e-05 -5.0885099231865401e-07 0.0000000000000000e+00  3.1901790459084471e-05 -8.0169226093331381e-07 0.0000000000000000e+00  4.4305022344500006e-05 -1.1440622371677893e-06 0.0000000000000000e+00  5.8294731173342949e-05 -1.5582355511569659e-06 0.0000000000000000e+00  7.4351451296333440e-05 -2.0716708099236097e-06 0.0000000000000000e+00  9.3010356220592661e-05 -2.7184688275652056e-06 0.0000000000000000e+00  1.1487123291163042e-04 -3.5405699339417801e-06 0.0000000000000000e+00  1.4060759128132686e-04 -4.5880825347524665e-06 0.0000000000000000e+00  1.7097450847402111e-04 -5.9175229860245257e-06 0.0000000000000000e+00  2.0681297137371992e-04 -7.5856181565167749e-06 0.0000000000000000e+00  2.4903830995554841e-04 -9.6341489682700345e-06 0.0000000000000000e+00  2.9855714018054222e-04 -1.2057009034845583e-05 0.0000000000000000e+00  3.5590212605072320e-04 -1.4733663418855990e-05 0.0000000000000000e+00  4.1990419986673663e-04 -1.7319291959658491e-05 0.0000000000000000e+00  4.8370289789750962e-04 -1.9254956073756120e-05 0.0000000000000000e+00  0.0000000000000000e+00 0.0000000000000000e+00 0.0000000000000000e+00  1.2960703385163836e-05 -3.0599564132004465e-07 0.0000000000000000e+00  2.6394614278791416e-05 -6.3010361304844953e-07 0.0000000000000000e+00  4.0796343254310657e-05 -9.9206146164681179e-07 0.0000000000000000e+00  5.6690513031923206e-05 -1.4147226461202446e-06 0.0000000000000000e+00  7.4647159144498881e-05 -1.9259044914838730e-06 0.0000000000000000e+00  9.5296793563623536e-05 -2.5605329911579634e-06 0.0000000000000000e+00  1.1934439197986610e-04 -3.3630773501441051e-06 0.0000000000000000e+00  1.4758067426332716e-04 -4.3900750913532162e-06 0.0000000000000000e+00  1.8088724153997483e-04 -5.7121310233966786e-06 0.0000000000000000e+00  2.2022819543991422e-04 -7.4139098219688492e-06 0.0000000000000000e+00  2.6661172755309973e-04 -9.5889262907415706e-06 0.0000000000000000e+00  3.2098336583881671e-04 -1.2322669924067585e-05 0.0000000000000000e+00  3.8396182743471205e-04 -1.5651765663223717e-05 0.0000000000000000e+00  4.5522244996158397e-04 -1.9477647494938871e-05 0.0000000000000000e+00  5.3217140917366816e-04 -2.3401141107523302e-05 0.0000000000000000e+00  6.0756260653208809e-04 -2.6419034060829460e-05 0.0000000000000000e+00  0.0000000000000000e+00 0.0000000000000000e+00 0.0000000000000000e+00  1.5309701173001773e-05 -3.4703312244479654e-07 0.0000000000000000e+00  3.1187865137665498e-05 -7.1401534522466642e-07 0.0000000000000000e+00  4.8228346586356504e-05 -1.1227229291113041e-06 0.0000000000000000e+00  6.7063682870852764e-05 -1.5985787997458755e-06 0.0000000000000000e+00  8.8385254375961011e-05 -2.1729534609950925e-06 0.0000000000000000e+00  1.1296350622903712e-04 -2.8860499333594119e-06 0.0000000000000000e+00  1.4166737141226555e-04 -3.7905663351877420e-06 0.0000000000000000e+00  1.7548073832961822e-04 -4.9562413064238297e-06 0.0000000000000000e+00  2.1551124428565666e-04 -6.4751016380506469e-06 0.0000000000000000e+00  2.6298159839624073e-04 -8.4664957803107634e-06 0.0000000000000000e+00  3.1918365536939624e-04 -1.1079315540998300e-05 0.0000000000000000e+00  3.8535655484571484e-04 -1.4485287615471584e-05 0.0000000000000000e+00  4.6241782476378625e-04 -1.8850455882049627e-05 0.0000000000000000e+00  5.5043400021272441e-04 -2.4260317338905619e-05 0.0000000000000000e+00  6.4770922969518063e-04 -3.0556902610607442e-05 0.0000000000000000e+00  7.4955168576075904e-04 -3.7027666730481991e-05 0.0000000000000000e+00  0.0000000000000000e+00 0.0000000000000000e+00 0.0000000000000000e+00  1.7093992500541090e-05 -3.6831596035455456e-07 0.0000000000000000e+00  3.4834494715215956e-05 -7.5675944557832642e-07 0.0000000000000000e+00  5.3896485318335406e-05 -1.1872949022978117e-06 0.0000000000000000e+00  7.5002524568467411e-05 -1.6857196757583820e-06 0.0000000000000000e+00  9.8948191627780459e-05 -2.2842393935702528e-06 0.0000000000000000e+00  1.2662873544656334e-04 -3.0249430263288813e-06 0.0000000000000000e+00  1.5906662446044944e-04 -3.9646603526593835e-06 0.0000000000000000e+00  1.9743857506921783e-04 -5.1818273954976264e-06 0.0000000000000000e+00  2.4309848482778780e-04 -6.7860932474764212e-06 0.0000000000000000e+00  2.9758865530682513e-04 -8.9313010444779590e-06 0.0000000000000000e+00  3.6262454722375500e-04 -1.1831734683500521e-05 0.0000000000000000e+00  4.4002698448443038e-04 -1.5779182372289138e-05 0.0000000000000000e+00  5.3156167329329856e-04 -2.1152540289458640e-05 0.0000000000000000e+00  6.3864045747265470e-04 -2.8399207577179997e-05 0.0000000000000000e+00  7.6187830511248303e-04 -3.7944406955060702e-05 0.0000000000000000e+00  9.0065592102934187e-04 -4.9948158271453713e-05 0.0000000000000000e+00  0.0000000000000000e+00 0.0000000000000000e+00 0.0000000000000000e+00  1.8236996572149134e-05 -3.6971834729950671e-07 0.0000000000000000e+00  3.7177076507085423e-05 -7.5801944804230730e-07 0.0000000000000000e+00  5.7553748261031338e-05 -1.1850878785258393e-06 0.0000000000000000e+00  8.0156568443543860e-05 -1.6746296401830245e-06 0.0000000000000000e+00  1.0586198381326213e-04 -2.2563884225382355e-06 0.0000000000000000e+00  1.3566722372456591e-04 -2.9697816499801710e-06 0.0000000000000000e+00  1.7072809550906559e-04 -3.8694227245103632e-06 0.0000000000000000e+00  2.1240113801875905e-04 -5.0337463749228488e-06 0.0000000000000000e+00  2.6228971870385963e-04 -6.5786620511315356e-06 0.0000000000000000e+00  3.2229198150705943e-04 -8.6791952812599696e-06 0.0000000000000000e+00  3.9464578169686994e-04 -1.1603391518280963e-05 0.0000000000000000e+00  4.8196235566183202e-04 -1.5763888667033232e-05 0.0000000000000000e+00  5.8723997850465722e-04 -2.1791978032882209e-05 0.0000000000000000e+00  7.1386353232711687e-04 -3.0633066662493616e-05 0.0000000000000000e+00  8.6565741468182223e-04 -4.3645439427063760e-05 0.0000000000000000e+00  1.0472291041289054e-03 -6.2653523459596359e-05 0.0000000000000000e+00  0.0000000000000000e+00 0.0000000000000000e+00 0.0000000000000000e+00  1.8684507988492860e-05 -3.5283696458131329e-07 0.0000000000000000e+00  3.8103163564418782e-05 -7.2115300659116936e-07 0.0000000000000000e+00  5.9021165895834629e-05 -1.1215323105688270e-06 0.0000000000000000e+00  8.2266798094299593e-05 -1.5731838974890653e-06 0.0000000000000000e+00  1.0876708484975073e-04 -2.0999387680030210e-06 0.0000000000000000e+00  1.3958868002622281e-04 -2.7333442467472266e-06 0.0000000000000000e+00  1.7598636464148765e-04 -3.5177550441973892e-06 0.0000000000000000e+00  2.1946216899812303e-04 -4.5190292098562129e-06 0.0000000000000000e+00  2.7183907951154666e-04 -5.8397388220950623e-06 0.0000000000000000e+00  3.3535474714916784e-04 -7.6461652645696237e-06 0.0000000000000000e+00  4.1278305263902119e-04 -1.0216528351150279e-05 0.0000000000000000e+00  5.0759611970156032e-04 -1.4026972895794389e-05 0.0000000000000000e+00  6.2419043361022417e-04 -1.9902876564000740e-05 0.0000000000000000e+00  7.6823083327879542e-04 -2.9278249056800431e-05 0.0000000000000000e+00  9.4725373351996884e-04 -4.4625844350317447e-05 0.0000000000000000e+00  1.1719216437899684e-03 -7.0167450550107891e-05 0.0000000000000000e+00  0.0000000000000000e+00 0.0000000000000000e+00 0.0000000000000000e+00  1.8408466387877656e-05 -3.2081253909933894e-07 0.0000000000000000e+00  3.7553293621039040e-05 -6.5286486653309909e-07 0.0000000000000000e+00  5.8201045868309030e-05 -1.0077871746459587e-06 0.0000000000000000e+00  8.1185822804034517e-05 -1.3984003748997715e-06 0.0000000000000000e+00  1.0744825589113572e-04 -1.8397114710049612e-06 0.0000000000000000e+00  1.3808174315089555e-04 -2.3506378848778410e-06 0.0000000000000000e+00  1.7438979931359199e-04 -2.9572025185696083e-06 0.0000000000000000e+00  2.1796013373932927e-04 -3.6986878993244984e-06 0.0000000000000000e+00  2.7076401191294296e-04 -4.6397687905763294e-06 0.0000000000000000e+00  3.3529447834816423e-04 -5.8948045472650607e-06 0.0000000000000000e+00  4.1476564131255204e-04 -7.6770310794726403e-06 0.0000000000000000e+00  5.1341008476424516e-04 -1.0398931559416484e-05 0.0000000000000000e+00  6.3693753031407734e-04 -1.4877383973148507e-05 0.0000000000000000e+00  7.9326754446685372e-04 -2.2749563494163303e-05 0.0000000000000000e+00  9.9376761855494490e-04 -3.7299493245029073e-05 0.0000000000000000e+00  1.2555940581493116e-03 -6.5075623505117934e-05 0.0000000000000000e+00  0.0000000000000000e+00 0.0000000000000000e+00 0.0000000000000000e+00  1.7409898542370733e-05 -2.7789681927517037e-07 0.0000000000000000e+00  3.5527408331879425e-05 -5.6231059598287109e-07 0.0000000000000000e+00  5.5088011326216303e-05 -8.5933010475027660e-07 0.0000000000000000e+00  7.6895554458833177e-05 -1.1744854960404656e-06 0.0000000000000000e+00  1.0186228229742976e-04 -1.5123994833125724e-06 0.0000000000000000e+00  1.3105740948473918e-04 -1.8764707253751481e-06 0.0000000000000000e+00  1.6576914460006507e-04 -2.2688357496476458e-06 0.0000000000000000e+00  2.0758767938156442e-04 -2.6912964324567843e-06 0.0000000000000000e+00  2.5852130454347589e-04 -3.1489587748337604e-06 0.0000000000000000e+00  3.2116626029402831e-04 -3.6608912073882570e-06 0.0000000000000000e+00  3.9896653384127723e-04 -4.2884063632766831e-06 0.0000000000000000e+00  4.9662878525108458e-04 -5.2072898234522802e-06 0.0000000000000000e+00  6.2081042678287658e-04 -6.8897977163342759e-06 0.0000000000000000e+00  7.8129054122607526e-04 -1.0559115841412145e-05 0.0000000000000000e+00  9.9298801533747216e-04 -1.9296010288644536e-05 0.0000000000000000e+00  1.2795620572275638e-03 -4.0602118747860119e-05 0.0000000000000000e+00  0.0000000000000000e+00 0.0000000000000000e+00 0.0000000000000000e+00  1.5720543372579711e-05 -2.2879852715597843e-07 0.0000000000000000e+00  3.2088589064103778e-05 -4.5968470668141828e-07 0.0000000000000000e+00  4.9775865944309839e-05 -6.9356469593256036e-07 0.0000000000000000e+00  6.9519030273910003e-05 -9.2909578726027278e-07 0.0000000000000000e+00  9.2157913358799107e-05 -1.1609559242259805e-06 0.0000000000000000e+00  1.1868251411056331e-04 -1.3772963245437834e-06 0.0000000000000000e+00  1.5029387093559328e-04 -1.5559113066741568e-06 0.0000000000000000e+00  1.8848684824432170e-04 -1.6584969029480121e-06 0.0000000000000000e+00  2.3516826787293825e-04 -1.6222403186640946e-06 0.0000000000000000e+00  2.9283428740628828e-04 -1.3481933261012486e-06 0.0000000000000000e+00  3.6485225332975017e-04 -6.8761200748158972e-07 0.0000000000000000e+00  4.5593755048862767e-04 5.6494078461873778e-07 0.0000000000000000e+00  5.7301410213613110e-04 2.6333882924181263e-06 0.0000000000000000e+00  7.2685178980505928e-04 5.5299224228912282e-06 0.0000000000000000e+00  9.3521376365945973e-04 8.1318320806110870e-06 0.0000000000000000e+00  1.2285054606040366e-03 5.4398013827566894e-06 0.0000000000000000e+00  0.0000000000000000e+00 0.0000000000000000e+00 0.0000000000000000e+00  1.3402749161876011e-05 -1.7791256710312349e-07 0.0000000000000000e+00  2.7363164544900853e-05 -3.5451448452454281e-07 0.0000000000000000e+00  4.2458532904861128e-05 -5.2680716917424118e-07 0.0000000000000000e+00  5.9323306042946574e-05 -6.8834210255869466e-07 0.0000000000000000e+00  7.8682705198440878e-05 -8.2646042348662207e-07 0.0000000000000000e+00  1.0139408986341643e-04 -9.1800602076472312e-07 0.0000000000000000e+00  1.2850051637987154e-04 -9.2239466374840969e-07 0.0000000000000000e+00  1.6130332029941558e-04 -7.7012746444974372e-07 0.0000000000000000e+00  2.0146510022607102e-04 -3.4334027944215798e-07 0.0000000000000000e+00  2.5116377036735595e-04 5.5791704798928503e-07 0.0000000000000000e+00  3.1333931968196248e-04 2.2757032436794323e-06 0.0000000000000000e+00  3.9212716619325190e-04 5.4035714265381079e-06 0.0000000000000000e+00  4.9371278872396666e-04 1.0985485494027080e-05 0.0000000000000000e+00  6.2823781418863819e-04 2.0836232855041291e-05 0.0000000000000000e+00  8.1446242845172490e-04 3.7664533835617906e-05 0.0000000000000000e+00  1.0905989086887611e-03 6.1528918745613602e-05 0.0000000000000000e+00  0.0000000000000000e+00 0.0000000000000000e+00 0.0000000000000000e+00  1.0547424018908593e-05 -1.2859397711666724e-07 0.0000000000000000e+00  2.1536663083351249e-05 -2.5402430246393216e-07 0.0000000000000000e+00  3.3424043567272535e-05 -3.7131641222293375e-07 0.0000000000000000e+00  4.6711538839951629e-05 -4.7167651289817288e-07 0.0000000000000000e+00  6.1973352878025030e-05 -5.3938257749331695e-07 0.0000000000000000e+00  7.9888379529178408e-05 -5.4685747455364637e-07 0.0000000000000000e+00  1.0128155879712643e-04 -4.4651440729933328e-07 0.0000000000000000e+00  1.2717839788851324e-04 -1.5686908457849832e-07 0.0000000000000000e+00  1.5887900447748637e-04 4.6175195983591016e-07 0.0000000000000000e+00  1.9806196733903551e-04 1.6511025385078891e-06 0.0000000000000000e+00  2.4693820327197156e-04 3.8379712973041737e-06 0.0000000000000000e+00  3.0850606034846522e-04 7.8015392529846464e-06 0.0000000000000000e+00  3.8707552720140538e-04 1.5043641997905539e-05 0.0000000000000000e+00  4.8968580811616980e-04 2.8710427318645835e-05 0.0000000000000000e+00  6.3073368860174720e-04 5.6198977687466528e-05 0.0000000000000000e+00  8.4619683820089261e-04 1.1726844380820738e-04 0.0000000000000000e+00  0.0000000000000000e+00 0.0000000000000000e+00 0.0000000000000000e+00  7.2700820712263297e-06 -8.2654593254721562e-08 0.0000000000000000e+00  1.4845669672711787e-05 -1.6198537209441969e-07 0.0000000000000000e+00  2.3041620443874254e-05 -2.3316049801052519e-07 0.0000000000000000e+00  3.2204223313542163e-05 -2.8811648127201686e-07 0.0000000000000000e+00  4.2729238925171210e-05 -3.1291156733095915e-07 0.0000000000000000e+00  5.5083569253199558e-05 -2.8350746693879123e-07 0.0000000000000000e+00  6.9832045104208500e-05 -1.5876267840978694e-07 0.0000000000000000e+00  8.7670840588337278e-05 1.3148825026573237e-07 0.0000000000000000e+00  1.0946829143387014e-04 7.0708385347671761e-07 0.0000000000000000e+00  1.3631082204981738e-04 1.7739258123950974e-06 0.0000000000000000e+00  1.6954233813204611e-04 3.6894827099725991e-06 0.0000000000000000e+00  2.1076300432225793e-04 7.0850879255026661e-06 0.0000000000000000e+00  2.6172900273811745e-04 1.3114682008518650e-05 0.0000000000000000e+00  3.2430508533257753e-04 2.4077737316552200e-05 0.0000000000000000e+00  4.0302836695125025e-04 4.5672059697682750e-05 0.0000000000000000e+00  5.2989845725452027e-04 9.8493251173954066e-05 0.0000000000000000e+00  0.0000000000000000e+00 0.0000000000000000e+00 0.0000000000000000e+00  3.7052891129497889e-06 -4.0220622653457204e-08 0.0000000000000000e+00  7.5662455113946768e-06 -7.8379917132823628e-08 0.0000000000000000e+00  1.1743007561518730e-05 -1.1156677930135765e-07 0.0000000000000000e+00  1.6411515647855774e-05 -1.3503599468632668e-07 0.0000000000000000e+00  2.1772436166784745e-05 -1.4070762910420879e-07 0.0000000000000000e+00  2.8061667763076785e-05 -1.1478071385373325e-07 0.0000000000000000e+00  3.5562854521849388e-05 -3.3796034410160092e-08 0.0000000000000000e+00  4.4621869369404352e-05 1.4195854423436509e-07 0.0000000000000000e+00  5.5661543594373143e-05 4.7948647275617837e-07 0.0000000000000000e+00  6.9189289845378958e-05 1.0911053607441163e-06 0.0000000000000000e+00  8.5771399290707936e-05 2.1614010619418728e-06 0.0000000000000000e+00  1.0588156121369177e-04 3.9755398645298666e-06 0.0000000000000000e+00  1.2928575609121501e-04 6.8863270222918516e-06 0.0000000000000000e+00  1.5270904986125144e-04 1.0890348438825226e-05 0.0000000000000000e+00  1.6177786989052649e-04 1.3427949606895635e-05 0.0000000000000000e+00  1.1516166399046228e-04 3.0242080817375821e-06 0.0000000000000000e+00  0.0000000000000000e+00 0.0000000000000000e+00 0.0000000000000000e+00  0.0000000000000000e+00 0.0000000000000000e+00 0.0000000000000000e+00  0.0000000000000000e+00 0.0000000000000000e+00 0.0000000000000000e+00  0.0000000000000000e+00 0.0000000000000000e+00 0.0000000000000000e+00  0.0000000000000000e+00 0.0000000000000000e+00 0.0000000000000000e+00  0.0000000000000000e+00 0.0000000000000000e+00 0.0000000000000000e+00  0.0000000000000000e+00 0.0000000000000000e+00 0.0000000000000000e+00  0.0000000000000000e+00 0.0000000000000000e+00 0.0000000000000000e+00  0.0000000000000000e+00 0.0000000000000000e+00 0.0000000000000000e+00  0.0000000000000000e+