<?xml version="1.0"?>
<VTKFile type="UnstructuredGrid"  version="0.1"  >
<UnstructuredGrid>
<Piece  NumberOfPoints="289" NumberOfCells="512">
<Points>
<DataArray  type="Float64"  NumberOfComponents="3"  format="ascii">0 0 0  0.0625 0 0  0.125 0 0  0.1875 0 0  0.25 0 0  0.3125 0 0  0.375 0 0  0.4375 0 0  0.5 0 0  0.5625 0 0  0.625 0 0  0.6875 0 0  0.75 0 0  0.8125 0 0  0.875 0 0  0.9375 0 0  1 0 0  0 0.0625 0  0.0624746523754079 0.0624694421984554 0  0.124949187680479 0.06243834858008698 0  0.1874235321706941 0.06240622273114299 0  0.2498978356034595 0.06237268340673006 0  0.3123726257788002 0.06233753882575534 0  0.3748490259854441 0.06230087951136653 0  0.4373290737173205 0.06226319057050755 0  0.4998162042267415 0.06222547646942866 0  0.5623160167530546 0.06218937716126809 0  0.6248375665145079 0.06215723109403239 0  0.6873957341547882 0.06213200682065945 0  0.7500160273687172 0.06211698631312612 0  0.812745334882933 0.06211507116178919 0  0.8756779966987353 0.06212773491856546 0  0.939021123897856 0.06215473684393943 0  1.003245734878669 0.06220529643922343 0  0 0.125 0  0.06244944379949014 0.1249393944414559 0  0.124898564531065 0.1248776587626216 0  0.1873471228377306 0.1248137356146461 0  0.2497953070229881 0.1247467844874503 0  0.3122440317560061 0.1246763260173012 0  0.3746953604322828 0.1246024280020983 0  0.4371531230024329 0.1245259392462543 0  0.4996238412299158 0.1244487642502736 0  0.5621181511225125 0.1243741461519127 0  0.6246530684329655 0.1243068801660713 0  0.6872557595616874 0.1242533088637225 0  0.7499700934911423 0.1242208592193189 0  0.8128682569407792 0.1242168237852443 0  0.8760705217953619 0.1242462914887171 0  0.9397732144972529 0.1243102864551318 0  1.004270610418891 0.124407323479152 0  0 0.1875 0  0.06242466651045428 0.1874104664630884 0  0.1248486173187538 0.1873191026016538 0  0.1872712470674872 0.1872241715374609 0  0.2496925258181818 0.1871242256661815 0  0.3121134065190321 0.1870183095682222 0  0.374536404777107 0.1869062346602558 0  0.4369664433481836 0.1867889447210231 0  0.4994120916737607 0.1866689787678912 0  0.5618873897919813 0.1865510081732689 0  0.6244145332571188 0.1864423641981259 0  0.6870278027509521 0.1863533568877531 0  0.7497791576519439 0.1862969733414662 0  0.812745491122461 0.1862871238084892 0  0.8760354998300072 0.1863335948450808 0  0.9397881876595786 0.1864287506743502 0  1.004145616253355 0.1865102426307318 0  0 0.25 0  0.06240079540884957 0.2498833719855515 0  0.1248002255790319 0.2497640752230109 0  0.1871970394605168 0.2496395349055752 0  0.2495906217224746 0.2495074901737709 0  0.3119814548159203 0.2493662331414131 0  0.37437178714729 0.249214955141761 0  0.4367666110227369 0.2490542416676372 0  0.4991750825098534 0.2488867543735785 0  0.5616125419511088 0.2487181196557424 0  0.6241032951632836 0.2485579898306931 0  0.6866842271820865 0.2484211202662952 0  0.7494089826851208 0.248328052951481 0  0.8123515146076552 0.2483045112067302 0  0.8756057356154471 0.2483777561975918 0  0.9392747207350246 0.2485670492375593 0  1.003441236866936 0.2488663407675042 0  0 0.3125 0  0.06237853833133709 0.3123589589998501 0  0.124754777111482 0.3122142642771735 0  0.1871265056643044 0.312062328791055 0  0.2494920996579466 0.3118998364786216 0  0.311850971279089 0.3117239798639501 0  0.3742042457988655 0.3115328391825851 0  0.4365557790528342 0.3113259739697175 0  0.4989136573054105 0.3111053152187335 0  0.5612923343374503 0.3108764577088965 0  0.6237155235704774 0.3106504393591225 0  0.6862197992499277 0.3104460170830849 0  0.7488584373805568 0.3102922282792673 0  0.8117041870364654 0.3102305361896056 0  0.8748484673258169 0.3103149607242773 0  0.938394036208562 0.3106073861749368 0  1.002442281696309 0.3111645738527434 0  0 0.375 0  0.06235884536940764 0.3748382159032374 0  0.1247141972709875 0.3746716712102043 0  0.1870625930974503 0.3744956111065478 0  0.2494009853471307 0.3743054241235144 0  0.3117271051062361 0.3740968241952763 0  0.3740400576409975 0.3738661953340219 0  0.4363412809027539 0.3736111992217049 0  0.4986360415880784 0.3733317922483735 0  0.5609356827039783 0.3730318602098527 0  0.6232608371782155 0.3727217468762806 0  0.6856457132916455 0.3724219911149115 0  0.7481432281973635 0.3721684993005724 0  0.8108301252107145 0.3720189582572074 0  0.8738104515437508 0.3720592123838887 0  0.9372160063293832 0.3724063533520606 0  1.001206382559135 0.373202884295576 0  0 0.4375 0  0.06234287159940063 0.4373222449329526 0  0.1246808796675773 0.4371385652007204 0  0.1870091004808188 0.4369429458257706 0  0.2493227321607211 0.4367292954753362 0  0.3116172910756241 0.4364915058593332 0  0.3738890233132232 0.4362236663610374 0  0.4361356802491471 0.4359205510908674 0  0.4983578882601246 0.4355785724890147 0  0.5605614535761358 0.4351975193415981 0  0.6227610703794048 0.434783583564501 0  0.68498599026325 0.4343544271811033 0  0.747288138590457 0.4339472718786693 0  0.8097527289776854 0.4336309279317919 0  0.8725105385022837 0.4335216532374752 0  0.9357503743230409 0.433799823275442 0  0.9997328766660077 0.4347198812549356 0  0 0.5 0  0.06233189226617158 0.4998121964453948 0  0.1246575150154101 0.4996173538331675 0  0.1869704187139845 0.4994082171146943 0  0.2492638767911116 0.4991771531136824 0  0.3115308345755263 0.498916018127221 0  0.3737640180968769 0.4986161312240546 0  0.4359563568015161 0.4982684598001557 0  0.4981020031498979 0.4978642196998698 0  0.5601984514685355 0.4973962681314725 0  0.6222506054748472 0.4968619830147597 0  0.6842781265025012 0.4962688608626756 0  0.7463278976847395 0.4956448886696807 0  0.8084935414732448 0.4950566821892854 0  0.8709427683595597 0.4946384250563335 0  0.9339504036247369 0.4946310851579337 0  0.9979341861698985 0.4954211855982983 0  0 0.5625 0  0.06232717428562359 0.5623091625907648 0  0.1246468238878823 0.5621103643347969 0  0.1869511066949941 0.5618952877959938 0  0.2492314384017927 0.5616548869210374 0  0.3114781267437554 0.5613790099837244 0  0.3736800558901745 0.5610560318438419 0  0.4358245424359213 0.560672552059775 0  0.4978976476863247 0.5602133006605453 0  0.5598855599154284 0.5596615748645197 0  0.6217782888715896 0.5590009144781836 0  0.6835780221710605 0.5582195282795017 0  0.7453161779597449 0.5573206061067505 0  0.8070849928527015 0.5563446013607185 0  0.8690892905280885 0.5554134935122813 0  0.9317173829047791 0.5548069908973053 0  0.99561472177291 0.5550643150912046 0  0 0.625 0  0.06232981361597995 0.6248140369618572 0  0.1246512103675645 0.6246195463032888 0  0.1869553209776387 0.624407511635042 0  0.2492320694409974 0.624167845903788 0  0.3114694612900565 0.6238887552525617 0  0.3736527531647276 0.6235559806391363 0  0.4357635309464314 0.6231518847755902 0  0.4977788698165563 0.6226543854262704 0  0.559671113757842 0.6220358391152148 0  0.6214096589644869 0.6212622691510757 0  0.6829679633005429 0.6202941212718512 0  0.7443426301307481 0.6190918446523586 0  0.805597405957022 0.6176350660292129 0  0.8669508232945407 0.6159766536964075 0  0.928919851923364 0.6143701171170531 0  0.992503833830804 0.6134874186658125 0  0 0.6875 0  0.06234055517159837 0.68732735675971 0  0.1246723692203732 0.6871461293368855 0  0.1869861441857354 0.686947149439558 0  0.2492710027691642 0.6867199173606333 0  0.3115134638206711 0.6864517491413532 0  0.3736960934157111 0.6861266655668121 0  0.4357956986713143 0.6857238833138993 0  0.4977809728183689 0.6852157171237495 0  0.5596097221684648 0.6845646409550223 0  0.6212265553055584 0.6837192297854552 0  0.6825640720488473 0.6826089132850464 0  0.7435562146236836 0.6811387420922124 0  0.8041856178381275 0.6791909449019335 0  0.8646113374043646 0.6766622493502951 0  0.9254325680267504 0.6736416908038749 0  0.9880650202129869 0.6708578389604253 0  0 0.75 0  0.06235962011658119 0.7498491534427048 0  0.1247108990890498 0.7496902914848121 0  0.18704489592844 0.7495147829847082 0  0.2493509088471672 0.7493125575280637 0  0.3116152571100452 0.7490711398651964 0  0.3738195533473588 0.7487743287594687 0  0.4359381449506426 0.748400294181214 0  0.4979342545244503 0.7479187342723717 0  0.5597541974894009 0.7472864958357571 0  0.6213191235531504 0.746440622921916 0  0.6825148781740626 0.7452869787886063 0  0.7431857410084393 0.7436811927399877 0  0.8031563098310649 0.7413974970757206 0  0.8623654395648084 0.7380893690778931 0  0.9213532351104035 0.7333416912892834 0  0.9818172642930251 0.7278582352339346 0  0 0.8125 0  0.06238657250509029 0.8123788432965695 0  0.1247659936400237 0.812250908904141 0  0.1871305540357352 0.8121088528707661 0  0.2494708699385273 0.8119439858034381 0  0.3117746721159854 0.8117453442936761 0  0.3740250003215642 0.8114983851975468 0  0.4361973493918271 0.8111830504548284 0  0.498254968909251 0.8107707894798891 0  0.5601408863816916 0.8102198251685055 0  0.6217641209680242 0.8094673381302526 0  0.6829759165272532 0.8084158493749628 0  0.7435307862927046 0.8069075062401507 0  0.8030343427085993 0.8046701014549681 0  0.8609347056393952 0.8011911359635644 0  0.9169388547829772 0.7954019068312473 0  0.975006445889416 0.7847557125608701 0  0 0.875 0  0.0624202595301851 0.8749151876932341 0  0.124835291842696 0.8748254554028658 0  0.1872394429494653 0.8747254491256193 0  0.2496257578355967 0.8746087729873764 0  0.3119850140361551 0.8744672586414514 0  0.3743042367418847 0.8742899243833123 0  0.436564256732559 0.8740614178986554 0  0.498735466885522 0.8737596172332205 0  0.5607700633807698 0.8733518707804101 0  0.6225871302140316 0.872789039744446 0  0.6840425399970507 0.8719959027821361 0  0.7448655874340075 0.8708547391296539 0  0.8045218874663539 0.8691713512165167 0  0.8619176904103694 0.8665765787716596 0  0.9148036567055766 0.8621573857161005 0  0.9588337704044965 0.853020633681179 0  0 0.9375 0  0.06245885280222919 0.9374563426213882 0  0.1249149555246649 0.9374100985362082 0  0.187365331185476 0.9373584459803553 0  0.2498063023794793 0.9372979957187667 0  0.3122329665982146 0.9372243901202607 0  0.374638381298726 0.9371317293239921 0  0.4370122029354705 0.93701
[...]
<PointData  Vectors="f_54"> 
<DataArray  type="Float64"  Name="f_54"  NumberOfComponents="3" format="ascii">0.0000000000000000e+00 0.0000000000000000e+00 0.0000000000000000e+00  0.0000000000000000e+00 0.0000000000000000e+00 0.0000000000000000e+00  0.0000000000000000e+00 0.0000000000000000e+00 0.0000000000000000e+00  0.0000000000000000e+00 0.0000000000000000e+00 0.0000000000000000e+00  0.0000000000000000e+00 0.0000000000000000e+00 0.0000000000000000e+00  0.0000000000000000e+00 0.0000000000000000e+00 0.0000000000000000e+00  0.0000000000000000e+00 0.0000000000000000e+00 0.0000000000000000e+00  0.0000000000000000e+00 0.0000000000000000e+00 0.0000000000000000e+00  0.0000000000000000e+00 0.0000000000000000e+00 0.0000000000000000e+00  0.0000000000000000e+00 0.0000000000000000e+00 0.0000000000000000e+00  0.0000000000000000e+00 0.0000000000000000e+00 0.0000000000000000e+00  0.0000000000000000e+00 0.0000000000000000e+00 0.0000000000000000e+00  0.0000000000000000e+00 0.0000000000000000e+00 0.0000000000000000e+00  0.0000000000000000e+00 0.0000000000000000e+00 0.0000000000000000e+00  0.0000000000000000e+00 0.0000000000000000e+00 0.0000000000000000e+00  0.0000000000000000e+00 0.0000000000000000e+00 0.0000000000000000e+00  0.0000000000000000e+00 0.0000000000000000e+00 0.0000000000000000e+00  0.0000000000000000e+00 0.0000000000000000e+00 0.0000000000000000e+00  1.4553815936787884e-06 1.1460241236920089e-07 0.0000000000000000e+00  2.9226392308974187e-06 2.3054062731818086e-07 0.0000000000000000e+00  4.4103134179186036e-06 3.4895216069384949e-07 0.0000000000000000e+00  5.9169452482795004e-06 4.7033372891344703e-07 0.0000000000000000e+00  7.4245302238372174e-06 5.9414967237148031e-07 0.0000000000000000e+00  8.8899293394115267e-06 7.1836949007167989e-07 0.0000000000000000e+00  1.0233265974620121e-05 8.3895425588524473e-07 0.0000000000000000e+00  1.1321824016408820e-05 9.4937322386574626e-07 0.0000000000000000e+00  1.1946626780650927e-05 1.0403474991499865e-06 0.0000000000000000e+00  1.1785226192739499e-05 1.1002405193127684e-06 0.0000000000000000e+00  1.0333870369479337e-05 1.1170024257846387e-06 0.0000000000000000e+00  6.7614219041553670e-06 1.0838965713510999e-06 0.0000000000000000e+00  -4.5985959850624672e-07 1.0156560378175650e-06 0.0000000000000000e+00  -1.4622072309953130e-05 9.9868650247585127e-07 0.0000000000000000e+00  -4.4243896858315833e-05 1.3699158891984015e-06 0.0000000000000000e+00  -1.1560852830341292e-04 3.4418182751903454e-06 0.0000000000000000e+00  0.0000000000000000e+00 0.0000000000000000e+00 0.0000000000000000e+00  2.8962676385296707e-06 2.2766290296096389e-07 0.0000000000000000e+00  5.8209609651535523e-06 4.5830023684042236e-07 0.0000000000000000e+00  8.7963884904058742e-06 6.9451587707219026e-07 0.0000000000000000e+00  1.1826177583786797e-05 9.3769370169900352e-07 0.0000000000000000e+00  1.4882969274198012e-05 1.1872285984442720e-06 0.0000000000000000e+00  1.7892236724563425e-05 1.4395843932339287e-06 0.0000000000000000e+00  2.0710556977297478e-05 1.6871871982277473e-06 0.0000000000000000e+00  2.3096108567527097e-05 1.9172597767669600e-06 0.0000000000000000e+00  2.4667859154161300e-05 2.1108777475487849e-06 0.0000000000000000e+00  2.4846677569756726e-05 2.2428160398401048e-06 0.0000000000000000e+00  2.2763702927269240e-05 2.2831715997174009e-06 0.0000000000000000e+00  1.7102978046402595e-05 2.2021967325417765e-06 0.0000000000000000e+00  5.8079458340940621e-06 1.9794857218371354e-06 0.0000000000000000e+00  -1.4467683653274393e-05 1.6129574940858428e-06 0.0000000000000000e+00  -4.9173134169661165e-05 1.0846161994463651e-06 0.0000000000000000e+00  -1.0539224738111025e-04 7.3285147051008446e-09 0.0000000000000000e+00  0.0000000000000000e+00 0.0000000000000000e+00 0.0000000000000000e+00  4.3047490486043602e-06 3.3743718411581025e-07 0.0000000000000000e+00  8.6632080868006793e-06 6.8006255251731601e-07 0.0000000000000000e+00  1.3121214171734506e-05 1.0325764074466679e-06 0.0000000000000000e+00  1.7699718701961525e-05 1.3980135435881690e-06 0.0000000000000000e+00  2.2378142160096610e-05 1.7766391063486181e-06 0.0000000000000000e+00  2.7072269659358822e-05 2.1645206556032601e-06 0.0000000000000000e+00  3.1604572752905329e-05 2.5517245932461099e-06 0.0000000000000000e+00  3.5664637534782151e-05 2.9201858941462710e-06 0.0000000000000000e+00  3.8757124442248208e-05 3.2414974480556571e-06 0.0000000000000000e+00  4.0134312973595207e-05 3.4751967144089695e-06 0.0000000000000000e+00  3.8709936450936602e-05 3.5685777666138296e-06 0.0000000000000000e+00  3.2952556701090810e-05 3.4594248108054312e-06 0.0000000000000000e+00  2.0770109467066098e-05 3.0826914790817508e-06 0.0000000000000000e+00  -5.3755175056392080e-07 2.3797838788388890e-06 0.0000000000000000e+00  -3.3933995883729623e-05 1.3062934333983131e-06 0.0000000000000000e+00  -8.0863168032799739e-05 -1.2941870729839401e-07 0.0000000000000000e+00  0.0000000000000000e+00 0.0000000000000000e+00 0.0000000000000000e+00  5.6543243422645316e-06 4.4161878783139810e-07 0.0000000000000000e+00  1.1399227006071474e-05 8.9141566436294400e-07 0.0000000000000000e+00  1.7317067559822442e-05 1.3570535822406068e-06 0.0000000000000000e+00  2.3462612703864925e-05 1.8443113128092735e-06 0.0000000000000000e+00  2.9843979179327727e-05 2.3557407813575510e-06 0.0000000000000000e+00  3.6396690391920582e-05 2.8888061425547361e-06 0.0000000000000000e+00  4.2948271598574342e-05 3.4333348899560711e-06 0.0000000000000000e+00  4.9170915729713383e-05 3.9681740120420744e-06 0.0000000000000000e+00  5.4520494517323087e-05 4.4571222964206142e-06 0.0000000000000000e+00  5.8162323995929122e-05 4.8445946096047497e-06 0.0000000000000000e+00  5.8889229536788460e-05 5.0521582518389209e-06 0.0000000000000000e+00  5.5049383820065026e-05 4.9780540477525114e-06 0.0000000000000000e+00  4.4529392178504915e-05 4.5027116989447365e-06 0.0000000000000000e+00  2.4902973625142843e-05 3.5029585639791035e-06 0.0000000000000000e+00  -6.0109322290589520e-06 1.8734286835642587e-06 0.0000000000000000e+00  -4.8763302400368269e-05 -4.6448912714758031e-07 0.0000000000000000e+00  0.0000000000000000e+00 0.0000000000000000e+00 0.0000000000000000e+00  6.9071613030903298e-06 5.3714706711909873e-07 0.0000000000000000e+00  1.3954484159833192e-05 1.0863230455095150e-06 0.0000000000000000e+00  2.1275264881461466e-05 1.6591424990176530e-06 0.0000000000000000e+00  2.8976881320417614e-05 2.2654518702075852e-06 0.0000000000000000e+00  3.7121728102804840e-05 2.9119265280488765e-06 0.0000000000000000e+00  4.5699943126762841e-05 3.5999450008163960e-06 0.0000000000000000e+00  5.4590602181156960e-05 4.3223991228314241e-06 0.0000000000000000e+00  6.3508039112746681e-05 5.0590597207578031e-06 0.0000000000000000e+00  7.1930847366979736e-05 5.7701815923805147e-06 0.0000000000000000e+00  7.9014062897359250e-05 6.3883712605162310e-06 0.0000000000000000e+00  8.3491995397807762e-05 6.8096696881874039e-06 0.0000000000000000e+00  8.3593389632663492e-05 6.8867747759624407e-06 0.0000000000000000e+00  7.7016664257522355e-05 6.4307375583389836e-06 0.0000000000000000e+00  6.1054974759465271e-05 5.2319836592004522e-06 0.0000000000000000e+00  3.3011424580322160e-05 3.1150182556854873e-06 0.0000000000000000e+00  -8.9529621990775978e-06 4.0378466607314784e-08 0.0000000000000000e+00  0.0000000000000000e+00 0.0000000000000000e+00 0.0000000000000000e+00  8.0131054942544752e-06 6.2013303427400931e-07 0.0000000000000000e+00  1.6227646662684977e-05 1.2569261629680323e-06 0.0000000000000000e+00  2.4841433444580878e-05 1.9268851778929024e-06 0.0000000000000000e+00  3.4033129501450319e-05 2.6452980260307093e-06 0.0000000000000000e+00  4.3946106105018105e-05 3.4250476168331075e-06 0.0000000000000000e+00  5.4663046912706902e-05 4.2745560495002787e-06 0.0000000000000000e+00  6.6166881851052633e-05 5.1943245484707319e-06 0.0000000000000000e+00  7.8282843716528507e-05 6.1713107451942907e-06 0.0000000000000000e+00  9.0596328240690594e-05 7.1701623317322357e-06 0.0000000000000000e+00  1.0234302164741751e-04 8.1203077297347710e-06 0.0000000000000000e+00  1.1227358507646373e-04 8.8986274162069032e-06 0.0000000000000000e+00  1.1850809995805777e-04 9.3100347742058561e-06 0.0000000000000000e+00  1.1841796367003834e-04 9.0746270977498281e-06 0.0000000000000000e+00  1.0860151176015461e-04 7.8416828161152034e-06 0.0000000000000000e+00  8.5032879324347543e-05 5.2653198854666146e-06 0.0000000000000000e+00  4.3408532509638220e-05 1.1823903247250502e-06 0.0000000000000000e+00  0.0000000000000000e+00 0.0000000000000000e+00 0.0000000000000000e+00  8.9108525363643134e-06 6.8595066051117976e-07 0.0000000000000000e+00  1.8092591698361716e-05 1.3936853120440137e-06 0.0000000000000000e+00  2.7817648554537232e-05 2.1452620569739083e-06 0.0000000000000000e+00  3.8351577110381896e-05 2.9625560329848880e-06 0.0000000000000000e+00  4.9943288001229648e-05 3.8666494776369325e-06 0.0000000000000000e+00  6.2805767307064328e-05 4.8763669828921208e-06 0.0000000000000000e+00  7.7081650745360582e-05 6.0052800328381674e-06 0.0000000000000000e+00  9.2785849205950582e-05 7.2560414035504232e-06 0.0000000000000000e+00  1.0971507765474249e-04 8.6102005968932193e-06 0.0000000000000000e+00  1.2731270178918617e-04 1.0010752574488859e-05 0.0000000000000000e+00  1.4447922977774290e-04 1.1334078946486875e-05 0.0000000000000000e+00  1.5932840983529060e-04 1.2349352971280879e-05 0.0000000000000000e+00  1.6891124711839245e-04 1.2671049616278120e-05 0.0000000000000000e+00  1.6896252709029926e-04 1.1730797194896960e-05 0.0000000000000000e+00  1.5373281517234747e-04 8.8317121545109086e-06 0.0000000000000000e+00  1.1586215399785415e-04 3.3836984542551788e-06 0.0000000000000000e+00  0.0000000000000000e+00 0.0000000000000000e+00 0.0000000000000000e+00  9.5315793115401372e-06 7.2953242241218068e-07 0.0000000000000000e+00  1.9405516767579389e-05 1.4859548315178397e-06 0.0000000000000000e+00  2.9972632179372321e-05 2.2969975273760329e-06 0.0000000000000000e+00  4.1594420122385559e-05 3.1916770483813597e-06 0.0000000000000000e+00  5.4643472501045999e-05 4.2006490709108158e-06 0.0000000000000000e+00  6.9495650450432974e-05 5.3559836083972151e-06 0.0000000000000000e+00  8.6507622545264936e-05 6.6897258506622019e-06 0.0000000000000000e+00  1.0596944636444051e-04 8.2299552788332591e-06 0.0000000000000000e+00  1.2801624903192442e-04 9.9918055926925212e-06 0.0000000000000000e+00  1.5247613605918299e-04 1.1958663544813921e-05 0.0000000000000000e+00  1.7862550924440152e-04 1.4045254455867130e-05 0.0000000000000000e+00  2.0482458218114516e-04 1.6030527624442564e-05 0.0000000000000000e+00  2.2802831416735204e-04 1.7449837703284160e-05 0.0000000000000000e+00  2.4322443311455854e-04 1.7459675304722200e-05 0.0000000000000000e+00  2.4290704630452691e-04 1.4760571320230445e-05 0.0000000000000000e+00  2.1655197523813975e-04 7.7699183145536479e-06 0.0000000000000000e+00  0.0000000000000000e+00 0.0000000000000000e+00 0.0000000000000000e+00  9.8051311221050647e-06 7.4588079977361281e-07 0.0000000000000000e+00  2.0017487039515439e-05 1.5230378556105795e-06 0.0000000000000000e+00  3.1060884163113415e-05 2.3642095003587281e-06 0.0000000000000000e+00  4.3391421787052894e-05 3.3051297806343361e-06 0.0000000000000000e+00  5.7511705235100602e-05 4.3861326811737558e-06 0.0000000000000000e+00  7.3980418731459981e-05 5.6537611763678382e-06 0.0000000000000000e+00  9.3411398412352714e-05 7.1620890194212969e-06 0.0000000000000000e+00  1.1645084942147200e-04 8.9728818952764048e-06 0.0000000000000000e+00  1.4371205644862116e-04 1.1152304352428891e-05 0.0000000000000000e+00  1.7563244617107513e-04 1.3758557887648932e-05 0.0000000000000000e+00  2.1219825911196255e-04 1.6807569434489481e-05 0.0000000000000000e+00  2.5246365375627104e-04 2.0189739391890185e-05 0.0000000000000000e+00  2.9379758822673739e-04 2.3490045283504404e-05 0.0000000000000000e+00  3.3088031537860217e-04 2.5658724910399446e-05 0.0000000000000000e+00  3.5469443230482975e-04 2.4577309904479271e-05 0.0000000000000000e+00  3.5192328541480445e-04 1.6860673052245387e-05 0.0000000000000000e+00  0.0000000000000000e+00 0.0000000000000000e+00 0.0000000000000000e+00  9.6685360390273098e-06 7.3075979571597684e-07 0.0000000000000000e+00  1.9792138249080186e-05 1.4956644260187462e-06 0.0000000000000000e+00  3.0850808020732908e-05 2.3308693161037658e-06 0.0000000000000000e+00  4.3379893270594625e-05 3.2771353703859024e-06 0.0000000000000000e+00  5.8000537538063710e-05 4.3827161537976687e-06 0.0000000000000000e+00  7.5451883091610152e-05 5.7070330900545558e-06 0.0000000000000000e+00  9.6621905214598424e-05 7.3255079860368793e-06 0.0000000000000000e+00  1.2256786710536415e-04 9.3358550847588568e-06 0.0000000000000000e+00  1.5450558697249406e-04 1.1865510726931877e-05 0.0000000000000000e+00  1.9372445597338914e-04 1.5077339446015866e-05 0.0000000000000000e+00  2.4134645995949001e-04 1.9162427043123279e-05 0.0000000000000000e+00  2.9778916159135479e-04 2.4284689632003443e-05 0.0000000000000000e+00  3.6173349013988326e-04 3.0381000526391572e-05 0.0000000000000000e+00  4.2844503850478363e-04 3.6602478018976290e-05 0.0000000000000000e+00  4.8775072320594490e-04 4.0144377606255055e-05 0.0000000000000000e+00  5.2248987653910498e-04 3.4760765622263341e-05 0.0000000000000000e+00  0.0000000000000000e+00 0.0000000000000000e+00 0.0000000000000000e+00  9.0761393903966733e-06 6.8146926337985431e-07 0.0000000000000000e+00  1.8627262679429918e-05 1.3976948429294894e-06 0.0000000000000000e+00  2.9160354808907588e-05 2.1857747781546615e-06 0.0000000000000000e+00  4.1258187349391111e-05 3.0885082573978204e-06 0.0000000000000000e+00  5.5625876276084568e-05 4.1582148699662976e-06 0.0000000000000000e+00  7.3147989512583995e-05 5.4620306957605217e-06 0.0000000000000000e+00  9.4958539019441001e-05 7.0897868649779513e-06 0.0000000000000000e+00  1.2252236571923912e-04 9.1663857458144445e-06 0.0000000000000000e+00  1.5771597252485674e-04 1.1871925330771069e-05 0.0000000000000000e+00  2.0287063529560525e-04 1.5474390585165357e-05 0.0000000000000000e+00  2.6068486215380550e-04 2.0378812667010597e-05 0.0000000000000000e+00  3.3380016464709439e-04 2.7180833767368329e-05 0.0000000000000000e+00  4.2363292778662841e-04 3.6633545150755436e-05 0.0000000000000000e+00  5.2782560147968843e-04 4.9131040573539199e-05 0.0000000000000000e+00  6.3629946354286403e-04 6.2442904656341181e-05 0.0000000000000000e+00  7.2971309801481274e-04 6.8565862280634826e-05 0.0000000000000000e+00  0.0000000000000000e+00 0.0000000000000000e+00 0.0000000000000000e+00  8.0100581431529098e-06 5.9754943928702323e-07 0.0000000000000000e+00  1.6477681810719731e-05 1.2277089822376799e-06 0.0000000000000000e+00  2.5896397868419242e-05 1.9254388393681432e-06 0.0000000000000000e+00  3.6848202492686427e-05 2.7316418612033946e-06 0.0000000000000000e+00  5.0062191545262496e-05 3.6972023870401466e-06 0.0000000000000000e+00  6.6493101032781481e-05 4.8887066915753007e-06 0.0000000000000000e+00  8.7429708610938664e-05 6.3972551878990822e-06 0.0000000000000000e+00  1.1464457202310870e-04 8.3532160627203828e-06 0.0000000000000000e+00  1.5059426246218273e-04 1.0953090878421523e-05 0.0000000000000000e+00  1.9866376774240176e-04 1.4512200182753074e-05 0.0000000000000000e+00  2.6339599894421395e-04 1.9572845665133364e-05 0.0000000000000000e+00  3.5049908790371723e-04 2.7125455183253017e-05 0.0000000000000000e+00  4.6604668153420745e-04 3.9019915628349643e-05 0.0000000000000000e+00  6.1338467076536927e-04 5.8469426687990183e-05 0.0000000000000000e+00  7.8450071652520119e-04 8.8704599131386033e-05 0.0000000000000000e+00  9.5624134378278840e-04 1.0868874477590204e-04 0.0000000000000000e+00  0.0000000000000000e+00 0.0000000000000000e+00 0.0000000000000000e+00  6.4890752761769705e-06 4.8124286662707025e-07 0.0000000000000000e+00  1.3375400491702564e-05 9.9007425419703114e-07 0.0000000000000000e+00  2.1091290171082775e-05 1.5561038541107142e-06 0.0000000000000000e+00  3.0157417965583990e-05 2.2141722362738627e-06 0.0000000000000000e+00  4.1244860224508122e-05 3.0077806660685684e-06 0.0000000000000000e+00  5.5263606932619935e-05 3.9937224295181973e-06 0.0000000000000000e+00  7.3494793711633593e-05 5.2487512020874590e-06 0.0000000000000000e+00  9.7793088931678973e-05 6.8800024464723564e-06 0.0000000000000000e+00  1.3089849768124849e-04 9.0435207703464387e-06 0.0000000000000000e+00  1.7690972343576143e-04 1.1983535671200948e-05 0.0000000000000000e+00  2.4196580399966485e-04 1.6131008341442119e-05 0.0000000000000000e+00  3.3509267177067375e-04 2.2377202058031462e-05 0.0000000000000000e+00  4.6878712753613787e-04 3.2852779457500697e-05 0.0000000000000000e+00  6.5759100457747101e-04 5.3112668592486397e-05 0.0000000000000000e+00  9.0814199422842540e-04 9.8536469543474041e-05 0.0000000000000000e+00  1.1577806686813414e-03 2.2618238943676250e-04 0.0000000000000000e+00  0.0000000000000000e+00 0.0000000000000000e+00 0.0000000000000000e+00  4.5737530390828294e-06 3.3758101776149545e-07 0.0000000000000000e+00  9.4420423134475562e-06 6.9516387672566050e-07 0.0000000000000000e+00  1.4927678520854065e-05 1.0941911423738578e-06 0.0000000000000000e+00  2.1425805200745058e-05 1.5598770954651131e-06 0.0000000000000000e+00  2.9456957826935307e-05 2.1234706753792282e-06 0.0000000000000000e+00  3.9746335663532873e-05 2.8248587511438404e-06 0.0000000000000000e+00  5.3349191736549245e-05 3.7151496583347565e-06 0.0000000000000000e+00  7.1857062729546126e-05 4.8578659008058664e-06 0.0000000000000000e+00  9.7746764096003533e-05 6.3249964921132102e-06 0.0000000000000000e+00  1.3498270710061251e-04 8.1796631293042697e-06 0.0000000000000000e+00  1.9006399534056388e-04 1.0433351973775333e-05 0.0000000000000000e+00  2.7381646693321163e-04 1.2987323942157244e-05 0.0000000000000000e+00  4.0426379289950970e-04 1.5728496148133434e-05 0.0000000000000000e+00  6.1032438309770295e-04 1.9591695145108711e-05 0.0000000000000000e+00  9.3261346825018634e-04 3.0998861220358141e-05 0.0000000000000000e+00  1.4059555407975814e-03 7.3832793947377318e-05 0.0000000000000000e+00  0.0000000000000000e+00 0.0000000000000000e+00 0.0000000000000000e+00  2.3657203532859902e-06 1.7406199869206589e-07 0.0000000000000000e+00  4.8886763685979469e-06 3.5863803094936711e-07 0.0000000000000000e+00  7.7420268464290560e-06 5.6498039310258915e-07 0.0000000000000000e+00  1.1140010150841410e-05 8.0627905221092046e-07 0.0000000000000000e+00  1.5368973972767291e-05 1.0986955569459151e-06 0.0000000000000000e+00  2.0835175190883166e-05 1.4622190341498668e-06 0.0000000000000000e+00  2.8143293724472439e-05 1.9204037803764549e-06 0.0000000000000000e+00  3.8231743156071444e-05 2.4958784952749051e-06 0.0000000000000000e+00  5.2615333702817410e-05 3.1918461413176891e-06 0.0000000000000000e+00  7.3834568561073938e-05 3.9290898120987387e-06 0.0000000000000000e+00  1.0630040633842227e-04 4.3435617503285342e-06 0.0000000000000000e+00  1.5783819808113709e-04 3.1543929986892511e-06 0.0000000000000000e+00  2.4207678604602973e-04 -3.7137931746368853e-06 0.0000000000000000e+00  3.7960729564638483e-04 -2.7915460997095596e-05 0.0000000000000000e+00  5.8524621384114649e-04 -9.5162477237143163e-05 0.0000000000000000e+00  8.1477632901387129e-04 -2.2552831104877253e-04 0.0000000000000000e+00  0.0000000000000000e+00 0.0000000000000000e+00 0.0000000000000000e+00  0.0000000000000000e+00 0.0000000000000000e+00 0.0000000000000000e+00  0.0000000000000000e+00 0.0000000000000000e+00 0.0000000000000000e+00  0.0000000000000000e+00 0.0000000000000000e+00 0.0000000000000000e+00  0.0000000000000000e+00 0.0000000000000000e+00 0.0000000000000000e+00  0.0000000000000000e+00 0.0000000000000000e+00 0.0000000000000000e+00  0.0000000000000000e+00 0.0000000000000000e+00 0.0000000000000000e+00  0.0000000000000000e+00 0.0000000000000000e+00 0.0000000000000000e+00  0.0000000000000000e+00 0.0000000000000000e+00 0.0000000000000000e+00  0.0000000000000000e+00 0.0000000000000000e+00 0.0000000000000000e+00  0.0000000000000000e+00 0.0000000000000000e+00 0.0000000000000000e+00  0.0000000000000000e+00 0.0000000000000000e+00 0.000000000000000