<?xml version="1.0"?>
<VTKFile type="UnstructuredGrid"  version="0.1"  >
<UnstructuredGrid>
<Piece  NumberOfPoints="289" NumberOfCells="512">
<Points>
<DataArray  type="Float64"  NumberOfComponents="3"  format="ascii">0 0 0  0.0625 0 0  0.125 0 0  0.1875 0 0  0.25 0 0  0.3125 0 0  0.375 0 0  0.4375 0 0  0.5 0 0  0.5625 0 0  0.625 0 0  0.6875 0 0  0.75 0 0  0.8125 0 0  0.875 0 0  0.9375 0 0  1 0 0  0 0.0625 0  0.06259922996812671 0.06246774443909023 0  0.1252023789741218 0.06243483756210581 0  0.1878135854146126 0.06240065468737278 0  0.2504373499582305 0.06236466311445386 0  0.3130787563793767 0.06232648197489544 0  0.375743749414308 0.06228595707777206 0  0.4384395194874781 0.06224324962382426 0  0.5011750965213211 0.06219892784672097 0  0.5639623803951158 0.06215403022474597 0  0.6268181512599252 0.06211002582558545 0  0.689768445806284 0.06206849968026701 0  0.7528590825605753 0.0620301394638851 0  0.8161833757983208 0.06199184458846219 0  0.8799614206408524 0.06193818255161917 0  0.9447860419784775 0.06181343898749829 0  1.012473490015562 0.06141658795399538 0  0 0.125 0  0.06269459603461884 0.1249360992155062 0  0.1253969041634455 0.1248708461496382 0  0.1881150692320441 0.1248029369029784 0  0.2508579607682334 0.1247312397979198 0  0.3136356126181136 0.1246549119097545 0  0.37645976909764 0.1245735507416762 0  0.4393446192656837 0.1244873842896908 0  0.5023078714443192 0.1243974883407563 0  0.5653724715343194 0.1243059905539442 0  0.6285695964206306 0.1242161657102421 0  0.6919442546139922 0.124132232017509 0  0.7555662374690059 0.1240585285011116 0  0.8195514922863673 0.1239977296248708 0  0.8841000422617301 0.1239487368278576 0  0.9495393237773788 0.1239116148762639 0  1.016233261013533 0.1239427210583911 0  0 0.1875 0  0.06278229751498707 0.187405782275305 0  0.1255758017583076 0.1873094242297446 0  0.188392341038693 0.1872088453894727 0  0.2512448022664754 0.1871021922291502 0  0.3141477657008273 0.1869880021118285 0  0.377118276713911 0.1868654298143434 0  0.4401768394767658 0.1867345527728877 0  0.5033487653871215 0.1865967594221572 0  0.5666660897398919 0.186455198163287 0  0.630170389492811 0.1863152113412084 0  0.6939169432736279 0.1861845847300329 0  0.757980470433063 0.1860732938227373 0  0.822460964187834 0.1859921985586037 0  0.8874810080912103 0.1859496224092655 0  0.9531437366358086 0.1859422983530019 0  1.019372407356974 0.185922143738784 0  0 0.25 0  0.06285885475328121 0.2498775960754331 0  0.1257319521870487 0.2497521526029454 0  0.1886343059961943 0.2496206846492534 0  0.2515822724593335 0.2494804467007344 0  0.3145943466445084 0.2493291244516803 0  0.3776921128917381 0.2491651218932639 0  0.4409014239846535 0.2489879813365241 0  0.5042538961738852 0.2487989729057855 0  0.5677888004423453 0.2486018776305225 0  0.6315553474953974 0.2484039518410433 0  0.6956150453636913 0.2482169790267411 0  0.7600428416851395 0.2480581546526705 0  0.8249232122557481 0.2479502522555657 0  0.8903316296172004 0.2479199879441094 0  0.9562824395783924 0.2479927386799803 0  1.022621634226641 0.2481827643389632 0  0 0.3125 0  0.06292125816236915 0.3123524493825289 0  0.1258591984710565 0.3122008460154604 0  0.1888313736766448 0.3120411631039289 0  0.2518568979335992 0.3118695653274065 0  0.3149573681811561 0.3116825948897938 0  0.3781579573081281 0.3114774841176056 0  0.4414887516979277 0.3112526592766562 0  0.5049864010694987 0.3110085178921798 0  0.5686961011999505 0.3107485774884896 0  0.6326737689422181 0.3104810945712612 0  0.69698784254433 0.3102212103297833 0  0.7617191706289984 0.3099935364346854 0  0.8269555750446503 0.3098347497083094 0  0.8927749415400011 0.3097950889850139 0  0.9592096208283569 0.3099366317687242 0  1.026195352682115 0.3103253611016709 0  0 0.375 0  0.06296709280648327 0.3748313577337333 0  0.1259526030458806 0.3746575622642818 0  0.1889758615870491 0.3744734288857979 0  0.2520579008555027 0.3742738405242796 0  0.3152224609530289 0.3740538793165676 0  0.3784971931963797 0.3738091035304543 0  0.4419151541737474 0.3735360604426767 0  0.5055166945511551 0.3732331684475523 0  0.5693518294283593 0.3729021594110268 0  0.6334830771519796 0.3725503383086045 0  0.6979884669629426 0.3721939619299326 0  0.7629637899756343 0.3718629787935478 0  0.828522124523873 0.3716070260474659 0  0.8947877108718422 0.3715016534176656 0  0.9618827790116166 0.371652035505593 0  1.029915988646815 0.3721894406714133 0  0 0.4375 0  0.06299463505032565 0.4373154148493466 0  0.1260086473277469 0.437124551429707 0  0.1890623098073639 0.4369210121133724 0  0.2521776442074004 0.4366982605403163 0  0.3153794600724708 0.4364496384564949 0  0.3786966190892761 0.4361685209140567 0  0.4421636576915433 0.4358487151036161 0  0.5058229605692434 0.4354852769251248 0  0.5697277576979176 0.4350760287539564 0  0.6339463033641144 0.4346242235265753 0  0.6985676391530415 0.4341430066191025 0  0.7637092462928607 0.4336624967953066 0  0.8295265659782571 0.4332401642181987 0  0.8962240878112312 0.4329740917885054 0  0.964069274817717 0.4330158107787217 0  1.033419632183209 0.433575015631808 0  0 0.5 0  0.06300291848941339 0.4998057292209242 0  0.1260253691018564 0.4996041309093346 0  0.189087702238145 0.4993876446269914 0  0.2522119592348944 0.4991482914255328 0  0.3154228760246902 0.4988775139838428 0  0.3787491223332255 0.4985661105656212 0  0.4422249492045455 0.4982043590963144 0  0.5058925430727292 0.4977825136170256 0  0.5698056089330368 0.4972920106638479 0  0.6340350844467201 0.4967279953575016 0  0.6986784710317139 0.4960942267667526 0  0.7638750276627621 0.4954120688644537 0  0.82982975979433 0.4947358733228151 0  0.8968493033880979 0.4941764910096885 0  0.965393179533212 0.4939300108084964 0  1.036152178944516 0.494296441912543 0  0 0.5625 0  0.06299176544642281 0.5623033246560952 0  0.12600242914382 0.5620984809016226 0  0.1890515783804298 0.5618769409338117 0  0.2521603270950227 0.5616294353205125 0  0.3153522033807902 0.561345568823834 0  0.3786542402988506 0.5610134434498641 0  0.4420984511220608 0.5606193421526089 0  0.5057240485655691 0.5601476064674725 0  0.5695811361912611 0.5595810081351408 0  0.6337373324244249 0.5589022605212368 0  0.6982901519890933 0.5580980216503322 0  0.7633902417618719 0.5571681203549552 0  0.8292835889635767 0.5561451054443062 0  0.8963829455799029 0.5551317738354637 0  0.9653769492465663 0.5543611355265042 0  1.037386148192228 0.5542601760193252 0  0 0.625 0  0.06296177980038813 0.6248090107814178 0  0.1259410958710176 0.624609370363171 0  0.1889560101178494 0.6243919493613123 0  0.252025858486075 0.6241465619359601 0  0.3151719466791673 0.6238613435173996 0  0.3784183590765204 0.6235220160952862 0  0.4417930087187854 0.6231110166149609 0  0.5053292320620636 0.6226065029895365 0  0.5690686585637633 0.6219813626719601 0  0.6330670830184398 0.6212026425196339 0  0.6974072956658968 0.6202325848556444 0  0.7622274364171515 0.6190344389242581 0  0.8277817058158305 0.6175912038114043 0  0.8945604297735135 0.6159563649740525 0  0.9634952565733299 0.6143673113740346 0  1.036255078917629 0.6134104745150094 0  0 0.6875 0  0.06291429886868197 0.6873232384151762 0  0.1258441407957819 0.6871378434748779 0  0.1888054233222256 0.6869346181619052 0  0.2518150179294248 0.6867030690127967 0  0.3148912302116901 0.6864305826575167 0  0.3780542361545018 0.6861013626847802 0  0.4413264992550648 0.6856950045740993 0  0.5047332537138318 0.6851845529205126 0  0.5683034269312615 0.6845338624554054 0  0.6320722693144183 0.6836941363652612 0  0.6960895250430645 0.6825998746133688 0  0.7604438684618294 0.6811659871866027 0  0.8253313509610702 0.6792937335701061 0  0.8912304239745686 0.6769154092583998 0  0.9592703608102283 0.6741810978787417 0  1.031786241971346 0.6719315465093612 0  0 0.75 0  0.06285130728460657 0.7498459632332705 0  0.1257156504209004 0.7496839168251067 0  0.1886062702233854 0.7495052602678673 0  0.2515370883851257 0.7492999984196688 0  0.3145229432803784 0.7490558105169144 0  0.3775796624495048 0.7487567822847812 0  0.4407238185949759 0.7483815926752049 0  0.5039719157601122 0.747900835513592 0  0.5673386601637505 0.7472729725959347 0  0.6308341222112648 0.7464381126448765 0  0.6944609570927199 0.7453083331062411 0  0.7582188979162856 0.7437526909301969 0  0.8221462127027258 0.7415757775814 0  0.8865044911856715 0.7385011390692651 0  0.9524409463098301 0.7342701799519706 0  1.022977373387183 0.7296746813324286 0  0 0.8125 0  0.06277532302481845 0.812376546371407 0  0.1255607788008688 0.8122463511353679 0  0.1883665993953817 0.8121021300176576 0  0.2512034586074022 0.8119352957548392 0  0.3140825506875114 0.8117350585950581 0  0.3770154273595352 0.8114871591973054 0  0.4400133255037511 0.8111719864565823 0  0.5030854382541281 0.8107616774920152 0  0.5662350208103314 0.8102155186693324 0  0.6294511591649965 0.8094724438021957 0  0.6926923296355504 0.8084383538258544 0  0.7558566940346972 0.8069635072404416 0  0.8187420133367056 0.8047989752730156 0  0.8810607201107956 0.8015063132618742 0  0.9429467408035368 0.7962835475107989 0  1.009572148720543 0.7880881333693952 0  0 0.875 0  0.06268927166940262 0.8749137196964094 0  0.1253854805296399 0.8748225613237863 0  0.1880956063699135 0.8747212307091481 0  0.2508269004049494 0.8746034234659903 0  0.3135868984325388 0.8744611122471453 0  0.3763832166947231 0.8742835214290755 0  0.4392228670434379 0.8740555700924284 0  0.5021105013554007 0.8737554204084077 0  0.5650442258473014 0.8733505159096274 0  0.628005774070352 0.8727910463900238 0  0.6909373284614713 0.8719989287035311 0  0.7536865809628667 0.8708483835769807 0  0.815878381862594 0.8691271487030927 0  0.8766335179840694 0.8664349921949124 0  0.9340535620113217 0.8618243175747774 0  0.9846615469396827 0.8523811929730879 0  0 0.9375 0  0.06259636577331246 0.9374556348863886 0  0.1251962656143274 0.9374087106541299 0  0.1878032528016561 0.9373564427998639 0  0.2504210229953392 0.9372954961504794 0  0.3130534241175549 0.9372215915297674 0  0.3757043557061392 0.9371289332080025 0  0.4383774159601256 0
[...]
<PointData  Vectors="f_54"> 
<DataArray  type="Float64"  Name="f_54"  NumberOfComponents="3" format="ascii">0.0000000000000000e+00 0.0000000000000000e+00 0.0000000000000000e+00  0.0000000000000000e+00 0.0000000000000000e+00 0.0000000000000000e+00  0.0000000000000000e+00 0.0000000000000000e+00 0.0000000000000000e+00  0.0000000000000000e+00 0.0000000000000000e+00 0.0000000000000000e+00  0.0000000000000000e+00 0.0000000000000000e+00 0.0000000000000000e+00  0.0000000000000000e+00 0.0000000000000000e+00 0.0000000000000000e+00  0.0000000000000000e+00 0.0000000000000000e+00 0.0000000000000000e+00  0.0000000000000000e+00 0.0000000000000000e+00 0.0000000000000000e+00  0.0000000000000000e+00 0.0000000000000000e+00 0.0000000000000000e+00  0.0000000000000000e+00 0.0000000000000000e+00 0.0000000000000000e+00  0.0000000000000000e+00 0.0000000000000000e+00 0.0000000000000000e+00  0.0000000000000000e+00 0.0000000000000000e+00 0.0000000000000000e+00  0.0000000000000000e+00 0.0000000000000000e+00 0.0000000000000000e+00  0.0000000000000000e+00 0.0000000000000000e+00 0.0000000000000000e+00  0.0000000000000000e+00 0.0000000000000000e+00 0.0000000000000000e+00  0.0000000000000000e+00 0.0000000000000000e+00 0.0000000000000000e+00  0.0000000000000000e+00 0.0000000000000000e+00 0.0000000000000000e+00  0.0000000000000000e+00 0.0000000000000000e+00 0.0000000000000000e+00  -3.4756979552802649e-06 -2.5495092246882326e-07 0.0000000000000000e+00  -7.0354137041845881e-06 -5.1007571260741387e-07 0.0000000000000000e+00  -1.0763995474325201e-05 -7.6478911219418534e-07 0.0000000000000000e+00  -1.4740264860464376e-05 -1.0163835737072326e-06 0.0000000000000000e+00  -1.9032400034264503e-05 -1.2587991386561786e-06 0.0000000000000000e+00  -2.3691022806660708e-05 -1.4812454537304337e-06 0.0000000000000000e+00  -2.8738921282470679e-05 -1.6667592486644976e-06 0.0000000000000000e+00  -3.4155969758606609e-05 -1.7909460332775124e-06 0.0000000000000000e+00  -3.9857083056744006e-05 -1.8214196007322132e-06 0.0000000000000000e+00  -4.5659467583743484e-05 -1.7188312493656594e-06 0.0000000000000000e+00  -5.1231718202684890e-05 -1.4408209498772613e-06 0.0000000000000000e+00  -5.6007989642589592e-05 -9.5046202516893219e-07 0.0000000000000000e+00  -5.9025568708541060e-05 -2.2989131361142046e-07 0.0000000000000000e+00  -5.8572549391018424e-05 7.0529500993206198e-07 0.0000000000000000e+00  -5.1306923717498209e-05 1.8172203590278055e-06 0.0000000000000000e+00  -2.9703686719400213e-05 3.2304231172336078e-06 0.0000000000000000e+00  0.0000000000000000e+00 0.0000000000000000e+00 0.0000000000000000e+00  -6.8749402238370294e-06 -5.1025837471114027e-07 0.0000000000000000e+00  -1.3922056582496450e-05 -1.0219208679885244e-06 0.0000000000000000e+00  -2.1315623403060749e-05 -1.5349246972815616e-06 0.0000000000000000e+00  -2.9219448459446850e-05 -2.0450560215965701e-06 0.0000000000000000e+00  -3.7778523761143170e-05 -2.5414613385238741e-06 0.0000000000000000e+00  -4.7106186696082279e-05 -3.0037428895885958e-06 0.0000000000000000e+00  -5.7264710992260671e-05 -3.3987230036294614e-06 0.0000000000000000e+00  -6.8236596296389519e-05 -3.6772679354727560e-06 0.0000000000000000e+00  -7.9882661540455762e-05 -3.7720929589797096e-06 0.0000000000000000e+00  -9.1880700755082292e-05 -3.5983249967995275e-06 0.0000000000000000e+00  -1.0363324875667390e-04 -3.0598709806447161e-06 0.0000000000000000e+00  -1.1412074024646066e-04 -2.0664291632761516e-06 0.0000000000000000e+00  -1.2164650070268681e-04 -5.6866855402215173e-07 0.0000000000000000e+00  -1.2334557318442900e-04 1.3750792270135522e-06 0.0000000000000000e+00  -1.1413926444646834e-04 3.4675974617271668e-06 0.0000000000000000e+00  -8.4324909780859346e-05 4.8645216179521698e-06 0.0000000000000000e+00  0.0000000000000000e+00 0.0000000000000000e+00 0.0000000000000000e+00  -1.0106047802888304e-05 -7.6438750333725911e-07 0.0000000000000000e+00  -2.0478663683905328e-05 -1.5334334995592136e-06 0.0000000000000000e+00  -3.1388516361106669e-05 -2.3097612156022408e-06 0.0000000000000000e+00  -4.3094335967660225e-05 -3.0901044814238857e-06 0.0000000000000000e+00  -5.5832547946578583e-05 -3.8615938264290432e-06 0.0000000000000000e+00  -6.9800513985341975e-05 -4.5971639093953595e-06 0.0000000000000000e+00  -8.5130426540936841e-05 -5.2500091225028712e-06 0.0000000000000000e+00  -1.0185011761549713e-04 -5.7473772043436329e-06 0.0000000000000000e+00  -1.1982588053060829e-04 -5.9847057093193830e-06 0.0000000000000000e+00  -1.3868048417835040e-04 -5.8224093548552485e-06 0.0000000000000000e+00  -1.5767598471690895e-04 -5.0898590622162205e-06 0.0000000000000000e+00  -1.7554397312400264e-04 -3.6047819783047636e-06 0.0000000000000000e+00  -1.9023350152112098e-04 -1.2224861121299573e-06 0.0000000000000000e+00  -1.9853305569497761e-04 2.0595740757819607e-06 0.0000000000000000e+00  -1.9555170109227424e-04 5.8957306520868700e-06 0.0000000000000000e+00  -1.7435379951070826e-04 9.2116078447144766e-06 0.0000000000000000e+00  0.0000000000000000e+00 0.0000000000000000e+00 0.0000000000000000e+00  -1.3071777627483582e-05 -1.0137888336408136e-06 0.0000000000000000e+00  -2.6511392854599994e-05 -2.0383206377776112e-06 0.0000000000000000e+00  -4.0693751917381018e-05 -3.0819938063169966e-06 0.0000000000000000e+00  -5.5984515003958456e-05 -4.1461631283232933e-06 0.0000000000000000e+00  -7.2730159971039890e-05 -5.2203899505625885e-06 0.0000000000000000e+00  -9.1240191570410889e-05 -6.2761423076677391e-06 0.0000000000000000e+00  -1.1175778698064244e-04 -7.2584923705891861e-06 0.0000000000000000e+00  -1.3441426928051842e-04 -8.0756149836430031e-06 0.0000000000000000e+00  -1.5916180134841561e-04 -8.5865617577523323e-06 0.0000000000000000e+00  -1.8567770649513359e-04 -8.5892684201076523e-06 0.0000000000000000e+00  -2.1323303922970562e-04 -7.8137101432473458e-06 0.0000000000000000e+00  -2.4051810527218404e-04 -5.9305774917866651e-06 0.0000000000000000e+00  -2.6542169510453394e-04 -2.5952525236279892e-06 0.0000000000000000e+00  -2.8478214082751808e-04 2.4383670638126484e-06 0.0000000000000000e+00  -2.9421231872405319e-04 9.0818733639547140e-06 0.0000000000000000e+00  -2.8835742782557747e-04 1.6504786064982731e-05 0.0000000000000000e+00  0.0000000000000000e+00 0.0000000000000000e+00 0.0000000000000000e+00  -1.5669146587129881e-05 -1.2521378324458763e-06 0.0000000000000000e+00  -3.1812890489148694e-05 -2.5244336477919192e-06 0.0000000000000000e+00  -4.8916966788853439e-05 -3.8347952672461528e-06 0.0000000000000000e+00  -6.7465615951871897e-05 -5.1939015631150654e-06 0.0000000000000000e+00  -8.7935121905291516e-05 -6.5998767033085444e-06 0.0000000000000000e+00  -1.1077864871095845e-04 -8.0306221421629614e-06 0.0000000000000000e+00  -1.3639797073715121e-04 -9.4327462512529093e-06 0.0000000000000000e+00  -1.6509649188192196e-04 -1.0705936766849541e-05 0.0000000000000000e+00  -1.9700682127376986e-04 -1.1681838519223805e-05 0.0000000000000000e+00  -2.3198569746610059e-04 -1.2097549228874252e-05 0.0000000000000000e+00  -2.6947035892200302e-04 -1.1566763560917714e-05 0.0000000000000000e+00  -3.0829566866138249e-04 -9.5582088638672015e-06 0.0000000000000000e+00  -3.4648460774222209e-04 -5.4039940668856718e-06 0.0000000000000000e+00  -3.8105494600133318e-04 1.6178695868089105e-06 0.0000000000000000e+00  -4.0794779349403407e-04 1.2055369935587877e-05 0.0000000000000000e+00  -4.2228214971869551e-04 2.5824990178888144e-05 0.0000000000000000e+00  0.0000000000000000e+00 0.0000000000000000e+00 0.0000000000000000e+00  -1.7791234970829258e-05 -1.4698928262011971e-06 0.0000000000000000e+00  -3.6165470233298518e-05 -2.9727071179074347e-06 0.0000000000000000e+00  -5.5722031242308260e-05 -4.5397539851577755e-06 0.0000000000000000e+00  -7.7072009666470095e-05 -6.1963106400279241e-06 0.0000000000000000e+00  -1.0083875373113721e-04 -7.9565404458268507e-06 0.0000000000000000e+00  -1.2764970500539805e-04 -9.8153767883947624e-06 0.0000000000000000e+00  -1.5811456667885458e-04 -1.1735573405996118e-05 0.0000000000000000e+00  -1.9278292684812075e-04 -1.3627401325556873e-05 0.0000000000000000e+00  -2.3207250422980889e-04 -1.5317670013974663e-05 0.0000000000000000e+00  -2.7615803479098605e-04 -1.6504315967244580e-05 0.0000000000000000e+00  -3.2481245610036956e-04 -1.6693977259524139e-05 0.0000000000000000e+00  -3.7720007616068568e-04 -1.5125577038669070e-05 0.0000000000000000e+00  -4.3164090919117347e-04 -1.0698093861351876e-05 0.0000000000000000e+00  -4.8539983768873806e-04 -1.9514094842468950e-06 0.0000000000000000e+00  -5.3459538307876480e-04 1.2806439321540386e-05 0.0000000000000000e+00  -5.7432627875797016e-04 3.5103409961881309e-05 0.0000000000000000e+00  0.0000000000000000e+00 0.0000000000000000e+00 0.0000000000000000e+00  -1.9331307203191655e-05 -1.6543370823578579e-06 0.0000000000000000e+00  -3.9349159068615795e-05 -3.3570660248432975e-06 0.0000000000000000e+00  -6.0762595762509081e-05 -5.1562419060795263e-06 0.0000000000000000e+00  -8.4311005538299040e-05 -7.0967693916160259e-06 0.0000000000000000e+00  -1.1077523103374461e-04 -9.2167561208595441e-06 0.0000000000000000e+00  -1.4098140368571258e-04 -1.1540573186840581e-05 0.0000000000000000e+00  -1.7579218705545744e-04 -1.4066201404489004e-05 0.0000000000000000e+00  -2.1607718517835072e-04 -1.6742910394025899e-05 0.0000000000000000e+00  -2.6265053130027170e-04 -1.9432944897611462e-05 0.0000000000000000e+00  -3.1615999158476118e-04 -2.1847599904205860e-05 0.0000000000000000e+00  -3.7691101284722281e-04 -2.3444553119786292e-05 0.0000000000000000e+00  -4.4461714330667167e-04 -2.3272659655185273e-05 0.0000000000000000e+00  -5.1809516823173420e-04 -1.9760906080547774e-05 0.0000000000000000e+00  -5.9497578494754845e-04 -1.0484682791667949e-05 0.0000000000000000e+00  -6.7155457885487060e-04 7.9877548913043584e-06 0.0000000000000000e+00  -7.4286783666129789e-04 4.0015514071300572e-05 0.0000000000000000e+00  0.0000000000000000e+00 0.0000000000000000e+00 0.0000000000000000e+00  -2.0189346958028079e-05 -1.7902643822983851e-06 0.0000000000000000e+00  -4.1154906475063739e-05 -3.6456801108040055e-06 0.0000000000000000e+00  -6.3702195272058134e-05 -5.6329410429570315e-06 0.0000000000000000e+00  -8.8689900128874138e-05 -7.8201890240448429e-06 0.0000000000000000e+00  -1.1705502436712949e-04 -1.0276203199305917e-05 0.0000000000000000e+00  -1.4983403090156736e-04 -1.3066850261637209e-05 0.0000000000000000e+00  -1.8817514272040608e-04 -1.6246239104303322e-05 0.0000000000000000e+00  -2.3333278862441723e-04 -1.9837803524326977e-05 0.0000000000000000e+00  -2.8662875636707052e-04 -2.3796471730742898e-05 0.0000000000000000e+00  -3.4935598042824719e-04 -2.7935900274304937e-05 0.0000000000000000e+00  -4.2259254521779226e-04 -3.1792965359026363e-05 0.0000000000000000e+00  -5.0689456758787582e-04 -3.4385432786567309e-05 0.0000000000000000e+00  -6.0186929356756391e-04 -3.3806083817299680e-05 0.0000000000000000e+00  -7.0572649055726110e-04 -2.6616745801922139e-05 0.0000000000000000e+00  -8.1505295994637589e-04 -7.1038158336230908e-06 0.0000000000000000e+00  -9.2504073002600202e-04 3.3446339748128392e-05 0.0000000000000000e+00  0.0000000000000000e+00 0.0000000000000000e+00 0.0000000000000000e+00  -2.0280785256134967e-05 -1.8614040020451134e-06 0.0000000000000000e+00  -4.1402633278409368e-05 -3.8038337653236723e-06 0.0000000000000000e+00  -6.4242729829689846e-05 -5.9121442550993619e-06 0.0000000000000000e+00  -8.9756258258852156e-05 -8.2785262548815328e-06 0.0000000000000000e+00  -1.1901807052099190e-04 -1.1005807212343795e-05 0.0000000000000000e+00  -1.5326598041344439e-04 -1.4209612241973725e-05 0.0000000000000000e+00  -1.9394281020941655e-04 -1.8017566894049549e-05 0.0000000000000000e+00  -2.4272933103558809e-04 -2.2561434320379276e-05 0.0000000000000000e+00  -3.0155097731942242e-04 -2.7953205905647131e-05 0.0000000000000000e+00  -3.7252546047177390e-04 -3.4225840554483024e-05 0.0000000000000000e+00  -4.5779542116718749e-04 -4.1197892392523794e-05 0.0000000000000000e+00  -5.5916805017496474e-04 -4.8179097735138783e-05 0.0000000000000000e+00  -6.7749966609937772e-04 -5.3362904006988890e-05 0.0000000000000000e+00  -8.1192147546810430e-04 -5.2681067342010514e-05 0.0000000000000000e+00  -9.5942957585751795e-04 -3.7984054680994624e-05 0.0000000000000000e+00  -1.1157702538541173e-03 5.2115586692643252e-06 0.0000000000000000e+00  0.0000000000000000e+00 0.0000000000000000e+00 0.0000000000000000e+00  -1.9546794546557710e-05 -1.8525480459908906e-06 0.0000000000000000e+00  -3.9962972129372601e-05 -3.7984039456040672e-06 0.0000000000000000e+00  -6.2159899255821512e-05 -5.9370171833897455e-06 0.0000000000000000e+00  -8.7150244819432865e-05 -8.3813992925146287e-06 0.0000000000000000e+00  -1.1610671408910258e-04 -1.1266196871236544e-05 0.0000000000000000e+00  -1.5043039898527367e-04 -1.4757148012548528e-05 0.0000000000000000e+00  -1.9183003998048481e-04 -1.9061855636823149e-05 0.0000000000000000e+00  -2.4240919034332405e-04 -2.4440533475305855e-05 0.0000000000000000e+00  -3.0474796375898187e-04 -3.1211876906205781e-05 0.0000000000000000e+00  -3.8194371593244921e-04 -3.9739829231259335e-05 0.0000000000000000e+00  -4.7753142037007187e-04 -5.0362087293855179e-05 0.0000000000000000e+00  -5.9513235513817002e-04 -6.3155693289134924e-05 0.0000000000000000e+00  -7.3760637242330620e-04 -7.7270836747192622e-05 0.0000000000000000e+00  -9.0560827903129592e-04 -8.9219858803808342e-05 0.0000000000000000e+00  -1.0964002585208540e-03 -8.9224272423636341e-05 0.0000000000000000e+00  -1.3051061609381620e-03 -5.5889977382548870e-05 0.0000000000000000e+00  0.0000000000000000e+00 0.0000000000000000e+00 0.0000000000000000e+00  -1.7965044090311007e-05 -1.7521535640539887e-06 0.0000000000000000e+00  -3.6780519740529162e-05 -3.6035106873379067e-06 0.0000000000000000e+00  -5.7342461591184147e-05 -5.6612454331366400e-06 0.0000000000000000e+00  -8.0665346374870410e-05 -8.0512969542096873e-06 0.0000000000000000e+00  -1.0795530891934840e-04 -1.0930789519542182e-05 0.0000000000000000e+00  -1.4070239038925779e-04 -1.4504671119167552e-05 0.0000000000000000e+00  -1.8079964313730382e-04 -1.9048884761231081e-05 0.0000000000000000e+00  -2.3069602234656914e-04 -2.4943155596859356e-05 0.0000000000000000e+00  -2.9358350456926315e-04 -3.2717009302122846e-05 0.0000000000000000e+00  -3.7359723950590267e-04 -4.3111042674279415e-05 0.0000000000000000e+00  -4.7594930537276622e-04 -5.7144105776408256e-05 0.0000000000000000e+00  -6.0677871335194662e-04 -7.6126317677619395e-05 0.0000000000000000e+00  -7.7221952155967326e-04 -1.0135520535170143e-04 0.0000000000000000e+00  -9.7584761132070040e-04 -1.3247429192787274e-04 0.0000000000000000e+00  -1.2151751129696798e-03 -1.6125746704981380e-04 0.0000000000000000e+00  -1.4853155625043854e-03 -1.5971042472748216e-04 0.0000000000000000e+00  0.0000000000000000e+00 0.0000000000000000e+00 0.0000000000000000e+00  -1.5559326208735217e-05 -1.5549891898654263e-06 0.0000000000000000e+00  -3.1895287399584083e-05 -3.2064187058940834e-06 0.0000000000000000e+00  -4.9830091903519146e-05 -5.0595366365945476e-06 0.0000000000000000e+00  -7.0310318609069218e-05 -7.2411017370201050e-06 0.0000000000000000e+00  -9.4487984406200928e-05 -9.9144386272478689e-06 0.0000000000000000e+00  -1.2382919836672102e-04 -1.3300875824686536e-05 0.0000000000000000e+00  -1.6026598839332997e-04 -1.7711935093613283e-05 0.0000000000000000e+00  -2.0641250355990677e-04 -2.3599556466956951e-05 0.0000000000000000e+00  -2.6587153793858538e-04 -3.1637118316134615e-05 0.0000000000000000e+00  -3.4365263330410784e-04 -4.2854480523421346e-05 0.0000000000000000e+00  -4.4668164202745636e-04 -5.8869681183097980e-05 0.0000000000000000e+00  -5.8422465549960712e-04 -8.2288266599989354e-05 0.0000000000000000e+00  -7.6755706063365943e-04 -1.1732720812831030e-04 0.0000000000000000e+00  -1.0067544591298102e-03 -1.7023473325031857e-04 0.0000000000000000e+00  -1.2986568269460019e-03 -2.4489074490163912e-04 0.0000000000000000e+00  -1.6353059753354488e-03 -2.9949778781354760e-04 0.0000000000000000e+00  0.0000000000000000e+00 0.0000000000000000e+00 0.0000000000000000e+00  -1.2406100296676391e-05 -1.2642550610377697e-06 0.0000000000000000e+00  -2.5458073288088623e-05 -2.6123987691525297e-06 0.0000000000000000e+00  -3.9842541000291802e-05 -4.1366323990964599e-06 0.0000000000000000e+00  -5.6361089616006481e-05 -5.9499263349481717e-06 0.0000000000000000e+00  -7.6008513490001626e-05 -8.2009938996167094e-06 0.0000000000000000e+00  -1.0008292757323673e-04 -1.1096232612187253e-05 0.0000000000000000e+00  -1.3034936706112494e-04 -1.4933663572813162e-05 0.0000000000000000e+00  -1.6929174953362119e-04 -2.0157587732502091e-05 0.0000000000000000e+00  -2.2050946324661438e-04 -2.7450129935461458e-05 0.0000000000000000e+00  -2.8934531898437916e-04 -3.7892374606465547e-05 0.0000000000000000e+00  -3.8385988282641713e-04 -5.3268789708448075e-05 0.0000000000000000e+00  -5.1623069758581649e-04 -7.6699944175283983e-05 0.0000000000000000e+00  -7.0430887842485050e-04 -1.1409970526349958e-04 0.0000000000000000e+00  -9.7150212446683881e-04 -1.7776213109192422e-04 0.0000000000000000e+00  -1.3355046507612979e-03 -2.9493079168131550e-04 0.0000000000000000e+00  -1.6852389335158065e-03 -5.2374536915881804e-04 0.0000000000000000e+00  0.0000000000000000e+00 0.0000000000000000e+00 0.0000000000000000e+00  -8.6359551673055939e-06 -8.9260301949306294e-07 0.0000000000000000e+00  -1.7735144348867466e-05 -1.8472047120075234e-06 0.0000000000000000e+00  -2.7791571721795735e-05 -2.9322479693508604e-06 0.0000000000000000e+00  -3.9387967646632480e-05 -4.2325037248044239e-06 0.0000000000000000e+00  -5.3258154788545206e-05 -5.8609910935565134e-06 0.0000000000000000e+00  -7.0378034505819679e-05 -7.9765890092263529e-06 0.0000000000000000e+00  -9.2107056618895584e-05 -1.0811299294778641e-05 0.0000000000000000e+00  -1.2041915310190946e-04 -1.4713572674009406e-05 0.0000000000000000e+00  -1.5829520537345436e-04 -2.0218188832483950e-05 0.0000000000000000e+00  -2.1041292326726268e-04 -2.8160279024915868e-05 0.0000000000000000e+00  -2.8438899502187842e-04 -3.9866875608449829e-05 0.0000000000000000e+00  -3.9302621221105411e-04 -5.7515545665101632e-05 0.0000000000000000e+00  -5.5824542589277761e-04 -8.5020526009989725e-05 0.0000000000000000e+00  -8.1731540625854427e-04 -1.3112411030980690e-04 0.0000000000000000e+00  -1.2313152541960808e-03 -2.2169575323064485e-04 0.0000000000000000e+00  -1.8977173346912113e-03 -4.3821308789505166e-04 0.0000000000000000e+00  0.0000000000000000e+00 0.0000000000000000e+00 0.0000000000000000e+00  -4.4284638835867410e-06 -4.6166204457046739e-07 0.0000000000000000e+00  -9.0984539132642635e-06 -9.5620851355892477e-07 0.0000000000000000e+00  -1.4267984029208130e-05 -1.5200171575469854e-06 0.0000000000000000e+00  -2.0243248074209171e-05 -2.1983857395693942e-06 0.0000000000000000e+00  -2.7413145769124286e-05 -3.0520561602318763e-06 0.0000000000000000e+00  -3.6300759706276974e-05 -4.1668201674749708e-06 0.0000000000000000e+00  -4.7645658435063256e-05 -5.6681493147440167e-06 0.0000000000000000e+00  -6.2543215525367790e-05 -7.7434018264677332e-06 0.0000000000000000e+00  -8.2693069758085338e-05 -1.0673499052437642e-05 0.0000000000000000e+00  -1.1086490456470328e-04 -1.4868319157445371e-05 0.0000000000000000e+00  -1.5181078832151066e-04 -2.0861941338097724e-05 0.0000000000000000e+00  -2.1409066984016170e-04 -2.9063160149931534e-05 0.0000000000000000e+00  -3.1352339501344119e-04 -3.8443340385187394e-05 0.0000000000000000e+00  -4.7750954167601815e-04 -4.1469592794746713e-05 0.0000000000000000e+00  -7.3617920177095368e-04 -1.1402232753125288e-05 0.0000000000000000e+00  -1.0516618874878074e-03 9.1624220161430403e-05 0.0000000000000000e+00  0.0000000000000000e+00 0.0000000000000000e+00 0.0000000000000000e+00  0.0000000000000000e+00 0.0000000000000000e+00 0.0000000000000000e+00  0.0000000000000000e+00 0.0000000000000000e+00 0.0000000000000000e+00  0.0000000000000000e+00 0.0000000000000000e+00 0.0000000000000000e+00  0.0000000000000000e+00 0.0000000000000000e+00 0.0000000000000000e+00  0.0000000000000000e+00 0.0000000000000000e+0