<?xml version="1.0"?>
<VTKFile type="UnstructuredGrid"  version="0.1"  >
<UnstructuredGrid>
<Piece  NumberOfPoints="289" NumberOfCells="512">
<Points>
<DataArray  type="Float64"  NumberOfComponents="3"  format="ascii">0 0 0  0.0625 0 0  0.125 0 0  0.1875 0 0  0.25 0 0  0.3125 0 0  0.375 0 0  0.4375 0 0  0.5 0 0  0.5625 0 0  0.625 0 0  0.6875 0 0  0.75 0 0  0.8125 0 0  0.875 0 0  0.9375 0 0  1 0 0  0 0.0625 0  0.06250398902836128 0.06246101279812667 0  0.1250092430531503 0.06242133946080285 0  0.1875171557153395 0.06238033747643597 0  0.2500295184639436 0.06233750791494211 0  0.3125487809912679 0.06229258722898077 0  0.3750784013208011 0.06224566103025784 0  0.4376233445937071 0.06219729955791395 0  0.5001908359154801 0.06214870312898198 0  0.5627915793017226 0.06210182417632649 0  0.6254419155650756 0.06205939284670559 0  0.6881680697897196 0.06202470015190979 0  0.7510155111418501 0.06200084627476139 0  0.8140719258290292 0.06198880969965215 0  0.8775291767809629 0.06198264494076778 0  0.9418641666953003 0.06195656430655537 0  1.008407827014105 0.06182823881105516 0  0 0.125 0  0.06250671074786622 0.1249226670044409 0  0.1250157846144067 0.1248438868055468 0  0.1875298336645443 0.1247622925270992 0  0.2500522379724464 0.1246767882237187 0  0.3125876502467857 0.1245867280100785 0  0.3751426733090832 0.124492145896214 0  0.4377268150347098 0.1243940421936169 0  0.5003538922088845 0.1242947140726553 0  0.5630441927206571 0.124198081996957 0  0.6258279979310112 0.1241098995202142 0  0.6887516877171401 0.1240376301775216 0  0.7518889094329322 0.1239896374125102 0  0.8153614741003661 0.1239732640515098 0  0.8793765080317534 0.1239919388139545 0  0.9442773216856493 0.1240452228437148 0  1.010533229134409 0.1241528469694683 0  0 0.1875 0  0.06250716088187812 0.1873857488619754 0  0.125017439222771 0.1872691548874996 0  0.1875342953932186 0.1871479775365485 0  0.2500622499483301 0.1870203387424938 0  0.3126075823512998 0.1868849762214113 0  0.3751792661278038 0.1867415860896765 0  0.4377902664165845 0.1865912777124031 0  0.5004593794364491 0.1864371467985419 0  0.5632138806209664 0.1862849341225795 0  0.6260933819537636 0.1861436597595499 0  0.6891554606453466 0.1860259805547826 0  0.7524836215051103 0.1859477702377283 0  0.8161971604257011 0.1859259672343861 0  0.880457741637054 0.1859726671923742 0  0.9454521442819371 0.1860797700446006 0  1.011297197043667 0.1861729590341935 0  0 0.25 0  0.06250468006073681 0.2498511760602191 0  0.1250127486084827 0.2496989380863235 0  0.1875279901827086 0.2495399724982666 0  0.2500554220989157 0.2493713602318769 0  0.3126021141918109 0.2491908768631503 0  0.3751782897529459 0.2489974285175975 0  0.437798841473068 0.248791676045601 0  0.5004854250676937 0.2485768961061553 0  0.5632693104628129 0.248360104445731 0  0.6261951321849465 0.2481534010824127 0  0.6893254662514535 0.2479753491316186 0  0.7527454590186106 0.2478518996267553 0  0.8165648282494293 0.2478158067725151 0  0.880910171684224 0.2479024687655598 0  0.9458928757001637 0.2481387358088668 0  1.011532907231932 0.248522262912154 0  0 0.3125 0  0.0624990698390683 0.3123200353821608 0  0.1250012339287331 0.3121353989817701 0  0.187509984737508 0.3119414844028849 0  0.2500300696928305 0.3117340263873952 0  0.3125683444567282 0.3115094007318119 0  0.3751349404533597 0.3112651055394062 0  0.4377448934194271 0.3110005153008625 0  0.5004204000559767 0.310718022082578 0  0.5631938557284984 0.3104246940267645 0  0.6261117122043676 0.3101345666302392 0  0.6892388465805624 0.3098715847959312 0  0.7526623126767492 0.3096729319896073 0  0.8164917447427518 0.3095918498673989 0  0.880851300984022 0.3096978830391527 0  0.9458566735930249 0.3100708729762323 0  1.011577577207231 0.3107840695494387 0  0 0.375 0  0.06249065151250657 0.3747935900855393 0  0.1249835285413947 0.3745810948530174 0  0.1874811997451703 0.3743564185961051 0  0.2499873397437956 0.374113645363698 0  0.3125075163027968 0.3738472697717202 0  0.3750503144632407 0.3735526380553481 0  0.4376289738162432 0.3732267300644576 0  0.5002637599897006 0.3728694739828722 0  0.5629853139014964 0.3724858667568111 0  0.6258391616269166 0.3720892609490313 0  0.6888913053060352 0.3717062209004125 0  0.7522341738925065 0.3713832087323868 0  0.8159910708392805 0.3711947447104759 0  0.8803160159627227 0.3712511751705728 0  0.9453866014116915 0.371701608623022 0  1.011395334270945 0.3727250456477025 0  0 0.4375 0  0.06248025883717619 0.4372732459976351 0  0.1249613728768273 0.4370389192813467 0  0.1874444259036958 0.4367893180779505 0  0.249931278441623 0.4365166406090176 0  0.312425176034001 0.4362130605432255 0  0.3749316941851777 0.4358710048758988 0  0.4374602371195287 0.4354837884945691 0  0.5000264125731642 0.4350468621897885 0  0.562655739078839 0.4345600954221795 0  0.6253892730148538 0.4340317605199551 0  0.6882917737882887 0.4334851987637346 0  0.7514627593487939 0.4329694007981831 0  0.8150499939712571 0.4325744898059524 0  0.8792637413024433 0.4324514164084973 0  0.9443904097561875 0.4328310542140773 0  1.01081192686813 0.4340328068614396 0  0 0.5 0  0.06246916081290649 0.4997604679242772 0  0.1249374622474989 0.4995119380644916 0  0.187404103383868 0.4992451287286785 0  0.2498685605331275 0.4989502721723759 0  0.3123308939115244 0.4986169451031352 0  0.3747923410037508 0.4982340388370276 0  0.4372564422102494 0.4977900113537082 0  0.4997311311131943 0.4972736930457247 0  0.5622325302317652 0.4966761568593005 0  0.6247916611553246 0.4959945917249182 0  0.6874658824205759 0.4952398418212151 0  0.7503573829964101 0.4944503405066871 0  0.813640832827848 0.4937162106435486 0  0.8776003812869645 0.493216628079703 0  0.9426735934378643 0.4932673093125582 0  1.009506598857633 0.494361227954966 0  0 0.5625 0  0.06245891572676423 0.5622566443644814 0  0.1249151467225252 0.5620031110978194 0  0.1873658551398454 0.5617287656977312 0  0.2498078514784815 0.5614220377789786 0  0.3122374831184065 0.561069937456133 0  0.3746506787415748 0.5606575868305753 0  0.4370433704990256 0.5601678447742666 0  0.4994127701803285 0.5595812214047767 0  0.5617604722874392 0.5588765325185677 0  0.6240992748631986 0.5580332864383012 0  0.6864671589735473 0.5570379355322291 0  0.7489540560009865 0.5558984101762422 0  0.8117488756974269 0.5546753601545279 0  0.8752123563238983 0.553542985659658 0  0.9399713074786489 0.5528880700471013 0  1.007020996647578 0.5534271415322868 0  0 0.625 0  0.06245116449660364 0.6247629088399682 0  0.1248979947422288 0.6245149138509688 0  0.1873357785261665 0.6242444922353526 0  0.2497587766245211 0.6239387454227876 0  0.3121596161615376 0.6235825816454181 0  0.3745286120667115 0.6231577420390386 0  0.4368531209868601 0.6226416317893687 0  0.4991172824287906 0.6220059681958845 0  0.5613030915727945 0.6212154112896033 0  0.6233950628974589 0.6202267767506531 0  0.6853934915286058 0.618990621204583 0  0.7473465038357702 0.6174601975850803 0  0.8094188976762595 0.6156210605448216 0  0.8720201641616465 0.6135728495957415 0  0.9359937275379819 0.6117124715873347 0  1.002840417270986 0.611004681989054 0  0 0.6875 0  0.06244738160717522 0.6872799389739623 0  0.1248892539605653 0.687048901053474 0  0.1873195341633524 0.686795174519288 0  0.2497305158579588 0.6865053364037036 0  0.3121117758596845 0.6861631554824966 0  0.3744487075446524 0.6857481607167828 0  0.4367205584089775 0.6852336943431739 0  0.4988979637305651 0.6845842041600209 0  0.5609403956311102 0.683751460088511 0  0.6227952313139754 0.68266938409126 0  0.684403620896655 0.6812475990959946 0  0.7457270323870425 0.6793659933752797 0  0.8068279442077576 0.6768819029997085 0  0.8680711476419857 0.6736982179871608 0  0.9304885882662483 0.6700624021312387 0  0.9961706571341269 0.6672137434900161 0  0 0.75 0  0.06244861545416975 0.7498077665844252 0  0.1248912747913661 0.7496052842881971 0  0.1873213313605359 0.7493815331405189 0  0.2497301455878334 0.7491236438073796 0  0.3121056394311137 0.7488156556699795 0  0.3744301822953286 0.7484368129874833 0  0.4366773953024694 0.7479591034174538 0  0.4988072972113464 0.7473435671254217 0  0.5607591160573971 0.7465345877084447 0  0.6224414720531972 0.7454507921374698 0  0.6837219472396376 0.7439701228898141 0  0.744426952162403 0.7419049938710051 0  0.8043926884799615 0.7389630373407274 0  0.8637022758059836 0.7347064503544041 0  0.9234979724749985 0.7286900398515507 0  0.9863875531882758 0.7224931301763218 0  0 0.8125 0  0.06245526359802226 0.8123456390706081 0  0.1249049976571228 0.812182613914304 0  0.187342985701309 0.8120015538055754 0  0.2497610032408864 0.8117913608289833 0  0.3121472866174335 0.8115380171372578 0  0.3744841668287871 0.8112229035175945 0  0.4367442239979857 0.8108203001514545 0  0.4988838387838974 0.8102935267097143 0  0.5608321713970136 0.8095887718207189 0  0.6224722364303663 0.808624816732066 0  0.6836091084437392 0.8072748943497876 0  0.7439209390333298 0.8053318903674395 0  0.8029043489090721 0.8024346786272128 0  0.8599161143351138 0.797899588922783 0  0.914901192046277 0.7903330756633635 0  0.9750413835829482 0.7767348484193688 0  0 0.875 0  0.0624669359912696 0.8748919701303307 0  0.1249296284501615 0.8747776534484342 0  0.1873832858718091 0.8746502234348056 0  0.2498214988686456 0.8745015181471991 0  0.3122349667667293 0.8743211041561283 0  0.3746094598880224 0.8740949411681497 0  0.4369223534035409 0.8738033827577717 0  0.4991364492774429 0.8734180963981544 0  0.5611884951017464 0.8728972385592999 0  0.6229669959222397 0.872177803071868 0  0.684267850020705 0.8711631776747031 0  0.7447037139085764 0.8697010348078843 0  0.8035197813524632 0.8675337564480349 0  0.8592407753894232 0.8641452034037642 0  0.9091041271424924 0.8581981744358408 0  0.9485464524143772 0.8456003657187862 0  0 0.9375 0  0.06248245298614676 0.9374444045836452 0  0.1249626174573059 0.9373855057843331 0  0.1874379063864649 0.9373197087947065 0  0.2499048436684485 0.9372426928677002 0  0.3123583546413649 0.937148899292051 0  0.3747906120259071 0.9370307989538902 0  0.4371890279970632 0.9
[...]
<PointData  Vectors="f_54"> 
<DataArray  type="Float64"  Name="f_54"  NumberOfComponents="3" format="ascii">0.0000000000000000e+00 0.0000000000000000e+00 0.0000000000000000e+00  0.0000000000000000e+00 0.0000000000000000e+00 0.0000000000000000e+00  0.0000000000000000e+00 0.0000000000000000e+00 0.0000000000000000e+00  0.0000000000000000e+00 0.0000000000000000e+00 0.0000000000000000e+00  0.0000000000000000e+00 0.0000000000000000e+00 0.0000000000000000e+00  0.0000000000000000e+00 0.0000000000000000e+00 0.0000000000000000e+00  0.0000000000000000e+00 0.0000000000000000e+00 0.0000000000000000e+00  0.0000000000000000e+00 0.0000000000000000e+00 0.0000000000000000e+00  0.0000000000000000e+00 0.0000000000000000e+00 0.0000000000000000e+00  0.0000000000000000e+00 0.0000000000000000e+00 0.0000000000000000e+00  0.0000000000000000e+00 0.0000000000000000e+00 0.0000000000000000e+00  0.0000000000000000e+00 0.0000000000000000e+00 0.0000000000000000e+00  0.0000000000000000e+00 0.0000000000000000e+00 0.0000000000000000e+00  0.0000000000000000e+00 0.0000000000000000e+00 0.0000000000000000e+00  0.0000000000000000e+00 0.0000000000000000e+00 0.0000000000000000e+00  0.0000000000000000e+00 0.0000000000000000e+00 0.0000000000000000e+00  0.0000000000000000e+00 0.0000000000000000e+00 0.0000000000000000e+00  0.0000000000000000e+00 0.0000000000000000e+00 0.0000000000000000e+00  -2.7742047972598862e-06 -1.7166011953691198e-07 0.0000000000000000e+00  -5.6421729412449602e-06 -3.4545972683784013e-07 0.0000000000000000e+00  -8.7031298611383962e-06 -5.2325021772716590e-07 0.0000000000000000e+00  -1.2060788600030100e-05 -7.0581780754661333e-07 0.0000000000000000e+00  -1.5825721721777019e-05 -8.9215497088486370e-07 0.0000000000000000e+00  -2.0117793303089459e-05 -1.0784728027280440e-06 0.0000000000000000e+00  -2.5069005616872568e-05 -1.2568400177582732e-06 0.0000000000000000e+00  -3.0827808776099669e-05 -1.4132862707011163e-06 0.0000000000000000e+00  -3.7567781521609466e-05 -1.5250586906789764e-06 0.0000000000000000e+00  -4.5508678459963888e-05 -1.5562183890428549e-06 0.0000000000000000e+00  -5.4972361317352897e-05 -1.4490357709352501e-06 0.0000000000000000e+00  -6.6540133177560908e-05 -1.1026015936480380e-06 0.0000000000000000e+00  -8.1521014702161574e-05 -3.0826123684722053e-07 0.0000000000000000e+00  -1.0344356242838475e-04 1.4713810395215440e-06 0.0000000000000000e+00  -1.4324631578150316e-04 5.9359440299229319e-06 0.0000000000000000e+00  -2.4015138627081375e-04 1.9560145876183545e-05 0.0000000000000000e+00  0.0000000000000000e+00 0.0000000000000000e+00 0.0000000000000000e+00  -5.4515793888199853e-06 -3.4098536927209104e-07 0.0000000000000000e+00  -1.1088816024210719e-05 -6.8675554917910961e-07 0.0000000000000000e+00  -1.7107983630689680e-05 -1.0415842101889849e-06 0.0000000000000000e+00  -2.3714529831518066e-05 -1.4077786696374398e-06 0.0000000000000000e+00  -3.1127860287041930e-05 -1.7843152390337021e-06 0.0000000000000000e+00  -3.9586079671833702e-05 -2.1649694781378648e-06 0.0000000000000000e+00  -4.9351034602382987e-05 -2.5357326785722735e-06 0.0000000000000000e+00  -6.0714726687653074e-05 -2.8712709350829242e-06 0.0000000000000000e+00  -7.4009977470071398e-05 -3.1301131212196822e-06 0.0000000000000000e+00  -8.9632604229309068e-05 -3.2480624879360504e-06 0.0000000000000000e+00  -1.0809254573885072e-04 -3.1288089118456856e-06 0.0000000000000000e+00  -1.3013352465681717e-04 -2.6296930399336690e-06 0.0000000000000000e+00  -1.5700090260437397e-04 -1.5407778789029868e-06 0.0000000000000000e+00  -1.9096164067669598e-04 4.2652231486056579e-07 0.0000000000000000e+00  -2.3584032373948161e-04 3.4786021386972051e-06 0.0000000000000000e+00  -2.9414846991556874e-04 6.2737168999706948e-06 0.0000000000000000e+00  0.0000000000000000e+00 0.0000000000000000e+00 0.0000000000000000e+00  -7.9371645176289448e-06 -5.0512018318929025e-07 0.0000000000000000e+00  -1.6147851669739418e-05 -1.0185933626889613e-06 0.0000000000000000e+00  -2.4920716045786488e-05 -1.5481610576183984e-06 0.0000000000000000e+00  -3.4558561110537249e-05 -2.0990149914271659e-06 0.0000000000000000e+00  -4.5385607774131119e-05 -2.6719758765848103e-06 0.0000000000000000e+00  -5.7754443970851879e-05 -3.2609382296285705e-06 0.0000000000000000e+00  -7.2052610890010595e-05 -3.8492787351070668e-06 0.0000000000000000e+00  -8.8708940183388640e-05 -4.4049177015726058e-06 0.0000000000000000e+00  -1.0820012260765130e-04 -4.8737972899132113e-06 0.0000000000000000e+00  -1.3105850690383843e-04 -5.1718305914358763e-06 0.0000000000000000e+00  -1.5788179175492994e-04 -5.1762337599575469e-06 0.0000000000000000e+00  -1.8933887615089388e-04 -4.7196174797925688e-06 0.0000000000000000e+00  -2.2613260133648783e-04 -3.5974702475566303e-06 0.0000000000000000e+00  -2.6874525254381196e-04 -1.6204665884852018e-06 0.0000000000000000e+00  -3.1633340779072298e-04 1.2093173110563396e-06 0.0000000000000000e+00  -3.6290894440036493e-04 4.3224972991335120e-06 0.0000000000000000e+00  0.0000000000000000e+00 0.0000000000000000e+00 0.0000000000000000e+00  -1.0140796223302476e-05 -6.6031139631778548e-07 0.0000000000000000e+00  -2.0636598051050618e-05 -1.3337286242168524e-06 0.0000000000000000e+00  -3.1861162097799368e-05 -2.0328148154007587e-06 0.0000000000000000e+00  -4.4207780399253810e-05 -2.7674559983625187e-06 0.0000000000000000e+00  -5.8099265938886683e-05 -3.5428463824413123e-06 0.0000000000000000e+00  -7.3997402344956468e-05 -4.3565338051542805e-06 0.0000000000000000e+00  -9.2411369729964032e-05 -5.1940945265584130e-06 0.0000000000000000e+00  -1.1390418065509199e-04 -6.0229578285995804e-06 0.0000000000000000e+00  -1.3909510791979338e-04 -6.7839699405061128e-06 0.0000000000000000e+00  -1.6865352071204762e-04 -7.3807005720104163e-06 0.0000000000000000e+00  -2.0327289923243353e-04 -7.6677687996336261e-06 0.0000000000000000e+00  -2.4359631115124220e-04 -7.4427071407371575e-06 0.0000000000000000e+00  -2.9001996184208496e-04 -6.4532655413515339e-06 0.0000000000000000e+00  -3.4219723295691583e-04 -4.4468172716898829e-06 0.0000000000000000e+00  -3.9787352508153427e-04 -1.3107630379143796e-06 0.0000000000000000e+00  -4.5057187566475038e-04 2.6375299757372538e-06 0.0000000000000000e+00  0.0000000000000000e+00 0.0000000000000000e+00 0.0000000000000000e+00  -1.1979815814239682e-05 -8.0166901364276886e-07 0.0000000000000000e+00  -2.4387126300787702e-05 -1.6224217012684372e-06 0.0000000000000000e+00  -3.7670718659863495e-05 -2.4810663012766879e-06 0.0000000000000000e+00  -5.2304770591794990e-05 -3.3941743332742409e-06 0.0000000000000000e+00  -6.8801942553321479e-05 -4.3742207133873469e-06 0.0000000000000000e+00  -8.7726057921957141e-05 -5.4266379640014594e-06 0.0000000000000000e+00  -1.0970373077885693e-04 -6.5451913932930997e-06 0.0000000000000000e+00  -1.3543352155806116e-04 -7.7048886399943630e-06 0.0000000000000000e+00  -1.6568957976540005e-04 -8.8514629898106954e-06 0.0000000000000000e+00  -2.0131325906426267e-04 -9.8864959615699932e-06 0.0000000000000000e+00  -2.4317868354923754e-04 -1.0647917688069910e-05 0.0000000000000000e+00  -2.9210239709299410e-04 -1.0887883436187896e-05 0.0000000000000000e+00  -3.4863613747115288e-04 -1.0255460296452971e-05 0.0000000000000000e+00  -4.1263096735229661e-04 -8.3017338622946759e-06 0.0000000000000000e+00  -4.8241699432906293e-04 -4.5375903737556602e-06 0.0000000000000000e+00  -5.5355089263792146e-04 1.4274456449806048e-06 0.0000000000000000e+00  0.0000000000000000e+00 0.0000000000000000e+00 0.0000000000000000e+00  -1.3381920760929047e-05 -9.2315108593922594e-07 0.0000000000000000e+00  -2.7251939235873952e-05 -1.8723567536518973e-06 0.0000000000000000e+00  -4.2120796065552274e-05 -2.8738656988690151e-06 0.0000000000000000e+00  -5.8530812929941289e-05 -3.9527572353306195e-06 0.0000000000000000e+00  -7.7072480008437319e-05 -5.1316599686984388e-06 0.0000000000000000e+00  -9.8401242122419074e-05 -6.4283758948042156e-06 0.0000000000000000e+00  -1.2325413585058214e-04 -7.8516808524921661e-06 0.0000000000000000e+00  -1.5246529633459709e-04 -9.3941642702597926e-06 0.0000000000000000e+00  -1.8697808943359085e-04 -1.1020361530973693e-05 0.0000000000000000e+00  -2.2784908006566327e-04 -1.2647622644071967e-05 0.0000000000000000e+00  -2.7623399864773891e-04 -1.4116346429852297e-05 0.0000000000000000e+00  -3.3333643169162314e-04 -1.5146096877728062e-05 0.0000000000000000e+00  -4.0028475005485323e-04 -1.5276398973910493e-05 0.0000000000000000e+00  -4.7788683473060924e-04 -1.3798394698198511e-05 0.0000000000000000e+00  -5.6622490608089547e-04 -9.6975094000697372e-06 0.0000000000000000e+00  -6.6417855679765353e-04 -1.6427202573082214e-06 0.0000000000000000e+00  0.0000000000000000e+00 0.0000000000000000e+00 0.0000000000000000e+00  -1.4288128578016796e-05 -1.0178187395077445e-06 0.0000000000000000e+00  -2.9109965896663438e-05 -2.0691287648445998e-06 0.0000000000000000e+00  -4.5021980012654451e-05 -3.1882545271384000e-06 0.0000000000000000e+00  -6.2618354708349745e-05 -4.4100119762674417e-06 0.0000000000000000e+00  -8.2551224172249316e-05 -5.7694582215044847e-06 0.0000000000000000e+00  -1.0555214314792192e-04 -7.3007695498868232e-06 0.0000000000000000e+00  -1.3245511113964766e-04 -9.0345167263881507e-06 0.0000000000000000e+00  -1.6422132195475397e-04 -1.0992015882627500e-05 0.0000000000000000e+00  -2.0196554352319511e-04 -1.3174364750142915e-05 0.0000000000000000e+00  -2.4698351627071324e-04 -1.5541913628681484e-05 0.0000000000000000e+00  -3.0077872458902531e-04 -1.7976911952278723e-05 0.0000000000000000e+00  -3.6508501294346663e-04 -2.0217888377150224e-05 0.0000000000000000e+00  -4.4187944841944231e-04 -2.1750326368441580e-05 0.0000000000000000e+00  -5.3338430740229690e-04 -2.1638657923631284e-05 0.0000000000000000e+00  -6.4209609734727714e-04 -1.8294650381489548e-05 0.0000000000000000e+00  -7.7102848384058597e-04 -9.1856520133656390e-06 0.0000000000000000e+00  0.0000000000000000e+00 0.0000000000000000e+00 0.0000000000000000e+00  -1.4655746208066903e-05 -1.0783769762219409e-06 0.0000000000000000e+00  -2.9872687191302090e-05 -2.1973473764678155e-06 0.0000000000000000e+00  -4.6233708504432135e-05 -3.3990685589288998e-06 0.0000000000000000e+00  -6.4364867367542884e-05 -4.7282767791513773e-06 0.0000000000000000e+00  -8.4958988298456062e-05 -6.2334506038155574e-06 0.0000000000000000e+00  -1.0880172701741299e-04 -7.9676132251120368e-06 0.0000000000000000e+00  -1.3680123587824289e-04 -9.9882819038162253e-06 0.0000000000000000e+00  -1.7002302799338159e-04 -1.2355475817539078e-05 0.0000000000000000e+00  -2.0973261121184100e-04 -1.5125429928463646e-05 0.0000000000000000e+00  -2.5745045027917917e-04 -1.8335037106529376e-05 0.0000000000000000e+00  -3.1502766019553675e-04 -2.1966792536796077e-05 0.0000000000000000e+00  -3.8475771530351385e-04 -2.5874286023665168e-05 0.0000000000000000e+00  -4.6955092744797790e-04 -2.9632797515085713e-05 0.0000000000000000e+00  -5.7321964012755743e-04 -3.2261971449100681e-05 0.0000000000000000e+00  -7.0098318074706973e-04 -3.1760864427556852e-05 0.0000000000000000e+00  -8.6051560838039539e-04 -2.4400140592086228e-05 0.0000000000000000e+00  0.0000000000000000e+00 0.0000000000000000e+00 0.0000000000000000e+00  -1.4461140603954733e-05 -1.0979706204136880e-06 0.0000000000000000e+00  -2.9489976893313542e-05 -2.2423120980206191e-06 0.0000000000000000e+00  -4.5673807511333084e-05 -3.4816614781832118e-06 0.0000000000000000e+00  -6.3647134251968031e-05 -4.8694333492844151e-06 0.0000000000000000e+00  -8.4117807196588888e-05 -6.4665728223588836e-06 0.0000000000000000e+00  -1.0789677185691662e-04 -8.3446984466599339e-06 0.0000000000000000e+00  -1.3593324042418160e-04 -1.0589655612588037e-05 0.0000000000000000e+00  -1.6935805569653767e-04 -1.3305195146295521e-05 0.0000000000000000e+00  -2.0954002030881529e-04 -1.6615619721329971e-05 0.0000000000000000e+00  -2.5816426776439162e-04 -2.0663906378092536e-05 0.0000000000000000e+00  -3.1735087641162279e-04 -2.5595874662950261e-05 0.0000000000000000e+00  -3.8985031173135440e-04 -3.1506714666292548e-05 0.0000000000000000e+00  -4.7938538214923563e-04 -3.8295108534282505e-05 0.0000000000000000e+00  -5.9125818077238219e-04 -4.5314795341112739e-05 0.0000000000000000e+00  -7.3341947277718526e-04 -5.0646621108989066e-05 0.0000000000000000e+00  -9.1861647282431283e-04 -4.9713192525675574e-05 0.0000000000000000e+00  0.0000000000000000e+00 0.0000000000000000e+00 0.0000000000000000e+00  -1.3702030898137075e-05 -1.0711456806131088e-06 0.0000000000000000e+00  -2.7955056293513785e-05 -2.1920826502568548e-06 0.0000000000000000e+00  -4.3326850966991634e-05 -3.4154000823682370e-06 0.0000000000000000e+00  -6.0434275394289232e-05 -4.8003502889113370e-06 0.0000000000000000e+00  -7.9970685375386309e-05 -6.4170324634082490e-06 0.0000000000000000e+00  -1.0273773708361592e-04 -8.3517705280575051e-06 0.0000000000000000e+00  -1.2968376457330388e-04 -1.0714371715808956e-05 0.0000000000000000e+00  -1.6195198510415246e-04 -1.3648221103054557e-05 0.0000000000000000e+00  -2.0094411735021892e-04 -1.7344398467010573e-05 0.0000000000000000e+00  -2.4841040517174746e-04 -2.2060655297447279e-05 0.0000000000000000e+00  -3.0659012034622499e-04 -2.8143189343555115e-05 0.0000000000000000e+00  -3.7845830893307343e-04 -3.6037355441664864e-05 0.0000000000000000e+00  -4.6820679966786110e-04 -4.6234418989805550e-05 0.0000000000000000e+00  -5.8221765636628001e-04 -5.8995234916725416e-05 0.0000000000000000e+00  -7.3083052169403446e-04 -7.3534366181432430e-05 0.0000000000000000e+00  -9.3094194554510816e-04 -8.6111629802850296e-05 0.0000000000000000e+00  0.0000000000000000e+00 0.0000000000000000e+00 0.0000000000000000e+00  -1.2399000227016281e-05 -9.9482774896925372e-07 0.0000000000000000e+00  -2.5307897101975344e-05 -2.0396280042196482e-06 0.0000000000000000e+00  -3.9250172889976355e-05 -3.1874068184587477e-06 0.0000000000000000e+00  -5.4797551341651496e-05 -4.4989753125908265e-06 0.0000000000000000e+00  -7.2597064835656764e-05 -6.0480268194788162e-06 0.0000000000000000e+00  -9.3402864862567330e-05 -7.9279741397145693e-06 0.0000000000000000e+00  -1.1811493293740032e-04 -1.0261767338540819e-05 0.0000000000000000e+00  -1.4782764010781984e-04 -1.3216788148088868e-05 0.0000000000000000e+00  -1.8389274778988482e-04 -1.7028571904907861e-05 0.0000000000000000e+00  -2.2800559182696033e-04 -2.2040070726986898e-05 0.0000000000000000e+00  -2.8233518801591440e-04 -2.8767716702646470e-05 0.0000000000000000e+00  -3.4975597005385310e-04 -3.8009189992361702e-05 0.0000000000000000e+00  -4.3435462011166625e-04 -5.0993425270235495e-05 0.0000000000000000e+00  -5.4273507837342974e-04 -6.9452866452248679e-05 0.0000000000000000e+00  -6.8740526868937845e-04 -9.4930554826079015e-05 0.0000000000000000e+00  -8.9062611406867177e-04 -1.2919168638915316e-04 0.0000000000000000e+00  0.0000000000000000e+00 0.0000000000000000e+00 0.0000000000000000e+00  -1.0595964261862533e-05 -8.6913298290502714e-07 0.0000000000000000e+00  -2.1636486030570178e-05 -1.7846404251837405e-06 0.0000000000000000e+00  -3.3576500240119542e-05 -2.7958047863681165e-06 0.0000000000000000e+00  -4.6915254811269653e-05 -3.9598152969900724e-06 0.0000000000000000e+00  -6.2221278863787340e-05 -5.3469260443003406e-06 0.0000000000000000e+00  -8.0162022832368370e-05 -7.0474402606260941e-06 0.0000000000000000e+00  -1.0154008158915878e-04 -9.1818010555694289e-06 0.0000000000000000e+00  -1.2733820321178836e-04 -1.1916126693787139e-05 0.0000000000000000e+00  -1.5877556457303337e-04 -1.5487902696028592e-05 0.0000000000000000e+00  -1.9737844602904224e-04 -2.0252019344206201e-05 0.0000000000000000e+00  -2.4507207540733932e-04 -2.6769940677961612e-05 0.0000000000000000e+00  -3.0431964794061717e-04 -3.5992784855601453e-05 0.0000000000000000e+00  -3.7842438628473969e-04 -4.9647067583809637e-05 0.0000000000000000e+00  -4.7251696032360029e-04 -7.1027166250884325e-05 0.0000000000000000e+00  -5.9782810585103205e-04 -1.0611764570101688e-04 0.0000000000000000e+00  -7.9436021155036320e-04 -1.4975890983839546e-04 0.0000000000000000e+00  0.0000000000000000e+00 0.0000000000000000e+00 0.0000000000000000e+00  -8.3594165599717217e-06 -6.9783597969419589e-07 0.0000000000000000e+00  -1.7075544330807535e-05 -1.4346053231320238e-06 0.0000000000000000e+00  -2.6512505984737043e-05 -2.2516840182217793e-06 0.0000000000000000e+00  -3.7071615403353918e-05 -3.1973674291901119e-06 0.0000000000000000e+00  -4.9212465328277655e-05 -4.3312709295158509e-06 0.0000000000000000e+00  -6.3478248641298188e-05 -5.7300809380399415e-06 0.0000000000000000e+00  -8.0526957978130370e-05 -7.4953780145289800e-06 0.0000000000000000e+00  -1.0117008296403589e-04 -9.7646842953110027e-06 0.0000000000000000e+00  -1.2641969709639174e-04 -1.2728073549087308e-05 0.0000000000000000e+00  -1.5754236918798096e-04 -1.6656431708408359e-05 0.0000000000000000e+00  -1.9611255459322366e-04 -2.1959604173338916e-05 0.0000000000000000e+00  -2.4404908141578360e-04 -2.9330617267581899e-05 0.0000000000000000e+00  -3.0362119866020890e-04 -4.0145406756005948e-05 0.0000000000000000e+00  -3.7750999843518337e-04 -5.7640040226890433e-05 0.0000000000000000e+00  -4.6948774061110292e-04 -9.0983477183881784e-05 0.0000000000000000e+00  -5.8554728925071275e-04 -1.8547983170724854e-04 0.0000000000000000e+00  0.0000000000000000e+00 0.0000000000000000e+00 0.0000000000000000e+00  -5.7763675295116855e-06 -4.8838141656359432e-07 0.0000000000000000e+00  -1.1802502096702441e-05 -1.0048555857512499e-06 0.0000000000000000e+00  -1.8332942335672259e-05 -1.5792475664426508e-06 0.0000000000000000e+00  -2.5649266725687606e-05 -2.2464341229669255e-06 0.0000000000000000e+00  -3.4075572146702291e-05 -3.0494064414531833e-06 0.0000000000000000e+00  -4.3997335248889548e-05 -4.0429569061074608e-06 0.0000000000000000e+00  -5.5885037574084832e-05 -5.2978629562109769e-06 0.0000000000000000e+00  -7.0323943812948989e-05 -6.9046613844213403e-06 0.0000000000000000e+00  -8.8050699825195853e-05 -8.9741559407666752e-06 0.0000000000000000e+00  -1.0999459709146165e-04 -1.1627660194540714e-05 0.0000000000000000e+00  -1.3731369957123830e-04 -1.4963785398259806e-05 0.0000000000000000e+00  -1.7140141889089060e-04 -1.8990464967682411e-05 0.0000000000000000e+00  -2.1383488013018018e-04 -2.3572665242705405e-05 0.0000000000000000e+00  -2.6636528863796538e-04 -2.8724139254166305e-05 0.0000000000000000e+00  -3.3178573931420119e-04 -3.6311102286550911e-05 0.0000000000000000e+00  -4.1877176395655852e-04 -5.5212464147037041e-05 0.0000000000000000e+00  0.0000000000000000e+00 0.0000000000000000e+00 0.0000000000000000e+00  -2.9509817400860937e-06 -2.5142665963518913e-07 0.0000000000000000e+00  -6.0307059220473998e-06 -5.1758019630731602e-07 0.0000000000000000e+00  -9.3702821905878153e-06 -8.1407975858282189e-07 0.0000000000000000e+00  -1.3115170130601731e-05 -1.1591907080858400e-06 0.0000000000000000e+00  -1.7433492024553577e-05 -1.5753492788120113e-06 0.0000000000000000e+00  -2.2526331248040794e-05 -2.0908034529720832e-06 0.0000000000000000e+00  -2.8640913329763053e-05 -2.7408642223717093e-06 0.0000000000000000e+00  -3.6087655736623890e-05 -3.5669286028756096e-06 0.0000000000000000e+00  -4.5261576743283129e-05 -4.6074467148845506e-06 0.0000000000000000e+00  -5.6665522204708553e-05 -5.8631471176315405e-06 0.0000000000000000e+00  -7.0919651085953181e-05 -7.1841458997485536e-06 0.0000000000000000e+00  -8.8691305367476743e-05 -7.9315687343222434e-06 0.0000000000000000e+00  -1.1030491558972252e-04 -6.0631606946901232e-06 0.0000000000000000e+00  -1.3434653099183568e-04 3.7207807970168112e-06 0.0000000000000000e+00  -1.5464201278236057e-04 3.0284623531628856e-05 0.0000000000000000e+00  -1.6153746271441505e-04 7.2557634912645343e-05 0.0000000000000000e+00  0.0000000000000000e+00 0.0000000000000000e+00 0.0000000000000000e+00  0.0000000000000000e+00 0.0000000000000000e+00 0.0000000000000000e+00  0.0000000000000000e+00 0.0000000000000000e+00 0.0000000000000000e+00  0.0000000000000000e+00 0.0000000000000000e+00 0.0000000000000000e+00  0.0000000000000000e+00 0.0000000000000000e+00 0.0000000000000000e+00  0.0000000000000000e+00 0.0000000000