<?xml version="1.0"?>
<VTKFile type="UnstructuredGrid"  version="0.1"  >
<UnstructuredGrid>
<Piece  NumberOfPoints="289" NumberOfCells="512">
<Points>
<DataArray  type="Float64"  NumberOfComponents="3"  format="ascii">0 0 0  0.0625 0 0  0.125 0 0  0.1875 0 0  0.25 0 0  0.3125 0 0  0.375 0 0  0.4375 0 0  0.5 0 0  0.5625 0 0  0.625 0 0  0.6875 0 0  0.75 0 0  0.8125 0 0  0.875 0 0  0.9375 0 0  1 0 0  0 0.0625 0  0.06247610775700158 0.06246955680086778 0  0.1249521103197099 0.06243857912071429 0  0.187427942484112 0.06240657168330369 0  0.2499037525487078 0.06237315374045898 0  0.312380050309024 0.06233813297542771 0  0.3748579159147835 0.0623015978808566 0  0.4373393069832952 0.06226402952476343 0  0.4998275260507579 0.06222642584265253 0  0.5623279633798353 0.06219041750876723 0  0.6248493517407007 0.0621583313345517 0  0.6874060680251577 0.06213312382308524 0  0.7500227887906213 0.06211807020969747 0  0.8127448750233345 0.062116086817827 0  0.8756633746264253 0.06212873360506794 0  0.9389768800009977 0.06215610675982863 0  1.003130126350366 0.06220873825749862 0  0 0.125 0  0.06245234006712867 0.1249396221043588 0  0.1249043854920301 0.1248781170628585 0  0.187355919226221 0.1248144301305232 0  0.2498071332005719 0.124747722181152 0  0.3122589147252803 0.1246775132458996 0  0.3747132526690073 0.1246038675864915 0  0.4371738335594101 0.1245276264334526 0  0.4996469373384834 0.1244506815100504 0  0.5621428189816666 0.1243762570296603 0  0.6246779151105353 0.1243091229821112 0  0.6872785232646147 0.1242555920353222 0  0.7499871964691887 0.1242230614160515 0  0.8128740648866133 0.1242188032709662 0  0.8760560541117086 0.1242479044462112 0  0.9397240413630833 0.1243113710713313 0  1.00416521817151 0.1244073308076667 0  0 0.1875 0  0.06242897125950288 0.1874108039002725 0  0.1248572805268406 0.1873197826642063 0  0.187284368281659 0.1872252041138683 0  0.2497102255368837 0.1871256236797251 0  0.3121357846611922 0.1870200862073286 0  0.3745634770467663 0.1869083991809114 0  0.4369980479209365 0.1867914964456163 0  0.4994477563112955 0.1866718989537854 0  0.5619261469164235 0.1865542496707169 0  0.6244546675700924 0.1864458393948403 0  0.687066512687403 0.1863569254655198 0  0.749812110208645 0.186300432766277 0  0.8127662612319281 0.1862902064999683 0  0.8760349622782566 0.1863359746289596 0  0.9397542536636949 0.1864300569677836 0  1.004064753085322 0.1865101132120245 0  0 0.25 0  0.06240644973319183 0.2498838136043393 0  0.124811624806038 0.2497649666386753 0  0.1872143565280766 0.2496408919591574 0  0.2496140843351784 0.2495093344850837 0  0.3120112987950996 0.2493685888821945 0  0.3744081838376819 0.2492178439479035 0  0.4368095592943355 0.2490576750025272 0  0.4992242534255831 0.2488907225475905 0  0.5616670624456261 0.2487225767780388 0  0.6241614574872795 0.2485628344253027 0  0.6867431164116233 0.2484261724245471 0  0.7494640320689409 0.2483330310055288 0  0.8123960439998337 0.2483090139184292 0  0.8756306385890722 0.2483812591561558 0  0.9392687098027955 0.2485689226662429 0  1.003392473564536 0.2488658762783771 0  0 0.3125 0  0.06238544549264018 0.3123594961469172 0  0.1247687315956418 0.312215350600219 0  0.1871477809291859 0.312063987933554 0  0.249521076539267 0.3119021019304918 0  0.3118880930071918 0.3117268917904781 0  0.3742499457419923 0.3115364391275859 0  0.4366103696550153 0.3113302963688404 0  0.4989771653445232 0.3111103742784542 0  0.5613642651848173 0.3108822278904889 0  0.6237945376333748 0.310656827730383 0  0.6863032912453255 0.3104528267527731 0  0.7489420307701895 0.3102991150540433 0  0.8117812037007229 0.310236966927164 0  0.8749095223005764 0.3103201927079365 0  0.9384270476331423 0.3106105011931924 0  1.002433328734109 0.3111646142312101 0  0 0.375 0  0.06236685847490189 0.3748388360362717 0  0.1247304249176502 0.3746729281363673 0  0.1870874345308949 0.3744975379917257 0  0.2494350184766321 0.3743080694215404 0  0.3117710512123412 0.3741002492428931 0  0.3740947206879102 0.3738704698900714 0  0.436407447784605 0.3736163935462534 0  0.4987143244317949 0.3733379635591187 0  0.561026279032219 0.3730390303721845 0  0.6233631801998629 0.3727298671840104 0  0.685757986876722 0.3724308897423277 0  0.7482617362973215 0.3721778093353466 0  0.8109485431743846 0.3720280328843052 0  0.873919053055511 0.3720670540667048 0  0.9373010392087076 0.3724116186719461 0  1.001249791091645 0.3732040666859007 0  0 0.4375 0  0.062351782451937 0.4373229308836131 0  0.1246989722592757 0.4371399588860324 0  0.1870369181293733 0.4369450910878276 0  0.2493610837378315 0.4367322580313692 0  0.3116672343636253 0.4364953725088108 0  0.3739518290805303 0.4362285427280203 0  0.4362127618998924 0.4359265563709003 0  0.4984506741093306 0.4355858285304183 0  0.5606711686537906 0.435206129542195 0  0.622888383081194 0.4347935943170755 0  0.6851304694930278 0.4343657612600498 0  0.7474474670002922 0.4339596212316406 0  0.8099216402248037 0.4336435989814082 0  0.872679501029374 0.4335333840346701 0  0.9359041071382133 0.4338086549875965 0  0.9998487388200056 0.4347232649533899 0  0 0.5 0  0.06234142384548312 0.4998129259778172 0  0.1246769205321777 0.499618839787999 0  0.1870003913461639 0.4994105141122216 0  0.249305471211234 0.4991803447907308 0  0.3115854780480273 0.4989202187762919 0  0.3738335137473274 0.498621487207663 0  0.4360428644240613 0.4982751495260063 0  0.4982079725962623 0.4978724496551487 0  0.5603264677175674 0.4974062599370652 0  0.6224030816109064 0.4968739416783045 0  0.6844567520117456 0.4962829061171314 0  0.7465327222669207 0.4956609191973051 0  0.8087215697874122 0.4950741320269887 0  0.8711859927926743 0.4946558847316382 0  0.9341933106710414 0.4946458457292539 0  0.9981507381451367 0.4954289555166128 0  0 0.5625 0  0.0623369794167457 0.5623099084715646 0  0.1246668413749218 0.5621118873726525 0  0.1869821675791572 0.5618976520054942 0  0.2492748298235798 0.561658192050818 0  0.3115356384489905 0.5613833961164055 0  0.373754036308906 0.5610616856050182 0  0.4359179538343336 0.5606797141487944 0  0.4980140985357462 0.5602222735424406 0  0.560029271971877 0.5596727271688722 0  0.6219539213177606 0.5590146730360712 0  0.6837902204301725 0.5582363358489362 0  0.7455686416135012 0.5573407958461424 0  0.8073787904409283 0.556368091406002 0  0.8694201708434671 0.5554391522371918 0  0.932072077337084 0.5548315682072098 0  0.9959666450583248 0.5550811757642569 0  0 0.625 0  0.06233948215201898 0.6248147677216529 0  0.1246710025058136 0.6246210419677147 0  0.1869861717856594 0.6244098425043582 0  0.249275449334268 0.6241711230391584 0  0.3115274618275946 0.6238931379687155 0  0.3737282050478192 0.6235616876722264 0  0.435860152851646 0.6231592102835762 0  0.4979014376836617 0.6226637212813552 0  0.5598256193448145 0.6220477046259417 0  0.6216033834204603 0.6212773464905218 0  0.6832093097605023 0.6203132836988944 0  0.7446404192923395 0.6191161293419906 0  0.8059591394471619 0.6176654470297394 0  0.8673792683330455 0.6160132561744265 0  0.92940760264657 0.6144102614946594 0  0.9930263237073431 0.6135221794314347 0  0 0.6875 0  0.06234963131098877 0.6873280382289734 0  0.1246909964830526 0.6871475270317284 0  0.1870153045405443 0.6869493352143362 0  0.2493122609565136 0.6867230058688907 0  0.3115690896969472 0.6864559073562232 0  0.3737692414052237 0.6861321275975079 0  0.4358906572103338 0.6857309731007644 0  0.4979034951840882 0.6852248835094953 0  0.5597674381409897 0.6845765128803531 0  0.6214294259408539 0.6837347041760403 0  0.6828247569110011 0.6826292920977134 0  0.7438900147883307 0.6811659229259798 0  0.8046092507659141 0.6792275784470843 0  0.8651391630058443 0.6767113803908686 0  0.9260688674902933 0.6737041337085312 0  0.9887947333110018 0.6709264048227059 0  0 0.75 0  0.06236763017472434 0.749849750992144 0  0.1247273767708605 0.7496915191937944 0  0.1870707923263085 0.7495167084235476 0  0.2493877570496599 0.7493152891699248 0  0.3116653193015904 0.7490748370675834 0  0.3738860464483916 0.7487792174661603 0  0.4360255746592535 0.7484066914364019 0  0.4980488990964734 0.7479270874884344 0  0.5599047917518631 0.7472974489266355 0  0.6215177873208928 0.7464551351220988 0  0.6827782741730068 0.7453065516342714 0  0.743536240096343 0.7437083181951709 0  0.8036223565125991 0.7414365169913489 0  0.8629788242355737 0.7381478385045811 0  0.9221377358269287 0.7334303958884147 0  0.9827735056368079 0.7279669239787104 0  0 0.8125 0  0.06239306158036647 0.8123793245394362 0  0.1247793690405154 0.8122518989783952 0  0.1871516453259063 0.8121104089746202 0  0.2495010273564928 0.8119461999756743 0  0.3118159169762099 0.8117483520743421 0  0.3740802639284969 0.8115023789199763 0  0.4362708441855387 0.8111882992060305 0  0.4983527619981826 0.8107776694823355 0  0.5602717848793728 0.8102288686892759 0  0.62194103069146 0.8094793216659238 0  0.6832178823312529 0.8084319803833042 0  0.7438658789644753 0.8069298834422087 0  0.8035031298361355 0.8047029542344256 0  0.8615922966439727 0.8012442486321569 0  0.9178469967772056 0.7955004433007908 0  0.9761642265580973 0.7849818949503068 0  0 0.875 0  0.06242483328322418 0.8749155252742519 0  0.1248447338850094 0.8748261505667425 0  0.1872543706279861 0.8747265433167617 0  0.2496471836407974 0.8746103328644719 0  0.312014470993982 0.8744693821121268 0  0.3743439830775483 0.8742927492420635 0  0.4366176059242955 0.8740651330483138 0  0.4988073239482516 0.8737644750991213 0  0.5608678101448659 0.8733581957769022 0  0.6227221129211322 0.8727972194075753 0  0.6842326039923913 0.8720063361341099 0  0.7451394039009408 0.8708677264535961 0  0.8049261512592534 0.8691870797126648 0  0.8625280147934671 0.8665961704668047 0  0.9157362701738267 0.8621883845773208 0  0.9602397259452941 0.8530944664751263 0  0 0.9375 0  0.06246121852258248 0.9374565166833869 0  0.1249198442010335 0.9374104571742391 0  0.1873730732123224 0.9373590109607485 0  0.2498174423896301 0.9372988019978189 0  0.3122483355721873 0.9372254888158177 0  0.3746592164739168 0.9371331915430263 0  0.437040346229195 0.9
[...]
<PointData  Vectors="f_54"> 
<DataArray  type="Float64"  Name="f_54"  NumberOfComponents="3" format="ascii">0.0000000000000000e+00 0.0000000000000000e+00 0.0000000000000000e+00  0.0000000000000000e+00 0.0000000000000000e+00 0.0000000000000000e+00  0.0000000000000000e+00 0.0000000000000000e+00 0.0000000000000000e+00  0.0000000000000000e+00 0.0000000000000000e+00 0.0000000000000000e+00  0.0000000000000000e+00 0.0000000000000000e+00 0.0000000000000000e+00  0.0000000000000000e+00 0.0000000000000000e+00 0.0000000000000000e+00  0.0000000000000000e+00 0.0000000000000000e+00 0.0000000000000000e+00  0.0000000000000000e+00 0.0000000000000000e+00 0.0000000000000000e+00  0.0000000000000000e+00 0.0000000000000000e+00 0.0000000000000000e+00  0.0000000000000000e+00 0.0000000000000000e+00 0.0000000000000000e+00  0.0000000000000000e+00 0.0000000000000000e+00 0.0000000000000000e+00  0.0000000000000000e+00 0.0000000000000000e+00 0.0000000000000000e+00  0.0000000000000000e+00 0.0000000000000000e+00 0.0000000000000000e+00  0.0000000000000000e+00 0.0000000000000000e+00 0.0000000000000000e+00  0.0000000000000000e+00 0.0000000000000000e+00 0.0000000000000000e+00  0.0000000000000000e+00 0.0000000000000000e+00 0.0000000000000000e+00  0.0000000000000000e+00 0.0000000000000000e+00 0.0000000000000000e+00  0.0000000000000000e+00 0.0000000000000000e+00 0.0000000000000000e+00  1.7451724964385494e-06 1.2687600901484977e-07 0.0000000000000000e+00  3.5105781005177134e-06 2.5530626502417949e-07 0.0000000000000000e+00  5.3133529614581506e-06 3.8663462637447688e-07 0.0000000000000000e+00  7.1605663902324554e-06 5.2151438464283955e-07 0.0000000000000000e+00  9.0425646793433041e-06 6.5948230263295263e-07 0.0000000000000000e+00  1.0924164557200376e-05 7.9844925216355253e-07 0.0000000000000000e+00  1.2732695340090951e-05 9.3412196746953846e-07 0.0000000000000000e+00  1.4341402895851237e-05 1.0594301486639763e-06 0.0000000000000000e+00  1.5545476780118727e-05 1.1641432127301545e-06 0.0000000000000000e+00  1.6024551904388406e-05 1.2350657227784464e-06 0.0000000000000000e+00  1.5275864891115319e-05 1.2576268981431433e-06 0.0000000000000000e+00  1.2473538981759791e-05 1.2207913342910959e-06 0.0000000000000000e+00  6.1190258725497405e-06 1.1308875942559748e-06 0.0000000000000000e+00  -6.9586536587434647e-06 1.0540693819392477e-06 0.0000000000000000e+00  -3.4820985709009135e-05 1.2664385085856816e-06 0.0000000000000000e+00  -1.0199253244382852e-04 2.8605477612925240e-06 0.0000000000000000e+00  0.0000000000000000e+00 0.0000000000000000e+00 0.0000000000000000e+00  3.4670613879114240e-06 2.5197603265238299e-07 0.0000000000000000e+00  6.9792758131257663e-06 5.0738639013095031e-07 0.0000000000000000e+00  1.0576161868437353e-05 7.6927361630682751e-07 0.0000000000000000e+00  1.4278493942859873e-05 1.0393687506308840e-06 0.0000000000000000e+00  1.8075815148660576e-05 1.3172581358139382e-06 0.0000000000000000e+00  2.1909855787465107e-05 1.5993529130772111e-06 0.0000000000000000e+00  2.5652110293194368e-05 1.8776602207075244e-06 0.0000000000000000e+00  2.9073288845450445e-05 2.1384510274257190e-06 0.0000000000000000e+00  3.1801124875787549e-05 2.3610921563815888e-06 0.0000000000000000e+00  3.3259987616104899e-05 2.5175899452095586e-06 0.0000000000000000e+00  3.2578316422536074e-05 2.5737891984880543e-06 0.0000000000000000e+00  2.8432573957521225e-05 2.4935759929448571e-06 0.0000000000000000e+00  1.8760744960098830e-05 2.2471374422997626e-06 0.0000000000000000e+00  2.2990170135362497e-07 1.8192813401098724e-06 0.0000000000000000e+00  -3.2564858943617880e-05 1.1807246168717110e-06 0.0000000000000000e+00  -8.6797379893168209e-05 -1.2472579023687956e-08 0.0000000000000000e+00  0.0000000000000000e+00 0.0000000000000000e+00 0.0000000000000000e+00  5.1391437117943385e-06 3.7330373103249702e-07 0.0000000000000000e+00  1.0357103668163661e-05 7.5253937585753901e-07 0.0000000000000000e+00  1.5725561710162774e-05 1.1431262901156594e-06 0.0000000000000000e+00  2.1291396953788413e-05 1.5487005802066221e-06 0.0000000000000000e+00  2.7059865688874954e-05 1.9699255779880740e-06 0.0000000000000000e+00  3.2971997309903206e-05 2.4029433945911244e-06 0.0000000000000000e+00  3.8873950862296695e-05 2.8374022448234526e-06 0.0000000000000000e+00  4.4475853791529735e-05 3.2540953276830931e-06 0.0000000000000000e+00  4.9297384798856752e-05 3.6224478127654476e-06 0.0000000000000000e+00  5.2597002944018250e-05 3.8984297713516469e-06 0.0000000000000000e+00  5.3281368603972507e-05 4.0239470715861746e-06 0.0000000000000000e+00  4.9792784698895028e-05 3.9291883407488577e-06 0.0000000000000000e+00  3.9984400596757313e-05 3.5391863617150469e-06 0.0000000000000000e+00  2.1052145345391472e-05 2.7838600975830104e-06 0.0000000000000000e+00  -1.0180504533011269e-05 1.6083846062430247e-06 0.0000000000000000e+00  -5.5658932137420116e-05 1.2249513703957911e-08 0.0000000000000000e+00  0.0000000000000000e+00 0.0000000000000000e+00 0.0000000000000000e+00  6.7263508215227183e-06 4.8825994040957908e-07 0.0000000000000000e+00  1.3576697649973460e-05 9.8577968258725592e-07 0.0000000000000000e+00  2.0667828718823779e-05 1.5012837202097240e-06 0.0000000000000000e+00  2.8089372280126948e-05 2.0414907049490255e-06 0.0000000000000000e+00  3.5884694119237650e-05 2.6096766899431121e-06 0.0000000000000000e+00  4.4024501439922724e-05 3.2036749070568919e-06 0.0000000000000000e+00  5.2370373084763158e-05 3.8131235900291449e-06 0.0000000000000000e+00  6.0625479343506988e-05 4.4158357883633762e-06 0.0000000000000000e+00  6.8270408283622224e-05 4.9733486946773936e-06 0.0000000000000000e+00  7.4484008109159069e-05 5.4261139436625279e-06 0.0000000000000000e+00  7.8054005021357511e-05 5.6895226149973309e-06 0.0000000000000000e+00  7.7293391430922296e-05 5.6530348184717057e-06 0.0000000000000000e+00  7.0004830074520298e-05 5.1857817945806972e-06 0.0000000000000000e+00  5.3596132742389095e-05 4.1520417590270633e-06 0.0000000000000000e+00  2.5576125775295995e-05 2.4362755838395252e-06 0.0000000000000000e+00  -1.5168911534406507e-05 -3.9919312120218587e-08 0.0000000000000000e+00  0.0000000000000000e+00 0.0000000000000000e+00 0.0000000000000000e+00  8.1824330319573504e-06 5.9343996894427777e-07 0.0000000000000000e+00  1.6546511624691381e-05 1.2003835185914989e-06 0.0000000000000000e+00  2.5268317842277711e-05 1.8339138646863589e-06 0.0000000000000000e+00  3.4499045800206919e-05 2.5052486318187434e-06 0.0000000000000000e+00  4.4346180530619207e-05 3.2222505762091650e-06 0.0000000000000000e+00  5.4846027803371716e-05 3.9871621472213006e-06 0.0000000000000000e+00  6.5924022913083622e-05 4.7931965713112834e-06 0.0000000000000000e+00  7.7339124387521116e-05 5.6195740092892944e-06 0.0000000000000000e+00  8.8609348999583293e-05 6.4246547778896229e-06 0.0000000000000000e+00  9.8918228594345822e-05 7.1371744688824010e-06 0.0000000000000000e+00  1.0700858390559186e-04 7.6465606068776373e-06 0.0000000000000000e+00  1.1108361431383544e-04 7.7953959829578231e-06 0.0000000000000000e+00  1.0876029270295601e-04 7.3807289704297051e-06 0.0000000000000000e+00  9.7160436098258089e-05 6.1758145351576575e-06 0.0000000000000000e+00  7.3274420464062293e-05 3.9877624791091047e-06 0.0000000000000000e+00  3.4740294639742342e-05 7.6554926690168331e-07 0.0000000000000000e+00  0.0000000000000000e+00 0.0000000000000000e+00 0.0000000000000000e+00  9.4491665236565673e-06 6.8455968708460214e-07 0.0000000000000000e+00  1.9148774465928553e-05 1.3876892381489408e-06 0.0000000000000000e+00  2.9347245829884371e-05 2.1278227838355763e-06 0.0000000000000000e+00  4.0275743319519085e-05 2.9221352731274707e-06 0.0000000000000000e+00  5.2132735723063142e-05 3.7852971616775075e-06 0.0000000000000000e+00  6.5058913278379001e-05 4.7273040306017026e-06 0.0000000000000000e+00  7.9097773230167725e-05 5.7498117310050253e-06 0.0000000000000000e+00  9.4136282461747861e-05 6.8401709599378217e-06 0.0000000000000000e+00  1.0981972760982179e-04 7.9621160630073488e-06 0.0000000000000000e+00  1.2543639386161757e-04 9.0420322656418769e-06 0.0000000000000000e+00  1.3977320422034530e-04 9.9504599131488123e-06 0.0000000000000000e+00  1.5095594595227404e-04 1.0481179423539325e-05 0.0000000000000000e+00  1.5630974051068994e-04 1.0336787462243828e-05 0.0000000000000000e+00  1.5230374901017846e-04 9.1418063154439067e-06 0.0000000000000000e+00  1.3465806898160839e-04 6.5197787883397682e-06 0.0000000000000000e+00  9.8639057890480850e-05 2.2775246626040557e-06 0.0000000000000000e+00  0.0000000000000000e+00 0.0000000000000000e+00 0.0000000000000000e+00  1.0457835693286246e-05 7.5656056992114398e-07 0.0000000000000000e+00  2.1242115410554686e-05 1.5372640533605930e-06 0.0000000000000000e+00  3.2682739476277456e-05 2.3665803797747942e-06 0.0000000000000000e+00  4.5105699294406028e-05 3.2688433359649820e-06 0.0000000000000000e+00  5.8824660727482368e-05 4.2676338148357560e-06 0.0000000000000000e+00  7.4122758749930675e-05 5.3842582865023735e-06 0.0000000000000000e+00  9.1218750956662868e-05 6.6346089810688556e-06 0.0000000000000000e+00  1.1020936131091837e-04 8.0232040327866013e-06 0.0000000000000000e+00  1.3097709583212617e-04 9.5324572381251304e-06 0.0000000000000000e+00  1.5305109783657518e-04 1.1104271382015593e-05 0.0000000000000000e+00  1.7541019447141738e-04 1.2610388319146964e-05 0.0000000000000000e+00  1.9622662008640429e-04 1.3809302696748849e-05 0.0000000000000000e+00  2.1257119930179980e-04 1.4295231658778374e-05 0.0000000000000000e+00  2.2013366783905298e-04 1.3465791730731864e-05 0.0000000000000000e+00  2.1302200926626272e-04 1.0573461280768974e-05 0.0000000000000000e+00  1.8360044599326927e-04 4.9641322793628286e-06 0.0000000000000000e+00  0.0000000000000000e+00 0.0000000000000000e+00 0.0000000000000000e+00  1.1133286006857300e-05 8.0393379523549001e-07 0.0000000000000000e+00  2.2669535608340112e-05 1.6375366811376875e-06 0.0000000000000000e+00  3.5022370311297290e-05 2.5314122489615971e-06 0.0000000000000000e+00  4.8620272492505582e-05 3.5176113663214676e-06 0.0000000000000000e+00  6.3909123121182738e-05 4.6300516690394877e-06 0.0000000000000000e+00  8.1346434626493504e-05 5.9043300669402235e-06 0.0000000000000000e+00  1.0138076027192650e-04 7.3762596489016379e-06 0.0000000000000000e+00  1.2440568237129287e-04 9.0777804555244020e-06 0.0000000000000000e+00  1.5067194389190152e-04 1.1027584395994266e-05 0.0000000000000000e+00  1.8013405405883061e-04 1.3211441716134286e-05 0.0000000000000000e+00  2.1220137636566397e-04 1.5543519103910807e-05 0.0000000000000000e+00  2.4536501303321908e-04 1.7795900743148033e-05 0.0000000000000000e+00  2.7669440443452663e-04 1.9484789511078345e-05 0.0000000000000000e+00  3.0125561279186104e-04 1.9725619242327112e-05 0.0000000000000000e+00  3.1156480314074533e-04 1.7143046116942213e-05 0.0000000000000000e+00  2.9705589537790171e-04 1.0033041548846361e-05 0.0000000000000000e+00  0.0000000000000000e+00 0.0000000000000000e+00 0.0000000000000000e+00  1.1400622901073091e-05 8.2127443257092147e-07 0.0000000000000000e+00  2.3272023234063504e-05 1.6769407088669069e-06 0.0000000000000000e+00  3.6103998487291339e-05 2.6029898483017880e-06 0.0000000000000000e+00  5.0424026823633745e-05 3.6386960796472156e-06 0.0000000000000000e+00  6.6814417037523466e-05 4.8283758762817625e-06 0.0000000000000000e+00  8.5925057058824125e-05 6.2231585701528202e-06 0.0000000000000000e+00  1.0847591981655622e-04 7.8824644914024368e-06 0.0000000000000000e+00  1.3523786845312305e-04 9.8742798263783153e-06 0.0000000000000000e+00  1.6697080644365367e-04 1.2271838555355248e-05 0.0000000000000000e+00  2.0428339425125459e-04 1.5140868082592475e-05 0.0000000000000000e+00  2.4735848662491130e-04 1.8503997586442580e-05 0.0000000000000000e+00  2.9546956197023822e-04 2.2254212824626040e-05 0.0000000000000000e+00  3.4622010197242795e-04 2.5967390901073721e-05 0.0000000000000000e+00  3.9452892999209489e-04 2.8557073063211349e-05 0.0000000000000000e+00  4.3161820153056669e-04 2.7810039378416743e-05 0.0000000000000000e+00  4.4446488702125337e-04 2.0136078115336131e-05 0.0000000000000000e+00  0.0000000000000000e+00 0.0000000000000000e+00 0.0000000000000000e+00  1.1194282594126758e-05 8.0402628520035315e-07 0.0000000000000000e+00  2.2907440395384215e-05 1.6455061265768635e-06 0.0000000000000000e+00  3.5685854015583771e-05 2.5640778042126304e-06 0.0000000000000000e+00  5.0137663986882510e-05 3.6043898402975484e-06 0.0000000000000000e+00  6.6966886053512363e-05 4.8192310671837533e-06 0.0000000000000000e+00  8.7009885922913310e-05 6.2735014237671551e-06 0.0000000000000000e+00  1.1127129877296991e-04 8.0494143394871913e-06 0.0000000000000000e+00  1.4095055209734688e-04 1.0253252261684752e-05 0.0000000000000000e+00  1.7743822304923447e-04 1.3023353152628362e-05 0.0000000000000000e+00  2.2223890625924114e-04 1.6536388739223909e-05 0.0000000000000000e+00  2.7673802727275134e-04 2.1000412605277692e-05 0.0000000000000000e+00  3.4167101429151452e-04 2.6598327840765028e-05 0.0000000000000000e+00  4.1609393435624881e-04 3.3282432000888273e-05 0.0000000000000000e+00  4.9570492107260298e-04 4.0198236984808747e-05 0.0000000000000000e+00  5.7082754643318883e-04 4.4469257077073988e-05 0.0000000000000000e+00  6.2491419395301116e-04 3.9596916704845081e-05 0.0000000000000000e+00  0.0000000000000000e+00 0.0000000000000000e+00 0.0000000000000000e+00  1.0468699668464240e-05 7.4931333473375579e-07 0.0000000000000000e+00  2.1473268522359830e-05 1.5366869365260488e-06 0.0000000000000000e+00  3.3584156519355842e-05 2.4027197823159808e-06 0.0000000000000000e+00  4.7454618373307085e-05 3.3941993401439687e-06 0.0000000000000000e+00  6.3871456843748200e-05 4.5682309528291480e-06 0.0000000000000000e+00  8.3817273877020388e-05 5.9979396027962881e-06 0.0000000000000000e+00  1.0854700958168954e-04 7.7809077800269231e-06 0.0000000000000000e+00  1.3967781330668309e-04 1.0052355546450278e-05 0.0000000000000000e+00  1.7928088653516733e-04 1.3006460819338167e-05 0.0000000000000000e+00  2.2993859953597282e-04 1.6930871695293105e-05 0.0000000000000000e+00  2.9467393847005282e-04 2.2258614453218232e-05 0.0000000000000000e+00  3.7654521093230672e-04 2.9625390660682350e-05 0.0000000000000000e+00  4.7749704252932307e-04 3.9839341725660067e-05 0.0000000000000000e+00  5.9583403054943706e-04 5.3357547278499168e-05 0.0000000000000000e+00  7.2232661357907342e-04 6.7980890187993736e-05 0.0000000000000000e+00  8.3878029346764918e-04 7.5725089618108505e-05 0.0000000000000000e+00  0.0000000000000000e+00 0.0000000000000000e+00 0.0000000000000000e+00  9.2091861757341558e-06 6.5669546953478682e-07 0.0000000000000000e+00  1.8930434324496496e-05 1.3490644372731035e-06 0.0000000000000000e+00  2.9714186448054045e-05 2.1153293407237558e-06 0.0000000000000000e+00  4.2206363622739390e-05 3.0001677224543143e-06 0.0000000000000000e+00  5.7211324568770147e-05 4.0590874203574025e-06 0.0000000000000000e+00  7.5775953375150309e-05 5.3646022243340095e-06 0.0000000000000000e+00  9.9305496381927531e-05 7.0156973015337763e-06 0.0000000000000000e+00  1.2972356513867841e-04 9.1535706896525209e-06 0.0000000000000000e+00  1.6968676851849391e-04 1.1990081967325932e-05 0.0000000000000000e+00  2.2284933598611497e-04 1.5863159990178729e-05 0.0000000000000000e+00  2.9412044701094181e-04 2.1350023882755783e-05 0.0000000000000000e+00  3.8970773935504348e-04 2.9498293227386048e-05 0.0000000000000000e+00  5.1635981187052923e-04 4.2256578334048691e-05 0.0000000000000000e+00  6.7831718335101255e-04 6.3005958844682049e-05 0.0000000000000000e+00  8.6877803330664190e-04 9.5168176505445697e-05 0.0000000000000000e+00  1.0669595495130192e-03 1.1700248746724146e-04 0.0000000000000000e+00  0.0000000000000000e+00 0.0000000000000000e+00 0.0000000000000000e+00  7.4410515362119100e-06 5.2866480864207368e-07 0.0000000000000000e+00  1.5324010580827238e-05 1.0874941791362198e-06 0.0000000000000000e+00  2.4127911689445415e-05 1.7088504381974174e-06 0.0000000000000000e+00  3.4426398511334479e-05 2.4307945479825492e-06 0.0000000000000000e+00  4.6953734003275277e-05 3.3008263065077553e-06 0.0000000000000000e+00  6.2698563518906195e-05 4.3809387622860952e-06 0.0000000000000000e+00  8.3043474919043298e-05 5.7548928358017837e-06 0.0000000000000000e+00  1.0997802007862748e-04 7.5395432978761525e-06 0.0000000000000000e+00  1.4642643037074551e-04 9.9047834266125931e-06 0.0000000000000000e+00  1.9674534591200698e-04 1.3115235726271467e-05 0.0000000000000000e+00  2.6744322996616522e-04 1.7633572841142084e-05 0.0000000000000000e+00  3.6808480038170028e-04 2.4405662339941280e-05 0.0000000000000000e+00  5.1195745736620497e-04 3.5673284007991694e-05 0.0000000000000000e+00  7.1473503061227149e-04 5.7266170176127595e-05 0.0000000000000000e+00  9.8448835346450045e-04 1.0536007310833501e-04 0.0000000000000000e+00  1.2587918358623860e-03 2.3992761632666632e-04 0.0000000000000000e+00  0.0000000000000000e+00 0.0000000000000000e+00 0.0000000000000000e+00  5.2346618491899963e-06 3.7074070272050613e-07 0.0000000000000000e+00  1.0795606430637968e-05 7.6334664051066119e-07 0.0000000000000000e+00  1.7038903084881160e-05 1.2012557351934643e-06 0.0000000000000000e+00  2.4397671968211018e-05 1.7120333102074227e-06 0.0000000000000000e+00  3.3438196619441920e-05 2.3298706325516058e-06 0.0000000000000000e+00  4.4943330902858344e-05 3.0985057334917899e-06 0.0000000000000000e+00  6.0043818306675562e-05 4.0742461417182266e-06 0.0000000000000000e+00  8.0433424050081420e-05 5.3277623255233415e-06 0.0000000000000000e+00  1.0873186697824382e-04 6.9409081823636034e-06 0.0000000000000000e+00  1.4910992714953637e-04 8.9901850987013948e-06 0.0000000000000000e+00  2.0837571518929899e-04 1.1504263013718591e-05 0.0000000000000000e+00  2.9783810138521238e-04 1.4404091210472280e-05 0.0000000000000000e+00  4.3631691525546301e-04 1.7597672359465979e-05 0.0000000000000000e+00  6.5413126051976371e-04 2.2073442144268365e-05 0.0000000000000000e+00  9.9453974602739656e-04 3.4584233540961925e-05 0.0000000000000000e+00  1.4973851299861667e-03 8.0571536167902392e-05 0.0000000000000000e+00  0.0000000000000000e+00 0.0000000000000000e+00 0.0000000000000000e+00  2.7043440533969532e-06 1.9112506723049748e-07 0.0000000000000000e+00  5.5824338200879334e-06 3.9374285340466856e-07 0.0000000000000000e+00  8.8247406550945019e-06 6.2015488053396335e-07 0.0000000000000000e+00  1.2665359686702030e-05 8.8479232052443957e-07 0.0000000000000000e+00  1.7414704295638834e-05 1.2053764706686340e-06 0.0000000000000000e+00  2.3509586665232983e-05 1.6039430482717683e-06 0.0000000000000000e+00  3.1595042425496897e-05 2.1068038552342059e-06 0.0000000000000000e+00  4.2664673592466964e-05 2.7403317718480934e-06 0.0000000000000000e+00  5.8311283115180352e-05 3.5127001809925241e-06 0.0000000000000000e+00  8.1189353206714552e-05 4.3506727781054817e-06 0.0000000000000000e+00  1.1588272421408342e-04 4.8948004870729269e-06 0.0000000000000000e+00  1.7049066647573593e-04 3.8558342011345388e-06 0.0000000000000000e+00  2.5909629616821777e-04 -2.9129287617851484e-06 0.0000000000000000e+00  4.0304264123636164e-04 -2.7400564324241503e-05 0.0000000000000000e+00  6.1803667811512848e-04 -9.6524568672502994e-05 0.0000000000000000e+00  8.5884346608872261e-04 -2.3263542206674925e-04 0.0000000000000000e+00  0.0000000000000000e+00 0.0000000000000000e+00 0.0000000000000000e+00  0.0000000000000000e+00 0.0000000000000000e+00 0.0000000000000000e+00  0.0000000000000000e+00 0.0000000000000000e+00 0.0000000000000000e+00  0.0000000000000000e+00 0.0000000000000000e+00 0.0000000000000000e+00  0.0000000000000000e+00 0.0000000000000000e+00 0.0000000000000000e+00  0.0000000000000000e+00 0.0000000000000000e+00 0.0000000000000000e+00  0.0000000000000000e+00 0.0000000000000000e+00 0.0000000000000000e+00  0.0000000000000000e+00 0.0000000000000000e+00 0.0000000000000000e+00  0.0000000000000000e+00 0.0000000000000000e+00 0.0000000000000000e+00  0.0000000000000000e+00 0.0000000000000000e+00 0.0000000000000000e+00  0.0000000000000000e+00 0.0000000000000000e+00 0.0000000000000000e+00  0.0000000000000000e+00 0.0000000000000000e+00 0.0000000000000000e+00