<?xml version="1.0"?>
<VTKFile type="UnstructuredGrid"  version="0.1"  >
<UnstructuredGrid>
<Piece  NumberOfPoints="289" NumberOfCells="512">
<Points>
<DataArray  type="Float64"  NumberOfComponents="3"  format="ascii">0 0 0  0.0625 0 0  0.125 0 0  0.1875 0 0  0.25 0 0  0.3125 0 0  0.375 0 0  0.4375 0 0  0.5 0 0  0.5625 0 0  0.625 0 0  0.6875 0 0  0.75 0 0  0.8125 0 0  0.875 0 0  0.9375 0 0  1 0 0  0 0.0625 0  0.06255275169857437 0.06248245590386504 0  0.1251077772262018 0.06246457897601775 0  0.187667481081355 0.06244605816166227 0  0.2502345182623738 0.06242663915765632 0  0.312811946267892 0.06240616087929943 0  0.3754034155099925 0.06238460039537605 0  0.4380134286379863 0.06236212568723585 0  0.5006477301981996 0.06233915037467917 0  0.5633139636111073 0.0623163744118772 0  0.626022925686215 0.06229477516773149 0  0.6887912700135153 0.06227547329335112 0  0.7516480008706199 0.06225930362821436 0  0.8146516312076872 0.06224564956792998 0  0.8779395349246557 0.06222915125124977 0  0.9418817508007699 0.06218916120705313 0  1.007607813008294 0.06205122501241082 0  0 0.125 0  0.0626032304504542 0.1249652305610812 0  0.1252109074427441 0.1249297667297535 0  0.1878277340344539 0.1248929545474612 0  0.2504589078653765 0.1248542470251254 0  0.3131104203118115 0.1248132753263784 0  0.3757894272010082 0.1247699396799311 0  0.4385047402012262 0.1247245214968957 0  0.5012675275186391 0.1246778099834864 0  0.5640923991345228 0.1246312206303289 0  0.6269992430673869 0.1245868544980059 0  0.690016595268467 0.1245474014903043 0  0.7531881764192733 0.1245157340841631 0  0.8165856575792009 0.124494045133821 0  0.8803314347475777 0.1244828832250591 0  0.9446248211908703 0.1244835801615902 0  1.009686498460578 0.1245234000499865 0  0 0.1875 0  0.06264927284350069 0.1874486906388457 0  0.1253049467714902 0.1873962732473855 0  0.187973789592902 0.1873416922325349 0  0.2506632812937005 0.1872840348334173 0  0.3133820416945821 0.1872226319092812 0  0.3761403517446359 0.187157193869977 0  0.4389508193901851 0.1870879898809144 0  0.5018292643734602 0.187016070760812 0  0.564795934947424 0.1869435191333389 0  0.6278772245527868 0.1868736775348368 0  0.691108096082294 0.1868112463223819 0  0.7545352660869443 0.1867620430509372 0  0.8182201441765298 0.1867320350703257 0  0.8822362873384054 0.1867248118419326 0  0.9466430189732616 0.186734885839638 0  1.011388364892492 0.186725263301188 0  0 0.25 0  0.06268894260159208 0.2499332541810504 0  0.1253859177968499 0.2498649187565657 0  0.1880994105933045 0.2497934577704072 0  0.2508387934390942 0.2497174900174292 0  0.3136148567501387 0.2496359086142879 0  0.3764404485428606 0.2495480545031463 0  0.4393312695277236 0.2494539637283598 0  0.5023068714377865 0.249354705628327 0  0.5653918898167754 0.2492528182056078 0  0.628617470233286 0.2491528192666077 0  0.6920226198134013 0.2490617129425176 0  0.7556545887728738 0.2489892975273826 0  0.8195658181606585 0.2489478766539152 0  0.8838015729537146 0.2489506455316958 0  0.9483668034469885 0.2490077036218896 0  1.013158667436662 0.2491199849997308 0  0 0.3125 0  0.06272062782283551 0.3124194057628751 0  0.1254505118277893 0.3123366686393731 0  0.1881994149355236 0.3122496854526773 0  0.2509781078986806 0.3121564851160799 0  0.3137989735862935 0.3120553481573155 0  0.3766767373279944 0.311944998860692 0  0.4396293729589875 0.3118249053603658 0  0.5026792270090458 0.3116957304192876 0  0.5658543644301859 0.3115599794964289 0  0.6291900209842219 0.3114228842217676 0  0.6927297538897812 0.3112935207180372 0  0.7565252447932593 0.3111860611540155 0  0.8206325158513657 0.3111208458105909 0  0.8851006103432973 0.3111246033483175 0  0.9499479610092122 0.311228715794317 0  1.015127000472732 0.3114642828250793 0  0 0.375 0  0.06274311759338387 0.3749076995185603 0  0.1254962484421083 0.3748126442980792 0  0.1882699301593124 0.3747120866113044 0  0.2510757619875194 0.3746033440970984 0  0.3139270482177688 0.3744838913810293 0  0.3768395892160626 0.3743515367021314 0  0.4398326884852292 0.3742047346023047 0  0.5029304512363953 0.374043107565234 0  0.5661634355870752 0.3738682772869853 0  0.6295706441494279 0.3736851344351394 0  0.6932016402872712 0.3735036863232492 0  0.7571181347860245 0.3733415705000751 0  0.821393644734508 0.3732271189604964 0  0.8861090164833094 0.3732023626822606 0  0.9513419447580636 0.3733244583501289 0  1.017153056163794 0.3736627818189458 0  0 0.4375 0  0.06275565412817981 0.437398745380324 0  0.1255215851914036 0.4372940995919591 0  0.1883085716710652 0.4371826256523529 0  0.2511284295273664 0.4370608363649166 0  0.3139946497653511 0.436925222758437 0  0.3769232029297391 0.4367723656569822 0  0.4399336094774161 0.436599191421444 0  0.5030504179880759 0.4364034705309635 0  0.5663052883921119 0.4361847158465677 0  0.6297399315314464 0.4359457205726675 0  0.6934101696681723 0.4356950776782891 0  0.7573912715501274 0.4354511000698908 0  0.8217843657477051 0.4352474799725942 0  0.886723152565603 0.4351404821282263 0  0.9523799517841645 0.4352159941887958 0  1.018972555837337 0.4355921983011047 0  0 0.5 0  0.06275795708040026 0.4998931747750148 0  0.1255259706129664 0.4997823537409124 0  0.1883145347564421 0.4996634248358582 0  0.2511350717569136 0.4995320654181856 0  0.3140005060380997 0.4993836701605352 0  0.3769260062849638 0.4992133383978762 0  0.4399300215390414 0.4990159786268052 0  0.503035826983813 0.498786636613927 0  0.566273950093557 0.4985212397003871 0  0.6296861006132026 0.4982180970347557 0  0.6933316013916689 0.4978807321445864 0  0.7572977710138126 0.4975229580784918 0  0.821716023997492 0.49717742698799 0  0.8867851218802533 0.4969087120761557 0  0.9528016441010113 0.4968300294179447 0  1.020197611193482 0.4971170129002038 0  0 0.5625 0  0.062750216732993 0.5623915844853766 0  0.1255098324206516 0.5622786763323508 0  0.1882885839738445 0.5621565862316071 0  0.2510969457155334 0.5620202255305669 0  0.3139465752790493 0.5618639034205808 0  0.3768508914894799 0.5616811345030638 0  0.4398259111126148 0.5614644909917442 0  0.5028915968722087 0.5612055804320732 0  0.5660742207004583 0.5608953246185565 0  0.6294107321958068 0.5605249059584326 0  0.6929570072832568 0.5600881234220417 0  0.756803304201771 0.5595866095128741 0  0.8211021796566513 0.5590405543598627 0  0.8861154358983944 0.5585089984935698 0  0.9522844791689697 0.5581231594099121 0  1.020321199050504 0.5581269910165495 0  0 0.625 0  0.06273305395665768 0.6248944615384748 0  0.1254744940186392 0.6247841288254586 0  0.1882329216524243 0.6246639333864752 0  0.2510174262172633 0.6245282198329518 0  0.3138378465056165 0.6243704012246566 0  0.3767050806068847 0.6241825546622878 0  0.4396315242484815 0.6239549462001792 0  0.5026318386541477 0.6236754978618158 0  0.5657245341936471 0.6233292734701672 0  0.6289355064404486 0.6228982231866421 0  0.6923060822122415 0.6223618341461871 0  0.7559110445211752 0.6217003397758485 0  0.8198974127183926 0.6209045444613528 0  0.8845621223279843 0.62000147149614 0  0.9504894468735657 0.6191121843989619 0  1.01875151605008 0.6185495110119298 0  0 0.6875 0  0.06270744840017699 0.687402097372724 0  0.1254220199605963 0.687299378954498 0  0.1881509286334154 0.6871866964359464 0  0.2509016108708981 0.687058167562036 0  0.3136817777936779 0.6869067084545394 0  0.3764993942073909 0.6867234295482867 0  0.4393625649407976 0.6864968254842947 0  0.5022793594288442 0.6862116699647699 0  0.5652577887636234 0.685847512394226 0  0.6283067108485008 0.6853766973689561 0  0.6914400172906069 0.6847620082958676 0  0.7546906229095079 0.6839547856864722 0  0.8181510246048785 0.6828971457084191 0  0.882079197900014 0.6815417119801119 0  0.9471384955031539 0.679932873066551 0  1.014810778702351 0.6784333750652889 0  0 0.75 0  0.06267464253291813 0.7499145049560869 0  0.1253550055282713 0.7498245171683871 0  0.1880467982704434 0.7497251887288801 0  0.2507557269390175 0.7496108719823852 0  0.3134873632792423 0.7494745822350646 0  0.3762468170153108 0.7493072638004448 0  0.4390380657375342 0.7490967363123433 0  0.5018627151314576 0.7488261307909222 0  0.5647178794667538 0.7484715114560899 0  0.6275929251754536 0.7479981880992917 0  0.6904655631285455 0.7473549105841767 0  0.753301173953173 0.7464647160205117 0  0.8160718436793607 0.7452113057221595 0  0.8788538247931784 0.7434253898856512 0  0.942185760868576 0.7409199473937844 0  1.007902585411167 0.737933063593318 0  0 0.8125 0  0.06263603631406824 0.8124313561717942 0  0.1252763436661901 0.8123589135543581 0  0.187925122955432 0.8122785428968385 0  0.2505864360777638 0.8121853608440134 0  0.3132639706981014 0.8120732051505722 0  0.3759605368129572 0.8119338924335243 0  0.4386770532245622 0.8117561101660868 0  0.5014105674802625 0.8115236989735752 0  0.5641504399295179 0.8112129062212057 0  0.6268710596683299 0.8107878547865194 0  0.6895182123590823 0.8101927642227169 0  0.7519849878346309 0.8093378087439516 0  0.8140763846669916 0.8080712399205507 0  0.8754949060343247 0.8061192015892217 0  0.9360844376734854 0.8029507177800117 0  0.9980761115866414 0.7975701156978291 0  0 0.875 0  0.06259309224918169 0.8749519567456144 0  0.125189016087144 0.8749011548692375 0  0.187790524490153 0.8748445800314657 0  0.250400206766146 0.8747786293247509 0  0.3130202586433942 0.8746986924001591 0  0.3756520041275028 0.8745985465426215 0  0.4382949239064147 0.8744694341602427 0  0.5009446877525242 0.8742986035803523 0  0.5635891183488498 0.8740669377379117 0  0.6261997124264744 0.8737450111540727 0  0.6887132947646054 0.8732863625451706 0  0.7509911407950125 0.8726154779295092 0  0.8127259999996859 0.8716038469375365 0  0.8732311911381866 0.8700100581446832 0  0.9309896361567549 0.8672782802405561 0  0.98289158150749 0.8616956909861745 0  0 0.9375 0  0.06254726983169739 0.9374752710844777 0  0.1250959547973728 0.9374490911141118 0  0.1876474231428525 0.9374198696385532 0  0.2502029449808174 0.9373856938235408 0  0.3127635606807913 0.9373440961645764 0  0.3753298089212266 0.9372917153310678 0  0.4379011702734729 0.93722377368
[...]
<PointData  Vectors="f_54"> 
<DataArray  type="Float64"  Name="f_54"  NumberOfComponents="3" format="ascii">0.0000000000000000e+00 0.0000000000000000e+00 0.0000000000000000e+00  0.0000000000000000e+00 0.0000000000000000e+00 0.0000000000000000e+00  0.0000000000000000e+00 0.0000000000000000e+00 0.0000000000000000e+00  0.0000000000000000e+00 0.0000000000000000e+00 0.0000000000000000e+00  0.0000000000000000e+00 0.0000000000000000e+00 0.0000000000000000e+00  0.0000000000000000e+00 0.0000000000000000e+00 0.0000000000000000e+00  0.0000000000000000e+00 0.0000000000000000e+00 0.0000000000000000e+00  0.0000000000000000e+00 0.0000000000000000e+00 0.0000000000000000e+00  0.0000000000000000e+00 0.0000000000000000e+00 0.0000000000000000e+00  0.0000000000000000e+00 0.0000000000000000e+00 0.0000000000000000e+00  0.0000000000000000e+00 0.0000000000000000e+00 0.0000000000000000e+00  0.0000000000000000e+00 0.0000000000000000e+00 0.0000000000000000e+00  0.0000000000000000e+00 0.0000000000000000e+00 0.0000000000000000e+00  0.0000000000000000e+00 0.0000000000000000e+00 0.0000000000000000e+00  0.0000000000000000e+00 0.0000000000000000e+00 0.0000000000000000e+00  0.0000000000000000e+00 0.0000000000000000e+00 0.0000000000000000e+00  0.0000000000000000e+00 0.0000000000000000e+00 0.0000000000000000e+00  0.0000000000000000e+00 0.0000000000000000e+00 0.0000000000000000e+00  -4.2745346888019843e-06 -1.7531994655995892e-07 0.0000000000000000e+00  -8.6618495178479390e-06 -3.5048407386070756e-07 0.0000000000000000e+00  -1.3275087206720095e-05 -5.2466170146405072e-07 0.0000000000000000e+00  -1.8222729348689451e-05 -6.9540900648766005e-07 0.0000000000000000e+00  -2.3604588372183914e-05 -8.5771299955030004e-07 0.0000000000000000e+00  -2.9505527069994647e-05 -1.0028939389937018e-06 0.0000000000000000e+00  -3.5985979283120613e-05 -1.1174039332623018e-06 0.0000000000000000e+00  -4.3068255676892007e-05 -1.1816618562949381e-06 0.0000000000000000e+00  -5.0717625296997831e-05 -1.1692101442764348e-06 0.0000000000000000e+00  -5.8817519686408594e-05 -1.0466093981978917e-06 0.0000000000000000e+00  -6.7139805887715158e-05 -7.7432301986254816e-07 0.0000000000000000e+00  -7.5317309112730933e-05 -3.0731840410983827e-07 0.0000000000000000e+00  -8.2849964892778977e-05 4.1276363531742708e-07 0.0000000000000000e+00  -8.9272819876442530e-05 1.5098092513543549e-06 0.0000000000000000e+00  -9.5030544315523850e-05 3.4220676758815127e-06 0.0000000000000000e+00  -1.0577339889506961e-04 8.0848984253829283e-06 0.0000000000000000e+00  0.0000000000000000e+00 0.0000000000000000e+00 0.0000000000000000e+00  -8.4411820412713878e-06 -3.5098602980191075e-07 0.0000000000000000e+00  -1.7110951687608518e-05 -7.0244562627772110e-07 0.0000000000000000e+00  -2.6239165683125677e-05 -1.0535577730603951e-06 0.0000000000000000e+00  -3.6047973467058938e-05 -1.4003759339031377e-06 0.0000000000000000e+00  -4.6744694714712527e-05 -1.7339212961195769e-06 0.0000000000000000e+00  -5.8510217946178473e-05 -2.0379201871039962e-06 0.0000000000000000e+00  -7.1481007142382255e-05 -2.2862127143084411e-06 0.0000000000000000e+00  -8.5722493427883815e-05 -2.4400628318142126e-06 0.0000000000000000e+00  -1.0119130085131669e-04 -2.4459524713803060e-06 0.0000000000000000e+00  -1.1768338573639865e-04 -2.2349969128997756e-06 0.0000000000000000e+00  -1.3476449438008177e-04 -1.7259113154902120e-06 0.0000000000000000e+00  -1.5167699924778698e-04 -8.3459213774337134e-07 0.0000000000000000e+00  -1.6720652882310186e-04 5.0410927801886804e-07 0.0000000000000000e+00  -1.7944027115210224e-04 2.2855752874101897e-06 0.0000000000000000e+00  -1.8509167015596316e-04 4.2750339598577672e-06 0.0000000000000000e+00  -1.7671897840086166e-04 5.2916769539894414e-06 0.0000000000000000e+00  0.0000000000000000e+00 0.0000000000000000e+00 0.0000000000000000e+00  -1.2381773087859196e-05 -5.2625209164037661e-07 0.0000000000000000e+00  -2.5112291191718727e-05 -1.0551094502892398e-06 0.0000000000000000e+00  -3.8543439276705783e-05 -1.5873937253079173e-06 0.0000000000000000e+00  -5.3019352605518753e-05 -2.1195450289337861e-06 0.0000000000000000e+00  -6.8867901345977229e-05 -2.6408248091565540e-06 0.0000000000000000e+00  -8.6385716605617043e-05 -3.1298275124293546e-06 0.0000000000000000e+00  -1.0581384615799342e-04 -3.5502122433097938e-06 0.0000000000000000e+00  -1.2730050636741138e-04 -3.8458154682717725e-06 0.0000000000000000e+00  -1.5084661981558809e-04 -3.9358176499428015e-06 0.0000000000000000e+00  -1.7622868800218336e-04 -3.7116097993932412e-06 0.0000000000000000e+00  -2.0289122433356303e-04 -3.0387697274498380e-06 0.0000000000000000e+00  -2.2979483892454039e-04 -1.7707177213956096e-06 0.0000000000000000e+00  -2.5518867601954362e-04 2.1352246164922733e-07 0.0000000000000000e+00  -2.7622903943664678e-04 2.9237926641450170e-06 0.0000000000000000e+00  -2.8826087012732678e-04 6.0844314439173227e-06 0.0000000000000000e+00  -2.8348567967575306e-04 8.8546907339356371e-06 0.0000000000000000e+00  0.0000000000000000e+00 0.0000000000000000e+00 0.0000000000000000e+00  -1.5974249227699276e-05 -6.9887162253947006e-07 0.0000000000000000e+00  -3.2421606031223868e-05 -1.4045612274891799e-06 0.0000000000000000e+00  -4.9821500542784192e-05 -2.1218398818493330e-06 0.0000000000000000e+00  -6.8649786273491397e-05 -2.8503112745358784e-06 0.0000000000000000e+00  -8.9371331870141592e-05 -3.5809012436102723e-06 0.0000000000000000e+00  -1.1242462360707708e-04 -4.2911927942560831e-06 0.0000000000000000e+00  -1.3819453615788855e-04 -4.9392500750279247e-06 0.0000000000000000e+00  -1.6696844120044107e-04 -5.4557452280323688e-06 0.0000000000000000e+00  -1.9886964341988772e-04 -5.7346770364342912e-06 0.0000000000000000e+00  -2.3376070903118927e-04 -5.6240672209739779e-06 0.0000000000000000e+00  -2.7110724482667703e-04 -4.9202935766961591e-06 0.0000000000000000e+00  -3.0978911814586585e-04 -3.3740637085753078e-06 0.0000000000000000e+00  -3.4783945720775632e-04 -7.2367695771900699e-07 0.0000000000000000e+00  -3.8208405372214553e-04 3.2169959838042025e-06 0.0000000000000000e+00  -4.0767264817728684e-04 8.3757992362071526e-06 0.0000000000000000e+00  -4.1766986471335389e-04 1.4110045735245313e-05 0.0000000000000000e+00  0.0000000000000000e+00 0.0000000000000000e+00 0.0000000000000000e+00  -1.9093115358992346e-05 -8.6453667285497630e-07 0.0000000000000000e+00  -3.8785714138567443e-05 -1.7425213767831288e-06 0.0000000000000000e+00  -5.9688321643497930e-05 -2.6454262465197884e-06 0.0000000000000000e+00  -8.2417162337634228e-05 -3.5795056874467584e-06 0.0000000000000000e+00  -1.0759101414382791e-04 -4.5419412282905523e-06 0.0000000000000000e+00  -1.3581927126051719e-04 -5.5153086929336422e-06 0.0000000000000000e+00  -1.6767659388760355e-04 -6.4595932202540603e-06 0.0000000000000000e+00  -2.0365806554393682e-04 -7.3008886761949767e-06 0.0000000000000000e+00  -2.4410709766492272e-04 -7.9160338880683702e-06 0.0000000000000000e+00  -2.8910668490947556e-04 -8.1131265455417050e-06 0.0000000000000000e+00  -3.3832354100078065e-04 -7.6098648083035571e-06 0.0000000000000000e+00  -3.9079514172081622e-04 -6.0163509830581195e-06 0.0000000000000000e+00  -4.4465420525752609e-04 -2.8383758054885851e-06 0.0000000000000000e+00  -4.9680102300661544e-04 2.4668616694603131e-06 0.0000000000000000e+00  -5.4258317124784849e-04 1.0329942280863810e-05 0.0000000000000000e+00  -5.7567059531478003e-04 2.0737911673013227e-05 0.0000000000000000e+00  0.0000000000000000e+00 0.0000000000000000e+00 0.0000000000000000e+00  -2.1611897099366517e-05 -1.0165643510704366e-06 0.0000000000000000e+00  -4.3947017318219888e-05 -2.0555970713014395e-06 0.0000000000000000e+00  -6.7745926916418562e-05 -3.1380959422129068e-06 0.0000000000000000e+00  -9.3769648157347865e-05 -4.2807950098955084e-06 0.0000000000000000e+00  -1.2280436904405764e-04 -5.4925799855052648e-06 0.0000000000000000e+00  -1.5565763517964466e-04 -6.7688037692774405e-06 0.0000000000000000e+00  -1.9314089939326246e-04 -8.0822447322789148e-06 0.0000000000000000e+00  -2.3603119373475216e-04 -9.3689217799683820e-06 0.0000000000000000e+00  -2.8500212780015926e-04 -1.0506349555265827e-05 0.0000000000000000e+00  -3.4051190975765603e-04 -1.1281340252763811e-05 0.0000000000000000e+00  -4.0263491365691658e-04 -1.1344899893477232e-05 0.0000000000000000e+00  -4.7082615936414442e-04 -1.0154969200239987e-05 0.0000000000000000e+00  -5.4361971203813967e-04 -6.9173730246303641e-06 0.0000000000000000e+00  -6.1828936846622634e-04 -5.5671679660660725e-07 0.0000000000000000e+00  -6.9054897062702670e-04 1.0214863187177937e-05 0.0000000000000000e+00  -7.5443090598513939e-04 2.6623199236340227e-05 0.0000000000000000e+00  0.0000000000000000e+00 0.0000000000000000e+00 0.0000000000000000e+00  -2.3407954875055156e-05 -1.1459474151925078e-06 0.0000000000000000e+00  -4.7652980177162400e-05 -2.3252695094459000e-06 0.0000000000000000e+00  -7.3597173398552387e-05 -3.5708632304773706e-06 0.0000000000000000e+00  -1.0214297746970426e-04 -4.9134996851040437e-06 0.0000000000000000e+00  -1.3424943070695458e-04 -6.3793595635070121e-06 0.0000000000000000e+00  -1.7094166392354039e-04 -7.9853828931073474e-06 0.0000000000000000e+00  -2.1330853200396147e-04 -9.7308134928968329e-06 0.0000000000000000e+00  -2.6248032334818297e-04 -1.1582268989986742e-05 0.0000000000000000e+00  -3.1957448798033820e-04 -1.3447989905856135e-05 0.0000000000000000e+00  -3.8559266927169018e-04 -1.5134455631798895e-05 0.0000000000000000e+00  -4.6124868114283597e-04 -1.6275524396849944e-05 0.0000000000000000e+00  -5.4670871676040366e-04 -1.6222242997137780e-05 0.0000000000000000e+00  -6.4124029477802052e-04 -1.3885547601157014e-05 0.0000000000000000e+00  -7.4280581852942818e-04 -7.5455423944642556e-06 0.0000000000000000e+00  -8.4769918685355177e-04 5.3049399252316310e-06 0.0000000000000000e+00  -9.5036213268772599e-04 2.7932048663849015e-05 0.0000000000000000e+00  0.0000000000000000e+00 0.0000000000000000e+00 0.0000000000000000e+00  -2.4369743232778792e-05 -1.2418758846810766e-06 0.0000000000000000e+00  -4.9670866505188731e-05 -2.5288723059437817e-06 0.0000000000000000e+00  -7.6868330729979478e-05 -3.9070734856598866e-06 0.0000000000000000e+00  -1.0699115604958003e-04 -5.4237290828566930e-06 0.0000000000000000e+00  -1.4116346457506522e-04 -7.1268689642121428e-06 0.0000000000000000e+00  -1.8063244954634014e-04 -9.0632209079282274e-06 0.0000000000000000e+00  -2.2678908186918632e-04 -1.1272828162925083e-05 0.0000000000000000e+00  -2.8117361628482202e-04 -1.3777344500975959e-05 0.0000000000000000e+00  -3.4545208401696694e-04 -1.6556332397283765e-05 0.0000000000000000e+00  -4.2134163119272991e-04 -1.9501063539819194e-05 0.0000000000000000e+00  -5.1045287374797143e-04 -2.2326998702754542e-05 0.0000000000000000e+00  -6.1401161043660049e-04 -2.4413383330965296e-05 0.0000000000000000e+00  -7.3243453366268708e-04 -2.4524135915350173e-05 0.0000000000000000e+00  -8.6479083747033065e-04 -2.0364459721911093e-05 0.0000000000000000e+00  -1.0083041651082611e-03 -7.9828731001411789e-06 0.0000000000000000e+00  -1.1581612057811599e-03 1.8830826476218681e-05 0.0000000000000000e+00  0.0000000000000000e+00 0.0000000000000000e+00 0.0000000000000000e+00  -2.4406248847525088e-05 -1.2927863837484290e-06 0.0000000000000000e+00  -4.9807305660872785e-05 -2.6417252142561405e-06 0.0000000000000000e+00  -7.7240098799565330e-05 -4.1056562857336128e-06 0.0000000000000000e+00  -1.0783069359374443e-04 -5.7486831095891073e-06 0.0000000000000000e+00  -1.4284220134990502e-04 -7.6426842889366248e-06 0.0000000000000000e+00  -1.8372546660551847e-04 -9.8693056467351179e-06 0.0000000000000000e+00  -2.3217069374100626e-04 -1.2520453198978156e-05 0.0000000000000000e+00  -2.9015415351734065e-04 -1.5694996054081800e-05 0.0000000000000000e+00  -3.5996663233057432e-04 -1.9486533547118490e-05 0.0000000000000000e+00  -4.4419737827426967e-04 -2.3950876445810427e-05 0.0000000000000000e+00  -5.4562744048831404e-04 -2.9028584055121426e-05 0.0000000000000000e+00  -6.6696227955924088e-04 -3.4370473239270706e-05 0.0000000000000000e+00  -8.1032383881341863e-04 -3.8962943867339563e-05 0.0000000000000000e+00  -9.7648598037250315e-04 -4.0377757327830937e-05 0.0000000000000000e+00  -1.1640910506310771e-03 -3.3449622759227417e-05 0.0000000000000000e+00  -1.3695778339294601e-03 -8.4079314112047492e-06 0.0000000000000000e+00  0.0000000000000000e+00 0.0000000000000000e+00 0.0000000000000000e+00  -2.3457900421185596e-05 -1.2878976397827076e-06 0.0000000000000000e+00  -4.7931349735687668e-05 -2.6403802404889452e-06 0.0000000000000000e+00  -7.4485275654143990e-05 -4.1264308809381375e-06 0.0000000000000000e+00  -1.0429652872253703e-04 -5.8245109342375774e-06 0.0000000000000000e+00  -1.3871859842037512e-04 -7.8283104686443561e-06 0.0000000000000000e+00  -1.7935692667750365e-04 -1.0253699545730323e-05 0.0000000000000000e+00  -2.2815718609179580e-04 -1.3247151414309825e-05 0.0000000000000000e+00  -2.8750592390955012e-04 -1.6995421780433580e-05 0.0000000000000000e+00  -3.6033565594647518e-04 -2.1734725836835317e-05 0.0000000000000000e+00  -4.5021043870299699e-04 -2.7753122170919896e-05 0.0000000000000000e+00  -5.6133613916308715e-04 -3.5366933141309441e-05 0.0000000000000000e+00  -6.9838439627640343e-04 -4.4816346392858156e-05 0.0000000000000000e+00  -8.6594659110183451e-04 -5.5930692271756265e-05 0.0000000000000000e+00  -1.0674231918559418e-03 -6.7189784360135161e-05 0.0000000000000000e+00  -1.3035117752451194e-03 -7.3445549656798930e-05 0.0000000000000000e+00  -1.5714914602241612e-03 -6.1651733350194437e-05 0.0000000000000000e+00  0.0000000000000000e+00 0.0000000000000000e+00 0.0000000000000000e+00  -2.1507749383491546e-05 -1.2190555529216809e-06 0.0000000000000000e+00  -4.3998610106776367e-05 -2.5066312809059503e-06 0.0000000000000000e+00  -6.8509490305809873e-05 -3.9369692225689767e-06 0.0000000000000000e+00  -9.6205125358884560e-05 -5.5971907397773873e-06 0.0000000000000000e+00  -1.2845640298390695e-04 -7.5958651963531966e-06 0.0000000000000000e+00  -1.6693803599946995e-04 -1.0074575219308621e-05 0.0000000000000000e+00  -2.1375394494642464e-04 -1.3224280080667323e-05 0.0000000000000000e+00  -2.7159893043073041e-04 -1.7309173722449596e-05 0.0000000000000000e+00  -3.4396192332767646e-04 -2.2702046609988500e-05 0.0000000000000000e+00  -4.3536301554754228e-04 -2.9936506230090632e-05 0.0000000000000000e+00  -5.5157965190869734e-04 -3.9780015508216451e-05 0.0000000000000000e+00  -6.9972902951902824e-04 -5.3314484604655447e-05 0.0000000000000000e+00  -8.8789056893307341e-04 -7.1923978595046776e-05 0.0000000000000000e+00  -1.1236753210711427e-03 -9.6725714895413097e-05 0.0000000000000000e+00  -1.4113546662883325e-03 -1.2571595466230533e-04 0.0000000000000000e+00  -1.7504626259038270e-03 -1.4582722577840217e-04 0.0000000000000000e+00  0.0000000000000000e+00 0.0000000000000000e+00 0.0000000000000000e+00  -1.8591246786675685e-05 -1.0825747170290394e-06 0.0000000000000000e+00  -3.8072965018778087e-05 -2.2316094453213552e-06 0.0000000000000000e+00  -5.9389396038689511e-05 -3.5198683807014729e-06 0.0000000000000000e+00  -8.3616828129787340e-05 -5.0346605476092365e-06 0.0000000000000000e+00  -1.1204849713819017e-04 -6.8879705212806992e-06 0.0000000000000000e+00  -1.4630640734493894e-04 -9.2308007096567289e-06 0.0000000000000000e+00  -1.8849510255692262e-04 -1.2274653643395992e-05 0.0000000000000000e+00  -2.4141803845489771e-04 -1.6325175223073593e-05 0.0000000000000000e+00  -3.0888326162550715e-04 -2.1837176122365865e-05 0.0000000000000000e+00  -3.9612666587477807e-04 -2.9509015089663661e-05 0.0000000000000000e+00  -5.1036209868577254e-04 -4.0452875027192101e-05 0.0000000000000000e+00  -6.6138169705459260e-04 -5.6514245504636587e-05 0.0000000000000000e+00  -8.6185262815310578e-04 -8.0866347671326117e-05 0.0000000000000000e+00  -1.1261715371115220e-03 -1.1893191445304995e-04 0.0000000000000000e+00  -1.4649092224487752e-03 -1.7815154693507526e-04 0.0000000000000000e+00  -1.8794842359832204e-03 -2.4858128514556905e-04 0.0000000000000000e+00  0.0000000000000000e+00 0.0000000000000000e+00 0.0000000000000000e+00  -1.4802619124926678e-05 -8.8067842559345773e-07 0.0000000000000000e+00  -3.0341480459152203e-05 -1.8190618231307853e-06 0.0000000000000000e+00  -4.7400895239120926e-05 -2.8787810973665139e-06 0.0000000000000000e+00  -6.6885960890162964e-05 -4.1373408233585699e-06 0.0000000000000000e+00  -8.9903344690930065e-05 -5.6959814929787580e-06 0.0000000000000000e+00  -1.1787243586636482e-04 -7.6938777176756575e-06 0.0000000000000000e+00  -1.5268674229776950e-04 -1.0329691286812624e-05 0.0000000000000000e+00  -1.9695698237459630e-04 -1.3895640930711773e-05 0.0000000000000000e+00  -2.5438610809863361e-04 -1.8833691088352578e-05 0.0000000000000000e+00  -3.3035468585759044e-04 -2.5833801819667735e-05 0.0000000000000000e+00  -4.3282923685892849e-04 -3.6021438536538212e-05 0.0000000000000000e+00  -5.7371608269673308e-04 -5.1360391369310443e-05 0.0000000000000000e+00  -7.7063511508471301e-04 -7.5635585403262314e-05 0.0000000000000000e+00  -1.0482460409543665e-03 -1.1711617082622847e-04 0.0000000000000000e+00  -1.4340670604520798e-03 -1.9651870645562763e-04 0.0000000000000000e+00  -1.9081597012635676e-03 -3.7951645703246378e-04 0.0000000000000000e+00  0.0000000000000000e+00 0.0000000000000000e+00 0.0000000000000000e+00  -1.0295851121290688e-05 -6.2215682431844736e-07 0.0000000000000000e+00  -2.1117998610660307e-05 -1.2869250027514165e-06 0.0000000000000000e+00  -3.3029092611403150e-05 -2.0414985528184063e-06 0.0000000000000000e+00  -4.6684543094532740e-05 -2.9438878740760942e-06 0.0000000000000000e+00  -6.2896443180858252e-05 -4.0706396341798793e-06 0.0000000000000000e+00  -8.2724460752746438e-05 -5.5279099035660917e-06 0.0000000000000000e+00  -1.0761334155158977e-04 -7.4679629743509055e-06 0.0000000000000000e+00  -1.3961095362231574e-04 -1.0114074854313156e-05 0.0000000000000000e+00  -1.8172772704892840e-04 -1.3797866624561538e-05 0.0000000000000000e+00  -2.3854941498871991e-04 -1.9013932465670483e-05 0.0000000000000000e+00  -3.1731169029536907e-04 -2.6497825200339922e-05 0.0000000000000000e+00  -4.2982376525995894e-04 -3.7346458582022756e-05 0.0000000000000000e+00  -5.9594452256343171e-04 -5.3303439986142281e-05 0.0000000000000000e+00  -8.4985203960373295e-04 -7.7911517769207032e-05 0.0000000000000000e+00  -1.2512661880904874e-03 -1.2162030957042036e-04 0.0000000000000000e+00  -1.9052378236837451e-03 -2.1994442570693663e-04 0.0000000000000000e+00  0.0000000000000000e+00 0.0000000000000000e+00 0.0000000000000000e+00  -5.2787929599507324e-06 -3.2200153756569425e-07 0.0000000000000000e+00  -1.0831787737961531e-05 -6.6661670039134131e-07 0.0000000000000000e+00  -1.6952760888949178e-05 -1.0589460322332418e-06 0.0000000000000000e+00  -2.3985891207992473e-05 -1.5299823935869309e-06 0.0000000000000000e+00  -3.2361152392939113e-05 -2.1207997266884338e-06 0.0000000000000000e+00  -4.2645688843348433e-05 -2.8884823507636041e-06 0.0000000000000000e+00  -5.5623583663902073e-05 -3.9146466387500000e-06 0.0000000000000000e+00  -7.2426533779934750e-05 -5.3171683029909965e-06 0.0000000000000000e+00  -9.4758213999553595e-05 -7.2636601265251943e-06 0.0000000000000000e+00  -1.2529613891098436e-04 -9.9760020393033836e-06 0.0000000000000000e+00  -1.6843552149037100e-04 -1.3679415752922111e-05 0.0000000000000000e+00  -2.3167418929185191e-04 -1.8318029452470776e-05 0.0000000000000000e+00  -3.2799579121892076e-04 -2.2400049748487789e-05 0.0000000000000000e+00  -4.7844571242144798e-04 -1.8956672703047210e-05 0.0000000000000000e+00  -7.0589595034826103e-04 1.5355217632223157e-05 0.0000000000000000e+00  -9.8592013367642512e-04 1.2750118147719153e-04 0.0000000000000000e+00  0.0000000000000000e+00 0.0000000000000000e+00 0.0000000000000000e+00  0.0000000000000000e+00 0.0000000000000000e+00 0.0000000000000000e+00  0.0000000000000000e+00 0.0000000000000000e+00 0.0000000000000000e+00  0.0000000000000000e+00 0.0000000000000000e+00 0.0000000000000000e+00  0.0000000000000000e+00 0.0000000000000000e+00 0.0000000000000000e+00  0.0000000000000000e+00 0.0000000000000000e+00 0