<?xml version="1.0"?>
<VTKFile type="UnstructuredGrid"  version="0.1"  >
<UnstructuredGrid>
<Piece  NumberOfPoints="289" NumberOfCells="512">
<Points>
<DataArray  type="Float64"  NumberOfComponents="3"  format="ascii">0 0 0  0.0625 0 0  0.125 0 0  0.1875 0 0  0.25 0 0  0.3125 0 0  0.375 0 0  0.4375 0 0  0.5 0 0  0.5625 0 0  0.625 0 0  0.6875 0 0  0.75 0 0  0.8125 0 0  0.875 0 0  0.9375 0 0  1 0 0  0 0.0625 0  0.06262489312380193 0.06247030373496706 0  0.1252541644508657 0.06243997046776104 0  0.1878923891941541 0.06240838454491123 0  0.2505444009175821 0.06237500627542693 0  0.3132154383436 0.06233942312025204 0  0.3759113181484239 0.06230141582423147 0  0.4386386665707732 0.06226104007211888 0  0.5014052852987909 0.06221871671985518 0  0.5642208307436104 0.06217530749550676 0  0.6270982486176226 0.06213211840907878 0  0.6900571095652127 0.0620906944135377 0  0.7531319946027041 0.06205206820421514 0  0.8163951334875169 0.06201453266002617 0  0.8800218653024174 0.06196699341334232 0  0.9444934858860389 0.06186736030333723 0  1.011286048219298 0.0615639467993402 0  0 0.125 0  0.06274553092851752 0.1249412102999784 0  0.1254997494641002 0.1248811053151596 0  0.188271737886539 0.1248184077200191 0  0.2510711130942804 0.1247519805836299 0  0.3139083287036933 0.1246809258186799 0  0.3767950240860425 0.1246047162923085 0  0.4397444709213543 0.1245233672100903 0  0.5027722240988123 0.1244376417766876 0  0.5658972071483989 0.1243492635310312 0  0.629143731000389 0.1242610638729095 0  0.6925455159774745 0.1241769168165365 0  0.7561539144812659 0.1241012081677686 0  0.8200542844646089 0.1240375763843375 0  0.884394639095051 0.1239875134953107 0  0.9494139204282765 0.1239550376794191 0  1.015344616894625 0.1239923627780849 0  0 0.1875 0  0.06285756996164081 0.1874134120785507 0  0.1257279359887154 0.1873247595182724 0  0.1886244745382567 0.1872320226363184 0  0.2515613798797373 0.1871333624967537 0  0.3145541193896534 0.1870272566963349 0  0.3776199432623334 0.1869126925573139 0  0.4407784931366719 0.1867894350705128 0  0.5040525890055795 0.1866583794005756 0  0.5674693347059807 0.1865219785722866 0  0.6310617716340311 0.1863846963629388 0  0.6948713769036181 0.1862533594820873 0  0.7589514661534401 0.1861371528417697 0  0.8233699535067079 0.18604677290791 0  0.8882036289017889 0.1859916711258787 0  0.9534974072908262 0.1859716913336577 0  1.019125066007796 0.1859448537169913 0  0 0.25 0  0.06295689425650752 0.249887670115959 0  0.1259303552182935 0.2497724377532288 0  0.18893769349895 0.2496514373057492 0  0.2519973208769005 0.2495219858238436 0  0.3151293554056466 0.2493817371094038 0  0.3783562816137086 0.2492289197642169 0  0.4417036930726064 0.2490626946236151 0  0.5052011465774552 0.24888366922155 0  0.5688831409829505 0.2486946017400057 0  0.6327901507539867 0.2485013043706767 0  0.6969693562707115 0.2483136983598662 0  0.7614738650164169 0.2481468485150299 0  0.826357027158957 0.2480215545003285 0  0.8916536824847471 0.247963595331935 0  0.9573329239801093 0.2480000145284594 0  1.023207376740362 0.2481518806397971 0  0 0.3125 0  0.06303974489714011 0.3123648296528314 0  0.1260993509009344 0.3122258322960266 0  0.1891995565794207 0.3120791892560714 0  0.2523624805595699 0.3119212133756731 0  0.3156123768930824 0.3117484908145238 0  0.3789764534392033 0.3115581301404354 0  0.4424857719772927 0.3113481754309658 0  0.5061762315393281 0.3111182580948981 0  0.5700895811812139 0.3108705817115164 0  0.6342742571334729 0.3106113474455582 0  0.6987854685686326 0.3103527148632764 0  0.7636831424195325 0.3101153113889679 0  0.8290248078778968 0.3099310729393063 0  0.8948484162218007 0.3098457089162149 0  0.9611398537274012 0.3099193221314582 0  1.027790107933952 0.3102230786373321 0  0 0.375 0  0.0631028491085683 0.3748458165423704 0  0.1262282400727706 0.3746868223971848 0  0.1893996894495474 0.3745181623742827 0  0.2526423602631873 0.3743349973110661 0  0.3159839686107612 0.3741325913644279 0  0.3794557787116318 0.373906517668386 0  0.4430937183119046 0.3736530575865421 0  0.506939636576569 0.3733699061800247 0  0.5710426889229243 0.3730573498050085 0  0.635460727065848 0.3727201497399596 0  0.7002613224095707 0.3723704327786783 0  0.7655215546511248 0.3720319024116056 0  0.8313249377426291 0.3717455122869061 0  0.8977533252756271 0.3715761561862896 0  0.9648733774706961 0.3716187174940463 0  1.032725964596995 0.3720002482362139 0  0 0.4375 0  0.06314354961956045 0.4373316083865318 0  0.1263115756323703 0.4371574211458763 0  0.1895295843954102 0.4369715206080837 0  0.2528249668777829 0.4367678222812703 0  0.3162280485812622 0.4365400577871608 0  0.3797732700309918 0.4362818648573322 0  0.4435005649130573 0.4359870671249244 0  0.5074570272277148 0.4356502819453282 0  0.5716989922506299 0.4352680845408214 0  0.6362946920981896 0.4348410951688796 0  0.7013276642641837 0.4343775473590201 0  0.7669010554929417 0.4338990976602953 0  0.8331428816840554 0.4334496688794272 0  0.9002124879998302 0.4331075050964234 0  0.9683102783975939 0.4329986035571226 0  1.03770028102308 0.4333061933185439 0  0 0.5 0  0.06315993291861662 0.4998231762713186 0  0.1263454096304037 0.4996396593774436 0  0.1895830129081863 0.4994425368035154 0  0.252901396695118 0.4992244894052197 0  0.3163324527924727 0.4989776213237944 0  0.3799126543024535 0.4986933553920555 0  0.4436846871516333 0.4983624644944076 0  0.5076995551633432 0.4979753738591529 0  0.5720194860135743 0.4975229866808771 0  0.6367222243425358 0.4969984942511845 0  0.7019077378928716 0.4964009860538881 0  0.7677090296507982 0.495742213356555 0  0.8343096042673896 0.4950584498248113 0  0.9019710630682395 0.4944292433970721 0  0.9710758674935024 0.4940015707553656 0  1.042197595988169 0.4940072802531918 0  0 0.5625 0  0.06315095053083539 0.5623213971114195 0  0.1263275456786048 0.5621354044969481 0  0.189556430924681 0.561934307370709 0  0.252866432120919 0.5617097147425933 0  0.3162897899832303 0.5614522019085714 0  0.3798636024944406 0.5611509451917208 0  0.4436316178929171 0.5607933813696202 0  0.5076466392450261 0.5603649794468367 0  0.57197405489368 0.5598493283647187 0  0.6366975342364865 0.5592289861726314 0  0.7019289585604988 0.5584880360851965 0  0.767826499099757 0.5576182932699932 0  0.8346275591138999 0.556632893377374 0  0.9027064428337818 0.5555931581060888 0  0.9726686489255237 0.5546528884905298 0  1.045498277878322 0.5541059512182569 0  0 0.625 0  0.06311652238001217 0.6248269427038649 0  0.1262577571072971 0.624646125184476 0  0.1894493365585739 0.6244493653645581 0  0.2527190844709363 0.6242275490673399 0  0.3160982524367484 0.6239700796733502 0  0.3796229649377287 0.623664224063145 0  0.4433360118920162 0.6232943250043146 0  0.5072892548358638 0.6228408719028048 0  0.5715472190543195 0.6222794885691407 0  0.6361931711391584 0.6215800806348619 0  0.7013406490105488 0.6207068764074016 0  0.7671569964087207 0.6196213972352468 0  0.8339122837798999 0.6182937701291726 0  0.9020769790376324 0.6167355650239706 0  0.9724982484654647 0.6150768939063004 0  1.046681178058894 0.6136814247528823 0  0 0.6875 0  0.06305760781795748 0.6873401587130014 0  0.1261379397229575 0.6871726289998131 0  0.1892645259689325 0.6869892334372086 0  0.2524629902855898 0.6867806739550433 0  0.3157622189092347 0.6865358239387332 0  0.3791957072325577 0.6862408183532591 0  0.44280317626243 0.6858778382783769 0  0.5066326271054923 0.6854234551540319 0  0.5707432269280949 0.6848463702687841 0  0.6352100838592927 0.6841043922491297 0  0.700133871750544 0.6831406751808823 0  0.7656634803761168 0.6818801120366437 0  0.8320531270980905 0.6802303841729915 0  0.8998039735786534 0.6781065695790613 0  0.9699719621057931 0.675550830310941 0  1.044706191048546 0.6730743676044378 0  0 0.75 0  0.06297622956438005 0.749860953245963 0  0.1259721678497323 0.7497148151603263 0  0.189008194760033 0.7495539875951658 0  0.2521065758983571 0.7493696829371916 0  0.315292504092723 0.7491511376103751 0  0.3785952736992919 0.7488845509024143 0  0.4420496095462649 0.7485515829512392 0  0.5056971449989961 0.748127161241678 0  0.5695880290250934 0.7475762081934053 0  0.6337827963306076 0.7468486808921945 0  0.6983556369416837 0.7458719590713834 0  0.7634046306199492 0.7445391232809094 0  0.829091418642789 0.7426916292632927 0  0.8957917616577518 0.740100576803265 0  0.9646150605230092 0.736502446569721 0  1.038342549828839 0.732211232560535 0  0 0.8125 0  0.06287543893082025 0.812388718240819 0  0.125766630054961 0.8122714941263852 0  0.1886898495274947 0.8121419231691159 0  0.2516629439784994 0.811992498883399 0  0.3147061966149191 0.8118138605525089 0  0.3778432927495554 0.8115937452640865 0  0.4411023560966406 0.8113154505389563 0  0.5045169037198269 0.8109554993723721 0  0.568126271050017 0.8104800021890669 0  0.6319744109922331 0.8098388598612346 0  0.6961047869831523 0.8089562816437027 0  0.7605479673676939 0.8077146419536783 0  0.8253035355152657 0.8059251869559602 0  0.8903641987997427 0.8032709806404771 0  0.9561148922472128 0.7992024772599371 0  1.026641479137705 0.7929901882272855 0  0 0.875 0  0.06275921628953024 0.8749223055794955 0  0.1255294332474245 0.8748403241333841 0  0.1883220177322796 0.8747494156433022 0  0.2511494844595814 0.8746440895399565 0  0.3140261391509357 0.8745174113548138 0  0.3769688077062679 0.8743601582261386 0  0.439997624400042 0.8741595506984545 0  0.5031367165413723 0.8738972788968337 0  0.5664142320513667 0.8735463527020643 0  0.6298600614078478 0.8730659825629619 0  0.6934966053062687 0.8723931224906126 0  0.7573100219028376 0.8714280581276701 0  0.8211703412602397 0.8700072805173407 0  0.8846339483451521 0.8678378805914787 0  0.9465589727756745 0.8642777447785592 0  1.004814166929172 0.8574422612631524 0  0 0.9375 0  0.06263230711849037 0.9374600726778954 0  0.1252702758406313 0.9374178997303217 0  0.1879197608623186 0.9373710445446163 0  0.250587235649902 0.9373166075150945 0  0.313280150502546 0.9372508987368976 0  0.3760073574128679 0.9371689658140823 0  0.438779606506754 0.937063873438795
[...]
<PointData  Vectors="f_54"> 
<DataArray  type="Float64"  Name="f_54"  NumberOfComponents="3" format="ascii">0.0000000000000000e+00 0.0000000000000000e+00 0.0000000000000000e+00  0.0000000000000000e+00 0.0000000000000000e+00 0.0000000000000000e+00  0.0000000000000000e+00 0.0000000000000000e+00 0.0000000000000000e+00  0.0000000000000000e+00 0.0000000000000000e+00 0.0000000000000000e+00  0.0000000000000000e+00 0.0000000000000000e+00 0.0000000000000000e+00  0.0000000000000000e+00 0.0000000000000000e+00 0.0000000000000000e+00  0.0000000000000000e+00 0.0000000000000000e+00 0.0000000000000000e+00  0.0000000000000000e+00 0.0000000000000000e+00 0.0000000000000000e+00  0.0000000000000000e+00 0.0000000000000000e+00 0.0000000000000000e+00  0.0000000000000000e+00 0.0000000000000000e+00 0.0000000000000000e+00  0.0000000000000000e+00 0.0000000000000000e+00 0.0000000000000000e+00  0.0000000000000000e+00 0.0000000000000000e+00 0.0000000000000000e+00  0.0000000000000000e+00 0.0000000000000000e+00 0.0000000000000000e+00  0.0000000000000000e+00 0.0000000000000000e+00 0.0000000000000000e+00  0.0000000000000000e+00 0.0000000000000000e+00 0.0000000000000000e+00  0.0000000000000000e+00 0.0000000000000000e+00 0.0000000000000000e+00  0.0000000000000000e+00 0.0000000000000000e+00 0.0000000000000000e+00  0.0000000000000000e+00 0.0000000000000000e+00 0.0000000000000000e+00  -4.8837725042557435e-07 -1.5486505981133359e-07 0.0000000000000000e+00  -9.6516756947169706e-07 -3.1230841846511702e-07 0.0000000000000000e+00  -1.4148965600440650e-06 -4.7486545169692117e-07 0.0000000000000000e+00  -1.8127400971029404e-06 -6.4470050102829128e-07 0.0000000000000000e+00  -2.1182011762770365e-06 -8.2346171575675180e-07 0.0000000000000000e+00  -2.2665121283560094e-06 -1.0122306637286870e-06 0.0000000000000000e+00  -2.1563641237573900e-06 -1.2117114471059620e-06 0.0000000000000000e+00  -1.6315670988283930e-06 -1.4229631758290408e-06 0.0000000000000000e+00  -4.5191487317821395e-07 -1.6493123811797916e-06 0.0000000000000000e+00  1.7573224124571059e-06 -1.9008598517162041e-06 0.0000000000000000e+00  5.6036748855109477e-06 -2.2050859748839073e-06 0.0000000000000000e+00  1.2145820031292297e-05 -2.6334542798212604e-06 0.0000000000000000e+00  2.3447438897648837e-05 -3.3755923804929586e-06 0.0000000000000000e+00  4.4164206313543214e-05 -4.9723939030028855e-06 0.0000000000000000e+00  8.6671242575000543e-05 -9.1445257483496367e-06 0.0000000000000000e+00  1.9079883406283879e-04 -2.2326613712220057e-05 0.0000000000000000e+00  0.0000000000000000e+00 0.0000000000000000e+00 0.0000000000000000e+00  -9.8974311717542185e-07 -3.0762508409471651e-07 0.0000000000000000e+00  -1.9605741483073452e-06 -6.2065560323497640e-07 0.0000000000000000e+00  -2.8863245287137826e-06 -9.4439381652778943e-07 0.0000000000000000e+00  -3.7231803561826284e-06 -1.2833689580728964e-06 0.0000000000000000e+00  -4.3977060114789253e-06 -1.6409826127545326e-06 0.0000000000000000e+00  -4.7905718271150321e-06 -2.0192650026341462e-06 0.0000000000000000e+00  -4.7135583251779908e-06 -2.4189615747789889e-06 0.0000000000000000e+00  -3.8760515032539769e-06 -2.8404058151649253e-06 0.0000000000000000e+00  -1.8344597592368531e-06 -3.2860575372526519e-06 0.0000000000000000e+00  2.0879982343032407e-06 -3.7663306670329007e-06 0.0000000000000000e+00  8.9367821332648452e-06 -4.3115829478138534e-06 0.0000000000000000e+00  2.0370284604278370e-05 -4.9947897240570074e-06 0.0000000000000000e+00  3.9118113907397289e-05 -5.9686466777073663e-06 0.0000000000000000e+00  6.9810398294504973e-05 -7.4977166801659428e-06 0.0000000000000000e+00  1.2009131309922314e-04 -9.8034003132011726e-06 0.0000000000000000e+00  1.9929968213752746e-04 -1.1555045530609019e-05 0.0000000000000000e+00  0.0000000000000000e+00 0.0000000000000000e+00 0.0000000000000000e+00  -1.5107808127301035e-06 -4.5529758112310043e-07 0.0000000000000000e+00  -3.0034549360812251e-06 -9.1927941680932464e-07 0.0000000000000000e+00  -4.4503762266787721e-06 -1.4004460593055287e-06 0.0000000000000000e+00  -5.8002392871116812e-06 -1.9061005853134324e-06 0.0000000000000000e+00  -6.9619141355793311e-06 -2.4416912305300283e-06 0.0000000000000000e+00  -7.7824569304953507e-06 -3.0101506298853518e-06 0.0000000000000000e+00  -8.0163484485820719e-06 -3.6114219274775520e-06 0.0000000000000000e+00  -7.2819592996573668e-06 -4.2426038554588174e-06 0.0000000000000000e+00  -4.9996315405963002e-06 -4.8995378587782168e-06 0.0000000000000000e+00  -3.0346492762293564e-07 -5.5811952010204049e-06 0.0000000000000000e+00  8.0834792042426937e-06 -6.2986651170813701e-06 0.0000000000000000e+00  2.2018725556141231e-05 -7.0898661621183376e-06 0.0000000000000000e+00  4.4135804389177442e-05 -8.0359771255409971e-06 0.0000000000000000e+00  7.7920051237427535e-05 -9.2578176615045234e-06 0.0000000000000000e+00  1.2706701905743550e-04 -1.0833340486627434e-05 0.0000000000000000e+00  1.9229391470260170e-04 -1.2631189061590046e-05 0.0000000000000000e+00  0.0000000000000000e+00 0.0000000000000000e+00 0.0000000000000000e+00  -2.0499987539393268e-06 -5.9446746542255786e-07 0.0000000000000000e+00  -4.0936302270434008e-06 -1.2015494257095579e-06 0.0000000000000000e+00  -6.1142216991273716e-06 -1.8336013108894593e-06 0.0000000000000000e+00  -8.0686967058781849e-06 -2.5014101213541869e-06 0.0000000000000000e+00  -9.8692395025076411e-06 -3.2131728942493705e-06 0.0000000000000000e+00  -1.1358082121020379e-05 -3.9732151900462384e-06 0.0000000000000000e+00  -1.2272191444638105e-05 -4.7805025900898097e-06 0.0000000000000000e+00  -1.2194004442034296e-05 -5.6272043297595895e-06 0.0000000000000000e+00  -1.0484050723531031e-05 -6.4979355014180582e-06 0.0000000000000000e+00  -6.1923287139623449e-06 -7.3708632469803939e-06 0.0000000000000000e+00  2.0495763564801224e-06 -8.2224921356668169e-06 0.0000000000000000e+00  1.6137152847839693e-05 -9.0380835212227652e-06 0.0000000000000000e+00  3.8538190540433084e-05 -9.8278889974364779e-06 0.0000000000000000e+00  7.2098793120781182e-05 -1.0643672717479422e-05 0.0000000000000000e+00  1.1921894423317824e-04 -1.1582230682946019e-05 0.0000000000000000e+00  1.7984014037359649e-04 -1.2769787301610584e-05 0.0000000000000000e+00  0.0000000000000000e+00 0.0000000000000000e+00 0.0000000000000000e+00  -2.5950616915824669e-06 -7.2110878339195175e-07 0.0000000000000000e+00  -5.2076917975056320e-06 -1.4595710870257589e-06 0.0000000000000000e+00  -7.8461636256711711e-06 -2.2324671355855756e-06 0.0000000000000000e+00  -1.0493575679628649e-05 -3.0551400948501904e-06 0.0000000000000000e+00  -1.3089738110734208e-05 -3.9398484290633981e-06 0.0000000000000000e+00  -1.5505521509147669e-05 -4.8937856768851856e-06 0.0000000000000000e+00  -1.7506091431991523e-05 -5.9162714344383666e-06 0.0000000000000000e+00  -1.8698845860979678e-05 -6.9950273131656316e-06 0.0000000000000000e+00  -1.8461895359248923e-05 -8.1017651540249694e-06 0.0000000000000000e+00  -1.5850906298267122e-05 -9.1880313307918402e-06 0.0000000000000000e+00  -9.4889041250789845e-06 -1.0183680280541182e-05 0.0000000000000000e+00  2.5393385480222707e-06 -1.1002906357540506e-05 0.0000000000000000e+00  2.2730908995753276e-05 -1.1566923490452421e-05 0.0000000000000000e+00  5.4028755352872059e-05 -1.1858792027620473e-05 0.0000000000000000e+00  9.9334452919260712e-05 -1.2036189745386795e-05 0.0000000000000000e+00  1.6062124569265381e-04 -1.2646379113495605e-05 0.0000000000000000e+00  0.0000000000000000e+00 0.0000000000000000e+00 0.0000000000000000e+00  -3.1217073753744969e-06 -8.3045117260349450e-07 0.0000000000000000e+00  -6.2964940320437596e-06 -1.6838491462683179e-06 0.0000000000000000e+00  -9.5710081354257288e-06 -2.5829917829893389e-06 0.0000000000000000e+00  -1.2972327135120678e-05 -3.5491749281144481e-06 0.0000000000000000e+00  -1.6492748237107073e-05 -4.6007181997822056e-06 0.0000000000000000e+00  -2.0066853315817746e-05 -5.7504433892432041e-06 0.0000000000000000e+00  -2.3536733572969970e-05 -7.0015542345707018e-06 0.0000000000000000e+00  -2.6600064930944091e-05 -8.3412573150562730e-06 0.0000000000000000e+00  -2.8734777939662653e-05 -9.7315195267065676e-06 0.0000000000000000e+00  -2.9094447232393290e-05 -1.1096944171827812e-05 0.0000000000000000e+00  -2.6372465474684666e-05 -1.2311683695351789e-05 0.0000000000000000e+00  -1.8644220141935263e-05 -1.3192216274472738e-05 0.0000000000000000e+00  -3.2182334854158705e-06 -1.3513406041984614e-05 0.0000000000000000e+00  2.3446458222373093e-05 -1.3084759723961201e-05 0.0000000000000000e+00  6.5711691584351752e-05 -1.1952850470850090e-05 0.0000000000000000e+00  1.2875786850187885e-04 -1.0826950974550212e-05 0.0000000000000000e+00  0.0000000000000000e+00 0.0000000000000000e+00 0.0000000000000000e+00  -3.5945482244160694e-06 -9.1695674337846911e-07 0.0000000000000000e+00  -7.2865739928602868e-06 -1.8631527917008090e-06 0.0000000000000000e+00  -1.1171719230838075e-05 -2.8680190757231554e-06 0.0000000000000000e+00  -1.5336051143673789e-05 -3.9603271993017200e-06 0.0000000000000000e+00  -1.9846649262000170e-05 -5.1669883219047431e-06 0.0000000000000000e+00  -2.4735087044602682e-05 -6.5104857733427770e-06 0.0000000000000000e+00  -2.9969196376333601e-05 -8.0039887856743147e-06 0.0000000000000000e+00  -3.5406216159253873e-05 -9.6427020913858787e-06 0.0000000000000000e+00  -4.0717377233953652e-05 -1.1389418654177834e-05 0.0000000000000000e+00  -4.5270596201789861e-05 -1.3151886074002331e-05 0.0000000000000000e+00  -4.7955730144962873e-05 -1.4750526768987518e-05 0.0000000000000000e+00  -4.6939060505484858e-05 -1.5880021404764443e-05 0.0000000000000000e+00  -3.9344606645651216e-05 -1.6083206496937207e-05 0.0000000000000000e+00  -2.0876316850589512e-05 -1.4790286576897511e-05 0.0000000000000000e+00  1.4623484898471841e-05 -1.1538367822090953e-05 0.0000000000000000e+00  7.5874501849243774e-05 -6.5669752120999256e-06 0.0000000000000000e+00  0.0000000000000000e+00 0.0000000000000000e+00 0.0000000000000000e+00  -3.9698861749225128e-06 -9.7448955023344963e-07 0.0000000000000000e+00  -8.0858053001761844e-06 -1.9847715835980493e-06 0.0000000000000000e+00  -1.2497919347607395e-05 -3.0674320876361117e-06 0.0000000000000000e+00  -1.7360653880804974e-05 -4.2599737835608588e-06 0.0000000000000000e+00  -2.2831959459869273e-05 -5.6004712477009295e-06 0.0000000000000000e+00  -2.9067411176856795e-05 -7.1258351042283058e-06 0.0000000000000000e+00  -3.6204600381088718e-05 -8.8674405114315736e-06 0.0000000000000000e+00  -4.4329776224235261e-05 -1.0841902270893067e-05 0.0000000000000000e+00  -5.3412931245254998e-05 -1.3033167081323134e-05 0.0000000000000000e+00  -6.3188686847386535e-05 -1.5359678680685029e-05 0.0000000000000000e+00  -7.2948420744871093e-05 -1.7617534416935449e-05 0.0000000000000000e+00  -8.1197093875123755e-05 -1.9389791086293529e-05 0.0000000000000000e+00  -8.5125862611805535e-05 -1.9922026699526829e-05 0.0000000000000000e+00  -7.9873742627674591e-05 -1.8006464758395367e-05 0.0000000000000000e+00  -5.7580305574046719e-05 -1.2024578517607936e-05 0.0000000000000000e+00  -6.0781583631592239e-06 -4.6795556711311366e-07 0.0000000000000000e+00  0.0000000000000000e+00 0.0000000000000000e+00 0.0000000000000000e+00  -4.2004610921718000e-06 -9.9675256321284234e-07 0.0000000000000000e+00  -8.5932077117363493e-06 -2.0353487746524224e-06 0.0000000000000000e+00  -1.3381335038255126e-05 -3.1592640171718348e-06 0.0000000000000000e+00  -1.8788537864181772e-05 -4.4151477753926392e-06 0.0000000000000000e+00  -2.5069417031562451e-05 -5.8539912899449790e-06 0.0000000000000000e+00  -3.2518347334964951e-05 -7.5313736794591676e-06 0.0000000000000000e+00  -4.1473664864424252e-05 -9.5055999862729986e-06 0.0000000000000000e+00  -5.2309780986047531e-05 -1.1831236743340920e-05 0.0000000000000000e+00  -6.5401763223021207e-05 -1.4542941218033477e-05 0.0000000000000000e+00  -8.1032014560598691e-05 -1.7619399092114470e-05 0.0000000000000000e+00  -9.9183218461100706e-05 -2.0907766925292778e-05 0.0000000000000000e+00  -1.1912425569564723e-04 -2.3973486598604152e-05 0.0000000000000000e+00  -1.3865851006443920e-04 -2.5822481168297302e-05 0.0000000000000000e+00  -1.5291833227780899e-04 -2.4452848972757779e-05 0.0000000000000000e+00  -1.5274315950983494e-04 -1.6330241652791234e-05 0.0000000000000000e+00  -1.2281138210177873e-04 3.7522905286791493e-06 0.0000000000000000e+00  0.0000000000000000e+00 0.0000000000000000e+00 0.0000000000000000e+00  -4.2417813114542149e-06 -9.7802567219569103e-07 0.0000000000000000e+00  -8.7122973587120357e-06 -2.0024002098344404e-06 0.0000000000000000e+00  -1.3657526908370789e-05 -3.1220561463938861e-06 0.0000000000000000e+00  -1.9360598194084952e-05 -4.3917274489467527e-06 0.0000000000000000e+00  -2.6164229829599883e-05 -5.8751393625855193e-06 0.0000000000000000e+00  -3.4497273738106122e-05 -7.6483198365101888e-06 0.0000000000000000e+00  -4.4905207993607009e-05 -9.8024700459389363e-06 0.0000000000000000e+00  -5.8081064695732619e-05 -1.2444694806471773e-05 0.0000000000000000e+00  -7.4885066571888653e-05 -1.5692160356170635e-05 0.0000000000000000e+00  -9.6322568095493177e-05 -1.9648725701977216e-05 0.0000000000000000e+00  -1.2341018482490987e-04 -2.4337630850938637e-05 0.0000000000000000e+00  -1.5678287596265027e-04 -2.9527830434606125e-05 0.0000000000000000e+00  -1.9576982514434585e-04 -3.4313169777493301e-05 0.0000000000000000e+00  -2.3656285007329054e-04 -3.6170130418154325e-05 0.0000000000000000e+00  -2.6938364682791945e-04 -2.9199050314958803e-05 0.0000000000000000e+00  -2.7551122390096877e-04 -2.0662871445013939e-06 0.0000000000000000e+00  0.0000000000000000e+00 0.0000000000000000e+00 0.0000000000000000e+00  -4.0593446634940940e-06 -9.1415979809027893e-07 0.0000000000000000e+00  -8.3666310165817900e-06 -1.8764576477889118e-06 0.0000000000000000e+00  -1.3192032970611096e-05 -2.9384632380882216e-06 0.0000000000000000e+00  -1.8856530667668635e-05 -4.1599680577506555e-06 0.0000000000000000e+00  -2.5765397348811045e-05 -5.6142775654967632e-06 0.0000000000000000e+00  -3.4452388578644516e-05 -7.3950656464562677e-06 0.0000000000000000e+00  -4.5639331601531384e-05 -9.6254090794045808e-06 0.0000000000000000e+00  -6.0315428364615522e-05 -1.2469387186636592e-05 0.0000000000000000e+00  -7.9836532208250410e-05 -1.6145452496845080e-05 0.0000000000000000e+00  -1.0602980304946710e-04 -2.0936587636712552e-05 0.0000000000000000e+00  -1.4124562681763349e-04 -2.7178711361398921e-05 0.0000000000000000e+00  -1.8818464063346513e-04 -3.5165808802751044e-05 0.0000000000000000e+00  -2.4905727058622781e-04 -4.4773323648984620e-05 0.0000000000000000e+00  -3.2311496109648467e-04 -5.4176919492229743e-05 0.0000000000000000e+00  -4.0152363791593344e-04 -5.6051371933727519e-05 0.0000000000000000e+00  -4.6251578023250592e-04 -3.0315374799277619e-05 0.0000000000000000e+00  0.0000000000000000e+00 0.0000000000000000e+00 0.0000000000000000e+00  -3.6356959824877650e-06 -8.0367883565957388e-07 0.0000000000000000e+00  -7.5153507281852877e-06 -1.6535339636156525e-06 0.0000000000000000e+00  -1.1907466512277681e-05 -2.5996527153610660e-06 0.0000000000000000e+00  -1.7138710756377274e-05 -3.7018334742303823e-06 0.0000000000000000e+00  -2.3634530513849377e-05 -5.0364105969760882e-06 0.0000000000000000e+00  -3.1976402924482597e-05 -6.7060096555263215e-06 0.0000000000000000e+00  -4.2985945613473046e-05 -8.8541981472472625e-06 0.0000000000000000e+00  -5.7850739050690963e-05 -1.1688146943681683e-05 0.0000000000000000e+00  -7.8312080601343069e-05 -1.5514225727231788e-05 0.0000000000000000e+00  -1.0693655378347887e-04 -2.0793892765070731e-05 0.0000000000000000e+00  -1.4747407080584383e-04 -2.8228624577462054e-05 0.0000000000000000e+00  -2.0520739984616063e-04 -3.8872257213645602e-05 0.0000000000000000e+00  -2.8684078696105514e-04 -5.4188154970150770e-05 0.0000000000000000e+00  -3.9829102607034792e-04 -7.5487219671310958e-05 0.0000000000000000e+00  -5.3515883826440623e-04 -9.9353061128035856e-05 0.0000000000000000e+00  -6.7111920019428809e-04 -9.5452680945537987e-05 0.0000000000000000e+00  0.0000000000000000e+00 0.0000000000000000e+00 0.0000000000000000e+00  -2.9759894632400648e-06 -6.4874477122562599e-07 0.0000000000000000e+00  -6.1658069001669235e-06 -1.3373643175694689e-06 0.0000000000000000e+00  -9.8065345837224689e-06 -2.1095322023997187e-06 0.0000000000000000e+00  -1.4191723485686300e-05 -3.0185593073652199e-06 0.0000000000000000e+00  -1.9712490658844338e-05 -4.1345353404673062e-06 0.0000000000000000e+00  -2.6918158305176546e-05 -5.5550948998064133e-06 0.0000000000000000e+00  -3.6610609637457422e-05 -7.4226225789648953e-06 0.0000000000000000e+00  -4.9996324705519736e-05 -9.9529290772578465e-06 0.0000000000000000e+00  -6.8937262707246508e-05 -1.3484808471216536e-05 0.0000000000000000e+00  -9.6370333023472406e-05 -1.8568930968900097e-05 0.0000000000000000e+00  -1.3700538610863402e-04 -2.6134429547561129e-05 0.0000000000000000e+00  -1.9843609068520164e-04 -3.7818533214317144e-05 0.0000000000000000e+00  -2.9265266716930821e-04 -5.6659437706771450e-05 0.0000000000000000e+00  -4.3694929041170207e-04 -8.8587942148170228e-05 0.0000000000000000e+00  -6.4781378760235488e-04 -1.4479464931792415e-04 0.0000000000000000e+00  -8.6540430149292639e-04 -2.2474564764123097e-04 0.0000000000000000e+00  0.0000000000000000e+00 0.0000000000000000e+00 0.0000000000000000e+00  -2.1106805969738608e-06 -4.5569748693841268e-07 0.0000000000000000e+00  -4.3800921934290033e-06 -9.4074535438071551e-07 0.0000000000000000e+00  -6.9850925231132707e-06 -1.4875033249533230e-06 0.0000000000000000e+00  -1.0147271816578553e-05 -2.1360661261607600e-06 0.0000000000000000e+00  -1.4166429843044747e-05 -2.9401692308362356e-06 0.0000000000000000e+00  -1.9471502999149226e-05 -3.9763399764647404e-06 0.0000000000000000e+00  -2.6702912448927737e-05 -5.3589431687264870e-06 0.0000000000000000e+00  -3.6852005433373050e-05 -7.2659832959860654e-06 0.0000000000000000e+00  -5.1506930991610821e-05 -9.9849440541006417e-06 0.0000000000000000e+00  -7.3303109651451574e-05 -1.3997116073239538e-05 0.0000000000000000e+00  -1.0677756175567049e-04 -2.0139333550208122e-05 0.0000000000000000e+00  -1.6002758643253334e-04 -2.9934619463826787e-05 0.0000000000000000e+00  -2.4791705153881619e-04 -4.6353559187605469e-05 0.0000000000000000e+00  -3.9790169654384201e-04 -7.5984601817339476e-05 0.0000000000000000e+00  -6.5932364735320746e-04 -1.3714878140393710e-04 0.0000000000000000e+00  -1.1224961847165905e-03 -2.9459439467678384e-04 0.0000000000000000e+00  0.0000000000000000e+00 0.0000000000000000e+00 0.0000000000000000e+00  -1.0942999639140045e-06 -2.3492906605393122e-07 0.0000000000000000e+00  -2.2729299664505512e-06 -4.8538300670992375e-07 0.0000000000000000e+00  -3.6300751230999679e-06 -7.6853649745640409e-07 0.0000000000000000e+00  -5.2844686462276248e-06 -1.1058356390842945e-06 0.0000000000000000e+00  -7.3980276628960761e-06 -1.5263007167140303e-06 0.0000000000000000e+00  -1.0204658243756285e-05 -2.0716955714359566e-06 0.0000000000000000e+00  -1.4057796316912907e-05 -2.8050889493451262e-06 0.0000000000000000e+00  -1.9513129386094535e-05 -3.8255505113148853e-06 0.0000000000000000e+00  -2.7480022694049684e-05 -5.2939070333876944e-06 0.0000000000000000e+00  -3.9514020990893216e-05 -7.4778809396354005e-06 0.0000000000000000e+00  -5.8415259949987285e-05 -1.0827392178151983e-05 0.0000000000000000e+00  -8.9521661416119762e-05 -1.6074973821956459e-05 0.0000000000000000e+00  -1.4358073046367265e-04 -2.4224317955125259e-05 0.0000000000000000e+00  -2.4254936992835504e-04 -3.5585596146333625e-05 0.0000000000000000e+00  -4.2422755536156723e-04 -4.4571772339669769e-05 0.0000000000000000e+00  -7.0196269243860666e-04 -2.9682912143628188e-05 0.0000000000000000e+00  0.0000000000000000e+00 0.0000000000000000e+00 0.0000000000000000e+00  0.0000000000000000e+00 0.0000000000000000e+00 0.0000000000000000e+00  0.0000000000000000e+00 0.0000000000000000e+00 0.0000000000000000e+00  0.0000000000000000e+00 0.0000000000000000e+00 0.0000000000000000e+00  0.0000000000000000e+00 0.0000000000000000e+00 0.0000000000000000e+00  0.0000000000000000e+00 0.0000000000000000e+00 0.00000000000