<?xml version="1.0"?>
<VTKFile type="UnstructuredGrid"  version="0.1"  >
<UnstructuredGrid>
<Piece  NumberOfPoints="289" NumberOfCells="512">
<Points>
<DataArray  type="Float64"  NumberOfComponents="3"  format="ascii">0 0 0  0.0625 0 0  0.125 0 0  0.1875 0 0  0.25 0 0  0.3125 0 0  0.375 0 0  0.4375 0 0  0.5 0 0  0.5625 0 0  0.625 0 0  0.6875 0 0  0.75 0 0  0.8125 0 0  0.875 0 0  0.9375 0 0  1 0 0  0 0.0625 0  0.06253119782048179 0.06247246964022669 0  0.1250642998400337 0.06244444371183295 0  0.1876013630073571 0.06241546045782084 0  0.2501447898223045 0.06238515540123551 0  0.3126975487105139 0.06235332337677667 0  0.375263462371617 0.06231999477790082 0  0.43784761160709 0.06228552505233279 0  0.5004569431446491 0.06225068794420941 0  0.5631012670066127 0.06221674656930244 0  0.6257950715822436 0.0621854453895123 0  0.6885612277965745 0.06215880518597822 0  0.7514394662730347 0.06213846759851884 0  0.8145079397304439 0.06212396838598355 0  0.8779434274141179 0.06210810376040649 0  0.9422041322676945 0.06206297605750824 0  1.00863945629642 0.06189235697812184 0  0 0.125 0  0.06256046963248317 0.1249454070603774 0  0.1251246038480184 0.124889772969981 0  0.1876963636817136 0.1248321193006966 0  0.2502803823807498 0.1247716514142063 0  0.3128823942809905 0.124707879760889 0  0.3755097930604855 0.1246407744138334 0  0.4381724005638916 0.1245709555311652 0  0.5008835833359706 0.1244999089028548 0  0.5636619722683668 0.1244301893758714 0  0.6265342960552707 0.1243655276838493 0  0.6895403881491665 0.1243106794748099 0  0.7527425485027249 0.1242707541324997 0  0.816243371976216 0.1242497270412979 0  0.8802175494886969 0.1242484067285618 0  0.944952558084199 0.1242659448782938 0  1.010808848686788 0.124328043269323 0  0 0.1875 0  0.06258609431776907 0.1874193704767188 0  0.1251773142764931 0.1873370637947373 0  0.1877791998188985 0.187251483909857 0  0.2503982336799658 0.1871612811758793 0  0.3130424417813226 0.1870655244843743 0  0.3757221680299739 0.1869639327670437 0  0.4384511166892522 0.1868571799301131 0  0.5012477954039057 0.186747274580513 0  0.5641375567278673 0.1866379877862888 0  0.6271555319394831 0.1865352468568852 0  0.6903508488088512 0.1864473135828678 0  0.7537924237460366 0.1863843957194039 0  0.8175754838110693 0.1863570410082011 0  0.8818230608466197 0.186371969342677 0  0.946661053395926 0.186421468124012 0  1.012110570047861 0.1864505516496057 0  0 0.25 0  0.06260665809326753 0.2498950069434297 0  0.1252194744527108 0.2497875823694118 0  0.1878451000063857 0.2496753771318146 0  0.2504913127925174 0.24955631103029 0  0.3131677371316973 0.249428777724503 0  0.3758867688374762 0.2492919409455298 0  0.43866480138375 0.2491461561595957 0  0.5015238632271327 0.2489935478575258 0  0.5644937750130119 0.2488387548226051 0  0.6276148726071967 0.2486898089410846 0  0.690941098195627 0.2485590114210617 0  0.7545425348792196 0.2484634710483658 0  0.8185045668586552 0.2484246050071481 0  0.8829165890603691 0.248465290389223 0  0.9478359191702186 0.2486026247762821 0  1.013208507955673 0.2488356158502747 0  0 0.3125 0  0.06262116941450832 0.3123730785568643 0  0.1252490132291699 0.3122428452107283 0  0.1878907275476671 0.3121060475728463 0  0.2505547108927035 0.3119596667356383 0  0.3132513399223908 0.3118011233389912 0  0.3759939773875218 0.3116286067102373 0  0.4388003161183725 0.3114415879209008 0  0.5016941696587034 0.3112415913598693 0  0.5647077916387848 0.3110333075733304 0  0.6278846816355063 0.3108261168109381 0  0.6912824909738123 0.3106360245491985 0  0.7549748559857347 0.310487824370252 0  0.8190494679846658 0.3104169004668555 0  0.8835974323015625 0.3104693610982059 0  0.9486876403046831 0.3106982379879965 0  1.014326155437901 0.3111529368638548 0  0 0.375 0  0.06262913228973957 0.3748544682878585 0  0.1252649027881902 0.3747046389563553 0  0.1879144447876937 0.3745462212016642 0  0.2505860433382064 0.3743750482503126 0  0.3132898958266125 0.3741872376666573 0  0.376039127585662 0.37397949567405 0  0.4388511918630851 0.3737496534395953 0  0.5017498115490372 0.3734975625567263 0  0.5647676259255979 0.3732265279972983 0  0.6279496379431974 0.3729455098921171 0  0.6913573158469242 0.372672346784128 0  0.7550726347580039 0.3724381554318008 0  0.8192003351054137 0.3722926663681016 0  0.8838655346270428 0.3723092883857543 0  0.9492042552190182 0.372586987068726 0  1.015350726825694 0.3732440703128249 0  0 0.4375 0  0.06263057098877127 0.4373401576858088 0  0.1252672157425309 0.4371749824411167 0  0.1879164183112797 0.43699906356431 0  0.2505856274539486 0.4368069230214454 0  0.313283917979616 0.4365930706130659 0  0.3760229158828056 0.4363521995177813 0  0.4388181535512669 0.4360796271423729 0  0.5016911001934383 0.4357721533913898 0  0.5646722153038514 0.4354296144020541 0  0.6278054778450362 0.4350575645785444 0  0.6911548836251583 0.4346717132892626 0  0.7548132346983408 0.4343048925981928 0  0.8189129721311577 0.4340171720170413 0  0.8836378647691366 0.4339086705265011 0  0.9492342962088395 0.4341318632205535 0  1.016025917043753 0.4348960368025583 0  0 0.5 0  0.06262600211693445 0.499831170303107 0  0.125257072607621 0.499656016023178 0  0.1878985505135875 0.4994680226361279 0  0.2505564181496757 0.4992603422457197 0  0.3132377676569513 0.4990256810358576 0  0.3759515035567658 0.4987562860823587 0  0.4387094748013836 0.4984441299087133 0  0.5015283748488957 0.4980814774056784 0  0.5644329936118442 0.4976621756096669 0  0.6274617921378774 0.4971842802407831 0  0.690676310860061 0.4966550852113191 0  0.754176498416639 0.4961002766844821 0  0.8181242337889424 0.4955795759604105 0  0.8827763197295337 0.495210869972299 0  0.9485260948347932 0.4952009730496735 0  1.015955495752527 0.4958711965759887 0  0 0.5625 0  0.06261635289817495 0.5623284789156021 0  0.1252364747896058 0.5621498112963611 0  0.187864223543972 0.5619565334853753 0  0.2505036689335046 0.5617405358646165 0  0.3131592693380411 0.5614927328698432 0  0.3758361944690614 0.5612027484268057 0  0.4385409725159843 0.5608586735633942 0  0.5012828362274577 0.5604470336425813 0  0.5640765310809022 0.5599532714636289 0  0.6269480846867763 0.5593634031043183 0  0.689946332993046 0.5586682203166859 0  0.7531649986259715 0.5578728164767484 0  0.8167823860919503 0.557016647770204 0  0.8811261158439597 0.5562122040044533 0  0.9467645144824691 0.5557086316015962 0  1.014616767198856 0.5559682408959692 0  0 0.625 0  0.06260282903508346 0.6248328816525754 0  0.1252080261743796 0.6246581092303075 0  0.1878178492069916 0.6244675901372874 0  0.2504342826821598 0.6242522767979848 0  0.3130588563052001 0.6240016024738042 0  0.375692444491918 0.6237028143003465 0  0.4383351363638281 0.6233401819204454 0  0.5009864525489363 0.6228940978677903 0  0.5636466295161988 0.6223401937341397 0  0.6263206986532627 0.6216488858325803 0  0.6890292462907699 0.6207865249215375 0  0.7518340125795481 0.6197212987878936 0  0.8148937103829992 0.6184419854715445 0  0.8785732140969192 0.6170085517796317 0  0.9436234257887974 0.6156670785379708 0  1.01141828193012 0.6150338844612754 0  0 0.6875 0  0.06258674313900287 0.687344861126317 0  0.125174562593286 0.6871820149228719 0  0.1877642440479771 0.6870032259690516 0  0.2503558496738413 0.686799064044609 0  0.3129481720589812 0.6865581396581719 0  0.3755379485724205 0.6862661106935132 0  0.4381187535285229 0.6859043397001656 0  0.5006795613315733 0.6854480427726858 0  0.563203269315367 0.6848637348355298 0  0.625666382143731 0.6841057971769031 0  0.6880435970401478 0.68311228738181 0  0.7503275775934626 0.6818015022339801 0  0.8125897013190204 0.6800763909512535 0  0.8751378383687966 0.6778650127680843 0  0.9388462383908259 0.6752941118517868 0  1.005619273259567 0.6731292564137495 0  0 0.75 0  0.06256932529736621 0.7498644494458284 0  0.1251387334240378 0.7497216980118117 0  0.1877078963137583 0.7495639843703487 0  0.2502754530454586 0.7493822481139288 0  0.3128381859320102 0.749165255908547 0  0.3753897417693628 0.7488984038550055 0  0.4379186004326767 0.7485619907648691 0  0.5004048562664758 0.7481286393265619 0  0.5628152577619393 0.7475593362813603 0  0.6250961111833435 0.7467971966149847 0  0.6871650737492374 0.7457574126018012 0  0.7489088435955401 0.7443108805476698 0  0.8102148703414054 0.742258832587999 0  0.8711338200942418 0.7393063837663535 0  0.9324618457308241 0.7351390570208711 0  0.9966362566500128 0.7304998706841082 0  0 0.8125 0  0.0625515482238969 0.8123911275439245 0  0.1251026075405276 0.81227616222421 0  0.1876522513476131 0.8121484928447706 0  0.25019844281915 0.8120002876090329 0  0.3127371154002473 0.8118216465450768 0  0.3752606791431864 0.8115994031723439 0  0.4377554908677924 0.8113153373530942 0  0.5001974624857904 0.8109434071630868 0  0.5625443157214899 0.8104453202837086 0  0.6247218426158166 0.8097631909468858 0  0.6865998814755983 0.8088067534775634 0  0.747952926676049 0.8074294372718676 0  0.8084088390570286 0.8053791479184659 0  0.8674496398381363 0.8021872372954 0  0.9248756553744425 0.796909294045992 0  0.9850365764998007 0.7875901872262807 0  0 0.875 0  0.06253400556625033 0.874923786486047 0  0.125067394161287 0.8748431478446911 0  0.1875991888078724 0.8747532599838463 0  0.2501274925910938 0.8746483498815235 0  0.3126487087220043 0.8745210240989794 0  0.3751562376441536 0.8743613035190383 0  0.4376381832108869 0.8741551625213763 0  0.5000731508956643 0.8738822449294781 0  0.5624222584666345 0.8735122141721551 0  0.6246133624039546 0.8729988212470058 0  0.6865087666659186 0.8722700421067635 0  0.7478371419557702 0.8712106795241377 0  0.8080481693749491 0.8696262451203762 0  0.866009209171602 0.8671424643823815 0  0.9194330101467053 0.8628442168857451 0  0.9641067782006094 0.8538900982068758 0  0 0.9375 0  0.06251687754277876 0.9374607697550761 0  0.1250333622317746 0.9374192124410571 0  0.1875488630549938 0.9373727844013644 0  0.2500622799847853 0.9373184239693338 0  0.3125715687517349 0.9372521814076252 0  0.3750730052050375 0.9371686830878915 0  0.437559867166495 0.9370603176926263 0  0.50
[...]
<PointData  Vectors="f_54"> 
<DataArray  type="Float64"  Name="f_54"  NumberOfComponents="3" format="ascii">0.0000000000000000e+00 0.0000000000000000e+00 0.0000000000000000e+00  0.0000000000000000e+00 0.0000000000000000e+00 0.0000000000000000e+00  0.0000000000000000e+00 0.0000000000000000e+00 0.0000000000000000e+00  0.0000000000000000e+00 0.0000000000000000e+00 0.0000000000000000e+00  0.0000000000000000e+00 0.0000000000000000e+00 0.0000000000000000e+00  0.0000000000000000e+00 0.0000000000000000e+00 0.0000000000000000e+00  0.0000000000000000e+00 0.0000000000000000e+00 0.0000000000000000e+00  0.0000000000000000e+00 0.0000000000000000e+00 0.0000000000000000e+00  0.0000000000000000e+00 0.0000000000000000e+00 0.0000000000000000e+00  0.0000000000000000e+00 0.0000000000000000e+00 0.0000000000000000e+00  0.0000000000000000e+00 0.0000000000000000e+00 0.0000000000000000e+00  0.0000000000000000e+00 0.0000000000000000e+00 0.0000000000000000e+00  0.0000000000000000e+00 0.0000000000000000e+00 0.0000000000000000e+00  0.0000000000000000e+00 0.0000000000000000e+00 0.0000000000000000e+00  0.0000000000000000e+00 0.0000000000000000e+00 0.0000000000000000e+00  0.0000000000000000e+00 0.0000000000000000e+00 0.0000000000000000e+00  0.0000000000000000e+00 0.0000000000000000e+00 0.0000000000000000e+00  0.0000000000000000e+00 0.0000000000000000e+00 0.0000000000000000e+00  -4.4337013375833521e-06 -2.6644490589111445e-07 0.0000000000000000e+00  -8.9923673370013214e-06 -5.3472527444983551e-07 0.0000000000000000e+00  -1.3804204574946242e-05 -8.0598074959806343e-07 0.0000000000000000e+00  -1.8995999055356971e-05 -1.0793939181924238e-06 0.0000000000000000e+00  -2.4691369458014917e-05 -1.3509586378935912e-06 0.0000000000000000e+00  -3.1007565310968667e-05 -1.6119574851678923e-06 0.0000000000000000e+00  -3.8050450227867652e-05 -1.8471005236570148e-06 0.0000000000000000e+00  -4.5907679040299575e-05 -2.0323317875220537e-06 0.0000000000000000e+00  -5.4641152724559156e-05 -2.1323460048272551e-06 0.0000000000000000e+00  -6.4282883645612999e-05 -2.0976972968635236e-06 0.0000000000000000e+00  -7.4847336113952694e-05 -1.8603449021022780e-06 0.0000000000000000e+00  -8.6401096527613690e-05 -1.3221120110427102e-06 0.0000000000000000e+00  -9.9323360167565203e-05 -3.1374557233615073e-07 0.0000000000000000e+00  -1.1522355678788177e-04 1.5625903437101451e-06 0.0000000000000000e+00  -1.4030783550631238e-04 5.5638863970694456e-06 0.0000000000000000e+00  -1.9951298594595226e-04 1.6635243422629163e-05 0.0000000000000000e+00  0.0000000000000000e+00 0.0000000000000000e+00 0.0000000000000000e+00  -8.7430172859278660e-06 -5.3107841909686790e-07 0.0000000000000000e+00  -1.7737325100407779e-05 -1.0667781065589775e-06 0.0000000000000000e+00  -2.7240884653116472e-05 -1.6104188141104467e-06 0.0000000000000000e+00  -3.7510027941946993e-05 -2.1616023204895615e-06 0.0000000000000000e+00  -4.8796579808513686e-05 -2.7138188036261783e-06 0.0000000000000000e+00  -6.1342000929856950e-05 -3.2514209073117514e-06 0.0000000000000000e+00  -7.5367582313351386e-05 -3.7458387423179994e-06 0.0000000000000000e+00  -9.1060010398854655e-05 -4.1510447051742995e-06 0.0000000000000000e+00  -1.0855250932846909e-04 -4.3985126844617636e-06 0.0000000000000000e+00  -1.2790399094034704e-04 -4.3922482420588370e-06 0.0000000000000000e+00  -1.4908365600238303e-04 -4.0048139259330887e-06 0.0000000000000000e+00  -1.7197839341950751e-04 -3.0756237319427079e-06 0.0000000000000000e+00  -1.9645306183412023e-04 -1.4148977007454012e-06 0.0000000000000000e+00  -2.2246708377577731e-04 1.1647500746839497e-06 0.0000000000000000e+00  -2.4988133082903574e-04 4.6395439997656918e-06 0.0000000000000000e+00  -2.7493433890952518e-04 7.4430864303901248e-06 0.0000000000000000e+00  0.0000000000000000e+00 0.0000000000000000e+00 0.0000000000000000e+00  -1.2797957644213035e-05 -7.9086695782453979e-07 0.0000000000000000e+00  -2.5974957224665186e-05 -1.5909173050380469e-06 0.0000000000000000e+00  -3.9920405043717368e-05 -2.4076163910353453e-06 0.0000000000000000e+00  -5.5024060983335847e-05 -3.2433762650814371e-06 0.0000000000000000e+00  -7.1673189534534216e-05 -4.0921760056697816e-06 0.0000000000000000e+00  -9.0245201359568234e-05 -4.9351262283308242e-06 0.0000000000000000e+00  -1.1109395949373570e-04 -5.7346872011158834e-06 0.0000000000000000e+00  -1.3452774574894736e-04 -6.4274277426302744e-06 0.0000000000000000e+00  -1.6077675277186289e-04 -6.9156397077471530e-06 0.0000000000000000e+00  -1.8994765455914255e-04 -7.0590315582388802e-06 0.0000000000000000e+00  -2.2196103714653234e-04 -6.6695628691953135e-06 0.0000000000000000e+00  -2.5645924648723021e-04 -5.5162816710436376e-06 0.0000000000000000e+00  -2.9264033291772777e-04 -3.3555311356013085e-06 0.0000000000000000e+00  -3.2886475399342531e-04 -2.1994225834735541e-08 0.0000000000000000e+00  -3.6155558784558715e-04 4.3442012138904119e-06 0.0000000000000000e+00  -3.8218909990171929e-04 8.8781851734689338e-06 0.0000000000000000e+00  0.0000000000000000e+00 0.0000000000000000e+00 0.0000000000000000e+00  -1.6467865944502092e-05 -1.0410194382969611e-06 0.0000000000000000e+00  -3.3442903014616400e-05 -2.0981687459460199e-06 0.0000000000000000e+00  -5.1446684067197813e-05 -3.1857375780623586e-06 0.0000000000000000e+00  -7.1006223886113469e-05 -4.3123156102806202e-06 0.0000000000000000e+00  -9.2652923239225677e-05 -5.4767550043132417e-06 0.0000000000000000e+00  -1.1691570705947000e-04 -6.6625763338111670e-06 0.0000000000000000e+00  -1.4430563449849073e-04 -7.8302259319381069e-06 0.0000000000000000e+00  -1.7528852964055104e-04 -8.9066721678971724e-06 0.0000000000000000e+00  -2.1024109884978506e-04 -9.7722067491344945e-06 0.0000000000000000e+00  -2.4938398130845376e-04 -1.0245374165103668e-05 0.0000000000000000e+00  -2.9268044551260123e-04 -1.0069414538194959e-05 0.0000000000000000e+00  -3.3967731057733499e-04 -8.9087916366928288e-06 0.0000000000000000e+00  -3.8923473599050484e-04 -6.3744518205186135e-06 0.0000000000000000e+00  -4.3902773946178823e-04 -2.1138942766723339e-06 0.0000000000000000e+00  -4.8461189958146799e-04 3.9755047492532413e-06 0.0000000000000000e+00  -5.1792534322294065e-04 1.1350090971555621e-05 0.0000000000000000e+00  0.0000000000000000e+00 0.0000000000000000e+00 0.0000000000000000e+00  -1.9622901702656321e-05 -1.2744088325558799e-06 0.0000000000000000e+00  -3.9878876593128197e-05 -2.5745418428627526e-06 0.0000000000000000e+00  -6.1419837673871270e-05 -3.9245566756497744e-06 0.0000000000000000e+00  -8.4912047894501275e-05 -5.3432335947624885e-06 0.0000000000000000e+00  -1.1103917933000734e-04 -6.8398170499826807e-06 0.0000000000000000e+00  -1.4049882367504640e-04 -8.4078055575999610e-06 0.0000000000000000e+00  -1.7398901106484489e-04 -1.0015665338085295e-05 0.0000000000000000e+00  -2.1218010137927069e-04 -1.1593221627101121e-05 0.0000000000000000e+00  -2.5566577614093508e-04 -1.3012418332515069e-05 0.0000000000000000e+00  -3.0488445690339034e-04 -1.4061632023513394e-05 0.0000000000000000e+00  -3.5999843913453819e-04 -1.4414647748404930e-05 0.0000000000000000e+00  -4.2071046734415987e-04 -1.3600395671465205e-05 0.0000000000000000e+00  -4.8598378320798371e-04 -1.0990140923110854e-05 0.0000000000000000e+00  -5.5361408316514980e-04 -5.8373036705236501e-06 0.0000000000000000e+00  -6.1961138925587672e-04 2.5714364473677747e-06 0.0000000000000000e+00  -6.7750405725708199e-04 1.4586032195781193e-05 0.0000000000000000e+00  0.0000000000000000e+00 0.0000000000000000e+00 0.0000000000000000e+00  -2.2136995469618018e-05 -1.4813446610600483e-06 0.0000000000000000e+00  -4.5026241492182336e-05 -3.0004469466334044e-06 0.0000000000000000e+00  -6.9443667340377341e-05 -4.5942415842063034e-06 0.0000000000000000e+00  -9.6192609207282524e-05 -6.2958190439362091e-06 0.0000000000000000e+00  -1.2611368411163734e-04 -8.1309221544327178e-06 0.0000000000000000e+00  -1.6008824410689024e-04 -1.0112080316543942e-05 0.0000000000000000e+00  -1.9903155988351077e-04 -1.2228901041451445e-05 0.0000000000000000e+00  -2.4387027782378745e-04 -1.4432333279550311e-05 0.0000000000000000e+00  -2.9549669241080520e-04 -1.6609787522124200e-05 0.0000000000000000e+00  -3.5469016211522815e-04 -1.8547055875335168e-05 0.0000000000000000e+00  -4.2199401526566837e-04 -1.9872791831359456e-05 0.0000000000000000e+00  -4.9753543289248240e-04 -1.9983891213520020e-05 0.0000000000000000e+00  -5.8077795691600736e-04 -1.7959530297300940e-05 0.0000000000000000e+00  -6.7020664512278496e-04 -1.2493522170461732e-05 0.0000000000000000e+00  -7.6298040271705980e-04 -1.9105558590776539e-06 0.0000000000000000e+00  -8.5468242765098402e-04 1.5634642697489717e-05 0.0000000000000000e+00  0.0000000000000000e+00 0.0000000000000000e+00 0.0000000000000000e+00  -2.3892540300032726e-05 -1.6498172373152763e-06 0.0000000000000000e+00  -4.8643255274394215e-05 -3.3510833805579226e-06 0.0000000000000000e+00  -7.5139142142902293e-05 -5.1556480623735850e-06 0.0000000000000000e+00  -1.0431155866070061e-04 -7.1143621035324359e-06 0.0000000000000000e+00  -1.3715568678907881e-04 -9.2751961485287109e-06 0.0000000000000000e+00  -1.7474487540055118e-04 -1.1679114741729567e-05 0.0000000000000000e+00  -2.1823602161315854e-04 -1.4351962645395995e-05 0.0000000000000000e+00  -2.6886006581949596e-04 -1.7289390263327392e-05 0.0000000000000000e+00  -3.2788908242433948e-04 -2.0429790227235143e-05 0.0000000000000000e+00  -3.9656895415784223e-04 -2.3607015777927124e-05 0.0000000000000000e+00  -4.7600593794218848e-04 -2.6470329986677796e-05 0.0000000000000000e+00  -5.6700028096604797e-04 -2.8355120451368008e-05 0.0000000000000000e+00  -6.6983667798255089e-04 -2.8089965731072376e-05 0.0000000000000000e+00  -7.8407639151022407e-04 -2.3745925309797941e-05 0.0000000000000000e+00  -9.0844813082126958e-04 -1.2384799322896116e-05 0.0000000000000000e+00  -1.0409881782508952e-03 1.0079060506991244e-05 0.0000000000000000e+00  0.0000000000000000e+00 0.0000000000000000e+00 0.0000000000000000e+00  -2.4786883632537471e-05 -1.7663034326945309e-06 0.0000000000000000e+00  -5.0516209010904364e-05 -3.5980222099924250e-06 0.0000000000000000e+00  -7.8164454467973405e-05 -5.5625827687673128e-06 0.0000000000000000e+00  -1.0877229069025218e-04 -7.7304131273863745e-06 0.0000000000000000e+00  -1.4347606929758611e-04 -1.0175672087505962e-05 0.0000000000000000e+00  -1.8353693884118336e-04 -1.2975496634235125e-05 0.0000000000000000e+00  -2.3036435286202442e-04 -1.6206227472661198e-05 0.0000000000000000e+00  -2.8552806465420208e-04 -1.9933558342785913e-05 0.0000000000000000e+00  -3.5074898703995634e-04 -2.4190596312062829e-05 0.0000000000000000e+00  -4.2785512928362242e-04 -2.8932185477246755e-05 0.0000000000000000e+00  -5.1868674819884834e-04 -3.3943684893099418e-05 0.0000000000000000e+00  -6.2494183292595635e-04 -3.8666123979185369e-05 0.0000000000000000e+00  -7.4798369799809045e-04 -4.1880372573695161e-05 0.0000000000000000e+00  -8.8870699405611017e-04 -4.1190066772868454e-05 0.0000000000000000e+00  -1.0476759226068252e-03 -3.2299661756077152e-05 0.0000000000000000e+00  -1.2258274586425199e-03 -8.1910953566033830e-06 0.0000000000000000e+00  0.0000000000000000e+00 0.0000000000000000e+00 0.0000000000000000e+00  -2.4740405745546482e-05 -1.8171501865688619e-06 0.0000000000000000e+00  -5.0476124998251003e-05 -3.7120654544466263e-06 0.0000000000000000e+00  -7.8241368962179181e-05 -5.7663003092482428e-06 0.0000000000000000e+00  -1.0915531791682142e-04 -8.0690621105020766e-06 0.0000000000000000e+00  -1.4446718359411759e-04 -1.0721267970605391e-05 0.0000000000000000e+00  -1.8560330812787462e-04 -1.3839572528942176e-05 0.0000000000000000e+00  -2.3421458214431569e-04 -1.7559693463547547e-05 0.0000000000000000e+00  -2.9221930498208719e-04 -2.2037153569849114e-05 0.0000000000000000e+00  -3.6183132646318630e-04 -2.7440716017979626e-05 0.0000000000000000e+00  -4.4555560324860779e-04 -3.3927174774497489e-05 0.0000000000000000e+00  -5.4612506337996106e-04 -4.1571135949515411e-05 0.0000000000000000e+00  -6.6635297949052096e-04 -5.0191072459730613e-05 0.0000000000000000e+00  -8.0891160719102353e-04 -5.8951376008121129e-05 0.0000000000000000e+00  -9.7618241349079361e-04 -6.5536673118482466e-05 0.0000000000000000e+00  -1.1706245219858167e-03 -6.4691556792016147e-05 0.0000000000000000e+00  -1.3965451018243195e-03 -4.6143835779390386e-05 0.0000000000000000e+00  0.0000000000000000e+00 0.0000000000000000e+00 0.0000000000000000e+00  -2.3705627484851674e-05 -1.7904333150015997e-06 0.0000000000000000e+00  -4.8417964777088847e-05 -3.6672081820258189e-06 0.0000000000000000e+00  -7.5186468229861643e-05 -5.7220747049758027e-06 0.0000000000000000e+00  -1.0516437663121151e-04 -8.0588994707444920e-06 0.0000000000000000e+00  -1.3966731079150695e-04 -1.0801150927404445e-05 0.0000000000000000e+00  -1.8023995074959985e-04 -1.4101235735132857e-05 0.0000000000000000e+00  -2.2873191816536121e-04 -1.8152467583492363e-05 0.0000000000000000e+00  -2.8738100094743296e-04 -2.3204327841879583e-05 0.0000000000000000e+00  -3.5889541288883822e-04 -2.9580703020923673e-05 0.0000000000000000e+00  -4.4651445109559037e-04 -3.7696905090760463e-05 0.0000000000000000e+00  -5.5400679543153792e-04 -4.8058329761938736e-05 0.0000000000000000e+00  -6.8554270796470501e-04 -6.1184050279503287e-05 0.0000000000000000e+00  -8.4538528865528667e-04 -7.7287468103148021e-05 0.0000000000000000e+00  -1.0375189275106148e-03 -9.5280948298958574e-05 0.0000000000000000e+00  -1.2659445000819806e-03 -1.1033717216592785e-04 0.0000000000000000e+00  -1.5369030436984527e-03 -1.0968649522618682e-04 0.0000000000000000e+00  0.0000000000000000e+00 0.0000000000000000e+00 0.0000000000000000e+00  -2.1676406106800901e-05 -1.6780446129724069e-06 0.0000000000000000e+00  -4.4320475353326203e-05 -3.4451961475270859e-06 0.0000000000000000e+00  -6.8944548029105179e-05 -5.3970635405468765e-06 0.0000000000000000e+00  -9.6677847614373339e-05 -7.6446374648351093e-06 0.0000000000000000e+00  -1.2883618458703810e-04 -1.0324444803802267e-05 0.0000000000000000e+00  -1.6700683008595254e-04 -1.3612272593829255e-05 0.0000000000000000e+00  -2.1315410307417085e-04 -1.7742784306101622e-05 0.0000000000000000e+00  -2.6974992155443444e-04 -2.3038777997351288e-05 0.0000000000000000e+00  -3.3992824367555269e-04 -2.9956249943490593e-05 0.0000000000000000e+00  -4.2764762774802806e-04 -3.9154881378276310e-05 0.0000000000000000e+00  -5.3781247781331022e-04 -5.1605579408627608e-05 0.0000000000000000e+00  -6.7623864023987057e-04 -6.8732568454223640e-05 0.0000000000000000e+00  -8.4925981748799092e-04 -9.2491208793937156e-05 0.0000000000000000e+00  -1.0628220333985777e-03 -1.2483561427929969e-04 0.0000000000000000e+00  -1.3222264331612236e-03 -1.6439169694624993e-04 0.0000000000000000e+00  -1.6369463586637504e-03 -1.9978473314189669e-04 0.0000000000000000e+00  0.0000000000000000e+00 0.0000000000000000e+00 0.0000000000000000e+00  -1.8695899801608663e-05 -1.4776335903413284e-06 0.0000000000000000e+00  -3.8263937632173282e-05 -3.0398569938893338e-06 0.0000000000000000e+00  -5.9619877819018083e-05 -4.7780327746440198e-06 0.0000000000000000e+00  -8.3799643084269215e-05 -6.8000871533458628e-06 0.0000000000000000e+00  -1.1203457550552550e-04 -9.2417549859932027e-06 0.0000000000000000e+00  -1.4584852468933928e-04 -1.2282245383553048e-05 0.0000000000000000e+00  -1.8718782545895139e-04 -1.6167459486912463e-05 0.0000000000000000e+00  -2.3859783536133100e-04 -2.1246344918790997e-05 0.0000000000000000e+00  -3.0346014457361943e-04 -2.8031218375910531e-05 0.0000000000000000e+00  -3.8629611434937253e-04 -3.7304464318988952e-05 0.0000000000000000e+00  -4.9310754152212305e-04 -5.0319366602960625e-05 0.0000000000000000e+00  -6.3162307167743698e-04 -6.9194082429429088e-05 0.0000000000000000e+00  -8.1106510555091580e-04 -9.7675868591231806e-05 0.0000000000000000e+00  -1.0405143794851232e-03 -1.4240654885230278e-04 0.0000000000000000e+00  -1.3245134272262956e-03 -2.1296969054434374e-04 0.0000000000000000e+00  -1.6769981034981303e-03 -2.9044944880527666e-04 0.0000000000000000e+00  0.0000000000000000e+00 0.0000000000000000e+00 0.0000000000000000e+00  -1.4861691409930125e-05 -1.1939788165390936e-06 0.0000000000000000e+00  -3.0442334612882928e-05 -2.4602296885673324e-06 0.0000000000000000e+00  -4.7499505177362887e-05 -3.8771220234733928e-06 0.0000000000000000e+00  -6.6900850457527738e-05 -5.5382502553661796e-06 0.0000000000000000e+00  -8.9696072711926124e-05 -7.5627869625277572e-06 0.0000000000000000e+00  -1.1721448366761355e-04 -1.0109846809017653e-05 0.0000000000000000e+00  -1.5120400597640586e-04 -1.3399457467185073e-05 0.0000000000000000e+00  -1.9403553054043088e-04 -1.7744550017517854e-05 0.0000000000000000e+00  -2.4900779533939177e-04 -2.3602574765188100e-05 0.0000000000000000e+00  -3.2079971117493603e-04 -3.1666511414473207e-05 0.0000000000000000e+00  -4.1611510489144703e-04 -4.3047623888314034e-05 0.0000000000000000e+00  -5.4449806864760521e-04 -5.9699842369532918e-05 0.0000000000000000e+00  -7.1900591201426109e-04 -8.5521068085799419e-05 0.0000000000000000e+00  -9.5541682009476743e-04 -1.2939521316522411e-04 0.0000000000000000e+00  -1.2647287752132323e-03 -2.1450681276797903e-04 0.0000000000000000e+00  -1.5968054375079227e-03 -4.2886920480124521e-04 0.0000000000000000e+00  0.0000000000000000e+00 0.0000000000000000e+00 0.0000000000000000e+00  -1.0326391799913921e-05 -8.3943226946518998e-07 0.0000000000000000e+00  -2.1166120368764449e-05 -1.7316497772200025e-06 0.0000000000000000e+00  -3.3061721315363702e-05 -2.7340044706311805e-06 0.0000000000000000e+00  -4.6640732126187651e-05 -3.9153899101019199e-06 0.0000000000000000e+00  -6.2673268740477532e-05 -5.3639574448460208e-06 0.0000000000000000e+00  -8.2153207608399748e-05 -7.1974689203352277e-06 0.0000000000000000e+00  -1.0641982919824160e-04 -9.5773403528039592e-06 0.0000000000000000e+00  -1.3734853302436643e-04 -1.2727034362627102e-05 0.0000000000000000e+00  -1.7766041873572386e-04 -1.6953699868024210e-05 0.0000000000000000e+00  -2.3143763645869648e-04 -2.2667342306685721e-05 0.0000000000000000e+00  -3.0499174900518021e-04 -3.0385103107573306e-05 0.0000000000000000e+00  -4.0831258263596907e-04 -4.0721694274395202e-05 0.0000000000000000e+00  -5.5736758018688304e-04 -5.4527464348674740e-05 0.0000000000000000e+00  -7.7727457629447167e-04 -7.4093664362219708e-05 0.0000000000000000e+00  -1.1048849814782554e-03 -1.0846311416654302e-04 0.0000000000000000e+00  -1.5838079016128831e-03 -1.8771505581044161e-04 0.0000000000000000e+00  0.0000000000000000e+00 0.0000000000000000e+00 0.0000000000000000e+00  -5.2923591367616702e-06 -4.3326696956898563e-07 0.0000000000000000e+00  -1.0852267318822060e-05 -8.9438459809091088e-07 0.0000000000000000e+00  -1.6963078598840920e-05 -1.4136358992732145e-06 0.0000000000000000e+00  -2.3954693354520765e-05 -2.0274874868555094e-06 0.0000000000000000e+00  -3.2235859958672928e-05 -2.7826314704365272e-06 0.0000000000000000e+00  -4.2340973405254856e-05 -3.7411574246785907e-06 0.0000000000000000e+00  -5.5002674332419385e-05 -4.9867408890883291e-06 0.0000000000000000e+00  -7.1270795253560812e-05 -6.6299406936894822e-06 0.0000000000000000e+00  -9.2716453406313049e-05 -8.8043537628697001e-06 0.0000000000000000e+00  -1.2179538400842697e-04 -1.1624039519574856e-05 0.0000000000000000e+00  -1.6250544994710317e-04 -1.5002440006322013e-05 0.0000000000000000e+00  -2.2153013508779680e-04 -1.8009871466352077e-05 0.0000000000000000e+00  -3.0980966604169725e-04 -1.6811009779196962e-05 0.0000000000000000e+00  -4.4229820344985352e-04 9.3160855185068779e-07 0.0000000000000000e+00  -6.2465004719384402e-04 6.4496991913407138e-05 0.0000000000000000e+00  -8.0954709091185853e-04 1.9993031990180065e-04 0.0000000000000000e+00  0.0000000000000000e+00 0.0000000000000000e+00 0.0000000000000000e+00  0.0000000000000000e+00 0.0000000000000000e+00 0.0000000000000000e+00  0.0000000000000000e+00 0.0000000000000000e+00 0.0000000000000000e+00  0.0000000000000000e+00 0.0000000000000000e+00 0.0000000000000000e+00  0.0000000000000000e+00 0.0000000000000000e+00 0.0000000000000000e+00  0.0000000000000000e+00 0.00000000000000