<?xml version="1.0"?>
<VTKFile type="UnstructuredGrid"  version="0.1"  >
<UnstructuredGrid>
<Piece  NumberOfPoints="289" NumberOfCells="512">
<Points>
<DataArray  type="Float64"  NumberOfComponents="3"  format="ascii">0 0 0  0.0625 0 0  0.125 0 0  0.1875 0 0  0.25 0 0  0.3125 0 0  0.375 0 0  0.4375 0 0  0.5 0 0  0.5625 0 0  0.625 0 0  0.6875 0 0  0.75 0 0  0.8125 0 0  0.875 0 0  0.9375 0 0  1 0 0  0 0.0625 0  0.06256955634404007 0.06249812684620148 0  0.1251414800225212 0.06249619884073512 0  0.1877181930518208 0.06249416103932468 0  0.2503022225996724 0.06249195866794615 0  0.3128962533991292 0.06248953762581846 0  0.3755031836199604 0.06248684544661584 0  0.4381261956184199 0.0624838327052632 0  0.5007688727633555 0.06248045446694153 0  0.5634354433534143 0.06247667024325837 0  0.6261313617859463 0.06247243749246128 0  0.6888647889717741 0.06246768251917124 0  0.7516505572370713 0.06246219305628757 0  0.8145214115753944 0.06245522580101132 0  0.8775621914410254 0.06244400703766714 0  0.9410227901101267 0.06241763166992192 0  1.005734040664901 0.06232999188639736 0  0 0.125 0  0.06263681932687858 0.1249963054060556 0  0.1252783319732894 0.1249925007167779 0  0.1879293425131939 0.1249884754546103 0  0.2505948692726949 0.1249841190829099 0  0.313280247843954 0.1249793218621476 0  0.3759912343868604 0.1249739767603323 0  0.4387341202020431 0.1249679826487726 0  0.501515890965907 0.12496124871074 0  0.564344515501819 0.124953699273677 0  0.627229566203775 0.1249452769102147 0  0.6901836312044809 0.1249359403293047 0  0.7532255083868626 0.1249256600472598 0  0.816387060504163 0.1249144781215225 0  0.879725941348396 0.1249030895920819 0  0.9433382580608353 0.1248965589894552 0  1.007299516766496 0.1249252477973271 0  0 0.1875 0  0.06269946251126174 0.1874945910023325 0  0.1254058481638535 0.1874890164683466 0  0.188126250959347 0.1874831098158714 0  0.2508680934290854 0.1874767033893057 0  0.3136392808692125 0.1874696293049993 0  0.376448343384016 0.1874617220587316 0  0.4393045644770413 0.1874528235771091 0  0.502218102205596 0.1874427913991882 0  0.5652001250807038 0.1874315106289687 0  0.6282630121925362 0.1874189103833193 0  0.6914206890230919 0.1874049864853453 0  0.754689085099331 0.1873898361607256 0  0.818086091663771 0.1873737167391583 0  0.881627875037352 0.1873570959830763 0  0.9453102276396957 0.1873400911794082 0  1.009044751131436 0.1873163080902047 0  0 0.25 0  0.06275525671295062 0.2499930391241984 0  0.125519511921664 0.2499858576578529 0  0.1883019997374409 0.2499782327454991 0  0.2511124094939118 0.2499699382441677 0  0.313961096639279 0.2499607448928894 0  0.3768592674813765 0.249950422914822 0  0.4398191189174666 0.2499387482403872 0  0.5028539022312246 0.2499255138714327 0  0.5659778568512503 0.2499105483788764 0  0.6292059087793225 0.2498937443076017 0  0.6925529034181394 0.2498751007105569 0  0.7560318273927572 0.2498547863908983 0  0.8196497078845376 0.2498332316920042 0  0.8833982229652906 0.2498112475297602 0  0.9472334179472437 0.2497901615361162 0  1.011038662080262 0.2497724500979373 0  0 0.3125 0  0.06280212806381696 0.3124917048255464 0  0.12561511141915 0.3124831355570289 0  0.1884501128418183 0.3124740139084184 0  0.251318894819922 0.3124640545248619 0  0.3142341013248288 0.3124529634948274 0  0.3772095069161218 0.3124404397335416 0  0.4402602016934028 0.3124261808581957 0  0.5034026545494191 0.3124098957941505 0  0.5666545496135964 0.3123913271927335 0  0.6300342023992243 0.312370287888738 0  0.6935591972643821 0.3123467172825961 0  0.7572435894623298 0.3123207662524435 0  0.8210925286881686 0.3122929249207109 0  0.885092579250368 0.3122642249846861 0  0.9491960769037359 0.3122366163095615 0  1.013301080906563 0.3122138645556022 0  0 0.375 0  0.06283822175503616 0.3749906415441457 0  0.1256888651062197 0.3749809589443876 0  0.1885647381611431 0.3749706211538847 0  0.2514794126064926 0.3749592844966845 0  0.3144475959075714 0.3749465882942466 0  0.377485479374118 0.3749321533750897 0  0.4406110296446701 0.3749155853509873 0  0.5038441604146882 0.3748964854175614 0  0.5672066672746275 0.3748744725676513 0  0.6307217158926113 0.3748492223963955 0  0.6944125214987651 0.3748205288983074 0  0.7582996290761048 0.3747883965733274 0  0.8223959264707423 0.3747531712774488 0  0.8866983784079868 0.3747157226209095 0  0.9511760001301457 0.3746777022723812 0  1.015755805102726 0.3746418830073622 0  0 0.4375 0  0.06286197361501769 0.437489899186232 0  0.1257375648345188 0.4374794303531738 0  0.1886408605553066 0.4374682151356423 0  0.2515868880073528 0.4374558552591687 0  0.3145920954698821 0.4374419239546575 0  0.377674835425638 0.4374259596614977 0  0.4408558306781684 0.4374074639152151 0  0.5041585780765696 0.4373859064561574 0  0.567609599214995 0.4373607420991037 0  0.6312383709644588 0.4373314454935824 0  0.69507664587596 0.4372975706869343 0  0.7591566918797363 0.437258840399119 0  0.8235077566022492 0.4372152621002154 0  0.888149883113928 0.4371672530380727 0  0.9530842952374718 0.4371157459604293 0  1.018280222222898 0.4370622990368943 0  0 0.5 0  0.0628721896420787 0.4999895214025544 0  0.125758738442153 0.4999786405691315 0  0.1886745539296013 0.4999669409681228 0  0.2516356575606777 0.4999539775925197 0  0.3146597822716532 0.4999392629612447 0  0.3777670146603343 0.4999222540510275 0  0.4409804876685404 0.4999023417034576 0  0.5043271168764739 0.4998788454751134 0  0.5678383496120684 0.4998510190312466 0  0.6315508526493977 0.4998180738535218 0  0.6955069871069489 0.4997792309677141 0  0.7597547842919244 0.4997338074378326 0  0.8243469047697383 0.4996813263294048 0  0.8893376796985428 0.4996215869340611 0  0.9547767491346841 0.499554527802512 0  1.020697069875498 0.4994795912966234 0  0 0.5625 0  0.06286813003243698 0.5624895421148681 0  0.1257508254695611 0.5624786614497632 0  0.1886632645905189 0.562466916899911 0  0.2516218858271843 0.5624538299175548 0  0.3146450933614479 0.5624388643233545 0  0.3777540578640767 0.5624214048283954 0  0.4409736512267858 0.5624007349107211 0  0.5043335605591077 0.5623760162675052 0  0.5678696349105605 0.5623462749967451 0  0.631625526962845 0.5623104045860579 0  0.6956546948332383 0.5622672025837994 0  0.7600228009166767 0.5622154626105514 0  0.824810405265526 0.5621541296046922 0  0.8901153908712207 0.5620824437841619 0  0.9560533602723247 0.5619997313796979 0  1.022751867789891 0.5619038708814502 0  0 0.625 0  0.0628495900585479 0.6249899815293019 0  0.1257133500649887 0.6249795375092553 0  0.1886061002634877 0.6249682205829498 0  0.2515440116012393 0.6249555379318696 0  0.3145453892305412 0.6249409249219263 0  0.3776315993275384 0.6249237144394658 0  0.4408282113594004 0.624903100895945 0  0.5041664555449805 0.6248780990918616 0  0.5676851410066055 0.6248475013091648 0  0.6314332567246508 0.6248098433730136 0  0.6954736048334186 0.6247634057991862 0  0.7598880143383914 0.6247063038271448 0  0.8247849275370152 0.62463675524316 0  0.890310197580192 0.6245536000592332 0  0.9566608829187662 0.6244568282188114 0  1.024097670980003 0.6243464945421469 0  0 0.6875 0  0.0628169666023711 0.6874908420770126 0  0.1256470668726111 0.6874812771554697 0  0.1885040835315645 0.6874708742579246 0  0.2514031583119131 0.687459151591248 0  0.314361602288419 0.6874455452591423 0  0.3773998838136466 0.6874293702352756 0  0.4405428912052332 0.6874097701023996 0  0.5038216119626497 0.6873856518795719 0  0.5672754476867484 0.6873556037159491 0  0.6309555237961376 0.6873177998393807 0  0.6949296192721115 0.687269917960357 0  0.7592898674520984 0.6872091511296478 0  0.824165409945687 0.6871325346945926 0  0.8897439836865955 0.6870380895623395 0  0.9563083132565057 0.6869275530312114 0  1.024289961574104 0.6868099608456016 0  0 0.75 0  0.0627712974114321 0.7499921049193473 0  0.1255540514443712 0.7499838449164612 0  0.188360319908034 0.749974830997799 0  0.2512034271031271 0.7499646224621621 0  0.3140987345036843 0.7499526934095304 0  0.3770646001722559 0.7499383885338875 0  0.4401236336118521 0.7499208618839065 0  0.5033044039565984 0.749898989543878 0  0.566643848088804 0.7498712438770992 0  0.6301907886256405 0.7498355152776921 0  0.6940113035121502 0.7497888763580869 0  0.7581974455960854 0.7497273359076154 0  0.8228827134599586 0.7496458394483203 0  0.8882726345028696 0.7495395283092984 0  0.9547105340445372 0.7494098033276121 0  1.022813077741486 0.749285175857488 0  0 0.8125 0  0.0627142610349143 0.8124937277889147 0  0.1254377083270648 0.8124871563406059 0  0.1881800326705786 0.8124799648902917 0  0.250951992399514 0.8124717859271795 0  0.3137660722543724 0.8124621736511622 0  0.3766373147449959 0.8124505604183856 0  0.4395844219830871 0.812436192834731 0  0.5026312710355155 0.8124180336387481 0  0.5658090588116916 0.8123946056832748 0  0.6291594152199286 0.812363737248981 0  0.6927390550665535 0.8123221405552843 0  0.7566270868825621 0.8122647229012261 0  0.8209378043991001 0.8121835527244656 0  0.8858483236005177 0.8120668529341782 0  0.9516777346620542 0.8119015881940361 0  1.019162345464035 0.811706976128449 0  0 0.875 0  0.06264812912032276 0.8749956449342949 0  0.1253026779547642 0.874991077322344 0  0.187970430007322 0.8749860683792132 0  0.2506589407414354 0.8749803537816123 0  0.3133770183569896 0.8749736089611141 0  0.3761353353359115 0.8749654138569465 0  0.4389472443201043 0.8749551989928971 0  0.5018299024612582 0.8749421581155699 0  0.5648058498238031 0.8749250990442518 0  0.6279052314560448 0.874902175460226 0  0.6911688611902641 0.8748703783719948 0  0.7546521814353194 0.8748245197178923 0  0.8184296704241537 0.8747550993222916 0  0.8825991478838534 0.8746436444641431 0  0.9473000920187168 0.8744521218267884 0  1.012954119274964 0.8740940243717243 0  0 0.9375 0  0.06257566878937157 0.9374977697218926 0  0.1251546366734315 0.9374954292006323 0  0.1877403929384165 0.9374928594890113 0  0.2503368310970164 0.9374899225062453 0  0.3129485019002168 0.9374864475087018 0  0.3755809365544248 0.9374822114255716 0  0.4382410793234973 0.9374769080379001 0  0.50
[...]
<PointData  Vectors="f_54"> 
<DataArray  type="Float64"  Name="f_54"  NumberOfComponents="3" format="ascii">0.0000000000000000e+00 0.0000000000000000e+00 0.0000000000000000e+00  0.0000000000000000e+00 0.0000000000000000e+00 0.0000000000000000e+00  0.0000000000000000e+00 0.0000000000000000e+00 0.0000000000000000e+00  0.0000000000000000e+00 0.0000000000000000e+00 0.0000000000000000e+00  0.0000000000000000e+00 0.0000000000000000e+00 0.0000000000000000e+00  0.0000000000000000e+00 0.0000000000000000e+00 0.0000000000000000e+00  0.0000000000000000e+00 0.0000000000000000e+00 0.0000000000000000e+00  0.0000000000000000e+00 0.0000000000000000e+00 0.0000000000000000e+00  0.0000000000000000e+00 0.0000000000000000e+00 0.0000000000000000e+00  0.0000000000000000e+00 0.0000000000000000e+00 0.0000000000000000e+00  0.0000000000000000e+00 0.0000000000000000e+00 0.0000000000000000e+00  0.0000000000000000e+00 0.0000000000000000e+00 0.0000000000000000e+00  0.0000000000000000e+00 0.0000000000000000e+00 0.0000000000000000e+00  0.0000000000000000e+00 0.0000000000000000e+00 0.0000000000000000e+00  0.0000000000000000e+00 0.0000000000000000e+00 0.0000000000000000e+00  0.0000000000000000e+00 0.0000000000000000e+00 0.0000000000000000e+00  0.0000000000000000e+00 0.0000000000000000e+00 0.0000000000000000e+00  0.0000000000000000e+00 0.0000000000000000e+00 0.0000000000000000e+00  -2.1589946735728912e-06 -8.3649862829216698e-09 0.0000000000000000e+00  -4.3658303796406881e-06 -1.5607806011025339e-08 0.0000000000000000e+00  -6.6658043883035622e-06 -2.0449850684237334e-08 0.0000000000000000e+00  -9.0981673829096363e-06 -2.1304033311072195e-08 0.0000000000000000e+00  -1.1691555244750135e-05 -1.6141023409199439e-08 0.0000000000000000e+00  -1.4457372191930647e-05 -2.4046889203591544e-09 0.0000000000000000e+00  -1.7380083394032443e-05 2.2959622375132834e-08 0.0000000000000000e+00  -2.0402900045160799e-05 6.3245591508675824e-08 0.0000000000000000e+00  -2.3406324904238536e-05 1.2128704911493473e-07 0.0000000000000000e+00  -2.6174589858544350e-05 1.9795977868611701e-07 0.0000000000000000e+00  -2.8338595322172915e-05 2.8923590093059647e-07 0.0000000000000000e+00  -2.9265735906767956e-05 3.8046217696434549e-07 0.0000000000000000e+00  -2.7811621936164721e-05 4.3448106831043474e-07 0.0000000000000000e+00  -2.1667611609994188e-05 3.6279834721244574e-07 0.0000000000000000e+00  -5.3861125879917062e-06 -6.1415286747515526e-08 0.0000000000000000e+00  3.6643984856872021e-05 -1.5386476871029849e-06 0.0000000000000000e+00  0.0000000000000000e+00 0.0000000000000000e+00 0.0000000000000000e+00  -4.2748595847863416e-06 -1.7867576389936963e-08 0.0000000000000000e+00  -8.6486301437004482e-06 -3.3640040743085833e-08 0.0000000000000000e+00  -1.3215725025290182e-05 -4.4901750404728436e-08 0.0000000000000000e+00  -1.8059718424065742e-05 -4.8595825448991613e-08 0.0000000000000000e+00  -2.3244954624519543e-05 -4.0721649416701997e-08 0.0000000000000000e+00  -2.8804232774182912e-05 -1.6097798542927550e-08 0.0000000000000000e+00  -3.4720650517916315e-05 3.1702856233442005e-08 0.0000000000000000e+00  -4.0901010655972876e-05 1.1003972504730579e-07 0.0000000000000000e+00  -4.7136970997550103e-05 2.2614811795374959e-07 0.0000000000000000e+00  -5.3047656332277564e-05 3.8473569516702816e-07 0.0000000000000000e+00  -5.7992087698093934e-05 5.8328995998887464e-07 0.0000000000000000e+00  -6.0927849511655649e-05 8.0375248452332633e-07 0.0000000000000000e+00  -6.0167393453578761e-05 9.9908639946883591e-07 0.0000000000000000e+00  -5.2942322271571722e-05 1.0755073285030527e-06 0.0000000000000000e+00  -3.4689946343099464e-05 8.8786512482756698e-07 0.0000000000000000e+00  1.4343564050270575e-06 3.6635514043988317e-07 0.0000000000000000e+00  0.0000000000000000e+00 0.0000000000000000e+00 0.0000000000000000e+00  -6.2962939638091032e-06 -2.9476329120949735e-08 0.0000000000000000e+00  -1.2747945317397637e-05 -5.6198726720050927e-08 0.0000000000000000e+00  -1.9504989668985829e-05 -7.6924246027039462e-08 0.0000000000000000e+00  -2.6704259030039006e-05 -8.7411592680012825e-08 0.0000000000000000e+00  -3.4458637626287532e-05 -8.1897262379093109e-08 0.0000000000000000e+00  -4.2840854120579740e-05 -5.2593026844185323e-08 0.0000000000000000e+00  -5.1859233842845640e-05 1.0685002873695013e-08 0.0000000000000000e+00  -6.1422193480189846e-05 1.2051760802827476e-07 0.0000000000000000e+00  -7.1287479613646917e-05 2.9106529648330192e-07 0.0000000000000000e+00  -8.0991297752690421e-05 5.3566263281215434e-07 0.0000000000000000e+00  -8.9751879605443497e-05 8.6161306060847954e-07 0.0000000000000000e+00  -9.6343241824556604e-05 1.2604713636204184e-06 0.0000000000000000e+00  -9.8944399899780086e-05 1.6917323219053839e-06 0.0000000000000000e+00  -9.5011483248394197e-05 2.0577828358804629e-06 0.0000000000000000e+00  -8.1375486687157303e-05 2.1659589794768470e-06 0.0000000000000000e+00  -5.5248006486403323e-05 1.6461422399548429e-06 0.0000000000000000e+00  0.0000000000000000e+00 0.0000000000000000e+00 0.0000000000000000e+00  -8.1666554991865274e-06 -4.3843745391406659e-08 0.0000000000000000e+00  -1.6551482701946652e-05 -8.4758778239178414e-08 0.0000000000000000e+00  -2.5368082013215672e-05 -1.1917210775152038e-07 0.0000000000000000e+00  -3.4817889086203899e-05 -1.4216396911304477e-07 0.0000000000000000e+00  -4.5079142559415681e-05 -1.4667895498840172e-07 0.0000000000000000e+00  -5.6289267773027414e-05 -1.2263896269878906e-07 0.0000000000000000e+00  -6.8517543536363644e-05 -5.6016013594380533e-08 0.0000000000000000e+00  -8.1724273807676909e-05 7.1946271847067005e-08 0.0000000000000000e+00  -9.5702262211886996e-05 2.8493432849779716e-07 0.0000000000000000e+00  -1.0999684402247236e-04 6.1035469776057005e-07 0.0000000000000000e+00  -1.2380358906024068e-04 1.0752496803883162e-06 0.0000000000000000e+00  -1.3585153332983091e-04 1.6970351206964897e-06 0.0000000000000000e+00  -1.4430223429571213e-04 2.4659286316761531e-06 0.0000000000000000e+00  -1.4674711806146904e-04 3.3159431914719697e-06 0.0000000000000000e+00  -1.4049170901338966e-04 4.0848242153803200e-06 0.0000000000000000e+00  -1.2346594888654988e-04 4.4810773512278780e-06 0.0000000000000000e+00  0.0000000000000000e+00 0.0000000000000000e+00 0.0000000000000000e+00  -9.8230386854795878e-06 -6.1138421684134608e-08 0.0000000000000000e+00  -1.9932803670967142e-05 -1.1981468038352754e-07 0.0000000000000000e+00  -3.0614077409600203e-05 -1.7281448558979321e-07 0.0000000000000000e+00  -4.2144611182055637e-05 -2.1530974138549444e-07 0.0000000000000000e+00  -5.4786342460631312e-05 -2.3980543499550092e-07 0.0000000000000000e+00  -6.8769435726006578e-05 -2.3479777298898005e-07 0.0000000000000000e+00  -8.4265463821801679e-05 -1.8308288525519224e-07 0.0000000000000000e+00  -1.0134509364996715e-04 -5.9745134917365620e-08 0.0000000000000000e+00  -1.1991489885857762e-04 1.6993240639992140e-07 0.0000000000000000e+00  -1.3962821980693644e-04 5.5194397429995472e-07 0.0000000000000000e+00  -1.5976810019155527e-04 1.1428792940465171e-06 0.0000000000000000e+00  -1.7910968036408486e-04 2.0040807067848884e-06 0.0000000000000000e+00  -1.9579079437310299e-04 3.1854784891763269e-06 0.0000000000000000e+00  -2.0726006039770779e-04 4.6915385546082829e-06 0.0000000000000000e+00  -2.1043150316437225e-04 6.4210565622121936e-06 0.0000000000000000e+00  -2.0221623665473001e-04 8.0777935859815569e-06 0.0000000000000000e+00  0.0000000000000000e+00 0.0000000000000000e+00 0.0000000000000000e+00  -1.1196969773609755e-05 -8.0890719463387644e-08 0.0000000000000000e+00  -2.2752396926204996e-05 -1.6053746165248251e-07 0.0000000000000000e+00  -3.5027406544055543e-05 -2.3693070006723199e-07 0.0000000000000000e+00  -4.8385628194123570e-05 -3.0636781479777292e-07 0.0000000000000000e+00  -6.3189541465546100e-05 -3.6221816154843686e-07 0.0000000000000000e+00  -7.9789822202461474e-05 -3.9317100701717361e-07 0.0000000000000000e+00  -9.8503538942572592e-05 -3.8072347876865016e-07 0.0000000000000000e+00  -1.1957541368423454e-04 -2.9564780651214064e-07 0.0000000000000000e+00  -1.4311444944719567e-04 -9.3253719706914397e-08 0.0000000000000000e+00  -1.6899661282938683e-04 2.9240804889399777e-07 0.0000000000000000e+00  -1.9672436891590112e-04 9.5435125800109048e-07 0.0000000000000000e+00  -2.2523859210767040e-04 2.0153689365781472e-06 0.0000000000000000e+00  -2.5269246742768098e-04 3.6205202993547577e-06 0.0000000000000000e+00  -2.7622569191240151e-04 5.9054622459353969e-06 0.0000000000000000e+00  -2.9181960074690694e-04 8.9178251814905559e-06 0.0000000000000000e+00  -2.9434674016467317e-04 1.2463164467771519e-05 0.0000000000000000e+00  0.0000000000000000e+00 0.0000000000000000e+00 0.0000000000000000e+00  -1.2217016312709709e-05 -1.0188576519675658e-07 0.0000000000000000e+00  -2.4862781959357163e-05 -2.0451342921129414e-07 0.0000000000000000e+00  -3.8375152937019525e-05 -3.0798902524407170e-07 0.0000000000000000e+00  -5.3208198230068051e-05 -4.1095120457157851e-07 0.0000000000000000e+00  -6.9836674734570882e-05 -5.0934563927165882e-07 0.0000000000000000e+00  -8.8754837101296305e-05 -5.9448538093624944e-07 0.0000000000000000e+00  -1.1046535405666052e-04 -6.4994135359846985e-07 0.0000000000000000e+00  -1.3545158479171779e-04 -6.4660548416732053e-07 0.0000000000000000e+00  -1.6412276269407315e-04 -5.3504413884322435e-07 0.0000000000000000e+00  -1.9671663980139510e-04 -2.3414878235683832e-07 0.0000000000000000e+00  -2.3313838445069342e-04 3.8451196932966045e-07 0.0000000000000000e+00  -2.7271003597201113e-04 1.5153801440223766e-06 0.0000000000000000e+00  -3.1380649914523618e-04 3.4340972512810597e-06 0.0000000000000000e+00  -3.5337047219618036e-04 6.4905962666186872e-06 0.0000000000000000e+00  -3.8633895158059775e-04 1.1038771947352434e-05 0.0000000000000000e+00  -4.0507461532811540e-04 1.7228236059989337e-05 0.0000000000000000e+00  0.0000000000000000e+00 0.0000000000000000e+00 0.0000000000000000e+00  -1.2813409617408752e-05 -1.2215006084267332e-07 0.0000000000000000e+00  -2.6117912127220665e-05 -2.4766851185622415e-07 0.0000000000000000e+00  -4.0421474960178722e-05 -3.7959269519036960e-07 0.0000000000000000e+00  -5.6265197729335886e-05 -5.2011083584685489e-07 0.0000000000000000e+00  -7.4238636928010242e-05 -6.6964466028875366e-07 0.0000000000000000e+00  -9.4992371635517337e-05 -8.2515368186425626e-07 0.0000000000000000e+00  -1.1924437914576505e-04 -9.7703755136220577e-07 0.0000000000000000e+00  -1.4777360508410800e-04 -1.1035841669622051e-06 0.0000000000000000e+00  -1.8138862801683327e-04 -1.1612325567232081e-06 0.0000000000000000e+00  -2.2085030454671611e-04 -1.0679533178099557e-06 0.0000000000000000e+00  -2.6671345967974649e-04 -6.7597018412693320e-07 0.0000000000000000e+00  -3.1903388347853396e-04 2.7026567617608940e-07 0.0000000000000000e+00  -3.7686703110539178e-04 2.1917215606246707e-06 0.0000000000000000e+00  -4.3747751497454974e-04 5.7353010240042295e-06 0.0000000000000000e+00  -4.9521222125889703e-04 1.1786845179011584e-05 0.0000000000000000e+00  -5.4009713589310148e-04 2.1306099743929322e-05 0.0000000000000000e+00  0.0000000000000000e+00 0.0000000000000000e+00 0.0000000000000000e+00  -1.2924511457874627e-05 -1.3907936568814672e-07 0.0000000000000000e+00  -2.6386620537097334e-05 -2.8449196178234874e-07 0.0000000000000000e+00  -4.0949000505863801e-05 -4.4271342225449412e-07 0.0000000000000000e+00  -5.7225723129159073e-05 -6.2038656195026358e-07 0.0000000000000000e+00  -7.5910232255256880e-05 -8.2407025036111762e-07 0.0000000000000000e+00  -9.7805239013049698e-05 -1.0593838289288072e-06 0.0000000000000000e+00  -1.2385327486800755e-04 -1.3289150904015216e-06 0.0000000000000000e+00  -1.5516361331348400e-04 -1.6276619376318305e-06 0.0000000000000000e+00  -1.9302511239218913e-04 -1.9336520685223940e-06 0.0000000000000000e+00  -2.3888255256798515e-04 -2.1893343806888006e-06 0.0000000000000000e+00  -2.9423198014138260e-04 -2.2658106234363970e-06 0.0000000000000000e+00  -3.6035295697510293e-04 -1.8965975835626503e-06 0.0000000000000000e+00  -4.3773946587852801e-04 -5.6165095995606498e-07 0.0000000000000000e+00  -5.2502846287027052e-04 2.6964751697920816e-06 0.0000000000000000e+00  -6.1721029307654999e-04 9.5087832683143638e-06 0.0000000000000000e+00  -7.0306247624107084e-04 2.2329595216882492e-05 0.0000000000000000e+00  0.0000000000000000e+00 0.0000000000000000e+00 0.0000000000000000e+00  -1.2504613262543713e-05 -1.4973893530531757e-07 0.0000000000000000e+00  -2.5569140936836185e-05 -3.0864350689546523e-07 0.0000000000000000e+00  -3.9785933399103010e-05 -4.8660137231412781e-07 0.0000000000000000e+00  -5.5815573574834906e-05 -6.9495839595287742e-07 0.0000000000000000e+00  -7.4427560616853271e-05 -9.4724558569194110e-07 0.0000000000000000e+00  -9.6549057268799403e-05 -1.2597683251648584e-06 0.0000000000000000e+00  -1.2332418867959236e-04 -1.6516854376881518e-06 0.0000000000000000e+00  -1.5618496308608947e-04 -2.1436518298517238e-06 0.0000000000000000e+00  -1.9693055873792547e-04 -2.7528673238567553e-06 0.0000000000000000e+00  -2.4780067023976680e-04 -3.4796740249735637e-06 0.0000000000000000e+00  -3.1150304812631698e-04 -4.2750246630978915e-06 0.0000000000000000e+00  -3.9110077668260952e-04 -4.9659997652442202e-06 0.0000000000000000e+00  -4.8955870999187884e-04 -5.0929284725328395e-06 0.0000000000000000e+00  -6.0857235717314223e-04 -3.5731191368243813e-06 0.0000000000000000e+00  -7.4610460324216232e-04 1.9255111774866977e-06 0.0000000000000000e+00  -8.9212393680422651e-04 1.5907525384148576e-05 0.0000000000000000e+00  0.0000000000000000e+00 0.0000000000000000e+00 0.0000000000000000e+00  -1.1532160445821911e-05 -1.5132932002232156e-07 0.0000000000000000e+00  -2.3614866698914031e-05 -3.1394772367022469e-07 0.0000000000000000e+00  -3.6836113593818919e-05 -5.0043182773219608e-07 0.0000000000000000e+00  -5.1864114327469878e-05 -7.2611666913934807e-07 0.0000000000000000e+00  -6.9498244123841521e-05 -1.0109220932565440e-06 0.0000000000000000e+00  -9.0734583658757923e-05 -1.3817389039060199e-06 0.0000000000000000e+00  -1.1685346259827401e-04 -1.8755480430661732e-06 0.0000000000000000e+00  -1.4953829457608727e-04 -2.5432700339980766e-06 0.0000000000000000e+00  -1.9103609380090693e-04 -3.4537107092814625e-06 0.0000000000000000e+00  -2.4436712175660388e-04 -4.6950574903031835e-06 0.0000000000000000e+00  -3.1357516312048480e-04 -6.3659634858997829e-06 0.0000000000000000e+00  -4.0395801703082933e-04 -8.5333573635332995e-06 0.0000000000000000e+00  -5.2207591035976966e-04 -1.1093986690723001e-05 0.0000000000000000e+00  -6.7499541757158512e-04 -1.3372799464034344e-05 0.0000000000000000e+00  -8.6756013269873077e-04 -1.3051308595031770e-05 0.0000000000000000e+00  -1.0957534361176271e-03 -3.6486056362373634e-06 0.0000000000000000e+00  0.0000000000000000e+00 0.0000000000000000e+00 0.0000000000000000e+00  -1.0017120077639578e-05 -1.4175611293563299e-07 0.0000000000000000e+00  -2.0538631794130181e-05 -2.9565408838215849e-07 0.0000000000000000e+00  -3.2107598435948354e-05 -4.7551975257696895e-07 0.0000000000000000e+00  -4.5351039637456877e-05 -6.9888550940239808e-07 0.0000000000000000e+00  -6.1035811967631302e-05 -9.8972014619952438e-07 0.0000000000000000e+00  -8.0144220850121242e-05 -1.3824359255614753e-06 0.0000000000000000e+00  -1.0398153663356619e-04 -1.9280254380082202e-06 0.0000000000000000e+00  -1.3433383386700224e-04 -2.7036529790256120e-06 0.0000000000000000e+00  -1.7370417814913564e-04 -3.8277167383553364e-06 0.0000000000000000e+00  -2.2566859487932047e-04 -5.4831935538343741e-06 0.0000000000000000e+00  -2.9540746029327829e-04 -7.9521219054602911e-06 0.0000000000000000e+00  -3.9046585306133294e-04 -1.1659439532437955e-05 0.0000000000000000e+00  -5.2171128501039539e-04 -1.7198663406806008e-05 0.0000000000000000e+00  -7.0406336743271880e-04 -2.5197907692676948e-05 0.0000000000000000e+00  -9.5521948650932696e-04 -3.5414188553659357e-05 0.0000000000000000e+00  -1.2875577393667026e-03 -4.2732709477581688e-05 0.0000000000000000e+00  0.0000000000000000e+00 0.0000000000000000e+00 0.0000000000000000e+00  -8.0059818545001786e-06 -1.2018542212507464e-07 0.0000000000000000e+00  -1.6432189308527768e-05 -2.5170301154531597e-07 0.0000000000000000e+00  -2.5733976557050238e-05 -4.0765442449897100e-07 0.0000000000000000e+00  -3.6443718947524950e-05 -6.0509895282584733e-07 0.0000000000000000e+00  -4.9223888954556802e-05 -8.6814371590432823e-07 0.0000000000000000e+00  -6.4941533858717921e-05 -1.2327455442888422e-06 0.0000000000000000e+00  -8.4778973880696715e-05 -1.7545783842303354e-06 0.0000000000000000e+00  -1.1040535946772918e-04 -2.5223885399473151e-06 0.0000000000000000e+00  -1.4425155461484401e-04 -3.6813313706680683e-06 0.0000000000000000e+00  -1.8996335428058799e-04 -5.4749027034922990e-06 0.0000000000000000e+00  -2.5316717427678853e-04 -8.3225495053780196e-06 0.0000000000000000e+00  -3.4278559204831057e-04 -1.2968047741940166e-05 0.0000000000000000e+00  -4.7329381816638822e-04 -2.0772189616352642e-05 0.0000000000000000e+00  -6.6838039887543886e-04 -3.4293978035334170e-05 0.0000000000000000e+00  -9.6536443900938150e-04 -5.8284811578280328e-05 0.0000000000000000e+00  -1.4089796769320073e-03 -9.9109385378459317e-05 0.0000000000000000e+00  0.0000000000000000e+00 0.0000000000000000e+00 0.0000000000000000e+00  -5.5829468029516361e-06 -8.7432588507193377e-08 0.0000000000000000e+00  -1.1467583215653682e-05 -1.8364500369461258e-07 0.0000000000000000e+00  -1.7982304672255495e-05 -2.9888990422333789e-07 0.0000000000000000e+00  -2.5514454566439631e-05 -4.4674591063247446e-07 0.0000000000000000e+00  -3.4551913079973225e-05 -6.4680335631606684e-07 0.0000000000000000e+00  -4.5742895622660023e-05 -9.2896796098916121e-07 0.0000000000000000e+00  -5.9987496502030075e-05 -1.3407558844179803e-06 0.0000000000000000e+00  -7.8584773723964379e-05 -1.9601584761728312e-06 0.0000000000000000e+00  -1.0347938364348280e-04 -2.9191255500291306e-06 0.0000000000000000e+00  -1.3769306620633285e-04 -4.4479827157026745e-06 0.0000000000000000e+00  -1.8611447891977856e-04 -6.9629892491129276e-06 0.0000000000000000e+00  -2.5701907525620761e-04 -1.1248525810768349e-05 0.0000000000000000e+00  -3.6516334669048968e-04 -1.8867908160161853e-05 0.0000000000000000e+00  -5.3852044862594749e-04 -3.3219780529881147e-05 0.0000000000000000e+00  -8.3442875758786095e-04 -6.2906348960767357e-05 0.0000000000000000e+00  -1.3877416541157920e-03 -1.3671966270040827e-04 0.0000000000000000e+00  0.0000000000000000e+00 0.0000000000000000e+00 0.0000000000000000e+00  -2.8663225978525218e-06 -4.6043948992068945e-08 0.0000000000000000e+00  -5.8900518073366134e-06 -9.6875222211094080e-08 0.0000000000000000e+00  -9.2429541512561577e-06 -1.5811452080727726e-07 0.0000000000000000e+00  -1.3128607220943253e-05 -2.3727358117550012e-07 0.0000000000000000e+00  -1.7805122393631820e-05 -3.4530715030587005e-07 0.0000000000000000e+00  -2.3618235019976546e-05 -4.9913465521729439e-07 0.0000000000000000e+00  -3.1052748017706864e-05 -7.2597483498583485e-07 0.0000000000000000e+00  -4.0816761889956937e-05 -1.0710913919254218e-06 0.0000000000000000e+00  -5.3986312581109930e-05 -1.6120779669514409e-06 0.0000000000000000e+00  -7.2266306071542611e-05 -2.4859323792884626e-06 0.0000000000000000e+00  -9.8487708634902949e-05 -3.9414290267222905e-06 0.0000000000000000e+00  -1.3761519287434576e-04 -6.4407177866922800e-06 0.0000000000000000e+00  -1.9893242458052620e-04 -1.0847108864416317e-05 0.0000000000000000e+00  -3.0110386643466842e-04 -1.8695400125848490e-05 0.0000000000000000e+00  -4.8427515324964290e-04 -3.2039639859894022e-05 0.0000000000000000e+00  -8.3447158031473554e-04 -4.8924212623540832e-05 0.0000000000000000e+00  0.0000000000000000e+00 0.0000000000000000e+00 0.0000000000000000e+00  0.0000000000000000e+00 0.0000000000000000e+00 0.0000000000000000e+00  0.0000000000000000e+00 0.0000000000000000e+00 0.0000000000000000e+00  0.0000000000000000e+00 0.0000000000000000e+00 0.0000000000000000e+00  0.0000000000000000e+00 0.0000000000000000e+00 0.0000000000000000e+00  0.0000000000000000e+00 0.0000000000000000e+00 0.0000000000000000e+00  0.0000000000000000e+00