<?xml version="1.0"?>
<VTKFile type="UnstructuredGrid"  version="0.1"  >
<UnstructuredGrid>
<Piece  NumberOfPoints="289" NumberOfCells="512">
<Points>
<DataArray  type="Float64"  NumberOfComponents="3"  format="ascii">0 0 0  0.0625 0 0  0.125 0 0  0.1875 0 0  0.25 0 0  0.3125 0 0  0.375 0 0  0.4375 0 0  0.5 0 0  0.5625 0 0  0.625 0 0  0.6875 0 0  0.75 0 0  0.8125 0 0  0.875 0 0  0.9375 0 0  1 0 0  0 0.0625 0  0.06248270992885559 0.06248706668451608 0  0.1249648407591229 0.06247390788345707 0  0.187445790719912 0.06246031845762379 0  0.2499249413062206 0.06244614210478133 0  0.3124016534671967 0.06243130266773277 0  0.3748752710774683 0.06241584277915811 0  0.4373451355886408 0.06239996986068373 0  0.4998106158565381 0.06238410601951461 0  0.5622711535705268 0.06236893225206427 0  0.6247263078844947 0.06235540769275687 0  0.6871757200935007 0.06234473199417611 0  0.7496186904429382 0.06233821001126116 0  0.8120521817132953 0.06233700295250465 0  0.874462430110201 0.06234193480952191 0  0.936789121320055 0.06235447922102953 0  0.998764074333824 0.06238621925751482 0  0 0.125 0  0.06246599119576394 0.124974354014182 0  0.1249308408257843 0.1249482332464138 0  0.1873933655620501 0.124921200886336 0  0.2498523527429306 0.1248929122973781 0  0.3123065570579313 0.1248631759383075 0  0.3747547155922484 0.1248320308903552 0  0.4371955931302868 0.1247998428156021 0  0.4996280750014767 0.1247674142311327 0  0.5620513310659335 0.1247360936248758 0  0.6244650784904828 0.1247078481316475 0  0.686869961596139 0.1246852332072454 0  0.7492680110803493 0.1246711497077014 0  0.8116629688095132 0.1246682333482683 0  0.8740600032431517 0.1246776981721405 0  0.936466144925148 0.1246973740724267 0  0.9989184238287213 0.1247166450942012 0  0 0.1875 0  0.06245043215513085 0.1874621140937416 0  0.1248991830648771 0.1874234601619411 0  0.1873445130244172 0.1873833200290674 0  0.2497846379241754 0.1873410991180404 0  0.3122177252641032 0.1872964124900872 0  0.3746419198472187 0.1872491997509903 0  0.437055419763688 0.1871998757360498 0  0.499456634702369 0.1871495178312478 0  0.5618444757215786 0.1871000772856277 0  0.6242188499637753 0.1870545748080338 0  0.6865814663886428 0.1870171899620179 0  0.7489371007271057 0.1869930608954692 0  0.8112955436290337 0.1869874331767492 0  0.8736747725095391 0.1870034057459759 0  0.9361076044190959 0.1870365002802739 0  0.9986612964372493 0.1870616111140196 0  0 0.25 0  0.0624365987909648 0.2499506426550597 0  0.124871006993913 0.2499001661332734 0  0.1873009596822497 0.2498475038037635 0  0.2497241233705807 0.249791724481662 0  0.3121380845282215 0.249732134579045 0  0.3745403755742029 0.2496684239016852 0  0.4369285652222623 0.2496008710702143 0  0.4993004551727344 0.2495306221558854 0  0.5616544470412423 0.2494600466555574 0  0.6239901725659935 0.2493931504826364 0  0.6863095142539041 0.2493359720616258 0  0.7486181761393477 0.2492967806458504 0  0.8109279943040145 0.2492856976597888 0  0.873260271117119 0.2493130311279909 0  0.9356508738406992 0.2493852159061682 0  0.9981589145213791 0.2494975302729305 0  0 0.3125 0  0.06242501928461849 0.312440292638594 0  0.1248473808173933 0.3123790529385017 0  0.1872643361772942 0.3123147910741425 0  0.2496730305798844 0.3122461365466982 0  0.3120704730538449 0.3121719411600696 0  0.3744535459808631 0.3120914402884397 0  0.4368190836715092 0.3120045005984133 0  0.4991640666468404 0.3119119880734552 0  0.5614860015069356 0.3118162927999387 0  0.6237835834957202 0.3117220390237904 0  0.6860577622318295 0.3116369749639055 0  0.7483133354792165 0.3115729478093343 0  0.810561171379635 0.3115466792890479 0  0.8728211608396389 0.3115797172350875 0  0.9351262887183764 0.31169646848126 0  0.9975293323271628 0.311918849618623 0  0 0.375 0  0.06241616499841371 0.3749314778886461 0  0.1248292652577311 0.3748609578176342 0  0.1872361281510041 0.3747864586959005 0  0.2496334221831303 0.3747060672547358 0  0.3120175965834581 0.3746180194701593 0  0.3743848552492601 0.3745208498724371 0  0.436731194608513 0.3744136492627398 0  0.499052554364539 0.3742964886750446 0  0.561345157328445 0.3741710898935797 0  0.6236061472356651 0.3740418468304653 0  0.6858346617253047 0.3739173149476085 0  0.7480334810273601 0.3738122548441805 0  0.8102113495604408 0.3737501702326274 0  0.8723860042472027 0.3737658956522816 0  0.934588053449637 0.3739070152181345 0  0.9968666029103573 0.3742316923260793 0  0 0.4375 0  0.0624104280755276 0.4374246632484013 0  0.1248174688666809 0.4373468367568795 0  0.1872176097741075 0.4372640053622057 0  0.2496071152922132 0.4371736311735325 0  0.311981925070254 0.4370731852709836 0  0.3743375740277409 0.4369602454870207 0  0.4366691613641956 0.4368327083344449 0  0.4989714192965469 0.4366891927706268 0  0.5612389712356071 0.4365297601033609 0  0.6234669262287398 0.4363571434643908 0  0.6856520278867303 0.4361787721592816 0  0.7477946387006567 0.4360099693571747 0  0.8099018383849128 0.4358787127128787 0  0.8719917630933812 0.4358320585862278 0  0.9340989896745856 0.4359433303938977 0  0.9962806416556786 0.4363170505685021 0  0 0.5 0  0.06240809713428603 0.499920338075068 0  0.124812597419896 0.4998377126605094 0  0.1872097629354353 0.4997490780289229 0  0.2495955647360655 0.4996512395169606 0  0.311965532364434 0.4995408058588254 0  0.3743146054403761 0.4994141885552427 0  0.4366370073506113 0.4992676930007267 0  0.4989261906950498 0.4990977835146267 0  0.5611749621382315 0.4989016710713516 0  0.6233760000311775 0.4986784885813428 0  0.6855231522807359 0.4984315128785168 0  0.7476141429082676 0.498172192176141 0  0.8096555351193133 0.4979271160064409 0  0.8716707018744236 0.4977492770414372 0  0.9337105778273652 0.4977342071947087 0  0.9958648937351335 0.4980381717797963 0  0 0.5625 0  0.0624093336999945 0.562418972154151 0  0.1248150027401324 0.5623345849775395 0  0.1872131902671532 0.5622433318074389 0  0.2495997274622743 0.5621414082736308 0  0.3119698942362349 0.562024561588928 0  0.3743181945740648 0.5618879481288253 0  0.436638112399275 0.5617260248774955 0  0.4989218848094548 0.5615325345226237 0  0.5611604048900208 0.5613007132837058 0  0.6233435343177088 0.5610239901843418 0  0.6854614476950859 0.5606977254588693 0  0.7475082446379424 0.5603230800781839 0  0.8094899532161265 0.5599151024537403 0  0.871439736959245 0.5595186320233573 0  0.9334419053089433 0.5592367645617813 0  0.9956598881126424 0.5592736149016808 0  0 0.625 0  0.06241415275435137 0.6249209562963938 0  0.1248247382078001 0.6248383043299448 0  0.1872280340012117 0.6247482255083076 0  0.2496199257163875 0.6246464555518404 0  0.3119956682813899 0.624528022291069 0  0.3743495900122618 0.6243869372036556 0  0.4366747210416764 0.6242158308991549 0  0.4989623473528407 0.6240055381053947 0  0.5612015619898939 0.6237446792154856 0  0.6233790880419191 0.6234193911910858 0  0.6854801643182296 0.6230136248009343 0  0.7474924602935892 0.6225110826644856 0  0.8094173081917946 0.6219014867176295 0  0.8712960544090713 0.6211975732284006 0  0.9332613639015719 0.6204758978376328 0  0.9956148964482702 0.619957353122341 0  0 0.6875 0  0.06242241089042983 0.6874265341728647 0  0.1248415289426867 0.6873494252217703 0  0.187253914922985 0.6872647719160356 0  0.2496557314764187 0.6871681109069961 0  0.3120424866615357 0.6870540580102663 0  0.3744086912310992 0.6869158444999734 0  0.4367473800073094 0.6867446940942233 0  0.499049436819098 0.6865289693000857 0  0.5613026813752156 0.6862529978355186 0  0.6234908146667717 0.6858954861920502 0  0.6855928403313778 0.6854274964330219 0  0.7475851849991718 0.6848103210630815 0  0.809453070647192 0.6839950399611506 0  0.8712275897089004 0.6829309518237314 0  0.9330803961294927 0.68160829234472 0  0.9955063936264503 0.6801954872637389 0  0 0.75 0  0.0624338049694771 0.7499357362108238 0  0.1248647640174875 0.749868059920763 0  0.1872899063579812 0.7497932810126936 0  0.2497058990821754 0.7497070939351074 0  0.3121088046421127 0.74960416412665 0  0.3744937383239042 0.7494775638264916 0  0.4368543493385884 0.7493179636135425 0  0.4991819962569631 0.7491124350092366 0  0.5614644076627786 0.7488426326516017 0  0.6236835406746229 0.7484819735090047 0  0.6858124582782347 0.7479911623327191 0  0.7478121301354743 0.747310954621117 0  0.8096340067276335 0.7463505144413305 0  0.8712523712077346 0.7449710953360181 0  0.9328049330701181 0.7429840739984874 0  0.9949650254652029 0.7403483154758588 0  0 0.8125 0  0.06244788289443682 0.8124483292029081 0  0.1248935158687713 0.8123937637898107 0  0.1873345563411693 0.8123331496021319 0  0.2497683754096271 0.8122627502238523 0  0.3121918636697176 0.8121778420422419 0  0.3746011484826358 0.8120721431163194 0  0.4369911419749171 0.811936964162721 0  0.499354758291453 0.81175990020405 0  0.5616814668719483 0.8115227559774283 0  0.623954489425747 0.8111981615626481 0  0.6861452465313556 0.8107438473506398 0  0.748202573812523 0.8100924118037226 0  0.810034199524147 0.8091314097484 0  0.8714900706912486 0.8076599339396637 0  0.9324500454196475 0.8052826788856045 0  0.9937891154044274 0.80113790253963 0  0 0.875 0  0.06246406621977522 0.8749637952094792 0  0.1249265879534163 0.8749254831016183 0  0.1873859647713905 0.8748827547431082 0  0.2498404106830193 0.8748328453730065 0  0.3122878317397423 0.8747722102608784 0  0.3747256494815285 0.8746960580622016 0  0.4371505154144648 0.8745976424619164 0  0.4995577939067263 0.8744671490651416 0  0.5619405206523499 0.8742899032675522 0  0.6242871003596691 0.8740434302721811 0  0.68657581475315 0.8736925432427519 0  0.7487609213500992 0.8731808774317028 0  0.8107358744655182 0.8724150350597278 0  0.872233148431681 0.8712281564303723 0  0.9325512277168188 0.8692647060868886 0  0.989886647894578 0.8654922481448142 0  0 0.9375 0  0.06248168207827127 0.9374813494994348 0  0.1249625857459989 0.9374615883730004 0  0.1874419096600997 0.9374394957014887 0  0.2499187693642496 0.937413600092728 0  0.3123921472155457 0.9373819992485662 0  0.3748608259717918 0.9373420971508898 0  0.4373232893605456 0.937290200492
[...]
<PointData  Vectors="f_54"> 
<DataArray  type="Float64"  Name="f_54"  NumberOfComponents="3" format="ascii">0.0000000000000000e+00 0.0000000000000000e+00 0.0000000000000000e+00  0.0000000000000000e+00 0.0000000000000000e+00 0.0000000000000000e+00  0.0000000000000000e+00 0.0000000000000000e+00 0.0000000000000000e+00  0.0000000000000000e+00 0.0000000000000000e+00 0.0000000000000000e+00  0.0000000000000000e+00 0.0000000000000000e+00 0.0000000000000000e+00  0.0000000000000000e+00 0.0000000000000000e+00 0.0000000000000000e+00  0.0000000000000000e+00 0.0000000000000000e+00 0.0000000000000000e+00  0.0000000000000000e+00 0.0000000000000000e+00 0.0000000000000000e+00  0.0000000000000000e+00 0.0000000000000000e+00 0.0000000000000000e+00  0.0000000000000000e+00 0.0000000000000000e+00 0.0000000000000000e+00  0.0000000000000000e+00 0.0000000000000000e+00 0.0000000000000000e+00  0.0000000000000000e+00 0.0000000000000000e+00 0.0000000000000000e+00  0.0000000000000000e+00 0.0000000000000000e+00 0.0000000000000000e+00  0.0000000000000000e+00 0.0000000000000000e+00 0.0000000000000000e+00  0.0000000000000000e+00 0.0000000000000000e+00 0.0000000000000000e+00  0.0000000000000000e+00 0.0000000000000000e+00 0.0000000000000000e+00  0.0000000000000000e+00 0.0000000000000000e+00 0.0000000000000000e+00  0.0000000000000000e+00 0.0000000000000000e+00 0.0000000000000000e+00  4.4339284985088820e-06 3.3725970841396973e-08 0.0000000000000000e+00  8.9807403432009295e-06 6.8467756058538529e-08 0.0000000000000000e+00  1.3752039922127402e-05 1.0524925731878068e-07 0.0000000000000000e+00  1.8852651070161707e-05 1.4507819405937935e-07 0.0000000000000000e+00  2.4375073327321208e-05 1.8891947543854228e-07 0.0000000000000000e+00  3.0391108374727182e-05 2.3764082878610549e-07 0.0000000000000000e+00  3.6939491895823471e-05 2.9191137531404555e-07 0.0000000000000000e+00  4.4008252572660740e-05 3.5201934384004932e-07 0.0000000000000000e+00  5.1510503540622250e-05 4.1754497130533611e-07 0.0000000000000000e+00  5.9252613055263328e-05 4.8675935698901970e-07 0.0000000000000000e+00  6.6894628148854939e-05 5.5546925466040245e-07 0.0000000000000000e+00  7.3905925228583532e-05 6.1463386147203645e-07 0.0000000000000000e+00  7.9530319567880912e-05 6.4482943915488846e-07 0.0000000000000000e+00  8.2819756454171717e-05 6.0076999660119544e-07 0.0000000000000000e+00  8.2984015425956428e-05 3.5747983754557073e-07 0.0000000000000000e+00  8.1079557048291921e-05 -5.0772918076118372e-07 0.0000000000000000e+00  0.0000000000000000e+00 0.0000000000000000e+00 0.0000000000000000e+00  8.7506882960632630e-06 6.6403520520792949e-08 0.0000000000000000e+00  1.7729909384007864e-05 1.3484162927312251e-07 0.0000000000000000e+00  2.7164319377769517e-05 2.0737050404879700e-07 0.0000000000000000e+00  3.7268785738646297e-05 2.8602924583204951e-07 0.0000000000000000e+00  4.8236337354105226e-05 3.7279864096389866e-07 0.0000000000000000e+00  6.0222612272083213e-05 4.6951180214638990e-07 0.0000000000000000e+00  7.3322474745150391e-05 5.7768553690140191e-07 0.0000000000000000e+00  8.7536175449405286e-05 6.9822076732015790e-07 0.0000000000000000e+00  1.0272224213162603e-04 8.3087974245187128e-07 0.0000000000000000e+00  1.1853434321287538e-04 9.7336775144725635e-07 0.0000000000000000e+00  1.3433972609893906e-04 1.1197022605578775e-06 0.0000000000000000e+00  1.4911707963343506e-04 1.2573702871974780e-06 0.0000000000000000e+00  1.6132901291899718e-04 1.3630043452960957e-06 0.0000000000000000e+00  1.6874413945348408e-04 1.3998039141618055e-06 0.0000000000000000e+00  1.6807037194624665e-04 1.3422494930501968e-06 0.0000000000000000e+00  1.5365703381514743e-04 1.3761581442888906e-06 0.0000000000000000e+00  0.0000000000000000e+00 0.0000000000000000e+00 0.0000000000000000e+00  1.2833071560729943e-05 9.7002206768066068e-08 0.0000000000000000e+00  2.6015271792507348e-05 1.9705912748553925e-07 0.0000000000000000e+00  3.9894571718396042e-05 3.0327014070929922e-07 0.0000000000000000e+00  5.4805588984677058e-05 4.1874390318020142e-07 0.0000000000000000e+00  7.1057060706383653e-05 5.4656284720281960e-07 0.0000000000000000e+00  8.8911467095604819e-05 6.8968995663922520e-07 0.0000000000000000e+00  1.0855333060904790e-04 8.5078477117602456e-07 0.0000000000000000e+00  1.3004213222789278e-04 1.0318792318602509e-06 0.0000000000000000e+00  1.5324530108528148e-04 1.2338323319266153e-06 0.0000000000000000e+00  1.7774652490999579e-04 1.4554131052460968e-06 0.0000000000000000e+00  2.0272477837980345e-04 1.6916962421892187e-06 0.0000000000000000e+00  2.2679952494709946e-04 1.9310419112746402e-06 0.0000000000000000e+00  2.4783536250661936e-04 2.1488188352998356e-06 0.0000000000000000e+00  2.6268866414744403e-04 2.2924610220222743e-06 0.0000000000000000e+00  2.6684844153036747e-04 2.2376945806018173e-06 0.0000000000000000e+00  2.5389771175744568e-04 1.6208058834665848e-06 0.0000000000000000e+00  0.0000000000000000e+00 0.0000000000000000e+00 0.0000000000000000e+00  1.6559264268183713e-05 1.2449310228717141e-07 0.0000000000000000e+00  3.3593707116193739e-05 2.5304821951850789e-07 0.0000000000000000e+00  5.1579901430017506e-05 3.8980658840783994e-07 0.0000000000000000e+00  7.0984368746875303e-05 5.3897870209658259e-07 0.0000000000000000e+00  9.2251510303635511e-05 7.0483799760682816e-07 0.0000000000000000e+00  1.1578189992278869e-04 8.9165668789512544e-07 0.0000000000000000e+00  1.4189638415224932e-04 1.1035557521748275e-06 0.0000000000000000e+00  1.7078042624886879e-04 1.3442372169272735e-06 0.0000000000000000e+00  2.0240216277201220e-04 1.6165662515550054e-06 0.0000000000000000e+00  2.3639704888190710e-04 1.9219689089531292e-06 0.0000000000000000e+00  2.7191224202807740e-04 2.2595755458911931e-06 0.0000000000000000e+00  3.0740564010262972e-04 2.6248456263504349e-06 0.0000000000000000e+00  3.4039861701616684e-04 3.0066985185070012e-06 0.0000000000000000e+00  3.6719039327391076e-04 3.3801652418412696e-06 0.0000000000000000e+00  3.8256617847459311e-04 3.6876937530005912e-06 0.0000000000000000e+00  3.7961173318324347e-04 3.8048007478009521e-06 0.0000000000000000e+00  0.0000000000000000e+00 0.0000000000000000e+00 0.0000000000000000e+00  1.9802481001273772e-05 1.4786414828190738e-07 0.0000000000000000e+00  4.0209800083308519e-05 3.0075485945147554e-07 0.0000000000000000e+00  6.1832905004468000e-05 4.6382360827281708e-07 0.0000000000000000e+00  8.5281875659240280e-05 6.4238560566731073e-07 0.0000000000000000e+00  1.1115799846263392e-04 8.4196525601904904e-07 0.0000000000000000e+00  1.4003528808735423e-04 1.0682888336809574e-06 0.0000000000000000e+00  1.7242599619143187e-04 1.3272002198410898e-06 0.0000000000000000e+00  2.0872302359783591e-04 1.6244819849213314e-06 0.0000000000000000e+00  2.4911036300113645e-04 1.9655983655815476e-06 0.0000000000000000e+00  2.9343118785892463e-04 2.3554742191780890e-06 0.0000000000000000e+00  3.4100284288222211e-04 2.7986385649519862e-06 0.0000000000000000e+00  3.9037033261676206e-04 3.3004364798433704e-06 0.0000000000000000e+00  4.3899759686762840e-04 3.8704705669527086e-06 0.0000000000000000e+00  4.8291369534860277e-04 4.5295138464811927e-06 0.0000000000000000e+00  5.1636872028386674e-04 5.3196803567295948e-06 0.0000000000000000e+00  5.3163175523720835e-04 6.3127458466890505e-06 0.0000000000000000e+00  0.0000000000000000e+00 0.0000000000000000e+00 0.0000000000000000e+00  2.2432929859588723e-05 1.6615097949446686e-07 0.0000000000000000e+00  4.5599301353236603e-05 3.3820402076321466e-07 0.0000000000000000e+00  7.0245613561003737e-05 5.2224067804250572e-07 0.0000000000000000e+00  9.7132963240139823e-05 7.2463172930330484e-07 0.0000000000000000e+00  1.2703742852099829e-04 9.5215524953780297e-07 0.0000000000000000e+00  1.6074026576010238e-04 1.2120700500401498e-06 0.0000000000000000e+00  1.9900193097424981e-04 1.5121148562629137e-06 0.0000000000000000e+00  2.4251152068901683e-04 1.8604020389537498e-06 0.0000000000000000e+00  2.9180018047304904e-04 2.2652082096768301e-06 0.0000000000000000e+00  3.4710371035967600e-04 2.7348059436606075e-06 0.0000000000000000e+00  4.0815697136099702e-04 3.2778988661205153e-06 0.0000000000000000e+00  4.7390277049523077e-04 3.9062391440799723e-06 0.0000000000000000e+00  5.4210407512008275e-04 4.6430873773390147e-06 0.0000000000000000e+00  6.0886511912958694e-04 5.5445242165805612e-06 0.0000000000000000e+00  6.6809711097391309e-04 6.7435574425240657e-06 0.0000000000000000e+00  7.1100249463267539e-04 8.5213294712427943e-06 0.0000000000000000e+00  0.0000000000000000e+00 0.0000000000000000e+00 0.0000000000000000e+00  2.4322558010967218e-05 1.7848367158519812e-07 0.0000000000000000e+00  4.9498460612860732e-05 3.6359497557716723e-07 0.0000000000000000e+00  7.6403015945124514e-05 5.6220032203549152e-07 0.0000000000000000e+00  1.0594742162956379e-04 7.8160396062377595e-07 0.0000000000000000e+00  1.3909167093031542e-04 1.0297590414676179e-06 0.0000000000000000e+00  1.7684937212055659e-04 1.3154511269149357e-06 0.0000000000000000e+00  2.2027867311837736e-04 1.6484120827440521e-06 0.0000000000000000e+00  2.7045023743658563e-04 2.0392854127779084e-06 0.0000000000000000e+00  3.2837859491172789e-04 2.4993242699352393e-06 0.0000000000000000e+00  3.9489715524177919e-04 3.0397232463370816e-06 0.0000000000000000e+00  4.7045034854847201e-04 3.6707836517106396e-06 0.0000000000000000e+00  5.5477079558498006e-04 4.4023006978568201e-06 0.0000000000000000e+00  6.4640942819937366e-04 5.2500537313800483e-06 0.0000000000000000e+00  7.4209800685719879e-04 6.2616301694669794e-06 0.0000000000000000e+00  8.3594698482635410e-04 7.5907075617922390e-06 0.0000000000000000e+00  9.1849038997873290e-04 9.6699399232059667e-06 0.0000000000000000e+00  0.0000000000000000e+00 0.0000000000000000e+00 0.0000000000000000e+00  2.5352708074457988e-05 1.8414742572651662e-07 0.0000000000000000e+00  5.1659606719169874e-05 3.7542712069374598e-07 0.0000000000000000e+00  7.9907023575663129e-05 5.8126699974202181e-07 0.0000000000000000e+00  1.1114273989198210e-04 8.0968929372820108e-07 0.0000000000000000e+00  1.4650503215495714e-04 1.0696328462549834e-06 0.0000000000000000e+00  1.8724784296759436e-04 1.3712882325986202e-06 0.0000000000000000e+00  2.3475759381869649e-04 1.7264051961147210e-06 0.0000000000000000e+00  2.9055336466336286e-04 2.1484500093765206e-06 0.0000000000000000e+00  3.5625608296857873e-04 2.6523169222393950e-06 0.0000000000000000e+00  4.3350316760286931e-04 3.2529819726525091e-06 0.0000000000000000e+00  5.2377237232469444e-04 3.9620645296097580e-06 0.0000000000000000e+00  6.2806371321075922e-04 4.7812133874041665e-06 0.0000000000000000e+00  7.4637695202676188e-04 5.6935448216812750e-06 0.0000000000000000e+00  8.7692677410438973e-04 6.6648889883604089e-06 0.0000000000000000e+00  1.0150727745100474e-03 7.6982351053552363e-06 0.0000000000000000e+00  1.1519789021720917e-03 9.0552469503612278e-06 0.0000000000000000e+00  0.0000000000000000e+00 0.0000000000000000e+00 0.0000000000000000e+00  2.5424386133343466e-05 1.8265254958502424e-07 0.0000000000000000e+00  5.1872483469700364e-05 3.7264824102059790e-07 0.0000000000000000e+00  8.0410434641302845e-05 5.7766898100126051e-07 0.0000000000000000e+00  1.1219285895280519e-04 8.0612777871947706e-07 0.0000000000000000e+00  1.4851017309278978e-04 1.0676072786600545e-06 0.0000000000000000e+00  1.9083847048172569e-04 1.3733859965519735e-06 0.0000000000000000e+00  2.4089034579670977e-04 1.7370607187790377e-06 0.0000000000000000e+00  3.0066150923441378e-04 2.1751919606185386e-06 0.0000000000000000e+00  3.7246143051508662e-04 2.7076464128023189e-06 0.0000000000000000e+00  4.5890460273001878e-04 3.3566327786916620e-06 0.0000000000000000e+00  5.6281992461383243e-04 4.1418258980201963e-06 0.0000000000000000e+00  6.8700787169631117e-04 5.0657442414064779e-06 0.0000000000000000e+00  8.3374329847278649e-04 6.0787659867749024e-06 0.0000000000000000e+00  1.0039088086996541e-03 7.0122229882822317e-06 0.0000000000000000e+00  1.1957107458343819e-03 7.4947534302939404e-06 0.0000000000000000e+00  1.4031727570450239e-03 6.9827790015415266e-06 0.0000000000000000e+00  0.0000000000000000e+00 0.0000000000000000e+00 0.0000000000000000e+00  2.4470317036605476e-05 1.7380534922218429e-07 0.0000000000000000e+00  4.9989751984222374e-05 3.5480975567569030e-07 0.0000000000000000e+00  7.7658704331748789e-05 5.5056557416913016e-07 0.0000000000000000e+00  1.0869050054502773e-04 7.6943266052932750e-07 0.0000000000000000e+00  1.4447665893978912e-04 1.0211034464422171e-06 0.0000000000000000e+00  1.8666289210731384e-04 1.3173101405973306e-06 0.0000000000000000e+00  2.3723882700932050e-04 1.6728325233730541e-06 0.0000000000000000e+00  2.9864248585309577e-04 2.1069536109124823e-06 0.0000000000000000e+00  3.7387555293634045e-04 2.6454322343772934e-06 0.0000000000000000e+00  4.6661416488548679e-04 3.3225271423680214e-06 0.0000000000000000e+00  5.8127706734512909e-04 4.1805522754977369e-06 0.0000000000000000e+00  7.2297124655164985e-04 5.2580203491001510e-06 0.0000000000000000e+00  8.9717021438953269e-04 6.5402630578171632e-06 0.0000000000000000e+00  1.1089108384893830e-03 7.8090081742709467e-06 0.0000000000000000e+00  1.3613242006790048e-03 8.2763166711376038e-06 0.0000000000000000e+00  1.6537050764236811e-03 5.9117235122992434e-06 0.0000000000000000e+00  0.0000000000000000e+00 0.0000000000000000e+00 0.0000000000000000e+00  2.2467393539683206e-05 1.5776658572722272e-07 0.0000000000000000e+00  4.5953828605709110e-05 3.2220135934737601e-07 0.0000000000000000e+00  7.1535210109137268e-05 5.0029872291393873e-07 0.0000000000000000e+00  1.0041737971428439e-04 6.9983449451688008e-07 0.0000000000000000e+00  1.3401558295582670e-04 9.2989502375477309e-07 0.0000000000000000e+00  1.7405332607945502e-04 1.2016444149758711e-06 0.0000000000000000e+00  2.2268950643391115e-04 1.5295655835157674e-06 0.0000000000000000e+00  2.8268408644413614e-04 1.9336468044069709e-06 0.0000000000000000e+00  3.5761242407208072e-04 2.4434263380005279e-06 0.0000000000000000e+00  4.5213318334788024e-04 3.1054656825105732e-06 0.0000000000000000e+00  5.7229677124514286e-04 3.9961082766193951e-06 0.0000000000000000e+00  7.2583520259828286e-04 5.2379719383831555e-06 0.0000000000000000e+00  9.2227602585188701e-04 6.9981618430052532e-06 0.0000000000000000e+00  1.1725571807751614e-03 9.3649604213469646e-06 0.0000000000000000e+00  1.4877041352387339e-03 1.1762586291837995e-05 0.0000000000000000e+00  1.8769166929030810e-03 1.1425533694573308e-05 0.0000000000000000e+00  0.0000000000000000e+00 0.0000000000000000e+00 0.0000000000000000e+00  1.9447615987848093e-05 1.3508016365672614e-07 0.0000000000000000e+00  3.9821045045073239e-05 2.7592460585560680e-07 0.0000000000000000e+00  6.2103505593672545e-05 4.2855361623423468e-07 0.0000000000000000e+00  8.7412838748718126e-05 5.9962384850451945e-07 0.0000000000000000e+00  1.1708755769504450e-04 7.9683922827917797e-07 0.0000000000000000e+00  1.5279927192510015e-04 1.0295394359818491e-06 0.0000000000000000e+00  1.9670627814590707e-04 1.3096958326539529e-06 0.0000000000000000e+00  2.5166917014894419e-04 1.6538998424903243e-06 0.0000000000000000e+00  3.2155746413815156e-04 2.0878652017868477e-06 0.0000000000000000e+00  4.1168508371475492e-04 2.6573638595226194e-06 0.0000000000000000e+00  5.2941600685244808e-04 3.4552931484873263e-06 0.0000000000000000e+00  6.8496049593383293e-04 4.6866844969339208e-06 0.0000000000000000e+00  8.9228813366006574e-04 6.8094405904416070e-06 0.0000000000000000e+00  1.1698135243434242e-03 1.0750612537090325e-05 0.0000000000000000e+00  1.5399461948323106e-03 1.7655761788510568e-05 0.0000000000000000e+00  2.0268568102598892e-03 2.3240268174547691e-05 0.0000000000000000e+00  0.0000000000000000e+00 0.0000000000000000e+00 0.0000000000000000e+00  1.5505322192259100e-05 1.0665651037144573e-07 0.0000000000000000e+00  3.1778329102482184e-05 2.1786394315025846e-07 0.0000000000000000e+00  4.9638339512997592e-05 3.3833383612908833e-07 0.0000000000000000e+00  7.0027980671219441e-05 4.7318688484543882e-07 0.0000000000000000e+00  9.4094777514187918e-05 6.2814738890247583e-07 0.0000000000000000e+00  1.2330181478966264e-04 8.0972033604176066e-07 0.0000000000000000e+00  1.5958594943600289e-04 1.0253504535068399e-06 0.0000000000000000e+00  2.0559249126206271e-04 1.2836723433793035e-06 0.0000000000000000e+00  2.6503269680691339e-04 1.5954940540270329e-06 0.0000000000000000e+00  3.4323880445727152e-04 1.9783170435785356e-06 0.0000000000000000e+00  4.4803502618753061e-04 2.4752815459318668e-06 0.0000000000000000e+00  5.9110006865058630e-04 3.2283624655816435e-06 0.0000000000000000e+00  7.9003116830233925e-04 4.7460571854332940e-06 0.0000000000000000e+00  1.0711585152993156e-03 8.8489860520083188e-06 0.0000000000000000e+00  1.4721007409664970e-03 2.2011409219609303e-05 0.0000000000000000e+00  2.0360370999552963e-03 6.8955781220694017e-05 0.0000000000000000e+00  0.0000000000000000e+00 0.0000000000000000e+00 0.0000000000000000e+00  1.0798599805431347e-05 7.3707149148399071e-08 0.0000000000000000e+00  2.2147629747595508e-05 1.5053958121534975e-07 0.0000000000000000e+00  3.4636773415092236e-05 2.3369561078313206e-07 0.0000000000000000e+00  4.8950597959932739e-05 3.2656011539807063e-07 0.0000000000000000e+00  6.5932955708877575e-05 4.3269350321183367e-07 0.0000000000000000e+00  8.6676742013872473e-05 5.5559724365621472e-07 0.0000000000000000e+00  1.1265650766963585e-04 6.9792541441640128e-07 0.0000000000000000e+00  1.4593315148047478e-04 8.5934849231701257e-07 0.0000000000000000e+00  1.8948157423889146e-04 1.0311861170488216e-06 0.0000000000000000e+00  2.4773302554252408e-04 1.1834732182511415e-06 0.0000000000000000e+00  3.2750320852263946e-04 1.2352330723142509e-06 0.0000000000000000e+00  4.3963745128544667e-04 9.9242439913514126e-07 0.0000000000000000e+00  6.0204800102310726e-04 5.0049118217304269e-08 0.0000000000000000e+00  8.4562811241798992e-04 -2.1924717877789396e-06 0.0000000000000000e+00  1.2266671110413119e-03 -5.3914330271143141e-06 0.0000000000000000e+00  1.8563148196255764e-03 -1.2004251116917183e-06 0.0000000000000000e+00  0.0000000000000000e+00 0.0000000000000000e+00 0.0000000000000000e+00  5.5433954389201936e-06 3.7647350370129276e-08 0.0000000000000000e+00  1.1374527619639368e-05 7.6879818427931897e-08 0.0000000000000000e+00  1.7802408450960517e-05 1.1930288758370595e-07 0.0000000000000000e+00  2.5187833506185886e-05 1.6657181660015899e-07 0.0000000000000000e+00  3.3979096534917532e-05 2.2031258379252886e-07 0.0000000000000000e+00  4.4762609882916131e-05 2.8180937202128324e-07 0.0000000000000000e+00  5.8339206605887778e-05 3.5107357633400672e-07 0.0000000000000000e+00  7.5844718305405446e-05 4.2424231332822581e-07 0.0000000000000000e+00  9.8948312078343258e-05 4.8632000984088366e-07 0.0000000000000000e+00  1.3019065541202549e-04 4.9042195848087715e-07 0.0000000000000000e+00  1.7357772796028863e-04 2.9620207489137372e-07 0.0000000000000000e+00  2.3563526704386124e-04 -5.2028388313419861e-07 0.0000000000000000e+00  3.2719654335214342e-04 -3.2743502499410585e-06 0.0000000000000000e+00  4.6569343168522483e-04 -1.2135772776187476e-05 0.0000000000000000e+00  6.7340706863977886e-04 -4.0026841042669244e-05 0.0000000000000000e+00  9.4704475358530296e-04 -1.1991775855741141e-04 0.0000000000000000e+00  0.0000000000000000e+00 0.0000000000000000e+00 0.0000000000000000e+00  0.0000000000000000e+00 0.0000000000000000e+00 0.0000000000000000e+00  0.0000000000000000e+00 0.0000000000000000e+00 0.0000000000000000e+00  0.0000000000000000e+00 0.0000000000000000e+00 0.0000000000000000e+00  0.0000000000000000e+00 0.0000000000000000e+00 0.0000000000000000e+00  0.0000000000000000e+00 0.0000000000000000e+00 0.0000000000000000e+00  0.0000000000000000e+00 0.0000000000000000e+00 0.0000000000000000e+00  0.0000000000000000e+00 0.0000000000000000e+00 0.0000000000000000e+00  0.0000000000000000e+00 0.0000000000000000e+00 0.0000000000000000e+00  0.0000000000000000e+00 0.0000000000000000e+00 0.0000000000000000e+00  0.0000000000000000e+00 0.0000000000000000e+00 0.0000000000000000e+00  0.0000000000000000e+00 0.0000000000000000e+00 0.0000000000000000e+00  0.0