<?xml version="1.0"?>
<VTKFile type="UnstructuredGrid"  version="0.1"  >
<UnstructuredGrid>
<Piece  NumberOfPoints="289" NumberOfCells="512">
<Points>
<DataArray  type="Float64"  NumberOfComponents="3"  format="ascii">0 0 0  0.0625 0 0  0.125 0 0  0.1875 0 0  0.25 0 0  0.3125 0 0  0.375 0 0  0.4375 0 0  0.5 0 0  0.5625 0 0  0.625 0 0  0.6875 0 0  0.75 0 0  0.8125 0 0  0.875 0 0  0.9375 0 0  1 0 0  0 0.0625 0  0.06248309406482865 0.06249454181907581 0  0.124965430959088 0.06248898938706771 0  0.187446209962937 0.06248325750564161 0  0.2499245470445384 0.06247728107981492 0  0.3123994273024852 0.06247102769745725 0  0.3748696495620248 0.06246451268514202 0  0.4373337576661852 0.06245781619157185 0  0.4997899464325961 0.0624511000959914 0  0.5622359115093288 0.06244461943365463 0  0.6246685587149786 0.06243871788459865 0  0.6870833308780285 0.06243378893942115 0  0.7494724245321756 0.06243017341323218 0  0.811819566855608 0.06242795345261463 0  0.8740833056166194 0.06242661987337302 0  0.9361387547499466 0.06242483541996027 0  0.9975587474988765 0.06242296157918206 0  0 0.125 0  0.06246693986087799 0.1249891779097795 0  0.1249324097552126 0.1249781577189617 0  0.1873948571482574 0.1249667583718058 0  0.2498525715796321 0.1249548370076349 0  0.3123035962880416 0.1249423136550757 0  0.374745628640918 0.1249292018313576 0  0.4371759043552355 0.1249156450136889 0  0.4995910562943159 0.1249019559920889 0  0.5619869257179493 0.1248886506466588 0  0.624358267977857 0.124876458287 0  0.6866982020381898 0.1248662755888867 0  0.7489970334411828 0.1248590084948911 0  0.8112396412755979 0.1248552134185472 0  0.8734002270335102 0.1248543881546507 0  0.9354364736347961 0.1248535120986345 0  0.9973183836310917 0.1248425290643078 0  0 0.1875 0  0.06245225890696861 0.1874840126520225 0  0.1249024154408945 0.1874677053338105 0  0.1873482519679268 0.1874507808300013 0  0.2497873293830378 0.1874329937514299 0  0.3122168650722876 0.1874141859198069 0  0.3746335993931502 0.1873943326035021 0  0.4370336501879929 0.1873736015142247 0  0.4994123586590775 0.1873524233796109 0  0.5617641358701153 0.1873315665642218 0  0.6240823288256008 0.187312196333804 0  0.686359145984872 0.1872958786636474 0  0.7485857492406289 0.1872844544908316 0  0.810752881735872 0.1872796565590067 0  0.8728534262851008 0.1872822573961899 0  0.9348919325989892 0.187290431039134 0  0.9969163843265049 0.1872972954901855 0  0 0.25 0  0.06243969305519483 0.249979168409467 0  0.1248767625159952 0.2499578708992552 0  0.1873084442646896 0.249935666264121 0  0.2497317012758979 0.2499121711691356 0  0.3121430737775046 0.2498871030127276 0  0.374538517047448 0.2498603399824673 0  0.4369132301096946 0.2498320039769423 0  0.4992614892852085 0.2498025703774949 0  0.5615765213480267 0.2497730037839898 0  0.6238504913254745 0.2497449077424102 0  0.6860747594862828 0.2497206542183316 0  0.7482407247134288 0.2497034175045045 0  0.8103419168337009 0.2496969669163829 0  0.8723787344513618 0.2497049623555819 0  0.9343686094698184 0.2497293506962286 0  0.9963657437315203 0.2497673146421418 0  0 0.3125 0  0.06242977044044694 0.3124747915145517 0  0.1248565320199678 0.312448944891506 0  0.1872771184527602 0.3124218433073959 0  0.2496880525066392 0.3123929226329076 0  0.3120853733687708 0.3123617158959453 0  0.3744644471267051 0.3123279216213686 0  0.4368197628271366 0.3122915069995639 0  0.4991447290106725 0.3122528583752188 0  0.5614315101073845 0.3122129912756573 0  0.6236709881886678 0.3121738268783513 0  0.6858530191045388 0.3121385251283121 0  0.7479672977529506 0.3121118253030045 0  0.8100053896998847 0.3121002647348757 0  0.8719648555379068 0.3121120041425683 0  0.9338568279875367 0.3121557777033923 0  0.9957184174564651 0.3122382655988825 0  0 0.375 0  0.0624228777581981 0.3749710543801678 0  0.124842515157382 0.3749412754689989 0  0.1872555070713597 0.3749098411050025 0  0.2496581156112935 0.3748759619694663 0  0.3120460810500195 0.3748389185919992 0  0.3744144072881088 0.3747981272133508 0  0.4367571182664898 0.3747532511290673 0  0.499066990592782 0.374704380548055 0  0.5613352860851811 0.3746523117081103 0  0.6235515429354961 0.3745989628550019 0  0.6857035453392238 0.3745479646242784 0  0.7477776896783872 0.374505440875508 0  0.8097601091034519 0.3744809230614823 0  0.87163910511638 0.374488164249367 0  0.9334096325188349 0.3745452720678423 0  0.9950806944936614 0.3746730548966888 0  0 0.4375 0  0.06241924067301256 0.4374681521050597 0  0.1248351725895937 0.4374352631420639 0  0.1872443259059073 0.4374002854933846 0  0.2496428968253098 0.4373621677663325 0  0.3120265522865556 0.4373198724463213 0  0.3743901991030876 0.4372724229113828 0  0.4367277047220007 0.4372190004745979 0  0.4990315588050382 0.437159124056259 0  0.5612924722521236 0.4370929631772305 0  0.6234989279273412 0.4370218604192972 0  0.6856367313986369 0.436949170598556 0  0.7476886657564942 0.4368815492324769 0  0.8096344316459905 0.4368308055471852 0  0.8714511418143457 0.4368162828628637 0  0.9331147315763361 0.4368672581838921 0  0.9946028250816463 0.4370238144883138 0  0 0.5 0  0.06241891452084109 0.4999662921347924 0  0.1248346137579393 0.4999313408245262 0  0.187243737210729 0.4998938715236044 0  0.2496426143895772 0.4998525532761427 0  0.3120270785652588 0.4998059839131036 0  0.3743922378543296 0.4997526978623493 0  0.4367321819976026 0.499691216992735 0  0.4990395977912071 0.4996201809704452 0  0.5613052623622242 0.4995386213365657 0  0.6235173861465344 0.4994464900631231 0  0.6856607942143496 0.499345628020988 0  0.7477159725718404 0.4992414682815254 0  0.809658057476957 0.4991458978877781 0  0.8714558557592946 0.4990817524553419 0  0.9330708194770962 0.4990890750840308 0  0.9944554688409331 0.4992318123057802 0  0 0.5625 0  0.06242178760309133 0.5624656762671141 0  0.124840601521532 0.5624299372108578 0  0.1872533508396939 0.5623913074557564 0  0.2496566859051975 0.562348191475437 0  0.3120468404755233 0.5622988150903905 0  0.3744194318977233 0.5622411739997667 0  0.4367691931144519 0.5621730027680634 0  0.4990895990887771 0.5620917935786649 0  0.5613723383590353 0.5619949250934534 0  0.6236065757307256 0.5618800217557355 0  0.6857779725065172 0.5617457785522281 0  0.7478675042537761 0.5615937001881065 0  0.8098502547002346 0.561431579873655 0  0.8716944551748533 0.5612801105493767 0  0.9333605870085776 0.5611845220999132 0  0.9947982059894379 0.5612323115570013 0  0 0.625 0  0.06242759868405768 0.6249664756439336 0  0.1248525864947563 0.6249314242396887 0  0.1872722731234717 0.624893229787108 0  0.2496837851022911 0.6248500908920829 0  0.3120839560963233 0.6247999132929359 0  0.3744691871967685 0.6247401860330835 0  0.436835253780873 0.6246678401112122 0  0.4991770216058678 0.6245790973759947 0  0.5614880187130316 0.6244693391160981 0  0.6237598041775332 0.6243330745453796 0  0.6859811187914115 0.6241642066948195 0  0.7481369872370575 0.6239570641132897 0  0.8102084146180119 0.6237092881036013 0  0.8721741282325182 0.6234290301284858 0  0.9340161625260789 0.6231514779723294 0  0.9957277493688887 0.6229722582061419 0  0 0.6875 0  0.06243596842656388 0.6874688012419049 0  0.1248697717755876 0.6874360535286106 0  0.1872992080299269 0.6874000960460038 0  0.2497219820322861 0.6873590292191459 0  0.3121356583604975 0.6873105629811445 0  0.37453760787948 0.6872518220363457 0  0.4369249363809019 0.6871790870946494 0  0.4992943714803069 0.687087446260748 0  0.5616420669775004 0.6869703281876786 0  0.623963275282424 0.6868188969109599 0  0.6862518959553801 0.6866213342126225 0  0.7485002203861765 0.6863622037176155 0  0.8107002601026124 0.6860226584310495 0  0.8728508494075436 0.6855841193058132 0  0.9349797129551416 0.6850438501269761 0  0.9971902567286294 0.6844644526208734 0  0 0.75 0  0.06244644155767604 0.7499726743795414 0  0.1248912023847058 0.7499438913148022 0  0.1873326043752281 0.7499120708116099 0  0.2497689640966984 0.7498753671048392 0  0.3121986107919277 0.7498314895515509 0  0.3746199293045083 0.7497774582158583 0  0.4370314367451668 0.7497092539303364 0  0.4994318975146224 0.7496213015826192 0  0.5618204693885717 0.7495056908486445 0  0.6241968542888215 0.7493509816527028 0  0.6865614379912451 0.7491403473657079 0  0.7489156522805085 0.7488486611235328 0  0.8112641597719937 0.7484379828665795 0  0.8736260351792438 0.7478513868135068 0  0.9360801387720916 0.7470106081665405 0  0.9989005275668508 0.7458625736500646 0  0 0.8125 0  0.06245853326408451 0.8124780032711286 0  0.1249158661243989 0.8124547651906979 0  0.1873708287543406 0.8124289281660225 0  0.2498223112450152 0.8123988797174607 0  0.3122693321351167 0.8123625737171872 0  0.3747111608691586 0.8123172767318727 0  0.4371475270891938 0.8122591884552974 0  0.4995789614541638 0.8121828528799852 0  0.5620073206189053 0.8120802189390569 0  0.6244365348911358 0.8119391019323858 0  0.6868735419491769 0.8117405841250772 0  0.7493292112353123 0.8114544259178671 0  0.8118192296036464 0.8110304050233359 0  0.8743690250753574 0.8103803669504399 0  0.9370582450619532 0.8093372090031549 0  1.000344672675418 0.8075604221281907 0  0 0.875 0  0.06247177087123387 0.8749845719543522 0  0.1249427862917061 0.8749682370461694 0  0.1874123306495828 0.8749499971033182 0  0.2498797730353484 0.8749286522344942 0  0.3123446539145305 0.8749026555218004 0  0.374806838038272 0.8748699015710047 0  0.437266782423517 0.8748274013532206 0  0.4997259982350303 0.8747707632129631 0  0.5621878284835437 0.8746933409017128 0  0.6246587062164669 0.8745848008397205 0  0.6871500239449175 0.8744286521745157 0  0.7496803251568297 0.8741978394454876 0  0.8122755981725782 0.8738463403824187 0  0.8749582017317088 0.8732907637186441 0  0.9376919783284192 0.8723591719964177 0  1.000222453390182 0.8705965203314699 0  0 0.9375 0  0.06248572159557334 0.9374920464734484 0  0.1249710848623079 0.9374836137466919 0  0.1874557595668563 0.9374741722738518 0  0.2499394770996208 0.9374630807891573 0  0.3124220924996621 0.9374495045195623 0  0.3749036951753998 0.9374322943603559 0  0.437384808626
[...]
<PointData  Vectors="f_54"> 
<DataArray  type="Float64"  Name="f_54"  NumberOfComponents="3" format="ascii">0.0000000000000000e+00 0.0000000000000000e+00 0.0000000000000000e+00  0.0000000000000000e+00 0.0000000000000000e+00 0.0000000000000000e+00  0.0000000000000000e+00 0.0000000000000000e+00 0.0000000000000000e+00  0.0000000000000000e+00 0.0000000000000000e+00 0.0000000000000000e+00  0.0000000000000000e+00 0.0000000000000000e+00 0.0000000000000000e+00  0.0000000000000000e+00 0.0000000000000000e+00 0.0000000000000000e+00  0.0000000000000000e+00 0.0000000000000000e+00 0.0000000000000000e+00  0.0000000000000000e+00 0.0000000000000000e+00 0.0000000000000000e+00  0.0000000000000000e+00 0.0000000000000000e+00 0.0000000000000000e+00  0.0000000000000000e+00 0.0000000000000000e+00 0.0000000000000000e+00  0.0000000000000000e+00 0.0000000000000000e+00 0.0000000000000000e+00  0.0000000000000000e+00 0.0000000000000000e+00 0.0000000000000000e+00  0.0000000000000000e+00 0.0000000000000000e+00 0.0000000000000000e+00  0.0000000000000000e+00 0.0000000000000000e+00 0.0000000000000000e+00  0.0000000000000000e+00 0.0000000000000000e+00 0.0000000000000000e+00  0.0000000000000000e+00 0.0000000000000000e+00 0.0000000000000000e+00  0.0000000000000000e+00 0.0000000000000000e+00 0.0000000000000000e+00  0.0000000000000000e+00 0.0000000000000000e+00 0.0000000000000000e+00  4.7718449742791851e-06 -4.1185999359948708e-08 0.0000000000000000e+00  9.6725400379714845e-06 -8.2163352180450178e-08 0.0000000000000000e+00  1.4829417038274655e-05 -1.2251396581643215e-07 0.0000000000000000e+00  2.0364419527829191e-05 -1.6136765033839161e-07 0.0000000000000000e+00  2.6389163475364963e-05 -1.9713067338410403e-07 0.0000000000000000e+00  3.2997079816949460e-05 -2.2717175469800068e-07 0.0000000000000000e+00  4.0251403504584608e-05 -2.4747847782854764e-07 0.0000000000000000e+00  4.8167673669951700e-05 -2.5233493894647308e-07 0.0000000000000000e+00  5.6689542825049862e-05 -2.3413691323900210e-07 0.0000000000000000e+00  6.5657508220280840e-05 -1.8356001487158892e-07 0.0000000000000000e+00  7.4772935036309984e-05 -9.0415027456822786e-08 0.0000000000000000e+00  8.3568465918080955e-05 5.4406720445609517e-08 0.0000000000000000e+00  9.1424957630288663e-05 2.5560197400456286e-07 0.0000000000000000e+00  9.7779604343293508e-05 5.0835404537348905e-07 0.0000000000000000e+00  1.0306860956118265e-04 7.8548290172065421e-07 0.0000000000000000e+00  1.1243850696361521e-04 9.6520236276019384e-07 0.0000000000000000e+00  0.0000000000000000e+00 0.0000000000000000e+00 0.0000000000000000e+00  9.4114250063593195e-06 -8.2551569060345547e-08 0.0000000000000000e+00  1.9082508888794285e-05 -1.6490139601761094e-07 0.0000000000000000e+00  2.9270648150663938e-05 -2.4644892139693117e-07 0.0000000000000000e+00  4.0224237442964297e-05 -3.2572662427081007e-07 0.0000000000000000e+00  5.2173850598973448e-05 -3.9986552383524501e-07 0.0000000000000000e+00  6.5317756733836670e-05 -4.6395691068287245e-07 0.0000000000000000e+00  7.9799270039894389e-05 -5.1031880413559085e-07 0.0000000000000000e+00  9.5673071456875482e-05 -5.2774167985684608e-07 0.0000000000000000e+00  1.1285749106865095e-04 -5.0091209018202448e-07 0.0000000000000000e+00  1.3107016667872362e-04 -4.1042313502993121e-07 0.0000000000000000e+00  1.4974609492405757e-04 -2.3408266855107837e-07 0.0000000000000000e+00  1.6794050356117095e-04 4.9512147655204639e-08 0.0000000000000000e+00  1.8422271655564403e-04 4.5472525020900493e-07 0.0000000000000000e+00  1.9655374895096754e-04 9.8452708234546201e-07 0.0000000000000000e+00  2.0199750609537862e-04 1.6586284327710887e-06 0.0000000000000000e+00  1.9522006105231467e-04 2.7305192543507281e-06 0.0000000000000000e+00  0.0000000000000000e+00 0.0000000000000000e+00 0.0000000000000000e+00  1.3787302178313400e-05 -1.2408412261818318e-07 0.0000000000000000e+00  2.7968471710354202e-05 -2.4838476194678570e-07 0.0000000000000000e+00  4.2935878516063209e-05 -3.7257285194207330e-07 0.0000000000000000e+00  5.9072750397987766e-05 -4.9511900303185737e-07 0.0000000000000000e+00  7.6742579485722663e-05 -6.1252115317899144e-07 0.0000000000000000e+00  9.6270509326844370e-05 -7.1833643116370106e-07 0.0000000000000000e+00  1.1791294787147163e-04 -8.0198809242370929e-07 0.0000000000000000e+00  1.4181085623775187e-04 -8.4738864084974219e-07 0.0000000000000000e+00  1.6792140884635325e-04 -8.3157399320851040e-07 0.0000000000000000e+00  1.9592223652397110e-04 -7.2385624261407639e-07 0.0000000000000000e+00  2.2508241837516688e-04 -4.8661175267855226e-07 0.0000000000000000e+00  2.5409426423281668e-04 -8.0005455319497999e-08 0.0000000000000000e+00  2.8085641190876438e-04 5.2455218808328358e-07 0.0000000000000000e+00  3.0218000265756691e-04 1.3108627487084346e-06 0.0000000000000000e+00  3.1332667028711770e-04 2.1294515471208786e-06 0.0000000000000000e+00  3.0717220441935685e-04 2.4124421302975425e-06 0.0000000000000000e+00  0.0000000000000000e+00 0.0000000000000000e+00 0.0000000000000000e+00  1.7764805287372590e-05 -1.6536038033883808e-07 0.0000000000000000e+00  3.6060860345164065e-05 -3.3191963738273181e-07 0.0000000000000000e+00  5.5420778006810175e-05 -5.0025388581208046e-07 0.0000000000000000e+00  7.6372767018638050e-05 -6.6954465420770550e-07 0.0000000000000000e+00  9.9431313266386739e-05 -8.3662817648248489e-07 0.0000000000000000e+00  1.2507818753033464e-04 -9.9472964985379996e-07 0.0000000000000000e+00  1.5372891385392437e-04 -1.1317752461163070e-06 0.0000000000000000e+00  1.8567847237922525e-04 -1.2282075734939123e-06 0.0000000000000000e+00  2.2101846618544468e-04 -1.2543380453883536e-06 0.0000000000000000e+00  2.5951648897544547e-04 -1.1675444530683075e-06 0.0000000000000000e+00  3.0044735068103550e-04 -9.1024890693524988e-07 0.0000000000000000e+00  3.4236555178499022e-04 -4.1094965141994180e-07 0.0000000000000000e+00  3.8280923442409007e-04 4.0671972854715168e-07 0.0000000000000000e+00  4.1792862829824641e-04 1.5969704022666133e-06 0.0000000000000000e+00  4.4204435195389018e-04 3.1303575759787416e-06 0.0000000000000000e+00  4.4720436303661383e-04 4.7894034266878778e-06 0.0000000000000000e+00  0.0000000000000000e+00 0.0000000000000000e+00 0.0000000000000000e+00  2.1206297879538076e-05 -2.0539343991313487e-07 0.0000000000000000e+00  4.3081850470054376e-05 -4.1361434434427648e-07 0.0000000000000000e+00  6.6302580519485906e-05 -6.2688873449913871e-07 0.0000000000000000e+00  9.1550537609474437e-05 -8.4605955054211226e-07 0.0000000000000000e+00  1.1950963512408140e-04 -1.0695694488822441e-06 0.0000000000000000e+00  1.5085113620685788e-04 -1.2920079950827864e-06 0.0000000000000000e+00  1.8620324341981053e-04 -1.5020095307659819e-06 0.0000000000000000e+00  2.2609712919092269e-04 -1.6792394726798557e-06 0.0000000000000000e+00  2.7087921605460261e-04 -1.7901771126899903e-06 0.0000000000000000e+00  3.2057670617154609e-04 -1.7824542994066294e-06 0.0000000000000000e+00  3.7470087567988966e-04 -1.5777881199725011e-06 0.0000000000000000e+00  4.3197182644446491e-04 -1.0643671372422917e-06 0.0000000000000000e+00  4.8995201427712754e-04 -9.1516953521357951e-08 0.0000000000000000e+00  5.4458996540802148e-04 1.5264998060510387e-06 0.0000000000000000e+00  5.8971394993790921e-04 3.9839147419417813e-06 0.0000000000000000e+00  6.1660958981509548e-04 7.4124271473721480e-06 0.0000000000000000e+00  0.0000000000000000e+00 0.0000000000000000e+00 0.0000000000000000e+00  2.3973762336612205e-05 -2.4255077923136766e-07 0.0000000000000000e+00  4.8750119523561417e-05 -4.9018550627481415e-07 0.0000000000000000e+00  7.5146099668713416e-05 -7.4753028247835772e-07 0.0000000000000000e+00  1.0400137880056569e-04 -1.0181055905402565e-06 0.0000000000000000e+00  1.3618322351587918e-04 -1.3034144952364012e-06 0.0000000000000000e+00  1.7258208644721056e-04 -1.6015199143896712e-06 0.0000000000000000e+00  2.1409201447956206e-04 -1.9047977023969998e-06 0.0000000000000000e+00  2.6156733866631763e-04 -2.1963998112078391e-06 0.0000000000000000e+00  3.1574341755068332e-04 -2.4447345406691073e-06 0.0000000000000000e+00  3.7710452130280177e-04 -2.5949543210154371e-06 0.0000000000000000e+00  4.4567672529725871e-04 -2.5560564259169705e-06 0.0000000000000000e+00  5.2071931714208169e-04 -2.1818964351721676e-06 0.0000000000000000e+00  6.0028783019657492e-04 -1.2447131298843848e-06 0.0000000000000000e+00  6.8065125332050465e-04 5.9778475926746770e-07 0.0000000000000000e+00  7.5557453351538981e-04 3.8318845317321427e-06 0.0000000000000000e+00  8.1553734915814128e-04 9.0774002056450650e-06 0.0000000000000000e+00  0.0000000000000000e+00 0.0000000000000000e+00 0.0000000000000000e+00  2.5934108440616563e-05 -2.7457316617075528e-07 0.0000000000000000e+00  5.2791408926220857e-05 -5.5697092942638656e-07 0.0000000000000000e+00  8.1519346806031501e-05 -8.5483416137894591e-07 0.0000000000000000e+00  1.1310977889610268e-04 -1.1752704464594575e-06 0.0000000000000000e+00  1.4861710002466485e-04 -1.5242654055532497e-06 0.0000000000000000e+00  1.8916976574463382e-04 -1.9056066085024183e-06 0.0000000000000000e+00  2.3597007623353867e-04 -2.3189650508394831e-06 0.0000000000000000e+00  2.9027389403692995e-04 -2.7565440512228506e-06 0.0000000000000000e+00  3.5333713964204582e-04 -3.1972988827387557e-06 0.0000000000000000e+00  4.2630897514783441e-04 -3.5970310900145778e-06 0.0000000000000000e+00  5.1004230602989050e-04 -3.8714721721227693e-06 0.0000000000000000e+00  6.0478111615708881e-04 -3.8675180194485032e-06 0.0000000000000000e+00  7.0967330053426541e-04 -3.3148475935950942e-06 0.0000000000000000e+00  8.2205140469538101e-04 -1.7467759251983287e-06 0.0000000000000000e+00  9.3642701461913922e-04 1.6211957288350047e-06 0.0000000000000000e+00  1.0431550490652135e-03 8.0518787198814466e-06 0.0000000000000000e+00  0.0000000000000000e+00 0.0000000000000000e+00 0.0000000000000000e+00  2.6967254014061800e-05 -2.9871935957968475e-07 0.0000000000000000e+00  5.4955088383646943e-05 -6.0820966924452961e-07 0.0000000000000000e+00  8.5019327732110215e-05 -9.3944520478601336e-07 0.0000000000000000e+00  1.1828534589708941e-04 -1.3037054899405498e-06 0.0000000000000000e+00  1.5598245824148635e-04 -1.7125316519034511e-06 0.0000000000000000e+00  1.9947647182527771e-04 -2.1773548303449655e-06 0.0000000000000000e+00  2.5029718501989580e-04 -2.7085033059938407e-06 0.0000000000000000e+00  3.1015442726305565e-04 -3.3130504746154505e-06 0.0000000000000000e+00  3.8093082456568220e-04 -3.9905071702245608e-06 0.0000000000000000e+00  4.6463068974866303e-04 -4.7244884270093494e-06 0.0000000000000000e+00  5.6325083099405834e-04 -5.4667872291938529e-06 0.0000000000000000e+00  6.7851942517558315e-04 -6.1069325421192500e-06 0.0000000000000000e+00  8.1142361944527928e-04 -6.4136686145296886e-06 0.0000000000000000e+00  9.6141878395501399e-04 -5.9220627598721540e-06 0.0000000000000000e+00  1.1251893243592226e-03 -3.7177402248148658e-06 0.0000000000000000e+00  1.2948091567231688e-03 1.9610033212186027e-06 0.0000000000000000e+00  0.0000000000000000e+00 0.0000000000000000e+00 0.0000000000000000e+00  2.6976562447412453e-05 -3.1204562523753419e-07 0.0000000000000000e+00  5.5035963948550386e-05 -6.3761809498437715e-07 0.0000000000000000e+00  8.5307093024427288e-05 -9.9089874994590300e-07 0.0000000000000000e+00  1.1901386779737161e-04 -1.3873767599949581e-06 0.0000000000000000e+00  1.5752721770588004e-04 -1.8445136803361791e-06 0.0000000000000000e+00  2.0242181629288644e-04 -2.3823715097943548e-06 0.0000000000000000e+00  2.5553769502253260e-04 -3.0240890210999697e-06 0.0000000000000000e+00  3.1904454294620133e-04 -3.7959405000063340e-06 0.0000000000000000e+00  3.9550182205087706e-04 -4.7264087817583941e-06 0.0000000000000000e+00  4.8789890883324820e-04 -5.8430848735165974e-06 0.0000000000000000e+00  5.9964336632388731e-04 -7.1648791916861765e-06 0.0000000000000000e+00  7.3443828549791818e-04 -8.6840079337669520e-06 0.0000000000000000e+00  8.9594819243172402e-04 -1.0324914263660569e-05 0.0000000000000000e+00  1.0871000755290827e-03 -1.1849025759128525e-05 0.0000000000000000e+00  1.3088221073775338e-03 -1.2629338001369759e-05 0.0000000000000000e+00  1.5580365398938660e-03 -1.1117190865905445e-05 0.0000000000000000e+00  0.0000000000000000e+00 0.0000000000000000e+00 0.0000000000000000e+00  2.5900690942276869e-05 -3.1180249113890637e-07 0.0000000000000000e+00  5.2899440999444302e-05 -6.3923267465174548e-07 0.0000000000000000e+00  8.2149253524512679e-05 -9.9901177465748796e-07 0.0000000000000000e+00  1.1491997865236706e-04 -1.4101655723782554e-06 0.0000000000000000e+00  1.5266658595868043e-04 -1.8954368635440352e-06 0.0000000000000000e+00  1.9710987058300944e-04 -2.4830285790797920e-06 0.0000000000000000e+00  2.5033432644025163e-04 -3.2088179699947703e-06 0.0000000000000000e+00  3.1490765488378946e-04 -4.1192045651259519e-06 0.0000000000000000e+00  3.9402450169858869e-04 -5.2747826581383665e-06 0.0000000000000000e+00  4.9167134850759166e-04 -6.7550761472941897e-06 0.0000000000000000e+00  6.1279585504778948e-04 -8.6646691821980156e-06 0.0000000000000000e+00  7.6343521882148732e-04 -1.1141173454748059e-05 0.0000000000000000e+00  9.5070455646554923e-04 -1.4364863293202541e-05 0.0000000000000000e+00  1.1824626658992327e-03 -1.8564011549020679e-05 0.0000000000000000e+00  1.4663868555717992e-03 -2.3979397725644349e-05 0.0000000000000000e+00  1.8082367352465596e-03 -3.0632843809386304e-05 0.0000000000000000e+00  0.0000000000000000e+00 0.0000000000000000e+00 0.0000000000000000e+00  2.3725375788490306e-05 -2.9589886807585410e-07 0.0000000000000000e+00  4.8506986602171758e-05 -6.0841627716194533e-07 0.0000000000000000e+00  7.5461133651161713e-05 -9.5560158175151338e-07 0.0000000000000000e+00  1.0583464390242272e-04 -1.3585934844812198e-06 0.0000000000000000e+00  1.4108488919249170e-04 -1.8436567851151908e-06 0.0000000000000000e+00  1.8297961987372158e-04 -2.4448982362761578e-06 0.0000000000000000e+00  2.3372652227564379e-04 -3.2080545771744389e-06 0.0000000000000000e+00  2.9614533430945853e-04 -4.1959412956007356e-06 0.0000000000000000e+00  3.7389866491505726e-04 -5.4965020849097932e-06 0.0000000000000000e+00  4.7180001199607040e-04 -7.2351027356980338e-06 0.0000000000000000e+00  5.9621513404408528e-04 -9.5943344642603799e-06 0.0000000000000000e+00  7.5555710365750751e-04 -1.2848806979155980e-05 0.0000000000000000e+00  9.6082845968974281e-04 -1.7434039233565177e-05 0.0000000000000000e+00  1.2260606059650903e-03 -2.4099830717967479e-05 0.0000000000000000e+00  1.5683458760109015e-03 -3.4269746820597131e-05 0.0000000000000000e+00  2.0072021408565630e-03 -5.0801223647837348e-05 0.0000000000000000e+00  0.0000000000000000e+00 0.0000000000000000e+00 0.0000000000000000e+00  2.0493269897142821e-05 -2.6335512053927976e-07 0.0000000000000000e+00  4.1937869825342811e-05 -5.4285698969826491e-07 0.0000000000000000e+00  6.5344896940391049e-05 -8.5623679948237640e-07 0.0000000000000000e+00  9.1857406799751665e-05 -1.2246955814882631e-06 0.0000000000000000e+00  1.2283432443428678e-04 -1.6752833527221428e-06 0.0000000000000000e+00  1.5995934893643887e-04 -2.2441905436510974e-06 0.0000000000000000e+00  2.0538918581273981e-04 -2.9815157333699958e-06 0.0000000000000000e+00  2.6196198439204353e-04 -3.9583688505779293e-06 0.0000000000000000e+00  3.3349690477806732e-04 -5.2776509489546466e-06 0.0000000000000000e+00  4.2523049450945684e-04 -7.0906598602041318e-06 0.0000000000000000e+00  5.4445547043436540e-04 -9.6231908467162270e-06 0.0000000000000000e+00  7.0144913559589707e-04 -1.3218529590584236e-05 0.0000000000000000e+00  9.1078599024342318e-04 -1.8417553806805207e-05 0.0000000000000000e+00  1.1930755020061960e-03 -2.6151224317636552e-05 0.0000000000000000e+00  1.5769613190387438e-03 -3.8380271255391069e-05 0.0000000000000000e+00  2.1008823913158704e-03 -6.0777191450100074e-05 0.0000000000000000e+00  0.0000000000000000e+00 0.0000000000000000e+00 0.0000000000000000e+00  1.6309794332881920e-05 -2.1465260832197749e-07 0.0000000000000000e+00  3.3402711208122773e-05 -4.4335277240691935e-07 0.0000000000000000e+00  5.2114905441113805e-05 -7.0164978841600156e-07 0.0000000000000000e+00  7.3400986543560340e-05 -1.0084119165590536e-06 0.0000000000000000e+00  9.8411449706541174e-05 -1.3881581222182781e-06 0.0000000000000000e+00  1.2859614087988258e-04 -1.8743552326781774e-06 0.0000000000000000e+00  1.6585004971684183e-04 -2.5142973304931994e-06 0.0000000000000000e+00  2.1272686321328188e-04 -3.3765095984481102e-06 0.0000000000000000e+00  2.7276142481379688e-04 -4.5620941731604499e-06 0.0000000000000000e+00  3.5096949508332451e-04 -6.2219731097601490e-06 0.0000000000000000e+00  4.5464098458393708e-04 -8.5819497578942312e-06 0.0000000000000000e+00  5.9462661146419808e-04 -1.1974098703120514e-05 0.0000000000000000e+00  7.8746000353688815e-04 -1.6855438645193397e-05 0.0000000000000000e+00  1.0588680746083763e-03 -2.3725100728267250e-05 0.0000000000000000e+00  1.4493866866187421e-03 -3.2605378463935115e-05 0.0000000000000000e+00  2.0217309847314451e-03 -4.0973320976924363e-05 0.0000000000000000e+00  0.0000000000000000e+00 0.0000000000000000e+00 0.0000000000000000e+00  1.1343203025233630e-05 -1.5189498632426716e-07 0.0000000000000000e+00  2.3244769070491911e-05 -3.1418995251164344e-07 0.0000000000000000e+00  3.6302916164522806e-05 -4.9845950756994808e-07 0.0000000000000000e+00  5.1205594537194041e-05 -7.1889006564254402e-07 0.0000000000000000e+00  6.8790292666689261e-05 -9.9414501780726737e-07 0.0000000000000000e+00  9.0125580026132290e-05 -1.3500439768343470e-06 0.0000000000000000e+00  1.1662876307396604e-04 -1.8236011013974538e-06 0.0000000000000000e+00  1.5024305230724539e-04 -2.4692969593076207e-06 0.0000000000000000e+00  1.9371407986669840e-04 -3.3690176866563801e-06 0.0000000000000000e+00  2.5103651962067624e-04 -4.6480070828259997e-06 0.0000000000000000e+00  3.2820253706583716e-04 -6.5004379815868110e-06 0.0000000000000000e+00  4.3451280803536308e-04 -9.2285996511059432e-06 0.0000000000000000e+00  5.8501389752996973e-04 -1.3290657515347951e-05 0.0000000000000000e+00  8.0545428601602796e-04 -1.9285149426565955e-05 0.0000000000000000e+00  1.1439201725063127e-03 -2.7419785869968370e-05 0.0000000000000000e+00  1.7055785117782391e-03 -3.3936736369471416e-05 0.0000000000000000e+00  0.0000000000000000e+00 0.0000000000000000e+00 0.0000000000000000e+00  5.8177565523195393e-06 -7.8726667401366652e-08 0.0000000000000000e+00  1.1926332452402674e-05 -1.6298980719869005e-07 0.0000000000000000e+00  1.8637969955142299e-05 -2.5897109195231272e-07 0.0000000000000000e+00  2.6313367837377494e-05 -3.7429201393849111e-07 0.0000000000000000e+00  3.5394349861557944e-05 -5.1905278693553558e-07 0.0000000000000000e+00  4.6448927967674599e-05 -7.0734158000676540e-07 0.0000000000000000e+00  6.0237187967956541e-05 -9.5954665083921770e-07 0.0000000000000000e+00  7.7811954327415884e-05 -1.3060479109530652e-06 0.0000000000000000e+00  1.0067835765108879e-04 -1.7933880224190431e-06 0.0000000000000000e+00  1.3105540358649941e-04 -2.4953189845276159e-06 0.0000000000000000e+00  1.7231816563585253e-04 -3.5348776186103971e-06 0.0000000000000000e+00  2.2976264803295187e-04 -5.1361097617542422e-06 0.0000000000000000e+00  3.1192304181431262e-04 -7.7695339697919239e-06 0.0000000000000000e+00  4.3261523700710065e-04 -1.2631018920789245e-05 0.0000000000000000e+00  6.1238536914756496e-04 -2.3376957095510519e-05 0.0000000000000000e+00  8.6721243295737917e-04 -5.2272303331002613e-05 0.0000000000000000e+00  0.0000000000000000e+00 0.0000000000000000e+00 0.0000000000000000e+00  0.0000000000000000e+00 0.0000000000000000e+00 0.0000000000000000e+00  0.0000000000000000e+00 0.0000000000000000e+00 0.0000000000000000e+00  0.0000000000000000e+00 0.0000000000000000e+00 0.0000000000000000e+00  0.0000000000000000e+00 0.0000000000000000e+00 0.0000000000000000e+00  0.0000000000000000e+00 0.0000000000000000e+00 0.0000000000000000e+00  0.0000000000000000e+00 0.0000000000000000e+00 0.0000000000000000e+00  0.0000000000000000e+00 0.0000000000000000e+00 0.0000000000000000e+00  0.0000000000000000e+00 0.0000000000000000e+00 0.0000000000000000e+00  0.0000000