<?xml version="1.0"?>
<VTKFile type="UnstructuredGrid"  version="0.1"  >
<UnstructuredGrid>
<Piece  NumberOfPoints="289" NumberOfCells="512">
<Points>
<DataArray  type="Float64"  NumberOfComponents="3"  format="ascii">0 0 0  0.0625 0 0  0.125 0 0  0.1875 0 0  0.25 0 0  0.3125 0 0  0.375 0 0  0.4375 0 0  0.5 0 0  0.5625 0 0  0.625 0 0  0.6875 0 0  0.75 0 0  0.8125 0 0  0.875 0 0  0.9375 0 0  1 0 0  0 0.0625 0  0.06259211817048159 0.06246722544796129 0  0.12518798188594 0.06243379920633454 0  0.1877915540483651 0.06239909776946783 0  0.2504071715631929 0.06236259394922576 0  0.3130397752110188 0.06232391924857707 0  0.3756952010893129 0.06228294154791571 0  0.4383805855575267 0.06223985682208952 0  0.5011049886628992 0.06219528346565256 0  0.5638804676764116 0.06215032687512094 0  0.6267241507743142 0.06210653815071544 0  0.6896627101506464 0.06206559240134756 0  0.7527430462935032 0.06202826061484001 0  0.816060291315747 0.06199149768126729 0  0.8798376902725406 0.06193989073910335 0  0.9446739434350432 0.0618178089338653 0  1.01239750119706 0.06142508755090185 0  0 0.125 0  0.06268053089292801 0.1249350605578076 0  0.1253684187230264 0.1248687659311726 0  0.1880714483207597 0.1247998123079999 0  0.2507981494839868 0.1247270765701171 0  0.3135582529253774 0.1246497379191525 0  0.3763632616395866 0.1245674355216383 0  0.4392272233806823 0.1244804652693854 0  0.5021678616836767 0.1243900037430305 0  0.5652083764463381 0.1242983171218235 0  0.6283805571633324 0.1242088559345358 0  0.6917305623861913 0.1241260395596103 0  0.7553301530631407 0.1240544010395876 0  0.8192985522657129 0.123996733419683 0  0.8838413051998465 0.1239518486956034 0  0.9492956656306397 0.123919234552281 0  1.016044702013926 0.1239534222911714 0  0 0.1875 0  0.06276162636364313 0.1874042264262875 0  0.1255339104272099 0.1873063029715237 0  0.1883281223349854 0.1872041437426182 0  0.2511566137472656 0.1870959017955925 0  0.3140334727611151 0.1869801406602655 0  0.3769753285532042 0.1868560702698724 0  0.4400023964879404 0.1867238636048019 0  0.5031399038717399 0.1865850578764401 0  0.5664201194589029 0.1864430158082021 0  0.6298853329007175 0.1863033667927682 0  0.6935922457331918 0.1861742492882356 0  0.7576180455537362 0.1860660190057908 0  0.8220667407474942 0.1859898446932844 0  0.8870672458169351 0.1859540732082196 0  0.9527324572533854 0.1859547458944086 0  1.018999840302747 0.1859415739264918 0  0 0.25 0  0.06283212463300944 0.2498755327687431 0  0.1256777357010319 0.2497480040094514 0  0.188551075376474 0.249614411566355 0  0.251467745647497 0.2494720070263505 0  0.3144455236874566 0.2493184971804343 0  0.377505347140775 0.2491523439633268 0  0.4406725511108585 0.2489732014480732 0  0.5039784531720507 0.248782526870382 0  0.5674623779629845 0.2485843889081266 0  0.6311741320865895 0.2483864570270225 0  0.6951766234177965 0.248201068146205 0  0.7595473532133242 0.2480460950280509 0  0.824374954270139 0.2479450241596907 0  0.8897411860339963 0.247925088856134 0  0.9556692381241424 0.248011504273785 0  1.022016145082875 0.2482168523771273 0  0 0.3125 0  0.06288922683050283 0.3123499012608405 0  0.1257941619205462 0.3121957086031589 0  0.1887313605930672 0.3120333586119401 0  0.2517189410229346 0.3118589940079882 0  0.3147775176978033 0.3116691605099434 0  0.3779313240103805 0.3114611350147776 0  0.4412096053616413 0.311233451936874 0  0.5046483618777434 0.310986712368918 0  0.5682924748087126 0.31072477594591 0  0.6321980905982514 0.3104564341113981 0  0.6964347080125989 0.3101976152734219 0  0.7610854346972591 0.3099740158654034 0  0.826241977031607 0.3098236804025963 0  0.8919881392791148 0.3097983342219148 0  0.9583644133813713 0.3099612019669179 0  1.025316461254121 0.310378153883679 0  0 0.375 0  0.06293073598213014 0.3748283668872324 0  0.125878695283294 0.3746515134253984 0  0.1888619806987581 0.3744641909942014 0  0.2519003712389236 0.3742612307950559 0  0.3150163262983103 0.3740376857027011 0  0.3782362045033817 0.3737891236117123 0  0.4415918003460056 0.3735121665458592 0  0.5051223165633504 0.3732054139340729 0  0.568876876710799 0.3728709478596512 0  0.6329175848222942 0.372516685063944 0  0.6973228493922452 0.3721598829830206 0  0.7621900473617603 0.3718320363360398 0  0.8276355221183026 0.3715850240879309 0  0.8937888853978847 0.3714973792417005 0  0.9607800378932561 0.3716777560186738 0  1.028727359423228 0.3722606189106449 0  0 0.4375 0  0.0629551452701044 0.4373120492519584 0  0.1259282639881278 0.4371177216465854 0  0.1889381790803489 0.436910521600586 0  0.252005399456222 0.4366838210955697 0  0.3151531357904003 0.4364308838399034 0  0.3784085560358255 0.4361450344358168 0  0.4418044243407036 0.4358200827149529 0  0.5053813324288835 0.4354511853502235 0  0.5691908199295473 0.4350364410335152 0  0.6332997732375599 0.4345796839228299 0  0.6977965375347618 0.43409515371614 0  0.7627990635837012 0.4336148922658538 0  0.828465029605535 0.4331995528910103 0  0.8950034940387073 0.432952144263243 0  0.9626890930033913 0.4330311963211701 0  1.031888906135515 0.4336553514949413 0  0 0.5 0  0.06296169075557348 0.4998020877548814 0  0.1259413289302916 0.4995967153762456 0  0.188957620424395 0.4993761866414467 0  0.2520308534332805 0.4991323837642688 0  0.3151838506161582 0.4988566090755172 0  0.3784431647640538 0.4985395260141834 0  0.4418407004223458 0.498171300865462 0  0.5054160776695864 0.4977421371174027 0  0.569220291342634 0.4972435578163725 0  0.6333216152762755 0.4966710780999723 0  0.6978153013778339 0.496029383863799 0  0.7628393794517323 0.4953418126567155 0  0.8285994824189082 0.4946665594799572 0  0.8954055918308561 0.4941214219557076 0  0.963723677060091 0.493914065691675 0  1.034253509364745 0.4943622186260832 0  0 0.5625 0  0.0629503652930552 0.5622995392268796 0  0.1259179139706853 0.56209074527995 0  0.1889204451479184 0.5618649177835344 0  0.2519771260858517 0.5616125997479557 0  0.315109295054364 0.5613231865981839 0  0.3783414642134483 0.5609845446613722 0  0.4417027093832561 0.560582696156407 0  0.5052288219926963 0.5601017121580329 0  0.5689659855808868 0.5595241315754421 0  0.6329775027000714 0.558832590711104 0  0.6973565075188923 0.5580140973050819 0  0.7622499136923058 0.5570698481130655 0  0.827901830462345 0.5560360022063964 0  0.8947264793375592 0.5550235240516689 0  0.9634180157329172 0.554281836989908 0  1.03510456978952 0.5542671749965795 0  0 0.625 0  0.06292189066015413 0.6248052441071417 0  0.1258595468764307 0.6246016474269961 0  0.1888291749529322 0.6243798785166674 0  0.2518480499565351 0.6241295219154076 0  0.3149350925767002 0.6238384394372029 0  0.378111539886692 0.6234920161584107 0  0.4414018353313797 0.6230722667051619 0  0.5048350477799702 0.6225568189174909 0  0.5684475765376216 0.6219179093345908 0  0.6322889416775602 0.621121837413015 0  0.6964347727160439 0.6201301414545157 0  0.761015861695435 0.6189058752213414 0  0.8262805514556272 0.6174336827073019 0  0.892717621278879 0.6157739723350244 0  0.9612636728523748 0.6141836946546789 0  1.033596220965977 0.6132922193343712 0  0 0.6875 0  0.06287764783665829 0.6873196765416106 0  0.125769108072176 0.6871305183010938 0  0.1886884555936742 0.6869231106931535 0  0.2516504995903678 0.6866867046528259 0  0.3146710958246154 0.6864083680014572 0  0.3777673968241348 0.6860718885745849 0  0.4409580291412318 0.6856563021247398 0  0.5042632692586929 0.6851338828685253 0  0.5677055910038317 0.6844674105694916 0  0.631311895848327 0.6836065828456056 0  0.6951214200525064 0.6824838225917538 0  0.7592104786824732 0.6810113530657819 0  0.8237627810833135 0.6790877249039065 0  0.8892495220933286 0.6766457655063018 0  0.9568045491989315 0.6738518169208763 0  1.028771306342838 0.6716023978545181 0  0 0.75 0  0.06281957156498039 0.7498428027001424 0  0.1256505994836803 0.7496774000567773 0  0.1885046532569858 0.749494978058356 0  0.2513937318217677 0.749285284542999 0  0.3143303357124597 0.7490356677825726 0  0.3773273205075241 0.7487297652924566 0  0.4403973472223264 0.7483456255820375 0  0.5035516340948351 0.7478529284020621 0  0.5667976129820564 0.7472087741515036 0  0.6301352560674217 0.7463511895002302 0  0.6935532844047214 0.7451889786757832 0  0.7570328339270315 0.7435859189634456 0  0.8205896189154015 0.7413380283549921 0  0.8844652018829943 0.7381560528839011 0  0.9498133276330898 0.7337729848490692 0  1.0196698634506 0.7290645234485245 0  0 0.8125 0  0.06275002326667992 0.8123739771098581 0  0.125508866277676 0.8122410424574618 0  0.1882853660427918 0.8120937248376857 0  0.2510885689360161 0.8119232080995424 0  0.3139276514862968 0.8117184014494361 0  0.3768115353880031 0.8114646281690614 0  0.4397478857299271 0.8111416752100348 0  0.5027408753984485 0.810720783474836 0  0.5657864947199855 0.8101598653143081 0  0.6288630624733436 0.8093956797989618 0  0.6919128407325844 0.8083305415595543 0  0.7548095541669244 0.8068084378963626 0  0.8173152624411744 0.8045685404665971 0  0.8790958484982988 0.8011476073725632 0  0.9402507601535294 0.7956884671977185 0  1.00617697307039 0.7870270959615014 0  0 0.875 0  0.06267166241925021 0.8749119058892303 0  0.1253493205325936 0.8748188079924633 0  0.1880389506795965 0.8747152734277706 0  0.2507466212739302 0.8745948261470072 0  0.3134783800377726 0.8744492101898551 0  0.3762398662986468 0.8742673289958844 0  0.4390353409758398 0.8740336337953666 0  0.5018654658833245 0.8737255855856648 0  0.5647223284288714 0.8733095547623217 0  0.6275782285766072 0.8727340613364057 0  0.6903600099340914 0.8719183810702447 0  0.7528896292838415 0.8707324226690227 0  0.8147479874996013 0.868956194505122 0  0.8749814348736854 0.866172144723897 0  0.9315703010580472 0.861381207860377 0  0.9808467409724525 0.8515082476092909 0  0 0.9375 0  0.06258733635217166 0.9374546968105021 0  0.1251777159170723 0.9374067678298947 0  0.187774167913372 0.9373533548431389 0  0.2503797665195348 0.9372910309720238 0  0.3129975710028917 0.9372153942196678 0  0.3756304211274922 0.9371204756611128 0  0.4382804180805747 0.9369978299726404 0  0.500
[...]
<PointData  Vectors="f_54"> 
<DataArray  type="Float64"  Name="f_54"  NumberOfComponents="3" format="ascii">0.0000000000000000e+00 0.0000000000000000e+00 0.0000000000000000e+00  0.0000000000000000e+00 0.0000000000000000e+00 0.0000000000000000e+00  0.0000000000000000e+00 0.0000000000000000e+00 0.0000000000000000e+00  0.0000000000000000e+00 0.0000000000000000e+00 0.0000000000000000e+00  0.0000000000000000e+00 0.0000000000000000e+00 0.0000000000000000e+00  0.0000000000000000e+00 0.0000000000000000e+00 0.0000000000000000e+00  0.0000000000000000e+00 0.0000000000000000e+00 0.0000000000000000e+00  0.0000000000000000e+00 0.0000000000000000e+00 0.0000000000000000e+00  0.0000000000000000e+00 0.0000000000000000e+00 0.0000000000000000e+00  0.0000000000000000e+00 0.0000000000000000e+00 0.0000000000000000e+00  0.0000000000000000e+00 0.0000000000000000e+00 0.0000000000000000e+00  0.0000000000000000e+00 0.0000000000000000e+00 0.0000000000000000e+00  0.0000000000000000e+00 0.0000000000000000e+00 0.0000000000000000e+00  0.0000000000000000e+00 0.0000000000000000e+00 0.0000000000000000e+00  0.0000000000000000e+00 0.0000000000000000e+00 0.0000000000000000e+00  0.0000000000000000e+00 0.0000000000000000e+00 0.0000000000000000e+00  0.0000000000000000e+00 0.0000000000000000e+00 0.0000000000000000e+00  0.0000000000000000e+00 0.0000000000000000e+00 0.0000000000000000e+00  -3.7856343973909442e-06 -2.7219484321391684e-07 0.0000000000000000e+00  -7.6659272300709073e-06 -5.4463000771848516e-07 0.0000000000000000e+00  -1.1737046874851531e-05 -8.1672929048079718e-07 0.0000000000000000e+00  -1.6089794777492931e-05 -1.0856231894169037e-06 0.0000000000000000e+00  -2.0805392984513287e-05 -1.3448007457933392e-06 0.0000000000000000e+00  -2.5949072120497534e-05 -1.5825699300394659e-06 0.0000000000000000e+00  -3.1560497715256598e-05 -1.7803878395163568e-06 0.0000000000000000e+00  -3.7639827802094928e-05 -1.9112751657423471e-06 0.0000000000000000e+00  -4.4127773298412330e-05 -1.9387604342923990e-06 0.0000000000000000e+00  -5.0877238602509388e-05 -1.8170735949607635e-06 0.0000000000000000e+00  -5.7612564013969097e-05 -1.4934085521704818e-06 0.0000000000000000e+00  -6.3869483089780779e-05 -9.1215895523623220e-07 0.0000000000000000e+00  -6.8904514603572567e-05 -1.6069365989509402e-08 0.0000000000000000e+00  -7.1561875789807389e-05 1.2811208431205351e-06 0.0000000000000000e+00  -7.0136587542908674e-05 3.2609280873295783e-06 0.0000000000000000e+00  -6.2860053711781582e-05 7.2750116356640423e-06 0.0000000000000000e+00  0.0000000000000000e+00 0.0000000000000000e+00 0.0000000000000000e+00  -7.4839226898450230e-06 -5.4464978440629736e-07 0.0000000000000000e+00  -1.5161065132929263e-05 -1.0909169983287295e-06 0.0000000000000000e+00  -2.3228061979980937e-05 -1.6388490769407415e-06 0.0000000000000000e+00  -3.1872403368676591e-05 -2.1840269148765323e-06 0.0000000000000000e+00  -4.1264882416756462e-05 -2.7148557541205652e-06 0.0000000000000000e+00  -5.1547717439467894e-05 -3.2093558539178470e-06 0.0000000000000000e+00  -6.2816428739472028e-05 -3.6314977280065146e-06 0.0000000000000000e+00  -7.5093058274246127e-05 -3.9274192063986767e-06 0.0000000000000000e+00  -8.8287497807850704e-05 -4.0223676640347049e-06 0.0000000000000000e+00  -1.0214208739937914e-04 -3.8200101438195593e-06 0.0000000000000000e+00  -1.1615105333910339e-04 -3.2069051054419559e-06 0.0000000000000000e+00  -1.2943745707118945e-04 -2.0665216254309107e-06 0.0000000000000000e+00  -1.4054630522783153e-04 -3.1003661738615946e-07 0.0000000000000000e+00  -1.4704087105677828e-04 2.0590568531524155e-06 0.0000000000000000e+00  -1.4454775601616427e-04 4.7804556152979259e-06 0.0000000000000000e+00  -1.2394136563864463e-04 6.7413009446784727e-06 0.0000000000000000e+00  0.0000000000000000e+00 0.0000000000000000e+00 0.0000000000000000e+00  -1.0992441728545546e-05 -8.1566041428795209e-07 0.0000000000000000e+00  -2.2282355458890168e-05 -1.6364861836167911e-06 0.0000000000000000e+00  -3.4173169166734792e-05 -2.4654807495385333e-06 0.0000000000000000e+00  -4.6958323622915717e-05 -3.2993497188767825e-06 0.0000000000000000e+00  -6.0912049805472628e-05 -4.1244950882123707e-06 0.0000000000000000e+00  -7.6273934524736953e-05 -4.9120117673805030e-06 0.0000000000000000e+00  -9.3224467685729039e-05 -5.6115575766239508e-06 0.0000000000000000e+00  -1.1184808137029320e-04 -6.1443209583754192e-06 0.0000000000000000e+00  -1.3207919450230855e-04 -6.3960232947861282e-06 0.0000000000000000e+00  -1.5362507684251367e-04 -6.2122229365145011e-06 0.0000000000000000e+00  -1.7585587211935212e-04 -5.4005444654010024e-06 0.0000000000000000e+00  -1.9764427156747510e-04 -3.7485809342273674e-06 0.0000000000000000e+00  -2.1711966144789271e-04 -1.0738143868134899e-06 0.0000000000000000e+00  -2.3126629823602742e-04 2.6627412600860904e-06 0.0000000000000000e+00  -2.3525190880613618e-04 7.1170045616777362e-06 0.0000000000000000e+00  -2.2149482783388017e-04 1.1107065045631688e-05 0.0000000000000000e+00  0.0000000000000000e+00 0.0000000000000000e+00 0.0000000000000000e+00  -1.4203830312482148e-05 -1.0813628108237509e-06 0.0000000000000000e+00  -2.8815421001284898e-05 -2.1744572847378599e-06 0.0000000000000000e+00  -4.4251855004412241e-05 -3.2885502112552886e-06 0.0000000000000000e+00  -6.0923501136252002e-05 -4.4254358956897884e-06 0.0000000000000000e+00  -7.9225516854239923e-05 -5.5743678429988343e-06 0.0000000000000000e+00  -9.9521658764148806e-05 -6.7052946659052406e-06 0.0000000000000000e+00  -1.2211679348973141e-04 -7.7598741517316196e-06 0.0000000000000000e+00  -1.4721363044739515e-04 -8.6399794832628399e-06 0.0000000000000000e+00  -1.7484818384214278e-04 -9.1940782880988231e-06 0.0000000000000000e+00  -2.0479728368397345e-04 -9.2033917469773237e-06 0.0000000000000000e+00  -2.3644986592146741e-04 -8.3728754030995346e-06 0.0000000000000000e+00  -2.6863131313045854e-04 -6.3380304175675763e-06 0.0000000000000000e+00  -2.9936723259238630e-04 -2.7091964632381491e-06 0.0000000000000000e+00  -3.2557790784576581e-04 2.8077526265523781e-06 0.0000000000000000e+00  -3.4274910458559777e-04 1.0154273163428188e-05 0.0000000000000000e+00  -3.4487141796265999e-04 1.8470250730740184e-05 0.0000000000000000e+00  0.0000000000000000e+00 0.0000000000000000e+00 0.0000000000000000e+00  -1.7005945929245608e-05 -1.3349337130658284e-06 0.0000000000000000e+00  -3.4534302808678229e-05 -2.6916912713037750e-06 0.0000000000000000e+00  -5.3121108891852256e-05 -4.0897660936353060e-06 0.0000000000000000e+00  -7.3303971659352979e-05 -5.5410602813066941e-06 0.0000000000000000e+00  -9.5617300417094185e-05 -7.0442704053383640e-06 0.0000000000000000e+00  -1.2057897336902652e-04 -8.5767728295601660e-06 0.0000000000000000e+00  -1.4866410153179552e-04 -1.0082856027001468e-05 0.0000000000000000e+00  -1.8026034643953029e-04 -1.1457015231080568e-05 0.0000000000000000e+00  -2.1559804608831237e-04 -1.2521199215820428e-05 0.0000000000000000e+00  -2.5464764216871316e-04 -1.2995922800632615e-05 0.0000000000000000e+00  -2.9697736300421835e-04 -1.2468126134697457e-05 0.0000000000000000e+00  -3.4156719259346822e-04 -1.0365532674361547e-05 0.0000000000000000e+00  -3.8658384065120747e-04 -5.9609113161969986e-06 0.0000000000000000e+00  -4.2914383592455461e-04 1.5474942820718005e-06 0.0000000000000000e+00  -4.6514917795781021e-04 1.2804872859480991e-05 0.0000000000000000e+00  -4.8940298594052464e-04 2.7833318978699742e-05 0.0000000000000000e+00  0.0000000000000000e+00 0.0000000000000000e+00 0.0000000000000000e+00  -1.9283976424329081e-05 -1.5661440645758362e-06 0.0000000000000000e+00  -3.9205255072826699e-05 -3.1677140664334739e-06 0.0000000000000000e+00  -6.0420021274766909e-05 -4.8385174067527456e-06 0.0000000000000000e+00  -8.3599778648678179e-05 -6.6061225216593584e-06 0.0000000000000000e+00  -1.0943376048239093e-04 -8.4865849834868166e-06 0.0000000000000000e+00  -1.3862280641068083e-04 -1.0475992012396818e-05 0.0000000000000000e+00  -1.7185974869350951e-04 -1.2536925630995568e-05 0.0000000000000000e+00  -2.0978950248649034e-04 -1.4577157049288953e-05 0.0000000000000000e+00  -2.5294009322928990e-04 -1.6416976641043079e-05 0.0000000000000000e+00  -3.0161462431480923e-04 -1.7740970835817289e-05 0.0000000000000000e+00  -3.5573552002260986e-04 -1.8031026523877984e-05 0.0000000000000000e+00  -4.1463958077452804e-04 -1.6482756427649703e-05 0.0000000000000000e+00  -4.7684019254908716e-04 -1.1922677658937878e-05 0.0000000000000000e+00  -5.3980551003653034e-04 -2.7745264058948753e-06 0.0000000000000000e+00  -5.9984531524009022e-04 1.2832113998305563e-05 0.0000000000000000e+00  -6.5222750302200460e-04 3.6690294669074896e-05 0.0000000000000000e+00  0.0000000000000000e+00 0.0000000000000000e+00 0.0000000000000000e+00  -2.0924841142030372e-05 -1.7614376039366284e-06 0.0000000000000000e+00  -4.2595349605841023e-05 -3.5746955521328628e-06 0.0000000000000000e+00  -6.5782161474454360e-05 -5.4913450145462010e-06 0.0000000000000000e+00  -9.1290258564478559e-05 -7.5598376633975108e-06 0.0000000000000000e+00  -1.1997219597425883e-04 -9.8218222594317108e-06 0.0000000000000000e+00  -1.5273416665112358e-04 -1.2305072089442941e-05 0.0000000000000000e+00  -1.9052964541058993e-04 -1.5010514842613105e-05 0.0000000000000000e+00  -2.3433248335685578e-04 -1.7889243708991950e-05 0.0000000000000000e+00  -2.8507771029091323e-04 -2.0802856978278341e-05 0.0000000000000000e+00  -3.4355489089661384e-04 -2.3456880345325511e-05 0.0000000000000000e+00  -4.1023848341115778e-04 -2.5292983071090232e-05 0.0000000000000000e+00  -4.8504850221854276e-04 -2.5324208976911903e-05 0.0000000000000000e+00  -5.6706295158815594e-04 -2.1906910919025977e-05 0.0000000000000000e+00  -6.5425778949979474e-04 -1.2478701576126982e-05 0.0000000000000000e+00  -7.4340859418297895e-04 6.6393488007375515e-06 0.0000000000000000e+00  -8.3026682269418466e-04 4.0232649851192461e-05 0.0000000000000000e+00  0.0000000000000000e+00 0.0000000000000000e+00 0.0000000000000000e+00  -2.1823977994641320e-05 -1.9046941946919853e-06 0.0000000000000000e+00  -4.4486188395999898e-05 -3.8788656896390522e-06 0.0000000000000000e+00  -6.8856435273389712e-05 -5.9937260441419465e-06 0.0000000000000000e+00  -9.5862087892194551e-05 -8.3222482335557990e-06 0.0000000000000000e+00  -1.2651552031501997e-04 -1.0938520504062968e-05 0.0000000000000000e+00  -1.6193764292165116e-04 -1.3914352433748719e-05 0.0000000000000000e+00  -2.0337273021139868e-04 -1.7310542850504791e-05 0.0000000000000000e+00  -2.5218564661433888e-04 -2.1157936739953903e-05 0.0000000000000000e+00  -3.0982637050344793e-04 -2.5419179813129476e-05 0.0000000000000000e+00  -3.7773867017308399e-04 -2.9914538220690616e-05 0.0000000000000000e+00  -4.5718280544357505e-04 -3.4182574053981229e-05 0.0000000000000000e+00  -5.4894604765678393e-04 -3.7228621565335446e-05 0.0000000000000000e+00  -6.5295257945371943e-04 -3.7098762817563086e-05 0.0000000000000000e+00  -7.6788822961123399e-04 -3.0234190122726755e-05 0.0000000000000000e+00  -8.9110853356701809e-04 -1.0657013430937901e-05 0.0000000000000000e+00  -1.0190939183642599e-03 3.0872814106690181e-05 0.0000000000000000e+00  0.0000000000000000e+00 0.0000000000000000e+00 0.0000000000000000e+00  -2.1894293842993615e-05 -1.9787666993231405e-06 0.0000000000000000e+00  -4.4692400902356971e-05 -4.0436231824801162e-06 0.0000000000000000e+00  -6.9336245140988036e-05 -6.2847722945350902e-06 0.0000000000000000e+00  -9.6850480440894705e-05 -8.8003442821308892e-06 0.0000000000000000e+00  -1.2838660054761495e-04 -1.1700069517929216e-05 0.0000000000000000e+00  -1.6526874983139887e-04 -1.5107912190671475e-05 0.0000000000000000e+00  -2.0903834943734228e-04 -1.9161900434283435e-05 0.0000000000000000e+00  -2.6148967820756124e-04 -2.4007103154174725e-05 0.0000000000000000e+00  -3.2467946145670903e-04 -2.9772786379458840e-05 0.0000000000000000e+00  -4.0087841863189816e-04 -3.6514243748549532e-05 0.0000000000000000e+00  -4.9241164518530687e-04 -4.4077619140886670e-05 0.0000000000000000e+00  -6.0131734991841030e-04 -5.1801846897132380e-05 0.0000000000000000e+00  -7.2878036943322148e-04 -5.7896035749846344e-05 0.0000000000000000e+00  -8.7447464983684599e-04 -5.8252082794664683e-05 0.0000000000000000e+00  -1.0363946907020467e-03 -4.4537281686785033e-05 0.0000000000000000e+00  -1.2121661107666114e-03 -1.7885033370370493e-06 0.0000000000000000e+00  0.0000000000000000e+00 0.0000000000000000e+00 0.0000000000000000e+00  -2.1076648057032228e-05 -1.9677386735266235e-06 0.0000000000000000e+00  -4.3083773820491490e-05 -4.0342968802942611e-06 0.0000000000000000e+00  -6.6995525975175582e-05 -6.3049791863807755e-06 0.0000000000000000e+00  -9.3892340318129893e-05 -8.8994579888036239e-06 0.0000000000000000e+00  -1.2502224123363528e-04 -1.1960379718771103e-05 0.0000000000000000e+00  -1.6187184471429483e-04 -1.5663550041944513e-05 0.0000000000000000e+00  -2.0624825447998409e-04 -2.0229777305810212e-05 0.0000000000000000e+00  -2.6036861002490719e-04 -2.5937279000419863e-05 0.0000000000000000e+00  -3.2694362975967443e-04 -3.3130221635836030e-05 0.0000000000000000e+00  -4.0921936610047003e-04 -4.2209798508187640e-05 0.0000000000000000e+00  -5.1089928203593745e-04 -5.3569363653696865e-05 0.0000000000000000e+00  -6.3580220339358635e-04 -6.7368532382351958e-05 0.0000000000000000e+00  -7.8705549288429365e-04 -8.2871410050269645e-05 0.0000000000000000e+00  -9.6579289116181701e-04 -9.6712912146209372e-05 0.0000000000000000e+00  -1.1703480583494668e-03 -9.9156293465858409e-05 0.0000000000000000e+00  -1.3981474175257197e-03 -6.8623510218322205e-05 0.0000000000000000e+00  0.0000000000000000e+00 0.0000000000000000e+00 0.0000000000000000e+00  -1.9350758804441301e-05 -1.8596524061941470e-06 0.0000000000000000e+00  -3.9608825543240394e-05 -3.8240742106130704e-06 0.0000000000000000e+00  -6.1728522451936181e-05 -6.0063618968588038e-06 0.0000000000000000e+00  -8.6787714905138717e-05 -8.5392829776381844e-06 0.0000000000000000e+00  -1.1606370647899777e-04 -1.1588296072364784e-05 0.0000000000000000e+00  -1.5112832924113920e-04 -1.5369019544339960e-05 0.0000000000000000e+00  -1.9396990075948330e-04 -2.0171651078063788e-05 0.0000000000000000e+00  -2.4714851698473219e-04 -2.6395787856903205e-05 0.0000000000000000e+00  -3.1398408784418831e-04 -3.4600011774663656e-05 0.0000000000000000e+00  -3.9875402231763827e-04 -4.5569802207087573e-05 0.0000000000000000e+00  -5.0681859094520100e-04 -6.0397484888732998e-05 0.0000000000000000e+00  -6.4445643981716030e-04 -8.0519487633572864e-05 0.0000000000000000e+00  -8.1792823827354368e-04 -1.0745433247439753e-04 0.0000000000000000e+00  -1.0310158170273474e-03 -1.4120898209970818e-04 0.0000000000000000e+00  -1.2820759064676810e-03 -1.7398385809006163e-04 0.0000000000000000e+00  -1.5691064964453399e-03 -1.7837481588727969e-04 0.0000000000000000e+00  0.0000000000000000e+00 0.0000000000000000e+00 0.0000000000000000e+00  -1.6744930475369213e-05 -1.6492516094423040e-06 0.0000000000000000e+00  -3.4316495026356517e-05 -3.4001168526645079e-06 0.0000000000000000e+00  -5.3588077370236211e-05 -5.3633394236667271e-06 0.0000000000000000e+00  -7.5562418405834752e-05 -7.6720450148421028e-06 0.0000000000000000e+00  -1.0145541694409963e-04 -1.0497348367530188e-05 0.0000000000000000e+00  -1.3280785981943525e-04 -1.4070519401633329e-05 0.0000000000000000e+00  -1.7164059321796298e-04 -1.8716208139705637e-05 0.0000000000000000e+00  -2.2067387933319955e-04 -2.4904287867400928e-05 0.0000000000000000e+00  -2.8363547854159564e-04 -3.3333736768384387e-05 0.0000000000000000e+00  -3.6567518278561389e-04 -4.5073480924899331e-05 0.0000000000000000e+00  -4.7385793039800771e-04 -6.1807208798595709e-05 0.0000000000000000e+00  -6.1754416855378132e-04 -8.6264133853506918e-05 0.0000000000000000e+00  -8.0797133077797607e-04 -1.2291922787112318e-04 0.0000000000000000e+00  -1.0549332787433074e-03 -1.7859753227709437e-04 0.0000000000000000e+00  -1.3549032549261392e-03 -2.5846744180918105e-04 0.0000000000000000e+00  -1.7037819719503034e-03 -3.2022210927974535e-04 0.0000000000000000e+00  0.0000000000000000e+00 0.0000000000000000e+00 0.0000000000000000e+00  -1.3342626860517721e-05 -1.3401470081320549e-06 0.0000000000000000e+00  -2.7371627512702790e-05 -2.7685236607085495e-06 0.0000000000000000e+00  -4.2815087848460856e-05 -4.3819253999215700e-06 0.0000000000000000e+00  -6.0520562428142724e-05 -6.2986372290627960e-06 0.0000000000000000e+00  -8.1535939659762853e-05 -8.6738206782094650e-06 0.0000000000000000e+00  -1.0722275193869764e-04 -1.1721923095124575e-05 0.0000000000000000e+00  -1.3942371165044008e-04 -1.5751116273597896e-05 0.0000000000000000e+00  -1.8071929755164972e-04 -2.1218410546397180e-05 0.0000000000000000e+00  -2.3482882183960545e-04 -2.8821523732190982e-05 0.0000000000000000e+00  -3.0723947930805885e-04 -3.9660409383888276e-05 0.0000000000000000e+00  -4.0616852074083152e-04 -5.5544047661704887e-05 0.0000000000000000e+00  -5.4391071069311535e-04 -7.9635981769291805e-05 0.0000000000000000e+00  -7.3824258274609645e-04 -1.1796331373794090e-04 0.0000000000000000e+00  -1.0119396768786466e-03 -1.8317894690162678e-04 0.0000000000000000e+00  -1.3808066078356094e-03 -3.0382450134019615e-04 0.0000000000000000e+00  -1.7289844402605015e-03 -5.4831389459204891e-04 0.0000000000000000e+00  0.0000000000000000e+00 0.0000000000000000e+00 0.0000000000000000e+00  -9.2838516743318285e-06 -9.4582360147506189e-07 0.0000000000000000e+00  -1.9059560531928011e-05 -1.9567766958603109e-06 0.0000000000000000e+00  -2.9850475770146733e-05 -3.1046019191592868e-06 0.0000000000000000e+00  -4.2272190746130572e-05 -4.4778701857163405e-06 0.0000000000000000e+00  -5.7097090838532171e-05 -6.1941467413667540e-06 0.0000000000000000e+00  -7.5348226758205160e-05 -8.4177911038520547e-06 0.0000000000000000e+00  -9.8444793908833498e-05 -1.1387168860691725e-05 0.0000000000000000e+00  -1.2843876805091251e-04 -1.5457193140395686e-05 0.0000000000000000e+00  -1.6841535019840586e-04 -2.1166447836442182e-05 0.0000000000000000e+00  -2.2319284273013146e-04 -2.9343594796516134e-05 0.0000000000000000e+00  -3.0057224766706723e-04 -4.1280545772920528e-05 0.0000000000000000e+00  -4.1356853761963925e-04 -5.9053355415669482e-05 0.0000000000000000e+00  -5.8423227973682980e-04 -8.6352284097452136e-05 0.0000000000000000e+00  -8.4947227925851235e-04 -1.3154148899837271e-04 0.0000000000000000e+00  -1.2682480388319642e-03 -2.1981725790640608e-04 0.0000000000000000e+00  -1.9294251038774336e-03 -4.2879332450980944e-04 0.0000000000000000e+00  0.0000000000000000e+00 0.0000000000000000e+00 0.0000000000000000e+00  -4.7597571927996714e-06 -4.8910161871995053e-07 0.0000000000000000e+00  -9.7759064592062039e-06 -1.0127309087217228e-06 0.0000000000000000e+00  -1.5321732894777708e-05 -1.6089931716318371e-06 0.0000000000000000e+00  -2.1720677874831702e-05 -2.3251692847570973e-06 0.0000000000000000e+00  -2.9382158241768987e-05 -3.2243477958751278e-06 0.0000000000000000e+00  -3.8854867699611467e-05 -4.3950631304730378e-06 0.0000000000000000e+00  -5.0911849822137683e-05 -5.9656943334775648e-06 0.0000000000000000e+00  -6.6694277668362419e-05 -8.1256236646844569e-06 0.0000000000000000e+00  -8.7967393228177511e-05 -1.1153426985848598e-05 0.0000000000000000e+00  -1.1759886832843922e-04 -1.5441515319983053e-05 0.0000000000000000e+00  -1.6049022727171992e-04 -2.1458735229602566e-05 0.0000000000000000e+00  -2.2541661129398853e-04 -2.9402584830090494e-05 0.0000000000000000e+00  -3.2839678693549426e-04 -3.7606499546074576e-05 0.0000000000000000e+00  -4.9639932516266547e-04 -3.6844977215190009e-05 0.0000000000000000e+00  -7.5624147670202914e-04 2.5016957652031235e-06 0.0000000000000000e+00  -1.0631928944996687e-03 1.1879423788811360e-04 0.0000000000000000e+00  0.0000000000000000e+00 0.0000000000000000e+00 0.0000000000000000e+00  0.0000000000000000e+00 0.0000000000000000e+00 0.0000000000000000e+00  0.0000000000000000e+00 0.0000000000000000e+00 0.0000000000000000e+00  0.0000000000000000e+00 0.0000000000000000e+00 0.0000000000000000e+00  0.0000000000000000e+00 0.0000000000000000e+00 0.0000000000000000e+00  0.0000000000000000e+00 0.0000000000000000e+0