<?xml version="1.0"?>
<VTKFile type="UnstructuredGrid"  version="0.1"  >
<UnstructuredGrid>
<Piece  NumberOfPoints="289" NumberOfCells="512">
<Points>
<DataArray  type="Float64"  NumberOfComponents="3"  format="ascii">0 0 0  0.0625 0 0  0.125 0 0  0.1875 0 0  0.25 0 0  0.3125 0 0  0.375 0 0  0.4375 0 0  0.5 0 0  0.5625 0 0  0.625 0 0  0.6875 0 0  0.75 0 0  0.8125 0 0  0.875 0 0  0.9375 0 0  1 0 0  0 0.0625 0  0.06253558370534087 0.06249008432459694 0  0.1250727727096244 0.06247998360638648 0  0.1876132663562737 0.06246952669845412 0  0.2501589539326645 0.06245857534774622 0  0.312712029267186 0.06244704521018075 0  0.3752751333607965 0.06243493154149671 0  0.4378515463158069 0.0624223391085544 0  0.500445471227822 0.06240951293188276 0  0.5630625059647628 0.06239686093030431 0  0.625710536967083 0.06238494922202206 0  0.6884016659157391 0.06237443058898531 0  0.7511568663436295 0.06236582011733145 0  0.8140183977320594 0.06235889613522291 0  0.877085888371001 0.06235101102267487 0  0.9406301136962706 0.06233157135189135 0  1.005486276772253 0.06226144947929828 0  0 0.125 0  0.06256955972671453 0.1249803469702707 0  0.1251422486354314 0.124960307514379 0  0.1877213797836563 0.1249395211601725 0  0.2503106385710995 0.124917689592108 0  0.3129143065971544 0.1248946177433378 0  0.3755375371498147 0.1248702658194391 0  0.43818671570562 0.1248448128473223 0  0.5008699647796738 0.1248187276076401 0  0.5635979105772955 0.1247928338352638 0  0.626384959755275 0.1247683410090916 0  0.6892516240885659 0.1247467882645716 0  0.7522290315464182 0.1247298232986774 0  0.8153677890406086 0.1247187611957038 0  0.8787539185333788 0.1247142106987889 0  0.942527126674448 0.1247180444820943 0  1.006838359300492 0.1247497668755937 0  0 0.1875 0  0.06260041237829193 0.1874709910009148 0  0.1252053086114827 0.1874413642600125 0  0.1878194346590725 0.1874105361089851 0  0.2504480690497157 0.1873780062752403 0  0.3130973411728666 0.1873434162751768 0  0.3757746170653353 0.1873066274098442 0  0.4384889864702732 0.1872678225384072 0  0.501251898063673 0.1872276310672847 0  0.564078011059489 0.1871872665001719 0  0.6269863605070826 0.18714864651529 0  0.6900019468939276 0.1871144310097768 0  0.7531577325217388 0.1870878540236946 0  0.8164962654780814 0.1870721130985173 0  0.8800671612026706 0.1870687806650168 0  0.9439073799799538 0.1870734799288706 0  1.007970612444647 0.1870610057109422 0  0 0.25 0  0.0626267994921121 0.2499622491954486 0  0.1252591909205689 0.2499236100044044 0  0.1879030888139326 0.2498832298237758 0  0.2505650666899294 0.2498403472140939 0  0.3132527501995676 0.2497943616304894 0  0.3759752897665005 0.2497449335116484 0  0.4387439433645143 0.2496921254339566 0  0.5015727971500417 0.24963659287334 0  0.5644796329843121 0.2495798258230556 0  0.6274868893733744 0.2495244248960133 0  0.690622485289813 0.2494743588825094 0  0.7539198140556244 0.2494350811091222 0  0.8174150956069089 0.2494132589326872 0  0.8811378773021523 0.249415678801843 0  0.94508654947472 0.2494467458467434 0  1.009178975574169 0.2495050810565284 0  0 0.3125 0  0.0626476251327218 0.3124543931940143 0  0.1253016425411448 0.312407585446673 0  0.1879688048498162 0.3123584042649156 0  0.2506566066686661 0.3123057564721098 0  0.3133737302212456 0.3122486987438727 0  0.3761305844652941 0.3121865494591892 0  0.4389399720221949 0.3121190614726368 0  0.5018179098700557 0.3120466788541557 0  0.5647845961208536 0.3119709013784779 0  0.6278654215616944 0.3118947731226527 0  0.6910917024667421 0.311823485370456 0  0.7545003426653513 0.3117650210693182 0  0.818130772419898 0.3117306442268093 0  0.8820162819669863 0.3117348422165045 0  0.9461661792165588 0.3117941358826298 0  1.010538482218964 0.3119242402048099 0  0 0.375 0  0.06266209583192617 0.3749477358106773 0  0.1253310365058932 0.3748939232321264 0  0.1880140379855121 0.3748370237069206 0  0.2507190884076518 0.3747755409059321 0  0.3134554189779595 0.3747080762498959 0  0.376234085967356 0.3746334333880299 0  0.4390687135955104 0.3745508005540948 0  0.5019764507502811 0.3744600514675319 0  0.5649791804150508 0.374362219803525 0  0.6281049614685705 0.3742602154353845 0  0.6913895263160548 0.3741598517535767 0  0.7548773280062795 0.3740712170875451 0  0.8186210691302291 0.3740103005048149 0  0.882677985926847 0.3740004978431095 0  0.9471011415901821 0.3740731045842462 0  1.011926380684894 0.3742651387343822 0  0 0.4375 0  0.06266975689718093 0.4374426237849459 0  0.1253464488854827 0.4373833358110829 0  0.1880373626655821 0.4373202032970173 0  0.2507505253642017 0.4372512702818689 0  0.3134951648350713 0.4371745777875129 0  0.3762822963187209 0.4370882325855285 0  0.4391255089955962 0.4369905597757508 0  0.5020420562287451 0.4368803954922006 0  0.5650543906693409 0.4367576081608632 0  0.6281923188523489 0.4366239815673915 0  0.6914959485785201 0.4364846456941401 0  0.755019501580998 0.4363502765942994 0  0.8188357654905005 0.4362402296865179 0  0.883040404675195 0.43618645376611 0  0.9477547842071368 0.4362371834761882 0  1.013126419539632 0.4364578373912316 0  0 0.5 0  0.0626705056262505 0.4999394186923057 0  0.1253476888016919 0.499876578269248 0  0.1880385279004084 0.499809156835025 0  0.2507506424374866 0.499734717525023 0  0.3134926968573973 0.4996506713784917 0  0.3762749309104607 0.4995542758774081 0  0.4391099104303981 0.4994427030884253 0  0.5020136568265838 0.4993132393700942 0  0.5650074229119489 0.4991637275373746 0  0.6281205572687093 0.498993444713928 0  0.691395151228398 0.4988047390293613 0  0.7548934568772182 0.4986059272002789 0  0.8187092334015615 0.4984161211840095 0  0.8829838064271984 0.4982725500635505 0  0.9479261520153459 0.498239895880292 0  1.013834248942936 0.4984180159845147 0  0 0.5625 0  0.06266457848203354 0.5624384650841595 0  0.1253352741702371 0.562374383216015 0  0.1880184265658756 0.5623050964219446 0  0.2507208532754779 0.5622277226786587 0  0.3134501461216353 0.5621390433263818 0  0.3762150646296262 0.562035398190774 0  0.4390261205401444 0.5619126093065863 0  0.5018965371861418 0.5617659814816919 0  0.5648439447716398 0.5615904828593726 0  0.6278935087130721 0.5613813173353617 0  0.6910837907850015 0.5611353109671302 0  0.7544776203360759 0.560853922312238 0  0.8181815435533577 0.56054932555462 0  0.8823783014166704 0.5602557737559384 0  0.9473751011639562 0.5600482596756402 0  1.013663401065105 0.5600659177132973 0  0 0.625 0  0.06265251064644048 0.6249400473018691 0  0.1253103477841804 0.6248773697916858 0  0.1879789638904197 0.6248090845455774 0  0.250664081708393 0.6247319751546537 0  0.3133718388776118 0.6246422962852133 0  0.3761089633804515 0.6245355451482978 0  0.4388830372255035 0.6244061946249468 0  0.5017029919345789 0.6242473971282229 0  0.5645801781917967 0.6240507060576886 0  0.6275307963342018 0.6238059560793702 0  0.6905814293248119 0.6235016734774248 0  0.7537813553859997 0.6231269386801188 0  0.8172288509780604 0.6226768970227757 0  0.881123809547549 0.6221667750324114 0  0.9458619709118858 0.6216631819725316 0  1.012174863286342 0.62133943796175 0  0 0.6875 0  0.0626350698341471 0.6874443395767155 0  0.1252745355640408 0.6873859358853315 0  0.1879228214665206 0.6873218515072252 0  0.2505844052352172 0.6872487286843633 0  0.313263792640148 0.6871625210515621 0  0.3759654266999357 0.6870581470176876 0  0.4386935127517803 0.686929024773371 0  0.5014517754546901 0.6867664378408364 0  0.5642432877906784 0.6865586720498306 0  0.6270708854382169 0.6862898786900953 0  0.6899397120688922 0.6859387192517206 0  0.7528661305801837 0.6854772541114527 0  0.8159038017941025 0.6848719867618402 0  0.8792120408936521 0.6840938339415439 0  0.9432142869861396 0.6831583199938804 0  1.008892469730506 0.6822417881126551 0  0 0.75 0  0.06261317178590625 0.7499513573024155 0  0.125229761693303 0.7499001503205749 0  0.1878531373035851 0.7498436056764244 0  0.2504865403765487 0.749778489445438 0  0.313132914269007 0.7497007966635054 0  0.3757945674632853 0.7496053263191083 0  0.4384725577632079 0.7494850696066032 0  0.5011656210017357 0.7493302990080681 0  0.5638684023152901 0.7491271776022133 0  0.6265687625494831 0.7488555923454956 0  0.6892443686825029 0.7484857242042697 0  0.7518608377018108 0.7479726050443708 0  0.8143813483961351 0.7472479090929131 0  0.8768230823036847 0.7462109989189238 0  0.9394704445481319 0.7447426575768157 0  1.003452420528458 0.7429009681860378 0  0 0.8125 0  0.06258779105178222 0.8124609196649096 0  0.1251780507754058 0.8124196675926647 0  0.1877731544387532 0.812373876399315 0  0.2503752528531994 0.8123207427523536 0  0.3129860197421249 0.8122567226074353 0  0.3756061757112203 0.8121770989446008 0  0.4382345986492505 0.8120753341823614 0  0.5008666714702846 0.811942061689978 0  0.5634912172709572 0.8117634638554542 0  0.6260848200854223 0.8115185757310274 0  0.6886014092489788 0.8111746127606498 0  0.750953917448287 0.8106783898098382 0  0.8129861148628604 0.8099392459446975 0  0.8744511557537775 0.8087918039470531 0  0.9351304332708253 0.8069101661966014 0  0.9959960503730388 0.8036463172571139 0  0 0.875 0  0.0625598848283085 0.87497263394749 0  0.1251213584759917 0.8749436888084715 0  0.1876859171607096 0.8749114335308703 0  0.2502548355637467 0.8748737959135805 0  0.3128289282772845 0.8748281186115645 0  0.3754081010234027 0.8747708057514905 0  0.4379904956684678 0.8746967821283333 0  0.5005708399271454 0.8745986340881766 0  0.5631371960564192 0.8744652055278297 0  0.6256643743645635 0.8742792451292949 0  0.6881001387472417 0.8740133497369034 0  0.7503352709153319 0.8736226356542705 0  0.8121364536447059 0.8730301155616887 0  0.8729928830107061 0.8720910701326076 0  0.9317736444754529 0.8704778452907893 0  0.986088505155244 0.8671901979073492 0  0 0.9375 0  0.06253034674241632 0.9374859090253637 0  0.1250614714538906 0.9374709866890469 0  0.1875940972331022 0.9374543185946729 0  0.250128816102389 0.9374348031721572 0  0.3126659499118302 0.9374110161508064 0  0.375205288452224 0.9373810121973631 0  0.4377455857298975 0.937342018553308 0  0.500
[...]
<PointData  Vectors="f_54"> 
<DataArray  type="Float64"  Name="f_54"  NumberOfComponents="3" format="ascii">0.0000000000000000e+00 0.0000000000000000e+00 0.0000000000000000e+00  0.0000000000000000e+00 0.0000000000000000e+00 0.0000000000000000e+00  0.0000000000000000e+00 0.0000000000000000e+00 0.0000000000000000e+00  0.0000000000000000e+00 0.0000000000000000e+00 0.0000000000000000e+00  0.0000000000000000e+00 0.0000000000000000e+00 0.0000000000000000e+00  0.0000000000000000e+00 0.0000000000000000e+00 0.0000000000000000e+00  0.0000000000000000e+00 0.0000000000000000e+00 0.0000000000000000e+00  0.0000000000000000e+00 0.0000000000000000e+00 0.0000000000000000e+00  0.0000000000000000e+00 0.0000000000000000e+00 0.0000000000000000e+00  0.0000000000000000e+00 0.0000000000000000e+00 0.0000000000000000e+00  0.0000000000000000e+00 0.0000000000000000e+00 0.0000000000000000e+00  0.0000000000000000e+00 0.0000000000000000e+00 0.0000000000000000e+00  0.0000000000000000e+00 0.0000000000000000e+00 0.0000000000000000e+00  0.0000000000000000e+00 0.0000000000000000e+00 0.0000000000000000e+00  0.0000000000000000e+00 0.0000000000000000e+00 0.0000000000000000e+00  0.0000000000000000e+00 0.0000000000000000e+00 0.0000000000000000e+00  0.0000000000000000e+00 0.0000000000000000e+00 0.0000000000000000e+00  0.0000000000000000e+00 0.0000000000000000e+00 0.0000000000000000e+00  -4.4408482064719012e-06 -1.2334021646219637e-07 0.0000000000000000e+00  -9.0011289489693653e-06 -2.4648631382175568e-07 0.0000000000000000e+00  -1.3799822406621436e-05 -3.6871717058183401e-07 0.0000000000000000e+00  -1.8951508416910337e-05 -4.8812881406172864e-07 0.0000000000000000e+00  -2.4562406312306438e-05 -6.0092915250041671e-07 0.0000000000000000e+00  -3.0724106335203066e-05 -7.0062459908778426e-07 0.0000000000000000e+00  -3.7504080253628049e-05 -7.7712480349406862e-07 0.0000000000000000e+00  -4.4932039265261279e-05 -8.1586765490714515e-07 0.0000000000000000e+00  -5.2981404545980068e-05 -7.9717451216522515e-07 0.0000000000000000e+00  -6.1546008932728658e-05 -6.9613574769924292e-07 0.0000000000000000e+00  -7.0415058424658106e-05 -4.8315877254953013e-07 0.0000000000000000e+00  -7.9259254686085015e-05 -1.2394222325121486e-07 0.0000000000000000e+00  -8.7676133043187096e-05 4.2853977188686781e-07 0.0000000000000000e+00  -9.5475729239852277e-05 1.2828620618233041e-06 0.0000000000000000e+00  -1.0393397405757652e-04 2.8391728889566985e-06 0.0000000000000000e+00  -1.2138586182247351e-04 6.8692932263560565e-06 0.0000000000000000e+00  0.0000000000000000e+00 0.0000000000000000e+00 0.0000000000000000e+00  -8.7659579297862767e-06 -2.4697225622037317e-07 0.0000000000000000e+00  -1.7773361144022172e-05 -4.9412824729960226e-07 0.0000000000000000e+00  -2.7263384964853963e-05 -7.4064232076732846e-07 0.0000000000000000e+00  -3.7470010175368894e-05 -9.8340405898651395e-07 0.0000000000000000e+00  -4.8612993861827250e-05 -1.2156170212769377e-06 0.0000000000000000e+00  -6.0886281206711704e-05 -1.4251304282108002e-06 0.0000000000000000e+00  -7.4439941216281722e-05 -1.5925210658794299e-06 0.0000000000000000e+00  -8.9353481238742293e-05 -1.6890939502275371e-06 0.0000000000000000e+00  -1.0559829203860908e-04 -1.6752372347127878e-06 0.0000000000000000e+00  -1.2298716313166667e-04 -1.4999963495287872e-06 0.0000000000000000e+00  -1.4110943340974252e-04 -1.1033715188647820e-06 0.0000000000000000e+00  -1.5925088289311381e-04 -4.2384206372397963e-07 0.0000000000000000e+00  -1.7629275876015007e-04 5.8389098124577818e-07 0.0000000000000000e+00  -1.9054254129923941e-04 1.9045702613978638e-06 0.0000000000000000e+00  -1.9919306998369854e-04 3.3117610276087532e-06 0.0000000000000000e+00  -1.9565163386606017e-04 3.6731811627668984e-06 0.0000000000000000e+00  0.0000000000000000e+00 0.0000000000000000e+00 0.0000000000000000e+00  -1.2851887914754755e-05 -3.7046963589753867e-07 0.0000000000000000e+00  -2.6070950043863782e-05 -7.4259435582461490e-07 0.0000000000000000e+00  -4.0025438159348841e-05 -1.1166399833858410e-06 0.0000000000000000e+00  -5.5076632809140781e-05 -1.4896821805152699e-06 0.0000000000000000e+00  -7.1570480989565892e-05 -1.8535602642879698e-06 0.0000000000000000e+00  -8.9822641873630034e-05 -2.1923194101186533e-06 0.0000000000000000e+00  -1.1009396591447615e-04 -2.4790717475578002e-06 0.0000000000000000e+00  -1.3255283744867169e-04 -2.6723901324406806e-06 0.0000000000000000e+00  -1.5722014333983305e-04 -2.7127303735321186e-06 0.0000000000000000e+00  -1.8389178918794713e-04 -2.5201162404610119e-06 0.0000000000000000e+00  -2.1203203094519770e-04 -1.9956823528006771e-06 0.0000000000000000e+00  -2.4062599348285488e-04 -1.0321336913900341e-06 0.0000000000000000e+00  -2.6796390179342246e-04 4.5730869835643665e-07 0.0000000000000000e+00  -2.9128182766440696e-04 2.4738741317488712e-06 0.0000000000000000e+00  -3.0606369598795480e-04 4.8061758911159585e-06 0.0000000000000000e+00  -3.0465328490025952e-04 6.8663888390703019e-06 0.0000000000000000e+00  0.0000000000000000e+00 0.0000000000000000e+00 0.0000000000000000e+00  -1.6571748377705260e-05 -4.9231247600397531e-07 0.0000000000000000e+00  -3.3639784581376661e-05 -9.8926091932272358e-07 0.0000000000000000e+00  -5.1704431537200442e-05 -1.4938865739898153e-06 0.0000000000000000e+00  -7.1263511885478543e-05 -2.0054874492177584e-06 0.0000000000000000e+00  -9.2805196237150217e-05 -2.5170648051747371e-06 0.0000000000000000e+00  -1.1679269352102688e-04 -3.0119252455376219e-06 0.0000000000000000e+00  -1.4363680723789777e-04 -3.4591715278988434e-06 0.0000000000000000e+00  -1.7365133252521045e-04 -3.8079338547361688e-06 0.0000000000000000e+00  -2.0698501880801333e-04 -3.9805340598959587e-06 0.0000000000000000e+00  -2.4352234623532644e-04 -3.8655751328456666e-06 0.0000000000000000e+00  -2.8274337540504241e-04 -3.3136257144142802e-06 0.0000000000000000e+00  -3.2352947853834044e-04 -2.1413919154707770e-06 0.0000000000000000e+00  -3.6389502518471020e-04 -1.5590531171226901e-07 0.0000000000000000e+00  -4.0061538407286704e-04 2.7812900897340738e-06 0.0000000000000000e+00  -4.2873066087789245e-04 6.6214834410982817e-06 0.0000000000000000e+00  -4.4105003950009814e-04 1.0901275263631646e-05 0.0000000000000000e+00  0.0000000000000000e+00 0.0000000000000000e+00 0.0000000000000000e+00  -1.9795725828357872e-05 -6.0947936973427599e-07 0.0000000000000000e+00  -4.0217857157460371e-05 -1.2283202156977456e-06 0.0000000000000000e+00  -6.1901696911317096e-05 -1.8643392576431615e-06 0.0000000000000000e+00  -8.5489654826280840e-05 -2.5215990969021153e-06 0.0000000000000000e+00  -1.1162853298166216e-04 -3.1976249778001568e-06 0.0000000000000000e+00  -1.4095787360473259e-04 -3.8794096850617673e-06 0.0000000000000000e+00  -1.7408457807335483e-04 -4.5376380123441705e-06 0.0000000000000000e+00  -2.1153741122644521e-04 -5.1184850617902683e-06 0.0000000000000000e+00  -2.5369308365114893e-04 -5.5324017486965149e-06 0.0000000000000000e+00  -3.0066357443675305e-04 -5.6397555027455342e-06 0.0000000000000000e+00  -3.5213269522500502e-04 -5.2345804996091509e-06 0.0000000000000000e+00  -4.0712962528340377e-04 -4.0309985910646410e-06 0.0000000000000000e+00  -4.6373081253904465e-04 -1.6636282970886097e-06 0.0000000000000000e+00  -5.1869669954638005e-04 2.2748954394984798e-06 0.0000000000000000e+00  -5.6709782185500898e-04 8.1196684483221455e-06 0.0000000000000000e+00  -6.0211391515743457e-04 1.5888019489632013e-05 0.0000000000000000e+00  0.0000000000000000e+00 0.0000000000000000e+00 0.0000000000000000e+00  -2.2393630165264724e-05 -7.1722242477247448e-07 0.0000000000000000e+00  -4.5539955084381813e-05 -1.4502445792681612e-06 0.0000000000000000e+00  -7.0207401913046410e-05 -2.2136997756302842e-06 0.0000000000000000e+00  -9.7186593898402395e-05 -3.0191859610165100e-06 0.0000000000000000e+00  -1.2729574012714981e-04 -3.8727068399546706e-06 0.0000000000000000e+00  -1.6137747013364294e-04 -4.7706191470522338e-06 0.0000000000000000e+00  -2.0028186341020782e-04 -5.6931806542694737e-06 0.0000000000000000e+00  -2.4482815381516134e-04 -6.5943985235268246e-06 0.0000000000000000e+00  -2.9573468913704487e-04 -7.3863854691484068e-06 0.0000000000000000e+00  -3.5350354312267858e-04 -7.9159991133128107e-06 0.0000000000000000e+00  -4.1824376241246817e-04 -7.9316712601103330e-06 0.0000000000000000e+00  -4.8941803571807599e-04 -7.0402973204083857e-06 0.0000000000000000e+00  -5.6550648230389790e-04 -4.6605069236327992e-06 0.0000000000000000e+00  -6.4360650329768013e-04 6.0783579601344132e-09 0.0000000000000000e+00  -7.1903918925752359e-04 7.9357987705313259e-06 0.0000000000000000e+00  -7.8510979754579469e-04 2.0089301970460075e-05 0.0000000000000000e+00  0.0000000000000000e+00 0.0000000000000000e+00 0.0000000000000000e+00  -2.4239829502648745e-05 -8.0910940842910493e-07 0.0000000000000000e+00  -4.9347403530497049e-05 -1.6417921009618731e-06 0.0000000000000000e+00  -7.6214764888159957e-05 -2.5211976487291510e-06 0.0000000000000000e+00  -1.0577630064175850e-04 -3.4690055130516734e-06 0.0000000000000000e+00  -1.3902595247470504e-04 -4.5037059924791914e-06 0.0000000000000000e+00  -1.7702782750904163e-04 -5.6373600728336240e-06 0.0000000000000000e+00  -2.2091511980025204e-04 -6.8697002136127084e-06 0.0000000000000000e+00  -2.7186922592700616e-04 -8.1776820426215582e-06 0.0000000000000000e+00  -3.3106665499431495e-04 -9.4973730768406006e-06 0.0000000000000000e+00  -3.9957591627281852e-04 -1.0693211367529986e-05 0.0000000000000000e+00  -4.7818110721555343e-04 -1.1507243085519479e-05 0.0000000000000000e+00  -5.6710671037424397e-04 -1.1478878864609478e-05 0.0000000000000000e+00  -6.6562633442270112e-04 -9.8273265096734287e-06 0.0000000000000000e+00  -7.7156817105098916e-04 -5.3024618759734021e-06 0.0000000000000000e+00  -8.8078914641350956e-04 3.9502460299489927e-06 0.0000000000000000e+00  -9.8675186808132244e-04 2.0389014056689671e-05 0.0000000000000000e+00  0.0000000000000000e+00 0.0000000000000000e+00 0.0000000000000000e+00  -2.5220661232372173e-05 -8.7740846267150014e-07 0.0000000000000000e+00  -5.1403143290174176e-05 -1.7867353638429873e-06 0.0000000000000000e+00  -7.9543233725566035e-05 -2.7605480641496613e-06 0.0000000000000000e+00  -1.1070285583655998e-04 -3.8323161552286972e-06 0.0000000000000000e+00  -1.4604229008638298e-04 -5.0362117101411289e-06 0.0000000000000000e+00  -1.8684969072583287e-04 -6.4057778948407329e-06 0.0000000000000000e+00  -2.3456396840682248e-04 -7.9703830365698099e-06 0.0000000000000000e+00  -2.9078348383479745e-04 -9.7474025784972057e-06 0.0000000000000000e+00  -3.5724716517804186e-04 -1.1726227244623430e-05 0.0000000000000000e+00  -4.3576596146652132e-04 -1.3836784214380862e-05 0.0000000000000000e+00  -5.2807112487451510e-04 -1.5889231143587512e-05 0.0000000000000000e+00  -6.3553463278622619e-04 -1.7461836540374377e-05 0.0000000000000000e+00  -7.5871596999006188e-04 -1.7701906128915732e-05 0.0000000000000000e+00  -8.9672038862614173e-04 -1.4999589512525072e-05 0.0000000000000000e+00  -1.0464449943593031e-03 -6.5265691744404509e-06 0.0000000000000000e+00  -1.2019192091546984e-03 1.2250885063384079e-05 0.0000000000000000e+00  0.0000000000000000e+00 0.0000000000000000e+00 0.0000000000000000e+00  -2.5244034511260153e-05 -9.1385260170469261e-07 0.0000000000000000e+00  -5.1511671352412663e-05 -1.8674232383220321e-06 0.0000000000000000e+00  -7.9870188015517468e-05 -2.9023523087419642e-06 0.0000000000000000e+00  -1.1147786726228266e-04 -4.0640954456376033e-06 0.0000000000000000e+00  -1.4763311475218878e-04 -5.4038002085285500e-06 0.0000000000000000e+00  -1.8982685259002119e-04 -6.9799201839180015e-06 0.0000000000000000e+00  -2.3979685294209067e-04 -8.8589736173118544e-06 0.0000000000000000e+00  -2.9957909320872688e-04 -1.1114017103738944e-05 0.0000000000000000e+00  -3.7154442026645246e-04 -1.3817551317630527e-05 0.0000000000000000e+00  -4.5839670522989013e-04 -1.7021476150482891e-05 0.0000000000000000e+00  -5.6308885658767384e-04 -2.0707754079222320e-05 0.0000000000000000e+00  -6.8858505760329303e-04 -2.4674539963694269e-05 0.0000000000000000e+00  -8.3737021258819611e-04 -2.8285855520850818e-05 0.0000000000000000e+00  -1.0106176186193310e-03 -2.9954906809469238e-05 0.0000000000000000e+00  -1.2070664420651273e-03 -2.6187695377978241e-05 0.0000000000000000e+00  -1.4220514252269686e-03 -1.0133474641583716e-05 0.0000000000000000e+00  0.0000000000000000e+00 0.0000000000000000e+00 0.0000000000000000e+00  -2.4250481001961548e-05 -9.1074857337448082e-07 0.0000000000000000e+00  -4.9542414402472211e-05 -1.8671312131197028e-06 0.0000000000000000e+00  -7.6969200082902775e-05 -2.9179567985110116e-06 0.0000000000000000e+00  -1.0773748898232317e-04 -4.1187986225282594e-06 0.0000000000000000e+00  -1.4323284131806001e-04 -5.5361465568713082e-06 0.0000000000000000e+00  -1.8509638376642629e-04 -7.2525150790296908e-06 0.0000000000000000e+00  -2.3531543024990173e-04 -9.3728245891892962e-06 0.0000000000000000e+00  -2.9632879833485791e-04 -1.2032174632691955e-05 0.0000000000000000e+00  -3.7114171856930363e-04 -1.5404349259647415e-05 0.0000000000000000e+00  -4.6343192930764938e-04 -1.9707862422700355e-05 0.0000000000000000e+00  -5.7760108100572357e-04 -2.5198703568685078e-05 0.0000000000000000e+00  -7.1867446836300852e-04 -3.2116887093252183e-05 0.0000000000000000e+00  -8.9187156046272064e-04 -4.0493520152056755e-05 0.0000000000000000e+00  -1.1015900427746269e-03 -4.9575008310795918e-05 0.0000000000000000e+00  -1.3496395730841155e-03 -5.6331091288037445e-05 0.0000000000000000e+00  -1.6332194277202899e-03 -5.2320562652011463e-05 0.0000000000000000e+00  0.0000000000000000e+00 0.0000000000000000e+00 0.0000000000000000e+00  -2.2224407760460382e-05 -8.6229719074545237e-07 0.0000000000000000e+00  -4.5454009673874476e-05 -1.7729335874619366e-06 0.0000000000000000e+00  -7.0751032940424450e-05 -2.7843804053816268e-06 0.0000000000000000e+00  -9.9306059700706700e-05 -3.9582019110983536e-06 0.0000000000000000e+00  -1.3251671661389044e-04 -5.3711333544874927e-06 0.0000000000000000e+00  -1.7208570025406149e-04 -7.1233318623837718e-06 0.0000000000000000e+00  -2.2014686344538317e-04 -9.3501677462124473e-06 0.0000000000000000e+00  -2.7942906270918006e-04 -1.2239700754956943e-05 0.0000000000000000e+00  -3.5346609623484077e-04 -1.6059271310789075e-05 0.0000000000000000e+00  -4.4685255673682339e-04 -2.1196479145726583e-05 0.0000000000000000e+00  -5.6551879931226643e-04 -2.8221104074603857e-05 0.0000000000000000e+00  -7.1693035613627711e-04 -3.7968389934698178e-05 0.0000000000000000e+00  -9.0996604627083743e-04 -5.1599873050297934e-05 0.0000000000000000e+00  -1.1539507277394971e-03 -7.0395552128070619e-05 0.0000000000000000e+00  -1.4560870062498177e-03 -9.4282188511207989e-05 0.0000000000000000e+00  -1.8178539821092461e-03 -1.1667331767392883e-04 0.0000000000000000e+00  0.0000000000000000e+00 0.0000000000000000e+00 0.0000000000000000e+00  -1.9203842208523369e-05 -7.6589669720463250e-07 0.0000000000000000e+00  -3.9315893558613799e-05 -1.5785997490052275e-06 0.0000000000000000e+00  -6.1301567109115868e-05 -2.4894571346889256e-06 0.0000000000000000e+00  -8.6258001982909754e-05 -3.5599910503743582e-06 0.0000000000000000e+00  -1.1549858496089239e-04 -4.8689788829200207e-06 0.0000000000000000e+00  -1.5066370998058432e-04 -6.5224638864308004e-06 0.0000000000000000e+00  -1.9387253442267063e-04 -8.6687567408032389e-06 0.0000000000000000e+00  -2.4793635897136894e-04 -1.1522014680655862e-05 0.0000000000000000e+00  -3.1666154020403860e-04 -1.5401127304273643e-05 0.0000000000000000e+00  -4.0527569331882404e-04 -2.0797419528112426e-05 0.0000000000000000e+00  -5.2100497808292307e-04 -2.8499651820892017e-05 0.0000000000000000e+00  -6.7378094292173160e-04 -3.9836750906820132e-05 0.0000000000000000e+00  -8.7687495213214540e-04 -5.7155762243667461e-05 0.0000000000000000e+00  -1.1467166652608658e-03 -8.4676866332318411e-05 0.0000000000000000e+00  -1.4997588160561900e-03 -1.2918478056839238e-04 0.0000000000000000e+00  -1.9443936002727623e-03 -1.9196006543098487e-04 0.0000000000000000e+00  0.0000000000000000e+00 0.0000000000000000e+00 0.0000000000000000e+00  -1.5286667544401669e-05 -6.2314590478136660e-07 0.0000000000000000e+00  -3.1322830325592268e-05 -1.2868706264125200e-06 0.0000000000000000e+00  -4.8909186654773617e-05 -2.0360088174151056e-06 0.0000000000000000e+00  -6.8966303784630877e-05 -2.9250222723692681e-06 0.0000000000000000e+00  -9.2614414247539243e-05 -4.0248016447156035e-06 0.0000000000000000e+00  -1.2128225440728259e-04 -5.4323778756563948e-06 0.0000000000000000e+00  -1.5686373359163026e-04 -7.2855333708362812e-06 0.0000000000000000e+00  -2.0195203336259492e-04 -9.7856904896614132e-06 0.0000000000000000e+00  -2.6019858429582527e-04 -1.3235361818906907e-05 0.0000000000000000e+00  -3.3687251579723380e-04 -1.8103363356242998e-05 0.0000000000000000e+00  -4.3973605214339456e-04 -2.5149750574322790e-05 0.0000000000000000e+00  -5.8039075980790460e-04 -3.5698504288268888e-05 0.0000000000000000e+00  -7.7621607084221700e-04 -5.2322747433301501e-05 0.0000000000000000e+00  -1.0525937548507109e-03 -8.0783548005455239e-05 0.0000000000000000e+00  -1.4427356278681966e-03 -1.3614008614541787e-04 0.0000000000000000e+00  -1.9653225631639207e-03 -2.6726093609984229e-04 0.0000000000000000e+00  0.0000000000000000e+00 0.0000000000000000e+00 0.0000000000000000e+00  -1.0631396518459523e-05 -4.4028459448959686e-07 0.0000000000000000e+00  -2.1797946837363151e-05 -9.1050272601615201e-07 0.0000000000000000e+00  -3.4073552003289524e-05 -1.4438706818294751e-06 0.0000000000000000e+00  -4.8123855905409847e-05 -2.0810641470927771e-06 0.0000000000000000e+00  -6.4769032358915206e-05 -2.8754824926230087e-06 0.0000000000000000e+00  -8.5072020736674423e-05 -3.9006833984939319e-06 0.0000000000000000e+00  -1.1047030805919499e-04 -5.2612326763315864e-06 0.0000000000000000e+00  -1.4298201447996098e-04 -7.1086009774751597e-06 0.0000000000000000e+00  -1.8554063521955186e-04 -9.6638996109321809e-06 0.0000000000000000e+00  -2.4255733629150527e-04 -1.3248441194555601e-05 0.0000000000000000e+00  -3.2089491972562027e-04 -1.8320209031332636e-05 0.0000000000000000e+00  -4.3160310473427287e-04 -2.5511921551432113e-05 0.0000000000000000e+00  -5.9309699542603369e-04 -3.5698738797193008e-05 0.0000000000000000e+00  -8.3718155475304005e-04 -5.0387024071758988e-05 0.0000000000000000e+00  -1.2210463330820853e-03 -7.3975847144623801e-05 0.0000000000000000e+00  -1.8527514247161736e-03 -1.2353832789666259e-04 0.0000000000000000e+00  0.0000000000000000e+00 0.0000000000000000e+00 0.0000000000000000e+00  -5.4510757844261487e-06 -2.2791402127865063e-07 0.0000000000000000e+00  -1.1180880753613806e-05 -4.7170840727782456e-07 0.0000000000000000e+00  -1.7489031977286289e-05 -7.4904329783938126e-07 0.0000000000000000e+00  -2.4724939373401977e-05 -1.0816289353231276e-06 0.0000000000000000e+00  -3.3322482949233600e-05 -1.4980617692485161e-06 0.0000000000000000e+00  -4.3849672124148052e-05 -2.0377530726256349e-06 0.0000000000000000e+00  -5.7084562493225098e-05 -2.7563912057293015e-06 0.0000000000000000e+00  -7.4137415131596347e-05 -3.7330162512297758e-06 0.0000000000000000e+00  -9.6656102379251836e-05 -5.0768961472789315e-06 0.0000000000000000e+00  -1.2718517825918165e-04 -6.9249589284240550e-06 0.0000000000000000e+00  -1.6981247293645360e-04 -9.3935526899558250e-06 0.0000000000000000e+00  -2.3133873885706533e-04 -1.2353149686318865e-05 0.0000000000000000e+00  -3.2324814848635217e-04 -1.4568588955013577e-05 0.0000000000000000e+00  -4.6394862878138102e-04 -1.0728856070798147e-05 0.0000000000000000e+00  -6.7504300177326964e-04 1.7255982120409948e-05 0.0000000000000000e+00  -9.4420757232668493e-04 1.1369001085620387e-04 0.0000000000000000e+00  0.0000000000000000e+00 0.0000000000000000e+00 0.0000000000000000e+00  0.0000000000000000e+00 0.0000000000000000e+00 0.0000000000000000e+00  0.0000000000000000e+00 0.0000000000000000e+00 0.0000000000000000e+00  0.0000000000000000e+00 0.0000000000000000e+00 0.0000000000000000e+00  0.0000000000000000e+00 0.0000000000000000e+00 0.0000000000000000e+00  0.0000000000000000e+00 0.0000000000000000e+00 0.