<?xml version="1.0"?>
<VTKFile type="UnstructuredGrid"  version="0.1"  >
<UnstructuredGrid>
<Piece  NumberOfPoints="289" NumberOfCells="512">
<Points>
<DataArray  type="Float64"  NumberOfComponents="3"  format="ascii">0 0 0  0.0625 0 0  0.125 0 0  0.1875 0 0  0.25 0 0  0.3125 0 0  0.375 0 0  0.4375 0 0  0.5 0 0  0.5625 0 0  0.625 0 0  0.6875 0 0  0.75 0 0  0.8125 0 0  0.875 0 0  0.9375 0 0  1 0 0  0 0.0625 0  0.0625383381069682 0.06249955972205862 0  0.1250777450834433 0.06249910907041832 0  0.1876192814601369 0.06249863809967411 0  0.2501639856960988 0.06249813782879426 0  0.3127128518788037 0.06249760096381712 0  0.3752667942982086 0.06249702291482614 0  0.4378265960607939 0.06249640320480756 0  0.5003928423499603 0.0624957473433374 0  0.5629658473529136 0.06249506915233249 0  0.6255456042029532 0.06249439324500819 0  0.6881318391227093 0.06249375629170929 0  0.7507243966426269 0.06249320123816499 0  0.8133246403308696 0.06249273860063108 0  0.875940143058093 0.06249215586507977 0  0.9386009415659822 0.0624901143547659 0  1.00141999009377 0.06247983299791304 0  0 0.125 0  0.06257562841175709 0.1249991295095137 0  0.125153405788333 0.1249982378033168 0  0.1877354690650695 0.1249973044266497 0  0.2503239203118867 0.1249963106592391 0  0.3129207862896414 0.1249952408615318 0  0.3755279503637934 0.1249940844165101 0  0.4381470488761833 0.1249928384856928 0  0.5007793281516505 0.1249915117891219 0  0.5634254682440866 0.1249901295879186 0  0.6260854006846862 0.124988740061109 0  0.6887581888167493 0.1249874227814037 0  0.751442111465158 0.1249863033997806 0  0.8141351780048197 0.1249855969481991 0  0.876836172858527 0.1249857955775047 0  0.9395444390867476 0.124988589914135 0  1.002244225213007 0.1250015232932921 0  0 0.1875 0  0.06261079050546049 0.1874987202097577 0  0.1252248254657624 0.1874974075533714 0  0.1878453428754848 0.1874960300696029 0  0.2504755518456601 0.187494557914318 0  0.3131185832492022 0.1874929651214368 0  0.3757773968147129 0.1874912322557587 0  0.4384546288050559 0.1874893503168974 0  0.5011523660483256 0.1874873262665335 0  0.5638718381001074 0.1874851905079253 0  0.6266130322441981 0.1874830065014707 0  0.6893742557105297 0.1874808823899756 0  0.7521516821958751 0.1874789837192196 0  0.8149388646217693 0.1874775423652509 0  0.8777258784876537 0.1874768293844289 0  0.9404967324083717 0.1874768754906058 0  1.003221867038673 0.1874755672746949 0  0 0.25 0  0.06264272877832931 0.2499983434757332 0  0.1252898077646836 0.2499966414754396 0  0.1879456000697101 0.2499948492977282 0  0.2506144744022525 0.2499929241707581 0  0.3133007623223112 0.2499908271028617 0  0.3760086563553887 0.249988525890541 0  0.4387420229478877 0.2499859998071955 0  0.5015041010616904 0.249983246567024 0  0.5642970566598386 0.2499802921493507 0  0.6271213680377629 0.2499772038254329 0  0.6899750283898649 0.2499741058942619 0  0.7528525657523291 0.2499711953070336 0  0.8157438779307077 0.2499687482067552 0  0.8786328302438 0.2499670933654719 0  0.9414955133467067 0.2499665056035923 0  1.004298566512992 0.2499670706615109 0  0 0.3125 0  0.06267033765437477 0.31249801191468 0  0.1253461225256157 0.3124959649081922 0  0.1880328517765323 0.3124938003618435 0  0.2507360999652872 0.3124914606763332 0  0.313461505350036 0.3124888907701761 0  0.3762146850959039 0.3124860409206319 0  0.4390010425229552 0.3124828716489699 0  0.5018254193748657 0.3124793615512769 0  0.5646915362388624 0.3124755191567978 0  0.6276011590822652 0.3124713999143862 0  0.6905529374240894 0.312467128943484 0  0.7535408935934802 0.3124629286489071 0  0.8165526263784961 0.3124591470621001 0  0.8795674730536344 0.3124562793957637 0  0.942555260432697 0.3124549860019018 0  1.005477098909052 0.3124561943322088 0  0 0.375 0  0.06269252070123416 0.3749977389618185 0  0.1253915400779137 0.3749954051897064 0  0.1881036637556741 0.3749929254041113 0  0.250835689739855 0.3749902256226279 0  0.3135946525215104 0.3749872317635981 0  0.3763877924178469 0.3749838716157881 0  0.4392224041137314 0.3749800790201825 0  0.5021054990333188 0.3749758014949697 0  0.565043192486868 0.3749710130534737 0  0.6280397032855162 0.3749657345734932 0  0.6910958434787228 0.3749600645868826 0  0.7542069070864389 0.3749542232566125 0  0.8173599926152444 0.3749486104461795 0  0.8805311021409845 0.3749438727866027 0  0.9436829586361809 0.374940958459291 0  1.006765409689807 0.3749410866511746 0  0 0.4375 0  0.06270822751089303 0.4374975384114507 0  0.1254239026977004 0.4374949907541277 0  0.1881546565803292 0.4374922692094479 0  0.2509084709145612 0.4374892827409391 0  0.3136938126273852 0.4374859362108602 0  0.3765197036973369 0.4374821306252151 0  0.4393956766254727 0.4374777653741949 0  0.5023315359269606 0.4374727438986718 0  0.5653368035972549 0.4374669851190678 0  0.6284196721206547 0.4374604443631485 0  0.6915852326297202 0.4374531495567341 0  0.7548327208465857 0.4374452609798601 0  0.8181516049278947 0.4374371648507852 0  0.8815166682713904 0.4374296083800487 0  0.9448830170873088 0.4374238656493559 0  1.008183311934421 0.4374218668735525 0  0 0.5 0  0.06271651062468916 0.4999974235716276 0  0.1254412390271995 0.4999947494213153 0  0.1881826773905878 0.4999918766105836 0  0.2509498618288091 0.4999886978525103 0  0.3137526283908998 0.4999850966010731 0  0.3766018339831753 0.4999809446901527 0  0.4395094990371635 0.4999761011831811 0  0.5024887908040997 0.4999704137211137 0  0.565553703875028 0.4999637248004915 0  0.6287181983511445 0.4999558874849098 0  0.6919944210321887 0.4999467987520372 0  0.7553894771074261 0.4999364650514762 0  0.8189001136258127 0.4999251246796564 0  0.8825048221442116 0.4999134638534176 0  0.9461536767510528 0.499902966007851 0  1.00975831865338 0.4998963849697813 0  0 0.5625 0  0.06271660190743829 0.5624974060623691 0  0.1254419215717722 0.5624947058995089 0  0.1881850470680848 0.5624917885178926 0  0.250955818690547 0.5624885331962601 0  0.3137652285474422 0.5624848042085131 0  0.3766258367236314 0.56248044517204 0  0.4395521835864746 0.5624752731828077 0  0.5025611399560855 0.5624690733570232 0  0.5656720642680453 0.5624615953685078 0  0.6289065026961344 0.5624525556135725 0  0.692286937378093 0.5624416529756671 0  0.7558337205168639 0.5624286154855294 0  0.8195588311389135 0.5624133151056517 0  0.8834546282634086 0.5623960283209317 0  0.9474759663654254 0.562377988845662 0  1.01151635631535 0.5623624255860949 0  0 0.625 0  0.06270800360989824 0.6249974943510224 0  0.1254248586994566 0.6249948786778703 0  0.1881598729230363 0.6249920368028506 0  0.2509232979383278 0.6249888397359837 0  0.3137268752286373 0.6249851380596932 0  0.3765844694790656 0.6249807527889921 0  0.4395128110176936 0.6249754641119432 0  0.5025323469510085 0.6249689974316085 0  0.565668143707633 0.6249610063462988 0  0.6289506509278946 0.6249510529625584 0  0.6924158492813625 0.6249385881727375 0  0.7561037245375871 0.6249229410828365 0  0.820052936428321 0.6249033467648271 0  0.8842878307271018 0.6248791043135115 0  0.9487919553919608 0.6248501536791662 0  1.013462228291128 0.6248189581748661 0  0 0.6875 0  0.06269058425600786 0.6874976922022539 0  0.1253897014098001 0.6874952766738243 0  0.1881063979103162 0.6874926386004768 0  0.2508507988560579 0.687489648209156 0  0.3136347731880159 0.6874861513338967 0  0.3764727650478655 0.6874819573313691 0  0.4393828702562077 0.6874768229126477 0  0.5023882512819605 0.687470429874407 0  0.5655189842087435 0.6874623537892628 0  0.6288143786430369 0.6874520191593434 0  0.6923256085360541 0.6874386336291231 0  0.7561179055110743 0.6874210879796109 0  0.8202700835076769 0.6873977976477438 0  0.8848658029536854 0.6873664512171224 0  0.9499644194436067 0.6873236818923275 0  1.015529715290846 0.6872650613336073 0  0 0.75 0  0.06266466439957981 0.7499979972943204 0  0.1253370333687832 0.7499958961755642 0  0.1880253354919104 0.7499935909366897 0  0.250738913260817 0.749990960308316 0  0.3134889454760444 0.7499878572303682 0  0.376289400905839 0.7499840951876046 0  0.4391583608783381 0.7499794290184956 0  0.5021199138739207 0.7499735270113705 0  0.5652069221183514 0.7499659292383321 0  0.6284650881845281 0.7499559837067913 0  0.6919588700293499 0.749942744936366 0  0.7557797303546789 0.7499248020687472 0  0.8200563514473498 0.7498999516671643 0  0.8849629419994675 0.7498644677279938 0  0.950710746023956 0.7498112655552948 0  1.017480695252435 0.7497254205663617 0  0 0.8125 0  0.06263107379219925 0.8124984002906667 0  0.1252685037625735 0.8124967187194158 0  0.1879191202864496 0.8124948668085141 0  0.2505907712526135 0.812492741858415 0  0.3132930078569212 0.8124902173213447 0  0.376038027398598 0.8124871295647705 0  0.4388420469568303 0.8124832586810019 0  0.5017273924181229 0.8124782996529981 0  0.5647257847397632 0.8124718179608914 0  0.6278836592449724 0.8124631801605776 0  0.6912709872476533 0.8124514445056027 0  0.7549961740885951 0.812435187621782 0  0.8192313469934832 0.8124122165168628 0  0.8842540490340338 0.8123789556145873 0  0.9505068471943856 0.8123282039214192 0  1.018630550334784 0.81223734505427 0  0 0.875 0  0.06259116151670965 0.8749988846320635 0  0.1251868609782178 0.87499771050409 0  0.1877919973903887 0.8749964138210596 0  0.2504122497495308 0.8749949199072411 0  0.3130546172582905 0.8749931356879364 0  0.3757281831899281 0.8749909391368432 0  0.4384452661388437 0.8749881636065255 0  0.501223243252616 0.8749845736252913 0  0.5640875650650468 0.8749798264341769 0  0.6270769546625827 0.8749734098249807 0  0.6902527798206184 0.8749645425068556 0  0.7537168005316562 0.8749520278806734 0  0.8176467654612697 0.8749341254539279 0  0.8823731153597472 0.8749089735238909 0  0.9485615128644324 0.8748787028737836 0  1.017721390052803 0.8748742621307254 0  0 0.9375 0  0.06254674572915275 0.9374994272191527 0  0.1250958551117756 0.9374988237413935 0  0.1876498869815372 0.9374981561505302 0  0.2502118234859648 0.9374973851353093 0  0.3127853679412143 0.9374964613641159 0  0.3753753728490266 0.9374953196144542 0  0.4379884974926546 0.937493869890
[...]
<PointData  Vectors="f_54"> 
<DataArray  type="Float64"  Name="f_54"  NumberOfComponents="3" format="ascii">0.0000000000000000e+00 0.0000000000000000e+00 0.0000000000000000e+00  0.0000000000000000e+00 0.0000000000000000e+00 0.0000000000000000e+00  0.0000000000000000e+00 0.0000000000000000e+00 0.0000000000000000e+00  0.0000000000000000e+00 0.0000000000000000e+00 0.0000000000000000e+00  0.0000000000000000e+00 0.0000000000000000e+00 0.0000000000000000e+00  0.0000000000000000e+00 0.0000000000000000e+00 0.0000000000000000e+00  0.0000000000000000e+00 0.0000000000000000e+00 0.0000000000000000e+00  0.0000000000000000e+00 0.0000000000000000e+00 0.0000000000000000e+00  0.0000000000000000e+00 0.0000000000000000e+00 0.0000000000000000e+00  0.0000000000000000e+00 0.0000000000000000e+00 0.0000000000000000e+00  0.0000000000000000e+00 0.0000000000000000e+00 0.0000000000000000e+00  0.0000000000000000e+00 0.0000000000000000e+00 0.0000000000000000e+00  0.0000000000000000e+00 0.0000000000000000e+00 0.0000000000000000e+00  0.0000000000000000e+00 0.0000000000000000e+00 0.0000000000000000e+00  0.0000000000000000e+00 0.0000000000000000e+00 0.0000000000000000e+00  0.0000000000000000e+00 0.0000000000000000e+00 0.0000000000000000e+00  0.0000000000000000e+00 0.0000000000000000e+00 0.0000000000000000e+00  0.0000000000000000e+00 0.0000000000000000e+00 0.0000000000000000e+00  3.9258360433263730e-06 -8.3486986046057258e-08 0.0000000000000000e+00  7.9714440530322398e-06 -1.6953060684071354e-07 0.0000000000000000e+00  1.2257265947324008e-05 -2.6067438273838554e-07 0.0000000000000000e+00  1.6904489730464487e-05 -3.5941123158645086e-07 0.0000000000000000e+00  2.2034519351621655e-05 -4.6810676094617087e-07 0.0000000000000000e+00  2.7767402474858596e-05 -5.8885330449844247e-07 0.0000000000000000e+00  3.4219083634165205e-05 -7.2322085131179077e-07 0.0000000000000000e+00  4.1497898262525701e-05 -8.7186671339531740e-07 0.0000000000000000e+00  4.9702209658426802e-05 -1.0339728862558817e-06 0.0000000000000000e+00  5.8925036584048842e-05 -1.2065270459553384e-06 0.0000000000000000e+00  6.9282309671280309e-05 -1.3836505089294037e-06 0.0000000000000000e+00  8.1012826301262076e-05 -1.5569090703980413e-06 0.0000000000000000e+00  9.4797131124148547e-05 -1.7205921560096515e-06 0.0000000000000000e+00  1.1278233122621854e-04 -1.8994300742098027e-06 0.0000000000000000e+00  1.4206036960155168e-04 -2.2785487270865991e-06 0.0000000000000000e+00  2.0743867470860176e-04 -3.8173177066882290e-06 0.0000000000000000e+00  0.0000000000000000e+00 0.0000000000000000e+00 0.0000000000000000e+00  7.7367459342840728e-06 -1.6452042512091861e-07 0.0000000000000000e+00  1.5713079068699894e-05 -3.3418245676225295e-07 0.0000000000000000e+00  2.4170326325660278e-05 -5.1412153407297311e-07 0.0000000000000000e+00  3.3352117754213520e-05 -7.0941499716642844e-07 0.0000000000000000e+00  4.3503669649270355e-05 -9.2495608194135321e-07 0.0000000000000000e+00  5.4868780740732180e-05 -1.1651946529885234e-06 0.0000000000000000e+00  6.7683897587535489e-05 -1.4336739780133543e-06 0.0000000000000000e+00  8.2169128713908217e-05 -1.7322744791791815e-06 0.0000000000000000e+00  9.8517549937418106e-05 -2.0600605753411444e-06 0.0000000000000000e+00  1.1688767280554394e-04 -2.4116186565837504e-06 0.0000000000000000e+00  1.3741172581739462e-04 -2.7747356783961623e-06 0.0000000000000000e+00  1.6024780757132204e-04 -3.1269114886300992e-06 0.0000000000000000e+00  1.8572711836906263e-04 -3.4279169314222217e-06 0.0000000000000000e+00  2.1464009537335311e-04 -3.5930863993124085e-06 0.0000000000000000e+00  2.4838250467350113e-04 -3.3669231384552622e-06 0.0000000000000000e+00  2.8637451193420184e-04 -1.6831645757372572e-06 0.0000000000000000e+00  0.0000000000000000e+00 0.0000000000000000e+00 0.0000000000000000e+00  1.1312832858082985e-05 -2.4051370624138583e-07 0.0000000000000000e+00  2.2984164635346567e-05 -4.8877810108212795e-07 0.0000000000000000e+00  3.5376072218691010e-05 -7.5258161206880650e-07 0.0000000000000000e+00  4.8856097643950394e-05 -1.0397277840121991e-06 0.0000000000000000e+00  6.3797151389403684e-05 -1.3579144368689226e-06 0.0000000000000000e+00  8.0573730406333075e-05 -1.7144309669239037e-06 0.0000000000000000e+00  9.9552881597415633e-05 -2.1155672010386451e-06 0.0000000000000000e+00  1.2107828001106119e-04 -2.5655887681052006e-06 0.0000000000000000e+00  1.4544607785634542e-04 -3.0650933535675079e-06 0.0000000000000000e+00  1.7287204793281591e-04 -3.6085359427228634e-06 0.0000000000000000e+00  2.0345072460270063e-04 -4.1807357818770862e-06 0.0000000000000000e+00  2.3710587902593582e-04 -4.7523549209969438e-06 0.0000000000000000e+00  2.7351525748699684e-04 -5.2751486883330941e-06 0.0000000000000000e+00  3.1191913397002672e-04 -5.6822315305181608e-06 0.0000000000000000e+00  3.5048448954892475e-04 -5.9256413170185343e-06 0.0000000000000000e+00  3.8439259720782334e-04 -6.2478644346178998e-06 0.0000000000000000e+00  0.0000000000000000e+00 0.0000000000000000e+00 0.0000000000000000e+00  1.4535153351925716e-05 -3.0885733433307966e-07 0.0000000000000000e+00  2.9545083139584958e-05 -6.2805707678392201e-07 0.0000000000000000e+00  4.5511102291847815e-05 -9.6807147184142226e-07 0.0000000000000000e+00  6.2925560899962284e-05 -1.3395684028380555e-06 0.0000000000000000e+00  8.2293792521670814e-05 -1.7533732194437914e-06 0.0000000000000000e+00  1.0413114108586713e-04 -2.2202290562921310e-06 0.0000000000000000e+00  1.2895242043368686e-04 -2.7502208871478145e-06 0.0000000000000000e+00  1.5725026671406216e-04 -3.3516628166416679e-06 0.0000000000000000e+00  1.8945767849472305e-04 -4.0291643292963150e-06 0.0000000000000000e+00  2.2588842763823769e-04 -4.7805096798184306e-06 0.0000000000000000e+00  2.6664629340512099e-04 -5.5919731608039554e-06 0.0000000000000000e+00  3.1148814565380061e-04 -6.4319367512797193e-06 0.0000000000000000e+00  3.5961178354718397e-04 -7.2436250531699840e-06 0.0000000000000000e+00  4.0930973309882850e-04 -7.9402658524079898e-06 0.0000000000000000e+00  4.5739361922128899e-04 -8.4095297605209736e-06 0.0000000000000000e+00  4.9836908558880452e-04 -8.5173251136434686e-06 0.0000000000000000e+00  0.0000000000000000e+00 0.0000000000000000e+00 0.0000000000000000e+00  1.7287468984708970e-05 -3.6696093197258752e-07 0.0000000000000000e+00  3.5160480039103258e-05 -7.4674843604425242e-07 0.0000000000000000e+00  5.4215447698036482e-05 -1.1524611633708713e-06 0.0000000000000000e+00  7.5068447880229967e-05 -1.5976888612764268e-06 0.0000000000000000e+00  9.8361256772909740e-05 -2.0966478639551843e-06 0.0000000000000000e+00  1.2476187083273961e-04 -2.6641401215823290e-06 0.0000000000000000e+00  1.5495599031392242e-04 -3.3151926507130758e-06 0.0000000000000000e+00  1.8962423449205238e-04 -4.0641378453808520e-06 0.0000000000000000e+00  2.2939736325010702e-04 -4.9227463754550884e-06 0.0000000000000000e+00  2.7477828391528466e-04 -5.8968176126182942e-06 0.0000000000000000e+00  3.2601497209305092e-04 -6.9803976920580520e-06 0.0000000000000000e+00  3.8290299784975049e-04 -8.1466555977163680e-06 0.0000000000000000e+00  4.4449270731339459e-04 -9.3346892137000553e-06 0.0000000000000000e+00  5.0868466280782265e-04 -1.0432499915729362e-05 0.0000000000000000e+00  5.7175107435020450e-04 -1.1257421549367339e-05 0.0000000000000000e+00  6.2800458753380030e-04 -1.1531498315295423e-05 0.0000000000000000e+00  0.0000000000000000e+00 0.0000000000000000e+00 0.0000000000000000e+00  1.9459143019901800e-05 -4.1234379907445029e-07 0.0000000000000000e+00  3.9604791163619016e-05 -8.3974971258379649e-07 0.0000000000000000e+00  6.1140090167833541e-05 -1.2977337241935509e-06 0.0000000000000000e+00  8.4799751830707539e-05 -1.8026939316931531e-06 0.0000000000000000e+00  1.1136265550792899e-04 -2.3723069399112194e-06 0.0000000000000000e+00  1.4165944667996210e-04 -3.0258312058318345e-06 0.0000000000000000e+00  1.7657131003057236e-04 -3.7842036965323852e-06 0.0000000000000000e+00  2.1701372050261702e-04 -4.6697022686911591e-06 0.0000000000000000e+00  2.6389533034299639e-04 -5.7047364714031873e-06 0.0000000000000000e+00  3.1803685640445397e-04 -6.9089634576480837e-06 0.0000000000000000e+00  3.8002784633720714e-04 -8.2933366047181502e-06 0.0000000000000000e+00  4.4999179842624695e-04 -9.8488719427884487e-06 0.0000000000000000e+00  5.2722728869958910e-04 -1.1527092796395266e-05 0.0000000000000000e+00  6.0970819009410358e-04 -1.3209214049554315e-05 0.0000000000000000e+00  6.9348940405991946e-04 -1.4664869328137006e-05 0.0000000000000000e+00  7.7222291670893395e-04 -1.5516181661443689e-05 0.0000000000000000e+00  0.0000000000000000e+00 0.0000000000000000e+00 0.0000000000000000e+00  2.0949442799124372e-05 -4.4277600259165098e-07 0.0000000000000000e+00  4.2670787963354894e-05 -9.0241957067476474e-07 0.0000000000000000e+00  6.5959525421011708e-05 -1.3964487921787786e-06 0.0000000000000000e+00  9.1657457622247652e-05 -1.9436988929411780e-06 0.0000000000000000e+00  1.2067432236870283e-04 -2.5650373177531814e-06 0.0000000000000000e+00  1.5400640733417774e-04 -3.2841296120023017e-06 0.0000000000000000e+00  1.9274891756787248e-04 -4.1282268520293363e-06 0.0000000000000000e+00  2.3809617098246048e-04 -5.1288546677917125e-06 0.0000000000000000e+00  2.9131923794424878e-04 -6.3220722597460466e-06 0.0000000000000000e+00  3.5370353570163466e-04 -7.7475068484469092e-06 0.0000000000000000e+00  4.2641823292856220e-04 -9.4444240562555742e-06 0.0000000000000000e+00  5.1027494759464502e-04 -1.1441329977927625e-05 0.0000000000000000e+00  6.0531772293579431e-04 -1.3732727278823916e-05 0.0000000000000000e+00  7.1017917176350481e-04 -1.6233103883153031e-05 0.0000000000000000e+00  8.2116206545943470e-04 -1.8697107743055648e-05 0.0000000000000000e+00  9.3110485289858496e-04 -2.0605804939480365e-05 0.0000000000000000e+00  0.0000000000000000e+00 0.0000000000000000e+00 0.0000000000000000e+00  2.1673301755977343e-05 -4.5645942658445547e-07 0.0000000000000000e+00  4.4181355988664697e-05 -9.3096456295831343e-07 0.0000000000000000e+00  6.8390000586953569e-05 -1.4423865724876658e-06 0.0000000000000000e+00  9.5227694744746787e-05 -2.0113116252389245e-06 0.0000000000000000e+00  1.2571799240948601e-04 -2.6610726978915053e-06 0.0000000000000000e+00  1.6101259090328749e-04 -3.4190145291332780e-06 0.0000000000000000e+00  2.0242343414591767e-04 -4.3181028603390537e-06 0.0000000000000000e+00  2.5144998542416582e-04 -5.3989886880341371e-06 0.0000000000000000e+00  3.0979336823446288e-04 -6.7125554260660446e-06 0.0000000000000000e+00  3.7934102900072771e-04 -8.3226460717545578e-06 0.0000000000000000e+00  4.6209135861473207e-04 -1.0307695181412825e-05 0.0000000000000000e+00  5.5996362982113938e-04 -1.2757536604015964e-05 0.0000000000000000e+00  6.7440038689542728e-04 -1.5756183875620757e-05 0.0000000000000000e+00  8.0561497819177927e-04 -1.9330802755440486e-05 0.0000000000000000e+00  9.5127430851890519e-04 -2.3330871666594416e-05 0.0000000000000000e+00  1.1043732913894233e-03 -2.7188392806892131e-05 0.0000000000000000e+00  0.0000000000000000e+00 0.0000000000000000e+00 0.0000000000000000e+00  2.1568282335855064e-05 -4.5222416626824197e-07 0.0000000000000000e+00  4.4004057027205435e-05 -9.2286860451128997e-07 0.0000000000000000e+00  6.8212957200498107e-05 -1.4312913444465360e-06 0.0000000000000000e+00  9.5178974991614817e-05 -1.9988307169226572e-06 0.0000000000000000e+00  1.2600827440559207e-04 -2.6500684210085050e-06 0.0000000000000000e+00  1.6197846005859112e-04 -3.4144930974891555e-06 0.0000000000000000e+00  2.0459466574816832e-04 -4.3288384739602102e-06 0.0000000000000000e+00  2.5565271402506183e-04 -5.4405255540681141e-06 0.0000000000000000e+00  3.1730682120045074e-04 -6.8128540746065667e-06 0.0000000000000000e+00  3.9213292158198873e-04 -8.5327901989316982e-06 0.0000000000000000e+00  4.8316465668614541e-04 -1.0722046847475260e-05 0.0000000000000000e+00  5.9384954604347609e-04 -1.3550547228618469e-05 0.0000000000000000e+00  7.2781334254889182e-04 -1.7245281725888066e-05 0.0000000000000000e+00  8.8820742784344211e-04 -2.2069995138324417e-05 0.0000000000000000e+00  1.0762165662895646e-03 -2.8209209489530199e-05 0.0000000000000000e+00  1.2880006160582206e-03 -3.5411053863994764e-05 0.0000000000000000e+00  0.0000000000000000e+00 0.0000000000000000e+00 0.0000000000000000e+00  2.0602102441489770e-05 -4.2970377399706145e-07 0.0000000000000000e+00  4.2067191425180343e-05 -8.7728461324589423e-07 0.0000000000000000e+00  6.5301760621887080e-05 -1.3615745108062861e-06 0.0000000000000000e+00  9.1303061634947542e-05 -1.9034380866098819e-06 0.0000000000000000e+00  1.2121277012311321e-04 -2.5270983022712859e-06 0.0000000000000000e+00  1.5638148976583258e-04 -3.2619393046812380e-06 0.0000000000000000e+00  1.9844914147238300e-04 -4.1451703898478967e-06 0.0000000000000000e+00  2.4944740605074655e-04 -5.2260499680065336e-06 0.0000000000000000e+00  3.1193129518404089e-04 -6.5729677821293960e-06 0.0000000000000000e+00  3.8914634462548851e-04 -8.2857781128473122e-06 0.0000000000000000e+00  4.8523232482095859e-04 -1.0517598304091881e-05 0.0000000000000000e+00  6.0544460330051806e-04 -1.3512657683888473e-05 0.0000000000000000e+00  7.5631819862347874e-04 -1.7667340659659111e-05 0.0000000000000000e+00  9.4555802024737863e-04 -2.3610005321973513e-05 0.0000000000000000e+00  1.1811174681663561e-03 -3.2237887812441907e-05 0.0000000000000000e+00  1.4682831663534305e-03 -4.4457356160555270e-05 0.0000000000000000e+00  0.0000000000000000e+00 0.0000000000000000e+00 0.0000000000000000e+00  1.8779719487087737e-05 -3.8944849068118131e-07 0.0000000000000000e+00  3.8375234843441322e-05 -7.9529386469513348e-07 0.0000000000000000e+00  5.9648247698233136e-05 -1.2347999138761972e-06 0.0000000000000000e+00  8.3557357192733073e-05 -1.7270726929519975e-06 0.0000000000000000e+00  1.1121780049602345e-04 -2.2942369141455798e-06 0.0000000000000000e+00  1.4397667200043455e-04 -2.9630129890981303e-06 0.0000000000000000e+00  1.8351228683463202e-04 -3.7670440788924717e-06 0.0000000000000000e+00  2.3197021832390891e-04 -4.7506759436777278e-06 0.0000000000000000e+00  2.9215458874023054e-04 -5.9756867761106061e-06 0.0000000000000000e+00  3.6780234455313486e-04 -7.5342676886660056e-06 0.0000000000000000e+00  4.6398108767448809e-04 -9.5756359730302613e-06 0.0000000000000000e+00  5.8766537991086993e-04 -1.2362655023350318e-05 0.0000000000000000e+00  7.4854860850813573e-04 -1.6393245288465595e-05 0.0000000000000000e+00  9.6008595052897168e-04 -2.2652635162023298e-05 0.0000000000000000e+00  1.2404864073189761e-03 -3.3089015925345719e-05 0.0000000000000000e+00  1.6125358309637496e-03 -5.1319544371951015e-05 0.0000000000000000e+00  0.0000000000000000e+00 0.0000000000000000e+00 0.0000000000000000e+00  1.6148711805495746e-05 -3.3294380937738829e-07 0.0000000000000000e+00  3.3020904231830063e-05 -6.7995367434987684e-07 0.0000000000000000e+00  5.1384379295966734e-05 -1.0557898210677698e-06 0.0000000000000000e+00  7.2101324840271889e-05 -1.4766666513044370e-06 0.0000000000000000e+00  9.6188294974396981e-05 -1.9611016467895884e-06 0.0000000000000000e+00  1.2489419077238626e-04 -2.5309390914244035e-06 0.0000000000000000e+00  1.5980727315461162e-04 -3.2126813219160586e-06 0.0000000000000000e+00  2.0300832680744142e-04 -4.0394216164368558e-06 0.0000000000000000e+00  2.5729774932683840e-04 -5.0541348221275292e-06 0.0000000000000000e+00  3.2654341797705774e-04 -6.3164269277032069e-06 0.0000000000000000e+00  4.1623134363203052e-04 -7.9188025005855772e-06 0.0000000000000000e+00  5.3436736064277899e-04 -1.0030217935741094e-05 0.0000000000000000e+00  6.9300202068201314e-04 -1.3019172530211365e-05 0.0000000000000000e+00  9.1086309814470854e-04 -1.7807046354598793e-05 0.0000000000000000e+00  1.2178372909502054e-03 -2.6856692375728245e-05 0.0000000000000000e+00  1.6619781111164545e-03 -4.6689878728994008e-05 0.0000000000000000e+00  0.0000000000000000e+00 0.0000000000000000e+00 0.0000000000000000e+00  1.2801666200657169e-05 -2.6252388005745026e-07 0.0000000000000000e+00  2.6190969349997106e-05 -5.3610428188845223e-07 0.0000000000000000e+00  4.0793841420884384e-05 -8.3228005401439683e-07 0.0000000000000000e+00  5.7318277973796937e-05 -1.1635690856190741e-06 0.0000000000000000e+00  7.6607560319546952e-05 -1.5439266418298159e-06 0.0000000000000000e+00  9.9710883100901940e-05 -1.9891043826710031e-06 0.0000000000000000e+00  1.2798253087004541e-04 -2.5167349198372710e-06 0.0000000000000000e+00  1.6322742513971616e-04 -3.1457580458847723e-06 0.0000000000000000e+00  2.0792300008657460e-04 -3.8944071701901825e-06 0.0000000000000000e+00  2.6557033643390902e-04 -4.7752992873837079e-06 0.0000000000000000e+00  3.4127365439080598e-04 -5.7853842220273044e-06 0.0000000000000000e+00  4.4274739427937923e-04 -6.8894653514317463e-06 0.0000000000000000e+00  5.8218594046414854e-04 -8.0095025131247894e-06 0.0000000000000000e+00  7.8002300980418581e-04 -9.1140905585923102e-06 0.0000000000000000e+00  1.0730526016530331e-03 -1.0938411700780824e-05 0.0000000000000000e+00  1.5315588913212877e-03 -1.8982400437869728e-05 0.0000000000000000e+00  0.0000000000000000e+00 0.0000000000000000e+00 0.0000000000000000e+00  8.8745478051763853e-06 -1.8119954254069135e-07 0.0000000000000000e+00  1.8163463345138044e-05 -3.6997976219089192e-07 0.0000000000000000e+00  2.8309227395249148e-05 -5.7420326220024337e-07 0.0000000000000000e+00  3.9814799775161010e-05 -8.0227630905226867e-07 0.0000000000000000e+00  5.3283303478326458e-05 -1.0632982907043138e-06 0.0000000000000000e+00  6.9471262236771346e-05 -1.3669475040873782e-06 0.0000000000000000e+00  8.9364165067542704e-05 -1.7227320584644276e-06 0.0000000000000000e+00  1.1428840555280700e-04 -2.1377485344638572e-06 0.0000000000000000e+00  1.4608308254487375e-04 -2.6109525764961783e-06 0.0000000000000000e+00  1.8737259204193362e-04 -3.1191985761145549e-06 0.0000000000000000e+00  2.4201507113857471e-04 -3.5834017349374355e-06 0.0000000000000000e+00  3.1587528388525614e-04 -3.7848551681920621e-06 0.0000000000000000e+00  4.1825637700290517e-04 -3.1494176395264149e-06 0.0000000000000000e+00  5.6492308394713922e-04 -1.5231212558975476e-07 0.0000000000000000e+00  7.8627101258600901e-04 9.4966787907841352e-06 0.0000000000000000e+00  1.1605173281812793e-03 3.9230239435181191e-05 0.0000000000000000e+00  0.0000000000000000e+00 0.0000000000000000e+00 0.0000000000000000e+00  4.5405906792996506e-06 -9.2445936827472560e-08 0.0000000000000000e+00  9.2951755463889029e-06 -1.8873288512686077e-07 0.0000000000000000e+00  1.4492562780841842e-05 -2.9282470663712264e-07 0.0000000000000000e+00  2.0393485672725154e-05 -4.0890829264926724e-07 0.0000000000000000e+00  2.7311639981324100e-05 -5.4140156816203930e-07 0.0000000000000000e+00  3.5641992255849690e-05 -6.9474636204939201e-07 0.0000000000000000e+00  4.5901011093189565e-05 -8.7269027980114517e-07 0.0000000000000000e+00  5.8786122645318634e-05 -1.0763627650399422e-06 0.0000000000000000e+00  7.5266121616143121e-05 -1.2994809827743006e-06 0.0000000000000000e+00  9.6721424116685969e-05 -1.5165798536572964e-06 0.0000000000000000e+00  1.2516350966176708e-04 -1.6537381051360845e-06 0.0000000000000000e+00  1.6357282651425481e-04 -1.5134444781102707e-06 0.0000000000000000e+00  2.1637377991268929e-04 -5.7225407661204533e-07 0.0000000000000000e+00  2.8983744868368698e-04 2.6032176409028092e-06 0.0000000000000000e+00  3.9068292908133129e-04 1.2228192104456981e-05 0.0000000000000000e+00  5.1026002672628981e-04 4.2446317918287717e-05 0.0000000000000000e+00  0.0000000000000000e+00 0.0000000000000000e+00 0.0000000000000000e+00  0.0000000000000000e+00 0.0000000000000000e+00 0.0000000000000000e+00  0.0000000000000000e+00 0.0000000000000000e+00 0.0000000000000000e+00  0.0000000000000000e+00 0.0000000000000000e+00 0.0000000000000000e+00  0.0000000000000000e+00 0.0000000000000000e+00 0.0000000000000000e+00  0.0000000000000000e+00 0.0000000000000000e+00 0.0000000000000000e+00  0.0000000000000000e+00 0.0000000000000000e+00 0.0000000000000000e+00  0.0000000000000000e+00 0.0000000000000000e+00 0.0000000000000000e+00  0.0000000000000000e+00 0.0000000000000000e+00 0.000000000