<?xml version="1.0"?>
<VTKFile type="UnstructuredGrid"  version="0.1"  >
<UnstructuredGrid>
<Piece  NumberOfPoints="289" NumberOfCells="512">
<Points>
<DataArray  type="Float64"  NumberOfComponents="3"  format="ascii">0 0 0  0.0625 0 0  0.125 0 0  0.1875 0 0  0.25 0 0  0.3125 0 0  0.375 0 0  0.4375 0 0  0.5 0 0  0.5625 0 0  0.625 0 0  0.6875 0 0  0.75 0 0  0.8125 0 0  0.875 0 0  0.9375 0 0  1 0 0  0 0.0625 0  0.0625414332151973 0.06246360486809441 0  0.1250852601494966 0.06242654651217872 0  0.1876340547419374 0.06238819991618509 0  0.250190804827046 0.0623480656814456 0  0.3127591766967213 0.06230585020159419 0  0.3753438627781686 0.06226156455141043 0  0.4379510719284971 0.06221564083274266 0  0.5005892739026163 0.06216905330077133 0  0.5632704318146936 0.06212340916632031 0  0.6260122601473593 0.06208093023328165 0  0.6888428473451137 0.06204415679462168 0  0.7518112332368282 0.06201499643544334 0  0.8150142559590858 0.06199215892155698 0  0.8786712836350516 0.0619640964790957 0  0.9433504966185338 0.06188739341148385 0  1.010725881754838 0.06161154891242904 0  0 0.125 0  0.06258045549937115 0.1249278271158646 0  0.1251655301164082 0.1248542615489699 0  0.1877601937419127 0.1247779810022562 0  0.2503702237449882 0.1246979003003277 0  0.313002721192309 0.124613328213351 0  0.375666785605239 0.1245241682311196 0  0.4383744505941889 0.1244311671364368 0  0.5011420552575655 0.1243361974881119 0  0.5639923788349928 0.1242425251161773 0  0.6269581936175 0.1241549489944852 0  0.690088591919924 0.1240795953240875 0  0.7534608701710848 0.1240230041005223 0  0.8172032118887375 0.1239900865607691 0  0.8815352559737625 0.1239812984832225 0  0.9468207842138618 0.1239947323311267 0  1.013523212974057 0.1240663061906611 0  0 0.1875 0  0.06261489419636053 0.1873934181983726 0  0.1252362771460406 0.1872845957941313 0  0.1878711291224635 0.1871713818022569 0  0.2505275659328061 0.1870519424474866 0  0.3132155627146405 0.186924983585828 0  0.3759478909371828 0.1867900517930584 0  0.4387413862498312 0.1866479334987177 0  0.5016187189353846 0.1865011556018973 0  0.5646109279408378 0.1863545552355213 0  0.6277611148040994 0.1862158157047932 0  0.6911298435600685 0.186095738923247 0  0.7548027112155159 0.1860078127614982 0  0.8188991971101947 0.1859662713016379 0  0.8835758049977327 0.1859810303745273 0  0.9489968397637882 0.1860447884503345 0  1.01520188485324 0.1860921771857112 0  0 0.25 0  0.06264294279398268 0.2498612452141697 0  0.1252937314525868 0.249719247647177 0  0.1879607981968958 0.2495708522047922 0  0.2506539369116534 0.2494132483671302 0  0.3133851711554517 0.249244234336767 0  0.3761698723807066 0.2490626021127207 0  0.4390282471693804 0.2488686898821281 0  0.5019873358122826 0.248665144455902 0  0.5650836717647268 0.2484579157548368 0  0.6283666901561621 0.248257448452051 0  0.6919026985379921 0.2480799099566742 0  0.7557783588067301 0.2479480444376103 0  0.8201003098692976 0.2478907787689602 0  0.8849822378439297 0.2479398914001758 0  0.9505014746086161 0.2481209333964493 0  1.016602027182187 0.2484366574784546 0  0 0.3125 0  0.06266329894805647 0.3123323237104829 0  0.1253351798866057 0.3121602390659426 0  0.1880248488600118 0.3119793936259862 0  0.2507429709570315 0.3117857305836972 0  0.3135026083362864 0.3115757528537562 0  0.3763204378758192 0.3113469497815237 0  0.4392183757075897 0.311098468331128 0  0.5022257472079718 0.3108321309461562 0  0.5653821117742338 0.3105539168671367 0  0.6287407092840243 0.3102760122629695 0  0.6923720881253761 0.310019452935964 0  0.7563665285321778 0.309817145508106 0  0.8208320222231988 0.3097165156776759 0  0.8858817895886734 0.309780031152863 0  0.9516037286987246 0.3100804368602712 0  1.018012519389716 0.3106865818071782 0  0 0.375 0  0.06267525339953565 0.3748078236403095 0  0.1253591569940433 0.3746099381497643 0  0.1880609586733958 0.3744006216408302 0  0.2507913145467792 0.3741743018345511 0  0.3135632126656971 0.373925758297141 0  0.3763932018263582 0.3736505142240371 0  0.439303081129937 0.3733455352597699 0  0.5023222407110649 0.3730104072860789 0  0.5654908523080934 0.3726492372435368 0  0.6288640274431723 0.3722735987557444 0  0.6925167683373196 0.3719068817212069 0  0.7565488475690431 0.3715902799896724 0  0.8210875420126282 0.3713901084754994 0  0.8862848602750679 0.371404802214795 0  0.9523068509621213 0.3717676437462084 0  1.019321681019645 0.372638921873658 0  0 0.4375 0  0.06267872206686012 0.4372890384387438 0  0.1253655180742663 0.4370710059574435 0  0.1880689666794555 0.4368387109663504 0  0.2507988439658568 0.4365848584402558 0  0.3135669348768619 0.436302112480127 0  0.376388159842962 0.4359833425310606 0  0.4392822156766739 0.4356221926012845 0  0.5022760245829608 0.4352142043484372 0  0.5654074077760159 0.4347588707126653 0  0.6287305225253386 0.4342632121145618 0  0.6923236377705189 0.4337477386535825 0  0.756299596724913 0.43325587035207 0  0.8208186116697276 0.4328676441134003 0  0.8861020519500319 0.4327169959300003 0  0.9524466369196295 0.4330081203054571 0  1.02024725816156 0.434021505484288 0  0 0.5 0  0.06267421732967621 0.4997773094410777 0  0.1253553854538162 0.4995462483822953 0  0.1880508041327266 0.4992981842152072 0  0.2507686020916151 0.4990240310303217 0  0.3135183249492645 0.4987140910970749 0  0.3763118069426644 0.4983580247140906 0  0.4391645594865108 0.4979450782462936 0  0.5020980851270165 0.4974648167673484 0  0.5651438219968082 0.4969088207773074 0  0.6283498883846055 0.4962741843552049 0  0.6917924317509195 0.4955702830723433 0  0.7555940212913094 0.4948311945706285 0  0.8199516063644343 0.4941370110891572 0  0.8851752630366228 0.4936465501867776 0  0.9517372800155343 0.4936380992306019 0  1.020339157538681 0.4945414009046 0  0 0.5625 0  0.06266275775309717 0.5622739035446312 0  0.1253309637028932 0.5620383649537574 0  0.1880102105522151 0.5617835211208164 0  0.2507064217541018 0.5614986466014734 0  0.3134261045453887 0.5611717102114108 0  0.3761767829816797 0.5607889485573666 0  0.4389678294013606 0.5603345303973346 0  0.501812153644036 0.559790494318756 0  0.564729687529918 0.5591373725621303 0  0.6277545054794815 0.5583563994768455 0  0.690948996295126 0.5574352113338228 0  0.7544308533638802 0.5563809416938201 0  0.8184210368596833 0.5552480738717522 0  0.883320264093431 0.5541921515762742 0  0.949813843232957 0.5535561960322087 0  1.018999872685429 0.5539688245532322 0  0 0.625 0  0.06264572029027442 0.6247798512786946 0  0.1252952277197687 0.6245496061203212 0  0.1879522284387517 0.624298597114204 0  0.2506201959502778 0.6240148924979262 0  0.3133022076568278 0.6236845479070753 0  0.3760007687332161 0.6232907195736589 0  0.4387177389729628 0.6228126089262584 0  0.501454713673732 0.6222242592039694 0  0.5642147698804757 0.6214933723814359 0  0.6270077582162795 0.6205807188622432 0  0.6898640299080174 0.6194417948669435 0  0.7528667650556449 0.6180352480183503 0  0.8162215347732006 0.6163498951367349 0  0.8803885302477987 0.6144781150303351 0  0.9462874289308999 0.6127791170478813 0  1.015553971143182 0.6121170439099546 0  0 0.6875 0  0.06262464717985557 0.6872957640650131 0  0.1252515049453147 0.687081376736875 0  0.1878824971756996 0.6868460070762801 0  0.2505187890699815 0.686577250637411 0  0.3131601974006404 0.6862601228872059 0  0.3758043275187175 0.6858757497765843 0  0.4384453486922447 0.6853995957380901 0  0.5010724238557819 0.684799018309163 0  0.5636682028459045 0.6840298925935152 0  0.6262089888821969 0.6830320876571006 0  0.6886715044364308 0.6817240194091766 0  0.7510596824491321 0.6799985841433243 0  0.8134847047182743 0.6777312466556685 0  0.8763675131897313 0.6748437211186851 0  0.940826965007302 0.6715733826638007 0  1.009137336375222 0.669088891576518 0  0 0.75 0  0.06260103139383481 0.7498216606150037 0  0.1252030006502174 0.7496338501077403 0  0.1878064195267773 0.7494263819911775 0  0.2504106756062423 0.7491873658200278 0  0.313013114784311 0.7489020626330948 0  0.3756075943329141 0.7485513157129445 0  0.4381821583705383 0.7481092874190102 0  0.5007153325249153 0.7475400782022752 0  0.563170421761568 0.746792533439523 0  0.6254874933323965 0.7457920631912677 0  0.6875747760184082 0.7444274616085862 0  0.7493094655770706 0.7425295107320691 0  0.8105865837601494 0.7398384268006643 0  0.8715474917148459 0.7359743975665232 0  0.9333820082085857 0.730576473223285 0  0.9990240193074322 0.7250036066334337 0  0 0.8125 0  0.06257611677967891 0.8123568391728386 0  0.1251523470708332 0.8122056747632228 0  0.1877283428925804 0.8120378455363628 0  0.2503025327127565 0.8118430945680933 0  0.3128710870481455 0.811608463885884 0  0.3754262114921017 0.8113167321632847 0  0.4379532178272417 0.8109440861015841 0  0.5004253855804675 0.8104565162937868 0  0.5627948277941276 0.8098040555039254 0  0.6249762280222994 0.8089112285277792 0  0.6868185339171687 0.8076604073562738 0  0.7480596379073224 0.8058605812681275 0  0.8082727208980469 0.8031830065007998 0  0.8668970573953482 0.7990178364001508 0  0.9239118448814001 0.7921619510320494 0  0.9860400491788768 0.7803979211962976 0  0 0.875 0  0.06255075626183508 0.8748998308602637 0  0.1251012787951002 0.8747938554705562 0  0.1876509528688651 0.8746757636975284 0  0.2501981471519285 0.8745380083927916 0  0.3127393349565951 0.8743709328905107 0  0.3752676027840424 0.8741615180248745 0  0.4377699866993455 0.8738914888141939 0  0.5002225269265314 0.8735343608550851 0  0.5625807424086785 0.873050735869907 0  0.624760604432177 0.8723806884172008 0  0.6865992687471166 0.8714311526332359 0  0.7477722999964613 0.8700535453822644 0  0.8076200649369829 0.8679958183564226 0  0.8648043026021949 0.8647623042644246 0  0.9167370047232472 0.8591028128061261 0  0.9590282238007014 0.8471964828918828 0  0 0.9375 0  0.06252536686166574 0.9374484578437465 0  0.1250505298079745 0.937393865306951 0  0.1875750761246131 0.937332899414819 0  0.2500980325784654 0.937261563547872 0  0.31261737734216 0.9371747080718282 0  0.3751292019413924 0.9370653373209294 0  0.4376261867116107 0.9369235596018378 0  
[...]
<PointData  Vectors="f_54"> 
<DataArray  type="Float64"  Name="f_54"  NumberOfComponents="3" format="ascii">0.0000000000000000e+00 0.0000000000000000e+00 0.0000000000000000e+00  0.0000000000000000e+00 0.0000000000000000e+00 0.0000000000000000e+00  0.0000000000000000e+00 0.0000000000000000e+00 0.0000000000000000e+00  0.0000000000000000e+00 0.0000000000000000e+00 0.0000000000000000e+00  0.0000000000000000e+00 0.0000000000000000e+00 0.0000000000000000e+00  0.0000000000000000e+00 0.0000000000000000e+00 0.0000000000000000e+00  0.0000000000000000e+00 0.0000000000000000e+00 0.0000000000000000e+00  0.0000000000000000e+00 0.0000000000000000e+00 0.0000000000000000e+00  0.0000000000000000e+00 0.0000000000000000e+00 0.0000000000000000e+00  0.0000000000000000e+00 0.0000000000000000e+00 0.0000000000000000e+00  0.0000000000000000e+00 0.0000000000000000e+00 0.0000000000000000e+00  0.0000000000000000e+00 0.0000000000000000e+00 0.0000000000000000e+00  0.0000000000000000e+00 0.0000000000000000e+00 0.0000000000000000e+00  0.0000000000000000e+00 0.0000000000000000e+00 0.0000000000000000e+00  0.0000000000000000e+00 0.0000000000000000e+00 0.0000000000000000e+00  0.0000000000000000e+00 0.0000000000000000e+00 0.0000000000000000e+00  0.0000000000000000e+00 0.0000000000000000e+00 0.0000000000000000e+00  0.0000000000000000e+00 0.0000000000000000e+00 0.0000000000000000e+00  -4.2903500463329711e-06 -3.0690442750789175e-07 0.0000000000000000e+00  -8.7026213427390879e-06 -6.1580026055656141e-07 0.0000000000000000e+00  -1.3363361131011534e-05 -9.2794930979479767e-07 0.0000000000000000e+00  -1.8398482423889860e-05 -1.2423307595007316e-06 0.0000000000000000e+00  -2.3932158812216525e-05 -1.5542030517683254e-06 0.0000000000000000e+00  -3.0084522885379867e-05 -1.8533163560799579e-06 0.0000000000000000e+00  -3.6967944374576613e-05 -2.1217051566606281e-06 0.0000000000000000e+00  -4.4682089647820848e-05 -2.3310349029987759e-06 0.0000000000000000e+00  -5.3309156642491107e-05 -2.4394754351397990e-06 0.0000000000000000e+00  -6.2914021081892743e-05 -2.3877814023164976e-06 0.0000000000000000e+00  -7.3563807422309622e-05 -2.0927775878601097e-06 0.0000000000000000e+00  -8.5411845581709537e-05 -1.4305740989435468e-06 0.0000000000000000e+00  -9.8992484516632778e-05 -1.7983104284110786e-07 0.0000000000000000e+00  -1.1623795547280409e-04 2.1885979211564132e-06 0.0000000000000000e+00  -1.4419019650281168e-04 7.3379351597208672e-06 0.0000000000000000e+00  -2.1082034089922710e-04 2.1793940232467001e-05 0.0000000000000000e+00  0.0000000000000000e+00 0.0000000000000000e+00 0.0000000000000000e+00  -8.4595608069294829e-06 -6.1185652766711360e-07 0.0000000000000000e+00  -1.7164213390098916e-05 -1.2288110241893764e-06 0.0000000000000000e+00  -2.6368324309129690e-05 -1.8546023914889321e-06 0.0000000000000000e+00  -3.6326105669202972e-05 -2.4886319021806184e-06 0.0000000000000000e+00  -4.7289956921240436e-05 -3.1231696407247116e-06 0.0000000000000000e+00  -5.9506330186962383e-05 -3.7398066647666540e-06 0.0000000000000000e+00  -7.3208411022340926e-05 -4.3049821215887244e-06 0.0000000000000000e+00  -8.8605286253720105e-05 -4.7645457365331054e-06 0.0000000000000000e+00  -1.0586830927638868e-04 -5.0375338396443499e-06 0.0000000000000000e+00  -1.2511788392115012e-04 -5.0096042876803143e-06 0.0000000000000000e+00  -1.4641951266407103e-04 -4.5267329234870604e-06 0.0000000000000000e+00  -1.6980919090092973e-04 -3.3896980677356466e-06 0.0000000000000000e+00  -1.9538344603594267e-04 -1.3515748638172124e-06 0.0000000000000000e+00  -2.2346425684603954e-04 1.8580763713337223e-06 0.0000000000000000e+00  -2.5445727676791976e-04 6.3019337606143033e-06 0.0000000000000000e+00  -2.8511919079584914e-04 1.0210903459126273e-05 0.0000000000000000e+00  0.0000000000000000e+00 0.0000000000000000e+00 0.0000000000000000e+00  -1.2379816294511160e-05 -9.1137431882799438e-07 0.0000000000000000e+00  -2.5128961278372136e-05 -1.8330335083878234e-06 0.0000000000000000e+00  -3.8630605625365383e-05 -2.7734841271588991e-06 0.0000000000000000e+00  -5.3270197223421930e-05 -3.7353369056491046e-06 0.0000000000000000e+00  -6.9434250520236147e-05 -4.7113674298607301e-06 0.0000000000000000e+00  -8.7505332565083433e-05 -5.6793290560584821e-06 0.0000000000000000e+00  -1.0785178628401683e-04 -6.5951580074327083e-06 0.0000000000000000e+00  -1.3081065661825928e-04 -7.3843950645180469e-06 0.0000000000000000e+00  -1.5666226898021298e-04 -7.9321041476696479e-06 0.0000000000000000e+00  -1.8559466865199068e-04 -8.0725549609258719e-06 0.0000000000000000e+00  -2.1765420447990180e-04 -7.5819863768489067e-06 0.0000000000000000e+00  -2.5266927888132696e-04 -6.1822070161276317e-06 0.0000000000000000e+00  -2.9009813845657132e-04 -3.5734426646136111e-06 0.0000000000000000e+00  -3.2862690311041875e-04 4.5780161972172563e-07 0.0000000000000000e+00  -3.6496494339874732e-04 5.7485366846071089e-06 0.0000000000000000e+00  -3.9040440096859433e-04 1.1155901117923131e-05 0.0000000000000000e+00  0.0000000000000000e+00 0.0000000000000000e+00 0.0000000000000000e+00  -1.5923227055217963e-05 -1.1999247534132310e-06 0.0000000000000000e+00  -3.2339893347028720e-05 -2.4181132729743446e-06 0.0000000000000000e+00  -4.9761692568793005e-05 -3.6709565580797086e-06 0.0000000000000000e+00  -6.8707777039973535e-05 -4.9681939717242254e-06 0.0000000000000000e+00  -8.9705516059429249e-05 -6.3082137831003765e-06 0.0000000000000000e+00  -1.1328629767563804e-04 -7.6715274655415846e-06 0.0000000000000000e+00  -1.3997410842554197e-04 -9.0117141166072011e-06 0.0000000000000000e+00  -1.7026402536063004e-04 -1.0243210849416038e-05 0.0000000000000000e+00  -2.0458678152876321e-04 -1.1225745065590540e-05 0.0000000000000000e+00  -2.4325349998625845e-04 -1.1746409458482186e-05 0.0000000000000000e+00  -2.8636937303258553e-04 -1.1503241721428812e-05 0.0000000000000000e+00  -3.3369081938429542e-04 -1.0100333647234505e-05 0.0000000000000000e+00  -3.8436473041181702e-04 -7.0768380282974035e-06 0.0000000000000000e+00  -4.3641012571466023e-04 -2.0145006508355649e-06 0.0000000000000000e+00  -4.8568512595506687e-04 5.2018546332719037e-06 0.0000000000000000e+00  -5.2415011283516984e-04 1.3898694306623291e-05 0.0000000000000000e+00  0.0000000000000000e+00 0.0000000000000000e+00 0.0000000000000000e+00  -1.8963570337608448e-05 -1.4692569138975719e-06 0.0000000000000000e+00  -3.8541964524501306e-05 -2.9678592186597651e-06 0.0000000000000000e+00  -5.9372474128538690e-05 -4.5236180665121342e-06 0.0000000000000000e+00  -8.2108418948521810e-05 -6.1580635680597780e-06 0.0000000000000000e+00  -1.0742388935298872e-04 -7.8816090117745361e-06 0.0000000000000000e+00  -1.3601284765940534e-04 -9.6863164893757463e-06 0.0000000000000000e+00  -1.6857967694876275e-04 -1.1535063587097636e-05 0.0000000000000000e+00  -2.0581726626285707e-04 -1.3345647177270398e-05 0.0000000000000000e+00  -2.4836730062725517e-04 -1.4968281326725700e-05 0.0000000000000000e+00  -2.9675513592115541e-04 -1.6155524359633114e-05 0.0000000000000000e+00  -3.5128725572128436e-04 -1.6525930752355358e-05 0.0000000000000000e+00  -4.1189008117933012e-04 -1.5528603569550280e-05 0.0000000000000000e+00  -4.7785059664052831e-04 -1.2428255116963350e-05 0.0000000000000000e+00  -5.4739233213577456e-04 -6.3517334429890258e-06 0.0000000000000000e+00  -6.1701912572264368e-04 3.5376836442202281e-06 0.0000000000000000e+00  -6.8072640598125370e-04 1.7670503607873772e-05 0.0000000000000000e+00  0.0000000000000000e+00 0.0000000000000000e+00 0.0000000000000000e+00  -2.1379323370377147e-05 -1.7081458428836244e-06 0.0000000000000000e+00  -4.3487815220365645e-05 -3.4595831426149958e-06 0.0000000000000000e+00  -6.7081095616331046e-05 -5.2969172139678924e-06 0.0000000000000000e+00  -9.2943080774343954e-05 -7.2582476669356607e-06 0.0000000000000000e+00  -1.2189706422167830e-04 -9.3730928660383878e-06 0.0000000000000000e+00  -1.5481122467133799e-04 -1.1655552541897947e-05 0.0000000000000000e+00  -1.9259527385360483e-04 -1.4092977914247716e-05 0.0000000000000000e+00  -2.3618364190904076e-04 -1.6627592147233057e-05 0.0000000000000000e+00  -2.8649902696921463e-04 -1.9127419020583857e-05 0.0000000000000000e+00  -3.4438849245296187e-04 -2.1341793096624715e-05 0.0000000000000000e+00  -4.1052288471678786e-04 -2.2836564738057075e-05 0.0000000000000000e+00  -4.8524955583271426e-04 -2.2907235437695336e-05 0.0000000000000000e+00  -5.6838900246704326e-04 -2.0479223369625322e-05 0.0000000000000000e+00  -6.5897222463827637e-04 -1.4028740121254384e-05 0.0000000000000000e+00  -7.5494731710085681e-04 -1.5934891272962967e-06 0.0000000000000000e+00  -8.5300147057874550e-04 1.9036034888898525e-05 0.0000000000000000e+00  0.0000000000000000e+00 0.0000000000000000e+00 0.0000000000000000e+00  -2.3058208909629669e-05 -1.9026848300135718e-06 0.0000000000000000e+00  -4.6946725067101778e-05 -3.8645674172958111e-06 0.0000000000000000e+00  -7.2526026230142410e-05 -5.9455229884768415e-06 0.0000000000000000e+00  -1.0070065484972881e-04 -8.2042196430574512e-06 0.0000000000000000e+00  -1.3243907493084130e-04 -1.0695919031187024e-05 0.0000000000000000e+00  -1.6878903552893320e-04 -1.3467642569812265e-05 0.0000000000000000e+00  -2.1088510451852679e-04 -1.6548656211623714e-05 0.0000000000000000e+00  -2.5994331762416086e-04 -1.9932777705471855e-05 0.0000000000000000e+00  -3.1723596358964305e-04 -2.3546593751790753e-05 0.0000000000000000e+00  -3.8403822574717688e-04 -2.7193929115359372e-05 0.0000000000000000e+00  -4.6153974469156277e-04 -3.0461929129261707e-05 0.0000000000000000e+00  -5.5072208943183088e-04 -3.2569854843496397e-05 0.0000000000000000e+00  -6.5222336406213835e-04 -3.2144800215015144e-05 0.0000000000000000e+00  -7.6624818238028749e-04 -2.6932053281751883e-05 0.0000000000000000e+00  -8.9263347152959249e-04 -1.3497715970359266e-05 0.0000000000000000e+00  -1.0312569418812810e-03 1.2994443552306705e-05 0.0000000000000000e+00  0.0000000000000000e+00 0.0000000000000000e+00 0.0000000000000000e+00  -2.3903300295990532e-05 -2.0372267968024777e-06 0.0000000000000000e+00  -4.8716947158155183e-05 -4.1499132542802475e-06 0.0000000000000000e+00  -7.5384839753527710e-05 -6.4159690929059468e-06 0.0000000000000000e+00  -1.0491333430430970e-04 -8.9167392456734569e-06 0.0000000000000000e+00  -1.3840204816992286e-04 -1.1737823691098379e-05 0.0000000000000000e+00  -1.7707252742805963e-04 -1.4968134625070536e-05 0.0000000000000000e+00  -2.2229183941644705e-04 -1.8695360077919758e-05 0.0000000000000000e+00  -2.7558582198923125e-04 -2.2994196838624160e-05 0.0000000000000000e+00  -3.3863376309223059e-04 -2.7900188337606575e-05 0.0000000000000000e+00  -4.1323379346600134e-04 -3.3355301206055738e-05 0.0000000000000000e+00  -5.0122980878337757e-04 -3.9099381044450698e-05 0.0000000000000000e+00  -6.0440502640370065e-04 -4.4462854961516679e-05 0.0000000000000000e+00  -7.2439074993841236e-04 -4.7995444102992191e-05 0.0000000000000000e+00  -8.6272889433171469e-04 -4.6868009467777520e-05 0.0000000000000000e+00  -1.0213464835607216e-03 -3.6050782433821918e-05 0.0000000000000000e+00  -1.2037736012156259e-03 -7.3229398004039993e-06 0.0000000000000000e+00  0.0000000000000000e+00 0.0000000000000000e+00 0.0000000000000000e+00  -2.3840492743730061e-05 -2.0959902112229900e-06 0.0000000000000000e+00  -4.8641124904902391e-05 -4.2818576260941052e-06 0.0000000000000000e+00  -7.5398470973601534e-05 -6.6518686429016227e-06 0.0000000000000000e+00  -1.0519087135411408e-04 -9.3091309011510469e-06 0.0000000000000000e+00  -1.3922162842765570e-04 -1.2370266424173674e-05 0.0000000000000000e+00  -1.7886395214147130e-04 -1.5969998071900831e-05 0.0000000000000000e+00  -2.2570586428512473e-04 -2.0264804338419211e-05 0.0000000000000000e+00  -2.8159024460828753e-04 -2.5433313203126058e-05 0.0000000000000000e+00  -3.4864040393403731e-04 -3.1667622975954487e-05 0.0000000000000000e+00  -4.2925537178519971e-04 -3.9141653894523194e-05 0.0000000000000000e+00  -5.2605515066619197e-04 -4.7924348356458104e-05 0.0000000000000000e+00  -6.4176795169344845e-04 -5.7766595974048543e-05 0.0000000000000000e+00  -7.7911561144048834e-04 -6.7619212387236857e-05 0.0000000000000000e+00  -9.4094008890649060e-04 -7.4655568974053022e-05 0.0000000000000000e+00  -1.1311518116442888e-03 -7.2619798121742866e-05 0.0000000000000000e+00  -1.3574623735992937e-03 -4.9545994880068384e-05 0.0000000000000000e+00  0.0000000000000000e+00 0.0000000000000000e+00 0.0000000000000000e+00  -2.2826849074003595e-05 -2.0652088232365616e-06 0.0000000000000000e+00  -4.6623879661612036e-05 -4.2303546340990611e-06 0.0000000000000000e+00  -7.2399759362129230e-05 -6.6015105161541963e-06 0.0000000000000000e+00  -1.0126251737047187e-04 -9.2987910566157095e-06 0.0000000000000000e+00  -1.3447522682951752e-04 -1.2465005630977577e-05 0.0000000000000000e+00  -1.7351894276814258e-04 -1.6276410717157507e-05 0.0000000000000000e+00  -2.2016348657699831e-04 -2.0956397944244482e-05 0.0000000000000000e+00  -2.7654341457430525e-04 -2.6792710101798831e-05 0.0000000000000000e+00  -3.4522978772837202e-04 -3.4157389907036622e-05 0.0000000000000000e+00  -4.2927619495665008e-04 -4.3523505838195166e-05 0.0000000000000000e+00  -5.3219977536830821e-04 -5.5455939736703801e-05 0.0000000000000000e+00  -6.5784594185565098e-04 -7.0503081992625430e-05 0.0000000000000000e+00  -8.1013456366335894e-04 -8.8776670000862196e-05 0.0000000000000000e+00  -9.9298619130252586e-04 -1.0869095600606506e-04 0.0000000000000000e+00  -1.2115522383937393e-03 -1.2408932639216148e-04 0.0000000000000000e+00  -1.4758967293159026e-03 -1.1995451978108242e-04 0.0000000000000000e+00  0.0000000000000000e+00 0.0000000000000000e+00 0.0000000000000000e+00  -2.0858989607164622e-05 -1.9355394439187652e-06 0.0000000000000000e+00  -4.2649935022328265e-05 -3.9743358226758441e-06 0.0000000000000000e+00  -6.6343928033651484e-05 -6.2269380388433329e-06 0.0000000000000000e+00  -9.3023820977254597e-05 -8.8217564211185882e-06 0.0000000000000000e+00  -1.2395035106746240e-04 -1.1916829182311250e-05 0.0000000000000000e+00  -1.6064224656465510e-04 -1.5715706631331852e-05 0.0000000000000000e+00  -2.0497494172984072e-04 -2.0490100080526225e-05 0.0000000000000000e+00  -2.5930052374327576e-04 -2.6613514180112317e-05 0.0000000000000000e+00  -3.2658486244523658e-04 -3.4612647412195245e-05 0.0000000000000000e+00  -4.1054084546652305e-04 -4.5246663328480482e-05 0.0000000000000000e+00  -5.1569983666959916e-04 -5.9624659858236198e-05 0.0000000000000000e+00  -6.4729812361308985e-04 -7.9348489879906280e-05 0.0000000000000000e+00  -8.1078805616098049e-04 -1.0653303519777237e-04 0.0000000000000000e+00  -1.0109925122058123e-03 -1.4295044152590390e-04 0.0000000000000000e+00  -1.2532694205023395e-03 -1.8541213961232965e-04 0.0000000000000000e+00  -1.5518427187521664e-03 -2.1941232724468815e-04 0.0000000000000000e+00  0.0000000000000000e+00 0.0000000000000000e+00 0.0000000000000000e+00  -1.7980350155611280e-05 -1.7042978243498738e-06 0.0000000000000000e+00  -3.6800355792114066e-05 -3.5067045043573493e-06 0.0000000000000000e+00  -5.7337262782354094e-05 -5.5128663442763276e-06 0.0000000000000000e+00  -8.0583335269642124e-05 -7.8476942811663337e-06 0.0000000000000000e+00  -1.0771745035573339e-04 -1.0668420904274357e-05 0.0000000000000000e+00  -1.4019729827300368e-04 -1.4182802303934288e-05 0.0000000000000000e+00  -1.7988226150577043e-04 -1.8676099443055487e-05 0.0000000000000000e+00  -2.2919873910706021e-04 -2.4553308298015880e-05 0.0000000000000000e+00  -2.9135803157730877e-04 -3.2409136398250111e-05 0.0000000000000000e+00  -3.7062369800978858e-04 -4.3151369832661431e-05 0.0000000000000000e+00  -4.7258014834369324e-04 -5.8231375866991840e-05 0.0000000000000000e+00  -6.0423176411559729e-04 -8.0089302646781075e-05 0.0000000000000000e+00  -7.7347323653870247e-04 -1.1298944405815486e-04 0.0000000000000000e+00  -9.8687973736865092e-04 -1.6427856444196570e-04 0.0000000000000000e+00  -1.2443789692649584e-03 -2.4348244054696024e-04 0.0000000000000000e+00  -1.5700320095650483e-03 -3.1719649609282172e-04 0.0000000000000000e+00  0.0000000000000000e+00 0.0000000000000000e+00 0.0000000000000000e+00  -1.4285845651926082e-05 -1.3770345438700294e-06 0.0000000000000000e+00  -2.9263743766179424e-05 -2.8379430083268278e-06 0.0000000000000000e+00  -4.5658756645727290e-05 -4.4733459334173176e-06 0.0000000000000000e+00  -6.4301552179065364e-05 -6.3915931401455635e-06 0.0000000000000000e+00  -8.6197229066572231e-05 -8.7308053253343790e-06 0.0000000000000000e+00  -1.1261881363542833e-04 -1.1675616164613563e-05 0.0000000000000000e+00  -1.4524066134038820e-04 -1.5481674489195747e-05 0.0000000000000000e+00  -1.8633443741902851e-04 -2.0513148336097903e-05 0.0000000000000000e+00  -2.3905994621826001e-04 -2.7303556353648067e-05 0.0000000000000000e+00  -3.0789001339081022e-04 -3.6663824795912414e-05 0.0000000000000000e+00  -3.9919293782610083e-04 -4.9900734904476270e-05 0.0000000000000000e+00  -5.2189315381086666e-04 -6.9323417736012868e-05 0.0000000000000000e+00  -6.8775850176985951e-04 -9.9532853834393225e-05 0.0000000000000000e+00  -9.0970624106510303e-04 -1.5082304544511267e-04 0.0000000000000000e+00  -1.1920834288615114e-03 -2.4881955240349562e-04 0.0000000000000000e+00  -1.4506033694621362e-03 -4.8947281751531349e-04 0.0000000000000000e+00  0.0000000000000000e+00 0.0000000000000000e+00 0.0000000000000000e+00  -9.9223707723399096e-06 -9.6804125520666453e-07 0.0000000000000000e+00  -2.0338811803355923e-05 -1.9973616178166792e-06 0.0000000000000000e+00  -3.1768274214216029e-05 -3.1542699035086316e-06 0.0000000000000000e+00  -4.4811460482905044e-05 -4.5185240422783670e-06 0.0000000000000000e+00  -6.0206175035291754e-05 -6.1923129998704274e-06 0.0000000000000000e+00  -7.8905863891141366e-05 -8.3123422910203663e-06 0.0000000000000000e+00  -1.0219812559505316e-04 -1.1066285650201786e-05 0.0000000000000000e+00  -1.3189189816544301e-04 -1.4714463949118127e-05 0.0000000000000000e+00  -1.7062337185523520e-04 -1.9615796182142711e-05 0.0000000000000000e+00  -2.2236692132840912e-04 -2.6252737853023596e-05 0.0000000000000000e+00  -2.9329037477386687e-04 -3.5246934149175007e-05 0.0000000000000000e+00  -3.9313761680883833e-04 -4.7393906539359908e-05 0.0000000000000000e+00  -5.3722245707327990e-04 -6.4009933928971095e-05 0.0000000000000000e+00  -7.4847030930379329e-04 -8.8980286074283706e-05 0.0000000000000000e+00  -1.0570383451519421e-03 -1.3657512525616766e-04 0.0000000000000000e+00  -1.4918381889927634e-03 -2.4868253919172102e-04 0.0000000000000000e+00  0.0000000000000000e+00 0.0000000000000000e+00 0.0000000000000000e+00  -5.0838129676114676e-06 -4.9959168727779226e-07 0.0000000000000000e+00  -1.0425083309770499e-05 -1.0315163893397295e-06 0.0000000000000000e+00  -1.6294726343117383e-05 -1.6307768578254083e-06 0.0000000000000000e+00  -2.3008495381833767e-05 -2.3395813924110476e-06 0.0000000000000000e+00  -3.0958158189937810e-05 -3.2120469595675414e-06 0.0000000000000000e+00  -4.0657091162714544e-05 -4.3202298036063396e-06 0.0000000000000000e+00  -5.2811827760880564e-05 -5.7613395287018325e-06 0.0000000000000000e+00  -6.8440966361149496e-05 -7.6638272872366277e-06 0.0000000000000000e+00  -8.9082808565977368e-05 -1.0182314795168138e-05 0.0000000000000000e+00  -1.1717288762501240e-04 -1.3445160301148833e-05 0.0000000000000000e+00  -1.5674393616145948e-04 -1.7332124709823837e-05 0.0000000000000000e+00  -2.1467383566825215e-04 -2.0687897594363708e-05 0.0000000000000000e+00  -3.0242083381452640e-04 -1.8843101811561130e-05 0.0000000000000000e+00  -4.3553023066881483e-04 2.6398683666709506e-06 0.0000000000000000e+00  -6.1764120699530560e-04 7.4017257242287509e-05 0.0000000000000000e+00  -7.9561695628057314e-04 2.0658115907262590e-04 0.0000000000000000e+00  0.0000000000000000e+00 0.0000000000000000e+00 0.0000000000000000e+00  0.0000000000000000e+00 0.0000000000000000e+00 0.0000000000000000e+00  0.0000000000000000e+00 0.0000000000000000e+00 0.0000000000000000e+00  0.0000000000000000e+00 0.0000000000000000e+00 0.0000000000000000e+00  0.0000000000000000e+00 0.0000000000000000e+00 0.0000000000000000e+00  0.0000000000000000e+00 0.000000000000000