<?xml version="1.0"?>
<VTKFile type="UnstructuredGrid"  version="0.1"  >
<UnstructuredGrid>
<Piece  NumberOfPoints="289" NumberOfCells="512">
<Points>
<DataArray  type="Float64"  NumberOfComponents="3"  format="ascii">0 0 0  0.0625 0 0  0.125 0 0  0.1875 0 0  0.25 0 0  0.3125 0 0  0.375 0 0  0.4375 0 0  0.5 0 0  0.5625 0 0  0.625 0 0  0.6875 0 0  0.75 0 0  0.8125 0 0  0.875 0 0  0.9375 0 0  1 0 0  0 0.0625 0  0.06258037501857451 0.06246638514740432 0  0.1251641978155227 0.06243211763654127 0  0.1877551280273098 0.06239657550018553 0  0.2503572143635797 0.06235924016314184 0  0.3129751364683119 0.06231976300202455 0  0.3756145147743684 0.06227804785389059 0  0.4382823430005308 0.06223434804273356 0  0.5009876515311469 0.06218936591455468 0  0.5637426373820713 0.06214432130494012 0  0.6265648160822714 0.06210091091379948 0  0.6894816015159184 0.06206098238371145 0  0.7525411314514043 0.062025499770416 0  0.8158404355133625 0.06199164646709525 0  0.8796053904127226 0.06194441621163582 0  0.9444373717970168 0.0618294852504784 0  1.01216160829463 0.06145251302595437 0  0 0.125 0  0.06265732125375092 0.1249333794914227 0  0.1253213926453479 0.1248653983593982 0  0.1879993800963804 0.1247947521615344 0  0.250699219895916 0.1247203308991566 0  0.313430096044586 0.1246413490286956 0  0.3762030456869649 0.1245575131085313 0  0.4390317838183526 0.1244692301047821 0  0.5019339114283812 0.1243778435206658 0  0.5649328267790585 0.1242858527005804 0  0.6280609952789702 0.1241970115156352 0  0.6913659522146209 0.1241161024096201 0  0.75492186818852 0.1240480440189016 0  0.8188519547279767 0.1239959526273994 0  0.8833683970909554 0.123958712928117 0  0.9488204452557423 0.1239350997624734 0  1.01561747742865 0.1239759611147789 0  0 0.1875 0  0.06272754796695675 0.1874017096118987 0  0.1254648216334688 0.1873012527594357 0  0.1882221386747249 0.1871965335627922 0  0.251010925309764 0.1870857144191836 0  0.3138443971130401 0.1869673998726516 0  0.3767384078223032 0.18684088803723 0  0.4397125650465176 0.1867065063500564 0  0.5027917631028038 0.1865660349123576 0  0.5660083688644396 0.1864231902911537 0  0.6294054243309876 0.1862840828812548 0  0.6930413552238232 0.1861574553271742 0  0.7569965095809054 0.1860543398145752 0  0.8213802162125727 0.1859865046871357 0  0.8863301015960672 0.1859624690035016 0  0.9519733875166375 0.1859772591024521 0  1.018271089841231 0.1859769243552115 0  0 0.25 0  0.06278811007303892 0.2498721973436144 0  0.1255884326025925 0.2497412961783555 0  0.1884139047020261 0.2496042648482729 0  0.2512788397527136 0.2494583482814113 0  0.314199766088995 0.2493012849905263 0  0.3771964583199822 0.2491316278164574 0  0.4402932536888772 0.2489492086665467 0  0.5035207629633951 0.2487557852089105 0  0.5669180836324192 0.2485558917569746 0  0.630535546185926 0.2483578725595784 0  0.6944377135454546 0.2481749785717255 0  0.75870539902975 0.2480262184431191 0  0.8234329318569384 0.2479363043832689 0  0.8887111467142432 0.247933416532525 0  0.9545768967691889 0.2480426426663671 0  1.020906126270182 0.2482739674470825 0  0 0.3125 0  0.06283655642646041 0.3123457855517161 0  0.1256871937744044 0.3121874090388281 0  0.1885667957814526 0.3120207459146174 0  0.2514918000410188 0.3118419008497138 0  0.3144811433008954 0.3116474217041973 0  0.3775574212593309 0.3114346524935808 0  0.4407483570804592 0.3112022957559978 0  0.5040886741758455 0.3109512729999088 0  0.5676224274569087 0.3106859866739015 0  0.6314056898736127 0.3104160829088801 0  0.6955090623247587 0.3101587571614648 0  0.7600184900064624 0.3099414675760505 0  0.8250309468062 0.3098045083072276 0  0.8906387065988649 0.3098021057739226 0  0.9568945644701286 0.3099995444432412 0  1.023760192145141 0.3104629099543327 0  0 0.375 0  0.0628710439050052 0.3748235408091791 0  0.1257573317292405 0.3746417512954074 0  0.1886749268667991 0.3744492776488819 0  0.2516415182428149 0.3742408646898706 0  0.3146774145984942 0.3740115136673466 0  0.3778067787577864 0.3737568012325431 0  0.4410592196786669 0.3734734596594633 0  0.5044718804400178 0.3731603649606138 0  0.5680921526489596 0.3728201418073488 0  0.6319810539817595 0.3724616631334181 0  0.696217012402821 0.3721037622005419 0  0.760899138878664 0.3717803882711512 0  0.8261479384015685 0.3715470151920801 0  0.8921002918299739 0.3714870316832559 0  0.9588968525587924 0.3717149099663761 0  1.026669919715518 0.3723708190690991 0  0 0.4375 0  0.06289041214705893 0.4373066244118627 0  0.1257964881355667 0.4371067117582058 0  0.1887346632822668 0.4368936068133858 0  0.2517229508309549 0.4366605310781492 0  0.3147819153196502 0.4364006179127365 0  0.3779359069122743 0.4361071028958477 0  0.4412147159606827 0.4357737871631374 0  0.5046558809241201 0.4353959683429812 0  0.5683079807690036 0.4349721556569829 0  0.6322353458210698 0.4345070652995321 0  0.6965246665164456 0.4340166186608954 0  0.761293838903053 0.4335358431014635 0  0.8267029189609976 0.4331303843589005 0  0.8929665096758964 0.4329110701056895 0  0.9603681837176227 0.4330477248547478 0  1.029286691505398 0.4337738226739872 0  0 0.5 0  0.06289421567572734 0.4997962251603974 0  0.1258037888370309 0.4995847760639037 0  0.1887447380812138 0.4993577368759706 0  0.2517344864332722 0.4991067644067983 0  0.3147927284822798 0.498822931419008 0  0.3779425525758445 0.4984966774237588 0  0.4412120147746561 0.4981179761539896 0  0.5046365071328005 0.4976769262232906 0  0.5682625180898087 0.4971651477686962 0  0.6321538021086013 0.4965786776511139 0  0.6964015946688954 0.4959235681626457 0  0.7611412489285478 0.4952261297218106 0  0.8265781692595958 0.4945504336203234 0  0.8930255680497478 0.4940250351705746 0  0.9609561877028279 0.4938757587779704 0  1.031078438791835 0.4944485592704215 0  0 0.5625 0  0.06288271080312804 0.5622934522489692 0  0.1257798183184629 0.5620783066724453 0  0.1887062185481483 0.5618455855457719 0  0.2516779222356508 0.5615855299751884 0  0.3147127227820861 0.5612871973916521 0  0.3778310590558114 0.5609380714306261 0  0.4410572686167051 0.5605237464022051 0  0.5044216300986499 0.5600278397767492 0  0.5679640073796817 0.5594324773758275 0  0.6317407156186868 0.5587200941700747 0  0.695837698521023 0.5578781100177996 0  0.7603954647501093 0.5569096393853792 0  0.8256541184791137 0.5558561397627918 0  0.8920280610371534 0.5548408498156205 0  0.9602159613854182 0.5541382445887714 0  1.031350279064198 0.5542497587709804 0  0 0.625 0  0.06285679622069827 0.6247991945258187 0  0.1257264940874373 0.624589245113945 0  0.1886223034227508 0.6243604973376179 0  0.2515581787688878 0.6241021687215235 0  0.3145492098482027 0.6238016835844403 0  0.3776120769510907 0.6234438875725764 0  0.4407656932198447 0.6230101170233845 0  0.5040323537215444 0.6224771431050563 0  0.5674401894512515 0.6218161377055385 0  0.6310288324457266 0.6209921474673027 0  0.69486263490097 0.6199654524682631 0  0.7590607276769012 0.6186985020820778 0  0.8238617492223036 0.6171779528164316 0  0.8897503936555967 0.6154740374397992 0  0.9576666314884563 0.6138726133199532 0  1.029292264453546 0.6130675162018604 0  0 0.6875 0  0.06281791052754161 0.6873139622852067 0  0.1256468446420248 0.6871187689411107 0  0.1884979462782281 0.6869046592139463 0  0.2513827179582555 0.6866604779272727 0  0.3143131029645086 0.6863727871782764 0  0.3773014480491034 0.6860247162077178 0  0.4403603132428937 0.6855944147187885 0  0.5035021818351323 0.6850529366783442 0  0.5667394468105147 0.6843613543383563 0  0.6300860568833347 0.6834669581814596 0  0.6935650640667348 0.6822988067588691 0  0.7572338803411247 0.6807646539077667 0  0.8212573866931162 0.6787581927331491 0  0.886095201745865 0.6762116798885142 0  0.952884751834098 0.6733140480147309 0  1.02397113044276 0.6710424653522473 0  0 0.75 0  0.06276789761907735 0.7498377372831763 0  0.1255447132565619 0.7496669584745048 0  0.1883393370513173 0.7494785111674844 0  0.2511606956290701 0.7492617368707613 0  0.3140175704721387 0.7490034623177138 0  0.3769181138760092 0.7486866212278407 0  0.4398688320906381 0.748288275649187 0  0.5028726790641375 0.7477766795205116 0  0.5659257931706148 0.7471068141453657 0  0.6290125953986748 0.7462134658002124 0  0.6921005555436227 0.7450003281831703 0  0.7551427933404573 0.7433228673902613 0  0.8181216211426096 0.740963388810285 0  0.8812498570266636 0.7376114469635567 0  0.9456921969320995 0.732982700082935 0  1.014490501549749 0.7280799496061086 0  0 0.8125 0  0.06270885993310976 0.8123698625659725 0  0.1254244333210209 0.812232543836874 0  0.1881533251598877 0.8120802772196201 0  0.2509019869823443 0.8119038861448055 0  0.3136763927172765 0.8116918079796054 0  0.3764813112333725 0.8114287154040317 0  0.4393187994482187 0.8110934628711506 0  0.5021851953416201 0.8106559123725465 0  0.5650652262069138 0.8100718773513813 0  0.6279206447439947 0.809274817041051 0  0.6906689978719612 0.8081616288075076 0  0.7531472145118782 0.8065668235683184 0  0.8150645324465453 0.8042114642592059 0  0.876019982080901 0.8005940987933727 0  0.9360687846362911 0.7947706083285057 0  1.000959301867948 0.7853573385231779 0  0 0.875 0  0.06264302579524253 0.8749090027360037 0  0.1252905384002003 0.8748128028600795 0  0.1879469103395651 0.8747057487479074 0  0.250616325956629 0.8745810947922315 0  0.3133024729637126 0.8744302281133129 0  0.3760078705887443 0.8742415546897945 0  0.4387324599216461 0.873998807008038 0  0.5014706693913525 0.8736783809634538 0  0.5642052341562513 0.8732450405964061 0  0.6268938827902127 0.8726448544800695 0  0.6894399349544218 0.8717933164224995 0  0.7516262505073639 0.8705543267124441 0  0.8129678510354441 0.8686972700667034 0  0.8724017197814368 0.8657802816708622 0  0.9277359018519512 0.8607303083739499 0  0.9750509190796857 0.8502465965936357 0  0 0.9375 0  0.06257265561665688 0.9374531957240663 0  0.1251475679347392 0.9374036602834434 0  0.1877269287021598 0.9373484193270313 0  0.2503128221217006 0.9372839021624012 0  0.3129070562435571 0.9372055154243532 0  0.375510796712708 0.9371070225900195 0  0.4381237898840669 0.936
[...]
<PointData  Vectors="f_54"> 
<DataArray  type="Float64"  Name="f_54"  NumberOfComponents="3" format="ascii">0.0000000000000000e+00 0.0000000000000000e+00 0.0000000000000000e+00  0.0000000000000000e+00 0.0000000000000000e+00 0.0000000000000000e+00  0.0000000000000000e+00 0.0000000000000000e+00 0.0000000000000000e+00  0.0000000000000000e+00 0.0000000000000000e+00 0.0000000000000000e+00  0.0000000000000000e+00 0.0000000000000000e+00 0.0000000000000000e+00  0.0000000000000000e+00 0.0000000000000000e+00 0.0000000000000000e+00  0.0000000000000000e+00 0.0000000000000000e+00 0.0000000000000000e+00  0.0000000000000000e+00 0.0000000000000000e+00 0.0000000000000000e+00  0.0000000000000000e+00 0.0000000000000000e+00 0.0000000000000000e+00  0.0000000000000000e+00 0.0000000000000000e+00 0.0000000000000000e+00  0.0000000000000000e+00 0.0000000000000000e+00 0.0000000000000000e+00  0.0000000000000000e+00 0.0000000000000000e+00 0.0000000000000000e+00  0.0000000000000000e+00 0.0000000000000000e+00 0.0000000000000000e+00  0.0000000000000000e+00 0.0000000000000000e+00 0.0000000000000000e+00  0.0000000000000000e+00 0.0000000000000000e+00 0.0000000000000000e+00  0.0000000000000000e+00 0.0000000000000000e+00 0.0000000000000000e+00  0.0000000000000000e+00 0.0000000000000000e+00 0.0000000000000000e+00  0.0000000000000000e+00 0.0000000000000000e+00 0.0000000000000000e+00  -4.1411899498143918e-06 -2.9472765926934115e-07 0.0000000000000000e+00  -8.3899898428150510e-06 -5.8998929255098962e-07 0.0000000000000000e+00  -1.2856467994011713e-05 -8.8545551275746494e-07 0.0000000000000000e+00  -1.7646373041211267e-05 -1.1783332146858962e-06 0.0000000000000000e+00  -2.2857584800803663e-05 -1.4618898160771336e-06 0.0000000000000000e+00  -2.8574551408461349e-05 -1.7237262124941619e-06 0.0000000000000000e+00  -3.4859924474733080e-05 -1.9438245590314793e-06 0.0000000000000000e+00  -4.1742545912720398e-05 -2.0925274116244648e-06 0.0000000000000000e+00  -4.9200968677152993e-05 -2.1287795822105501e-06 0.0000000000000000e+00  -5.7142053846159644e-05 -1.9990791816059515e-06 0.0000000000000000e+00  -6.5375806958916914e-05 -1.6371914909098275e-06 0.0000000000000000e+00  -7.3594114355841135e-05 -9.6213264990279273e-07 0.0000000000000000e+00  -8.1386666278363654e-05 1.3875043559374941e-07 0.0000000000000000e+00  -8.8430585116905142e-05 1.8965022542044726e-06 0.0000000000000000e+00  -9.5444544482687049e-05 5.0454153676005942e-06 0.0000000000000000e+00  -1.0911009213837411e-04 1.2665549504442981e-05 0.0000000000000000e+00  0.0000000000000000e+00 0.0000000000000000e+00 0.0000000000000000e+00  -8.1810946878125784e-06 -5.8934624227886532e-07 0.0000000000000000e+00  -1.6580838619622402e-05 -1.1809768621742263e-06 0.0000000000000000e+00  -2.5423116145321852e-05 -1.7755282876204753e-06 0.0000000000000000e+00  -3.4924720992825724e-05 -2.3688679018898160e-06 0.0000000000000000e+00  -4.5289089178433965e-05 -2.9491554070059324e-06 0.0000000000000000e+00  -5.6696035244660848e-05 -3.4932934296122891e-06 0.0000000000000000e+00  -6.9285843880775979e-05 -3.9627503756521066e-06 0.0000000000000000e+00  -8.3135818611633987e-05 -4.2990020422964838e-06 0.0000000000000000e+00  -9.8227080194902131e-05 -4.4192911300599953e-06 0.0000000000000000e+00  -1.1439892403468946e-04 -4.2140953234074382e-06 0.0000000000000000e+00  -1.3128691362511197e-04 -3.5486246986031665e-06 0.0000000000000000e+00  -1.4823719880035472e-04 -2.2718904998559236e-06 0.0000000000000000e+00  -1.6417498897875344e-04 -2.3973595878510955e-07 0.0000000000000000e+00  -1.7734094995639659e-04 2.6270110576402322e-06 0.0000000000000000e+00  -1.8450440581682895e-04 6.1397718462352717e-06 0.0000000000000000e+00  -1.7767369839869168e-04 8.8638336165912389e-06 0.0000000000000000e+00  0.0000000000000000e+00 0.0000000000000000e+00 0.0000000000000000e+00  -1.2004392849396262e-05 -8.8174875830024312e-07 0.0000000000000000e+00  -2.4343227586561502e-05 -1.7698418363974661e-06 0.0000000000000000e+00  -3.7359430442719458e-05 -2.6683798473875688e-06 0.0000000000000000e+00  -5.1388879805449587e-05 -3.5747993474824483e-06 0.0000000000000000e+00  -6.6752984389566362e-05 -4.4755820250151842e-06 0.0000000000000000e+00  -8.3745442754761136e-05 -5.3408207963990341e-06 0.0000000000000000e+00  -1.0261064944541731e-04 -6.1174348091384192e-06 0.0000000000000000e+00  -1.2351069323261702e-04 -6.7211517171339932e-06 0.0000000000000000e+00  -1.4647715941356847e-04 -7.0280601715728858e-06 0.0000000000000000e+00  -1.7134261208574412e-04 -6.8678574429001219e-06 0.0000000000000000e+00  -1.9764341830729086e-04 -6.0233618679161920e-06 0.0000000000000000e+00  -2.2447675151502790e-04 -4.2454354296063948e-06 0.0000000000000000e+00  -2.5027006673903419e-04 -1.3017429497601594e-06 0.0000000000000000e+00  -2.7235668428834454e-04 2.9015179227189608e-06 0.0000000000000000e+00  -2.8610540743469437e-04 8.0424397148300840e-06 0.0000000000000000e+00  -2.8319220425072222e-04 1.2840090723776638e-05 0.0000000000000000e+00  0.0000000000000000e+00 0.0000000000000000e+00 0.0000000000000000e+00  -1.5491867198005738e-05 -1.1675339991371452e-06 0.0000000000000000e+00  -3.1438647998954408e-05 -2.3486563377591926e-06 0.0000000000000000e+00  -4.8307586873683219e-05 -3.5544385319904440e-06 0.0000000000000000e+00  -6.6562869164618876e-05 -4.7881383757335864e-06 0.0000000000000000e+00  -8.6659308961501577e-05 -6.0398519727168569e-06 0.0000000000000000e+00  -1.0902874269783828e-04 -7.2793096150507413e-06 0.0000000000000000e+00  -1.3405574683529115e-04 -8.4461976024092365e-06 0.0000000000000000e+00  -1.6203848752701508e-04 -9.4375956563755740e-06 0.0000000000000000e+00  -1.9312949746834337e-04 -1.0092757466898757e-05 0.0000000000000000e+00  -2.2724972560226553e-04 -1.0176999057264270e-05 0.0000000000000000e+00  -2.6396649539154942e-04 -9.3697414744305601e-06 0.0000000000000000e+00  -3.0231997002021764e-04 -7.2682408166286153e-06 0.0000000000000000e+00  -3.4056989012279496e-04 -3.4305614242790712e-06 0.0000000000000000e+00  -3.7581502640671177e-04 2.4984307758712988e-06 0.0000000000000000e+00  -4.0344644313875308e-04 1.0509001139278840e-05 0.0000000000000000e+00  -4.1661394000755902e-04 1.9733632511677253e-05 0.0000000000000000e+00  0.0000000000000000e+00 0.0000000000000000e+00 0.0000000000000000e+00  -1.8521019036565721e-05 -1.4391816966413077e-06 0.0000000000000000e+00  -3.7620074809925394e-05 -2.9028728774667113e-06 0.0000000000000000e+00  -5.7892055236409116e-05 -4.4132637802038995e-06 0.0000000000000000e+00  -7.9937598540766907e-05 -5.9847327661192497e-06 0.0000000000000000e+00  -1.0436076607066118e-04 -7.6180263356473086e-06 0.0000000000000000e+00  -1.3175852835020326e-04 -9.2917892526502952e-06 0.0000000000000000e+00  -1.6269792230858224e-04 -1.0950194227302036e-05 0.0000000000000000e+00  -1.9767555411069092e-04 -1.2485237746000170e-05 0.0000000000000000e+00  -2.3705284198171890e-04 -1.3712375043972019e-05 0.0000000000000000e+00  -2.8095923343954515e-04 -1.4339121108289368e-05 0.0000000000000000e+00  -3.2915484146890255e-04 -1.3929195053383938e-05 0.0000000000000000e+00  -3.8084379144914761e-04 -1.1871822637263536e-05 0.0000000000000000e+00  -4.3443113793326078e-04 -7.3800324833371079e-06 0.0000000000000000e+00  -4.8722611151525151e-04 4.3427166109757875e-07 0.0000000000000000e+00  -5.3514024733677750e-04 1.2331618556278879e-05 0.0000000000000000e+00  -5.7257966217876249e-04 2.8478470039365687e-05 0.0000000000000000e+00  0.0000000000000000e+00 0.0000000000000000e+00 0.0000000000000000e+00  -2.0968555435816610e-05 -1.6856225488277583e-06 0.0000000000000000e+00  -4.2636521526574452e-05 -3.4102780920680395e-06 0.0000000000000000e+00  -6.5725360682630760e-05 -5.2114804695893318e-06 0.0000000000000000e+00  -9.0976368288325676e-05 -7.1204902743189756e-06 0.0000000000000000e+00  -1.1915565446283573e-04 -9.1569757203520842e-06 0.0000000000000000e+00  -1.5105094164046519e-04 -1.1320387877879824e-05 0.0000000000000000e+00  -1.8745542410849566e-04 -1.3576064348068940e-05 0.0000000000000000e+00  -2.2913215431344923e-04 -1.5833218338393656e-05 0.0000000000000000e+00  -2.7675050854862262e-04 -1.7910938506731080e-05 0.0000000000000000e+00  -3.3078497091182775e-04 -1.9487526308158457e-05 0.0000000000000000e+00  -3.9136730275609536e-04 -2.0029157529142858e-05 0.0000000000000000e+00  -4.5808886343458229e-04 -1.8698876059586914e-05 0.0000000000000000e+00  -5.2976437397044744e-04 -1.4261703412041128e-05 0.0000000000000000e+00  -6.0419622947277670e-04 -5.0324911985855100e-06 0.0000000000000000e+00  -6.7802329881446594e-04 1.1042433139936377e-05 0.0000000000000000e+00  -7.4679859560925887e-04 3.6053256317421594e-05 0.0000000000000000e+00  0.0000000000000000e+00 0.0000000000000000e+00 0.0000000000000000e+00  -2.2715071913991708e-05 -1.8923773205977446e-06 0.0000000000000000e+00  -4.6242208090032214e-05 -3.8410978270398768e-06 0.0000000000000000e+00  -7.1421308501163152e-05 -5.9024520922511123e-06 0.0000000000000000e+00  -9.9131281907293309e-05 -8.1298582830341620e-06 0.0000000000000000e+00  -1.3030584679102816e-04 -1.0570304110736673e-05 0.0000000000000000e+00  -1.6594246540499113e-04 -1.3257379808058238e-05 0.0000000000000000e+00  -2.0709936782704652e-04 -1.6198352648564403e-05 0.0000000000000000e+00  -2.5487291286980818e-04 -1.9351055174277631e-05 0.0000000000000000e+00  -3.1034421646402899e-04 -2.2583679204874513e-05 0.0000000000000000e+00  -3.7448106937489219e-04 -2.5606659008251854e-05 0.0000000000000000e+00  -4.4798151999742139e-04 -2.7861167926051092e-05 0.0000000000000000e+00  -5.3105524586623970e-04 -2.8346197740628585e-05 0.0000000000000000e+00  -6.2316762815762877e-04 -2.5374126987857070e-05 0.0000000000000000e+00  -7.2282575210709011e-04 -1.6278582660087190e-05 0.0000000000000000e+00  -8.2754687911215587e-04 2.8348181514210718e-06 0.0000000000000000e+00  -9.3415491210427836e-04 3.7165226494961140e-05 0.0000000000000000e+00  0.0000000000000000e+00 0.0000000000000000e+00 0.0000000000000000e+00  -2.3652024522698200e-05 -2.0424190797427458e-06 0.0000000000000000e+00  -4.8210638178502185e-05 -4.1596251904978581e-06 0.0000000000000000e+00  -7.4616377289224065e-05 -6.4284202651662576e-06 0.0000000000000000e+00  -1.0387199100656934e-04 -8.9278805646397486e-06 0.0000000000000000e+00  -1.3707233272306984e-04 -1.1739040453193806e-05 0.0000000000000000e+00  -1.7543052655426893e-04 -1.4941921404436363e-05 0.0000000000000000e+00  -2.2029578628552840e-04 -1.8607359262633613e-05 0.0000000000000000e+00  -2.7315438487168385e-04 -2.2778784459403585e-05 0.0000000000000000e+00  -3.3559959284265161e-04 -2.7434804247930028e-05 0.0000000000000000e+00  -4.0924948775545374e-04 -3.2415612172800801e-05 0.0000000000000000e+00  -4.9558681172716618e-04 -3.7282929851636376e-05 0.0000000000000000e+00  -5.9570300671587487e-04 -4.1063681657949761e-05 0.0000000000000000e+00  -7.0997234043776013e-04 -4.1809341986649353e-05 0.0000000000000000e+00  -8.3779197859842230e-04 -3.5916155403641114e-05 0.0000000000000000e+00  -9.7767875628086720e-04 -1.7244020586601071e-05 0.0000000000000000e+00  -1.1280215611182819e-03 2.3849785338567908e-05 0.0000000000000000e+00  0.0000000000000000e+00 0.0000000000000000e+00 0.0000000000000000e+00  -2.3690773278057013e-05 -2.1178326414216632e-06 0.0000000000000000e+00  -4.8353271891998183e-05 -4.3275968610923497e-06 0.0000000000000000e+00  -7.4999113833782872e-05 -6.7256657614313723e-06 0.0000000000000000e+00  -1.0472715817001483e-04 -9.4170602493643336e-06 0.0000000000000000e+00  -1.3876984963593757e-04 -1.2519616450220031e-05 0.0000000000000000e+00  -1.7854126295316255e-04 -1.6167315933792002e-05 0.0000000000000000e+00  -2.2568398587013812e-04 -2.0511163649848810e-05 0.0000000000000000e+00  -2.8210716919922541e-04 -2.5713797958887398e-05 0.0000000000000000e+00  -3.4999952018072411e-04 -3.1929197672662919e-05 0.0000000000000000e+00  -4.3178737309361443e-04 -3.9248332865126651e-05 0.0000000000000000e+00  -5.2999046261672849e-04 -4.7569061128936573e-05 0.0000000000000000e+00  -6.4691854785143459e-04 -5.6302794966519700e-05 0.0000000000000000e+00  -7.8419410531764620e-04 -6.3750285319884517e-05 0.0000000000000000e+00  -9.4228588007120879e-04 -6.5892503694583139e-05 0.0000000000000000e+00  -1.1206921396512651e-03 -5.4422976487558085e-05 0.0000000000000000e+00  -1.3198137460073830e-03 -1.4214936492625172e-05 0.0000000000000000e+00  0.0000000000000000e+00 0.0000000000000000e+00 0.0000000000000000e+00  -2.2773079223939197e-05 -2.1021955239930474e-06 0.0000000000000000e+00  -4.6541666485874723e-05 -4.3092280252347684e-06 0.0000000000000000e+00  -7.2346133946771387e-05 -6.7327430951068829e-06 0.0000000000000000e+00  -1.0133745391464304e-04 -9.4995666344757872e-06 0.0000000000000000e+00  -1.3484048979298891e-04 -1.2760873095396538e-05 0.0000000000000000e+00  -1.7442677261212997e-04 -1.6703187677785059e-05 0.0000000000000000e+00  -2.2199772458103177e-04 -2.1561529475693235e-05 0.0000000000000000e+00  -2.7987478298917078e-04 -2.7634029025777451e-05 0.0000000000000000e+00  -3.5088260919827782e-04 -3.5294389228727731e-05 0.0000000000000000e+00  -4.3839045102013940e-04 -4.4990009010984593e-05 0.0000000000000000e+00  -5.4623828097745528e-04 -5.7189519589322479e-05 0.0000000000000000e+00  -6.7841861637820658e-04 -7.2177208498927037e-05 0.0000000000000000e+00  -8.3835685109369742e-04 -8.9418980366900281e-05 0.0000000000000000e+00  -1.0278640526227441e-03 -1.0584954502904794e-04 0.0000000000000000e+00  -1.2469147748188512e-03 -1.1212069007569379e-04 0.0000000000000000e+00  -1.4963524406062976e-03 -8.7117072274375883e-05 0.0000000000000000e+00  0.0000000000000000e+00 0.0000000000000000e+00 0.0000000000000000e+00  -2.0881966014052668e-05 -1.9834028134083007e-06 0.0000000000000000e+00  -4.2730944972942560e-05 -4.0773584677295727e-06 0.0000000000000000e+00  -6.6561675363119543e-05 -6.4010116339184187e-06 0.0000000000000000e+00  -9.3516540320518705e-05 -9.0939397138314220e-06 0.0000000000000000e+00  -1.2494326681776423e-04 -1.2329669081636483e-05 0.0000000000000000e+00  -1.6249146028750225e-04 -1.6333842755863655e-05 0.0000000000000000e+00  -2.0823514961295820e-04 -2.1409751291573703e-05 0.0000000000000000e+00  -2.6482685870322123e-04 -2.7975135411177025e-05 0.0000000000000000e+00  -3.3568097750422002e-04 -3.6615650363383401e-05 0.0000000000000000e+00  -4.2516108455111472e-04 -4.8160819790210657e-05 0.0000000000000000e+00  -5.3868799400102715e-04 -6.3781009300899750e-05 0.0000000000000000e+00  -6.8255822561261593e-04 -8.5060284726684127e-05 0.0000000000000000e+00  -8.6303320793695761e-04 -1.1380502154578486e-04 0.0000000000000000e+00  -1.0841096023754783e-03 -1.5056807359237277e-04 0.0000000000000000e+00  -1.3455377849203535e-03 -1.8841354987924526e-04 0.0000000000000000e+00  -1.6496681432213297e-03 -2.0174073845155653e-04 0.0000000000000000e+00  0.0000000000000000e+00 0.0000000000000000e+00 0.0000000000000000e+00  -1.8051370619645468e-05 -1.7564566550968892e-06 0.0000000000000000e+00  -3.6981327294337476e-05 -3.6196735258690133e-06 0.0000000000000000e+00  -5.7715605358821026e-05 -5.7057113826991565e-06 0.0000000000000000e+00  -8.1313163963583378e-05 -8.1536024762578676e-06 0.0000000000000000e+00  -1.0905171659518460e-04 -1.1141269032480374e-05 0.0000000000000000e+00  -1.4254087478288640e-04 -1.4908035778816772e-05 0.0000000000000000e+00  -1.8387781603359501e-04 -1.9788282318936191e-05 0.0000000000000000e+00  -2.3586484214479811e-04 -2.6263968996520859e-05 0.0000000000000000e+00  -3.0231037831972795e-04 -3.5050056961608578e-05 0.0000000000000000e+00  -3.8842505526640682e-04 -4.7239613955929878e-05 0.0000000000000000e+00  -5.0127393772616852e-04 -6.4560944122804233e-05 0.0000000000000000e+00  -6.5007830371006849e-04 -8.9842890092988394e-05 0.0000000000000000e+00  -8.4567993453470147e-04 -1.2780865126957384e-04 0.0000000000000000e+00  -1.0971773055452243e-03 -1.8593707750237350e-04 0.0000000000000000e+00  -1.4007796682173989e-03 -2.7116659558896707e-04 0.0000000000000000e+00  -1.7588648105909591e-03 -3.4124978982063734e-04 0.0000000000000000e+00  0.0000000000000000e+00 0.0000000000000000e+00 0.0000000000000000e+00  -1.4372626178338626e-05 -1.4256179941711826e-06 0.0000000000000000e+00  -2.9473459779954714e-05 -2.9436318823413936e-06 0.0000000000000000e+00  -4.6072675754142485e-05 -4.6550781647509910e-06 0.0000000000000000e+00  -6.5063420238736046e-05 -6.6828481282226467e-06 0.0000000000000000e+00  -8.7544384224545871e-05 -9.1871591315158295e-06 0.0000000000000000e+00  -1.1493476500568094e-04 -1.2387862180799709e-05 0.0000000000000000e+00  -1.4914299216983810e-04 -1.6598363620046551e-05 0.0000000000000000e+00  -1.9282289532951050e-04 -2.2279374991281145e-05 0.0000000000000000e+00  -2.4976971364197467e-04 -3.0127879940498184e-05 0.0000000000000000e+00  -3.2553175521366883e-04 -4.1233532321583612e-05 0.0000000000000000e+00  -4.2832412375437405e-04 -5.7378955397691677e-05 0.0000000000000000e+00  -5.7025432409325122e-04 -8.1685184403238340e-05 0.0000000000000000e+00  -7.6844914270103582e-04 -1.2015482758569328e-04 0.0000000000000000e+00  -1.0440365565769509e-03 -1.8558495740964319e-04 0.0000000000000000e+00  -1.4095667937882351e-03 -3.0759626871171741e-04 0.0000000000000000e+00  -1.7467656412451652e-03 -5.6840279476783051e-04 0.0000000000000000e+00  0.0000000000000000e+00 0.0000000000000000e+00 0.0000000000000000e+00  -9.9957310354450403e-06 -1.0053483381225235e-06 0.0000000000000000e+00  -2.0512839376236935e-05 -2.0787553725984455e-06 0.0000000000000000e+00  -3.2104401660647643e-05 -3.2949046027320198e-06 0.0000000000000000e+00  -4.5418562377030765e-05 -4.7454824509977068e-06 0.0000000000000000e+00  -6.1264629513609197e-05 -6.5512709377075268e-06 0.0000000000000000e+00  -8.0708757054483786e-05 -8.8795487038698660e-06 0.0000000000000000e+00  -1.0522149843997330e-04 -1.1970122090025532e-05 0.0000000000000000e+00  -1.3691650479977894e-04 -1.6174849981545795e-05 0.0000000000000000e+00  -1.7895175668588726e-04 -2.2017527348276825e-05 0.0000000000000000e+00  -2.3622442471726493e-04 -3.0283670941678671e-05 0.0000000000000000e+00  -3.1659480532556981e-04 -4.2157738153904919e-05 0.0000000000000000e+00  -4.3302562867531447e-04 -5.9474622944803238e-05 0.0000000000000000e+00  -6.0711652793831719e-04 -8.5443512924623051e-05 0.0000000000000000e+00  -8.7411737914562710e-04 -1.2758256952135827e-04 0.0000000000000000e+00  -1.2879242020295998e-03 -2.0929419156545188e-04 0.0000000000000000e+00  -1.9219604058305084e-03 -4.0057468298033928e-04 0.0000000000000000e+00  0.0000000000000000e+00 0.0000000000000000e+00 0.0000000000000000e+00  -5.1237794448512897e-06 -5.1968059818034761e-07 0.0000000000000000e+00  -1.0519322854815650e-05 -1.0754079143490134e-06 0.0000000000000000e+00  -1.6475437188906219e-05 -1.7068000827529922e-06 0.0000000000000000e+00  -2.3332747161703634e-05 -2.4627153529071252e-06 0.0000000000000000e+00  -3.1520524817030454e-05 -3.4077972373048741e-06 0.0000000000000000e+00  -4.1611346004061142e-05 -4.6317709255120735e-06 0.0000000000000000e+00  -5.4408111616128007e-05 -6.2628469546690276e-06 0.0000000000000000e+00  -7.1090775783259381e-05 -8.4861901187171473e-06 0.0000000000000000e+00  -9.3476789551920640e-05 -1.1564908034117759e-05 0.0000000000000000e+00  -1.2450557631680549e-04 -1.5845085645921909e-05 0.0000000000000000e+00  -1.6917292715598381e-04 -2.1663784993325085e-05 0.0000000000000000e+00  -2.3633849104028718e-04 -2.8848576101417845e-05 0.0000000000000000e+00  -3.4186661700777541e-04 -3.4725894382306562e-05 0.0000000000000000e+00  -5.1127578514624755e-04 -2.7684229357189377e-05 0.0000000000000000e+00  -7.6572446040090465e-04 2.5051773971081609e-05 0.0000000000000000e+00  -1.0524377645520124e-03 1.5719716971807115e-04 0.0000000000000000e+00  0.0000000000000000e+00 0.0000000000000000e+00 0.0000000000000000e+00  0.0000000000000000e+00 0.0000000000000000e+00 0.0000000000000000e+00  0.0000000000000000e+00 0.0000000000000000e+00 0.0000000000000000e+00  0.0000000000000000e+00 0.0000000000000000e+00 0.0000000000000000e+00  0.0000000000000000e+00 0.0000000000000000e+00 0.0000000000000000e+00  0.0000000000000000e+00 0.0000000000000000e+00