<?xml version="1.0"?>
<VTKFile type="UnstructuredGrid"  version="0.1"  >
<UnstructuredGrid>
<Piece  NumberOfPoints="289" NumberOfCells="512">
<Points>
<DataArray  type="Float64"  NumberOfComponents="3"  format="ascii">0 0 0  0.0625 0 0  0.125 0 0  0.1875 0 0  0.25 0 0  0.3125 0 0  0.375 0 0  0.4375 0 0  0.5 0 0  0.5625 0 0  0.625 0 0  0.6875 0 0  0.75 0 0  0.8125 0 0  0.875 0 0  0.9375 0 0  1 0 0  0 0.0625 0  0.06259923134712739 0.06246774411638215 0  0.1252023817834415 0.06243483690980757 0  0.1878135897599228 0.062400653691775 0  0.250437356003794 0.06236466175585251 0  0.3130787643549801 0.06232648022898641 0  0.375743759625714 0.06228595491777958 0  0.4384395323320645 0.06224324702354272 0  0.5011751125122753 0.06219892478454557 0  0.5639624002013591 0.06215402668840399 0  0.6268181757779285 0.06211002181624398 0  0.6897684763024199 0.06206849521179769 0  0.7528591209835535 0.06203013454454964 0  0.8161834255385882 0.06199183914497208 0  0.8799614885777519 0.0619381761593852 0  0.9447861446676235 0.06181342988757248 0  1.012473675930561 0.06141656883686076 0  0 0.125 0  0.06269459874488849 0.1249360985758241 0  0.1253969096855231 0.1248708448559538 0  0.1881150777749335 0.1248029349267176 0  0.2508579726568311 0.1247312370977853 0  0.3136356283068608 0.1246549084343353 0  0.3764597891908221 0.1245735464335401 0  0.4393446445470278 0.124487379091436 0  0.5023079029210233 0.1243974822034547 0  0.5653725105055916 0.1243059834480697 0  0.6285696445914207 0.1242161576382207 0  0.6919443142971154 0.1241322230249246 0  0.7555663119668409 0.1240585186799342 0  0.8195515866393859 0.1239977190994236 0  0.8841001647080499 0.1239487257354028 0  0.9495394883112901 0.1239116035383841 0  1.016233489765636 0.12394271171396 0  0 0.1875 0  0.06278230145783008 0.187405781332163 0  0.1255758097927001 0.1873094223208152 0  0.1883923534704711 0.1872088424694612 0  0.2512448195708668 0.1871021882320512 0  0.3141477885420726 0.1869879969543519 0  0.3771183059738232 0.1868654234015135 0  0.4401768762949398 0.1867345450067488 0  0.5033488112174619 0.18659675021472 0  0.5666661464315068 0.186455187454876 0  0.6301704594090916 0.1863151991251046 0  0.6939170294720894 0.1861845710835822 0  0.7579805769375824 0.1860732789442566 0  0.8224610963752832 0.1859921828106678 0  0.887481173108902 0.1859496063778887 0  0.9531439433092357 0.1859422829463833 0  1.019372663604423 0.1859221302081044 0  0 0.25 0  0.0628588597824245 0.2498775948509583 0  0.1257319624363349 0.2497521501219548 0  0.1886343218579823 0.2496206808474528 0  0.2515822945429667 0.2494804414834756 0  0.3145943758010225 0.2493291176975056 0  0.3776921502491009 0.2491651134601148 0  0.4409014709957425 0.2489879710720903 0  0.5042539546802898 0.2487989606640562 0  0.5677888727579896 0.2486018632972408 0  0.6315554365138772 0.2484039353714042 0  0.6956151546892307 0.2482169604991235 0  0.7600429757701122 0.2480581343421688 0  0.8249233764741589 0.2479502307296161 0  0.8903318300608545 0.247919966175569 0  0.9562826820537766 0.2479927181429529 0  1.022621921526978 0.2481827469477765 0  0 0.3125 0  0.0629212640891995 0.312352447908427 0  0.1258592105515021 0.3122008430247903 0  0.1888313923759423 0.312041158511163 0  0.2518569239739692 0.3118695590051775 0  0.3149574025708608 0.311682586671569 0  0.3781580013824105 0.3114774738030598 0  0.4414888071735961 0.3112526466417674 0  0.5049864701150901 0.3110085027070464 0  0.5686961865226835 0.3107485595473235 0  0.6326738738897099 0.3104810737408046 0  0.6969879712095599 0.3102211866243583 0  0.7617193279233104 0.3099935101272694 0  0.8269557666507547 0.3098347214844726 0  0.8927751735570447 0.3097950601332419 0  0.9592098987871911 0.3099366043617777 0  1.026195679612966 0.3103253380402383 0  0 0.375 0  0.06296709940689123 0.374831356052163 0  0.125952616501324 0.3746575588475673 0  0.1889758824191236 0.374473423625604 0  0.2520579298737651 0.3742738332573104 0  0.3152224992878369 0.3740538698251015 0  0.3784972423450406 0.3738090915449681 0  0.4419152160619252 0.3735360456488463 0  0.5055167716116887 0.3732331505013712 0  0.569351924699103 0.3729021379680685 0  0.6334831943916682 0.3725503130767607 0  0.6979886107768412 0.3721939327593232 0  0.7629639659262223 0.3718629458216489 0  0.8285223391706644 0.3716069899178299 0  0.8947879716422237 0.3715016155782622 0  0.9618830938003122 0.3716519985552035 0  1.029916365264443 0.3721894086601164 0  0 0.4375 0  0.06299464207291391 0.437315413013411 0  0.1260086616462208 0.4371245476931693 0  0.1890623319807078 0.4369210063449246 0  0.252177675103232 0.4366982525396187 0  0.3153795009029908 0.4364496279512383 0  0.3786966714620921 0.4361685075576281 0  0.4421637236781414 0.4358486984755003 0  0.5058230427949983 0.4354852565379175 0  0.5697278594589027 0.4350760040738391 0  0.6339464287774892 0.4346241940191378 0  0.6985677933489018 0.4341429718401956 0  0.7637094356554933 0.4336624565569896 0  0.829526798444964 0.433240118868621 0  0.8962243732526008 0.4329740426373608 0  0.9640696256256343 0.4330157606489223 0  1.033420064630087 0.4335749694013646 0  0 0.5 0  0.06300292566484786 0.4998057272944511 0  0.1260253837345217 0.4996041269816908 0  0.1890877249034814 0.4993876385458791 0  0.2522119908261809 0.4991482829558698 0  0.3154229177910658 0.4988775028002024 0  0.3787491759339264 0.4985660962428891 0  0.4422250167832487 0.4982043410999273 0  0.5058926273583936 0.4977824912957797 0  0.5698057133780102 0.4972919832514885 0  0.634035213420837 0.4967279619956389 0  0.6986786301053014 0.4960941865734401 0  0.7638752240359881 0.4954120210930638 0  0.8298300029718454 0.4947358176842954 0  0.8968496062755097 0.4941764282481334 0  0.9653935603320696 0.4939299435522748 0  1.036152664900935 0.4942963755264879 0  0 0.5625 0  0.06299177249768531 0.5623033227123942 0  0.1260024435257847 0.562098476931866 0  0.1890516006627499 0.5618769347694359 0  0.2521603581620634 0.5616294266985129 0  0.3153522444701775 0.5613455573739825 0  0.3786542930568096 0.5610134286770675 0  0.4420985176801959 0.5606193234143229 0  0.5057241316474482 0.560147582947023 0  0.5695812392643441 0.5595809788143145 0  0.6337374599277169 0.5589022241616484 0  0.6982903096969086 0.5580979768073996 0  0.7633904374019037 0.5571680654809849 0  0.8292838333102633 0.5561450392043924 0  0.8963832544076585 0.5551316958662001 0  0.965377346816797 0.5543610479002661 0  1.037386673839019 0.5542600852624234 0  0 0.625 0  0.06296178645362684 0.6248090089008075 0  0.1259411094434508 0.6246093665157089 0  0.1889560311506717 0.6243919433698737 0  0.2520258878193982 0.6241465535215045 0  0.3151719854891893 0.6238613322812664 0  0.3784184089288273 0.6235220014933491 0  0.4417930716423046 0.6231109979216241 0  0.505329310652039 0.6226064792492165 0  0.5690687561302941 0.6219813326361717 0  0.6330672038159632 0.6212026045710103 0  0.6974074452823735 0.6202325369318044 0  0.7622276224992259 0.6190343784918065 0  0.8277819395078369 0.6175911280532828 0  0.8945607285849679 0.61595627165819 0  0.9634956497498517 0.6143672013824127 0  1.0362556172302 0.613410356588856 0  0 0.6875 0  0.06291430486425743 0.6873232366812014 0  0.1258441530285025 0.6871378399218276 0  0.1888054422827839 0.6869346126144895 0  0.2518150443793469 0.6867030611925672 0  0.3148912652171987 0.6864305721616211 0  0.3780542811345897 0.6861013489538201 0  0.4413265560470961 0.6856949868451664 0  0.5047333246624617 0.6851845301594404 0  0.5683035150122672 0.6845338332599239 0  0.632072378320561 0.6836940988281769 0  0.6960896599025469 0.6825998261355214 0  0.7604440358822991 0.6811659242476454 0  0.825331560925023 0.6792936515671671 0  0.891230693402282 0.6769153030049239 0  0.9592707214562134 0.6741809653344579 0  1.031786753663608 0.6719314008286261 0  0 0.75 0  0.0628513123878346 0.7498459617277974 0  0.1257156608344012 0.7496839137360655 0  0.188606286367029 0.7495052554340111 0  0.2515371109103484 0.7492999915831257 0  0.3145229730991507 0.7490558013007755 0  0.3775797007748021 0.748756770158402 0  0.4407238669942722 0.7483815769019028 0  0.5039719762234498 0.7479008150721476 0  0.5673387351881224 0.747272946062245 0  0.6308342149057621 0.7464380780118239 0  0.6944610713264994 0.7453082875062338 0  0.7582190386140765 0.7437526302041859 0  0.822146386736666 0.7415756956252109 0  0.8865047106764539 0.7385010270521457 0  0.9524412413124482 0.7342700273217678 0  1.022977810768388 0.729674495643276 0  0 0.8125 0  0.06277532703586167 0.8123765451690084 0  0.1255607869866183 0.8122463486655045 0  0.1883666120872916 0.812102126145745 0  0.2512034763196889 0.8119352902645595 0  0.3140825741401156 0.8117350511677722 0  0.3770154575097752 0.8114871493797466 0  0.4400133635867693 0.8111719736111347 0  0.5030854858302553 0.8107616607202861 0  0.5662350798118412 0.8102154966935586 0  0.6294512319213081 0.8094724147785038 0  0.6926924188281186 0.8084383150435686 0  0.7558568024935812 0.8069634546197908 0  0.8187421436251947 0.8047989024713603 0  0.8810608745053378 0.8015062099605836 0  0.9429469269683519 0.7962833964807559 0  1.009572450268617 0.7880879178886023 0  0 0.875 0  0.06268927443177449 0.8749137188586367 0  0.1253854861675646 0.8748225596015875 0  0.1880956151124145 0.8747212280059261 0  0.2508269126074233 0.8746034196259546 0  0.3135869145929145 0.8744611070396213 0  0.3763832374756949 0.8742835145236373 0  0.4392228933006029 0.87405556102013 0  0.5021105341688782 0.873755408501265 0  0.5650442665474327 0.8733505002051767 0  0.6280058242282354 0.8727910254788841 0  0.6909373897602936 0.8719989004825717 0  0.7536866547220984 0.8708483448395485 0  0.8158784676548774 0.8691270943953741 0  0.8766336102847074 0.8664349136606739 0  0.9340536443866306 0.861824196579872 0  0.9846615892556214 0.8523809795809243 0  0 0.9375 0  0.0625963671805264 0.9374556344566914 0  0.1251962684865356 0.9374087097704514 0  0.1878032572557395 0.937356441411908 0  0.2504210292127829 0.937295494176991 0  0.3130534323529637 0.937221588850127 0  0.375704366299134 0.9371289296488131 0  0.4383774293508271 0.9370093239419337 
[...]
<PointData  Vectors="f_54"> 
<DataArray  type="Float64"  Name="f_54"  NumberOfComponents="3" format="ascii">0.0000000000000000e+00 0.0000000000000000e+00 0.0000000000000000e+00  0.0000000000000000e+00 0.0000000000000000e+00 0.0000000000000000e+00  0.0000000000000000e+00 0.0000000000000000e+00 0.0000000000000000e+00  0.0000000000000000e+00 0.0000000000000000e+00 0.0000000000000000e+00  0.0000000000000000e+00 0.0000000000000000e+00 0.0000000000000000e+00  0.0000000000000000e+00 0.0000000000000000e+00 0.0000000000000000e+00  0.0000000000000000e+00 0.0000000000000000e+00 0.0000000000000000e+00  0.0000000000000000e+00 0.0000000000000000e+00 0.0000000000000000e+00  0.0000000000000000e+00 0.0000000000000000e+00 0.0000000000000000e+00  0.0000000000000000e+00 0.0000000000000000e+00 0.0000000000000000e+00  0.0000000000000000e+00 0.0000000000000000e+00 0.0000000000000000e+00  0.0000000000000000e+00 0.0000000000000000e+00 0.0000000000000000e+00  0.0000000000000000e+00 0.0000000000000000e+00 0.0000000000000000e+00  0.0000000000000000e+00 0.0000000000000000e+00 0.0000000000000000e+00  0.0000000000000000e+00 0.0000000000000000e+00 0.0000000000000000e+00  0.0000000000000000e+00 0.0000000000000000e+00 0.0000000000000000e+00  0.0000000000000000e+00 0.0000000000000000e+00 0.0000000000000000e+00  0.0000000000000000e+00 0.0000000000000000e+00 0.0000000000000000e+00  -3.4756807543595760e-06 -2.5495464700357317e-07 0.0000000000000000e+00  -7.0353785351778830e-06 -5.1008322109956767e-07 0.0000000000000000e+00  -1.0763940778329986e-05 -7.6480052423800976e-07 0.0000000000000000e+00  -1.4740188196680792e-05 -1.0163990574727642e-06 0.0000000000000000e+00  -1.9032297934082577e-05 -1.2588188934418240e-06 0.0000000000000000e+00  -2.3690890555059857e-05 -1.4812696873305582e-06 0.0000000000000000e+00  -2.8738752596596528e-05 -1.6667881526209519e-06 0.0000000000000000e+00  -3.4155756308125387e-05 -1.7909797645923506e-06 0.0000000000000000e+00  -3.9856813717709261e-05 -1.8214582904412018e-06 0.0000000000000000e+00  -4.5659127197973723e-05 -1.7188750841873129e-06 0.0000000000000000e+00  -5.1231285321028866e-05 -1.4408704344785632e-06 0.0000000000000000e+00  -5.6007431946976228e-05 -9.5051869886909467e-07 0.0000000000000000e+00  -5.9024832520832182e-05 -2.2995971516309699e-07 0.0000000000000000e+00  -5.8571532341201542e-05 7.0520149733935408e-07 0.0000000000000000e+00  -5.1305393207200277e-05 1.8170598114069061e-06 0.0000000000000000e+00  -2.9700987809804643e-05 3.2300450317060549e-06 0.0000000000000000e+00  0.0000000000000000e+00 0.0000000000000000e+00 0.0000000000000000e+00  -6.8749066697288384e-06 -5.1026578078189979e-07 0.0000000000000000e+00  -1.3921987991013879e-05 -1.0219358063204217e-06 0.0000000000000000e+00  -2.1315516761162089e-05 -1.5349474213921302e-06 0.0000000000000000e+00  -2.9219299050712114e-05 -2.0450868886764041e-06 0.0000000000000000e+00  -3.7778324885166394e-05 -2.5415007726529997e-06 0.0000000000000000e+00  -4.7105929249003799e-05 -3.0037913311983513e-06 0.0000000000000000e+00  -5.7264382853620476e-05 -3.3987808478058875e-06 0.0000000000000000e+00  -6.8236181426279031e-05 -3.6773354697172715e-06 0.0000000000000000e+00  -7.9882138611439159e-05 -3.7721703279758702e-06 0.0000000000000000e+00  -9.1880040981524619e-05 -3.5984122546642033e-06 0.0000000000000000e+00  -1.0363241224217838e-04 -3.0599683512278298e-06 0.0000000000000000e+00  -1.1411966943651158e-04 -2.0665377276677442e-06 0.0000000000000000e+00  -1.2164510799134596e-04 -5.6879169108052646e-07 0.0000000000000000e+00  -1.2334371685722071e-04 1.3749335557377564e-06 0.0000000000000000e+00  -1.1413670416909943e-04 3.4674164073248570e-06 0.0000000000000000e+00  -8.4321247820316468e-05 4.8643122138270407e-06 0.0000000000000000e+00  0.0000000000000000e+00 0.0000000000000000e+00 0.0000000000000000e+00  -1.0105999438630240e-05 -7.6439847400941203e-07 0.0000000000000000e+00  -2.0478564847910730e-05 -1.5334556471563309e-06 0.0000000000000000e+00  -3.1388362774931397e-05 -2.3097949539303205e-06 0.0000000000000000e+00  -4.3094120940179222e-05 -3.0901503967763600e-06 0.0000000000000000e+00  -5.5832261984899957e-05 -3.8616526206547974e-06 0.0000000000000000e+00  -6.9800144216908343e-05 -4.5972363161546790e-06 0.0000000000000000e+00  -8.5129955878889745e-05 -5.2500957932650191e-06 0.0000000000000000e+00  -1.0184952355639002e-04 -5.7474785669826251e-06 0.0000000000000000e+00  -1.1982513340033982e-04 -5.9848218175344834e-06 0.0000000000000000e+00  -1.3867954451476678e-04 -5.8225397775125247e-06 0.0000000000000000e+00  -1.5767479925936812e-04 -5.0900029153595969e-06 0.0000000000000000e+00  -1.7554246854147140e-04 -3.6049382799703284e-06 0.0000000000000000e+00  -1.9023157464880983e-04 -1.2226547131706876e-06 0.0000000000000000e+00  -1.9853055939694813e-04 2.0593907642786396e-06 0.0000000000000000e+00  -1.9554842901657385e-04 5.8955251427973956e-06 0.0000000000000000e+00  -1.7434949073893852e-04 9.2113627925018612e-06 0.0000000000000000e+00  0.0000000000000000e+00 0.0000000000000000e+00 0.0000000000000000e+00  -1.3071716601058690e-05 -1.0138031653170627e-06 0.0000000000000000e+00  -2.6511268195867333e-05 -2.0383496060883085e-06 0.0000000000000000e+00  -4.0693558340117323e-05 -3.0820380230954905e-06 0.0000000000000000e+00  -5.5984244253404786e-05 -4.1462234690756897e-06 0.0000000000000000e+00  -7.2729800362446201e-05 -5.2204674806072769e-06 0.0000000000000000e+00  -9.1239727308700026e-05 -6.2762381652309846e-06 0.0000000000000000e+00  -1.1175719719010923e-04 -7.2586075912972624e-06 0.0000000000000000e+00  -1.3441352663707149e-04 -8.0757502505842583e-06 0.0000000000000000e+00  -1.5916087015512128e-04 -8.5867170683175831e-06 0.0000000000000000e+00  -1.8567653997235233e-04 -8.5894426835677156e-06 0.0000000000000000e+00  -2.1323157571490788e-04 -7.8139007762440320e-06 0.0000000000000000e+00  -2.4051626300431459e-04 -5.9307801871067163e-06 0.0000000000000000e+00  -2.6541936553377998e-04 -2.5954615734714990e-06 0.0000000000000000e+00  -2.8477918163038698e-04 2.4381571144446773e-06 0.0000000000000000e+00  -2.9420855151607918e-04 9.0816631487267716e-06 0.0000000000000000e+00  -2.8835265378167601e-04 1.6504560715889985e-05 0.0000000000000000e+00  0.0000000000000000e+00 0.0000000000000000e+00 0.0000000000000000e+00  -1.5669075530928522e-05 -1.2521552178796184e-06 0.0000000000000000e+00  -3.1812745422239484e-05 -2.5244688444168221e-06 0.0000000000000000e+00  -4.8916741722428672e-05 -3.8348491307381691e-06 0.0000000000000000e+00  -6.7465301553407074e-05 -5.1939753350972544e-06 0.0000000000000000e+00  -8.7934705005539803e-05 -6.5999719308707388e-06 0.0000000000000000e+00  -1.1077811158118085e-04 -8.0307405390890238e-06 0.0000000000000000e+00  -1.3639729006691516e-04 -9.4328894684556633e-06 0.0000000000000000e+00  -1.6509563735772183e-04 -1.0706106027035232e-05 0.0000000000000000e+00  -1.9700575362416800e-04 -1.1682034059618826e-05 0.0000000000000000e+00  -2.3198436581089540e-04 -1.2097769495398444e-05 0.0000000000000000e+00  -2.6946869727437905e-04 -1.1567004131407503e-05 0.0000000000000000e+00  -3.0829359156850437e-04 -9.5584612010715559e-06 0.0000000000000000e+00  -3.4648200550532748e-04 -5.4042445262401963e-06 0.0000000000000000e+00  -3.8105168106448143e-04 1.6176393364557852e-06 0.0000000000000000e+00  -4.0794370187132632e-04 1.2055178468376141e-05 0.0000000000000000e+00  -4.2227705403551346e-04 2.5824842842683262e-05 0.0000000000000000e+00  0.0000000000000000e+00 0.0000000000000000e+00 0.0000000000000000e+00  -1.7791156861311127e-05 -1.4699128353303792e-06 0.0000000000000000e+00  -3.6165310872997134e-05 -2.9727477045004692e-06 0.0000000000000000e+00  -5.5721784267888056e-05 -4.5398162952969397e-06 0.0000000000000000e+00  -7.7071665188559028e-05 -6.1963963649311743e-06 0.0000000000000000e+00  -1.0083829785190221e-04 -7.9566517540563807e-06 0.0000000000000000e+00  -1.2764911911309829e-04 -9.8155161924302154e-06 0.0000000000000000e+00  -1.5811382645152056e-04 -1.1735743512741445e-05 0.0000000000000000e+00  -1.9278200086849173e-04 -1.3627604390455716e-05 0.0000000000000000e+00  -2.3207135208046470e-04 -1.5317907176316193e-05 0.0000000000000000e+00  -2.7615660447729830e-04 -1.6504585993152890e-05 0.0000000000000000e+00  -3.2481068068145177e-04 -1.6694274580423221e-05 0.0000000000000000e+00  -3.7719786964808988e-04 -1.5125888914657301e-05 0.0000000000000000e+00  -4.3163816226484699e-04 -1.0698396782257620e-05 0.0000000000000000e+00  -4.8539641475745302e-04 -1.9516657267725629e-06 0.0000000000000000e+00  -5.3459112355453678e-04 1.2806282501686992e-05 0.0000000000000000e+00  -5.7432100581605221e-04 3.5103414279910662e-05 0.0000000000000000e+00  0.0000000000000000e+00 0.0000000000000000e+00 0.0000000000000000e+00  -1.9331225212059961e-05 -1.6543591446594656e-06 0.0000000000000000e+00  -3.9348991919510400e-05 -3.3571108760198821e-06 0.0000000000000000e+00  -6.0762337042748290e-05 -5.1563110180046189e-06 0.0000000000000000e+00  -8.4310645317102446e-05 -7.0968649761939085e-06 0.0000000000000000e+00  -1.1077475543191226e-04 -9.2168811025137137e-06 0.0000000000000000e+00  -1.4098079424686372e-04 -1.1540731118469224e-05 0.0000000000000000e+00  -1.7579141985322338e-04 -1.4066396264619322e-05 0.0000000000000000e+00  -2.1607622955626649e-04 -1.6743146154405756e-05 0.0000000000000000e+00  -2.6264934808966088e-04 -1.9433224668318202e-05 0.0000000000000000e+00  -3.1615853059039647e-04 -2.1847924331127355e-05 0.0000000000000000e+00  -3.7690920937378662e-04 -2.3444917518059431e-05 0.0000000000000000e+00  -4.4461491363928074e-04 -2.3273049147654996e-05 0.0000000000000000e+00  -5.1809240451334258e-04 -1.9761287938249906e-05 0.0000000000000000e+00  -5.9497235104939022e-04 -1.0484995615387624e-05 0.0000000000000000e+00  -6.7155031024090559e-04 7.9876143388517438e-06 0.0000000000000000e+00  -7.4286254683479885e-04 4.0015705604583668e-05 0.0000000000000000e+00  0.0000000000000000e+00 0.0000000000000000e+00 0.0000000000000000e+00  -2.0189264305929085e-05 -1.7902877760250423e-06 0.0000000000000000e+00  -4.1154738126334840e-05 -3.6457277853429577e-06 0.0000000000000000e+00  -6.3701935062135772e-05 -5.6330148046526245e-06 0.0000000000000000e+00  -8.8689538556319147e-05 -7.8202916373889596e-06 0.0000000000000000e+00  -1.1705454825414177e-04 -1.0276338430894850e-05 0.0000000000000000e+00  -1.4983342290077775e-04 -1.3067022900410713e-05 0.0000000000000000e+00  -1.8817438061008947e-04 -1.6246454899295217e-05 0.0000000000000000e+00  -2.3333184428513714e-04 -1.9838068921773991e-05 0.0000000000000000e+00  -2.8662759424734894e-04 -2.3796793176156656e-05 0.0000000000000000e+00  -3.4935455517392361e-04 -2.7936282621949804e-05 0.0000000000000000e+00  -4.2259079798051465e-04 -3.1793408519490654e-05 0.0000000000000000e+00  -5.0689242048575797e-04 -3.4385925046047774e-05 0.0000000000000000e+00  -6.0186664229101221e-04 -3.3806589291264685e-05 0.0000000000000000e+00  -7.0572319700147558e-04 -2.6617182682763786e-05 0.0000000000000000e+00  -8.1504884997505786e-04 -7.1040221767587976e-06 0.0000000000000000e+00  -9.2503560166853351e-04 3.3446658566106228e-05 0.0000000000000000e+00  0.0000000000000000e+00 0.0000000000000000e+00 0.0000000000000000e+00  -2.0280705078670984e-05 -1.8614278567565511e-06 0.0000000000000000e+00  -4.1402470124652398e-05 -3.8038825039533079e-06 0.0000000000000000e+00  -6.4242478031093929e-05 -5.9122199843562091e-06 0.0000000000000000e+00  -8.9755909133730941e-05 -8.2786322546828053e-06 0.0000000000000000e+00  -1.1901761215740622e-04 -1.1005948077115027e-05 0.0000000000000000e+00  -1.5326539736527038e-04 -1.4209794056289052e-05 0.0000000000000000e+00  -1.9394208306960036e-04 -1.8017797410091910e-05 0.0000000000000000e+00  -2.4272843579600835e-04 -2.2561723053656953e-05 0.0000000000000000e+00  -3.0154988430707258e-04 -2.7953563947355328e-05 0.0000000000000000e+00  -3.7252413241099666e-04 -3.4226279629755847e-05 0.0000000000000000e+00  -4.5779380949680982e-04 -4.1198422087419189e-05 0.0000000000000000e+00  -5.5916608820604332e-04 -4.8179718490997764e-05 0.0000000000000000e+00  -6.7749725759921940e-04 -5.3363590840604988e-05 0.0000000000000000e+00  -8.1191848019531343e-04 -5.2681735164833970e-05 0.0000000000000000e+00  -9.5942580281460112e-04 -3.7984493244891939e-05 0.0000000000000000e+00  -1.1157654803911319e-03 5.2117933276627404e-06 0.0000000000000000e+00  0.0000000000000000e+00 0.0000000000000000e+00 0.0000000000000000e+00  -1.9546719780405880e-05 -1.8525713644845305e-06 0.0000000000000000e+00  -3.9962820134688950e-05 -3.7984517097987650e-06 0.0000000000000000e+00  -6.2159665042476830e-05 -5.9370917117136528e-06 0.0000000000000000e+00  -8.7149920807632497e-05 -8.3815042499135273e-06 0.0000000000000000e+00  -1.1610629003158565e-04 -1.1266337517138207e-05 0.0000000000000000e+00  -1.5042986188903583e-04 -1.4757331558033408e-05 0.0000000000000000e+00  -1.9182937403581092e-04 -1.9062091726980024e-05 0.0000000000000000e+00  -2.4240837682837384e-04 -2.4440834796053766e-05 0.0000000000000000e+00  -3.0474698076520489e-04 -3.1212259851282905e-05 0.0000000000000000e+00  -3.8194253743463127e-04 -3.9740314368125074e-05 0.0000000000000000e+00  -4.7753001341593350e-04 -5.0362698790011685e-05 0.0000000000000000e+00  -5.9513067242156518e-04 -6.3156454796774856e-05 0.0000000000000000e+00  -7.3760433537962034e-04 -7.7271756591411320e-05 0.0000000000000000e+00  -9.0560574820295876e-04 -8.9220885924537835e-05 0.0000000000000000e+00  -1.0963970108998659e-03 -8.9225188866499819e-05 0.0000000000000000e+00  -1.3051019280291396e-03 -5.5890207269593756e-05 0.0000000000000000e+00  0.0000000000000000e+00 0.0000000000000000e+00 0.0000000000000000e+00  -1.7964977384440044e-05 -1.7521752675654878e-06 0.0000000000000000e+00  -3.6780384257793902e-05 -3.6035552492559927e-06 0.0000000000000000e+00  -5.7342253130467272e-05 -5.6613152384716660e-06 0.0000000000000000e+00  -8.0665058618623235e-05 -8.0513958216384863e-06 0.0000000000000000e+00  -1.0795493348863413e-04 -1.0930923039569505e-05 0.0000000000000000e+00  -1.4070191699170316e-04 -1.4504847174050709e-05 0.0000000000000000e+00  -1.8079905988090315e-04 -1.9049114300544866e-05 0.0000000000000000e+00  -2.3069531630025560e-04 -2.4943453778729346e-05 0.0000000000000000e+00  -2.9358266259479812e-04 -3.2717397152360083e-05 0.0000000000000000e+00  -3.7359624911473965e-04 -4.3111549433958529e-05 0.0000000000000000e+00  -4.7594815446669515e-04 -5.7144771958217063e-05 0.0000000000000000e+00  -6.0677738515137907e-04 -7.6127197901732191e-05 0.0000000000000000e+00  -7.7221797455664465e-04 -1.0135636557504380e-04 0.0000000000000000e+00  -9.7584572257989276e-04 -1.3247577645008959e-04 0.0000000000000000e+00  -1.2151725970800150e-03 -1.6125914438982353e-04 0.0000000000000000e+00  -1.4853120842013734e-03 -1.5971161950923719e-04 0.0000000000000000e+00  0.0000000000000000e+00 0.0000000000000000e+00 0.0000000000000000e+00  -1.5559269862065824e-05 -1.5550081862196003e-06 0.0000000000000000e+00  -3.1895173049167422e-05 -3.2064577904484067e-06 0.0000000000000000e+00  -4.9829916182801737e-05 -5.0595980710767760e-06 0.0000000000000000e+00  -7.0310076509911561e-05 -7.2411891790914737e-06 0.0000000000000000e+00  -9.4487669431308555e-05 -9.9145575146843448e-06 0.0000000000000000e+00  -1.2382880285184710e-04 -1.3301033987262574e-05 0.0000000000000000e+00  -1.6026550414242270e-04 -1.7712143711454354e-05 0.0000000000000000e+00  -2.0641192301957368e-04 -2.3599831577621849e-05 0.0000000000000000e+00  -2.6587085623117979e-04 -3.1637483220890726e-05 0.0000000000000000e+00  -3.4365185144017498e-04 -4.2854969715931130e-05 0.0000000000000000e+00  -4.4668077112672430e-04 -5.8870346929834833e-05 0.0000000000000000e+00  -5.8422371947816393e-04 -8.2289190143334520e-05 0.0000000000000000e+00  -7.6755608588428750e-04 -1.1732851796372803e-04 0.0000000000000000e+00  -1.0067534067756388e-03 -1.7023662507232378e-04 0.0000000000000000e+00  -1.2986552948386668e-03 -2.4489341190829538e-04 0.0000000000000000e+00  -1.6353033034048584e-03 -2.9950057071649047e-04 0.0000000000000000e+00  0.0000000000000000e+00 0.0000000000000000e+00 0.0000000000000000e+00  -1.2406056219275205e-05 -1.2642703300252275e-06 0.0000000000000000e+00  -2.5457983890450392e-05 -2.6124302367123722e-06 0.0000000000000000e+00  -3.9842403751747126e-05 -4.1366819946592392e-06 0.0000000000000000e+00  -5.6360900786929689e-05 -5.9499972009798585e-06 0.0000000000000000e+00  -7.6008268341207024e-05 -8.2010907584511152e-06 0.0000000000000000e+00  -1.0008262074723696e-04 -1.1096362361065629e-05 0.0000000000000000e+00  -1.3034899336194407e-04 -1.4933836237558082e-05 0.0000000000000000e+00  -1.6929130543530920e-04 -2.0157818008967034e-05 0.0000000000000000e+00  -2.2050894973840742e-04 -2.7450439732758351e-05 0.0000000000000000e+00  -2.8934474678227618e-04 -3.7892797379043980e-05 0.0000000000000000e+00  -3.8385928144911300e-04 -5.3269378196347714e-05 0.0000000000000000e+00  -5.1623012946370181e-04 -7.6700785239003439e-05 0.0000000000000000e+00  -7.0430845447555252e-04 -1.1410095092678527e-04 0.0000000000000000e+00  -9.7150199512992849e-04 -1.7776406763145053e-04 0.0000000000000000e+00  -1.3355048353471458e-03 -2.9493397796153699e-04 0.0000000000000000e+00  -1.6852370603297460e-03 -5.2375064492297203e-04 0.0000000000000000e+00  0.0000000000000000e+00 0.0000000000000000e+00 0.0000000000000000e+00  -8.6359248581053539e-06 -8.9261370457957053e-07 0.0000000000000000e+00  -1.7735082894954659e-05 -1.8472267578029288e-06 0.0000000000000000e+00  -2.7791477416511230e-05 -2.9322827794444202e-06 0.0000000000000000e+00  -3.9387837987031343e-05 -4.2325535949241713e-06 0.0000000000000000e+00  -5.3257986634083917e-05 -5.8610594954994714e-06 0.0000000000000000e+00  -7.0377824408975189e-05 -7.9766810545791820e-06 0.0000000000000000e+00  -9.2106801499987516e-05 -1.0811422482748903e-05 0.0000000000000000e+00  -1.2041885160964177e-04 -1.4713738102942538e-05 0.0000000000000000e+00  -1.5829486061910602e-04 -2.0218413184660550e-05 0.0000000000000000e+00  -2.1041254832415127e-04 -2.8160587864108268e-05 0.0000000000000000e+00  -2.8438862392071783e-04 -3.9867308976678921e-05 0.0000000000000000e+00  -3.9302592115074821e-04 -5.7516168127493857e-05 0.0000000000000000e+00  -5.5824536947981964e-04 -8.5021447859715566e-05 0.0000000000000000e+00  -8.1731585840132234e-04 -1.3112554794708837e-04 0.0000000000000000e+00  -1.2313165796359177e-03 -2.2169823954395156e-04 0.0000000000000000e+00  -1.8977196780107558e-03 -4.3821802203309430e-04 0.0000000000000000e+00  0.0000000000000000e+00 0.0000000000000000e+00 0.0000000000000000e+00  -4.4284484149908950e-06 -4.6166753681326962e-07 0.0000000000000000e+00  -9.0984225489271462e-06 -9.5621985176588418e-07 0.0000000000000000e+00  -1.4267935893200348e-05 -1.5200350765182286e-06 0.0000000000000000e+00  -2.0243181879491193e-05 -2.1984114430321590e-06 0.0000000000000000e+00  -2.7413059898281430e-05 -3.0520914727776245e-06 0.0000000000000000e+00  -3.6300652383046952e-05 -4.1668677825403182e-06 0.0000000000000000e+00  -4.7645528083378284e-05 -5.6682131929077777e-06 0.0000000000000000e+00  -6.2543061518004884e-05 -7.7434878325404548e-06 0.0000000000000000e+00  -8.2692893994470656e-05 -1.0673615963769386e-05 0.0000000000000000e+00  -1.1086471487559907e-04 -1.4868480189621468e-05 0.0000000000000000e+00  -1.5181060604298234e-04 -2.0862166095062764e-05 0.0000000000000000e+00  -2.1409054702446539e-04 -2.9063475396826996e-05 0.0000000000000000e+00  -3.1352345216438510e-04 -3.8443771268646427e-05 0.0000000000000000e+00  -4.7751003010480049e-04 -4.1470114349037130e-05 0.0000000000000000e+00  -7.3618047070133188e-04 -1.1402650738104175e-05 0.0000000000000000e+00  -1.0516638841664818e-03 9.1624085641732261e-05 0.0000000000000000e+00  0.0000000000000000e+00 0.0000000000000000e+00 0.0000000000000000e+00  0.0000000000000000e+00 0.0000000000000000e+00 0.0000000000000000e+00  0.0000000000000000e+00 0.0000000000000000e+00 0.0000000000000000e+00  0.0000000000000000e+00 0.0000000000000000e+00 0.0000000000000000e+00  0.0000000000000000e+00 0.0000000000000000e+00 0.0000000000000000e+00  0.0000000000000000e+00 0.0000000000000000e+0