<?xml version="1.0"?>
<VTKFile type="UnstructuredGrid"  version="0.1"  >
<UnstructuredGrid>
<Piece  NumberOfPoints="289" NumberOfCells="512">
<Points>
<DataArray  type="Float64"  NumberOfComponents="3"  format="ascii">0 0 0  0.0625 0 0  0.125 0 0  0.1875 0 0  0.25 0 0  0.3125 0 0  0.375 0 0  0.4375 0 0  0.5 0 0  0.5625 0 0  0.625 0 0  0.6875 0 0  0.75 0 0  0.8125 0 0  0.875 0 0  0.9375 0 0  1 0 0  0 0.0625 0  0.06256731612750037 0.06249876815945218 0  0.1251366491532586 0.06249749876764295 0  0.1877100232013539 0.06249615435326377 0  0.25028946725958 0.06249469793413359 0  0.312877002497168 0.06249309390053249 0  0.3754746124301094 0.06249130975823013 0  0.438084194177745 0.06248931914553741 0  0.5007074981618189 0.06248710657294965 0  0.5633460873510787 0.06248467416062937 0  0.6260014087288875 0.06248204971138213 0  0.6886752358518482 0.06247929171750131 0  0.7513712224448266 0.06247647221567261 0  0.8140998208827321 0.06247355802091543 0  0.8768940032938287 0.06246984946557786 0  0.9398624859570578 0.06246145074158001 0  1.003385830725746 0.06242955450528396 0  0 0.125 0  0.06263268411208711 0.1249975722237381 0  0.1252694053090417 0.1249950690030577 0  0.1879142218674028 0.1249924147967639 0  0.2505712153778573 0.1249895344883885 0  0.3132444710014602 0.1249863548042431 0  0.3759380199928834 0.1249828073898741 0  0.4386557349988723 0.1249788344275345 0  0.5014011781007779 0.1249743979214322 0  0.5641774260960181 0.1249694940013352 0  0.6269869543134172 0.1249641737938338 0  0.6898317823927957 0.1249585732496759 0  0.7527143241226084 0.12495296065691 0  0.8156397401737919 0.1249478499502436 0  0.8786204859289921 0.1249444452165886 0  0.9416788386396043 0.1249468230703143 0  1.004807930064777 0.1249731573844769 0  0 0.1875 0  0.06269408258260774 0.187496450112884 0  0.1253942135695577 0.1874927866768189 0  0.188106489533337 0.1874888954031086 0  0.2508370757255459 0.1874846613398367 0  0.3135921923052545 0.1874799701371964 0  0.3763780391499471 0.187474711573224 0  0.4392006351822987 0.1874687866695536 0  0.5020655492635255 0.1874621202483236 0  0.5649775073436113 0.1874546814263385 0  0.6279398782961246 0.1874465152430557 0  0.6909540638862169 0.1874377892141376 0  0.7540188009040738 0.1874288583583419 0  0.817129131297459 0.1874203452957482 0  0.8802736674996233 0.1874131733555065 0  0.9434251556489963 0.1874080740551536 0  1.006511796733403 0.1874014017347446 0  0 0.25 0  0.06274949978603085 0.2499954399367311 0  0.1255070249933758 0.2499907286122962 0  0.1882806953815972 0.2499857127764604 0  0.251078785552987 0.2499802360716055 0  0.313909740277854 0.2499741391725432 0  0.3767821061935066 0.2499672624187746 0  0.439704338048273 0.2499594525851106 0  0.502684426368168 0.2499505762689259 0  0.565729279818376 0.249940543529315 0  0.628843777324808 0.2499293468093966 0  0.6920293709919556 0.2499171212791606 0  0.7552820348787617 0.2499042316586538 0  0.818589128984391 0.2498913816246968 0  0.8819242469429629 0.249879711886397 0  0.9452384410874747 0.2498708016914668 0  1.008447164465394 0.249866722758433 0  0 0.3125 0  0.06279695928026692 0.3124945793850905 0  0.1256038416282997 0.3124889714104098 0  0.1884307347463904 0.3124829848440985 0  0.2512880200250984 0.3124764214487727 0  0.3141864508715532 0.3124690738666432 0  0.3771371339021149 0.3124607256814375 0  0.4401513554392502 0.31245115534429 0  0.5032401715142695 0.3124401467661095 0  0.5664136461769484 0.3124275111594373 0  0.6296795784871245 0.3124131273793381 0  0.6930415014588371 0.3123970115935959 0  0.7564956686540347 0.3123794309749884 0  0.8200266908738546 0.3123610784447 0  0.8836015663823663 0.3123433252608546 0  0.9471624927841715 0.3123285805831103 0  1.010621203375601 0.31232089340147 0  0 0.375 0  0.06283456521714395 0.3749939045035308 0  0.125680802019914 0.3749875890317532 0  0.1885506429956709 0.3749808273421447 0  0.2514565118666484 0.3749733810613993 0  0.3144115069684639 0.3749649942471618 0  0.3774294907024233 0.3749553891369008 0  0.440525018935049 0.3749442643618647 0  0.5037130083247479 0.3749312980970378 0  0.567007987494369 0.3749161608234882 0  0.6304227078678667 0.3748985463411992 0  0.6939658066068933 0.3748782364718163 0  0.7576381418260787 0.3748552257213258 0  0.8214274318819882 0.3748299471927396 0  0.8853011010459689 0.3748036555800621 0  0.9491981066074132 0.3747790147570115 0  1.013022456079683 0.3747608156352467 0  0 0.4375 0  0.06286057221314366 0.4374934478262008 0  0.1257343189513992 0.4374866489422687 0  0.1886347952639889 0.437479347747376 0  0.2515762989998263 0.4374712707556776 0  0.3145742037329627 0.4374621171229953 0  0.3776452243476555 0.4374515487174372 0  0.4408075532612222 0.4374391800267082 0  0.5040807606957581 0.4374245690144454 0  0.5674852831639036 0.4374072119299822 0  0.6310412231127248 0.4373865492798802 0  0.694766048168352 0.4373619991065941 0  0.75867063017258 0.4373330516521671 0  0.8227529722567966 0.4372994925587222 0  0.8869891011216107 0.4372618748303859 0  0.9513212353221856 0.437222423772552 0  1.015644770294539 0.4371865813686814 0  0 0.5 0  0.06287348174655871 0.4999932359862047 0  0.1257612751873002 0.4999862070498711 0  0.1886782059670829 0.4999786369435894 0  0.25164013013586 0.4999702260778195 0  0.3146644535457785 0.4999606379774576 0  0.3777706383150149 0.4999494832553697 0  0.4409806558645568 0.4999362999011566 0  0.504319300124376 0.4999205285147996 0  0.5678141952585493 0.4999014814220235 0  0.6314952011503655 0.4998783065903869 0  0.6953927149778907 0.4998499540481047 0  0.7595340738472495 0.4998151715104061 0  0.8239369041270588 0.4997726029120839 0  0.8885979590792835 0.4997211670271742 0  0.9534760445763525 0.4996610909967576 0  1.018468576057188 0.4995962778990816 0  0 0.5625 0  0.06287216208547139 0.5624932870862158 0  0.1257592727206056 0.56248630202532 0  0.1886769256611371 0.5624787595705176 0  0.2516420348362916 0.5624703470551778 0  0.3146735580519916 0.5624607076437054 0  0.3777932887042409 0.5624494192380743 0  0.4410267174583229 0.562435966226085 0  0.5044039318040762 0.5624196996384198 0  0.5679604511653259 0.5623997787114773 0  0.6317377572248202 0.5623750833060733 0  0.6957830205842979 0.5623440834893698 0  0.7601470674351185 0.5623046562425194 0  0.8248788842289967 0.5622538707903312 0  0.8900139013934053 0.5621878806670696 0  0.9555521917449004 0.5621023879743893 0  1.02142251600357 0.5619948659238014 0  0 0.625 0  0.06285598234774958 0.6249936082464865 0  0.1257269172145456 0.6249869499230889 0  0.1886285096016505 0.6249797446413999 0  0.2515780291117116 0.6249716828403101 0  0.3145952241364735 0.6249624075656931 0  0.3777034022296246 0.624951490902687 0  0.4409307406231439 0.6249384012173473 0  0.5043118871074495 0.6249224544880099 0  0.5678898832786688 0.6249027374011206 0  0.6317183528752284 0.6248779790346386 0  0.6958636702978435 0.6248463276017562 0  0.7604063048555132 0.6248049538104117 0  0.8254394494628149 0.6247493558630214 0  0.8910609943722076 0.6246722328044714 0  0.9573516738603098 0.6245620500871255 0  1.024328948378267 0.6244027105670195 0  0 0.6875 0  0.06282494441709699 0.6874941938017728 0  0.1256641039699181 0.6874881401713491 0  0.1885325051339441 0.6874815783877336 0  0.2514468831994198 0.6874742196098254 0  0.3144267319549821 0.687465729404096 0  0.3774956160134407 0.6874557052803912 0  0.4406828815740546 0.68744364564365 0  0.5040259459399875 0.6874289036198665 0  0.5675733993170449 0.6874106127704254 0  0.6313891950236492 0.6873875570762562 0  0.6955581740622436 0.6873579233824911 0  0.7601928940224075 0.6873187937840084 0  0.8254407711650963 0.6872650485930634 0  0.8914878914013479 0.6871869476636429 0  0.9585496093828733 0.6870649267385537 0  1.026826405871561 0.6868592882353585 0  0 0.75 0  0.06277979068092523 0.749995024548833 0  0.1255722581928089 0.7499898338656675 0  0.1883908791280549 0.7499842011241841 0  0.2512508318079313 0.7499778750485266 0  0.3141700834948458 0.7499705652226882 0  0.3771708084025114 0.7499619240358611 0  0.4402813344793165 0.7499515233263161 0  0.5035389162693877 0.7499388225133586 0  0.5669937903344635 0.7499231219288597 0  0.6307152174833539 0.7499034867695799 0  0.6948005809298138 0.7498786028432133 0  0.7593890751463153 0.7498464503095583 0  0.824681848113187 0.74980344283594 0  0.8909695600219295 0.7497419225956191 0  0.9586623105931683 0.7496426600414103 0  1.028295629331533 0.7494536201578699 0  0 0.8125 0  0.06272206293884759 0.8124960682463398 0  0.1254544751285559 0.8124919648439615 0  0.188208290100427 0.8124875090874289 0  0.2509960716944191 0.812482501329868 0  0.3138328881261429 0.8124767122727183 0  0.3767376497016184 0.8124698709953508 0  0.4397350155252054 0.8124616519970843 0  0.5028582323487756 0.8124516628599171 0  0.5661535144670563 0.8124394373043952 0  0.6296870189838372 0.8124244456186812 0  0.6935562962260898 0.8124061499669337 0  0.757909660435263 0.8123841606819224 0  0.8229799389435525 0.8123585698750331 0  0.8891446992630673 0.8123302952961178 0  0.9570329832895158 0.8122988920031589 0  1.027681278611553 0.812239519741241 0  0 0.875 0  0.06265409031395897 0.874997281294937 0  0.1253155095150353 0.8749944433617522 0  0.1879921119018954 0.8749913608833139 0  0.2506928846448436 0.874987895942091 0  0.3134287089276893 0.8749838914285728 0  0.376213406260674 0.8749791646898206 0  0.4390652680187499 0.874973503048789 0  0.50200940139883 0.8749666656899479 0  0.5650814802387979 0.8749584034453068 0  0.6283339877915747 0.8749485258611756 0  0.6918470595159889 0.8749370927863146 0  0.7557482600457812 0.874924947432811 0  0.8202509435184933 0.8749152649637586 0  0.8857355167808526 0.8749185057067684 0  0.952949512546148 0.8749706526573053 0  1.023668694374465 0.8752137093656642 0  0 0.9375 0  0.06257889265216385 0.9374986112849412 0  0.1251615818329857 0.9374971615988416 0  0.1877521442397617 0.9374955869505558 0  0.2503552624872906 0.9374938171559174 0  0.3129766368475054 0.9374917728159341 0  0.3756235578463678 0.9374893628457988 0  0.4383057547803335 0.9374864839096655 0  0.50
[...]
<PointData  Vectors="f_54"> 
<DataArray  type="Float64"  Name="f_54"  NumberOfComponents="3" format="ascii">0.0000000000000000e+00 0.0000000000000000e+00 0.0000000000000000e+00  0.0000000000000000e+00 0.0000000000000000e+00 0.0000000000000000e+00  0.0000000000000000e+00 0.0000000000000000e+00 0.0000000000000000e+00  0.0000000000000000e+00 0.0000000000000000e+00 0.0000000000000000e+00  0.0000000000000000e+00 0.0000000000000000e+00 0.0000000000000000e+00  0.0000000000000000e+00 0.0000000000000000e+00 0.0000000000000000e+00  0.0000000000000000e+00 0.0000000000000000e+00 0.0000000000000000e+00  0.0000000000000000e+00 0.0000000000000000e+00 0.0000000000000000e+00  0.0000000000000000e+00 0.0000000000000000e+00 0.0000000000000000e+00  0.0000000000000000e+00 0.0000000000000000e+00 0.0000000000000000e+00  0.0000000000000000e+00 0.0000000000000000e+00 0.0000000000000000e+00  0.0000000000000000e+00 0.0000000000000000e+00 0.0000000000000000e+00  0.0000000000000000e+00 0.0000000000000000e+00 0.0000000000000000e+00  0.0000000000000000e+00 0.0000000000000000e+00 0.0000000000000000e+00  0.0000000000000000e+00 0.0000000000000000e+00 0.0000000000000000e+00  0.0000000000000000e+00 0.0000000000000000e+00 0.0000000000000000e+00  0.0000000000000000e+00 0.0000000000000000e+00 0.0000000000000000e+00  0.0000000000000000e+00 0.0000000000000000e+00 0.0000000000000000e+00  2.1517493023595731e-06 -7.9095448488529791e-08 0.0000000000000000e+00  4.3832820389015076e-06 -1.6115864366514813e-07 0.0000000000000000e+00  6.7771267132200343e-06 -2.4924284702228626e-07 0.0000000000000000e+00  9.4210754319328372e-06 -3.4655409276937687e-07 0.0000000000000000e+00  1.2411005298865014e-05 -4.5650610920540265e-07 0.0000000000000000e+00  1.5854035260354211e-05 -5.8274192595750943e-07 0.0000000000000000e+00  1.9872472765242694e-05 -7.2910073717764553e-07 0.0000000000000000e+00  2.4609710962453417e-05 -8.9950652770780221e-07 0.0000000000000000e+00  3.0241099948599717e-05 -1.0977761758987371e-06 0.0000000000000000e+00  3.6997817211015470e-05 -1.3274551700345522e-06 0.0000000000000000e+00  4.5225708007262858e-05 -1.5922203983057248e-06 0.0000000000000000e+00  5.5542121339683240e-05 -1.8989988706236798e-06 0.0000000000000000e+00  6.9282908776184261e-05 -2.2721050723296546e-06 0.0000000000000000e+00  8.9869023421898037e-05 -2.8114116535429626e-06 0.0000000000000000e+00  1.2733238315462171e-04 -3.9332167827441066e-06 0.0000000000000000e+00  2.1497266997392799e-04 -7.4350807204863762e-06 0.0000000000000000e+00  0.0000000000000000e+00 0.0000000000000000e+00 0.0000000000000000e+00  4.2283723455032392e-06 -1.5539444405746564e-07 0.0000000000000000e+00  8.6143967543489258e-06 -3.1666966345411049e-07 0.0000000000000000e+00  1.3321223373123937e-05 -4.8988750408058359e-07 0.0000000000000000e+00  1.8522554265000202e-05 -6.8143929890091164e-07 0.0000000000000000e+00  2.4408201528713321e-05 -8.9817392158418802e-07 0.0000000000000000e+00  3.1190069192360559e-05 -1.1474649411461632e-06 0.0000000000000000e+00  3.9109038121553333e-05 -1.4371689263836643e-06 0.0000000000000000e+00  4.8443940005128712e-05 -1.7754026087345361e-06 0.0000000000000000e+00  5.9525580829696673e-05 -2.1700410736362227e-06 0.0000000000000000e+00  7.2763036713965955e-05 -2.6278225998708481e-06 0.0000000000000000e+00  8.8699211313146030e-05 -3.1529256652512090e-06 0.0000000000000000e+00  1.0813327675075025e-04 -3.7446033952903199e-06 0.0000000000000000e+00  1.3238282631270739e-04 -4.3911234183089335e-06 0.0000000000000000e+00  1.6377178772611657e-04 -5.0425948553103523e-06 0.0000000000000000e+00  2.0610431934612773e-04 -5.4634087851499063e-06 0.0000000000000000e+00  2.6225962921039097e-04 -4.4283814287406395e-06 0.0000000000000000e+00  0.0000000000000000e+00 0.0000000000000000e+00 0.0000000000000000e+00  6.1519146116112318e-06 -2.2598098343852329e-07 0.0000000000000000e+00  1.2534823167849750e-05 -4.6061080987463242e-07 0.0000000000000000e+00  1.9387928609001582e-05 -7.1282963258926579e-07 0.0000000000000000e+00  2.6966240742309018e-05 -9.9212138271028038e-07 0.0000000000000000e+00  3.5548761481134712e-05 -1.3087480326639055e-06 0.0000000000000000e+00  4.5446929740077310e-05 -1.6739133945091022e-06 0.0000000000000000e+00  5.7013383011287634e-05 -2.0997869622171743e-06 0.0000000000000000e+00  7.0651152711698726e-05 -2.5992651869536333e-06 0.0000000000000000e+00  8.6823617713902658e-05 -3.1852615707974506e-06 0.0000000000000000e+00  1.0606587093805206e-04 -3.8691779115140899e-06 0.0000000000000000e+00  1.2899781823575449e-04 -4.6579758062549093e-06 0.0000000000000000e+00  1.5633412173348497e-04 -5.5488624821865222e-06 0.0000000000000000e+00  1.8885931763078088e-04 -6.5200655672911580e-06 0.0000000000000000e+00  2.2723246314871299e-04 -7.5174688180883165e-06 0.0000000000000000e+00  2.7115598105520547e-04 -8.4577028271539640e-06 0.0000000000000000e+00  3.1669075541769086e-04 -9.4313097456962127e-06 0.0000000000000000e+00  0.0000000000000000e+00 0.0000000000000000e+00 0.0000000000000000e+00  7.8490122349595145e-06 -2.8808660109310299e-07 0.0000000000000000e+00  1.5995231175840954e-05 -5.8733905918021737e-07 0.0000000000000000e+00  2.4746717565098472e-05 -9.0933881341302205e-07 0.0000000000000000e+00  3.4432585619125016e-05 -1.2664652001779716e-06 0.0000000000000000e+00  4.5413856677667695e-05 -1.6722777366032151e-06 0.0000000000000000e+00  5.8094428237949363e-05 -2.1418503937678584e-06 0.0000000000000000e+00  7.2931706456594718e-05 -2.6919873225200992e-06 0.0000000000000000e+00  9.0445745752021855e-05 -3.3411774498140848e-06 0.0000000000000000e+00  1.1122430141132425e-04 -4.1090152747604773e-06 0.0000000000000000e+00  1.3591813365404978e-04 -5.0145867959822286e-06 0.0000000000000000e+00  1.6521406119925056e-04 -6.0729367184100380e-06 0.0000000000000000e+00  1.9975764222033849e-04 -7.2881536876999255e-06 0.0000000000000000e+00  2.3996238038737240e-04 -8.6409484665728865e-06 0.0000000000000000e+00  2.8557137660103089e-04 -1.0068494561418339e-05 0.0000000000000000e+00  3.3473079405774744e-04 -1.1435343861700031e-05 0.0000000000000000e+00  3.8233852056834469e-04 -1.2480475688371059e-05 0.0000000000000000e+00  0.0000000000000000e+00 0.0000000000000000e+00 0.0000000000000000e+00  9.2534991545588144e-06 -3.3919666984266713e-07 0.0000000000000000e+00  1.8860705347892306e-05 -6.9170332922742833e-07 0.0000000000000000e+00  2.9188718619504651e-05 -1.0713754623008351e-06 0.0000000000000000e+00  4.0630922485839570e-05 -1.4931448428751487e-06 0.0000000000000000e+00  5.3620720845118430e-05 -1.9735866522916528e-06 0.0000000000000000e+00  6.8645613306156014e-05 -2.5315008951089761e-06 0.0000000000000000e+00  8.6260979968991647e-05 -3.1884696186914387e-06 0.0000000000000000e+00  1.0710181709581513e-04 -3.9692840806454917e-06 0.0000000000000000e+00  1.3188837610582897e-04 -4.9019991371795917e-06 0.0000000000000000e+00  1.6141711448899575e-04 -6.0171038078991216e-06 0.0000000000000000e+00  1.9651961979214434e-04 -7.3447940242734289e-06 0.0000000000000000e+00  2.3795623524723112e-04 -8.9084466144414118e-06 0.0000000000000000e+00  2.8618518959998984e-04 -1.0710952973129690e-05 0.0000000000000000e+00  3.4091619928166650e-04 -1.2708431666284793e-05 0.0000000000000000e+00  4.0035287580747806e-04 -1.4762685307517440e-05 0.0000000000000000e+00  4.6015987299512267e-04 -1.6558490028769142e-05 0.0000000000000000e+00  0.0000000000000000e+00 0.0000000000000000e+00 0.0000000000000000e+00  1.0308988151201423e-05 -3.7717199901623829e-07 0.0000000000000000e+00  2.1015938864552730e-05 -7.6929573287306064e-07 0.0000000000000000e+00  3.2534529825632610e-05 -1.1919872913280050e-06 0.0000000000000000e+00  4.5309743880413339e-05 -1.6622058022184498e-06 0.0000000000000000e+00  5.9834704785128950e-05 -2.1990181427004242e-06 0.0000000000000000e+00  7.6668643391066137e-05 -2.8244744538660113e-06 0.0000000000000000e+00  9.6455762795577486e-05 -3.5646243236317243e-06 0.0000000000000000e+00  1.1994375883606910e-04 -4.4506749136339131e-06 0.0000000000000000e+00  1.4799863498015826e-04 -5.5202097546210697e-06 0.0000000000000000e+00  1.8160824518761084e-04 -6.8181789609713275e-06 0.0000000000000000e+00  2.2185915588099372e-04 -8.3968900799237760e-06 0.0000000000000000e+00  2.6985805270695679e-04 -1.0313186219254759e-05 0.0000000000000000e+00  3.2654934045040591e-04 -1.2618889476051880e-05 0.0000000000000000e+00  3.9235998985716439e-04 -1.5336688680683515e-05 0.0000000000000000e+00  4.6660124601149018e-04 -1.8407539117911838e-05 0.0000000000000000e+00  5.4661469479921367e-04 -2.1590122250688134e-05 0.0000000000000000e+00  0.0000000000000000e+00 0.0000000000000000e+00 0.0000000000000000e+00  1.0971394352640721e-05 -4.0037765272926048e-07 0.0000000000000000e+00  2.2370390360922519e-05 -8.1672582296566830e-07 0.0000000000000000e+00  3.4642201452067868e-05 -1.2657647839200919e-06 0.0000000000000000e+00  4.8267701716011731e-05 -1.7657614099637581e-06 0.0000000000000000e+00  6.3783286046635823e-05 -2.3374619549822896e-06 0.0000000000000000e+00  8.1803153151237558e-05 -3.0052430171225649e-06 0.0000000000000000e+00  1.0304473859765120e-04 -3.7986026420513708e-06 0.0000000000000000e+00  1.2835767111002967e-04 -4.7541580205225193e-06 0.0000000000000000e+00  1.5875563866789934e-04 -5.9183622183144524e-06 0.0000000000000000e+00  1.9544820737179335e-04 -7.3511574013496636e-06 0.0000000000000000e+00  2.3986463318262345e-04 -9.1306159377791983e-06 0.0000000000000000e+00  2.9365198551820819e-04 -1.1357933607127889e-05 0.0000000000000000e+00  3.5861282929496746e-04 -1.4160076816349353e-05 0.0000000000000000e+00  4.3652107317284256e-04 -1.7682057567234489e-05 0.0000000000000000e+00  5.2871770153998143e-04 -2.2048489946186523e-05 0.0000000000000000e+00  6.3533692440281289e-04 -2.7248331644739426e-05 0.0000000000000000e+00  0.0000000000000000e+00 0.0000000000000000e+00 0.0000000000000000e+00  1.1211292061653494e-05 -4.0780250583942619e-07 0.0000000000000000e+00  2.2863213411232633e-05 -8.3188230912357493e-07 0.0000000000000000e+00  3.5415194673838829e-05 -1.2892963279321646e-06 0.0000000000000000e+00  4.9365340983214408e-05 -1.7987346848569984e-06 0.0000000000000000e+00  6.5272681196980640e-05 -2.3815412773059941e-06 0.0000000000000000e+00  8.3783286694590533e-05 -3.0630324525930054e-06 0.0000000000000000e+00  1.0566224384326653e-04 -3.8743200730494411e-06 0.0000000000000000e+00  1.3183415232924560e-04 -4.8549770842693459e-06 0.0000000000000000e+00  1.6343572453182733e-04 -6.0571082362900332e-06 0.0000000000000000e+00  2.0188497703511085e-04 -7.5517525339449744e-06 0.0000000000000000e+00  2.4897167460049359e-04 -9.4390764128692561e-06 0.0000000000000000e+00  3.0697096781225503e-04 -1.1864407433640700e-05 0.0000000000000000e+00  3.7877140536859733e-04 -1.5042162404310597e-05 0.0000000000000000e+00  4.6797883274226823e-04 -1.9286866714626946e-05 0.0000000000000000e+00  5.7888901461158784e-04 -2.5038247244639824e-05 0.0000000000000000e+00  7.1608148312097566e-04 -3.2830015284674204e-05 0.0000000000000000e+00  0.0000000000000000e+00 0.0000000000000000e+00 0.0000000000000000e+00  1.1015890424242113e-05 -3.9914720048124154e-07 0.0000000000000000e+00  2.2467504583111534e-05 -8.1413153622106587e-07 0.0000000000000000e+00  3.4809573124192864e-05 -1.2615305305252228e-06 0.0000000000000000e+00  4.8536463617416285e-05 -1.7594881458183684e-06 0.0000000000000000e+00  6.4205512799470434e-05 -2.3287020840204700e-06 0.0000000000000000e+00  8.2465305790256375e-05 -2.9937210310469294e-06 0.0000000000000000e+00  1.0409198405834255e-04 -3.7847913749888483e-06 0.0000000000000000e+00  1.3003845165258468e-04 -4.7406826400132797e-06 0.0000000000000000e+00  1.6150444498110858e-04 -5.9132904776999235e-06 0.0000000000000000e+00  2.0004059509946874e-04 -7.3755392321663691e-06 0.0000000000000000e+00  2.4770763225527933e-04 -9.2355156475429333e-06 0.0000000000000000e+00  3.0732257284690967e-04 -1.1662446844474443e-05 0.0000000000000000e+00  3.8283285736768108e-04 -1.4934910668483461e-05 0.0000000000000000e+00  4.7985167769041263e-04 -1.9528881557369018e-05 0.0000000000000000e+00  6.0632583774390561e-04 -2.6269518172368744e-05 0.0000000000000000e+00  7.7312780087660416e-04 -3.6559239152663432e-05 0.0000000000000000e+00  0.0000000000000000e+00 0.0000000000000000e+00 0.0000000000000000e+00  1.0390333339670872e-05 -3.7485825240584649e-07 0.0000000000000000e+00  2.1193201849474562e-05 -7.6440001730992205e-07 0.0000000000000000e+00  3.2839201982599132e-05 -1.1839430505335044e-06 0.0000000000000000e+00  4.5796994964954529e-05 -1.6501510744670081e-06 0.0000000000000000e+00  6.0595893026502015e-05 -2.1818572797474786e-06 0.0000000000000000e+00  7.7853595395671312e-05 -2.8011200165972259e-06 0.0000000000000000e+00  9.8312570484320255e-05 -3.5346988350917844e-06 0.0000000000000000e+00  1.2289103223052397e-04 -4.4163075184417335e-06 0.0000000000000000e+00  1.5275916855614390e-04 -5.4903608129746119e-06 0.0000000000000000e+00  1.8946029004523695e-04 -6.8187254595542397e-06 0.0000000000000000e+00  2.3511348353481032e-04 -8.4937936267244625e-06 0.0000000000000000e+00  2.9276465061413927e-04 -1.0665419812393580e-05 0.0000000000000000e+00  3.6700177011040984e-04 -1.3599231653621824e-05 0.0000000000000000e+00  4.6501265697855110e-04 -1.7806918458723293e-05 0.0000000000000000e+00  5.9829580596463931e-04 -2.4338962926908904e-05 0.0000000000000000e+00  7.8511962235495005e-04 -3.5421692678973301e-05 0.0000000000000000e+00  0.0000000000000000e+00 0.0000000000000000e+00 0.0000000000000000e+00  9.3580273694046985e-06 -3.3609418852417103e-07 0.0000000000000000e+00  1.9087933241755506e-05 -6.8510548120620614e-07 0.0000000000000000e+00  2.9577590854883979e-05 -1.0604324745983042e-06 0.0000000000000000e+00  4.1248808491127869e-05 -1.4764891056185227e-06 0.0000000000000000e+00  5.4577227817630425e-05 -1.9492686586653119e-06 0.0000000000000000e+00  7.0116465257285895e-05 -2.4969897591478994e-06 0.0000000000000000e+00  8.8529367976689869e-05 -3.1408815278321428e-06 0.0000000000000000e+00  1.1063142839729301e-04 -3.9062183823189163e-06 0.0000000000000000e+00  1.3745597218188302e-04 -4.8238464055403850e-06 0.0000000000000000e+00  1.7036060474494335e-04 -5.9327851470140537e-06 0.0000000000000000e+00  2.1121607041798201e-04 -7.2854358516718380e-06 0.0000000000000000e+00  2.6276617740797438e-04 -8.9597269787645542e-06 0.0000000000000000e+00  3.2934814863745432e-04 -1.1091285857518149e-05 0.0000000000000000e+00  4.1835713004765825e-04 -1.3967057808822938e-05 0.0000000000000000e+00  5.4313598264629835e-04 -1.8312972617186758e-05 0.0000000000000000e+00  7.2818465335351928e-04 -2.6184360167184209e-05 0.0000000000000000e+00  0.0000000000000000e+00 0.0000000000000000e+00 0.0000000000000000e+00  7.9598064856976055e-06 -2.8462489561299503e-07 0.0000000000000000e+00  1.6235341685322752e-05 -5.7993628566494168e-07 0.0000000000000000e+00  2.5155392415666794e-05 -8.9693614123817101e-07 0.0000000000000000e+00  3.5076515299420146e-05 -1.2472777732383441e-06 0.0000000000000000e+00  4.6398740142559693e-05 -1.6435467868987004e-06 0.0000000000000000e+00  5.9583738489286055e-05 -2.0994582137655559e-06 0.0000000000000000e+00  7.5176759278641479e-05 -2.6298718395747885e-06 0.0000000000000000e+00  9.3834424217555381e-05 -3.2504259183892769e-06 0.0000000000000000e+00  1.1636242185070486e-04 -3.9763779643353885e-06 0.0000000000000000e+00  1.4377233693400320e-04 -4.8197845121771660e-06 0.0000000000000000e+00  1.7738147691647767e-04 -5.7831273434456837e-06 0.0000000000000000e+00  2.1902178930424771e-04 -6.8451687207565090e-06 0.0000000000000000e+00  2.7154587933492225e-04 -7.9298845612154906e-06 0.0000000000000000e+00  3.4015595389147462e-04 -8.8421321712485325e-06 0.0000000000000000e+00  4.3590074842475709e-04 -9.1668466552841571e-06 0.0000000000000000e+00  5.8400685017544456e-04 -8.3206414213435818e-06 0.0000000000000000e+00  0.0000000000000000e+00 0.0000000000000000e+00 0.0000000000000000e+00  6.2519389090529919e-06 -2.2268316678778546e-07 0.0000000000000000e+00  1.2750868625538523e-05 -4.5352205212320495e-07 0.0000000000000000e+00  1.9753434436155482e-05 -7.0084337903753473e-07 0.0000000000000000e+00  2.7536774813172340e-05 -9.7331004038181033e-07 0.0000000000000000e+00  3.6409399390309341e-05 -1.2799760309482457e-06 0.0000000000000000e+00  4.6722589022667607e-05 -1.6301461427466692e-06 0.0000000000000000e+00  5.8881785539087636e-05 -2.0328410874780670e-06 0.0000000000000000e+00  7.3356315909153526e-05 -2.4954693802836590e-06 0.0000000000000000e+00  9.0683486766530172e-05 -3.0208836088973001e-06 0.0000000000000000e+00  1.1145867456741145e-04 -3.6010431109485568e-06 0.0000000000000000e+00  1.3629591477326295e-04 -4.2031623358223954e-06 0.0000000000000000e+00  1.6573810568399657e-04 -4.7378530695613964e-06 0.0000000000000000e+00  2.0012704157448052e-04 -4.9793733950215886e-06 0.0000000000000000e+00  2.3969670058390202e-04 -4.3426651951974595e-06 0.0000000000000000e+00  2.8646918873178755e-04 -1.1877924890128739e-06 0.0000000000000000e+00  3.5431457290446806e-04 9.4339838392237608e-06 0.0000000000000000e+00  0.0000000000000000e+00 0.0000000000000000e+00 0.0000000000000000e+00  4.3032063716534894e-06 -1.5280053937133375e-07 0.0000000000000000e+00  8.7755205061209365e-06 -3.1107104742052817e-07 0.0000000000000000e+00  1.3592247371523589e-05 -4.8035276874363137e-07 0.0000000000000000e+00  1.8941780142645591e-05 -6.6631194469107036e-07 0.0000000000000000e+00  2.5031976839919759e-05 -8.7467829141535689e-07 0.0000000000000000e+00  3.2095803462669366e-05 -1.1109745387267015e-06 0.0000000000000000e+00  4.0394611198081682e-05 -1.3798357227080898e-06 0.0000000000000000e+00  5.0215072501711347e-05 -1.6835318759356340e-06 0.0000000000000000e+00  6.1850419455034182e-05 -2.0189437346309094e-06 0.0000000000000000e+00  7.5544003804487358e-05 -2.3715112688527067e-06 0.0000000000000000e+00  9.1342771470160318e-05 -2.7031473638898449e-06 0.0000000000000000e+00  1.0873292495189614e-04 -2.9275894130889725e-06 0.0000000000000000e+00  1.2574181664374150e-04 -2.8567491131579012e-06 0.0000000000000000e+00  1.3675151134382495e-04 -2.0628575774249716e-06 0.0000000000000000e+00  1.2773832789372052e-04 6.2047432442924216e-07 0.0000000000000000e+00  7.4612955934183546e-05 1.0101675563093487e-05 0.0000000000000000e+00  0.0000000000000000e+00 0.0000000000000000e+00 0.0000000000000000e+00  2.1914495920880027e-06 -7.7661567356610269e-08 0.0000000000000000e+00  4.4685440781863240e-06 -1.5805550141409197e-07 0.0000000000000000e+00  6.9198880672923801e-06 -2.4393382998052778e-07 0.0000000000000000e+00  9.6402993515735240e-06 -3.3807424109523444e-07 0.0000000000000000e+00  1.2733582039627197e-05 -4.4321443932237425e-07 0.0000000000000000e+00  1.6314475549655071e-05 -5.6185655713119305e-07 0.0000000000000000e+00  2.0508424377992282e-05 -6.9582271573191926e-07 0.0000000000000000e+00  2.5445948080002822e-05 -8.4534577925077715e-07 0.0000000000000000e+00  3.1243948608005249e-05 -1.0073166603264509e-06 0.0000000000000000e+00  3.7955228462227704e-05 -1.1720867149641309e-06 0.0000000000000000e+00  4.5438162455528204e-05 -1.3181473947139669e-06 0.0000000000000000e+00  5.3013965815920243e-05 -1.4053210641623212e-06 0.0000000000000000e+00  5.8507797179220057e-05 -1.3761131430423539e-06 0.0000000000000000e+00  5.5271142190504027e-05 -1.2241029710009270e-06 0.0000000000000000e+00  2.1413258915717479e-05 -1.4625916130760747e-06 0.0000000000000000e+00  -1.2802939538585333e-04 -6.0710183871371125e-06 0.0000000000000000e+00  0.0000000000000000e+00 0.0000000000000000e+00 0.0000000000000000e+00  0.0000000000000000e+00 0.0000000000000000e+00 0.0000000000000000e+00  0.0000000000000000e+00 0.0000000000000000e+00 0.0000000000000000e+00  0.0000000000000000e+00 0.0000000000000000e+00 0.0000000000000000e+00  0.0000000000000000e+00 0.0000000000000000e+00 0.0000000000000000e+00  0.0000000000000000e+00 0.0000000000000000e+00 0.0000000000000000e+00  0.0000000000000000e+00 0.0000000000000000e+00 0.0000000000000000e+00  0.0000000000000000e+00 0.0000000000000000e+00 0.0000000000000000e+00  0.0000000000000000e+00 0.0000000000000000e+00 0.000000