<?xml version="1.0"?>
<VTKFile type="UnstructuredGrid"  version="0.1"  >
<UnstructuredGrid>
<Piece  NumberOfPoints="289" NumberOfCells="512">
<Points>
<DataArray  type="Float64"  NumberOfComponents="3"  format="ascii">0 0 0  0.0625 0 0  0.125 0 0  0.1875 0 0  0.25 0 0  0.3125 0 0  0.375 0 0  0.4375 0 0  0.5 0 0  0.5625 0 0  0.625 0 0  0.6875 0 0  0.75 0 0  0.8125 0 0  0.875 0 0  0.9375 0 0  1 0 0  0 0.0625 0  0.0625932073745555 0.06247894106301782 0  0.1251893549326988 0.06245745437801082 0  0.1877914589385721 0.06243513470684 0  0.2504026040679767 0.06241164033740999 0  0.3130259684748193 0.0623867359277324 0  0.3756648384748561 0.06236034803190892 0  0.4383226183848541 0.06233263488578648 0  0.5010028589800132 0.06230406752741038 0  0.5637093732337324 0.06227551023903877 0  0.626446623491979 0.06224827105234673 0  0.6892208707633414 0.06222406111921979 0  0.752043432526994 0.06220474008404051 0  0.8149399061218188 0.06219158622637033 0  0.8779768666430553 0.06218343750436597 0  0.9413413145409335 0.0621717630152861 0  1.005580794645832 0.06212816135768939 0  0 0.125 0  0.06268352858076072 0.1249582941077631 0  0.1253729331059605 0.1249157004312217 0  0.1880742500194815 0.1248713720718245 0  0.2507936783357837 0.1248245799889514 0  0.3135376447314172 0.1247747952126896 0  0.3763128484010391 0.1247217987851664 0  0.4391262912127232 0.1246658252956636 0  0.501985322149387 0.1246077390790081 0  0.564897779577772 0.1245492276146859 0  0.6278724358361283 0.1244929689032992 0  0.6909202030401193 0.1244426824663563 0  0.7540570418622659 0.1244029091770809 0  0.8173101856676709 0.1243783373209303 0  0.8807289684083344 0.1243728013456089 0  0.9443933685285864 0.1243900661757917 0  1.008369421287139 0.1244469967429707 0  0 0.1875 0  0.06276801288438785 0.1874385263312105 0  0.125544785757608 0.1873756475466239 0  0.1883393315008692 0.1873100093496924 0  0.2511609524503541 0.1872404104181641 0  0.3140193625899123 0.1871659155728414 0  0.376924776989876 0.1870860148692962 0  0.4398879636663909 0.1870008431733086 0  0.5029202650765834 0.1869114695808384 0  0.5660336210960246 0.1868202518312926 0  0.6292406642051794 0.1867312189312846 0  0.6925549857895649 0.1866503800869531 0  0.7559915553328692 0.1865857292246268 0  0.819566518485242 0.1865464417771121 0  0.8832927882245925 0.1865400486090314 0  0.9471602279081307 0.1865639316109877 0  1.011077667557567 0.1865777320597659 0  0 0.25 0  0.06284377655129218 0.2499201610944626 0  0.1256990819802538 0.2498383272066806 0  0.1885777975955686 0.2497525510835253 0  0.2514922602606545 0.249661043265305 0  0.3144554642077043 0.2495623008179107 0  0.377481219287872 0.2494553018017635 0  0.4405842458935856 0.2493397933081724 0  0.5037801803987401 0.2492167025092061 0  0.5670854495594227 0.2490886953326992 0  0.630516926215521 0.2489608866670083 0  0.6940911386607838 0.2488416509065667 0  0.75782241165493 0.2487433565536318 0  0.821718331824147 0.248682587944671 0  0.8857689070315909 0.2486789271013249 0  0.9499231459305228 0.2487507285778821 0  1.014048478116602 0.2489073237960324 0  0 0.3125 0  0.06290806005093005 0.3124037922022538 0  0.1258302199954259 0.3123049268092772 0  0.1887810371233178 0.3122007735381617 0  0.2517757336823484 0.3120888234388808 0  0.3148305073891857 0.3119668091398332 0  0.3779627981380961 0.3118329078899412 0  0.4411914820222959 0.3116860709115606 0  0.5045369441239953 0.3115265360651243 0  0.568020941333384 0.3113565952010521 0  0.6316660792496954 0.3111816963200286 0  0.6954945374066305 0.3110119478288725 0  0.7595252885361208 0.3108640237335681 0  0.8237683746483335 0.310763283636081 0  0.8882139960811858 0.3107455462735231 0  0.9528145459622144 0.3108574129413225 0  1.017463315581522 0.311153669990023 0  0 0.375 0  0.06295830401380446 0.3748900831730839 0  0.1259329773277892 0.3747767931215356 0  0.1889409534058695 0.3746567432672138 0  0.2520000810623541 0.3745265823549626 0  0.3151295755997451 0.3743830735778867 0  0.3783504443294838 0.3742232640088374 0  0.4416858626643434 0.3740448012525594 0  0.5051614567378484 0.3738464823572681 0  0.5688054099809661 0.3736291607088504 0  0.6326482351420034 0.3733971905194776 0  0.6967219060273909 0.3731606481577661 0  0.7610577830833046 0.3729386052482241 0  0.8256824023146854 0.3727636630087759 0  0.8906099839741969 0.3726876429684348 0  0.9558313752989485 0.3727875912409276 0  1.021302902453515 0.3731700923710207 0  0 0.4375 0  0.06299224805382976 0.4373797467885029 0  0.1260027096556164 0.4372553947259896 0  0.1890502647707558 0.4371227706245484 0  0.2521549876394031 0.436977599205472 0  0.3153387652986538 0.4368155030195713 0  0.3786259296185489 0.4366320830554872 0  0.4420439010092674 0.4364231415514349 0  0.5056238358405202 0.4361851495325208 0  0.5694012611599899 0.4359161290824851 0  0.6334166662137196 0.435617227301498 0  0.6977159923076744 0.4352954172497548 0  0.7623509081920935 0.434967963436226 0  0.8273786811005506 0.4346694570094324 0  0.8928614555738185 0.4344621111197733 0  0.9588652417970216 0.4344491466697504 0  1.025460992773964 0.4347892905242384 0  0 0.5 0  0.06300805284138664 0.4998735018299901 0  0.1260356006531293 0.4997422356491343 0  0.1891028936561797 0.4996012820088676 0  0.2522316597605693 0.4994454388990245 0  0.3154459023651379 0.4992691057670244 0  0.3787727672958949 0.4990662158717604 0  0.4422435118577716 0.4988302677438051 0  0.5058946284026674 0.498554552387242 0  0.5697692204482638 0.498232756708684 0  0.6339188261863685 0.497860274775936 0  0.6984060685182043 0.4974368231717977 0  0.763308817028062 0.4969713899778913 0  0.8287269651518904 0.4964911450214869 0  0.8947933387210253 0.4960563895148311 0  0.961690554145583 0.4957827342211271 0  1.02967699064489 0.4958669853779708 0  0 0.5625 0  0.06300444004063448 0.5623720070920195 0  0.1260289528351864 0.5622387187818954 0  0.1890944313974642 0.5620946042350198 0  0.2522235004098107 0.5619336474341007 0  0.3154414823379338 0.5617490899440157 0  0.3787774946961789 0.5615331665606205 0  0.4422657492819435 0.5612768548046345 0  0.5059471714571837 0.560969695713771 0  0.5698715665923949 0.5605998196078467 0  0.6341008028196402 0.560154469232681 0  0.6987139837942342 0.5596216422539054 0  0.7638165406805575 0.5589941466589891 0  0.8295567247825156 0.5582786397219396 0  0.8961548985903007 0.5575141657317745 0  0.9639523103045415 0.5568056166996059 0  1.033486402210658 0.5563705562339986 0  0 0.625 0  0.06298083793126617 0.6248757774062571 0  0.1259814946801453 0.6247459677141902 0  0.1890226402070579 0.6246046712510053 0  0.2521268611794599 0.6244453111741776 0  0.3153197579057201 0.6242602318404957 0  0.3786312289513235 0.6240402189687887 0  0.4420970432196561 0.6237739160371056 0  0.5057608624351738 0.6234471217278763 0  0.5696770284052186 0.6230419882481546 0  0.6339147963538715 0.6225362402392405 0  0.6985655634048088 0.6219028050580783 0  0.7637565757778637 0.6211109735942983 0  0.8296784655220788 0.6201321378052771 0  0.8966402213453347 0.6189578240223284 0  0.9651713292870946 0.617645401618824 0  1.036190967818433 0.6163999212774439 0  0 0.6875 0  0.06293751427032554 0.6873850918003297 0  0.1258936656623624 0.6872646277621359 0  0.18888793031263 0.687132685368106 0  0.2519417774519668 0.686982523469474 0  0.3150798342982108 0.6868060634882522 0  0.3783312808357489 0.6865932211483575 0  0.4417315870307921 0.6863310102428541 0  0.50532475966876 0.686002312770938 0  0.5691664003152657 0.685584175727491 0  0.6333282418314209 0.6850454653659896 0  0.6979058616977839 0.6843437393503038 0  0.7630341220765749 0.6834215200202587 0  0.8289223030307322 0.6822037538538427 0  0.8959377053731132 0.6806051860967046 0  0.9647919609931982 0.6785833834806265 0  1.036894850007767 0.6763193533460882 0  0 0.75 0  0.06287567388622614 0.7498999087150029 0  0.1257678318885946 0.749794678321255 0  0.1886937350779462 0.7496787871061616 0  0.251672570422099 0.7495458421886023 0  0.3147265993855243 0.7493880026249425 0  0.3778825604969485 0.7491952015822054 0  0.441173438396419 0.7489540460036622 0  0.5046407365161427 0.7486462097940687 0  0.5683374358724047 0.7482460334507857 0  0.6323319692298988 0.7477168689817634 0  0.6967141439360512 0.7470054043159083 0  0.7616063985301416 0.7460326660453914 0  0.8271930884952873 0.7446796438298181 0  0.8938131798285102 0.7427662307129969 0  0.9622594817455279 0.740041754808498 0  1.034435169534171 0.7364376558957431 0  0 0.8125 0  0.06279749801353118 0.8124198057648495 0  0.1256083835342508 0.8123352953672508 0  0.1884467042351618 0.812241802315413 0  0.2513281973172002 0.8121338517775406 0  0.3142713199947504 0.812004608816584 0  0.3772985367670325 0.811845111915373 0  0.4404379742334371 0.8116431527277647 0  0.5037255535578847 0.8113815827073584 0  0.5672076535483741 0.8110356904348823 0  0.6309441563039038 0.8105690540684539 0  0.6950112664482714 0.8099268236293358 0  0.759503004612517 0.8090244282332799 0  0.8245328279765944 0.8077273340799068 0  0.890262255102181 0.8058112078821733 0  0.9571481751580977 0.802877498620109 0  1.027754488296686 0.7981935932787487 0  0 0.875 0  0.06270610623589329 0.8749439604037162 0  0.1254216724270318 0.8748848013808179 0  0.188156645555796 0.8748191350931499 0  0.2509222464984337 0.8747429489297485 0  0.3137317670253872 0.8746511701082953 0  0.3766015939284942 0.8745370486179164 0  0.4395525688622888 0.8743912357580356 0  0.502611797816139 0.8742003605132727 0  0.5658149504812123 0.8739447795022843 0  0.629208733097387 0.8735949666959871 0  0.6928519660919114 0.8731056583544504 0  0.7568098229295682 0.8724061826664713 0  0.8211249714680823 0.8713833214808684 0  0.8857242704369396 0.8698436255892551 0  0.9501938236585866 0.8673966773724315 0  1.013598107875975 0.8629871580282761 0  0 0.9375 0  0.06260543015757017 0.9374711824154466 0  0.1252157638116338 0.9374407284497356 0  0.1878361665405888 0.9374068561011554 0  0.2504724979059759 0.9373674426628268 0  0.313131757078482 0.937319784196866 0  0.3758226733930717 0.9372602502090616 0  0.4385565236453164 0.9371837601906722 0  
[...]
<PointData  Vectors="f_54"> 
<DataArray  type="Float64"  Name="f_54"  NumberOfComponents="3" format="ascii">0.0000000000000000e+00 0.0000000000000000e+00 0.0000000000000000e+00  0.0000000000000000e+00 0.0000000000000000e+00 0.0000000000000000e+00  0.0000000000000000e+00 0.0000000000000000e+00 0.0000000000000000e+00  0.0000000000000000e+00 0.0000000000000000e+00 0.0000000000000000e+00  0.0000000000000000e+00 0.0000000000000000e+00 0.0000000000000000e+00  0.0000000000000000e+00 0.0000000000000000e+00 0.0000000000000000e+00  0.0000000000000000e+00 0.0000000000000000e+00 0.0000000000000000e+00  0.0000000000000000e+00 0.0000000000000000e+00 0.0000000000000000e+00  0.0000000000000000e+00 0.0000000000000000e+00 0.0000000000000000e+00  0.0000000000000000e+00 0.0000000000000000e+00 0.0000000000000000e+00  0.0000000000000000e+00 0.0000000000000000e+00 0.0000000000000000e+00  0.0000000000000000e+00 0.0000000000000000e+00 0.0000000000000000e+00  0.0000000000000000e+00 0.0000000000000000e+00 0.0000000000000000e+00  0.0000000000000000e+00 0.0000000000000000e+00 0.0000000000000000e+00  0.0000000000000000e+00 0.0000000000000000e+00 0.0000000000000000e+00  0.0000000000000000e+00 0.0000000000000000e+00 0.0000000000000000e+00  0.0000000000000000e+00 0.0000000000000000e+00 0.0000000000000000e+00  0.0000000000000000e+00 0.0000000000000000e+00 0.0000000000000000e+00  2.9110198575084346e-06 -1.0101687495085464e-07 0.0000000000000000e+00  5.9314398903326410e-06 -2.0746883820151370e-07 0.0000000000000000e+00  9.1766032823225470e-06 -3.2522551993679145e-07 0.0000000000000000e+00  1.2770057771573563e-05 -4.6090813277378897e-07 0.0000000000000000e+00  1.6848214488451216e-05 -6.2230077163857718e-07 0.0000000000000000e+00  2.1565704848773492e-05 -8.1878445924290571e-07 0.0000000000000000e+00  2.7102121182814430e-05 -1.0617792926648787e-06 0.0000000000000000e+00  3.3671710260114459e-05 -1.3651723673548898e-06 0.0000000000000000e+00  4.1539904394376978e-05 -1.7457556168428641e-06 0.0000000000000000e+00  5.1056844018811981e-05 -2.2239732167429432e-06 0.0000000000000000e+00  6.2735807557242474e-05 -2.8264009159272938e-06 0.0000000000000000e+00  7.7457697966632733e-05 -3.5955630326029690e-06 0.0000000000000000e+00  9.7052753293590068e-05 -4.6281739091121295e-06 0.0000000000000000e+00  1.2609235979033068e-04 -6.2219747352450537e-06 0.0000000000000000e+00  1.7788374332760562e-04 -9.4508406794034520e-06 0.0000000000000000e+00  2.9681732935474866e-04 -1.8584511797677257e-05 0.0000000000000000e+00  0.0000000000000000e+00 0.0000000000000000e+00 0.0000000000000000e+00  5.7196068180506926e-06 -1.9684612781482918e-07 0.0000000000000000e+00  1.1655451917480357e-05 -4.0426217694072612e-07 0.0000000000000000e+00  1.8035439609545390e-05 -6.3367374548605039e-07 0.0000000000000000e+00  2.5103918295537518e-05 -8.9801249063565716e-07 0.0000000000000000e+00  3.3130909074866203e-05 -1.2125565909424757e-06 0.0000000000000000e+00  4.2422466876270766e-05 -1.5958365012382515e-06 0.0000000000000000e+00  5.3333057042286414e-05 -2.0705710387989362e-06 0.0000000000000000e+00  6.6281751056741591e-05 -2.6645341002276372e-06 0.0000000000000000e+00  8.1776266648489934e-05 -3.4111658302669776e-06 0.0000000000000000e+00  1.0045412734898163e-04 -4.3496615967469739e-06 0.0000000000000000e+00  1.2316217568219203e-04 -5.5242434022381756e-06 0.0000000000000000e+00  1.5112073623630624e-04 -6.9821160783631303e-06 0.0000000000000000e+00  1.8625976245322432e-04 -8.7666329326504964e-06 0.0000000000000000e+00  2.3181552524697107e-04 -1.0879322354889755e-05 0.0000000000000000e+00  2.9278709929439397e-04 -1.3044724170102488e-05 0.0000000000000000e+00  3.7211626137047276e-04 -1.3327389891489899e-05 0.0000000000000000e+00  0.0000000000000000e+00 0.0000000000000000e+00 0.0000000000000000e+00  8.3172464275770002e-06 -2.8230441941059533e-07 0.0000000000000000e+00  1.6951103997689259e-05 -5.7965282319908186e-07 0.0000000000000000e+00  2.6234990532683257e-05 -9.0832243799231797e-07 0.0000000000000000e+00  3.6526797269660734e-05 -1.2868188377751649e-06 0.0000000000000000e+00  4.8222446305863936e-05 -1.7371595356443760e-06 0.0000000000000000e+00  6.1770720899872105e-05 -2.2863124931783042e-06 0.0000000000000000e+00  7.7689935075723985e-05 -2.9677599896606448e-06 0.0000000000000000e+00  9.6587204545417783e-05 -3.8230297091343697e-06 0.0000000000000000e+00  1.1918142043592641e-04 -4.9027742574972143e-06 0.0000000000000000e+00  1.4633129566489329e-04 -6.2664554637500180e-06 0.0000000000000000e+00  1.7906849443987064e-04 -7.9786015666447904e-06 0.0000000000000000e+00  2.1862584995096677e-04 -1.0097220783239035e-05 0.0000000000000000e+00  2.6640577866221044e-04 -1.2644583521974851e-05 0.0000000000000000e+00  3.2366948031332769e-04 -1.5540134933760038e-05 0.0000000000000000e+00  3.9022279893639108e-04 -1.8472831512841395e-05 0.0000000000000000e+00  4.6025614460744546e-04 -2.0853397077022018e-05 0.0000000000000000e+00  0.0000000000000000e+00 0.0000000000000000e+00 0.0000000000000000e+00  1.0602449524004703e-05 -3.5289612118002081e-07 0.0000000000000000e+00  2.1611584299069706e-05 -7.2430910499218442e-07 0.0000000000000000e+00  3.3455174683960335e-05 -1.1342851827574674e-06 0.0000000000000000e+00  4.6593137096746071e-05 -1.6057278443979477e-06 0.0000000000000000e+00  6.1535228457786081e-05 -2.1661144596961365e-06 0.0000000000000000e+00  7.8860146942467661e-05 -2.8495277070743541e-06 0.0000000000000000e+00  9.9236202249652732e-05 -3.6990481076544691e-06 0.0000000000000000e+00  1.2344310468765898e-04 -4.7694227335021972e-06 0.0000000000000000e+00  1.5239293049002536e-04 -6.1296084965617557e-06 0.0000000000000000e+00  1.8714463847828832e-04 -7.8640728624529058e-06 0.0000000000000000e+00  2.2889731067069407e-04 -1.0070190481020207e-05 0.0000000000000000e+00  2.7892442606886308e-04 -1.2845887659580949e-05 0.0000000000000000e+00  3.3835704301803788e-04 -1.6255540616957643e-05 0.0000000000000000e+00  4.0760808193403367e-04 -2.0251701180711580e-05 0.0000000000000000e+00  4.8504863222884043e-04 -2.4516077672091588e-05 0.0000000000000000e+00  5.6453892880871305e-04 -2.8158965847908359e-05 0.0000000000000000e+00  0.0000000000000000e+00 0.0000000000000000e+00 0.0000000000000000e+00  1.2484762928402214e-05 -4.0515672968517745e-07 0.0000000000000000e+00  2.5452303801796352e-05 -8.3101235004700692e-07 0.0000000000000000e+00  3.9409689715751209e-05 -1.2999642343853177e-06 0.0000000000000000e+00  5.4903288224976640e-05 -1.8377085929956657e-06 0.0000000000000000e+00  7.2540488068072875e-05 -2.4753192083119792e-06 0.0000000000000000e+00  9.3013308550882000e-05 -3.2518621280601986e-06 0.0000000000000000e+00  1.1712403715626274e-04 -4.2177575432158099e-06 0.0000000000000000e+00  1.4581207776384047e-04 -5.4390698736758616e-06 0.0000000000000000e+00  1.8017900891497020e-04 -7.0027428693376962e-06 0.0000000000000000e+00  2.2150406340272659e-04 -9.0222964531582331e-06 0.0000000000000000e+00  2.7123216047303291e-04 -1.1642243084545973e-05 0.0000000000000000e+00  3.3089663558308650e-04 -1.5036653564207322e-05 0.0000000000000000e+00  4.0190339322983287e-04 -1.9391560441768319e-05 0.0000000000000000e+00  4.8505524182118539e-04 -2.4850544999381793e-05 0.0000000000000000e+00  5.7968172524731031e-04 -3.1387172383753284e-05 0.0000000000000000e+00  6.8243269331964655e-04 -3.8550851053396703e-05 0.0000000000000000e+00  0.0000000000000000e+00 0.0000000000000000e+00 0.0000000000000000e+00  1.3888543552774625e-05 -4.3693939554183869e-07 0.0000000000000000e+00  2.8318540993424153e-05 -8.9527340881910269e-07 0.0000000000000000e+00  4.3857690657285842e-05 -1.3980906098481095e-06 0.0000000000000000e+00  6.1119304396624615e-05 -1.9719162911478717e-06 0.0000000000000000e+00  8.0787851334630692e-05 -2.6489832693728658e-06 0.0000000000000000e+00  1.0364739054178045e-04 -3.4702625597213615e-06 0.0000000000000000e+00  1.3061360570077002e-04 -4.4896861976244524e-06 0.0000000000000000e+00  1.6276949730170231e-04 -5.7801629956304583e-06 0.0000000000000000e+00  2.0140319679667497e-04 -7.4421903626183206e-06 0.0000000000000000e+00  2.4804291108731694e-04 -9.6160228437425030e-06 0.0000000000000000e+00  3.0447722145835658e-04 -1.2498229314368671e-05 0.0000000000000000e+00  3.7273729389811379e-04 -1.6362445002951223e-05 0.0000000000000000e+00  4.5500192411644652e-04 -2.1580866233504316e-05 0.0000000000000000e+00  5.5337852357574394e-04 -2.8635073803547877e-05 0.0000000000000000e+00  6.6955455562337602e-04 -3.8088583893325670e-05 0.0000000000000000e+00  8.0449289835651859e-04 -5.0466385489646735e-05 0.0000000000000000e+00  0.0000000000000000e+00 0.0000000000000000e+00 0.0000000000000000e+00  1.4756381016541421e-05 -4.4760160860886218e-07 0.0000000000000000e+00  3.0092452844874083e-05 -9.1575630409978035e-07 0.0000000000000000e+00  4.6614713048614611e-05 -1.4264998629018474e-06 0.0000000000000000e+00  6.4980194359163886e-05 -2.0050335683244848e-06 0.0000000000000000e+00  8.5925260593504961e-05 -2.6819041201760819e-06 0.0000000000000000e+00  1.1029867796233991e-04 -3.4960699272861613e-06 0.0000000000000000e+00  1.3910075143719233e-04 -4.4994761079886887e-06 0.0000000000000000e+00  1.7353049290994943e-04 -5.7641606630698039e-06 0.0000000000000000e+00  2.1504275393913582e-04 -7.3935970091707579e-06 0.0000000000000000e+00  2.6541668172965611e-04 -9.5411113874376280e-06 0.0000000000000000e+00  3.2683531248456804e-04 -1.2440007941395250e-05 0.0000000000000000e+00  4.0197361689730328e-04 -1.6452624464863253e-05 0.0000000000000000e+00  4.9409152957275121e-04 -2.2148611270137133e-05 0.0000000000000000e+00  6.0714125274032753e-04 -3.0424756777042551e-05 0.0000000000000000e+00  7.4595955707283060e-04 -4.2676655692141935e-05 0.0000000000000000e+00  9.1680322433157794e-04 -6.1027069998727413e-05 0.0000000000000000e+00  0.0000000000000000e+00 0.0000000000000000e+00 0.0000000000000000e+00  1.5051992623936401e-05 -4.3804369694734355e-07 0.0000000000000000e+00  3.0699122207753559e-05 -8.9439733440402660e-07 0.0000000000000000e+00  4.7562420310882754e-05 -1.3884351186172791e-06 0.0000000000000000e+00  6.6316281416660828e-05 -1.9419720038010462e-06 0.0000000000000000e+00  8.7719353647367553e-05 -2.5809917940446814e-06 0.0000000000000000e+00  1.1265108149338167e-04 -3.3381859189355458e-06 0.0000000000000000e+00  1.4215693191872860e-04 -4.2569694363168756e-06 0.0000000000000000e+00  1.7750661993392070e-04 -5.3981895792643131e-06 0.0000000000000000e+00  2.2027169838095440e-04 -6.8517993010429379e-06 0.0000000000000000e+00  2.7243208129539486e-04 -8.7578112186241871e-06 0.0000000000000000e+00  3.3652600415042688e-04 -1.1344786272526622e-05 0.0000000000000000e+00  4.1586554046512135e-04 -1.5001594388885216e-05 0.0000000000000000e+00  5.1485252028066154e-04 -2.0411936767965551e-05 0.0000000000000000e+00  6.3945657847910755e-04 -2.8805180986883005e-05 0.0000000000000000e+00  7.9799283117751611e-04 -4.2418458181205873e-05 0.0000000000000000e+00  1.0025759429910742e-03 -6.5351519654370456e-05 0.0000000000000000e+00  0.0000000000000000e+00 0.0000000000000000e+00 0.0000000000000000e+00  1.4762336160139108e-05 -4.1056017686007868e-07 0.0000000000000000e+00  3.0111099345353691e-05 -8.3612103305930606e-07 0.0000000000000000e+00  4.6656268567144295e-05 -1.2921695988383394e-06 0.0000000000000000e+00  6.5061264786913877e-05 -1.7955188319538133e-06 0.0000000000000000e+00  8.6074163223820625e-05 -2.3652353339534986e-06 0.0000000000000000e+00  1.1056540603200299e-04 -3.0240470537730976e-06 0.0000000000000000e+00  1.3957598443131708e-04 -3.8007096379819670e-06 0.0000000000000000e+00  1.7438236663765293e-04 -4.7343024768752000e-06 0.0000000000000000e+00  2.1658857102677172e-04 -5.8824715216745723e-06 0.0000000000000000e+00  2.6826308326484877e-04 -7.3379011646781668e-06 0.0000000000000000e+00  3.3215097208190219e-04 -9.2622952287690816e-06 0.0000000000000000e+00  4.1201261887061492e-04 -1.1958310565443914e-05 0.0000000000000000e+00  5.1317335162334092e-04 -1.6024788173073669e-05 0.0000000000000000e+00  6.4341727755809291e-04 -2.2694845144839322e-05 0.0000000000000000e+00  8.1444729484250245e-04 -3.4568944320178997e-05 0.0000000000000000e+00  1.0444140306474848e-03 -5.7186150837400537e-05 0.0000000000000000e+00  0.0000000000000000e+00 0.0000000000000000e+00 0.0000000000000000e+00  1.3898645799726188e-05 -3.6849419592214461e-07 0.0000000000000000e+00  2.8350764207912034e-05 -7.4811545014637398e-07 0.0000000000000000e+00  4.3929836439394919e-05 -1.1498374215503191e-06 0.0000000000000000e+00  6.1259760950285752e-05 -1.5846434818961409e-06 0.0000000000000000e+00  8.1044221681781769e-05 -2.0634404743355302e-06 0.0000000000000000e+00  1.0410243804563728e-04 -2.5969157567493612e-06 0.0000000000000000e+00  1.3141544182385960e-04 -3.1954047913743289e-06 0.0000000000000000e+00  1.6418984118223666e-04 -3.8690229453647640e-06 0.0000000000000000e+00  2.0395147555523407e-04 -4.6288016590494123e-06 0.0000000000000000e+00  2.5269198354707900e-04 -5.4908482413481881e-06 0.0000000000000000e+00  3.1311199600751407e-04 -6.4889866094908624e-06 0.0000000000000000e+00  3.8904413449955820e-04 -7.7108325765666586e-06 0.0000000000000000e+00  4.8620994138378270e-04 -9.3990312576397050e-06 0.0000000000000000e+00  6.1357578144332486e-04 -1.2234616255006955e-05 0.0000000000000000e+00  7.8570276133832744e-04 -1.8119470092163771e-05 0.0000000000000000e+00  1.0266735719135082e-03 -3.2249231804271479e-05 0.0000000000000000e+00  0.0000000000000000e+00 0.0000000000000000e+00 0.0000000000000000e+00  1.2496142123984721e-05 -3.1573122544281536e-07 0.0000000000000000e+00  2.5489906757826911e-05 -6.3873412334306690e-07 0.0000000000000000e+00  3.9494613797725135e-05 -9.7555519299242945e-07 0.0000000000000000e+00  5.5068015740809489e-05 -1.3315145132083740e-06 0.0000000000000000e+00  7.2837707477324656e-05 -1.7096309609671356e-06 0.0000000000000000e+00  9.3531687142402476e-05 -2.1089048447401069e-06 0.0000000000000000e+00  1.1801736962157044e-04 -2.5215249217556245e-06 0.0000000000000000e+00  1.4735476376123664e-04 -2.9283036579233248e-06 0.0000000000000000e+00  1.8287460476957919e-04 -3.2911914453154818e-06 0.0000000000000000e+00  2.2630336421105822e-04 -3.5409744330627202e-06 0.0000000000000000e+00  2.7998220062587476e-04 -3.5572364231720172e-06 0.0000000000000000e+00  3.4728454900636040e-04 -3.1373747339037447e-06 0.0000000000000000e+00  4.3346745184978642e-04 -1.9582554781026231e-06 0.0000000000000000e+00  5.4746388454699206e-04 4.2099046462609446e-07 0.0000000000000000e+00  7.0552498882654833e-04 4.2588259459837248e-06 0.0000000000000000e+00  9.3755282457248237e-04 8.1992992541240112e-06 0.0000000000000000e+00  0.0000000000000000e+00 0.0000000000000000e+00 0.0000000000000000e+00  1.0612314132423481e-05 -2.5611783451094607e-07 0.0000000000000000e+00  2.1646239453058770e-05 -5.1621155277109243e-07 0.0000000000000000e+00  3.3534585667866026e-05 -7.8315516711747486e-07 0.0000000000000000e+00  4.6746336342244633e-05 -1.0577344036078882e-06 0.0000000000000000e+00  6.1806563631228100e-05 -1.3368760084671131e-06 0.0000000000000000e+00  7.9319447871237619e-05 -1.6108053913329632e-06 0.0000000000000000e+00  9.9995990744327623e-05 -1.8583212528803309e-06 0.0000000000000000e+00  1.2468899436315366e-04 -2.0387543801912507e-06 0.0000000000000000e+00  1.5444029599994528e-04 -2.0779345551119923e-06 0.0000000000000000e+00  1.9055180161916017e-04 -1.8428696757892888e-06 0.0000000000000000e+00  2.3471081002242742e-04 -1.0939960014161996e-06 0.0000000000000000e+00  2.8925688359606849e-04 6.0980655235503028e-07 0.0000000000000000e+00  3.5784980779687294e-04 4.1105455551442515e-06 0.0000000000000000e+00  4.4731633877982013e-04 1.1080781528777186e-05 0.0000000000000000e+00  5.7290004371900714e-04 2.4853334599344370e-05 0.0000000000000000e+00  7.7046404523886604e-04 5.0318763811341265e-05 0.0000000000000000e+00  0.0000000000000000e+00 0.0000000000000000e+00 0.0000000000000000e+00  8.3238903891117463e-06 -1.9292558922385986e-07 0.0000000000000000e+00  1.6977058974475873e-05 -3.8746576006163963e-07 0.0000000000000000e+00  2.6295890003232558e-05 -5.8403656028694501e-07 0.0000000000000000e+00  3.6643468402972043e-05 -7.8068680376843261e-07 0.0000000000000000e+00  4.8423430206054808e-05 -9.7111652271833319e-07 0.0000000000000000e+00  6.2094764483099850e-05 -1.1415049075541951e-06 0.0000000000000000e+00  7.8187231858083042e-05 -1.2652430458002930e-06 0.0000000000000000e+00  9.7316112435659797e-05 -1.2939833477254899e-06 0.0000000000000000e+00  1.2019312213326953e-04 -1.1420714226016771e-06 0.0000000000000000e+00  1.4762727044275939e-04 -6.5858971893380629e-07 0.0000000000000000e+00  1.8050709656399820e-04 4.2536468018677794e-07 0.0000000000000000e+00  2.1976864707701202e-04 2.6040408109274922e-06 0.0000000000000000e+00  2.6645541018683342e-04 6.8423167015308534e-06 0.0000000000000000e+00  3.2249245069043800e-04 1.5230691467038949e-05 0.0000000000000000e+00  3.9507171716271326e-04 3.3113329187907896e-05 0.0000000000000000e+00  5.1781763193466893e-04 7.8493782800470626e-05 0.0000000000000000e+00  0.0000000000000000e+00 0.0000000000000000e+00 0.0000000000000000e+00  5.7228396962080437e-06 -1.2848181318067200e-07 0.0000000000000000e+00  1.1670805569383391e-05 -2.5727130239683619e-07 0.0000000000000000e+00  1.8072875926683209e-05 -3.8567655420001210e-07 0.0000000000000000e+00  2.5175132757891938e-05 -5.1099370610435085e-07 0.0000000000000000e+00  3.3248979571785284e-05 -6.2684195691178472e-07 0.0000000000000000e+00  4.2598879391837068e-05 -7.2052213214527870e-07 0.0000000000000000e+00  5.3568095978500991e-05 -7.6869064915159604e-07 0.0000000000000000e+00  6.6538669406348744e-05 -7.3017978706609045e-07 0.0000000000000000e+00  8.1916634375926782e-05 -5.3402278933953238e-07 0.0000000000000000e+00  1.0008123661620928e-04 -5.9495100341400835e-08 0.0000000000000000e+00  1.2124811446940581e-04 8.9694864233093142e-07 0.0000000000000000e+00  1.4513161513903187e-04 2.6761081917346027e-06 0.0000000000000000e+00  1.7017300482579428e-04 5.8488286337067438e-06 0.0000000000000000e+00  1.9209435455522586e-04 1.1417729565058219e-05 0.0000000000000000e+00  2.0330346197177309e-04 2.1610776866629784e-05 0.0000000000000000e+00  2.0784323302377045e-04 4.4625449819801951e-05 0.0000000000000000e+00  0.0000000000000000e+00 0.0000000000000000e+00 0.0000000000000000e+00  2.9118836945540764e-06 -6.4052649581158115e-08 0.0000000000000000e+00  5.9376199199590214e-06 -1.2800298815338718e-07 0.0000000000000000e+00  9.1926207712104021e-06 -1.9118602562480468e-07 0.0000000000000000e+00  1.2800431218264959e-05 -2.5179540012252698e-07 0.0000000000000000e+00  1.6896346933594526e-05 -3.0594927256332399e-07 0.0000000000000000e+00  2.1630314367784355e-05 -3.4622528887071409e-07 0.0000000000000000e+00  2.7167800778887765e-05 -3.5930512599423192e-07 0.0000000000000000e+00  3.3685463629468713e-05 -3.2219140625435893e-07 0.0000000000000000e+00  4.1353888466439547e-05 -1.9628749432824187e-07 0.0000000000000000e+00  5.0287849850542005e-05 8.1188976010964821e-08 0.0000000000000000e+00  6.0411751753342778e-05 6.0692539299378390e-07 0.0000000000000000e+00  7.1089582299453267e-05 1.5105203815602120e-06 0.0000000000000000e+00  8.0054178569787405e-05 2.8859467051200929e-06 0.0000000000000000e+00  8.0172347235543003e-05 4.4137887748701249e-06 0.0000000000000000e+00  5.0407042508806473e-05 3.8205590991693400e-06 0.0000000000000000e+00  -5.4819426521979388e-05 -6.5855540422721466e-06 0.0000000000000000e+00  0.0000000000000000e+00 0.0000000000000000e+00 0.0000000000000000e+00  0.0000000000000000e+00 0.0000000000000000e+00 0.0000000000000000e+00  0.0000000000000000e+00 0.0000000000000000e+00 0.0000000000000000e+00  0.0000000000000000e+00 0.0000000000000000e+00 0.0000000000000000e+00  0.0000000000000000e+00 0.0000000000000000e+00 0.0000000000000000e+00  0.0000000000000000e+00 0.0000000000000000e+00 0.0000000000000000e+00  0.0000000000000000e+00 0.0000000000000000e+00 0.0000000000000000e+00  0.0000000000000000e+00 0.0000000000000000e+00 0.0000000000000000e+00  0.0000000000000000e+00 0.0000000000000000e+00 0.0000000000000000e+00  0.00000