<?xml version="1.0"?>
<VTKFile type="UnstructuredGrid"  version="0.1"  >
<UnstructuredGrid>
<Piece  NumberOfPoints="289" NumberOfCells="512">
<Points>
<DataArray  type="Float64"  NumberOfComponents="3"  format="ascii">0 0 0  0.0625 0 0  0.125 0 0  0.1875 0 0  0.25 0 0  0.3125 0 0  0.375 0 0  0.4375 0 0  0.5 0 0  0.5625 0 0  0.625 0 0  0.6875 0 0  0.75 0 0  0.8125 0 0  0.875 0 0  0.9375 0 0  1 0 0  0 0.0625 0  0.06254897578425872 0.0624932562964569 0  0.1250991736861915 0.06248638544173958 0  0.1876517858910904 0.06247927059707364 0  0.2502079162646253 0.06247181853629192 0  0.3127685089714999 0.06246397530218389 0  0.3753342413842672 0.06245574612175014 0  0.4379053651105635 0.06244722000345127 0  0.5004814747946273 0.06243859785532361 0  0.5630611772345483 0.06243021995946989 0  0.6256416180238475 0.06242258347998183 0  0.6882177818498599 0.06241633278347222 0  0.7507813550565323 0.06241219525179276 0  0.8133184961031789 0.06241082719896805 0  0.8758041455337938 0.06241254412750967 0  0.9381831399838458 0.06241702477019859 0  1.000293340164432 0.06242453893496926 0  0 0.125 0  0.06259674141356993 0.1249866391550475 0  0.1251959736407307 0.1249730127926911 0  0.1878001394339323 0.1249588744737292 0  0.2504115313705256 0.1249440218872298 0  0.3130321658728665 0.1249283270021451 0  0.3756635905362781 0.1249117755316981 0  0.4383065952906396 0.124894517428727 0  0.5009607922449349 0.1248769275784545 0  0.563624022123779 0.1248596706309987 0  0.6262915348912154 0.124843754295528 0  0.6889548695516581 0.1248305395585946 0  0.7516002933687813 0.1248216543741444 0  0.814206468650672 0.124818740197465 0  0.8767405277010956 0.1248230003598204 0  0.9391512445596388 0.1248347922797278 0  1.001364762882127 0.1248541867521256 0  0 0.1875 0  0.06264202683141241 0.1874802876775536 0  0.1252878863225098 0.1874601508259349 0  0.1879413652438587 0.1874391895722455 0  0.2506060841156006 0.1874170621769315 0  0.3132853447794348 0.1873935268895777 0  0.375981886553405 0.1873684993143994 0  0.4386975102242091 0.1873421298085521 0  0.5014325221187227 0.1873149031685919 0  0.564184944671005 0.1872877571842564 0  0.626949437704407 0.1872622043947446 0  0.6897158782253388 0.1872404169941481 0  0.7524675560469348 0.1872251875977821 0  0.8151789633217718 0.1872195829381162 0  0.8778132816687799 0.1872258824878742 0  0.9403205581910891 0.1872427378555499 0  1.002642126202689 0.1872573267613745 0  0 0.25 0  0.06268349266363739 0.2499743615119301 0  0.1253722377768165 0.2499481127222013 0  0.1880714707406917 0.2499206686249066 0  0.2507863055852348 0.2498915060192074 0  0.3135215936331683 0.2498602119191007 0  0.3762816739959719 0.2498265543858033 0  0.4390699651623352 0.2497905847883393 0  0.5018883362780608 0.2497527803589971 0  0.5647361872474088 0.2497142329954277 0  0.6276091631079336 0.24967688093732 0  0.690497437830041 0.2496437572438244 0  0.7533835390645702 0.2496191799801505 0  0.8162397808229888 0.2496087112539061 0  0.8790256341098087 0.2496185361293798 0  0.9416861395077463 0.2496536775497183 0  1.004154357225145 0.2497145933943808 0  0 0.3125 0  0.06271972313559171 0.3124690468710447 0  0.1254461722010788 0.3124372699239424 0  0.1881861151121059 0.3124038646636488 0  0.2509463138593961 0.3123680778603373 0  0.3137334389922432 0.3123292543472297 0  0.3765538701800124 0.312286912426015 0  0.4394133243171615 0.3122408623899166 0  0.5023162354373824 0.3121913865644927 0  0.5652647913447221 0.3121395028247967 0  0.6282575143050246 0.3120873341191742 0  0.691287265607611 0.312038598089296 0  0.7543385738618844 0.3119992011439024 0  0.8173842764821165 0.3119778486271283 0  0.8803817311379872 0.3119864382432708 0  0.9432695532207869 0.3120397765274255 0  1.00596737390006 0.3121539055377208 0  0 0.375 0  0.06274924810086126 0.3749645574218536 0  0.1255066915393658 0.3749280556500314 0  0.1882806567319019 0.3748894410318769 0  0.25107965226099 0.3748476833715148 0  0.3139123878536761 0.3748018098428111 0  0.3767876891432724 0.37475097059579 0  0.439714247132083 0.3746945554704199 0  0.502700116293911 0.3746323902704188 0  0.5657518422698675 0.3745650538547689 0  0.6288730600235445 0.3744943738649442 0  0.6920623608080904 0.3744241767278693 0  0.7553101952181619 0.3743613774981007 0  0.818594595500805 0.3743174728531796 0  0.8818756439314867 0.374310392863683 0  0.945089029305107 0.3743663754505047 0  1.008139836433557 0.3745208946935732 0  0 0.4375 0  0.06277059939825029 0.437461128330588 0  0.1255507675018047 0.4374209542324771 0  0.1883503185630636 0.4373781590600712 0  0.2511795017741934 0.4373314016113681 0  0.3140491720989891 0.4372793257514294 0  0.3769708868504052 0.4372205969710891 0  0.4399568741296691 0.4371539892374252 0  0.5030197887109872 0.4370785571221165 0  0.5661721263146002 0.4369939504387335 0  0.6294251049908349 0.4369009638325174 0  0.6927867405652908 0.4368024668350071 0  0.7562587448361224 0.4367049323879669 0  0.8198317752769022 0.4366208597534078 0  0.8834784976682404 0.4365724119149097 0  0.9471439321212745 0.436596404132899 0  1.010732611355617 0.4367501199364784 0  0 0.5 0  0.06278240269876328 0.4999590022432026 0  0.1255755294651993 0.4999164732631713 0  0.1883904798045539 0.4998708373059145 0  0.2512390852067762 0.4998204344106976 0  0.3141342700475871 0.4997634885356942 0  0.3770903914688984 0.499698093896819 0  0.4401235256996233 0.4996222374335488 0  0.5032516387963426 0.4995338906409167 0  0.5664945332112744 0.4994312316508485 0  0.6298733911830816 0.4993131078381373 0  0.6934096340405942 0.4991799361161346 0  0.7571226745710563 0.4990353856784236 0  0.8210259452158115 0.4988894194097042 0  0.8851203110596408 0.4987635696989125 0  0.9493835633018545 0.4986995208962252 0  1.013754061771365 0.4987716323698927 0  0 0.5625 0  0.06278350066802241 0.5624584070371356 0  0.1255785209353459 0.5624150976498674 0  0.1883970857924352 0.5623682793446545 0  0.2512522594981759 0.5623160051270767 0  0.3141587156576306 0.5622560926319244 0  0.377133361461459 0.5621860425057171 0  0.4401960212453653 0.5621029637349505 0  0.5033701665112731 0.5620035255335332 0  0.5666836482053611 0.5618839795591517 0  0.6301693371533633 0.5617403450599252 0  0.6938655060906421 0.5615689484024157 0  0.757815688396664 0.5613677077378617 0  0.8220676076211328 0.5611389449633837 0  0.8866705045746984 0.5608952144494047 0  0.9516695491752488 0.5606706498598509 0  1.017094651630194 0.5605408540136563 0  0 0.625 0  0.06277309684403586 0.6249595268004846 0  0.1255580037898142 0.624917228155046 0  0.1883671464975059 0.6248711728850903 0  0.2512142611720954 0.6248192076522306 0  0.3141151633575132 0.624758825231261 0  0.3770886602117431 0.6246870073672162 0  0.4401576633982904 0.62460003375069 0  0.5033505650047898 0.6244932513535423 0  0.5667029433828481 0.6243608074213191 0  0.6302596735600067 0.6241953743863453 0  0.6940775464725149 0.6239879597931627 0  0.7582286028772556 0.6237280607977005 0  0.8228046488160744 0.6234048490143936 0  0.8879238638498228 0.6230111240073242 0  0.9537405729273088 0.6225540258477298 0  1.020457686046762 0.6220792998026242 0  0 0.6875 0  0.062750902854458 0.6874624694449931 0  0.1255132747430226 0.6874231113718205 0  0.1882992686160397 0.6873799708542111 0  0.2511225298569788 0.6873308197402397 0  0.3139991155932889 0.687272982863587 0  0.3769486458206567 0.6872031138690509 0  0.4399958020622871 0.6871168937557142 0  0.5031723272782932 0.6870086150196633 0  0.5665197379012964 0.6868705995511218 0  0.6300930544308113 0.6866923785269909 0  0.6939660497353889 0.6864595406558109 0  0.758238975557707 0.6861521559089794 0  0.8230508997557221 0.6857428287924969 0  0.8886015409700788 0.6851952560273299 0  0.9551923452970861 0.6844675430795439 0  1.023298796961817 0.683533793101226 0  0 0.75 0  0.06271726586856687 0.7499672361657704 0  0.1254449452885244 0.7499327723321645 0  0.1881941418536712 0.7498947732258541 0  0.2509774926618299 0.749851109510402 0  0.3138101497682879 0.7497991620557612 0  0.3767110596277924 0.7497355575767906 0  0.4397047081683021 0.7496557937399616 0  0.502823572786357 0.74955368973143 0  0.5661116383682199 0.7494205607749043 0  0.6296295247470982 0.7492439491671166 0  0.6934621269746036 0.7490056215282105 0  0.7577304772611364 0.7486782985890251 0  0.8226117860647227 0.7482200977648961 0  0.8883784984165957 0.7475648839193596 0  0.9554869109410802 0.7466072475552098 0  1.024778479288363 0.7452003184444115 0  0 0.8125 0  0.06267325039714024 0.8124736990050472 0  0.1253551289526267 0.812445963603379 0  0.1880548837752711 0.8124152340306245 0  0.2507831594726198 0.812379675458455 0  0.3135529188290434 0.8123369891793263 0  0.3763806831260612 0.8122841499618975 0  0.4392882865502702 0.8122170215771818 0  0.5023054419958399 0.8121297745321678 0  0.565473580745757 0.8120139818824033 0  0.6288516957128185 0.8118571837531764 0  0.6925253652328426 0.8116405503873884 0  0.7566209926116458 0.811334934048526 0  0.821329548839358 0.8108937672351362 0  0.886952684552425 0.8102389115211948 0  0.9540247481608914 0.8092283184778659 0  1.023770887257938 0.807571762095173 0  0 0.875 0  0.06262065063871951 0.8749815924958836 0  0.1252474825058356 0.8749621444342188 0  0.187887147836611 0.8749405183812544 0  0.2505473701255044 0.8749153629944322 0  0.3132376683945372 0.8748849630977722 0  0.3759703565014933 0.8748470270579334 0  0.4387619984003341 0.8747983691715444 0  0.5016356079325749 0.8747344190555462 0  0.5646240640382668 0.8746484464754619 0  0.627775513281129 0.8745303173141384 0  0.6911620040315436 0.874364475373796 0  0.7548932612562952 0.8741266320541903 0  0.8191382668854139 0.873778174352027 0  0.8841584282637706 0.873255740077041 0  0.9503684631188447 0.8724467319680519 0  1.01862594717548 0.871109151127856 0  0 0.9375 0  0.06256191771581246 0.9374905234881751 0  0.1251270639868869 0.9374804995528 0  0.1876989227254439 0.9374693278765468 0  0.250281562148691 0.9374562909072474 0  0.3128800366074898 0.9374404706200707 0  0.3755009510606244 0.9374206290150595 0  0.4381533011059594 0.9373950272163735 0  0.5
[...]
<PointData  Vectors="f_54"> 
<DataArray  type="Float64"  Name="f_54"  NumberOfComponents="3" format="ascii">0.0000000000000000e+00 0.0000000000000000e+00 0.0000000000000000e+00  0.0000000000000000e+00 0.0000000000000000e+00 0.0000000000000000e+00  0.0000000000000000e+00 0.0000000000000000e+00 0.0000000000000000e+00  0.0000000000000000e+00 0.0000000000000000e+00 0.0000000000000000e+00  0.0000000000000000e+00 0.0000000000000000e+00 0.0000000000000000e+00  0.0000000000000000e+00 0.0000000000000000e+00 0.0000000000000000e+00  0.0000000000000000e+00 0.0000000000000000e+00 0.0000000000000000e+00  0.0000000000000000e+00 0.0000000000000000e+00 0.0000000000000000e+00  0.0000000000000000e+00 0.0000000000000000e+00 0.0000000000000000e+00  0.0000000000000000e+00 0.0000000000000000e+00 0.0000000000000000e+00  0.0000000000000000e+00 0.0000000000000000e+00 0.0000000000000000e+00  0.0000000000000000e+00 0.0000000000000000e+00 0.0000000000000000e+00  0.0000000000000000e+00 0.0000000000000000e+00 0.0000000000000000e+00  0.0000000000000000e+00 0.0000000000000000e+00 0.0000000000000000e+00  0.0000000000000000e+00 0.0000000000000000e+00 0.0000000000000000e+00  0.0000000000000000e+00 0.0000000000000000e+00 0.0000000000000000e+00  0.0000000000000000e+00 0.0000000000000000e+00 0.0000000000000000e+00  0.0000000000000000e+00 0.0000000000000000e+00 0.0000000000000000e+00  4.0081298054791863e-06 -1.2868688294902526e-07 0.0000000000000000e+00  8.1517353040560282e-06 -2.6209006158334259e-07 0.0000000000000000e+00  1.2569819068618927e-05 -4.0502217406512795e-07 0.0000000000000000e+00  1.7406476467823776e-05 -5.6239687244365764e-07 0.0000000000000000e+00  2.2812973786162337e-05 -7.3918204863380103e-07 0.0000000000000000e+00  2.8949218951521248e-05 -9.4020277858170192e-07 0.0000000000000000e+00  3.5984574197824203e-05 -1.1696870726164269e-06 0.0000000000000000e+00  4.4098483156306606e-05 -1.4303917032010881e-06 0.0000000000000000e+00  5.3483005593006523e-05 -1.7220716693096715e-06 0.0000000000000000e+00  6.4354091790440877e-05 -2.0389758346550522e-06 0.0000000000000000e+00  7.6992304173118981e-05 -2.3660115027992233e-06 0.0000000000000000e+00  9.1875793046569437e-05 -2.6734300766324019e-06 0.0000000000000000e+00  1.1010333422892818e-04 -2.9113227174257837e-06 0.0000000000000000e+00  1.3476664350023758e-04 -3.0127978284775715e-06 0.0000000000000000e+00  1.7560663346643851e-04 -2.9535886349267290e-06 0.0000000000000000e+00  2.6559469241594204e-04 -3.1108239910215318e-06 0.0000000000000000e+00  0.0000000000000000e+00 0.0000000000000000e+00 0.0000000000000000e+00  7.8863578039044066e-06 -2.5283710623041108e-07 0.0000000000000000e+00  1.6041902173585134e-05 -5.1506901101837498e-07 0.0000000000000000e+00  2.4743048277786693e-05 -7.9631732482415084e-07 0.0000000000000000e+00  3.4276956155652621e-05 -1.1064912940872726e-06 0.0000000000000000e+00  4.4945936440684901e-05 -1.4557636995659171e-06 0.0000000000000000e+00  5.7070476830281227e-05 -1.8542811462655010e-06 0.0000000000000000e+00  7.0990382270441182e-05 -2.3114097291565156e-06 0.0000000000000000e+00  8.7063843529807070e-05 -2.8342035164038140e-06 0.0000000000000000e+00  1.0566546438546529e-04 -3.4246231348368483e-06 0.0000000000000000e+00  1.2718773134079916e-04 -4.0748198894766381e-06 0.0000000000000000e+00  1.5205896855915326e-04 -4.7595130776835478e-06 0.0000000000000000e+00  1.8080943435812156e-04 -5.4239122743924745e-06 0.0000000000000000e+00  2.1424787475464454e-04 -5.9634262782998261e-06 0.0000000000000000e+00  2.5380834414164488e-04 -6.1802225562292383e-06 0.0000000000000000e+00  3.0173299500486385e-04 -5.6439770249860643e-06 0.0000000000000000e+00  3.5788511889743357e-04 -3.0919987804710668e-06 0.0000000000000000e+00  0.0000000000000000e+00 0.0000000000000000e+00 0.0000000000000000e+00  1.1500243810568019e-05 -3.6774990182217148e-07 0.0000000000000000e+00  2.3398769042701999e-05 -7.4943221536302535e-07 0.0000000000000000e+00  3.6105071739120762e-05 -1.1593929166609347e-06 0.0000000000000000e+00  5.0046069402153175e-05 -1.6125988520275380e-06 0.0000000000000000e+00  6.5673421252608824e-05 -2.1247624495650201e-06 0.0000000000000000e+00  8.3468667790854726e-05 -2.7121578160120812e-06 0.0000000000000000e+00  1.0394488516292357e-04 -3.3908735689583909e-06 0.0000000000000000e+00  1.2764306169646566e-04 -4.1750822541460050e-06 0.0000000000000000e+00  1.5512081214735072e-04 -5.0736627649255006e-06 0.0000000000000000e+00  1.8693019563533232e-04 -6.0841942466517857e-06 0.0000000000000000e+00  2.2357923311005332e-04 -7.1830294327222215e-06 0.0000000000000000e+00  2.6546340302080631e-04 -8.3102092591255967e-06 0.0000000000000000e+00  3.1272085142121218e-04 -9.3498048794704525e-06 0.0000000000000000e+00  3.6485050376584811e-04 -1.0115863228012357e-05 0.0000000000000000e+00  4.1959072312410743e-04 -1.0399711830435838e-05 0.0000000000000000e+00  4.6984513097004778e-04 -1.0357194654739223e-05 0.0000000000000000e+00  0.0000000000000000e+00 0.0000000000000000e+00 0.0000000000000000e+00  1.4720223949750991e-05 -4.6887492240116153e-07 0.0000000000000000e+00  2.9959869316902770e-05 -9.5591267106354244e-07 0.0000000000000000e+00  4.6253925388822502e-05 -1.4799357185110016e-06 0.0000000000000000e+00  6.4162918197331603e-05 -2.0608856827375556e-06 0.0000000000000000e+00  8.4284164196860178e-05 -2.7202511116171078e-06 0.0000000000000000e+00  1.0726040527457655e-04 -3.4812466655620195e-06 0.0000000000000000e+00  1.3378380688932936e-04 -4.3684935717466869e-06 0.0000000000000000e+00  1.6459195868695210e-04 -5.4067485809256968e-06 0.0000000000000000e+00  2.0045019315003792e-04 -6.6178966205310361e-06 0.0000000000000000e+00  2.4211026876028041e-04 -8.0149150030246610e-06 0.0000000000000000e+00  2.9022699791037210e-04 -9.5908290262025618e-06 0.0000000000000000e+00  3.4519655161101883e-04 -1.1299967059064773e-05 0.0000000000000000e+00  4.0684219428866646e-04 -1.3028661398791573e-05 0.0000000000000000e+00  4.7379899841516889e-04 -1.4554018353162736e-05 0.0000000000000000e+00  5.4234254536187731e-04 -1.5490744864827901e-05 0.0000000000000000e+00  6.0441791794368406e-04 -1.5192581091046352e-05 0.0000000000000000e+00  0.0000000000000000e+00 0.0000000000000000e+00 0.0000000000000000e+00  1.7425026707405700e-05 -5.5198103918253370e-07 0.0000000000000000e+00  3.5478660415266231e-05 -1.1258125143749647e-06 0.0000000000000000e+00  5.4809784197216681e-05 -1.7442876342178435e-06 0.0000000000000000e+00  7.6102544663121121e-05 -2.4319420112947387e-06 0.0000000000000000e+00  1.0009288326094357e-04 -3.2159234053949322e-06 0.0000000000000000e+00  1.2758280569654610e-04 -4.1267911183158114e-06 0.0000000000000000e+00  1.5945018941868321e-04 -5.1990852598779792e-06 0.0000000000000000e+00  1.9665013273217951e-04 -6.4713097398809008e-06 0.0000000000000000e+00  2.4020069577971193e-04 -7.9845972965718693e-06 0.0000000000000000e+00  2.9114033292646787e-04 -9.7786311686375814e-06 0.0000000000000000e+00  3.5043459058471622e-04 -1.1882166881773648e-05 0.0000000000000000e+00  4.1879313643725693e-04 -1.4293411548966394e-05 0.0000000000000000e+00  4.9633275488686140e-04 -1.6942142219603354e-05 0.0000000000000000e+00  5.8199256971855600e-04 -1.9620094179533911e-05 0.0000000000000000e+00  6.7260742632406728e-04 -2.1857338560721546e-05 0.0000000000000000e+00  7.6167525734143263e-04 -2.2708496123312900e-05 0.0000000000000000e+00  0.0000000000000000e+00 0.0000000000000000e+00 0.0000000000000000e+00  1.9505723048921802e-05 -6.1339295845964190e-07 0.0000000000000000e+00  3.9732573235263847e-05 -1.2514965007226788e-06 0.0000000000000000e+00  6.1426839504383007e-05 -1.9402361110565097e-06 0.0000000000000000e+00  8.5381139660211660e-05 -2.7079247818546752e-06 0.0000000000000000e+00  1.1245756653469108e-04 -3.5866439544364825e-06 0.0000000000000000e+00  1.4360997257607510e-04 -4.6138353342438119e-06 0.0000000000000000e+00  1.7990379205288571e-04 -5.8341340996808094e-06 0.0000000000000000e+00  2.2253011601293615e-04 -7.3013678350231193e-06 0.0000000000000000e+00  2.7280777734876713e-04 -9.0803688079861475e-06 0.0000000000000000e+00  3.3216214874255863e-04 -1.1247591118208116e-05 0.0000000000000000e+00  4.0206110337515078e-04 -1.3888069566396953e-05 0.0000000000000000e+00  4.8387621767034843e-04 -1.7083212376311299e-05 0.0000000000000000e+00  5.7862179337213619e-04 -2.0877918888074331e-05 0.0000000000000000e+00  6.8651282104761630e-04 -2.5204561433523096e-05 0.0000000000000000e+00  8.0629532279792625e-04 -2.9723749785354162e-05 0.0000000000000000e+00  9.3436635230985149e-04 -3.3520733554035451e-05 0.0000000000000000e+00  0.0000000000000000e+00 0.0000000000000000e+00 0.0000000000000000e+00  2.0870451167394241e-05 -6.5027490384015987e-07 0.0000000000000000e+00  4.2532615680835170e-05 -1.3270068344832651e-06 0.0000000000000000e+00  6.5808057023947404e-05 -2.0580630623497203e-06 0.0000000000000000e+00  9.1576238359052919e-05 -2.8742130009191054e-06 0.0000000000000000e+00  1.2080514812313876e-04 -3.8109668686259570e-06 0.0000000000000000e+00  1.5458345841224848e-04 -4.9109481394145846e-06 0.0000000000000000e+00  1.9415399452036371e-04 -6.2270980695265688e-06 0.0000000000000000e+00  2.4094726583216510e-04 -7.8270992729112295e-06 0.0000000000000000e+00  2.9661191980487214e-04 -9.7994478643759875e-06 0.0000000000000000e+00  3.6303566930415149e-04 -1.2261428171055594e-05 0.0000000000000000e+00  4.4234480287355042e-04 -1.5368404842341226e-05 0.0000000000000000e+00  5.3686232197805819e-04 -1.9321299026669752e-05 0.0000000000000000e+00  6.4899481691131373e-04 -2.4362625090891119e-05 0.0000000000000000e+00  7.8101032616028254e-04 -3.0736750256950342e-05 0.0000000000000000e+00  9.3467155869307345e-04 -3.8559906834203251e-05 0.0000000000000000e+00  1.1107032257144129e-03 -4.7489142495483077e-05 0.0000000000000000e+00  0.0000000000000000e+00 0.0000000000000000e+00 0.0000000000000000e+00  2.1449650849833369e-05 -6.6091375399380842e-07 0.0000000000000000e+00  4.3734244460353346e-05 -1.3486965075805170e-06 0.0000000000000000e+00  6.7722521497058685e-05 -2.0916801397310799e-06 0.0000000000000000e+00  9.4351846027278336e-05 -2.9213188786171698e-06 0.0000000000000000e+00  1.2466624674757496e-04 -3.8742799163334522e-06 0.0000000000000000e+00  1.5985902274563119e-04 -4.9953239296418724e-06 0.0000000000000000e+00  2.0132162933757646e-04 -6.3415401640129263e-06 0.0000000000000000e+00  2.5070061349786435e-04 -7.9888522753713423e-06 0.0000000000000000e+00  3.0996424271153498e-04 -1.0042268020250006e-05 0.0000000000000000e+00  3.8147992773879171e-04 -1.2652150251954789e-05 0.0000000000000000e+00  4.6810219348488114e-04 -1.6039738014838868e-05 0.0000000000000000e+00  5.7326832347164448e-04 -2.0535649087652892e-05 0.0000000000000000e+00  7.0109474027199592e-04 -2.6633190902354614e-05 0.0000000000000000e+00  8.5646331860880114e-04 -3.5048898581725556e-05 0.0000000000000000e+00  1.0450901407795499e-03 -4.6754939380570001e-05 0.0000000000000000e+00  1.2735981611370541e-03 -6.2884311395003576e-05 0.0000000000000000e+00  0.0000000000000000e+00 0.0000000000000000e+00 0.0000000000000000e+00  2.1201396175340613e-05 -6.4493498896098835e-07 0.0000000000000000e+00  4.3248660708713526e-05 -1.3157303977806728e-06 0.0000000000000000e+00  6.7024047367620826e-05 -2.0395778795940609e-06 0.0000000000000000e+00  9.3486643047080474e-05 -2.8465992893669210e-06 0.0000000000000000e+00  1.2371652898061257e-04 -3.7718518097848224e-06 0.0000000000000000e+00  1.5896658188078810e-04 -4.8581848619995602e-06 0.0000000000000000e+00  2.0072572989524736e-04 -6.1606514664840074e-06 0.0000000000000000e+00  2.5079884288006245e-04 -7.7537450359566229e-06 0.0000000000000000e+00  3.1141053343609394e-04 -9.7437990423112155e-06 0.0000000000000000e+00  3.8534327524911339e-04 -1.2290862096260492e-05 0.0000000000000000e+00  4.7612472144003675e-04 -1.5647932097147975e-05 0.0000000000000000e+00  5.8828506796181925e-04 -2.0231590039344098e-05 0.0000000000000000e+00  7.2771254220867958e-04 -2.6747729710682981e-05 0.0000000000000000e+00  9.0214420378453353e-04 -3.6408427498500102e-05 0.0000000000000000e+00  1.1218502919068377e-03 -5.1284674858734344e-05 0.0000000000000000e+00  1.4006579779186114e-03 -7.4831963181574729e-05 0.0000000000000000e+00  0.0000000000000000e+00 0.0000000000000000e+00 0.0000000000000000e+00  2.0116195718996974e-05 -6.0338320638244827e-07 0.0000000000000000e+00  4.1053174352559213e-05 -1.2302929133605888e-06 0.0000000000000000e+00  6.3668768200026175e-05 -1.9052770101809883e-06 0.0000000000000000e+00  8.8901687851129416e-05 -2.6551975723653529e-06 0.0000000000000000e+00  1.1781923412117896e-04 -3.5107677288690594e-06 0.0000000000000000e+00  1.5167507246992672e-04 -4.5087215417840067e-06 0.0000000000000000e+00  1.9198264175144256e-04 -5.6952073002357826e-06 0.0000000000000000e+00  2.4061236806955055e-04 -7.1315747582413914e-06 0.0000000000000000e+00  2.9992520082720283e-04 -8.9049471998072900e-06 0.0000000000000000e+00  3.7296223386673789e-04 -1.1148562189092131e-05 0.0000000000000000e+00  4.6372214681622852e-04 -1.4082416994092957e-05 0.0000000000000000e+00  5.7757746469736524e-04 -1.8096646329666593e-05 0.0000000000000000e+00  7.2190995053034450e-04 -2.3925168508549181e-05 0.0000000000000000e+00  9.0708642935736930e-04 -3.3008030058138385e-05 0.0000000000000000e+00  1.1479532534442605e-03 -4.8235590089950137e-05 0.0000000000000000e+00  1.4661590351737670e-03 -7.5422709518167808e-05 0.0000000000000000e+00  0.0000000000000000e+00 0.0000000000000000e+00 0.0000000000000000e+00  1.8220507875771618e-05 -5.3862181278341839e-07 0.0000000000000000e+00  3.7198984465477155e-05 -1.0973873645302962e-06 0.0000000000000000e+00  5.7728819245884978e-05 -1.6970377770249103e-06 0.0000000000000000e+00  8.0682903284391876e-05 -2.3597168889706429e-06 0.0000000000000000e+00  1.0706132066971654e-04 -3.1097488983500891e-06 0.0000000000000000e+00  1.3805026061268377e-04 -3.9745726193047700e-06 0.0000000000000000e+00  1.7509864035525886e-04 -4.9860305332644444e-06 0.0000000000000000e+00  2.2002228960869477e-04 -6.1824955500778286e-06 0.0000000000000000e+00  2.7515144934348908e-04 -7.6130346859557354e-06 0.0000000000000000e+00  3.4354792444132930e-04 -9.3466239177163331e-06 0.0000000000000000e+00  4.2933766999279395e-04 -1.1494090480016275e-05 0.0000000000000000e+00  5.3824081322245601e-04 -1.4262640995295178e-05 0.0000000000000000e+00  6.7844799160208635e-04 -1.8095170301139007e-05 0.0000000000000000e+00  8.6210826012033358e-04 -2.4032678548560090e-05 0.0000000000000000e+00  1.1078648310482672e-03 -3.4659890737543127e-05 0.0000000000000000e+00  1.4450472311509594e-03 -5.6493603017833187e-05 0.0000000000000000e+00  0.0000000000000000e+00 0.0000000000000000e+00 0.0000000000000000e+00  1.5578247521104574e-05 -4.5405286482087861e-07 0.0000000000000000e+00  3.1814760853111035e-05 -9.2421760923089706e-07 0.0000000000000000e+00  4.9399230708600294e-05 -1.4267745484302595e-06 0.0000000000000000e+00  6.9093505380860828e-05 -1.9784462271431779e-06 0.0000000000000000e+00  9.1775240092818017e-05 -2.5963506578319599e-06 0.0000000000000000e+00  1.1849233966980188e-04 -3.2975388877189301e-06 0.0000000000000000e+00  1.5053445829296227e-04 -4.0977722025741737e-06 0.0000000000000000e+00  1.8953111830412509e-04 -5.0089538391980056e-06 0.0000000000000000e+00  2.3759194311648581e-04 -6.0342559240245967e-06 0.0000000000000000e+00  2.9751570099235589e-04 -7.1594992302835949e-06 0.0000000000000000e+00  3.7311740308604584e-04 -8.3391182215799959e-06 0.0000000000000000e+00  4.6977129254209240e-04 -9.4769838866867636e-06 0.0000000000000000e+00  5.9537838635790414e-04 -1.0415014125032862e-05 0.0000000000000000e+00  7.6222484628664161e-04 -1.1003394033917829e-05 0.0000000000000000e+00  9.9075255683295010e-04 -1.1600295024559449e-05 0.0000000000000000e+00  1.3170587673097841e-03 -1.5492225720135105e-05 0.0000000000000000e+00  0.0000000000000000e+00 0.0000000000000000e+00 0.0000000000000000e+00  1.2289753959037420e-05 -3.5371538490196680e-07 0.0000000000000000e+00  2.5104826381803138e-05 -7.1928013648866017e-07 0.0000000000000000e+00  3.8995845265158399e-05 -1.1083960476302965e-06 0.0000000000000000e+00  5.4572608333370865e-05 -1.5324779442534329e-06 0.0000000000000000e+00  7.2539915564888245e-05 -2.0019992240949835e-06 0.0000000000000000e+00  9.3742293135705987e-05 -2.5250008609642497e-06 0.0000000000000000e+00  1.1922257404534165e-04 -3.1039846206808976e-06 0.0000000000000000e+00  1.5030167007733112e-04 -3.7296952208909589e-06 0.0000000000000000e+00  1.8869096957245220e-04 -4.3688491354158970e-06 0.0000000000000000e+00  2.3665639520324602e-04 -4.9398589580525274e-06 0.0000000000000000e+00  2.9726900518265868e-04 -5.2640947280162330e-06 0.0000000000000000e+00  3.7481579421142516e-04 -4.9654643812793926e-06 0.0000000000000000e+00  4.7555653105233326e-04 -3.2560396697903661e-06 0.0000000000000000e+00  6.0938139734363508e-04 1.5386251328626748e-06 0.0000000000000000e+00  7.9417968343962911e-04 1.3024964097936912e-05 0.0000000000000000e+00  1.0677206528677092e-03 3.8292889596089696e-05 0.0000000000000000e+00  0.0000000000000000e+00 0.0000000000000000e+00 0.0000000000000000e+00  8.4880170912631318e-06 -2.4186630596738280e-07 0.0000000000000000e+00  1.7341463999239020e-05 -4.9141034355945531e-07 0.0000000000000000e+00  2.6943359350109435e-05 -7.5603848692293949e-07 0.0000000000000000e+00  3.7718387988538162e-05 -1.0425696411643592e-06 0.0000000000000000e+00  5.0158020409261747e-05 -1.3563998511396813e-06 0.0000000000000000e+00  6.4851663211627306e-05 -1.6997659257253659e-06 0.0000000000000000e+00  8.2526930376302003e-05 -2.0682430332787798e-06 0.0000000000000000e+00  1.0410317687944927e-04 -2.4437755544033044e-06 0.0000000000000000e+00  1.3076375614137192e-04 -2.7807999838488254e-06 0.0000000000000000e+00  1.6405371257009968e-04 -2.9782709658680952e-06 0.0000000000000000e+00  2.0600972420979657e-04 -2.8219219455615171e-06 0.0000000000000000e+00  2.5932634254748901e-04 -1.8604378434168164e-06 0.0000000000000000e+00  3.2756500572960731e-04 8.7711729166912265e-07 0.0000000000000000e+00  4.1554624386011606e-04 7.5980514629871826e-06 0.0000000000000000e+00  5.3154775036104375e-04 2.3938360733571259e-05 0.0000000000000000e+00  7.0772592453153984e-04 6.8360350793170786e-05 0.0000000000000000e+00  0.0000000000000000e+00 0.0000000000000000e+00 0.0000000000000000e+00  4.3323443754314868e-06 -1.2265909510003789e-07 0.0000000000000000e+00  8.8517379368914775e-06 -2.4905979351759756e-07 0.0000000000000000e+00  1.3754155236887617e-05 -3.8274597634325965e-07 0.0000000000000000e+00  1.9256889901776631e-05 -5.2682508608356099e-07 0.0000000000000000e+00  2.5611307413580800e-05 -6.8340804714120861e-07 0.0000000000000000e+00  3.3118491816081821e-05 -8.5247854086674178e-07 0.0000000000000000e+00  4.2149091675895851e-05 -1.0296425136489431e-06 0.0000000000000000e+00  5.3168806428194421e-05 -1.2016815264195570e-06 0.0000000000000000e+00  6.6770553715441146e-05 -1.3377573031122026e-06 0.0000000000000000e+00  8.3711869010392548e-05 -1.3719019328662231e-06 0.0000000000000000e+00  1.0494603796559078e-04 -1.1678950979103145e-06 0.0000000000000000e+00  1.3159727057925224e-04 -4.4873836671861543e-07 0.0000000000000000e+00  1.6467974376202111e-04 1.3413302614154626e-06 0.0000000000000000e+00  2.0372211422130905e-04 5.2732336207933117e-06 0.0000000000000000e+00  2.4056057360891697e-04 1.3076435954135852e-05 0.0000000000000000e+00  2.3210506753889120e-04 2.5052548715715490e-05 0.0000000000000000e+00  0.0000000000000000e+00 0.0000000000000000e+00 0.0000000000000000e+00  0.0000000000000000e+00 0.0000000000000000e+00 0.0000000000000000e+00  0.0000000000000000e+00 0.0000000000000000e+00 0.0000000000000000e+00  0.0000000000000000e+00 0.0000000000000000e+00 0.0000000000000000e+00  0.0000000000000000e+00 0.0000000000000000e+00 0.0000000000000000e+00  0.0000000000000000e+00 0.0000000000000000e+00 0.0000000000000000e+00  0.0000000000000000e+00 0.0000000000000000e+00 0.0000000000000000e+00  0.0000000000000000e+00 0.0000000000000000e+00 0.0000000000000000e+00  0.0000000000000000e+00 0.0000000000000000e+00 0.000000000000000