<?xml version="1.0"?>
<VTKFile type="UnstructuredGrid"  version="0.1"  >
<UnstructuredGrid>
<Piece  NumberOfPoints="289" NumberOfCells="512">
<Points>
<DataArray  type="Float64"  NumberOfComponents="3"  format="ascii">0 0 0  0.0625 0 0  0.125 0 0  0.1875 0 0  0.25 0 0  0.3125 0 0  0.375 0 0  0.4375 0 0  0.5 0 0  0.5625 0 0  0.625 0 0  0.6875 0 0  0.75 0 0  0.8125 0 0  0.875 0 0  0.9375 0 0  1 0 0  0 0.0625 0  0.06244876254417497 0.06248649317568819 0  0.1248962044178743 0.06247274372459007 0  0.187341010797287 0.06245852957287688 0  0.2497819414990396 0.06244367856641532 0  0.3122178938972551 0.06242810094901345 0  0.3746480005506052 0.06241183005966632 0  0.4370717771639022 0.06239507175697578 0  0.4994893394506607 0.06237825979045293 0  0.5619017096948922 0.0623621084897347 0  0.6243112314726593 0.0623476450120625 0  0.6867220887419396 0.0623361920866123 0  0.7491408162296954 0.06232926741608133 0  0.8115761784915829 0.06232840514712491 0  0.8740353543617075 0.06233514282148791 0  0.9365012350966789 0.06235258564478825 0  0.9988129199479832 0.0623969754688759 0  0 0.125 0  0.06239889163551592 0.1249732250991328 0  0.1247951202158729 0.1249459407849022 0  0.187186030743432 0.124917675817826 0  0.2495691040649375 0.1248880527811873 0  0.3119420765138151 0.1248568509734596 0  0.3743031305426986 0.1248240875283767 0  0.4366511902730608 0.1247901195019658 0  0.4989863651234383 0.1247557640501868 0  0.5613105969843755 0.1247224228771994 0  0.6236285826051103 0.1246921778686118 0  0.6859490629716782 0.1246677943286746 0  0.7482865890102846 0.1246525263433173 0  0.8106638658027615 0.124649573536657 0  0.8731148224364157 0.1246610022990189 0  0.9356904629395211 0.1246857616392476 0  0.9984921001305083 0.124713783820129 0  0 0.1875 0  0.06235176763633674 0.1874604655685019 0  0.1246994808648078 0.1874201104463606 0  0.1870390842490344 0.1873781636103453 0  0.2493666834906909 0.1873339789093436 0  0.3116787010765137 0.1872871232013905 0  0.3739721361246158 0.1872374954660372 0  0.4362449801192934 0.1871854850483289 0  0.4984968554225661 0.1871321715930745 0  0.5607299630426389 0.1870795562367822 0  0.6229504501148203 0.1870307870121478 0  0.6851703344843273 0.1869902908257965 0  0.7474101479825797 0.1869636309805729 0  0.8097024755130842 0.1869567298012044 0  0.8720966579071934 0.1869737012477058 0  0.9346658257935291 0.1870115154370082 0  0.9975221125048975 0.1870471309149815 0  0 0.25 0  0.06230881797900201 0.2499485285077233 0  0.1246121316824656 0.2498958668364185 0  0.186904408522675 0.2498408763137288 0  0.2491802462702555 0.249782553411373 0  0.3114345303905009 0.2497201332307682 0  0.3736627210614565 0.2496532388719561 0  0.4358613366868484 0.2495820941254388 0  0.4980287208682718 0.2495078151770694 0  0.5601662026949489 0.2494327882773618 0  0.6222797800216312 0.2493611164615718 0  0.6843824583189982 0.2492990648020946 0  0.7464973354027767 0.2492553255052132 0  0.8086613905478416 0.2492407234544414 0  0.8709296939999653 0.2492666516568086 0  0.9333795458453876 0.2493411444316598 0  0.9961140546185713 0.2494618503064916 0  0 0.3125 0  0.06227151794429357 0.3124377852878893 0  0.1245360408486959 0.312373949382992 0  0.1867864948716528 0.3123069112557875 0  0.2490158348062163 0.3122352061025552 0  0.3112171579483609 0.3121575879167841 0  0.3733839612714511 0.3120731922447649 0  0.4355106207800349 0.3119817887943621 0  0.4975931986649459 0.3118841601473333 0  0.5596307132376847 0.3117826466110586 0  0.6216270280139506 0.3116818904815412 0  0.6835935065833751 0.3115897793940631 0  0.7455524985333861 0.3115184975217324 0  0.8075415211662699 0.3114853972293388 0  0.8696176918463477 0.3115130530929196 0  0.9318617842620783 0.3116273805410851 0  0.9943818699838658 0.3118523344173815 0  0 0.375 0  0.0622413650724009 0.3749286676170344 0  0.1244742549602697 0.374855232389795 0  0.1866900399591664 0.3747776043793413 0  0.2488799396406658 0.3746937546224032 0  0.3110350412781844 0.3746017935221443 0  0.3731464589305952 0.374500118084316 0  0.4352057204313742 0.3743876697673439 0  0.4972055075535885 0.3742643632064147 0  0.5591409216149498 0.3741317704208317 0  0.6210114928383091 0.3739941716614992 0  0.6828241714301138 0.3738600993448419 0  0.7445974835892003 0.3737444700087927 0  0.8063668455571014 0.3736712441027503 0  0.8681906947617453 0.3736761422261233 0  0.9301568308878836 0.3738081279582297 0  0.9923887808979377 0.3741271393375941 0  0 0.4375 0  0.06221982262736103 0.4374216562879058 0  0.1244297884907802 0.437340705482346 0  0.1866197874044807 0.4372545094800468 0  0.2487793058634519 0.4371603965323622 0  0.3108972966323819 0.4370556867339426 0  0.3729621644789503 0.4369377829719405 0  0.4349619568063454 0.4368043758850369 0  0.4968849022420489 0.4366538422605654 0  0.5587205197313754 0.4364859655023945 0  0.6204616255586278 0.4363031806135952 0  0.6821076797964551 0.4361126450351934 0  0.7436699843805192 0.4359295366223824 0  0.8051791614132175 0.4357819873160594 0  0.8666949497916631 0.4357177322749371 0  0.9283176400141183 0.4358114410408826 0  0.9902000666679406 0.4361693935631353 0  0 0.5 0  0.06220823136454601 0.4999172529525143 0  0.1244054442200499 0.4998314179980003 0  0.1865802517324944 0.4997393181844932 0  0.248720556355679 0.4996376132610879 0  0.3108132234467685 0.4995227427269872 0  0.3728438184458505 0.4993909132020088 0  0.4347964840504474 0.4992381738680784 0  0.4966541045952314 0.499060661866537 0  0.5583990268757109 0.498855168699915 0  0.6200148052950352 0.4986203012596285 0  0.6814897338101547 0.4983587193035066 0  0.7428232918764835 0.4980812546342907 0  0.8040369019066712 0.4978141217410872 0  0.8651901209278835 0.4976106275194607 0  0.9264018421398736 0.4975678438648022 0  0.9878733893046573 0.497844783950145 0  0 0.5625 0  0.06220769361895921 0.5624159342084953 0  0.1244035714276407 0.5623283845185812 0  0.1865753314873193 0.5622337125277238 0  0.2487096337202943 0.5621279660836344 0  0.3107915476367576 0.5620067172977095 0  0.3728039792626783 0.5618649040416778 0  0.434727118043473 0.5616966974402612 0  0.4965380205818063 0.5614954511357777 0  0.558210604167059 0.5612538576486861 0  0.6197166281667469 0.5609645816737463 0  0.681028799273821 0.5606219369605236 0  0.7421280517588732 0.5602257646055372 0  0.8030182599459939 0.5597897607965433 0  0.8637523940698191 0.5593581463021137 0  0.9244720760092132 0.5590356847949918 0  0.9854534731026088 0.5590322052982446 0  0 0.625 0  0.0622189392899378 0.6249180907223076 0  0.1244257803732344 0.6248324560545755 0  0.1866078370500014 0.6247391539374247 0  0.2487510884465549 0.6246337816636871 0  0.31083940213922 0.6245112026091766 0  0.3728536246751027 0.6243652208076722 0  0.4347705142087553 0.6241881884854431 0  0.4965615440040818 0.6239705432790128 0  0.5581917522803651 0.6237003079649559 0  0.6196191733446557 0.6233626863125321 0  0.6807961991640201 0.6229401583460992 0  0.741675915266834 0.6224141839421051 0  0.802229560423405 0.6217714108725819 0  0.8624856135407686 0.6210214426510653 0  0.9226028448032788 0.6202406841358639 0  0.9829776936157683 0.6196598858282232 0  0 0.6875 0  0.06224218922340518 0.6874239584393179 0  0.124472644794652 0.6873441711078427 0  0.1866789816637552 0.6872566298406517 0  0.2488472764374709 0.6871567535628965 0  0.3109611122526589 0.6870390216977794 0  0.373000370146573 0.6868964978836299 0  0.4349396493094532 0.6867201841878862 0  0.4967461909221939 0.6864981226864826 0  0.5583772336380346 0.6862141303648717 0  0.6197769811630622 0.6858460252172074 0  0.6808741779865588 0.6853632321662247 0  0.7415835603465821 0.68472398477463 0  0.8018201137984367 0.6838738844254951 0  0.8615472035672249 0.6827536625217993 0  0.920897087807236 0.6813445840252408 0  0.9803931039425888 0.6798164293543574 0  0 0.75 0  0.0622770368551329 0.749933553090446 0  0.1245434371005134 0.7498636106979766 0  0.1867879094438434 0.749786398236962 0  0.2489975745018063 0.7496975212717396 0  0.311156929828949 0.7495915499204853 0  0.373246465292436 0.7494614521458269 0  0.4352407164769711 0.7492977799062424 0  0.4971054428585387 0.7490874556963703 0  0.558793484515314 0.7488119048688482 0  0.6202387478671668 0.7484440874426341 0  0.6813479843988216 0.7479436139362087 0  0.7419916188169846 0.7472484463220692 0  0.8020013937078391 0.746260751494033 0  0.8612047326471024 0.7448256776907494 0  0.9195885784465528 0.7427252748931649 0  0.9777333913504367 0.7399200056235443 0  0 0.8125 0  0.06232237218116368 0.8124466217090111 0  0.124635950001936 0.8123902879415125 0  0.1869313555117765 0.8123277847908544 0  0.2491977690655492 0.8122553180437649 0  0.3114219564422867 0.812168112698728 0  0.3735869153040612 0.8120598518733778 0  0.4356698739231746 0.8119218479356138 0  0.4976391912981759 0.8117417708783206 0  0.5594493702419945 0.8115016321361942 0  0.6210327838446749 0.8111744656351216 0  0.6822856782219628 0.8107185664553364 0  0.7430446535095639 0.8100666515111512 0  0.803050269094167 0.8091030458314955 0  0.8619101997217569 0.8076091307247212 0  0.9191823438507019 0.8051168240640898 0  0.9754379763317487 0.800460786785511 0  0 0.875 0  0.06237637107953998 0.8749626242882698 0  0.124746458171082 0.874923102314037 0  0.1871035396359059 0.8748790886308393 0  0.2494397997585139 0.8748277874675588 0  0.3117455744910437 0.8747656367668699 0  0.3740082769081255 0.8746878595869956 0  0.4362107596581654 0.8745877949123693 0  0.498328675649488 0.8744558690982182 0  0.5603259929876804 0.8742779864934485 0  0.6221469414622186 0.8740329844573171 0  0.6837006582455335 0.8736885655823142 0  0.7448299537257579 0.8731945645370095 0  0.8052433758216018 0.8724702836300284 0  0.8643582002711178 0.8713723117802441 0  0.9209267898318173 0.8695780224280502 0  0.9722204111654843 0.8660578103225175 0  0 0.9375 0  0.06243656591480411 0.9374807543777695 0  0.1248698588826345 0.9374603793872019 0  0.1872963728371762 0.9374376372715546 0  0.249712015054264 0.9374110443264678 0  0.3121116985349191 0.9373786969150489 0  0.3744887564436755 0.9373380231720543 0  0.436834040773401
[...]
<PointData  Vectors="f_54"> 
<DataArray  type="Float64"  Name="f_54"  NumberOfComponents="3" format="ascii">0.0000000000000000e+00 0.0000000000000000e+00 0.0000000000000000e+00  0.0000000000000000e+00 0.0000000000000000e+00 0.0000000000000000e+00  0.0000000000000000e+00 0.0000000000000000e+00 0.0000000000000000e+00  0.0000000000000000e+00 0.0000000000000000e+00 0.0000000000000000e+00  0.0000000000000000e+00 0.0000000000000000e+00 0.0000000000000000e+00  0.0000000000000000e+00 0.0000000000000000e+00 0.0000000000000000e+00  0.0000000000000000e+00 0.0000000000000000e+00 0.0000000000000000e+00  0.0000000000000000e+00 0.0000000000000000e+00 0.0000000000000000e+00  0.0000000000000000e+00 0.0000000000000000e+00 0.0000000000000000e+00  0.0000000000000000e+00 0.0000000000000000e+00 0.0000000000000000e+00  0.0000000000000000e+00 0.0000000000000000e+00 0.0000000000000000e+00  0.0000000000000000e+00 0.0000000000000000e+00 0.0000000000000000e+00  0.0000000000000000e+00 0.0000000000000000e+00 0.0000000000000000e+00  0.0000000000000000e+00 0.0000000000000000e+00 0.0000000000000000e+00  0.0000000000000000e+00 0.0000000000000000e+00 0.0000000000000000e+00  0.0000000000000000e+00 0.0000000000000000e+00 0.0000000000000000e+00  0.0000000000000000e+00 0.0000000000000000e+00 0.0000000000000000e+00  0.0000000000000000e+00 0.0000000000000000e+00 0.0000000000000000e+00  2.3175230931447521e-06 5.7813251770454757e-08 0.0000000000000000e+00  4.6734370456862386e-06 1.1719156646894851e-07 0.0000000000000000e+00  7.1023285249692372e-06 1.7963989474390968e-07 0.0000000000000000e+00  9.6286168290865672e-06 2.4646828972587076e-07 0.0000000000000000e+00  1.2259576753830430e-05 3.1861440466692103e-07 0.0000000000000000e+00  1.4975903703478972e-05 3.9635759282226908e-07 0.0000000000000000e+00  1.7718720591254579e-05 4.7887147492408759e-07 0.0000000000000000e+00  2.0371507266750237e-05 5.6354989619692249e-07 0.0000000000000000e+00  2.2734407596328525e-05 6.4502694782756791e-07 0.0000000000000000e+00  2.4485602845120872e-05 7.1378270950341784e-07 0.0000000000000000e+00  2.5116564413578325e-05 7.5412584984088314e-07 0.0000000000000000e+00  2.3804584539154759e-05 7.4096365083659066e-07 0.0000000000000000e+00  1.9112631312607937e-05 6.3338525230268618e-07 0.0000000000000000e+00  8.1616143148263678e-06 3.5816682611304969e-07 0.0000000000000000e+00  -1.5951669460252530e-05 -2.4115048613062887e-07 0.0000000000000000e+00  -7.2897470299509125e-05 -1.5748180078161515e-06 0.0000000000000000e+00  0.0000000000000000e+00 0.0000000000000000e+00 0.0000000000000000e+00  4.5918397573456419e-06 1.1394062029945962e-07 0.0000000000000000e+00  9.2649024803514836e-06 2.3108411125962969e-07 0.0000000000000000e+00  1.4093504613838171e-05 3.5454143101209002e-07 0.0000000000000000e+00  1.9133245362898945e-05 4.8709998615485659e-07 0.0000000000000000e+00  2.4408035383298251e-05 6.3091306594688514e-07 0.0000000000000000e+00  2.9892468113674943e-05 7.8698521680797456e-07 0.0000000000000000e+00  3.5487581067868756e-05 9.5435017279234872e-07 0.0000000000000000e+00  4.0987595785500849e-05 1.1288150339868420e-06 0.0000000000000000e+00  4.6034277987799961e-05 1.3011274424299803e-06 0.0000000000000000e+00  5.0053303434079271e-05 1.4544174941013188e-06 0.0000000000000000e+00  5.2161423956705128e-05 1.5607633137429607e-06 0.0000000000000000e+00  5.1019923420478585e-05 1.5766660009920714e-06 0.0000000000000000e+00  4.4581934531225841e-05 1.4369141586450766e-06 0.0000000000000000e+00  2.9642471175783426e-05 1.0454413301215628e-06 0.0000000000000000e+00  1.1686359731894301e-06 2.6034169617521419e-07 0.0000000000000000e+00  -4.7588508300623962e-05 -1.1284043218100794e-06 0.0000000000000000e+00  0.0000000000000000e+00 0.0000000000000000e+00 0.0000000000000000e+00  6.7792752878995264e-06 1.6672322723530647e-07 0.0000000000000000e+00  1.3690984228226986e-05 3.3841171657136046e-07 0.0000000000000000e+00  2.0858856027550164e-05 5.1995872344571136e-07 0.0000000000000000e+00  2.8382363485909337e-05 7.1592743209144608e-07 0.0000000000000000e+00  3.6319509894265579e-05 9.3018997322358996e-07 0.0000000000000000e+00  4.4663077635833339e-05 1.1652904544172033e-06 0.0000000000000000e+00  5.3307744531602409e-05 1.4213807713357593e-06 0.0000000000000000e+00  6.2005251610047183e-05 1.6945370621567812e-06 0.0000000000000000e+00  7.0304691271678106e-05 1.9742377884915861e-06 0.0000000000000000e+00  7.7475085289696569e-05 2.2398079278694901e-06 0.0000000000000000e+00  8.2408047389839300e-05 2.4557765022347539e-06 0.0000000000000000e+00  8.3500986421491740e-05 2.5664949296342782e-06 0.0000000000000000e+00  7.8532886822719371e-05 2.4913863483938064e-06 0.0000000000000000e+00  6.4591830682502146e-05 2.1251638962389509e-06 0.0000000000000000e+00  3.8281075220667302e-05 1.3578413448215438e-06 0.0000000000000000e+00  -3.0956209067324962e-06 1.7188016851199084e-07 0.0000000000000000e+00  0.0000000000000000e+00 0.0000000000000000e+00 0.0000000000000000e+00  8.8279108258388121e-06 2.1438160769254554e-07 0.0000000000000000e+00  1.7850310025004380e-05 4.3561015906566312e-07 0.0000000000000000e+00  2.7252987509284017e-05 6.7054677283208199e-07 0.0000000000000000e+00  3.7196138175302154e-05 9.2587646424705448e-07 0.0000000000000000e+00  4.7795299940300013e-05 1.2078107355007800e-06 0.0000000000000000e+00  5.9094163439622215e-05 1.5214809286595202e-06 0.0000000000000000e+00  7.1026006904253381e-05 1.8698280542507103e-06 0.0000000000000000e+00  8.3360416069039846e-05 2.2517185974428131e-06 0.0000000000000000e+00  9.5632483673653641e-05 2.6589418694934198e-06 0.0000000000000000e+00  1.0705364574054858e-04 3.0717236082406847e-06 0.0000000000000000e+00  1.1640826579645475e-04 3.4525299035960720e-06 0.0000000000000000e+00  1.2195124489610245e-04 3.7384186674064582e-06 0.0000000000000000e+00  1.2134617244614307e-04 3.8332431076855611e-06 0.0000000000000000e+00  1.1173456789772467e-04 3.6025424893389945e-06 0.0000000000000000e+00  9.0124022740392461e-05 2.8737555800805564e-06 0.0000000000000000e+00  5.4411440082652914e-05 1.4281661848570323e-06 0.0000000000000000e+00  0.0000000000000000e+00 0.0000000000000000e+00 0.0000000000000000e+00  1.0675159190118397e-05 2.5502283263573022e-07 0.0000000000000000e+00  2.1618115850458758e-05 5.1881424123236475e-07 0.0000000000000000e+00  3.3090151728317895e-05 8.0031068687126201e-07 0.0000000000000000e+00  4.5330768071327529e-05 1.1085979105996863e-06 0.0000000000000000e+00  5.8539739991037572e-05 1.4528104947102776e-06 0.0000000000000000e+00  7.2849787768287445e-05 1.8417490324045377e-06 0.0000000000000000e+00  8.8285771258623087e-05 2.2829951680961385e-06 0.0000000000000000e+00  1.0470590848301871e-04 2.7811750359768529e-06 0.0000000000000000e+00  1.2172084502035255e-04 3.3348503151436410e-06 0.0000000000000000e+00  1.3858852798045646e-04 3.9313424667778478e-06 0.0000000000000000e+00  1.5408868017953328e-04 4.5387423971685678e-06 0.0000000000000000e+00  1.6639335454669664e-04 5.0946922939145648e-06 0.0000000000000000e+00  1.7297397824688165e-04 5.4926750009969899e-06 0.0000000000000000e+00  1.7062454981247845e-04 5.5688746365908326e-06 0.0000000000000000e+00  1.5573167927107059e-04 5.0957790556119512e-06 0.0000000000000000e+00  1.2495244567687876e-04 3.7912151390757817e-06 0.0000000000000000e+00  0.0000000000000000e+00 0.0000000000000000e+00 0.0000000000000000e+00  1.2247397850192174e-05 2.8672160618273345e-07 0.0000000000000000e+00  2.4845053532943917e-05 5.8401683593773601e-07 0.0000000000000000e+00  3.8141278581370089e-05 9.0283184162722753e-07 0.0000000000000000e+00  5.2472207952832222e-05 1.2547307040360425e-06 0.0000000000000000e+00  6.8148472098349927e-05 1.6521230813175124e-06 0.0000000000000000e+00  8.5431830865576592e-05 2.1083210840725971e-06 0.0000000000000000e+00  1.0449666847814954e-04 2.6372247501545023e-06 0.0000000000000000e+00  1.2536996838122261e-04 3.2522506063827297e-06 0.0000000000000000e+00  1.4784240677663310e-04 3.9638119926936873e-06 0.0000000000000000e+00  1.7134352613595448e-04 4.7742139563788052e-06 0.0000000000000000e+00  1.9477748641358257e-04 5.6683148238402877e-06 0.0000000000000000e+00  2.1632577778867701e-04 6.5980626661708866e-06 0.0000000000000000e+00  2.3324354261647300e-04 7.4598759004975554e-06 0.0000000000000000e+00  2.4170921879323464e-04 8.0672914182709343e-06 0.0000000000000000e+00  2.3682692625799442e-04 8.1288910540551505e-06 0.0000000000000000e+00  2.1290275710462056e-04 7.2527969402189408e-06 0.0000000000000000e+00  0.0000000000000000e+00 0.0000000000000000e+00 0.0000000000000000e+00  1.3462115875030265e-05 3.0767827685642332e-07 0.0000000000000000e+00  2.7361201309663578e-05 6.2740057100661001e-07 0.0000000000000000e+00  4.2139211642131159e-05 9.7180160331478513e-07 0.0000000000000000e+00  5.8241454112700866e-05 1.3546684206227879e-06 0.0000000000000000e+00  7.6111796049284247e-05 1.7915889360438145e-06 0.0000000000000000e+00  9.6178305600537036e-05 2.3006412875867588e-06 0.0000000000000000e+00  1.1882338515178060e-04 2.9030238563633396e-06 0.0000000000000000e+00  1.4432985224684119e-04 3.6233250231024651e-06 0.0000000000000000e+00  1.7279115114607875e-04 4.4887137119707364e-06 0.0000000000000000e+00  2.0397052198781356e-04 5.5255473699055173e-06 0.0000000000000000e+00  2.3709214584238068e-04 6.7506136515917786e-06 0.0000000000000000e+00  2.7055054740966663e-04 8.1525894943048640e-06 0.0000000000000000e+00  3.0153893862305109e-04 9.6583820847148140e-06 0.0000000000000000e+00  3.2562969762484940e-04 1.1081881107367590e-05 0.0000000000000000e+00  3.3638947933282011e-04 1.2064655664106782e-05 0.0000000000000000e+00  3.2514713324278835e-04 1.2041754204966940e-05 0.0000000000000000e+00  0.0000000000000000e+00 0.0000000000000000e+00 0.0000000000000000e+00  1.4232846626743550e-05 3.1643756289651152e-07 0.0000000000000000e+00  2.8985914594620075e-05 6.4581332588469095e-07 0.0000000000000000e+00  4.4793338906642993e-05 1.0018315076741088e-06 0.0000000000000000e+00  6.2213394619054998e-05 1.3998206150980922e-06 0.0000000000000000e+00  8.1836224815366268e-05 1.8578075439866396e-06 0.0000000000000000e+00  1.0428428411356618e-04 2.3979267870908915e-06 0.0000000000000000e+00  1.3019948244539053e-04 3.0482748031716109e-06 0.0000000000000000e+00  1.6020699958423117e-04 3.8452061183981322e-06 0.0000000000000000e+00  1.9483964368695875e-04 4.8356880610807586e-06 0.0000000000000000e+00  2.3439809398922873e-04 6.0783490839917199e-06 0.0000000000000000e+00  2.7871199956702719e-04 7.6397024584894674e-06 0.0000000000000000e+00  3.2675797438141524e-04 9.5780420690131024e-06 0.0000000000000000e+00  3.7609204225778426e-04 1.1901875896706427e-05 0.0000000000000000e+00  4.2208356774770060e-04 1.4486471214408210e-05 0.0000000000000000e+00  4.5701261276644058e-04 1.6944307843042991e-05 0.0000000000000000e+00  4.6917566477302922e-04 1.8494225763741506e-05 0.0000000000000000e+00  0.0000000000000000e+00 0.0000000000000000e+00 0.0000000000000000e+00  1.4476880282155561e-05 3.1212919792836339e-07 0.0000000000000000e+00  2.9543641640396541e-05 6.3730859970548875e-07 0.0000000000000000e+00  4.5814172945509373e-05 9.8942217801783278e-07 0.0000000000000000e+00  6.3950742439475468e-05 1.3842277087115112e-06 0.0000000000000000e+00  8.4687591904352013e-05 1.8407217988443839e-06 0.0000000000000000e+00  1.0885193499195963e-04 2.3831403254607683e-06 0.0000000000000000e+00  1.3737777439018975e-04 3.0440072239290719e-06 0.0000000000000000e+00  1.7130308020171827e-04 3.8687802694419145e-06 0.0000000000000000e+00  2.1173234756093688e-04 4.9226315894113525e-06 0.0000000000000000e+00  2.5973242102245571e-04 6.2992910164489584e-06 0.0000000000000000e+00  3.1610781209627861e-04 8.1295568309467028e-06 0.0000000000000000e+00  3.8097279393107440e-04 1.0580750018520359e-05 0.0000000000000000e+00  4.5300981998844199e-04 1.3824619241425512e-05 0.0000000000000000e+00  5.2830747442418168e-04 1.7929177599579263e-05 0.0000000000000000e+00  5.9877471447685317e-04 2.2617870568361192e-05 0.0000000000000000e+00  6.5040465598896675e-04 2.6909304805071980e-05 0.0000000000000000e+00  0.0000000000000000e+00 0.0000000000000000e+00 0.0000000000000000e+00  1.4125341611078441e-05 2.9467078402741201e-07 0.0000000000000000e+00  2.8885019129150404e-05 6.0162065165446481e-07 0.0000000000000000e+00  4.4947271635414169e-05 9.3387166648265482e-07 0.0000000000000000e+00  6.3053217426234631e-05 1.3062035561812145e-06 0.0000000000000000e+00  8.4057954184300242e-05 1.7365131064834408e-06 0.0000000000000000e+00  1.0897627101755658e-04 2.2479679801081053e-06 0.0000000000000000e+00  1.3903194983359667e-04 2.8726533729789188e-06 0.0000000000000000e+00  1.7570530734277193e-04 3.6579366318383586e-06 0.0000000000000000e+00  2.2076461001918363e-04 4.6775654577830653e-06 0.0000000000000000e+00  2.7624926949632695e-04 6.0503616138424582e-06 0.0000000000000000e+00  3.4434003026980175e-04 7.9691412849845131e-06 0.0000000000000000e+00  4.2699585271715399e-04 1.0737382967345235e-05 0.0000000000000000e+00  5.2515522875526291e-04 1.4791098899672192e-05 0.0000000000000000e+00  6.3721460453602669e-04 2.0628236109429950e-05 0.0000000000000000e+00  7.5652429332616182e-04 2.8463381772003352e-05 0.0000000000000000e+00  8.6800609881995802e-04 3.7354703429044324e-05 0.0000000000000000e+00  0.0000000000000000e+00 0.0000000000000000e+00 0.0000000000000000e+00  1.3134675682241215e-05 2.6486335445974449e-07 0.0000000000000000e+00  2.6911414636407190e-05 5.4041265066326627e-07 0.0000000000000000e+00  4.2014034117834549e-05 8.3782042786863539e-07 0.0000000000000000e+00  5.9219493927180328e-05 1.1694847094301687e-06 0.0000000000000000e+00  7.9455161660962859e-05 1.5499741566458396e-06 0.0000000000000000e+00  1.0386960657168357e-04 1.9976058423273189e-06 0.0000000000000000e+00  1.3392167708544523e-04 2.5374005936187254e-06 0.0000000000000000e+00  1.7149104701377570e-04 3.2070164610378995e-06 0.0000000000000000e+00  2.1900774986479719e-04 4.0690208037430636e-06 0.0000000000000000e+00  2.7958292252411331e-04 5.2362140087918699e-06 0.0000000000000000e+00  3.5708688553381821e-04 6.9222019852334654e-06 0.0000000000000000e+00  4.5604316574398239e-04 9.5352125044423869e-06 0.0000000000000000e+00  5.8105558202657572e-04 1.3826712916005201e-05 0.0000000000000000e+00  7.3523088892550647e-04 2.1038509427079846e-05 0.0000000000000000e+00  9.1681066165655008e-04 3.2728451766297178e-05 0.0000000000000000e+00  1.1139838721387350e-03 4.9681792143330830e-05 0.0000000000000000e+00  0.0000000000000000e+00 0.0000000000000000e+00 0.0000000000000000e+00  1.1497972275227114e-05 2.2432352289740042e-07 0.0000000000000000e+00  2.3599704103965659e-05 4.5715396219158759e-07 0.0000000000000000e+00  3.6954447525131386e-05 7.0712492462339091e-07 0.0000000000000000e+00  5.2315419984412614e-05 9.8326527781491082e-07 0.0000000000000000e+00  7.0607837137740771e-05 1.2951658512353111e-06 0.0000000000000000e+00  9.3019056449816323e-05 1.6532023427620873e-06 0.0000000000000000e+00  1.2112257184993262e-04 2.0691217424259340e-06 0.0000000000000000e+00  1.5705113286851972e-04 2.5580040785974819e-06 0.0000000000000000e+00  2.0373707133437255e-04 3.1445742670775186e-06 0.0000000000000000e+00  2.6523543994382736e-04 3.8819928600455231e-06 0.0000000000000000e+00  3.4712512649653037e-04 4.9039192233278413e-06 0.0000000000000000e+00  4.5691274283248727e-04 6.5588982832369852e-06 0.0000000000000000e+00  6.0416969411684624e-04 9.7282425894493142e-06 0.0000000000000000e+00  7.9965760918156387e-04 1.6473063986222058e-05 0.0000000000000000e+00  1.0516679560284229e-03 3.0819347627768833e-05 0.0000000000000000e+00  1.3569546810409425e-03 5.5130088992279626e-05 0.0000000000000000e+00  0.0000000000000000e+00 0.0000000000000000e+00 0.0000000000000000e+00  9.2540311855304084e-06 1.7524110393789285e-07 0.0000000000000000e+00  1.9022777109563028e-05 3.5657741335535093e-07 0.0000000000000000e+00  2.9864272107964339e-05 5.4989649450421331e-07 0.0000000000000000e+00  4.2437207352445558e-05 7.6065633903140183e-07 0.0000000000000000e+00  5.7570033787736870e-05 9.9319079924536665e-07 0.0000000000000000e+00  7.6357301613942739e-05 1.2492441522595177e-06 0.0000000000000000e+00  1.0030071305921696e-04 1.5251082051035418e-06 0.0000000000000000e+00  1.3152189455120988e-04 1.8064448948714550e-06 0.0000000000000000e+00  1.7308874278528381e-04 2.0599561128014509e-06 0.0000000000000000e+00  2.2951831692214340e-04 2.2232869127302414e-06 0.0000000000000000e+00  3.0754282907427668e-04 2.2053762312755758e-06 0.0000000000000000e+00  4.1722823849024633e-04 1.9503528771038886e-06 0.0000000000000000e+00  5.7342892776475213e-04 1.7563782074152906e-06 0.0000000000000000e+00  7.9706084630153605e-04 3.4897215548323313e-06 0.0000000000000000e+00  1.1139125264842478e-03 1.4944288065799651e-05 0.0000000000000000e+00  1.5420210571306780e-03 6.8901880870239784e-05 0.0000000000000000e+00  0.0000000000000000e+00 0.0000000000000000e+00 0.0000000000000000e+00  6.4918541982094422e-06 1.2002241528229868e-07 0.0000000000000000e+00  1.3360570676475433e-05 2.4383780389009067e-07 0.0000000000000000e+00  2.1017357782302654e-05 3.7487017805392548e-07 0.0000000000000000e+00  2.9954128535144393e-05 5.1567816506940618e-07 0.0000000000000000e+00  4.0800941995204180e-05 6.6677831038503249e-07 0.0000000000000000e+00  5.4409136236616966e-05 8.2411941435211063e-07 0.0000000000000000e+00  7.1978669969995586e-05 9.7368420733068577e-07 0.0000000000000000e+00  9.5261055090589867e-05 1.0799588652159394e-06 0.0000000000000000e+00  1.2689271988210513e-04 1.0612475791495299e-06 0.0000000000000000e+00  1.7095650050130248e-04 7.3685306970433458e-07 0.0000000000000000e+00  2.3394721753567147e-04 -2.8457549959058975e-07 0.0000000000000000e+00  3.2645860733262442e-04 -2.8322396071966094e-06 0.0000000000000000e+00  4.6615072698419650e-04 -8.5946180021239537e-06 0.0000000000000000e+00  6.8285360687034627e-04 -2.0743029238858084e-05 0.0000000000000000e+00  1.0260523071400057e-03 -4.4301536576867345e-05 0.0000000000000000e+00  1.5679943806992205e-03 -8.3756181904193642e-05 0.0000000000000000e+00  0.0000000000000000e+00 0.0000000000000000e+00 0.0000000000000000e+00  3.3485901736051464e-06 6.0948843158348030e-08 0.0000000000000000e+00  6.8969577875314815e-06 1.2367946705439397e-07 0.0000000000000000e+00  1.0864039573686684e-05 1.8969482745825236e-07 0.0000000000000000e+00  1.5514092350643050e-05 2.5982025199236709e-07 0.0000000000000000e+00  2.1189742393386800e-05 3.3329096314850509e-07 0.0000000000000000e+00  2.8361017418434484e-05 4.0573709498799434e-07 0.0000000000000000e+00  3.7702706910322236e-05 4.6464375206530101e-07 0.0000000000000000e+00  5.0222010954075810e-05 4.7886084541793731e-07 0.0000000000000000e+00  6.7476822432164352e-05 3.7353629158653018e-07 0.0000000000000000e+00  9.1959558240976413e-05 -3.2198956753230747e-08 0.0000000000000000e+00  1.2778171425831928e-04 -1.1866167294827353e-06 0.0000000000000000e+00  1.8187174404216342e-04 -4.2381457612250359e-06 0.0000000000000000e+00  2.6584595396123679e-04 -1.2213042830501091e-05 0.0000000000000000e+00  3.9767760959298924e-04 -3.3104012517052214e-05 0.0000000000000000e+00  5.9676013306396002e-04 -8.6545107948345377e-05 0.0000000000000000e+00  8.4910247629942624e-04 -2.0763496012776546e-04 0.0000000000000000e+00  0.0000000000000000e+00 0.0000000000000000e+00 0.0000000000000000e+00  0.0000000000000000e+00 0.0000000000000000e+00 0.0000000000000000e+00  0.0000000000000000e+00 0.0000000000000000e+00 0.0000000000000000e+00  0.0000000000000000e+00 0.0000000000000000e+00 0.0000000000000000e+00  0.0000000000000000e+00 0.0000000000000000e+00 0.0000000000000000e+00  0.0000000000000000e+00 0.0000000000000000e+00 0.0000000000000000e+00  0.0000000000000000e+00 0.0000000000000000e+00 0.0000000000000000e+00  0.0000000000000000e+00 0.0000000000000000e+00 0.0000000000000000e+00  0.0000000000000000e+00 0.0000000000000000e+00 0.0000000000000000e+00  0.0000000000000000e+00 0.0000000000000000e+00 0.0000000000000000e+00  0.0000000000000000e+00 0.0000000000000000e+00 0.0000000000000000e+00  0.0000000000000000e+00 0.0000000000000000e+00 0.00000000000000