<?xml version="1.0"?>
<VTKFile type="UnstructuredGrid"  version="0.1"  >
<UnstructuredGrid>
<Piece  NumberOfPoints="289" NumberOfCells="512">
<Points>
<DataArray  type="Float64"  NumberOfComponents="3"  format="ascii">0 0 0  0.0625 0 0  0.125 0 0  0.1875 0 0  0.25 0 0  0.3125 0 0  0.375 0 0  0.4375 0 0  0.5 0 0  0.5625 0 0  0.625 0 0  0.6875 0 0  0.75 0 0  0.8125 0 0  0.875 0 0  0.9375 0 0  1 0 0  0 0.0625 0  0.06256492243981193 0.06249885127560452 0  0.1251317756813514 0.06249766808970646 0  0.1877024951508189 0.06249641614189198 0  0.2502790162234589 0.06249506176260782 0  0.3128632590170624 0.06249357283955995 0  0.3754570958547327 0.06249192056157046 0  0.4380622992534423 0.06249008236749194 0  0.5006804767066008 0.06248804651762684 0  0.5633130204302234 0.06248581854904515 0  0.6259611568350258 0.06248342904040133 0  0.6886263327834611 0.06248093877938216 0  0.7513116158696606 0.06247842427108629 0  0.8140261711727536 0.06247587202194774 0  0.876799624757749 0.06247267237509268 0  0.9397307814515261 0.06246532065117762 0  1.003167156644887 0.06243672679634139 0  0 0.125 0  0.0626279778383465 0.1249977355399516 0  0.1252598223018142 0.1249954017647322 0  0.1878994159503814 0.1249929294369696 0  0.2505506547092093 0.1249902500563351 0  0.3132174231094219 0.1249872973854205 0  0.3759035316838742 0.1249840105565538 0  0.4386126066842458 0.1249803395842334 0  0.5013479310626523 0.1249762543237416 0  0.5641122584347568 0.124971758109928 0  0.6269076743013133 0.1249669074864853 0  0.6897356912170768 0.1249618402471281 0  0.7525979827756247 0.1249568200572841 0  0.8154984833603866 0.1249523429466261 0  0.8784474626591632 0.1249495536196618 0  0.9414636084555159 0.1249522796097037 0  1.004537538936401 0.1249774577706301 0  0 0.1875 0  0.06268722928154589 0.1874966876706553 0  0.12538025638352 0.1874932708227156 0  0.1880849193324126 0.1874896444847705 0  0.2508071096919413 0.1874857035519547 0  0.3135527512832304 0.1874813442637767 0  0.3763277176799386 0.1874764678503522 0  0.4391376645636252 0.1874709875933673 0  0.5019877541218906 0.1874648410108344 0  0.5648822561347862 0.1874580094280601 0  0.6278240278001368 0.1874505477574554 0  0.6908138976293482 0.1874426276868834 0  0.7538499663109175 0.187434596889637 0  0.8169266114790782 0.1874270495717385 0  0.8800319572932859 0.1874208468570622 0  0.9431392707797684 0.1874166312807928 0  1.006180941831519 0.1874108581199808 0  0 0.25 0  0.0627407451684264 0.2499957428761368 0  0.1254891918770435 0.2499913461760356 0  0.1882531252715133 0.2499866687530553 0  0.2510404647357594 0.249981567152152 0  0.3138592690066289 0.2499758961179754 0  0.3767176581087018 0.2499695115250335 0  0.439623611013208 0.2499622772888566 0  0.5025845874056019 0.249954078568598 0  0.5656069098391205 0.2499448445877079 0  0.6286948274160281 0.249934585558936 0  0.6918491547934429 0.2499234489323805 0  0.7550653094218732 0.249911798589724 0  0.8183303778303804 0.2499003111755072 0  0.8816184088048534 0.2498900540524017 0  0.9448825566893492 0.2498824597435115 0  1.008043629444546 0.2498793321985369 0  0 0.3125 0  0.06278662230748822 0.3124949361941798 0  0.1255827800320562 0.3124896989923759 0  0.18839815966934 0.3124841116877239 0  0.2512427150112157 0.3124779916722412 0  0.3141267321273133 0.3124711488931538 0  0.3770607974900257 0.3124633864830271 0  0.440055612656869 0.3124545051959018 0  0.5031215759361602 0.3124443143166741 0  0.5662680204860228 0.3124326533339515 0  0.6295019585174534 0.3124194310356634 0  0.6928261328655724 0.3124046917324538 0  0.7562361250879419 0.3123887212783945 0  0.8197162405302288 0.3123722065272986 0  0.8832340004125245 0.312356459771713 0  0.9467337141526092 0.3123437295622649 0  1.010131818579242 0.3123377214195575 0  0 0.375 0  0.06282302849731625 0.3749943013966987 0  0.1256572894973614 0.3749883985430372 0  0.1885142601756379 0.3749820816175006 0  0.251405876503637 0.3749751300744009 0  0.314344699774751 0.3749673080015238 0  0.3773439885602562 0.3749583607709371 0  0.4404176106828963 0.3749480142796225 0  0.5035796950022928 0.3749359792259573 0  0.5668438731216157 0.374921964960814 0  0.6302218955478446 0.3749057111487572 0  0.6937213316060162 0.3748870516954756 0  0.757342003620649 0.3748660350347738 0  0.8210708365504401 0.3748431376069037 0  0.8848750934768225 0.3748196179672375 0  0.9486948371828575 0.3747980451436642 0  1.012437325703099 0.37478291007222 0  0 0.4375 0  0.06284826959342948 0.4374938692638447 0  0.1257092383519442 0.4374875086495739 0  0.1885959671405909 0.4374806801857031 0  0.2515222216666672 0.4374731296623314 0  0.3145027846612358 0.4374645781531833 0  0.3775536987305309 0.4374547133146853 0  0.4406923774889376 0.4374431808788841 0  0.5039374786212363 0.4374295776110667 0  0.5673083646602717 0.4374134489124272 0  0.6308238789955827 0.4373942983859084 0  0.694500036000133 0.4373716252933377 0  0.7583460867634858 0.4373450227463244 0  0.8223583482855549 0.4373143998805967 0  0.886511340461981 0.4372804380992157 0  0.9507464455138069 0.4372454423001885 0  1.014959783096432 0.4372147453453957 0  0 0.5 0  0.06286088310148386 0.4999936653296859 0  0.1257355840064887 0.4999870829170953 0  0.1886384137618591 0.499979994533346 0  0.2515846713501753 0.4999721203674135 0  0.3145911389686058 0.4999631465927989 0  0.3776765606359861 0.4999527107869008 0  0.4408620618914272 0.4999403842304672 0  0.5041714220139425 0.4999256500839075 0  0.5676310305236004 0.4999078769658197 0  0.6312692285528354 0.4998862897656704 0  0.6951145320579617 0.4998599466909227 0  0.7591919455861986 0.4998277507197084 0  0.8235162304084602 0.4997885695781271 0  0.8880807215848815 0.4997416366956614 0  0.9528404219725432 0.4996875867386386 0  1.017689193178376 0.4996307399608997 0  0 0.5625 0  0.06285975553506504 0.5624937073563672 0  0.1257339669606628 0.5624871592894265 0  0.1886377137597845 0.5624800880769657 0  0.2515873506085214 0.5624722002762409 0  0.3146012047801761 0.5624631610629978 0  0.3777003362985362 0.5624525745904857 0  0.4409093597133709 0.5624399578384729 0  0.5042572907258738 0.5624247040247543 0  0.5677783079784028 0.5624060295008831 0  0.63151217801565 0.5623828952936845 0  0.6955038266234028 0.562353892754678 0  0.7598010750027266 0.5623170889454286 0  0.8244488105354456 0.5622698627768307 0  0.8894768227917486 0.5622088836608131 0  0.9548775068642721 0.5621307097091539 0  1.020569632751729 0.5620341730531974 0  0 0.625 0  0.06284425448678888 0.6249940029270712 0  0.125702990879603 0.6249877547787032 0  0.1885914223077182 0.6249809913455321 0  0.2515262817498798 0.6249734207028644 0  0.3145267096323448 0.6249647059009386 0  0.3776153016161865 0.6249544425936631 0  0.4408193766830031 0.6249421280044529 0  0.50417251943217 0.624927114973598 0  0.5677164176962696 0.624908539694832 0  0.6315029187635749 0.6248852019048254 0  0.6955959842952609 0.6248553581422466 0  0.7600726774939003 0.6248163586373404 0  0.8250211876880801 0.624764022503717 0  0.8905318015299685 0.6246916599413417 0  0.9566734890316264 0.6245889495158932 0  1.023445650115768 0.6244422291248136 0  0 0.6875 0  0.06281435952125515 0.6874945476107307 0  0.125642506203907 0.6874888613921315 0  0.1884990190028809 0.6874826947376168 0  0.2514001442160177 0.6874757740006362 0  0.3143648205128444 0.6874677816331727 0  0.3774159610095136 0.6874583344425979 0  0.4405821245662496 0.6874469534688831 0  0.503899750538974 0.6874330191387156 0  0.5674161794525501 0.6874156991632101 0  0.6311937143580715 0.687393822653414 0  0.695314925620546 0.6873656414046412 0  0.7598890795356491 0.6873283430982583 0  0.825058514652607 0.6872770069413866 0  0.891000958344097 0.6872023254270597 0  0.9579172797706073 0.6870857869202183 0  1.025982369980885 0.6868904311723231 0  0 0.75 0  0.06277077016350442 0.7499953240989369 0  0.1255538507938137 0.7499904441837068 0  0.1883623355031506 0.749985144966818 0  0.2512109842294665 0.7499791873694641 0  0.3141172897415652 0.7499722941034244 0  0.3771028707895332 0.7499641317884383 0  0.4401953875126747 0.7499542875625288 0  0.5034312726616709 0.7499422367768863 0  0.5668597284187629 0.7499272951213093 0  0.6305486794864953 0.7499085399416836 0  0.6945937206572999 0.7498846607868056 0  0.7591315165874454 0.7498536237099717 0  0.8243593138775669 0.7498117958340081 0  0.8905609933709081 0.7497514301820009 0  0.9581333045412361 0.7496532325489921 0  1.027583467130297 0.7494656428121221 0  0 0.8125 0  0.06271496645371893 0.8124963025373572 0  0.1254399934736801 0.8124924419537151 0  0.1881858330964963 0.8124882462279028 0  0.2509647203509914 0.8124835246926625 0  0.3137913518553371 0.812478057323305 0  0.3766842058225484 0.8124715825105453 0  0.4396674281878594 0.8124637833322232 0  0.5027736477351973 0.8124542734203559 0  0.5660483297558945 0.8124425861540221 0  0.6295567249273302 0.8124281769613187 0  0.6933952974454897 0.8124104613614456 0  0.7577110767625017 0.8123889332460706 0  0.8227353387847707 0.8123634095997232 0  0.8888433757549882 0.8123341492061232 0  0.9566587166008426 0.8122990508638628 0  1.027198460855647 0.8122289989941649 0  0 0.875 0  0.06264919977985692 0.874997442017415 0  0.1253055296576048 0.8749947705042214 0  0.1879766365890038 0.8749918658897623 0  0.2506712821923727 0.8749885960690674 0  0.3134000940119942 0.8749848096769404 0  0.3761766012983988 0.8749803293164473 0  0.4390187540132536 0.874974946088293 0  0.5019512605576474 0.8749684193540987 0  0.5650093390159967 0.874960492129446 0  0.6282449852771215 0.8749509491201746 0  0.6917379069823081 0.8749397895153985 0  0.755615560268551 0.8749277196077809 0  0.8200921958175151 0.8749176083567833 0  0.8855518356362965 0.874919196820485 0  0.9527519200946635 0.8749665209240345 0  1.023482512023584 0.8751943243157755 0  0 0.9375 0  0.06257640014097453 0.9374986929585041 0  0.1251564957554433 0.9374973277840372 0  0.1877442582731559 0.9374958433273159 0  0.2503442560996598 0.9374941722304055 0  0.3129620617047287 0.9374922377894538 0  0.3756048196318247 0.9374899511857756 0  0.4382820913037245 0.937487210
[...]
<PointData  Vectors="f_54"> 
<DataArray  type="Float64"  Name="f_54"  NumberOfComponents="3" format="ascii">0.0000000000000000e+00 0.0000000000000000e+00 0.0000000000000000e+00  0.0000000000000000e+00 0.0000000000000000e+00 0.0000000000000000e+00  0.0000000000000000e+00 0.0000000000000000e+00 0.0000000000000000e+00  0.0000000000000000e+00 0.0000000000000000e+00 0.0000000000000000e+00  0.0000000000000000e+00 0.0000000000000000e+00 0.0000000000000000e+00  0.0000000000000000e+00 0.0000000000000000e+00 0.0000000000000000e+00  0.0000000000000000e+00 0.0000000000000000e+00 0.0000000000000000e+00  0.0000000000000000e+00 0.0000000000000000e+00 0.0000000000000000e+00  0.0000000000000000e+00 0.0000000000000000e+00 0.0000000000000000e+00  0.0000000000000000e+00 0.0000000000000000e+00 0.0000000000000000e+00  0.0000000000000000e+00 0.0000000000000000e+00 0.0000000000000000e+00  0.0000000000000000e+00 0.0000000000000000e+00 0.0000000000000000e+00  0.0000000000000000e+00 0.0000000000000000e+00 0.0000000000000000e+00  0.0000000000000000e+00 0.0000000000000000e+00 0.0000000000000000e+00  0.0000000000000000e+00 0.0000000000000000e+00 0.0000000000000000e+00  0.0000000000000000e+00 0.0000000000000000e+00 0.0000000000000000e+00  0.0000000000000000e+00 0.0000000000000000e+00 0.0000000000000000e+00  0.0000000000000000e+00 0.0000000000000000e+00 0.0000000000000000e+00  2.3936876884352621e-06 -8.3116152345423871e-08 0.0000000000000000e+00  4.8734719071732427e-06 -1.6932206350619200e-07 0.0000000000000000e+00  7.5280505350021275e-06 -2.6178862820821268e-07 0.0000000000000000e+00  1.0451036121070889e-05 -3.6382847422813871e-07 0.0000000000000000e+00  1.3743480105586608e-05 -4.7893902746373676e-07 0.0000000000000000e+00  1.7516575376691316e-05 -6.1080334033002615e-07 0.0000000000000000e+00  2.1894924302700642e-05 -7.6322195453226213e-07 0.0000000000000000e+00  2.7021455218110725e-05 -9.3994467718933882e-07 0.0000000000000000e+00  3.3066920855332090e-05 -1.1443884157736543e-06 0.0000000000000000e+00  4.0251893861674455e-05 -1.3793290191941641e-06 0.0000000000000000e+00  4.8903068387075743e-05 -1.6470618808534612e-06 0.0000000000000000e+00  5.9606575166069433e-05 -1.9520554136777291e-06 0.0000000000000000e+00  7.3649709978551535e-05 -2.3140010323127285e-06 0.0000000000000000e+00  9.4378536079714538e-05 -2.8229095148182551e-06 0.0000000000000000e+00  1.3170450553169245e-04 -3.8699095976066831e-06 0.0000000000000000e+00  2.1867408085960926e-04 -7.1722910574290315e-06 0.0000000000000000e+00  0.0000000000000000e+00 0.0000000000000000e+00 0.0000000000000000e+00  4.7062737406087975e-06 -1.6331621346102175e-07 0.0000000000000000e+00  9.5830072275433416e-06 -3.3276167447122762e-07 0.0000000000000000e+00  1.4805917021362848e-05 -5.1464020574425943e-07 0.0000000000000000e+00  2.0560668648037946e-05 -7.1556794656409595e-07 0.0000000000000000e+00  2.7047892038260692e-05 -9.4258117737809433e-07 0.0000000000000000e+00  3.4488309009165301e-05 -1.2031666797926051e-06 0.0000000000000000e+00  4.3128314626452229e-05 -1.5051566988874252e-06 0.0000000000000000e+00  5.3247038125576820e-05 -1.8564023094241159e-06 0.0000000000000000e+00  6.5167661261279045e-05 -2.2641085927961562e-06 0.0000000000000000e+00  7.9280012103926070e-05 -2.7336926515200938e-06 0.0000000000000000e+00  9.6091175718931171e-05 -3.2669974522247702e-06 0.0000000000000000e+00  1.1634134698372153e-04 -3.8594003741088519e-06 0.0000000000000000e+00  1.4125681340535691e-04 -4.4929963825390160e-06 0.0000000000000000e+00  1.7302326982890148e-04 -5.1084030732554724e-06 0.0000000000000000e+00  2.1523018408841718e-04 -5.4565393894313395e-06 0.0000000000000000e+00  2.7039112837585588e-04 -4.3003861532639893e-06 0.0000000000000000e+00  0.0000000000000000e+00 0.0000000000000000e+00 0.0000000000000000e+00  6.8533010618419986e-06 -2.3755777136157513e-07 0.0000000000000000e+00  1.3957186037737013e-05 -4.8414589668287753e-07 0.0000000000000000e+00  2.1570200924359282e-05 -7.4908166196085387e-07 0.0000000000000000e+00  2.9966033604617787e-05 -1.0422121180326051e-06 0.0000000000000000e+00  3.9441022024127419e-05 -1.3741265802245512e-06 0.0000000000000000e+00  5.0321470008506739e-05 -1.7562771281803323e-06 0.0000000000000000e+00  6.2970618673453330e-05 -2.2009238136698932e-06 0.0000000000000000e+00  7.7795141634934544e-05 -2.7207625107129608e-06 0.0000000000000000e+00  9.5251208825154841e-05 -3.3280017215228848e-06 0.0000000000000000e+00  1.1585049598784675e-04 -4.0325143997003812e-06 0.0000000000000000e+00  1.4016625686870542e-04 -4.8384727458017421e-06 0.0000000000000000e+00  1.6883459315635525e-04 -5.7385312950698013e-06 0.0000000000000000e+00  2.0251981838080292e-04 -6.7042759903532905e-06 0.0000000000000000e+00  2.4171020633740760e-04 -7.6735015557388636e-06 0.0000000000000000e+00  2.8588486922789038e-04 -8.5572256391967373e-06 0.0000000000000000e+00  3.3085490188394676e-04 -9.4563852362313129e-06 0.0000000000000000e+00  0.0000000000000000e+00 0.0000000000000000e+00 0.0000000000000000e+00  8.7546176044598067e-06 -3.0293940574115060e-07 0.0000000000000000e+00  1.7833116332297118e-05 -6.1756373938523280e-07 0.0000000000000000e+00  2.7570110083898159e-05 -9.5597659488504339e-07 0.0000000000000000e+00  3.8320817227602612e-05 -1.3310805465019274e-06 0.0000000000000000e+00  5.0471271225153880e-05 -1.7569454322118138e-06 0.0000000000000000e+00  6.4448084804781162e-05 -2.2491062589528420e-06 0.0000000000000000e+00  8.0727035064974892e-05 -2.8247037459616519e-06 0.0000000000000000e+00  9.9838962566211107e-05 -3.5022996720653829e-06 0.0000000000000000e+00  1.2236997925536993e-04 -4.3010583929526766e-06 0.0000000000000000e+00  1.4894990877983982e-04 -5.2387495393307602e-06 0.0000000000000000e+00  1.8021619851266876e-04 -6.3276532199090233e-06 0.0000000000000000e+00  2.1672545688844989e-04 -7.5669310702069265e-06 0.0000000000000000e+00  2.5875115401052887e-04 -8.9295508103778437e-06 0.0000000000000000e+00  3.0583813810952171e-04 -1.0342166004631719e-05 0.0000000000000000e+00  3.5588439812545664e-04 -1.1658052044680615e-05 0.0000000000000000e+00  4.0353502084823856e-04 -1.2609440103907716e-05 0.0000000000000000e+00  0.0000000000000000e+00 0.0000000000000000e+00 0.0000000000000000e+00  1.0336972778706433e-05 -3.5680908925530791e-07 0.0000000000000000e+00  2.1061596243556414e-05 -7.2758196610404650e-07 0.0000000000000000e+00  3.2575077050480964e-05 -1.1268436254740300e-06 0.0000000000000000e+00  4.5305013882735464e-05 -1.5702234685312193e-06 0.0000000000000000e+00  5.9718744239851069e-05 -2.0750265106000122e-06 0.0000000000000000e+00  7.6336412089169858e-05 -2.6608015896486499e-06 0.0000000000000000e+00  9.5742782381127257e-05 -3.3498516118770779e-06 0.0000000000000000e+00  1.1859557810925992e-04 -4.1675505645547095e-06 0.0000000000000000e+00  1.4562569092564350e-04 -5.1421745141676127e-06 0.0000000000000000e+00  1.7761996967114430e-04 -6.3036563252445691e-06 0.0000000000000000e+00  2.1536859326477253e-04 -7.6801388579421117e-06 0.0000000000000000e+00  2.5954356609276906e-04 -9.2903034060653262e-06 0.0000000000000000e+00  3.1045034362573863e-04 -1.1128082598643471e-05 0.0000000000000000e+00  3.6756596984179068e-04 -1.3134510858382642e-05 0.0000000000000000e+00  4.2877863156229453e-04 -1.5148979154550717e-05 0.0000000000000000e+00  4.8938479635916735e-04 -1.6828018087491722e-05 0.0000000000000000e+00  0.0000000000000000e+00 0.0000000000000000e+00 0.0000000000000000e+00  1.1536719827703170e-05 -3.9689316789050347e-07 0.0000000000000000e+00  2.3512522552547990e-05 -8.0951128404471053e-07 0.0000000000000000e+00  3.6382820032990566e-05 -1.2542753558885760e-06 0.0000000000000000e+00  5.0635363011327641e-05 -1.7490130015970265e-06 0.0000000000000000e+00  6.6807193712864393e-05 -2.3137543620219746e-06 0.0000000000000000e+00  8.5502142167055616e-05 -2.9716340362770940e-06 0.0000000000000000e+00  1.0740825215264044e-04 -3.7499177578482838e-06 0.0000000000000000e+00  1.3331332245499619e-04 -4.6811289194253693e-06 0.0000000000000000e+00  1.6411437275336491e-04 -5.8041373257917266e-06 0.0000000000000000e+00  2.0081232002210777e-04 -7.1648075579945842e-06 0.0000000000000000e+00  2.4447500087711806e-04 -8.8152236592434977e-06 0.0000000000000000e+00  2.9613820542975929e-04 -1.0809313448041100e-05 0.0000000000000000e+00  3.5659533154810394e-04 -1.3190414164154099e-05 0.0000000000000000e+00  4.2600756914650261e-04 -1.5962387175345364e-05 0.0000000000000000e+00  5.0326942455570026e-04 -1.9030386652662022e-05 0.0000000000000000e+00  5.8513037658417400e-04 -2.2094436973328309e-05 0.0000000000000000e+00  0.0000000000000000e+00 0.0000000000000000e+00 0.0000000000000000e+00  1.2302619714170549e-05 -4.2143764389082769e-07 0.0000000000000000e+00  2.5080599455014494e-05 -8.5970730525104207e-07 0.0000000000000000e+00  3.8828123397990124e-05 -1.3324383270969204e-06 0.0000000000000000e+00  5.4077333159157777e-05 -1.8589066537906849e-06 0.0000000000000000e+00  7.1419071726874469e-05 -2.4610301880509779e-06 0.0000000000000000e+00  9.1525617124637513e-05 -3.1645972480249704e-06 0.0000000000000000e+00  1.1517577228460437e-04 -4.0008521758191477e-06 0.0000000000000000e+00  1.4328207452185307e-04 -5.0085966212457650e-06 0.0000000000000000e+00  1.7691850363187080e-04 -6.2369824449827124e-06 0.0000000000000000e+00  2.1734411714215062e-04 -7.7491060282102644e-06 0.0000000000000000e+00  2.6601216821902854e-04 -9.6261867435952534e-06 0.0000000000000000e+00  3.2454340909419081e-04 -1.1971094157307066e-05 0.0000000000000000e+00  3.9462397124167360e-04 -1.4907321874457678e-05 0.0000000000000000e+00  4.7776065962971590e-04 -1.8563268829874240e-05 0.0000000000000000e+00  5.7478980837863457e-04 -2.3018527636471148e-05 0.0000000000000000e+00  6.8498719810715716e-04 -2.8163976714326518e-05 0.0000000000000000e+00  0.0000000000000000e+00 0.0000000000000000e+00 0.0000000000000000e+00  1.2598645074862894e-05 -4.2934348114000240e-07 0.0000000000000000e+00  2.5691180811521861e-05 -8.7586722419162348e-07 0.0000000000000000e+00  3.9792205223879267e-05 -1.3575897566287875e-06 0.0000000000000000e+00  5.5458785684677322e-05 -1.8942895939637387e-06 0.0000000000000000e+00  7.3314577172754763e-05 -2.5086153412895138e-06 0.0000000000000000e+00  9.4077679028758691e-05 -3.2275315311172913e-06 0.0000000000000000e+00  1.1859397312961195e-04 -4.0843293105811500e-06 0.0000000000000000e+00  1.4787811043353997e-04 -5.1215691079373953e-06 0.0000000000000000e+00  1.8316473494882739e-04 -6.3955437961953174e-06 0.0000000000000000e+00  2.2597259753010559e-04 -7.9831752835147177e-06 0.0000000000000000e+00  2.7818291992902789e-04 -9.9926428179843519e-06 0.0000000000000000e+00  3.4212826105089469e-04 -1.2579209302258153e-05 0.0000000000000000e+00  4.2067371859855348e-04 -1.5966666043174609e-05 0.0000000000000000e+00  5.1723749440206229e-04 -2.0469668487204780e-05 0.0000000000000000e+00  6.3562260380931892e-04 -2.6495741880951701e-05 0.0000000000000000e+00  7.7938287881111168e-04 -3.4462061818095120e-05 0.0000000000000000e+00  0.0000000000000000e+00 0.0000000000000000e+00 0.0000000000000000e+00  1.2406550406355810e-05 -4.2027015132209006e-07 0.0000000000000000e+00  2.5305759942821584e-05 -8.5726410646183090e-07 0.0000000000000000e+00  3.9211901352597494e-05 -1.3285064480465010e-06 0.0000000000000000e+00  5.4684227770176906e-05 -1.8532210630297825e-06 0.0000000000000000e+00  7.2353271815561924e-05 -2.4534192923596686e-06 0.0000000000000000e+00  9.2952405704667548e-05 -3.1553524113444385e-06 0.0000000000000000e+00  1.1735774495200973e-04 -3.9916123878142487e-06 0.0000000000000000e+00  1.4664107820235083e-04 -5.0043863344996864e-06 0.0000000000000000e+00  1.8214318692316429e-04 -6.2507894058610233e-06 0.0000000000000000e+00  2.2557920917018468e-04 -7.8119876110859416e-06 0.0000000000000000e+00  2.7919396089501932e-04 -9.8092653080871861e-06 0.0000000000000000e+00  3.4599243239187409e-04 -1.2432702909264769e-05 0.0000000000000000e+00  4.3007369355111731e-04 -1.5991986499521886e-05 0.0000000000000000e+00  5.3707860165672311e-04 -2.1002993743542969e-05 0.0000000000000000e+00  6.7468488062830166e-04 -2.8321734764598352e-05 0.0000000000000000e+00  8.5288325184055560e-04 -3.9307129395966254e-05 0.0000000000000000e+00  0.0000000000000000e+00 0.0000000000000000e+00 0.0000000000000000e+00  1.1727860960702543e-05 -3.9468058462230159e-07 0.0000000000000000e+00  2.3926334942643578e-05 -8.0485561425232237e-07 0.0000000000000000e+00  3.7087293932195978e-05 -1.2467041321972109e-06 0.0000000000000000e+00  5.1747361831795995e-05 -1.7378625542673450e-06 0.0000000000000000e+00  6.8514504128720934e-05 -2.2983352455004050e-06 0.0000000000000000e+00  8.8100613438037197e-05 -2.9516909760581661e-06 0.0000000000000000e+00  1.1136394014076153e-04 -3.7267871056367538e-06 0.0000000000000000e+00  1.3936767527939869e-04 -4.6604855881061149e-06 0.0000000000000000e+00  1.7346558239925405e-04 -5.8022937114195846e-06 0.0000000000000000e+00  2.1543411165344259e-04 -7.2228701868047694e-06 0.0000000000000000e+00  2.6768600258256589e-04 -9.0305404903417476e-06 0.0000000000000000e+00  3.3362736161295911e-04 -1.1404826928765713e-05 0.0000000000000000e+00  4.1826177473478681e-04 -1.4666640695586564e-05 0.0000000000000000e+00  5.2919284223916518e-04 -1.9427136870311768e-05 0.0000000000000000e+00  6.7818482868343011e-04 -2.6899428767696753e-05 0.0000000000000000e+00  8.8329826249824929e-04 -3.9518557794149354e-05 0.0000000000000000e+00  0.0000000000000000e+00 0.0000000000000000e+00 0.0000000000000000e+00  1.0584895841832540e-05 -3.5380895786828055e-07 0.0000000000000000e+00  2.1597766011077130e-05 -7.2122078237455710e-07 0.0000000000000000e+00  3.3486131063192442e-05 -1.1163498832495675e-06 0.0000000000000000e+00  4.6738983402076411e-05 -1.5543908108925254e-06 0.0000000000000000e+00  6.1911442137741564e-05 -2.0522290766421082e-06 0.0000000000000000e+00  7.9655003927161814e-05 -2.6291622066421197e-06 0.0000000000000000e+00  1.0075700780495762e-04 -3.3078252331036170e-06 0.0000000000000000e+00  1.2619540101355096e-04 -4.1155188490920148e-06 0.0000000000000000e+00  1.5721986449477172e-04 -5.0863927846820142e-06 0.0000000000000000e+00  1.9548066557776930e-04 -6.2655771577315110e-06 0.0000000000000000e+00  2.4324844169768705e-04 -7.7180221500791355e-06 0.0000000000000000e+00  3.0381448675838844e-04 -9.5493142499118637e-06 0.0000000000000000e+00  3.8225651248920150e-04 -1.1958348323235740e-05 0.0000000000000000e+00  4.8693305725089434e-04 -1.5377763416821833e-05 0.0000000000000000e+00  6.3232961226604477e-04 -2.0860181664572999e-05 0.0000000000000000e+00  8.4403589067628655e-04 -3.1142936964646353e-05 0.0000000000000000e+00  0.0000000000000000e+00 0.0000000000000000e+00 0.0000000000000000e+00  9.0205174208139211e-06 -2.9955010386468798e-07 0.0000000000000000e+00  1.8407398995187264e-05 -6.1031803923462369e-07 0.0000000000000000e+00  2.8543624904283709e-05 -9.4384263394004091e-07 0.0000000000000000e+00  3.9847578464736269e-05 -1.3123209374865657e-06 0.0000000000000000e+00  5.2793753280612712e-05 -1.7288807360895408e-06 0.0000000000000000e+00  6.7937612978241323e-05 -2.2077525772399658e-06 0.0000000000000000e+00  8.5946966641764198e-05 -2.7642362127260684e-06 0.0000000000000000e+00  1.0764360771684644e-04 -3.4142635276618741e-06 0.0000000000000000e+00  1.3406191570066361e-04 -4.1731924496335952e-06 0.0000000000000000e+00  1.6653799685866958e-04 -5.0531721037260134e-06 0.0000000000000000e+00  2.0686027251393718e-04 -6.0579435923081190e-06 0.0000000000000000e+00  2.5755855886988469e-04 -7.1734004133911703e-06 0.0000000000000000e+00  3.2253423562013725e-04 -8.3529980681676639e-06 0.0000000000000000e+00  4.0856665102135116e-04 -9.5075863817556151e-06 0.0000000000000000e+00  5.2900605193218462e-04 -1.0572507581781790e-05 0.0000000000000000e+00  7.1216220123574510e-04 -1.2022654252209200e-05 0.0000000000000000e+00  0.0000000000000000e+00 0.0000000000000000e+00 0.0000000000000000e+00  7.0964851286586452e-06 -2.3429101733702104e-07 0.0000000000000000e+00  1.4481654875862777e-05 -4.7710975354647788e-07 0.0000000000000000e+00  2.2457003930760907e-05 -7.3714047386750623e-07 0.0000000000000000e+00  3.1351343427656740e-05 -1.0233627945261398e-06 0.0000000000000000e+00  4.1536270805769075e-05 -1.3450505867024715e-06 0.0000000000000000e+00  5.3443879070043026e-05 -1.7115151944732150e-06 0.0000000000000000e+00  6.7587337345957838e-05 -2.1313351388877304e-06 0.0000000000000000e+00  8.4584613578338313e-05 -2.6105604388119127e-06 0.0000000000000000e+00  1.0518471116178741e-04 -3.1488496269013668e-06 0.0000000000000000e+00  1.3029405650702531e-04 -3.7313426374999114e-06 0.0000000000000000e+00  1.6099878060013624e-04 -4.3113945118494758e-06 0.0000000000000000e+00  1.9858367276122553e-04 -4.7725641482316464e-06 0.0000000000000000e+00  2.4460015878183109e-04 -4.8397246901318737e-06 0.0000000000000000e+00  3.0132350807911149e-04 -3.8539100054694869e-06 0.0000000000000000e+00  3.7426668867322435e-04 -1.5886070394828530e-07 0.0000000000000000e+00  4.8281775590511847e-04 1.0520747076043307e-05 0.0000000000000000e+00  0.0000000000000000e+00 0.0000000000000000e+00 0.0000000000000000e+00  4.8905341020436682e-06 -1.6072247798732771e-07 0.0000000000000000e+00  9.9798574305453832e-06 -3.2714246911615931e-07 0.0000000000000000e+00  1.5475312891656381e-05 -5.0500644839554853e-07 0.0000000000000000e+00  2.1602452470889343e-05 -7.0012697634321330e-07 0.0000000000000000e+00  2.8614915695094729e-05 -9.1824836758190948e-07 0.0000000000000000e+00  3.6804962275190197e-05 -1.1646266267444383e-06 0.0000000000000000e+00  4.6514005496284846e-05 -1.4430395040215006e-06 0.0000000000000000e+00  5.8140841182580611e-05 -1.7536641508624077e-06 0.0000000000000000e+00  7.2141222801234045e-05 -2.0886841392171646e-06 0.0000000000000000e+00  8.9002514453191946e-05 -2.4232589989918297e-06 0.0000000000000000e+00  1.0915253368083035e-04 -2.6967290838737192e-06 0.0000000000000000e+00  1.3269977723017742e-04 -2.7721749698863277e-06 0.0000000000000000e+00  1.5874770097812685e-04 -2.3433930247226478e-06 0.0000000000000000e+00  1.8368114455613130e-04 -6.9111371655047023e-07 0.0000000000000000e+00  1.9759245148449922e-04 4.1317332708016086e-06 0.0000000000000000e+00  1.8618235088050004e-04 1.9385049888730328e-05 0.0000000000000000e+00  0.0000000000000000e+00 0.0000000000000000e+00 0.0000000000000000e+00  2.4925111893219243e-06 -8.1673562886888091e-08 0.0000000000000000e+00  5.0860775424409776e-06 -1.6618519555964009e-07 0.0000000000000000e+00  7.8859666058212512e-06 -2.5637676014327422e-07 0.0000000000000000e+00  1.1006387630762118e-05 -3.5507448809863830e-07 0.0000000000000000e+00  1.4575142776712799e-05 -4.6497351966445729e-07 0.0000000000000000e+00  1.8738214543048474e-05 -5.8833997690076946e-07 0.0000000000000000e+00  2.3663476608995682e-05 -7.2635285344333240e-07 0.0000000000000000e+00  2.9541239641366854e-05 -8.7774114683525606e-07 0.0000000000000000e+00  3.6575663819804750e-05 -1.0360451274444365e-06 0.0000000000000000e+00  4.4951574570523494e-05 -1.1842065509357705e-06 0.0000000000000000e+00  5.4735343748684719e-05 -1.2840809370214999e-06 0.0000000000000000e+00  6.5592309698374806e-05 -1.2569298613922044e-06 0.0000000000000000e+00  7.5954212336241294e-05 -9.5148781763595877e-07 0.0000000000000000e+00  8.0338030215307526e-05 -1.1741828955473302e-07 0.0000000000000000e+00  5.9367844163216789e-05 1.4294401826758530e-06 0.0000000000000000e+00  -6.5854993649742046e-05 1.9814670504892895e-06 0.0000000000000000e+00  0.0000000000000000e+00 0.0000000000000000e+00 0.0000000000000000e+00  0.0000000000000000e+00 0.0000000000000000e+00 0.0000000000000000e+00  0.0000000000000000e+00 0.0000000000000000e+00 0.0000000000000000e+00  0.0000000000000000e+00 0.0000000000000000e+00 0.0000000000000000e+00  0.0000000000000000e+00 0.0000000000000000e+00 0.0000000000000000e+00  0.0000000000000000e+00 0.0000000000000000e+00 0.0000000000000000e+00  0.0000000000000000e+00 0.0000000000000000e+00 0.0000000000000000e+00  0.0000000000000000e+00 0.0000000000000000e+00 0.0000000000000000e+00  0.0000000000000000e+00 0.0000000000000000e+00 0.00000000