<?xml version="1.0"?>
<VTKFile type="UnstructuredGrid"  version="0.1"  >
<UnstructuredGrid>
<Piece  NumberOfPoints="289" NumberOfCells="512">
<Points>
<DataArray  type="Float64"  NumberOfComponents="3"  format="ascii">0 0 0  0.0625 0 0  0.125 0 0  0.1875 0 0  0.25 0 0  0.3125 0 0  0.375 0 0  0.4375 0 0  0.5 0 0  0.5625 0 0  0.625 0 0  0.6875 0 0  0.75 0 0  0.8125 0 0  0.875 0 0  0.9375 0 0  1 0 0  0 0.0625 0  0.06246885862407028 0.06247843094629357 0  0.1249371025771246 0.06245648290909261 0  0.1874041299187102 0.06243380780603609 0  0.2498694520473227 0.06241013894221444 0  0.3123327781169435 0.06238534358808628 0  0.3747941397010204 0.06235948860576387 0  0.4372540785705029 0.06233291977976409 0  0.4997139325446602 0.06230635010487569 0  0.5621762778213286 0.06228094267832242 0  0.6246456349784621 0.06225835872206209 0  0.6871296535311983 0.06224072180038794 0  0.7496412317956637 0.06223043692769969 0  0.8122025261919547 0.06222984720348802 0  0.8748523878317107 0.0622410099432128 0  0.9376558655464856 0.06226738060767838 0  1.000677334762012 0.06232887007755261 0  0 0.125 0  0.06243834943541317 0.1249572278651032 0  0.1248754297843704 0.1249136573249342 0  0.1873099963286365 0.1248685472974358 0  0.24974101988111 0.1248213099307772 0  0.3121678505319311 0.1247716126457552 0  0.3745904624704925 0.1247195093693053 0  0.4370098254385358 0.1246656051648018 0  0.4994284706004757 0.1246112492550237 0  0.5618513584468371 0.1245587335609042 0  0.624287230466595 0.1245114425625707 0  0.6867507660186908 0.1244738513168719 0  0.7492661156005105 0.1244512043933608 0  0.8118727464758909 0.1244486572235323 0  0.8746347749226143 0.1244697188188122 0  0.9376547043907691 0.1245141319843722 0  1.001101622375022 0.1245740295662396 0  0 0.1875 0  0.06240918429789497 0.1874368178818762 0  0.1248163569976781 0.1873723440858865 0  0.187219534122112 0.1873053612717329 0  0.2496170132973184 0.1872348566042436 0  0.3120075946868104 0.1871601651755514 0  0.3743909174678555 0.1870811634540433 0  0.4367679743971616 0.1869985258295543 0  0.4991418919618548 0.1869140481629645 0  0.5615191007564455 0.1868310210384856 0  0.62391107331116 0.1867545919804843 0  0.6863368698763895 0.1866919731204664 0  0.7488267641833389 0.1866521965630742 0  0.8114270585665506 0.1866448148836819 0  0.8742054372390977 0.1866762292297905 0  0.9372545299108092 0.1867402609698066 0  1.000691451217003 0.1867931845379688 0  0 0.25 0  0.06238216081336371 0.2499177010279096 0  0.124761448760867 0.2498335204498738 0  0.1871350070471868 0.2497456530948159 0  0.249500268897101 0.2496525160741935 0  0.3118551995352317 0.2495529178072528 0  0.3741986780024606 0.2494463016862137 0  0.4365310925611389 0.2493330927827561 0  0.498855246936249 0.2492151732168612 0  0.5611777002089241 0.2490964976469334 0  0.6235106787037115 0.2489838213853566 0  0.6858746702577835 0.2488874254520183 0  0.7483016592521071 0.2488215426979934 0  0.8108385238573269 0.24880384759718 0  0.87354919126966 0.2488527885648507 0  0.9365128768288361 0.248980833061742 0  0.9998155002078525 0.2491824290965348 0  0 0.3125 0  0.06235817898699193 0.3124004720243741 0  0.1247125023136469 0.3122983698665541 0  0.187059099441592 0.3121911773880933 0  0.2493943253200283 0.312076571140485 0  0.3117149775391221 0.3119525887556375 0  0.3740186660258807 0.3118178958344198 0  0.4363044179189338 0.3116722000587173 0  0.4985736256899082 0.3115168723080545 0  0.5608314690152416 0.3113558411809791 0  0.6230889403845518 0.3111968166634815 0  0.6853655381100217 0.3110528433792994 0  0.7476924837266015 0.3109440318000398 0  0.8101158902883492 0.3108989837732803 0  0.8726987093435866 0.3109548312877973 0  0.935520164484682 0.3111540059444726 0  0.9986737370662986 0.3115353714511647 0  0 0.375 0  0.0623382311861496 0.3748858251765335 0  0.1246715346122848 0.3747682980395797 0  0.1869949150825053 0.3746440810749564 0  0.2493034581917724 0.3745099405707983 0  0.3115924709263637 0.3743628765421864 0  0.3738577738779764 0.3742003659659676 0  0.4360962367265754 0.374020788338117 0  0.4983066855672592 0.3738241334838042 0  0.5604913513481636 0.373613132435576 0  0.6226580550191383 0.3733949969451085 0  0.6848232960989111 0.3731839787994845 0  0.7470162583177502 0.3730049051442188 0  0.809283403062579 0.3728975781287748 0  0.8716928708058241 0.372921226371346 0  0.9343379367821484 0.3731568496548735 0  0.9973407629397079 0.3737034319163389 0  0 0.4375 0  0.0623233618080733 0.4373745363228755 0  0.1246407045231065 0.4372449017759026 0  0.1869458682025443 0.4371068709338214 0  0.2492325516130259 0.4369561686839374 0  0.3114943224709418 0.4367885147138982 0  0.3737247594646296 0.4365997764798147 0  0.4359178243838084 0.4363863113938871 0  0.4980686218552616 0.4361456307422533 0  0.5601747896032314 0.4358776005335858 0  0.622238870319069 0.4355865186801064 0  0.6842721202331372 0.4352845737425589 0  0.7463002344433367 0.4349973539645831 0  0.8083712749876935 0.434772068769247 0  0.8705655349237637 0.4346885482401037 0  0.9330063646831191 0.434871207577782 0  0.9958715679109099 0.435496710204972 0  0 0.5 0  0.06231459669948104 0.4998674171977529 0  0.1246221691788044 0.4997298792478349 0  0.1869154627609848 0.4995822848948439 0  0.2491867975581587 0.499419271835127 0  0.3114278981311384 0.4992351271861712 0  0.3736298077496071 0.4990237724525388 0  0.4357829807050652 0.4987788965627187 0  0.4978777320014221 0.4984943749843345 0  0.5599053742251563 0.4981652300416111 0  0.6218606187137127 0.4977895955882683 0  0.6837461834943579 0.497372502847498 0  0.7455809858809828 0.4969328505703947 0  0.8074135533802681 0.4965155843886967 0  0.8693417346045538 0.4962113327076133 0  0.9315376178873404 0.4961838592426183 0  0.9942739118801157 0.4966990171659977 0  0 0.5625 0  0.06231284627179585 0.5623652410029336 0  0.1246178812365498 0.5622248769803455 0  0.1869069670644194 0.5620730535438289 0  0.2491712263906058 0.5619034089981867 0  0.3114006546909917 0.5617088132613806 0  0.3735837350708209 0.5614811147262285 0  0.43570711817948 0.5612109344679458 0  0.4977555310641553 0.5608876045458868 0  0.5597122896348025 0.5604994671184106 0  0.6215612065740578 0.5600350009052912 0  0.6832914526214274 0.5594857564716039 0  0.7449081719892005 0.5588531110378635 0  0.8064532062994245 0.5581627436120086 0  0.8680409215364071 0.5574934603327338 0  0.9299104519777625 0.557028155272513 0  0.9924831266668808 0.5571263016829078 0  0 0.625 0  0.06231879057171588 0.6248686435758747 0  0.1246293427135945 0.6247312807566509 0  0.1869230043090376 0.6245815577140444 0  0.2491900875191446 0.6244123718321238 0  0.3114192556063075 0.6242154280129829 0  0.3735967959046426 0.6239807115175696 0  0.4357057723363357 0.6236958557279187 0  0.4977251318957227 0.6233454058534618 0  0.559629055869414 0.6229100469605795 0  0.6213873747582676 0.622366049022872 0  0.6829690610771103 0.6216856712218548 0  0.7443532862907786 0.6208405508320068 0  0.8055569463558256 0.6198133747077539 0  0.8666931845851453 0.6186307224058037 0  0.9280755076821194 0.6174423162122235 0  0.9903624870089204 0.6166687817494642 0  0 0.6875 0  0.06233275933195903 0.6873780115700485 0  0.124657341817845 0.6872499734308558 0  0.186965098286871 0.6871094163484696 0  0.2492461272675591 0.6869489365682554 0  0.3114884730838046 0.686759597911564 0  0.373677078113652 0.6865301549678263 0  0.4357923760632642 0.6862460015640687 0  0.4978084187196215 0.6858877142574811 0  0.5596905329687399 0.6854290193503488 0  0.6213929211619632 0.6848339892261109 0  0.6828579103154935 0.6840533841945823 0  0.7440221025371604 0.6830207637264183 0  0.8048434107571277 0.6816520996237286 0  0.8653809256732157 0.6798648343014841 0  0.9259792703557532 0.6776741281269981 0  0.9875781395726433 0.6754720708141209 0  0 0.75 0  0.06235462474339699 0.7498933758261825 0  0.1247017110065522 0.7497810986795811 0  0.1870332374665725 0.7496570699373474 0  0.2493398554657055 0.7495141771816761 0  0.3116099902265462 0.7493436138470024 0  0.3738285875059544 0.7491339498929995 0  0.4359752771171085 0.748869796366428 0  0.4980216075219032 0.7485298166124653 0  0.5599268589296132 0.7480836773365487 0  0.6216318755319474 0.7474872412311121 0  0.6830508533765521 0.7466747596884484 0  0.744063841771299 0.745545870258183 0  0.8045237228710872 0.7439441512698025 0  0.8643284118606132 0.7416277349122664 0  0.9237110674485607 0.7382822317752908 0  0.9838082545371194 0.7340985250500955 0  0 0.8125 0  0.06238372798794115 0.8124143322198092 0  0.1247611541821521 0.8123238804067652 0  0.1871255442990614 0.8122234481317591 0  0.2494689456076295 0.8121068878492906 0  0.3117813298971089 0.8119664430473994 0  0.3740493448670289 0.811791823215787 0  0.4362543756837537 0.8115688329050473 0  0.4983693879592712 0.8112772635119357 0  0.5603535867727478 0.8108875486427657 0  0.6221431210016451 0.8103552724678776 0  0.6836347136066645 0.8096117101515542 0  0.7446575696841422 0.8085462903595744 0  0.8049312323086358 0.8069704955079358 0  0.8640371004768699 0.8045340902595722 0  0.9216271869045937 0.8005092911939462 0  0.9796099223530358 0.7931553323008035 0  0 0.875 0  0.06241886027434809 0.8749400114204395 0  0.124833192626774 0.8748765470471832 0  0.1872381470677106 0.8748058133742254 0  0.2496279502227007 0.8747232777768867 0  0.3119952424419492 0.8746231479957435 0  0.3743300883176621 0.8744976287670697 0  0.4366183893345339 0.8743358053912269 0  0.4988391779229378 0.8741219140268168 0  0.5609597302107496 0.8738326090462391 0  0.6229262059534092 0.873432590172276 0  0.6846446238353728 0.8728675062478535 0  0.7459399215092748 0.8720519604596436 0  0.8064634514657858 0.8708462565143101 0  0.8654774657953593 0.8689954614845932 0  0.9213581500800025 0.8659088225149536 0  0.9705927966621765 0.8597257536772125 0  0 0.9375 0  0.06245831307924689 0.9374691120856856 0  0.1249142665833707 0.9374363952209405 0  0.1873653325029467 0.93739984770105 0  0.2498084937290585 0.9373570639951541 0  0.3122398921298488 0.9373049476622872 0  0.3746543009648219 0.9372392983999472 0  0.4370442723822547 
[...]
<PointData  Vectors="f_54"> 
<DataArray  type="Float64"  Name="f_54"  NumberOfComponents="3" format="ascii">0.0000000000000000e+00 0.0000000000000000e+00 0.0000000000000000e+00  0.0000000000000000e+00 0.0000000000000000e+00 0.0000000000000000e+00  0.0000000000000000e+00 0.0000000000000000e+00 0.0000000000000000e+00  0.0000000000000000e+00 0.0000000000000000e+00 0.0000000000000000e+00  0.0000000000000000e+00 0.0000000000000000e+00 0.0000000000000000e+00  0.0000000000000000e+00 0.0000000000000000e+00 0.0000000000000000e+00  0.0000000000000000e+00 0.0000000000000000e+00 0.0000000000000000e+00  0.0000000000000000e+00 0.0000000000000000e+00 0.0000000000000000e+00  0.0000000000000000e+00 0.0000000000000000e+00 0.0000000000000000e+00  0.0000000000000000e+00 0.0000000000000000e+00 0.0000000000000000e+00  0.0000000000000000e+00 0.0000000000000000e+00 0.0000000000000000e+00  0.0000000000000000e+00 0.0000000000000000e+00 0.0000000000000000e+00  0.0000000000000000e+00 0.0000000000000000e+00 0.0000000000000000e+00  0.0000000000000000e+00 0.0000000000000000e+00 0.0000000000000000e+00  0.0000000000000000e+00 0.0000000000000000e+00 0.0000000000000000e+00  0.0000000000000000e+00 0.0000000000000000e+00 0.0000000000000000e+00  0.0000000000000000e+00 0.0000000000000000e+00 0.0000000000000000e+00  0.0000000000000000e+00 0.0000000000000000e+00 0.0000000000000000e+00  2.8406570125144917e-06 1.1058673330144458e-07 0.0000000000000000e+00  5.7356092464704070e-06 2.2310905786085799e-07 0.0000000000000000e+00  8.7364383380401162e-06 3.3934592544629760e-07 0.0000000000000000e+00  1.1884883071675930e-05 4.6058399988763236e-07 0.0000000000000000e+00  1.5205979891111672e-05 5.8728132613445165e-07 0.0000000000000000e+00  1.8698647381933244e-05 7.1862184369284704e-07 0.0000000000000000e+00  2.2322601838637473e-05 8.5193379817212932e-07 0.0000000000000000e+00  2.5980132103149927e-05 9.8196264890864560e-07 0.0000000000000000e+00  2.9490416629171955e-05 1.1000201214211597e-06 0.0000000000000000e+00  3.2551824082844126e-05 1.1930722190104975e-06 0.0000000000000000e+00  3.4681303834459446e-05 1.2428548854934860e-06 0.0000000000000000e+00  3.5101249788778510e-05 1.2250366508900839e-06 0.0000000000000000e+00  3.2485971240306352e-05 1.1080779821600011e-06 0.0000000000000000e+00  2.4286733945944802e-05 8.5027285770703973e-07 0.0000000000000000e+00  4.6677745677061106e-06 3.9031766463571470e-07 0.0000000000000000e+00  -4.2486489155279405e-05 -3.8091925789697269e-07 0.0000000000000000e+00  0.0000000000000000e+00 0.0000000000000000e+00 0.0000000000000000e+00  5.6222126529361034e-06 2.1905076438447825e-07 0.0000000000000000e+00  1.1357388064088384e-05 4.4219440520233400e-07 0.0000000000000000e+00  1.7313700662935788e-05 6.7324259564335244e-07 0.0000000000000000e+00  2.3581297326545522e-05 9.1509884212562278e-07 0.0000000000000000e+00  3.0219561034001926e-05 1.1691228986817139e-06 0.0000000000000000e+00  3.7239476414291379e-05 1.4342706514882024e-06 0.0000000000000000e+00  4.4579057964320472e-05 1.7059458966873199e-06 0.0000000000000000e+00  5.2069369709241444e-05 1.9745306588983809e-06 0.0000000000000000e+00  5.9387823966614013e-05 2.2236233195887482e-06 0.0000000000000000e+00  6.5993498893637817e-05 2.4281155887836269e-06 0.0000000000000000e+00  7.1034403050828821e-05 2.5523599604930752e-06 0.0000000000000000e+00  7.3205045983969387e-05 2.5487263679734288e-06 0.0000000000000000e+00  7.0507662458649142e-05 2.3565695936277155e-06 0.0000000000000000e+00  5.9831095399281177e-05 1.9004293383023810e-06 0.0000000000000000e+00  3.6286851392987942e-05 1.0825165274254061e-06 0.0000000000000000e+00  -7.0488840154025385e-06 -2.4861671837467488e-07 0.0000000000000000e+00  0.0000000000000000e+00 0.0000000000000000e+00 0.0000000000000000e+00  8.2842478555607374e-06 3.2316618847471246e-07 0.0000000000000000e+00  1.6748277120870942e-05 6.5299521254163271e-07 0.0000000000000000e+00  2.5566203410489985e-05 9.9580679300834903e-07 0.0000000000000000e+00  3.4889068330833997e-05 1.3567478647926228e-06 0.0000000000000000e+00  4.4828035294691200e-05 1.7389337146753102e-06 0.0000000000000000e+00  5.5430638633583397e-05 2.1422400902441170e-06 0.0000000000000000e+00  6.6647286039714349e-05 2.5616265389303125e-06 0.0000000000000000e+00  7.8284921566283596e-05 2.9849001703179774e-06 0.0000000000000000e+00  8.9944532393008292e-05 3.3899131234889885e-06 0.0000000000000000e+00  1.0093907911301428e-04 3.7413625521533417e-06 0.0000000000000000e+00  1.1018857257111207e-04 3.9876575288886240e-06 0.0000000000000000e+00  1.1609033314832718e-04 4.0587175408041573e-06 0.0000000000000000e+00  1.1637000039347814e-04 3.8659796290435667e-06 0.0000000000000000e+00  1.0795386887717138e-04 3.3063107667343525e-06 0.0000000000000000e+00  8.7037458275938574e-05 2.2733584877312740e-06 0.0000000000000000e+00  4.9931410473885080e-05 6.9319780474532511e-07 0.0000000000000000e+00  0.0000000000000000e+00 0.0000000000000000e+00 0.0000000000000000e+00  1.0758487451613078e-05 4.2030535622626989e-07 0.0000000000000000e+00  2.1773966022389258e-05 8.5037153679531864e-07 0.0000000000000000e+00  3.3298539717319873e-05 1.2996458296089899e-06 0.0000000000000000e+00  4.5560615851992244e-05 1.7763644596293385e-06 0.0000000000000000e+00  5.8746555731642084e-05 2.2865934659086666e-06 0.0000000000000000e+00  7.2973643020787191e-05 2.8327949563330226e-06 0.0000000000000000e+00  8.8250802639932400e-05 3.4117164435209252e-06 0.0000000000000000e+00  1.0442324783392688e-04 4.0113989941503049e-06 0.0000000000000000e+00  1.2109748597795374e-04 4.6071658795911588e-06 0.0000000000000000e+00  1.3754453884972577e-04 5.1566669463346283e-06 0.0000000000000000e+00  1.5258308387730788e-04 5.5945295626882014e-06 0.0000000000000000e+00  1.6445307743327903e-04 5.8280129297791269e-06 0.0000000000000000e+00  1.7071004229047312e-04 5.7362301322052656e-06 0.0000000000000000e+00  1.6821329893800828e-04 5.1763826268126921e-06 0.0000000000000000e+00  1.5336984970005908e-04 3.9987041651483063e-06 0.0000000000000000e+00  1.2293197203186570e-04 2.0584815356289930e-06 0.0000000000000000e+00  0.0000000000000000e+00 0.0000000000000000e+00 0.0000000000000000e+00  1.2966710657441327e-05 5.0732935360583413e-07 0.0000000000000000e+00  2.6278084369365513e-05 1.0280496120299696e-06 0.0000000000000000e+00  4.0276664996878085e-05 1.5753825296888102e-06 0.0000000000000000e+00  5.5286134014035131e-05 2.1615945031847060e-06 0.0000000000000000e+00  7.1594576470377868e-05 2.7971148026739587e-06 0.0000000000000000e+00  8.9427735498051240e-05 3.4890786007946334e-06 0.0000000000000000e+00  1.0890777198253566e-04 4.2389880050793382e-06 0.0000000000000000e+00  1.2999243464363475e-04 5.0391052987540602e-06 0.0000000000000000e+00  1.5238954117287009e-04 5.8671585397426429e-06 0.0000000000000000e+00  1.7544323772209763e-04 6.6790711483852688e-06 0.0000000000000000e+00  1.9799332897206385e-04 7.3999662363292919e-06 0.0000000000000000e+00  2.1821975777991815e-04 7.9150374496786862e-06 0.0000000000000000e+00  2.3350487492433802e-04 8.0644551965744909e-06 0.0000000000000000e+00  2.4038039847889644e-04 7.6502440239243342e-06 0.0000000000000000e+00  2.3467267788487210e-04 6.4663209056788335e-06 0.0000000000000000e+00  2.1199475026385608e-04 4.3614937629035551e-06 0.0000000000000000e+00  0.0000000000000000e+00 0.0000000000000000e+00 0.0000000000000000e+00  1.4820827295176573e-05 5.8059005145611211e-07 0.0000000000000000e+00  3.0081856053578165e-05 1.1785957642404427e-06 0.0000000000000000e+00  4.6226098419493442e-05 1.8115335055317163e-06 0.0000000000000000e+00  6.3688670625687663e-05 2.4965568329909536e-06 0.0000000000000000e+00  8.2885405936856452e-05 3.2498828597091044e-06 0.0000000000000000e+00  1.0419082966136733e-04 4.0856161433851960e-06 0.0000000000000000e+00  1.2789999315439843e-04 5.0135644656498681e-06 0.0000000000000000e+00  1.5416717131154628e-04 6.0354349289554755e-06 0.0000000000000000e+00  1.8291316604654721e-04 7.1385444651609949e-06 0.0000000000000000e+00  2.1369292287440897e-04 8.2859857472295866e-06 0.0000000000000000e+00  2.4551824131079325e-04 9.4023956073929977e-06 0.0000000000000000e+00  2.7663951674958954e-04 1.0355872173450154e-05 0.0000000000000000e+00  3.0430908613181457e-04 1.0940625208547396e-05 0.0000000000000000e+00  3.2457735459161876e-04 1.0873315001021782e-05 0.0000000000000000e+00  3.3220069015317766e-04 9.8283648271166790e-06 0.0000000000000000e+00  3.2073411818690295e-04 7.5463100800319588e-06 0.0000000000000000e+00  0.0000000000000000e+00 0.0000000000000000e+00 0.0000000000000000e+00  1.6225596238519126e-05 6.3607303145485758e-07 0.0000000000000000e+00  3.2989232201319396e-05 1.2936859516778614e-06 0.0000000000000000e+00  5.0838799650428431e-05 1.9948627749280944e-06 0.0000000000000000e+00  7.0331504299476000e-05 2.7621852614808231e-06 0.0000000000000000e+00  9.2031968484800779e-05 3.6187884013836942e-06 0.0000000000000000e+00  1.1650031248732642e-04 4.5878633532099728e-06 0.0000000000000000e+00  1.4426390117088805e-04 5.6912291157432118e-06 0.0000000000000000e+00  1.7576361767179200e-04 6.9461842563094882e-06 0.0000000000000000e+00  2.1126201995863304e-04 8.3592694416897620e-06 0.0000000000000000e+00  2.5069726171274352e-04 9.9147255445394131e-06 0.0000000000000000e+00  2.9346513840573042e-04 1.1554529258235494e-05 0.0000000000000000e+00  3.3811599819695586e-04 1.3146908493949858e-05 0.0000000000000000e+00  3.8196952143197585e-04 1.4443961885320194e-05 0.0000000000000000e+00  4.2068220008170004e-04 1.5042002962791875e-05 0.0000000000000000e+00  4.4783481800750709e-04 1.4386669100667666e-05 0.0000000000000000e+00  4.5457721505102550e-04 1.1903645435949239e-05 0.0000000000000000e+00  0.0000000000000000e+00 0.0000000000000000e+00 0.0000000000000000e+00  1.7084252840571082e-05 6.6969600540097664e-07 0.0000000000000000e+00  3.4798141589625530e-05 1.3647120469099390e-06 0.0000000000000000e+00  5.3789936777637039e-05 2.1113052456350582e-06 0.0000000000000000e+00  7.4739911301324526e-05 2.9374485533092385e-06 0.0000000000000000e+00  9.8372094377763240e-05 3.8736296873004064e-06 0.0000000000000000e+00  1.2545855990682143e-04 4.9534576558438027e-06 0.0000000000000000e+00  1.5680991650053169e-04 6.2137558923357996e-06 0.0000000000000000e+00  1.9324137424771230e-04 7.6934027566489722e-06 0.0000000000000000e+00  2.3549734881283396e-04 9.4293119287851586e-06 0.0000000000000000e+00  2.8410889813709100e-04 1.1446257760594580e-05 0.0000000000000000e+00  3.3914864104359684e-04 1.3734318466836706e-05 0.0000000000000000e+00  3.9984200359368180e-04 1.6203673836885274e-05 0.0000000000000000e+00  4.6400325759670866e-04 1.8604234440109229e-05 0.0000000000000000e+00  5.2730797150830596e-04 2.0407798238484026e-05 0.0000000000000000e+00  5.8249063539181757e-04 2.0696570762487460e-05 0.0000000000000000e+00  6.1855486097169357e-04 1.8202937384690753e-05 0.0000000000000000e+00  0.0000000000000000e+00 0.0000000000000000e+00 0.0000000000000000e+00  1.7307003234721324e-05 6.7775104119718774e-07 0.0000000000000000e+00  3.5317920066468177e-05 1.3837132878488602e-06 0.0000000000000000e+00  5.4765021795006475e-05 2.1474785033311982e-06 0.0000000000000000e+00  7.6438756630955022e-05 3.0015606305034602e-06 0.0000000000000000e+00  1.0121659471135562e-04 3.9831134506145854e-06 0.0000000000000000e+00  1.3008951473288631e-04 5.1359389589098738e-06 0.0000000000000000e+00  1.6418133026976638e-04 6.5128001388373785e-06 0.0000000000000000e+00  2.0475077892825896e-04 8.1777830286776625e-06 0.0000000000000000e+00  2.5315714169837813e-04 1.0207658671429520e-05 0.0000000000000000e+00  3.1075528346895335e-04 1.2689098388903246e-05 0.0000000000000000e+00  3.7866423738705399e-04 1.5703575587242652e-05 0.0000000000000000e+00  4.5732770673230630e-04 1.9281121487138350e-05 0.0000000000000000e+00  5.4577103520868614e-04 2.3285633568019437e-05 0.0000000000000000e+00  6.4050332428788523e-04 2.7176632617645808e-05 0.0000000000000000e+00  7.3419759146886620e-04 2.9624219485536730e-05 0.0000000000000000e+00  8.1462237019176904e-04 2.8143497219764285e-05 0.0000000000000000e+00  0.0000000000000000e+00 0.0000000000000000e+00 0.0000000000000000e+00  1.6821903043149295e-05 6.5744153455728473e-07 0.0000000000000000e+00  3.4392104560445492e-05 1.3445393610019807e-06 0.0000000000000000e+00  5.3496618354429832e-05 2.0926619394749021e-06 0.0000000000000000e+00  7.5005832796351375e-05 2.9370851827127808e-06 0.0000000000000000e+00  9.9922049854286413e-05 3.9195216025548105e-06 0.0000000000000000e+00  1.2943246158797066e-04 5.0914845313452813e-06 0.0000000000000000e+00  1.6496654264529351e-04 6.5190130274221668e-06 0.0000000000000000e+00  2.0825198903691748e-04 8.2894787882456020e-06 0.0000000000000000e+00  2.6135320030518268e-04 1.0521215549003589e-05 0.0000000000000000e+00  3.2665648980523829e-04 1.3375752839743968e-05 0.0000000000000000e+00  4.0673035757517054e-04 1.7067970333886416e-05 0.0000000000000000e+00  5.0393131300033799e-04 2.1854578542432699e-05 0.0000000000000000e+00  6.1955218780184601e-04 2.7939983267870639e-05 0.0000000000000000e+00  7.5228092875647377e-04 3.5146907035340789e-05 0.0000000000000000e+00  8.9596256128764444e-04 4.2087438898830052e-05 0.0000000000000000e+00  1.0372839543325732e-03 4.4675687018436507e-05 0.0000000000000000e+00  0.0000000000000000e+00 0.0000000000000000e+00 0.0000000000000000e+00  1.5587068362873476e-05 6.0742403385775632e-07 0.0000000000000000e+00  3.1924570916875815e-05 1.2440537576802432e-06 0.0000000000000000e+00  4.9807876123547489e-05 1.9409315858750791e-06 0.0000000000000000e+00  7.0138095432226451e-05 2.7334950168365665e-06 0.0000000000000000e+00  9.3986740676781184e-05 3.6645334621972171e-06 0.0000000000000000e+00  1.2267548123197578e-04 4.7883404050233708e-06 0.0000000000000000e+00  1.5787619621308611e-04 6.1770436624762067e-06 0.0000000000000000e+00  2.0173450306548460e-04 7.9309343263627808e-06 0.0000000000000000e+00  2.5701289706573440e-04 1.0196169829118486e-05 0.0000000000000000e+00  3.2723077923654115e-04 1.3195719523815171e-05 0.0000000000000000e+00  4.1673453133212428e-04 1.7281846827389854e-05 0.0000000000000000e+00  5.3053780243570597e-04 2.3013841403084211e-05 0.0000000000000000e+00  6.7359953506222921e-04 3.1223722509004450e-05 0.0000000000000000e+00  8.4896693317422804e-04 4.2853835040399435e-05 0.0000000000000000e+00  1.0542970815985559e-03 5.7810587320732877e-05 0.0000000000000000e+00  1.2784758904282321e-03 7.2618600163337527e-05 0.0000000000000000e+00  0.0000000000000000e+00 0.0000000000000000e+00 0.0000000000000000e+00  1.3602535912327185e-05 5.2823689386720967e-07 0.0000000000000000e+00  2.7905568445390298e-05 1.0831084434159919e-06 0.0000000000000000e+00  4.3657602141563992e-05 1.6929578817134994e-06 0.0000000000000000e+00  6.1723817001235374e-05 2.3903474653473609e-06 0.0000000000000000e+00  8.3161927352177429e-05 3.2148570231496876e-06 0.0000000000000000e+00  1.0932250084959915e-04 4.2169893749709389e-06 0.0000000000000000e+00  1.4198661436746527e-04 5.4641769311915061e-06 0.0000000000000000e+00  1.8355732951688168e-04 7.0510168519165915e-06 0.0000000000000000e+00  2.3732354678989136e-04 9.1186145389254320e-06 0.0000000000000000e+00  3.0780887633158902e-04 1.1894521128336161e-05 0.0000000000000000e+00  4.0118648972541445e-04 1.5779824695609013e-05 0.0000000000000000e+00  5.2563914697136211e-04 2.1540331316533528e-05 0.0000000000000000e+00  6.9127081534836631e-04 3.0700480852134573e-05 0.0000000000000000e+00  9.0853129845001716e-04 4.6180030453601461e-05 0.0000000000000000e+00  1.1829277326876806e-03 7.2090978203251401e-05 0.0000000000000000e+00  1.5082882510836127e-03 9.9890110174711091e-05 0.0000000000000000e+00  0.0000000000000000e+00 0.0000000000000000e+00 0.0000000000000000e+00  1.0919551153402536e-05 4.2250292798301261e-07 0.0000000000000000e+00  2.2432871775842305e-05 8.6701696935292841e-07 0.0000000000000000e+00  3.5178901032651520e-05 1.3569157261211718e-06 0.0000000000000000e+00  4.9908701619332109e-05 1.9190014087098231e-06 0.0000000000000000e+00  6.7561961910819564e-05 2.5855933836033849e-06 0.0000000000000000e+00  8.9373595279297182e-05 3.3971347420502372e-06 0.0000000000000000e+00  1.1702980015424688e-04 4.4056227813462528e-06 0.0000000000000000e+00  1.5290351687245670e-04 5.6795772321253221e-06 0.0000000000000000e+00  2.0041537195633402e-04 7.3127998033312830e-06 0.0000000000000000e+00  2.6458777348171167e-04 9.4447789640602758e-06 0.0000000000000000e+00  3.5287803041014483e-04 1.2319989710946012e-05 0.0000000000000000e+00  4.7634997823563230e-04 1.6477140796372379e-05 0.0000000000000000e+00  6.5102403526821147e-04 2.3359014893076143e-05 0.0000000000000000e+00  8.9834630374093730e-04 3.7246216814415416e-05 0.0000000000000000e+00  1.2403632731835649e-03 7.1616087465038576e-05 0.0000000000000000e+00  1.6652901580200470e-03 1.7871028243223060e-04 0.0000000000000000e+00  0.0000000000000000e+00 0.0000000000000000e+00 0.0000000000000000e+00  7.6448515422226825e-06 2.9484468430483870e-07 0.0000000000000000e+00  1.5722562220715716e-05 6.0536625131478162e-07 0.0000000000000000e+00  2.4701531727898629e-05 9.4814364361664284e-07 0.0000000000000000e+00  3.5139580606537603e-05 1.3420418246525486e-06 0.0000000000000000e+00  4.7747239132235520e-05 1.8093668514484793e-06 0.0000000000000000e+00  6.3479426230134026e-05 2.3768160210088581e-06 0.0000000000000000e+00  8.3676207789028866e-05 3.0755103629523400e-06 0.0000000000000000e+00  1.1028806229332969e-04 3.9381826322397657e-06 0.0000000000000000e+00  1.4624822915108800e-04 4.9887616836406530e-06 0.0000000000000000e+00  1.9610462643228889e-04 6.2135587636469499e-06 0.0000000000000000e+00  2.6711433417394372e-04 7.4929029743393323e-06 0.0000000000000000e+00  3.7116061042610527e-04 8.4660623116074475e-06 0.0000000000000000e+00  5.2808970911998770e-04 8.3625229087216421e-06 0.0000000000000000e+00  7.7122704203763692e-04 6.2137354167362072e-06 0.0000000000000000e+00  1.1545929202214386e-03 3.2404648833338165e-06 0.0000000000000000e+00  1.7526564293681673e-03 1.2771765884120655e-05 0.0000000000000000e+00  0.0000000000000000e+00 0.0000000000000000e+00 0.0000000000000000e+00  3.9378831084206621e-06 1.5153715116693826e-07 0.0000000000000000e+00  8.1045149944734025e-06 3.1122286731830797e-07 0.0000000000000000e+00  1.2748367810578394e-05 4.8764119943430190e-07 0.0000000000000000e+00  1.8167911737474280e-05 6.9047729161466946e-07 0.0000000000000000e+00  2.4747876436156196e-05 9.3093694820761544e-07 0.0000000000000000e+00  3.3013135493617618e-05 1.2217244000306538e-06 0.0000000000000000e+00  4.3714040399618602e-05 1.5755765989109245e-06 0.0000000000000000e+00  5.7968194794674082e-05 1.9994514701024402e-06 0.0000000000000000e+00  7.7505535898649198e-05 2.4759561174421030e-06 0.0000000000000000e+00  1.0510608223965162e-04 2.9071994406198087e-06 0.0000000000000000e+00  1.4539704615589580e-04 2.9463806729751823e-06 0.0000000000000000e+00  2.0628201371202722e-04 1.4903607466669487e-06 0.0000000000000000e+00  3.0121054809219028e-04 -4.8344611731696062e-06 0.0000000000000000e+00  4.5098496953555051e-04 -2.5875903095010675e-05 0.0000000000000000e+00  6.7544186720343269e-04 -8.6572387435303685e-05 0.0000000000000000e+00  9.4453789386637237e-04 -2.2408577100846785e-04 0.0000000000000000e+00  0.0000000000000000e+00 0.0000000000000000e+00 0.0000000000000000e+00  0.0000000000000000e+00 0.0000000000000000e+00 0.0000000000000000e+00  0.0000000000000000e+00 0.0000000000000000e+00 0.0000000000000000e+00  0.0000000000000000e+00 0.0000000000000000e+00 0.0000000000000000e+00  0.0000000000000000e+00 0.0000000000000000e+00 0.0000000000000000e+00  0.0000000000000000e+00 0.0000000000000000e+00 0.0000000000000000e+00  0.0000000000000000e+00 0.0000000000000000e+00 0.0000000000000000e+00  0.0000000000000000e+00 0.0000000000000000e+00 0.0000000000000000e+00  0.0000000000000000e+00 0.0000000000000000e+00 0.0000000000000000e+00  0.0000000000000000e+00 0.0000000000000000e+00 0.0000000000000000e+00  0.0000000000000000e+00 0.0000000000000000e+00 0.0000000000000000e+00  0.0000000000000000e+00 0.0000000000000000e+00 0.0000000000000000e+00  0.00