<?xml version="1.0"?>
<VTKFile type="UnstructuredGrid"  version="0.1"  >
<UnstructuredGrid>
<Piece  NumberOfPoints="289" NumberOfCells="512">
<Points>
<DataArray  type="Float64"  NumberOfComponents="3"  format="ascii">0 0 0  0.0625 0 0  0.125 0 0  0.1875 0 0  0.25 0 0  0.3125 0 0  0.375 0 0  0.4375 0 0  0.5 0 0  0.5625 0 0  0.625 0 0  0.6875 0 0  0.75 0 0  0.8125 0 0  0.875 0 0  0.9375 0 0  1 0 0  0 0.0625 0  0.062565617001357 0.06248630588592623 0  0.1251331113582611 0.06247234711648221 0  0.1877043708696705 0.06245787739349631 0  0.2502812569312909 0.0624426961505546 0  0.3128655712508317 0.06242667904839767 0  0.3754589969039223 0.06240981705872055 0  0.4380630059606351 0.06239226515117106 0  0.5006787301249253 0.06237439860154879 0  0.5633068034978368 0.06235686918931581 0  0.6259472204822948 0.06234064353604349 0  0.6885993406788157 0.0623269901245331 0  0.7512624085230175 0.06231736016616146 0  0.8139375858016875 0.0623130849639193 0  0.8766340941827276 0.06231480417609003 0  0.9393851780850327 0.06232165074261378 0  1.002276565793341 0.06233255227952154 0  0 0.125 0  0.06262937409328014 0.1249728706821162 0  0.1252625285651843 0.1249451896833407 0  0.1879032754760296 0.1249164390813239 0  0.2505554005747811 0.1248861862261693 0  0.3132226132546876 0.1248541423959695 0  0.3759084487274205 0.1248202401954611 0  0.4386161068359732 0.1247847334420695 0  0.5013482174822625 0.1247483185067442 0  0.5641065392746313 0.1247122661482136 0  0.6268916377153081 0.124678534400758 0  0.6897026714926039 0.1246498024370626 0  0.7525375556675957 0.1246293234643294 0  0.8153938938579069 0.1246204674040762 0  0.8782706186500607 0.1246259408179638 0  0.9411669791307511 0.1246474255866907 0  1.004065404360732 0.1246888695852451 0  0 0.1875 0  0.06268936428895328 0.1874599844571372 0  0.1253844347540057 0.1874190896380744 0  0.1880909863309219 0.1873764793454819 0  0.2508148082669305 0.1873314291880863 0  0.3135616613006193 0.1872834077600278 0  0.3763371680301863 0.1872321889088157 0  0.4391466105217803 0.1871780045075266 0  0.501994609711964 0.187121743054187 0  0.5648846670841494 0.1870651887978115 0  0.6278185622565106 0.187011272680717 0  0.6907956115483286 0.1869642588414679 0  0.7538117497225717 0.1869296958719165 0  0.8168581155003088 0.1869137620645272 0  0.8799178400115679 0.1869211326338644 0  0.942957553283712 0.186948934406756 0  1.005909366596854 0.1869688448814247 0  0 0.25 0  0.06274366607342112 0.2499479774049917 0  0.1254949645646967 0.2498946957839037 0  0.1882616529765158 0.2498389391046989 0  0.25105159543482 0.2497796090826009 0  0.3138727584805295 0.2497158185432097 0  0.3767331266785511 0.249647029519206 0  0.4396405008732401 0.2495732544114418 0  0.5026021332704188 0.2494953387656161 0  0.565624141804893 0.2494153392631795 0  0.6287106252191793 0.2493369933307437 0  0.6918623489456674 0.2492662335740821 0  0.7550747349855733 0.2492116050418333 0  0.8183345580396924 0.2491842502716619 0  0.8816141344886742 0.2491967769105954 0  0.9448613043491352 0.2492598845390517 0  1.007985384663887 0.2493762255216621 0  0 0.3125 0  0.06279036102053051 0.3124372310249854 0  0.1255902340117479 0.3123727697557374 0  0.1884093328014635 0.3123049542478285 0  0.2512576286294719 0.3122322180237969 0  0.3141454223607233 0.3121531793387914 0  0.3770833338932055 0.3120667872500606 0  0.4400821641351095 0.3119725536615636 0  0.503152567626672 0.3118709087478023 0  0.5663044470760097 0.3117637251101568 0  0.6295459360260857 0.3116550586082063 0  0.6928817543488591 0.3115521393271646 0  0.7563105744849443 0.311466590674409 0  0.8198208123673361 0.3114157168612685 0  0.8833840951664418 0.3114234302231273 0  0.9469462353310122 0.3115199993645252 0  1.010418645580303 0.3117394711184396 0  0 0.375 0  0.06282757618882029 0.374928179078798 0  0.1256664221573001 0.374854191353405 0  0.188528104929629 0.3747758729490548 0  0.2514246580111444 0.3746910990258778 0  0.3143687708197527 0.3745978466155102 0  0.3773739089163816 0.374494320095625 0  0.4404543217957143 0.3743791780527797 0  0.5036248737209822 0.3742519186912736 0  0.5669006003070984 0.3741135071471391 0  0.6302958417666926 0.3739673620733961 0  0.693822720909666 0.3738208554474082 0  0.7574886089003339 0.3736874996095151 0  0.8212920736854691 0.3735899501100551 0  0.885216774056965 0.3735637434924877 0  0.949223265269604 0.3736611676640352 0  1.01324040984239 0.3739536832512284 0  0 0.4375 0  0.06285355602090457 0.4374212949931072 0  0.1257199151540888 0.4373399357626798 0  0.188612286155455 0.4372532285938781 0  0.2515446016327012 0.4371584265448296 0  0.314531862216483 0.4370527394557097 0  0.3775904447996345 0.4369334008385842 0  0.4407383453209031 0.4367978341314097 0  0.5039953088461497 0.4366439883357733 0  0.5673827745346435 0.4364709580436459 0  0.6309235276525196 0.4362800738242982 0  0.6946409003707904 0.4360767544632819 0  0.7585572913454343 0.4358735513371267 0  0.8226916801624945 0.4356949473709744 0  0.8870557252614701 0.4355844599199955 0  0.9516480533655941 0.4356141399805969 0  1.016446668861808 0.4358953513181171 0  0 0.5 0  0.06286676455558668 0.4999170634042777 0  0.1257475154826346 0.4998310169339342 0  0.188656756572539 0.4997386566150055 0  0.2516099995770778 0.4996366024211576 0  0.3146242890880146 0.4995212295977387 0  0.3777187439497938 0.499388635402278 0  0.4409151121793259 0.4992346769274375 0  0.5042383305979775 0.4990551468209424 0  0.5677170787509949 0.4988462101259963 0  0.6313843279988267 0.4986053263169281 0  0.6952779245279243 0.4983330567909862 0  0.7594413202076771 0.4980364502771603 0  0.8239246575355423 0.4977351273871717 0  0.888786415382988 0.4974716316210341 0  0.9540954994383484 0.4973275182024539 0  1.019933016971397 0.4974446781566274 0  0 0.5625 0  0.06286601330675555 0.5624159356641081 0  0.1257467079414646 0.5623283956397256 0  0.1886573846140872 0.5622337497922334 0  0.251614629847594 0.5621280525293435 0  0.3146370273572366 0.5620068770158139 0  0.3777459524961189 0.56186514710379 0  0.4409664827197237 0.5616969825065313 0  0.5043284692810621 0.5614955976170002 0  0.5678678499377846 0.5612533453912438 0  0.6316283708778336 0.5609621019928975 0  0.6956640891004578 0.5606144005785439 0  0.7600434351990041 0.5602061507923988 0  0.8248562965468017 0.5597426011874367 0  0.8902263679545175 0.559250557100778 0  0.9563311626519828 0.5588011920693142 0  1.023430483023236 0.558545957582656 0  0 0.625 0  0.06285060369895842 0.624918272320574 0  0.1257159602375061 0.6248328575911513 0  0.1886115184623665 0.624739858019797 0  0.2515542427754671 0.6246349267629273 0  0.3145634896364564 0.6245130017171969 0  0.3776620386169905 0.6243679880281401 0  0.4408773500649983 0.6241923728622574 0  0.5042431518474272 0.6239767629667348 0  0.5678015281609762 0.6237093580860026 0  0.6316058560306629 0.6233754355536341 0  0.6957253553963281 0.6229570849858423 0  0.7602529868208646 0.6224338578669605 0  0.8253204304167413 0.621786093717916 0  0.8911272377868756 0.621005335294686 0  0.957994684914417 0.620121189698022 0  1.026453924088539 0.619255101747923 0  0 0.6875 0  0.06282046652765771 0.6874242793842034 0  0.1256550220861825 0.6873448755309254 0  0.1885184869533282 0.6872578538962483 0  0.2514273327555578 0.6871587307232087 0  0.3144006717957722 0.6870421241297436 0  0.3774614659934056 0.6869013042384203 0  0.4406380628582736 0.6867275891051606 0  0.503966207858273 0.686509514300602 0  0.5674917690420898 0.6862316791858121 0  0.631274619810516 0.6858731469866204 0  0.6953946893465711 0.68540527460751 0  0.7599627355849029 0.6847889866852895 0  0.8251424566042576 0.6839722693722612 0  0.8912000419235568 0.6828919770913202 0  0.9586136037868815 0.6814966546298531 0  1.028284420401287 0.6798342668837967 0  0 0.75 0  0.06277627599848656 0.7499339486657025 0  0.1255651756677558 0.7498644774027678 0  0.188380033411907 0.7497879012179582 0  0.25123583375174 0.7496999461042874 0  0.3141502304947074 0.7495953575054281 0  0.377144831885426 0.7494673714209333 0  0.4402468861417165 0.7493069645919164 0  0.5034915475139297 0.7491017567610998 0  0.5669249760741587 0.7488343655369778 0  0.6306086739213296 0.7484798905250404 0  0.6946258851846239 0.7480019828469265 0  0.7590923526248469 0.7473465543890991 0  0.8241789966751851 0.7464315292034887 0  0.8901723009786576 0.7451308684303024 0  0.9576529098458098 0.7432597302102351 0  1.027930855829545 0.740667554330775 0  0 0.8125 0  0.06271951411133789 0.8124470144364855 0  0.1254493854978543 0.8123911477545658 0  0.1882005958286665 0.8123292743129166 0  0.2509856066028927 0.8122577189128112 0  0.3138192990964713 0.8121718799845197 0  0.3767201943759633 0.8120657049939295 0  0.439712102813073 0.8119309218269597 0  0.5028264020201058 0.8117558737001859 0  0.5661051944339741 0.8115237085199042 0  0.6296056240880497 0.8112095030079137 0  0.6934056032495168 0.8107755801515593 0  0.7576112760718542 0.810163596923375 0  0.8223684694154119 0.8092803109499972 0  0.8878954501943197 0.807969391369564 0  0.9546489681790071 0.8059493159350565 0  1.024340066908022 0.8026719628458123 0  0 0.875 0  0.06265246386421859 0.8749629380466689 0  0.1253123001617263 0.8749237888350941 0  0.1879873509204187 0.8748802767724427 0  0.2506865873312336 0.8748296997901845 0  0.3134208458075388 0.8747686307028572 0  0.3762038102361814 0.8746924930463787 0  0.4390533834620939 0.8745949262362027 0  0.501993648495749 0.8744668024036393 0  0.5650576785592744 0.8742946678833479 0  0.6282914412795935 0.8740582317833574 0  0.6917586898493309 0.8737262677112944 0  0.7555451960258601 0.8732498065652342 0  0.8197555654388879 0.8725501932210742 0  0.8844820726756689 0.8714943300513561 0  0.949705900690325 0.869824539435426 0  1.015259928767478 0.8668849082550296 0  0 0.9375 0  0.06257811765621026 0.9374809284272816 0  0.1251600736332808 0.9374607600189775 0  0.1877499607282876 0.9374382953850765 0  0.2503524890738072 0.9374121018698576 0  0.3129733976373576 0.937380348063094 0  0.3756200172071067 0.9373405657545529 0  0.4383020816642004 0.9372892885545632 0  0
[...]
<PointData  Vectors="f_54"> 
<DataArray  type="Float64"  Name="f_54"  NumberOfComponents="3" format="ascii">0.0000000000000000e+00 0.0000000000000000e+00 0.0000000000000000e+00  0.0000000000000000e+00 0.0000000000000000e+00 0.0000000000000000e+00  0.0000000000000000e+00 0.0000000000000000e+00 0.0000000000000000e+00  0.0000000000000000e+00 0.0000000000000000e+00 0.0000000000000000e+00  0.0000000000000000e+00 0.0000000000000000e+00 0.0000000000000000e+00  0.0000000000000000e+00 0.0000000000000000e+00 0.0000000000000000e+00  0.0000000000000000e+00 0.0000000000000000e+00 0.0000000000000000e+00  0.0000000000000000e+00 0.0000000000000000e+00 0.0000000000000000e+00  0.0000000000000000e+00 0.0000000000000000e+00 0.0000000000000000e+00  0.0000000000000000e+00 0.0000000000000000e+00 0.0000000000000000e+00  0.0000000000000000e+00 0.0000000000000000e+00 0.0000000000000000e+00  0.0000000000000000e+00 0.0000000000000000e+00 0.0000000000000000e+00  0.0000000000000000e+00 0.0000000000000000e+00 0.0000000000000000e+00  0.0000000000000000e+00 0.0000000000000000e+00 0.0000000000000000e+00  0.0000000000000000e+00 0.0000000000000000e+00 0.0000000000000000e+00  0.0000000000000000e+00 0.0000000000000000e+00 0.0000000000000000e+00  0.0000000000000000e+00 0.0000000000000000e+00 0.0000000000000000e+00  0.0000000000000000e+00 0.0000000000000000e+00 0.0000000000000000e+00  3.7887558888842593e-06 -1.0724909970050241e-07 0.0000000000000000e+00  7.7083280124181335e-06 -2.1962317428600121e-07 0.0000000000000000e+00  1.1894289186144249e-05 -3.4253739460380682e-07 0.0000000000000000e+00  1.6488363978133974e-05 -4.8188186868874152e-07 0.0000000000000000e+00  2.1641383881079463e-05 -6.4421775511262557e-07 0.0000000000000000e+00  2.7516058714516659e-05 -8.3688922112508522e-07 0.0000000000000000e+00  3.4289771420795112e-05 -1.0679676839464938e-06 0.0000000000000000e+00  4.2158270823174039e-05 -1.3458927723205526e-06 0.0000000000000000e+00  5.1343042944512570e-05 -1.6786226617465128e-06 0.0000000000000000e+00  6.2110521280126513e-05 -2.0721235718097526e-06 0.0000000000000000e+00  7.4826825391235955e-05 -2.5283712702713622e-06 0.0000000000000000e+00  9.0118622597707852e-05 -3.0446515879142946e-06 0.0000000000000000e+00  1.0936104757656739e-04 -3.6224666724795903e-06 0.0000000000000000e+00  1.3622826765197397e-04 -4.3206231027284889e-06 0.0000000000000000e+00  1.8192811717023086e-04 -5.4974264486889913e-06 0.0000000000000000e+00  2.8415990561089831e-04 -8.8774826706795933e-06 0.0000000000000000e+00  0.0000000000000000e+00 0.0000000000000000e+00 0.0000000000000000e+00  7.4531950861363387e-06 -2.0956067257849209e-07 0.0000000000000000e+00  1.5166113789592949e-05 -4.2917200888354076e-07 0.0000000000000000e+00  2.3408006574270276e-05 -6.6947775896971943e-07 0.0000000000000000e+00  3.2460844071715094e-05 -9.4212215047835681e-07 0.0000000000000000e+00  4.2625371118103953e-05 -1.2601949990507548e-06 0.0000000000000000e+00  5.4226580533234669e-05 -1.6385450118641764e-06 0.0000000000000000e+00  6.7618570232573714e-05 -2.0938059024635369e-06 0.0000000000000000e+00  8.3189295788532074e-05 -2.6438574887457178e-06 0.0000000000000000e+00  1.0136733370235632e-04 -3.3062656408253924e-06 0.0000000000000000e+00  1.2263692077098723e-04 -4.0950113333686805e-06 0.0000000000000000e+00  1.4757740223459280e-04 -5.0145309029451707e-06 0.0000000000000000e+00  1.7696425073364570e-04 -6.0495536199647240e-06 0.0000000000000000e+00  2.1200301671970732e-04 -7.1467417017817996e-06 0.0000000000000000e+00  2.5476392599994147e-04 -8.1692071714832233e-06 0.0000000000000000e+00  3.0844041808685371e-04 -8.7199938673710862e-06 0.0000000000000000e+00  3.7378705617998302e-04 -7.2731219979242247e-06 0.0000000000000000e+00  0.0000000000000000e+00 0.0000000000000000e+00 0.0000000000000000e+00  1.0862975185258629e-05 -3.0197425985405870e-07 0.0000000000000000e+00  2.2109465390738728e-05 -6.1846566225386418e-07 0.0000000000000000e+00  3.4137214143042602e-05 -9.6489718353686930e-07 0.0000000000000000e+00  4.7363920565328434e-05 -1.3582852467477859e-06 0.0000000000000000e+00  6.2236719120551401e-05 -1.8180206166709001e-06 0.0000000000000000e+00  7.9240548009309989e-05 -2.3665469491427505e-06 0.0000000000000000e+00  9.8904708689874594e-05 -3.0297531687349101e-06 0.0000000000000000e+00  1.2180667103310963e-04 -3.8367091521147706e-06 0.0000000000000000e+00  1.4857191394090319e-04 -4.8180605998663279e-06 0.0000000000000000e+00  1.7986811471668176e-04 -6.0018967445971160e-06 0.0000000000000000e+00  2.1638999930191589e-04 -7.4051429595618032e-06 0.0000000000000000e+00  2.5882179918522940e-04 -9.0174799274178670e-06 0.0000000000000000e+00  3.0772589036685285e-04 -1.0773835451387579e-05 0.0000000000000000e+00  3.6316989390177448e-04 -1.2514086744265675e-05 0.0000000000000000e+00  4.2349621500997498e-04 -1.3958629544138255e-05 0.0000000000000000e+00  4.8177456617351771e-04 -1.4935245196510028e-05 0.0000000000000000e+00  0.0000000000000000e+00 0.0000000000000000e+00 0.0000000000000000e+00  1.3893324729881787e-05 -3.8000628785446207e-07 0.0000000000000000e+00  2.8285299402903130e-05 -7.7825256284444971e-07 0.0000000000000000e+00  4.3693372348996040e-05 -1.2141867290420168e-06 0.0000000000000000e+00  6.0663107118367377e-05 -1.7094836708796674e-06 0.0000000000000000e+00  7.9781737553086124e-05 -2.2892503841040468e-06 0.0000000000000000e+00  1.0169031173056447e-04 -2.9832663349689612e-06 0.0000000000000000e+00  1.2709308106783633e-04 -3.8271270361514330e-06 0.0000000000000000e+00  1.5676168242230109e-04 -4.8629505600448335e-06 0.0000000000000000e+00  1.9152959793418864e-04 -6.1389116042725853e-06 0.0000000000000000e+00  2.3226824978219538e-04 -7.7061488689988310e-06 0.0000000000000000e+00  2.7982718833217019e-04 -9.6103455252617052e-06 0.0000000000000000e+00  3.3490074315293330e-04 -1.1873263662863501e-05 0.0000000000000000e+00  3.9773857720944861e-04 -1.4456581123382474e-05 0.0000000000000000e+00  4.6752657592408957e-04 -1.7196783723397668e-05 0.0000000000000000e+00  5.4112957220107862e-04 -1.9694639647828358e-05 0.0000000000000000e+00  6.1089714435471232e-04 -2.1109721190852650e-05 0.0000000000000000e+00  0.0000000000000000e+00 0.0000000000000000e+00 0.0000000000000000e+00  1.6428741425013282e-05 -4.3993744202338456e-07 0.0000000000000000e+00  3.3458632931313694e-05 -9.0080059288442897e-07 0.0000000000000000e+00  5.1713968787549766e-05 -1.4049724219034817e-06 0.0000000000000000e+00  7.1856336898008295e-05 -1.9776531171714333e-06 0.0000000000000000e+00  9.4603167552733381e-05 -2.6485295096071451e-06 0.0000000000000000e+00  1.2074522340754046e-04 -3.4537276932331556e-06 0.0000000000000000e+00  1.5116151783149649e-04 -4.4380739157958656e-06 0.0000000000000000e+00  1.8682860039999529e-04 -5.6575418545465057e-06 0.0000000000000000e+00  2.2881828006116725e-04 -7.1814209159417339e-06 0.0000000000000000e+00  2.7827250857788085e-04 -9.0929959345560948e-06 0.0000000000000000e+00  3.3633421124027292e-04 -1.1486011294084586e-05 0.0000000000000000e+00  4.0399497993559444e-04 -1.4451271194632295e-05 0.0000000000000000e+00  4.8179136111364687e-04 -1.8042432529453874e-05 0.0000000000000000e+00  5.6924534231828918e-04 -2.2201052500270183e-05 0.0000000000000000e+00  6.6394022376331258e-04 -2.6606693919075141e-05 0.0000000000000000e+00  7.6027707395286723e-04 -3.0398461305960688e-05 0.0000000000000000e+00  0.0000000000000000e+00 0.0000000000000000e+00 0.0000000000000000e+00  1.8367071057119914e-05 -4.7910539979060593e-07 0.0000000000000000e+00  3.7420722940244260e-05 -9.8052239417359167e-07 0.0000000000000000e+00  5.7874625766767853e-05 -1.5281569025639600e-06 0.0000000000000000e+00  8.0489678453544641e-05 -2.1491424066531177e-06 0.0000000000000000e+00  1.0609845974953205e-04 -2.8759085663666969e-06 0.0000000000000000e+00  1.3562986641639689e-04 -3.7488464645678788e-06 0.0000000000000000e+00  1.7013297917118126e-04 -4.8198492767843572e-06 0.0000000000000000e+00  2.1079779428785094e-04 -6.1570311829179579e-06 0.0000000000000000e+00  2.5896789011491681e-04 -7.8508453340369372e-06 0.0000000000000000e+00  3.1613553317616825e-04 -1.0021431958916632e-05 0.0000000000000000e+00  3.8390201819120347e-04 -1.2825878448478154e-05 0.0000000000000000e+00  4.6387420842753567e-04 -1.6461227724239599e-05 0.0000000000000000e+00  5.5745358320684996e-04 -2.1152760333512971e-05 0.0000000000000000e+00  6.6546588698147098e-04 -2.7104392128441913e-05 0.0000000000000000e+00  7.8760518812449074e-04 -3.4365319520601364e-05 0.0000000000000000e+00  9.2177172659997273e-04 -4.2532679827326817e-05 0.0000000000000000e+00  0.0000000000000000e+00 0.0000000000000000e+00 0.0000000000000000e+00  1.9623964804419647e-05 -4.9616283668351110e-07 0.0000000000000000e+00  3.9998125901242034e-05 -1.0145521739536113e-06 0.0000000000000000e+00  6.1903028117072845e-05 -1.5789509896690794e-06 0.0000000000000000e+00  8.6176408172303096e-05 -2.2164403832297421e-06 0.0000000000000000e+00  1.1374403896270260e-04 -2.9596555364246382e-06 0.0000000000000000e+00  1.4565284731457158e-04 -3.8499182420666353e-06 0.0000000000000000e+00  1.8310660027123616e-04 -4.9418126497012411e-06 0.0000000000000000e+00  2.2750372673703594e-04 -6.3100589710321647e-06 0.0000000000000000e+00  2.8047544436180666e-04 -8.0599410643932397e-06 0.0000000000000000e+00  3.4391985927337542e-04 -1.0343002662790250e-05 0.0000000000000000e+00  4.2002364160670055e-04 -1.3379977175880758e-05 0.0000000000000000e+00  5.1125733594668734e-04 -1.7492140618761048e-05 0.0000000000000000e+00  6.2032564830237047e-04 -2.3138419475201994e-05 0.0000000000000000e+00  7.5005841287118544e-04 -3.0944243373915097e-05 0.0000000000000000e+00  9.0326064168307204e-04 -4.1681515511567160e-05 0.0000000000000000e+00  1.0826291685236461e-03 -5.6106365157655274e-05 0.0000000000000000e+00  0.0000000000000000e+00 0.0000000000000000e+00 0.0000000000000000e+00  2.0137551244640968e-05 -4.9124061610452461e-07 0.0000000000000000e+00  4.1062393618128117e-05 -1.0031395999309802e-06 0.0000000000000000e+00  6.3594374373335746e-05 -1.5576567466687346e-06 0.0000000000000000e+00  8.8619365772747499e-05 -2.1796522314940372e-06 0.0000000000000000e+00  1.1712618449994905e-04 -2.8989733004289178e-06 0.0000000000000000e+00  1.5024836839802101e-04 -3.7535294062100912e-06 0.0000000000000000e+00  1.8931282089406176e-04 -4.7941259130952690e-06 0.0000000000000000e+00  2.3589764920444454e-04 -6.0923852425434148e-06 0.0000000000000000e+00  2.9190189460743252e-04 -7.7540629766673031e-06 0.0000000000000000e+00  3.5963027196769158e-04 -9.9417294493458194e-06 0.0000000000000000e+00  4.4189659173720448e-04 -1.2913473620087320e-05 0.0000000000000000e+00  5.4215078825257002e-04 -1.7088222454213680e-05 0.0000000000000000e+00  6.6463869551345179e-04 -2.3152918231504912e-05 0.0000000000000000e+00  8.1461866475903799e-04 -3.2229352544714151e-05 0.0000000000000000e+00  9.9870798360026584e-04 -4.6112386896603779e-05 0.0000000000000000e+00  1.2255750366971466e-03 -6.7573397771904334e-05 0.0000000000000000e+00  0.0000000000000000e+00 0.0000000000000000e+00 0.0000000000000000e+00  1.9872961105685599e-05 -4.6595042556693849e-07 0.0000000000000000e+00  4.0539662715851196e-05 -9.4970528494927204e-07 0.0000000000000000e+00  6.2827187344031564e-05 -1.4699022297001933e-06 0.0000000000000000e+00  8.7634948411242520e-05 -2.0471828159320535e-06 0.0000000000000000e+00  1.1597631816787105e-04 -2.7056767606925657e-06 0.0000000000000000e+00  1.4902764822001039e-04 -3.4752991649233230e-06 0.0000000000000000e+00  1.8818848070858640e-04 -4.3956101320902300e-06 0.0000000000000000e+00  2.3515825544745777e-04 -5.5226718387989886e-06 0.0000000000000000e+00  2.9203726455790291e-04 -6.9416926892342817e-06 0.0000000000000000e+00  3.6146356471485113e-04 -8.7909258488489207e-06 0.0000000000000000e+00  4.4680395238166307e-04 -1.1307562737000612e-05 0.0000000000000000e+00  5.5242742961177170e-04 -1.4916590326943022e-05 0.0000000000000000e+00  6.8410661843224235e-04 -2.0402712760728601e-05 0.0000000000000000e+00  8.4962406889705321e-04 -2.9238804543842115e-05 0.0000000000000000e+00  1.0597365828465507e-03 -4.4197021374067579e-05 0.0000000000000000e+00  1.3298906950926722e-03 -7.0454400300498532e-05 0.0000000000000000e+00  0.0000000000000000e+00 0.0000000000000000e+00 0.0000000000000000e+00  1.8826170904954545e-05 -4.2317913656909952e-07 0.0000000000000000e+00  3.8418985897621195e-05 -8.6043503946666528e-07 0.0000000000000000e+00  5.9577521536244383e-05 -1.3260639058742125e-06 0.0000000000000000e+00  8.3175623957798382e-05 -1.8350898006721573e-06 0.0000000000000000e+00  1.1020583519611998e-04 -2.4037700318049104e-06 0.0000000000000000e+00  1.4183258911935873e-04 -3.0504183022144426e-06 0.0000000000000000e+00  1.7945987700693878e-04 -3.7969645997153369e-06 0.0000000000000000e+00  2.2482113452836601e-04 -4.6721928342503279e-06 0.0000000000000000e+00  2.8010349639351074e-04 -5.7187662896915332e-06 0.0000000000000000e+00  3.4812620232346346e-04 -7.0088010128194862e-06 0.0000000000000000e+00  4.3260631994115255e-04 -8.6788439036108466e-06 0.0000000000000000e+00  5.3856835927309143e-04 -1.1009316123627674e-05 0.0000000000000000e+00  6.7299455456226872e-04 -1.4606655913208107e-05 0.0000000000000000e+00  8.4587942546802074e-04 -2.0822155842078982e-05 0.0000000000000000e+00  1.0719665024863845e-03 -3.2702657361633436e-05 0.0000000000000000e+00  1.3737234231580081e-03 -5.7075445805463689e-05 0.0000000000000000e+00  0.0000000000000000e+00 0.0000000000000000e+00 0.0000000000000000e+00  1.7026550163132973e-05 -3.6667166721309639e-07 0.0000000000000000e+00  3.4758042977306272e-05 -7.4338728004464284e-07 0.0000000000000000e+00  5.3929161143249133e-05 -1.1397782698423016e-06 0.0000000000000000e+00  7.5346970019784650e-05 -1.5648206256036082e-06 0.0000000000000000e+00  9.9933968113608844e-05 -2.0262006515465621e-06 0.0000000000000000e+00  1.2878112628202540e-04 -2.5292934198847818e-06 0.0000000000000000e+00  1.6321671576259667e-04 -3.0755857751176198e-06 0.0000000000000000e+00  2.0489982467987086e-04 -3.6604198144976952e-06 0.0000000000000000e+00  2.5595302610984178e-04 -4.2701995231736132e-06 0.0000000000000000e+00  3.1915896885837617e-04 -4.8801784662727123e-06 0.0000000000000000e+00  3.9826549609389797e-04 -5.4571030027755827e-06 0.0000000000000000e+00  4.9848336752725069e-04 -5.9809004691845106e-06 0.0000000000000000e+00  6.2734045458378294e-04 -6.5308049071922811e-06 0.0000000000000000e+00  7.9621280482109001e-04 -7.5794923974973797e-06 0.0000000000000000e+00  1.0231168038282255e-03 -1.0929845446007162e-05 0.0000000000000000e+00  1.3376549477058213e-03 -2.2360091159353940e-05 0.0000000000000000e+00  0.0000000000000000e+00 0.0000000000000000e+00 0.0000000000000000e+00  1.4537548109225514e-05 -3.0046170661412649e-07 0.0000000000000000e+00  2.9684959235829205e-05 -6.0723399403974062e-07 0.0000000000000000e+00  4.6077505124762784e-05 -9.2572157660712961e-07 0.0000000000000000e+00  6.4415308348896166e-05 -1.2595438421035129e-06 0.0000000000000000e+00  8.5502084172289441e-05 -1.6089282212353375e-06 0.0000000000000000e+00  1.1029321601911439e-04 -1.9680431096088240e-06 0.0000000000000000e+00  1.3995854520405714e-04 -2.3204764825490828e-06 0.0000000000000000e+00  1.7596812393301677e-04 -2.6315058459308774e-06 0.0000000000000000e+00  2.2021442021621506e-04 -2.8347877234243745e-06 0.0000000000000000e+00  2.7519463774101222e-04 -2.8092437435193622e-06 0.0000000000000000e+00  3.4429823900175474e-04 -2.3386224282622283e-06 0.0000000000000000e+00  4.3229403456691992e-04 -1.0410313738941537e-06 0.0000000000000000e+00  5.4623360372560751e-04 1.7475934815889879e-06 0.0000000000000000e+00  6.9730505080367133e-04 7.1184217379641648e-06 0.0000000000000000e+00  9.0495722087315501e-04 1.6432685613927703e-05 0.0000000000000000e+00  1.2058563869290976e-03 2.8508708575136275e-05 0.0000000000000000e+00  0.0000000000000000e+00 0.0000000000000000e+00 0.0000000000000000e+00  1.1455145037117878e-05 -2.2826990141023969e-07 0.0000000000000000e+00  2.3395365652709373e-05 -4.5990354171869980e-07 0.0000000000000000e+00  3.6325530560014232e-05 -6.9713953717331832e-07 0.0000000000000000e+00  5.0803106956114221e-05 -9.3988265664579631e-07 0.0000000000000000e+00  6.7469502494415205e-05 -1.1836135371147925e-06 0.0000000000000000e+00  8.7088883530280978e-05 -1.4158723845387808e-06 0.0000000000000000e+00  1.1059854443929927e-04 -1.6101504906852200e-06 0.0000000000000000e+00  1.3917678097523972e-04 -1.7150667356995334e-06 0.0000000000000000e+00  1.7433743607810494e-04 -1.6348029119140384e-06 0.0000000000000000e+00  2.1806628676236201e-04 -1.1928090845013973e-06 0.0000000000000000e+00  2.7302752235157580e-04 -6.1980669775722244e-08 0.0000000000000000e+00  3.4290357345853991e-04 2.3768063444197527e-06 0.0000000000000000e+00  4.3304458910109939e-04 7.3427095052923044e-06 0.0000000000000000e+00  5.5201238090040665e-04 1.7389850010391676e-05 0.0000000000000000e+00  7.1609218155595277e-04 3.8330085009860412e-05 0.0000000000000000e+00  9.6249826963689452e-04 8.4107380128226489e-05 0.0000000000000000e+00  0.0000000000000000e+00 0.0000000000000000e+00 0.0000000000000000e+00  7.9039841573759319e-06 -1.5302064054134796e-07 0.0000000000000000e+00  1.6144482210140436e-05 -3.0747784429656811e-07 0.0000000000000000e+00  2.5071382374512344e-05 -4.6380104936882764e-07 0.0000000000000000e+00  3.5071276358949827e-05 -6.2028444228929332e-07 0.0000000000000000e+00  4.6589158372674489e-05 -7.7117620763111250e-07 0.0000000000000000e+00  6.0155051274569378e-05 -9.0344940160411740e-07 0.0000000000000000e+00  7.6417943884717792e-05 -9.9115544767137249e-07 0.0000000000000000e+00  9.6190055749582480e-05 -9.8535154189676055e-07 0.0000000000000000e+00  1.2050493726379889e-04 -7.9581398872081455e-07 0.0000000000000000e+00  1.5069240756159018e-04 -2.5716704529924170e-07 0.0000000000000000e+00  1.8846951546153815e-04 9.3553464380689531e-07 0.0000000000000000e+00  2.3603549915095505e-04 3.3543862629835746e-06 0.0000000000000000e+00  2.9614900416301916e-04 8.1106411663732835e-06 0.0000000000000000e+00  3.7233398016034999e-04 1.7527428166990432e-05 0.0000000000000000e+00  4.7131408871695747e-04 3.7333239794178278e-05 0.0000000000000000e+00  6.2660578735149663e-04 8.7282328969826771e-05 0.0000000000000000e+00  0.0000000000000000e+00 0.0000000000000000e+00 0.0000000000000000e+00  4.0314213339242708e-06 -7.6611272767006152e-08 0.0000000000000000e+00  8.2347315141644700e-06 -1.5366363550414662e-07 0.0000000000000000e+00  1.2788462385853469e-05 -2.3100904672940475e-07 0.0000000000000000e+00  1.7889790999671051e-05 -3.0723872075725440e-07 0.0000000000000000e+00  2.3765446193085281e-05 -3.7855815523345181e-07 0.0000000000000000e+00  3.0684913610313202e-05 -4.3688852014961240e-07 0.0000000000000000e+00  3.8976866012825098e-05 -4.6655655523335341e-07 0.0000000000000000e+00  4.9049649485878996e-05 -4.3843423901760035e-07 0.0000000000000000e+00  6.1415754168113573e-05 -2.9948882996685447e-07 0.0000000000000000e+00  7.6716443337027465e-05 4.5800180641553624e-08 0.0000000000000000e+00  9.5728889924362774e-05 7.6764249777361665e-07 0.0000000000000000e+00  1.1928706497622270e-04 2.1616319475544260e-06 0.0000000000000000e+00  1.4784947187770792e-04 4.7005423510130182e-06 0.0000000000000000e+00  1.7964383110021542e-04 8.9208719383978684e-06 0.0000000000000000e+00  2.0322084435815191e-04 1.4188352790503285e-05 0.0000000000000000e+00  1.7395840094533964e-04 1.2660913866632295e-05 0.0000000000000000e+00  0.0000000000000000e+00 0.0000000000000000e+00 0.0000000000000000e+00  0.0000000000000000e+00 0.0000000000000000e+00 0.0000000000000000e+00  0.0000000000000000e+00 0.0000000000000000e+00 0.0000000000000000e+00  0.0000000000000000e+00 0.0000000000000000e+00 0.0000000000000000e+00  0.0000000000000000e+00 0.0000000000000000e+00 0.0000000000000000e+00  0.0000000000000000e+00 0.0000000000000000e+00 0.0000000000000000e+00  0.0000000000000000e+00 0.0000000000000000e+00 0.0000000000000000e+00  0.0000000000000000e+00 0.0000000000000000e+00 0.0000000000000000e+00  0.0000000000000000e+00 0.0000000000000000e+00 0.0000000000000000e+00  0.00