<?xml version="1.0"?>
<VTKFile type="UnstructuredGrid"  version="0.1"  >
<UnstructuredGrid>
<Piece  NumberOfPoints="289" NumberOfCells="512">
<Points>
<DataArray  type="Float64"  NumberOfComponents="3"  format="ascii">0 0 0  0.0625 0 0  0.125 0 0  0.1875 0 0  0.25 0 0  0.3125 0 0  0.375 0 0  0.4375 0 0  0.5 0 0  0.5625 0 0  0.625 0 0  0.6875 0 0  0.75 0 0  0.8125 0 0  0.875 0 0  0.9375 0 0  1 0 0  0 0.0625 0  0.06262489424975715 0.06247030345476885 0  0.1252541667435779 0.06243996990147117 0  0.1878923927377545 0.06240838368084448 0  0.2505444058427056 0.06237500509690165 0  0.3132154448326111 0.06233942160693562 0  0.3759113264433635 0.06230141395422295 0  0.4386386769854145 0.06226103782499012 0  0.5014052982376519 0.06221871408082888 0  0.564220846734051 0.06217530446072372 0  0.6270982683688946 0.06213211499120222 0  0.6900571340876482 0.06209069064492328 0  0.7531320254723929 0.06205206412894875 0  0.8163951734932545 0.0620145282872744 0  0.8800219201919162 0.06196698853846475 0  0.9444935696310311 0.06186735384066232 0  1.011286201699624 0.06156393390988796 0  0 0.125 0  0.06274553314329406 0.1249412097445216 0  0.1254997539746011 0.1248811041919479 0  0.1882717448595984 0.1248184060046105 0  0.251071122788932 0.1247519782408898 0  0.3139083414814322 0.1246809228052758 0  0.3767950404261498 0.1246047125606631 0  0.439744491443408 0.1245233627143233 0  0.5027722495965959 0.1244376364811104 0  0.5658972386435795 0.1243492574216011 0  0.6291437698333106 0.1242610569714351 0  0.6925455639713413 0.1241769091959831 0  0.7561539742561483 0.1241011999644312 0  0.8200543600570461 0.1240375678009573 0  0.8843947371644513 0.1239875048053804 0  0.9494140523403727 0.1239550293786619 0  1.015344800473315 0.123992356876282 0  0 0.1875 0  0.06285757318716698 0.187413411259452 0  0.125727942558754 0.1873247578605524 0  0.188624484697804 0.1872320201010487 0  0.2515613940089989 0.1871333590274171 0  0.3145541380187635 0.187027252222052 0  0.3776199670927473 0.1869126869981519 0  0.4407785230712606 0.1867894283458184 0  0.5040526261910013 0.1866583714415424 0  0.5674693805936077 0.1865219693401305 0  0.6310618280703268 0.1863846858740255 0  0.694871446267754 0.1862533478409412 0  0.7589515515665389 0.1861371402821535 0  0.8233700591269163 0.1860467598421036 0  0.8882037602276411 0.1859916582049316 0  0.9534975710148788 0.1859716795174276 0  1.019125267811372 0.1859448441983079 0  0 0.25 0  0.06295689837618158 0.2498876690522861 0  0.1259303636111934 0.2497724355981531 0  0.188937706480834 0.2496514340037478 0  0.2519973389375231 0.2495219812933493 0  0.3151293792273401 0.2493817312460769 0  0.3783563120976968 0.2492289124466869 0  0.441703731374484 0.2490626857230886 0  0.5052011941537853 0.248883658617282 0  0.5688831996514027 0.2486945893433383 0  0.6327902227688488 0.2485012901611446 0  0.6969694444115058 0.2483136824375772 0  0.761473972671931 0.2481468311738011 0  0.8263571583428091 0.2480215363246241 0  0.8916538416000126 0.2479635773131023 0  0.957333114904889 0.2479999981657906 0  1.023207600515729 0.2481518678981723 0  0 0.3125 0  0.0630397497596494 0.3123648283719992 0  0.1260993608093441 0.3122258296974935 0  0.1891995719102944 0.3120791852656826 0  0.2523625018967998 0.3119212078830773 0  0.3156124050499717 0.3117484836755617 0  0.3789764894892472 0.3115581211819265 0  0.4424858172945639 0.3113481644597108 0  0.5061762878491994 0.3111182449136172 0  0.5700896506210815 0.310870566145852 0  0.6342743423197648 0.310611329388114 0  0.6987855726575061 0.310352694342947 0  0.7636832691277726 0.3101152886759427 0  0.8290249613857004 0.3099310486958929 0  0.8948486007975857 0.3098456843955344 0  0.9611400728122248 0.3099192993983521 0  1.027790362445721 0.3102230607245506 0  0 0.375 0  0.0631028545329671 0.3748458150809473 0  0.1262282511289105 0.3746868194277327 0  0.1893997065625126 0.3745181578026184 0  0.252642384092167 0.3743349909952006 0  0.3159840000745076 0.3741325831149321 0  0.3794558190238351 0.3739065072504866 0  0.4430937690274581 0.3736530447258864 0  0.5069396996494792 0.3733698905753048 0  0.571042766775588 0.3730573311526636 0  0.6354608226664418 0.3727201277792377 0  0.7002614393473068 0.3723704073697551 0  0.7655216971845991 0.3720318736648703 0  0.8313251107708527 0.3717454807656278 0  0.8977535341490827 0.371576123201959 0  0.9648736275626704 0.3716186854944482 0  1.032726260745403 0.3720002212499434 0  0 0.4375 0  0.06314355540147723 0.4373316067906883 0  0.1263115874205186 0.4371574178978881 0  0.1895296026489312 0.4369715155936522 0  0.2528249923090273 0.4367678153258979 0  0.3162280821844649 0.4365400486533552 0  0.379773313122435 0.4362818532421151 0  0.4435006191844105 0.4359870526593112 0  0.5074570948147493 0.4356502641988391 0  0.5716990758200011 0.4352680630364727 0  0.6362947949553656 0.4348410694182951 0  0.7013277904856177 0.4343775169340908 0  0.7669012100854796 0.4338990623278093 0  0.8331430707772055 0.4334496288364084 0  0.9002127190973829 0.4331074613471583 0  0.968310560813641 0.432998558445667 0  1.03770062700208 0.4333061511439743 0  0 0.5 0  0.06315993883749502 0.4998231745966226 0  0.126345421701461 0.4996396559630373 0  0.189583031608159 0.4994425315168344 0  0.2529014227642111 0.4992244820414978 0  0.3163324872657657 0.4989776115991938 0  0.3799126985544358 0.4986933429349494 0  0.4436847429566587 0.4983624488357098 0  0.5076996247764792 0.4979753544237389 0  0.5720195722793072 0.4975229627844369 0  0.6367223308444317 0.4969984651114717 0  0.7019078691680791 0.496400950834141 0  0.7677091915138401 0.4957421712747148 0  0.8343098043275072 0.4950584003862478 0  0.901971311607482 0.4944291868281001 0  0.9710761790771906 0.4940015086696989 0  1.04219799278611 0.4940072163143467 0  0 0.5625 0  0.0631509563581004 0.5623213954217172 0  0.1263275575665864 0.5621354010459478 0  0.1895564493495886 0.5619343020118394 0  0.2528664578227612 0.5617097072470502 0  0.3162898239989352 0.5614521919539834 0  0.3798636462053301 0.5611509323463254 0  0.4436316730902821 0.5607933650715861 0  0.5076467082203631 0.5603649589788239 0  0.5719741405655087 0.5598493028252386 0  0.6366976403369049 0.5592289544495228 0  0.7019290899279376 0.5584879968456358 0  0.7678266621714369 0.5576182450031788 0  0.8346277628025809 0.5566328345728134 0  0.9027067001418655 0.5555930877298606 0  0.9726689799875767 0.5546528069531935 0  1.045498716009313 0.5541058616607148 0  0 0.625 0  0.06311652788798505 0.6248269410690791 0  0.1262577683474397 0.6246461218400546 0  0.1894493539873865 0.6244493601567384 0  0.2527191087983593 0.6242275417538594 0  0.3160982846594815 0.6239700699080293 0  0.3796230063872277 0.6236642113732999 0  0.4433360643012785 0.6232943087590757 0  0.5072893204322738 0.6228408512698695 0  0.57154730069223 0.6222794624572499 0  0.6361932725004052 0.6215800476204247 0  0.7013407749344924 0.6207068346494286 0  0.7671571534896376 0.6196213444039602 0  0.8339124815338137 0.6182937034434033 0  0.9020772322510857 0.6167354816971199 0  0.9724985818389499 0.6150767926854962 0  1.046681635388159 0.6136813089608417 0  0 0.6875 0  0.06305761278922577 0.6873401572058019 0  0.1261379498708647 0.6871726259116877 0  0.1892645417108932 0.6869892286162702 0  0.2524630122712043 0.6867806671601 0  0.3157622480520086 0.6865358148210517 0  0.3791957447555312 0.6862408064290066 0  0.4428032237614071 0.6858778228884113 0  0.5066326866359259 0.6854234354059154 0  0.5707433011266303 0.6848463449537303 0  0.635210176123184 0.6841043597236931 0  0.7001339865310858 0.6831406332011882 0  0.7656636237343412 0.6818800575392505 0  0.8320533079237493 0.6802303130492954 0  0.8998042064951848 0.6781064767785794 0  0.9699722739574701 0.6755507119867309 0  1.044706633794023 0.6730742294294323 0  0 0.75 0  0.06297623380119606 0.7498609519374864 0  0.125972176500686 0.7497148124758278 0  0.1890082081849326 0.7495539833951661 0  0.2521065946575146 0.7493696769987944 0  0.3152925289752597 0.7491511296082318 0  0.3785953057636967 0.7488845403793761 0  0.442049650175933 0.7485515692744056 0  0.505697195976295 0.7481271435369666 0  0.569588092628609 0.7475761852479508 0  0.6337828754630515 0.7468486510077305 0  0.6983557353087193 0.7458719198417629 0  0.7634047530381471 0.7445390712507621 0  0.8290915718018206 0.742691559405205 0  0.8957919566592155 0.7401004817969564 0  0.9646153222479668 0.7365023166717312 0  1.038342934084165 0.7322110671106847 0  0 0.8125 0  0.06287544226399946 0.8123887171958102 0  0.1257666368622941 0.8122714919801624 0  0.188689860094647 0.8121419198054096 0  0.2516629587506381 0.8119924941155248 0  0.3147062162199563 0.8118138541059883 0  0.3778433180314351 0.8115937367495448 0  0.4411023881605254 0.81131543941077 0  0.5045169439906212 0.8109554848658476 0  0.568126321342888 0.8104799832245092 0  0.6319744735852142 0.8098388348962343 0  0.6961048646604818 0.8089562484428652 0  0.7605480633636107 0.8077145972218563 0  0.825303653278374 0.8059251257271589 0  0.8903643419162939 0.8032708951897128 0  0.9561150683142187 0.7992023553443377 0  1.02664174741813 0.7929900170280946 0  0 0.875 0  0.06275921858627763 0.8749223048513785 0  0.1255294379387638 0.8748403226368767 0  0.1883220250162961 0.8747494132950067 0  0.2511494946452001 0.8746440862055297 0  0.3140261526746368 0.8745174068357539 0  0.376968825156185 0.8743601522389752 0  0.4399976465489441 0.8741595428425868 0  0.5031367443894993 0.8738972686048614 0  0.5664142668767611 0.8735463391625343 0  0.6298601048096908 0.8730659645991409 0  0.6934966591876249 0.872393098368874 0  0.7573100882225612 0.8714280252507671 0  0.8211704210719361 0.8700072348986002 0  0.8846340390135418 0.8678378156912708 0  0.9465590620773582 0.8642776476066653 0  1.004814226725466 0.8574420966038929 0  0 0.9375 0  0.06263230828860504 0.9374600723044094 0  0.1252702782308699 0.9374178989623877 0  0.1879197645738743 0.9373710433388074 0  0.2505872408407105 0.9373166058013357 0  0.3132801573961244 0.9372508964113798 0  0.3760073663112574 0.9371689627280162 0  0.4387796178087119 0.93706386938086
[...]
<PointData  Vectors="f_54"> 
<DataArray  type="Float64"  Name="f_54"  NumberOfComponents="3" format="ascii">0.0000000000000000e+00 0.0000000000000000e+00 0.0000000000000000e+00  0.0000000000000000e+00 0.0000000000000000e+00 0.0000000000000000e+00  0.0000000000000000e+00 0.0000000000000000e+00 0.0000000000000000e+00  0.0000000000000000e+00 0.0000000000000000e+00 0.0000000000000000e+00  0.0000000000000000e+00 0.0000000000000000e+00 0.0000000000000000e+00  0.0000000000000000e+00 0.0000000000000000e+00 0.0000000000000000e+00  0.0000000000000000e+00 0.0000000000000000e+00 0.0000000000000000e+00  0.0000000000000000e+00 0.0000000000000000e+00 0.0000000000000000e+00  0.0000000000000000e+00 0.0000000000000000e+00 0.0000000000000000e+00  0.0000000000000000e+00 0.0000000000000000e+00 0.0000000000000000e+00  0.0000000000000000e+00 0.0000000000000000e+00 0.0000000000000000e+00  0.0000000000000000e+00 0.0000000000000000e+00 0.0000000000000000e+00  0.0000000000000000e+00 0.0000000000000000e+00 0.0000000000000000e+00  0.0000000000000000e+00 0.0000000000000000e+00 0.0000000000000000e+00  0.0000000000000000e+00 0.0000000000000000e+00 0.0000000000000000e+00  0.0000000000000000e+00 0.0000000000000000e+00 0.0000000000000000e+00  0.0000000000000000e+00 0.0000000000000000e+00 0.0000000000000000e+00  0.0000000000000000e+00 0.0000000000000000e+00 0.0000000000000000e+00  -4.8835724767657146e-07 -1.5486775314422757e-07 0.0000000000000000e+00  -9.6512677932089370e-07 -3.1231388732605637e-07 0.0000000000000000e+00  -1.4148333662096943e-06 -4.7487386593303232e-07 0.0000000000000000e+00  -1.8126519842410394e-06 -6.4471212144858047e-07 0.0000000000000000e+00  -2.1180846233455157e-06 -8.2347689984113526e-07 0.0000000000000000e+00  -2.2663624563774203e-06 -1.0122498748388189e-06 0.0000000000000000e+00  -2.1561752863508026e-06 -1.2117352697286244e-06 0.0000000000000000e+00  -1.6313313928169191e-06 -1.4229923426810606e-06 0.0000000000000000e+00  -4.5162252025674754e-07 -1.6493478261405440e-06 0.0000000000000000e+00  1.7576839295973935e-06 -1.9009028243815762e-06 0.0000000000000000e+00  5.6041220332936960e-06 -2.2051383163152114e-06 0.0000000000000000e+00  1.2146375812134913e-05 -2.6335191601368809e-06 0.0000000000000000e+00  2.3448139258896650e-05 -3.3756764751845003e-06 0.0000000000000000e+00  4.4165118115290011e-05 -4.9725144116159794e-06 0.0000000000000000e+00  8.6672521014608545e-05 -9.1447353940863814e-06 0.0000000000000000e+00  1.9080096333391405e-04 -2.2327109654804793e-05 0.0000000000000000e+00  0.0000000000000000e+00 0.0000000000000000e+00 0.0000000000000000e+00  -9.8970384552482341e-07 -3.0763040118993399e-07 0.0000000000000000e+00  -1.9604940533686876e-06 -6.2066640239198814e-07 0.0000000000000000e+00  -2.8862004143361328e-06 -9.4441043824404785e-07 0.0000000000000000e+00  -3.7230072432419303e-06 -1.2833919249173570e-06 0.0000000000000000e+00  -4.3974769183427495e-06 -1.6410126403273265e-06 0.0000000000000000e+00  -4.7902774552282963e-06 -2.0193030165022260e-06 0.0000000000000000e+00  -4.7131866263985388e-06 -2.4190087369158145e-06 0.0000000000000000e+00  -3.8755870877490948e-06 -2.8404635675203080e-06 0.0000000000000000e+00  -1.8338830654400131e-06 -3.2861276785632435e-06 0.0000000000000000e+00  2.0887121698172987e-06 -3.7664154965212708e-06 0.0000000000000000e+00  8.9376656609555264e-06 -4.3116855445145630e-06 0.0000000000000000e+00  2.0371380998494088e-05 -4.9949144905011573e-06 0.0000000000000000e+00  3.9119484215162598e-05 -5.9688003119382333e-06 0.0000000000000000e+00  6.9812135100623941e-05 -7.4979092861300067e-06 0.0000000000000000e+00  1.2009356689746889e-04 -9.8036424560577671e-06 0.0000000000000000e+00  1.9930269512771000e-04 -1.1555311226242999e-05 0.0000000000000000e+00  0.0000000000000000e+00 0.0000000000000000e+00 0.0000000000000000e+00  -1.5107237833457091e-06 -4.5530536579519531e-07 0.0000000000000000e+00  -3.0033386094739728e-06 -9.1929523312054856e-07 0.0000000000000000e+00  -4.4501959336547333e-06 -1.4004704160439778e-06 0.0000000000000000e+00  -5.7999877480471590e-06 -1.9061342626070912e-06 0.0000000000000000e+00  -6.9615811285942255e-06 -2.4417352951070100e-06 0.0000000000000000e+00  -7.7820288158095638e-06 -3.0102064571270359e-06 0.0000000000000000e+00  -8.0158075163866105e-06 -3.6114912328448159e-06 0.0000000000000000e+00  -7.2812828915520816e-06 -4.2426887406947926e-06 0.0000000000000000e+00  -4.9987908670677096e-06 -4.8996408826536853e-06 0.0000000000000000e+00  -3.0242345963170910e-07 -5.5813194886232805e-06 0.0000000000000000e+00  8.0847679541600118e-06 -6.2988145159690421e-06 0.0000000000000000e+00  2.2020321085555367e-05 -7.0900453993405563e-06 0.0000000000000000e+00  4.4137783071205367e-05 -8.0361916860527769e-06 0.0000000000000000e+00  7.7922509389941554e-05 -9.2580723169373642e-06 0.0000000000000000e+00  1.2707006678246887e-04 -1.0833633264684683e-05 0.0000000000000000e+00  1.9229762779452868e-04 -1.2631494641802974e-05 0.0000000000000000e+00  0.0000000000000000e+00 0.0000000000000000e+00 0.0000000000000000e+00  -2.0499261985603051e-06 -5.9447747640496467e-07 0.0000000000000000e+00  -4.0934822162782060e-06 -1.2015697745326411e-06 0.0000000000000000e+00  -6.1139922676248480e-06 -1.8336326693588901e-06 0.0000000000000000e+00  -8.0683765481254284e-06 -2.5014535187440653e-06 0.0000000000000000e+00  -9.8688155361471397e-06 -3.2132297363492574e-06 0.0000000000000000e+00  -1.1357536859536174e-05 -3.9732872844779330e-06 0.0000000000000000e+00  -1.2271502137446628e-05 -4.7805921782380355e-06 0.0000000000000000e+00  -1.2193141924912564e-05 -5.6273141269414603e-06 0.0000000000000000e+00  -1.0482977908353326e-05 -6.4980687486097581e-06 0.0000000000000000e+00  -6.1909986462815436e-06 -7.3710237769798944e-06 0.0000000000000000e+00  2.0512228890525417e-06 -8.2226844439946518e-06 0.0000000000000000e+00  1.6139189937877285e-05 -9.0383127772787768e-06 0.0000000000000000e+00  3.8540709021812054e-05 -9.8281607615897497e-06 0.0000000000000000e+00  7.2101898484066952e-05 -1.0643991720718790e-05 0.0000000000000000e+00  1.1922274219976320e-04 -1.1582597370729331e-05 0.0000000000000000e+00  1.7984469360233000e-04 -1.2770190939648510e-05 0.0000000000000000e+00  0.0000000000000000e+00 0.0000000000000000e+00 0.0000000000000000e+00  -2.5949764720207501e-06 -7.2112069770524977e-07 0.0000000000000000e+00  -5.2075179415587608e-06 -1.4595953188102013e-06 0.0000000000000000e+00  -7.8458941139602777e-06 -2.2325045114470417e-06 0.0000000000000000e+00  -1.0493199559469914e-05 -3.0551918810877459e-06 0.0000000000000000e+00  -1.3089239969344357e-05 -3.9399163552062579e-06 0.0000000000000000e+00  -1.5504880712818293e-05 -4.8938719644155495e-06 0.0000000000000000e+00  -1.7505281076085691e-05 -5.9163788279576361e-06 0.0000000000000000e+00  -1.8697831357001552e-05 -6.9951591111247112e-06 0.0000000000000000e+00  -1.8460632571198533e-05 -8.1019252374616188e-06 0.0000000000000000e+00  -1.5849339149616357e-05 -9.1882241929912446e-06 0.0000000000000000e+00  -9.4869616790743665e-06 -1.0183911070566829e-05 0.0000000000000000e+00  2.5417452623927961e-06 -1.1003180968963515e-05 0.0000000000000000e+00  2.2733889443851020e-05 -1.1567248758591636e-05 0.0000000000000000e+00  5.4032438796678260e-05 -1.1859176172296386e-05 0.0000000000000000e+00  9.9338979907225692e-05 -1.2036643451496349e-05 0.0000000000000000e+00  1.6062674700773814e-04 -1.2646918533388241e-05 0.0000000000000000e+00  0.0000000000000000e+00 0.0000000000000000e+00 0.0000000000000000e+00  -3.1216128625968886e-06 -8.3046459085627155e-07 0.0000000000000000e+00  -6.2963012152264661e-06 -1.6838764566836939e-06 0.0000000000000000e+00  -9.5707092388751320e-06 -2.5830339550949690e-06 0.0000000000000000e+00  -1.2971910027406076e-05 -3.5492334487128261e-06 0.0000000000000000e+00  -1.6492195837727837e-05 -4.6007951034223617e-06 0.0000000000000000e+00  -2.0066142731362137e-05 -5.7505412932979049e-06 0.0000000000000000e+00  -2.3535834889553245e-05 -7.0016763722262320e-06 0.0000000000000000e+00  -2.6598939558485475e-05 -8.3414075567673095e-06 0.0000000000000000e+00  -2.8733376368364637e-05 -9.7317023797707074e-06 0.0000000000000000e+00  -2.9092706034635584e-05 -1.1097164755406137e-05 0.0000000000000000e+00  -2.6370303399821024e-05 -1.2311947722448887e-05 0.0000000000000000e+00  -1.8641533277182870e-05 -1.3192530175787494e-05 0.0000000000000000e+00  -3.2148897882048733e-06 -1.3513777629276921e-05 0.0000000000000000e+00  2.3450624227961057e-05 -1.3085200375903467e-05 0.0000000000000000e+00  6.5716883448087274e-05 -1.1953380973569051e-05 0.0000000000000000e+00  1.2876433633288428e-04 -1.0827615169149761e-05 0.0000000000000000e+00  0.0000000000000000e+00 0.0000000000000000e+00 0.0000000000000000e+00  -3.5944481526605345e-06 -9.1697119735042990e-07 0.0000000000000000e+00  -7.2863698461219358e-06 -1.8631822359055971e-06 0.0000000000000000e+00  -1.1171402815394112e-05 -2.8680646054293737e-06 0.0000000000000000e+00  -1.5335609684551066e-05 -3.9603904985229169e-06 0.0000000000000000e+00  -1.9846064776788245e-05 -5.1670717052333934e-06 0.0000000000000000e+00  -2.4734335424102983e-05 -6.5105922339463324e-06 0.0000000000000000e+00  -2.9968246079870878e-05 -8.0041220384512795e-06 0.0000000000000000e+00  -3.5405026381540321e-05 -9.6428665923385146e-06 0.0000000000000000e+00  -4.0715895326071358e-05 -1.1389619566913448e-05 0.0000000000000000e+00  -4.5268754026294380e-05 -1.3152129148293702e-05 0.0000000000000000e+00  -4.7953438919372649e-05 -1.4750818118795888e-05 0.0000000000000000e+00  -4.6936203564970686e-05 -1.5880367296555479e-05 0.0000000000000000e+00  -3.9341029456869603e-05 -1.6083613665556194e-05 0.0000000000000000e+00  -2.0871813325310868e-05 -1.4790764651014498e-05 0.0000000000000000e+00  1.4629192584960708e-05 -1.1538937754123455e-05 0.0000000000000000e+00  7.5881801226150992e-05 -6.5676919079740652e-06 0.0000000000000000e+00  0.0000000000000000e+00 0.0000000000000000e+00 0.0000000000000000e+00  -3.9697844784346239e-06 -9.7450451340804151e-07 0.0000000000000000e+00  -8.0855978650316345e-06 -1.9848020960295289e-06 0.0000000000000000e+00  -1.2497597920497233e-05 -3.0674793453052230e-06 0.0000000000000000e+00  -1.7360205612682079e-05 -4.2600396334003814e-06 0.0000000000000000e+00  -2.2831366289587764e-05 -5.6005582468344204e-06 0.0000000000000000e+00  -2.9066648921674783e-05 -7.1259465913757819e-06 0.0000000000000000e+00  -3.6203637430357520e-05 -8.8675806769889637e-06 0.0000000000000000e+00  -4.4328571661866763e-05 -1.0842076197452152e-05 0.0000000000000000e+00  -5.3411432106402560e-05 -1.3033380699425703e-05 0.0000000000000000e+00  -6.3186824013137076e-05 -1.5359938540362045e-05 0.0000000000000000e+00  -7.2946102655415353e-05 -1.7617847118864345e-05 0.0000000000000000e+00  -8.1194196768855003e-05 -1.9390162199916268e-05 0.0000000000000000e+00  -8.5122215396815038e-05 -1.9922459234378217e-05 0.0000000000000000e+00  -7.9869103724550464e-05 -1.8006958376006010e-05 0.0000000000000000e+00  -5.7574326899347111e-05 -1.2025133929369249e-05 0.0000000000000000e+00  -6.0703212964823331e-06 -4.6859515306289410e-07 0.0000000000000000e+00  0.0000000000000000e+00 0.0000000000000000e+00 0.0000000000000000e+00  -4.2003617340900074e-06 -9.9676746518844362e-07 0.0000000000000000e+00  -8.5930050865333764e-06 -2.0353791964501467e-06 0.0000000000000000e+00  -1.3381021187101499e-05 -3.1593112195943924e-06 0.0000000000000000e+00  -1.8788100426860835e-05 -4.4152137173408048e-06 0.0000000000000000e+00  -2.5068838686443473e-05 -5.8540787111576031e-06 0.0000000000000000e+00  -3.2517604975649140e-05 -7.5314862079868640e-06 0.0000000000000000e+00  -4.1472728415195456e-05 -9.5057422602653838e-06 0.0000000000000000e+00  -5.2308611678252735e-05 -1.1831414518169881e-05 0.0000000000000000e+00  -6.5400311000712492e-05 -1.4543161387308317e-05 0.0000000000000000e+00  -8.1030213986688004e-05 -1.7619669458147136e-05 0.0000000000000000e+00  -9.9180981935376037e-05 -2.0908095360781433e-05 0.0000000000000000e+00  -1.1912146181266270e-04 -2.3973878874395815e-05 0.0000000000000000e+00  -1.3865498347243277e-04 -2.5822936186069897e-05 0.0000000000000000e+00  -1.5291380992218985e-04 -2.4453350021316247e-05 0.0000000000000000e+00  -1.5273723730826645e-04 -1.6330745024236014e-05 0.0000000000000000e+00  -1.2280342857051005e-04 3.7518594292394424e-06 0.0000000000000000e+00  0.0000000000000000e+00 0.0000000000000000e+00 0.0000000000000000e+00  -4.2416881156458505e-06 -9.7803991794542456e-07 0.0000000000000000e+00  -8.7121073503383140e-06 -2.0024293263433062e-06 0.0000000000000000e+00  -1.3657232747292462e-05 -3.1221014100721062e-06 0.0000000000000000e+00  -1.9360188521237345e-05 -4.3917908575286801e-06 0.0000000000000000e+00  -2.6163688804452623e-05 -5.8752237445064959e-06 0.0000000000000000e+00  -3.4496580372951361e-05 -7.6484290040721080e-06 0.0000000000000000e+00  -4.4904335216595078e-05 -9.8026089935049611e-06 0.0000000000000000e+00  -5.8079978007112196e-05 -1.2444869941830286e-05 0.0000000000000000e+00  -7.4883722008179475e-05 -1.5692379713334971e-05 0.0000000000000000e+00  -9.6320908877797526e-05 -1.9648998973109335e-05 0.0000000000000000e+00  -1.2340813530676962e-04 -2.4337968778537674e-05 0.0000000000000000e+00  -1.5678032984697485e-04 -2.9528242326312143e-05 0.0000000000000000e+00  -1.9576662174812138e-04 -3.4313655960325664e-05 0.0000000000000000e+00  -2.3655872813307531e-04 -3.6170662402979169e-05 0.0000000000000000e+00  -2.6937816664298172e-04 -2.9199527941736782e-05 0.0000000000000000e+00  -2.7550365682466353e-04 -2.0664742639750403e-06 0.0000000000000000e+00  0.0000000000000000e+00 0.0000000000000000e+00 0.0000000000000000e+00  -4.0592611601268406e-06 -9.1417279267045903e-07 0.0000000000000000e+00  -8.3664608213357913e-06 -1.8764842380332047e-06 0.0000000000000000e+00  -1.3191769634728987e-05 -2.9385046531043987e-06 0.0000000000000000e+00  -1.8856164256540183e-05 -4.1600262363118283e-06 0.0000000000000000e+00  -2.5764914101926849e-05 -5.6143552885723169e-06 0.0000000000000000e+00  -3.4451770447214876e-05 -7.3951667348976683e-06 0.0000000000000000e+00  -4.5638555647318547e-05 -9.6255386769820505e-06 0.0000000000000000e+00  -6.0314465976236884e-05 -1.2469552152602312e-05 0.0000000000000000e+00  -7.9835348005637501e-05 -1.6145661924368553e-05 0.0000000000000000e+00  -1.0602835308953640e-04 -2.0936853459613830e-05 0.0000000000000000e+00  -1.4124385496652638e-04 -2.7179048794236313e-05 0.0000000000000000e+00  -1.8818246987289817e-04 -3.5166235566108200e-05 0.0000000000000000e+00  -2.4905458040990776e-04 -4.4773854065588149e-05 0.0000000000000000e+00  -3.2311152923283052e-04 -5.4177539358196031e-05 0.0000000000000000e+00  -4.0151901809631934e-04 -5.6051952211066936e-05 0.0000000000000000e+00  -4.6250917311850624e-04 -3.0315477638261445e-05 0.0000000000000000e+00  0.0000000000000000e+00 0.0000000000000000e+00 0.0000000000000000e+00  -3.6356252763583692e-06 -8.0369001405377433e-07 0.0000000000000000e+00  -7.5152066620442705e-06 -1.6535568617534060e-06 0.0000000000000000e+00  -1.1907243737036442e-05 -2.5996884417182121e-06 0.0000000000000000e+00  -1.7138401073330344e-05 -3.7018837901599414e-06 0.0000000000000000e+00  -2.3634122658116094e-05 -5.0364780600239317e-06 0.0000000000000000e+00  -3.1975882307915630e-05 -6.7060978435256711e-06 0.0000000000000000e+00  -4.2985294069421337e-05 -8.8543120023468882e-06 0.0000000000000000e+00  -5.7849934655274550e-05 -1.1688293301386107e-05 0.0000000000000000e+00  -7.8311097681258267e-05 -1.5514414137590328e-05 0.0000000000000000e+00  -1.0693536319965726e-04 -2.0794136777264913e-05 0.0000000000000000e+00  -1.4747264027233943e-04 -2.8228943732041561e-05 0.0000000000000000e+00  -2.0520569246181873e-04 -3.8872679920247515e-05 0.0000000000000000e+00  -2.8683874993844092e-04 -5.4188721250979700e-05 0.0000000000000000e+00  -3.9828853838161929e-04 -7.5487973920127356e-05 0.0000000000000000e+00  -5.3515549698635327e-04 -9.9353963435907708e-05 0.0000000000000000e+00  -6.7111403488513796e-04 -9.5453159881671090e-05 0.0000000000000000e+00  0.0000000000000000e+00 0.0000000000000000e+00 0.0000000000000000e+00  -2.9759341304142416e-06 -6.4875363161617441e-07 0.0000000000000000e+00  -6.1656941908721674e-06 -1.3373824831236776e-06 0.0000000000000000e+00  -9.8063603913752109e-06 -2.1095605848091573e-06 0.0000000000000000e+00  -1.4191481546857580e-05 -3.0185993639155508e-06 0.0000000000000000e+00  -1.9712172437249223e-05 -4.1345892081873315e-06 0.0000000000000000e+00  -2.6917752894443313e-05 -5.5551656118512237e-06 0.0000000000000000e+00  -3.6610103766920421e-05 -7.4227144113832748e-06 0.0000000000000000e+00  -4.9995703018493685e-05 -9.9530481137152971e-06 0.0000000000000000e+00  -6.8936508644430901e-05 -1.3484963549548804e-05 0.0000000000000000e+00  -9.6369430934939600e-05 -1.8569135328987333e-05 0.0000000000000000e+00  -1.3700432563530993e-04 -2.6134703838449848e-05 0.0000000000000000e+00  -1.9843487457962220e-04 -3.7818911312378597e-05 0.0000000000000000e+00  -2.9265132117947722e-04 -5.6659978756545498e-05 0.0000000000000000e+00  -4.3694785835343762e-04 -8.8588756371986839e-05 0.0000000000000000e+00  -6.4781221669821308e-04 -1.4479593769039107e-04 0.0000000000000000e+00  -8.6540117574260983e-04 -2.2474730642020813e-04 0.0000000000000000e+00  0.0000000000000000e+00 0.0000000000000000e+00 0.0000000000000000e+00  -2.1106426108430713e-06 -4.5570362416600935e-07 0.0000000000000000e+00  -4.3800148362370638e-06 -9.4075794426426006e-07 0.0000000000000000e+00  -6.9849730181515031e-06 -1.4875230143380911e-06 0.0000000000000000e+00  -1.0147105944817611e-05 -2.1360939529576828e-06 0.0000000000000000e+00  -1.4166211891267498e-05 -2.9402067268563819e-06 0.0000000000000000e+00  -1.9471225748119675e-05 -3.9763893360545769e-06 0.0000000000000000e+00  -2.6702567289400482e-05 -5.3590075247516439e-06 0.0000000000000000e+00  -3.6851582796807514e-05 -7.2660671803977520e-06 0.0000000000000000e+00  -5.1506421497981840e-05 -9.9850541903340609e-06 0.0000000000000000e+00  -7.3302506849878295e-05 -1.3997262790535460e-05 0.0000000000000000e+00  -1.0677686835140963e-04 -2.0139533417683804e-05 0.0000000000000000e+00  -1.6002682784888007e-04 -2.9934900480507802e-05 0.0000000000000000e+00  -2.4791630287983627e-04 -4.6353972072685741e-05 0.0000000000000000e+00  -3.9790112263823007e-04 -7.5985249884230900e-05 0.0000000000000000e+00  -6.5932350111215596e-04 -1.3714992425397943e-04 0.0000000000000000e+00  -1.1224965383783670e-03 -2.9459680780119480e-04 0.0000000000000000e+00  0.0000000000000000e+00 0.0000000000000000e+00 0.0000000000000000e+00  -1.0942806476479709e-06 -2.3493220092732882e-07 0.0000000000000000e+00  -2.2728906352965601e-06 -4.8538943915958171e-07 0.0000000000000000e+00  -3.6300143778958724e-06 -7.6854656101776879e-07 0.0000000000000000e+00  -5.2843843649417137e-06 -1.1058498696515426e-06 0.0000000000000000e+00  -7.3979169807166738e-06 -1.5263199070500114e-06 0.0000000000000000e+00  -1.0204517559494872e-05 -2.0717208609362847e-06 0.0000000000000000e+00  -1.4057621377226118e-05 -2.8051219715198620e-06 0.0000000000000000e+00  -1.9512915560420608e-05 -3.8255936401928280e-06 0.0000000000000000e+00  -2.7479765695981699e-05 -5.2939638045448658e-06 0.0000000000000000e+00  -3.9513718651377969e-05 -7.4779567812167168e-06 0.0000000000000000e+00  -5.8414916548451549e-05 -1.0827495664109827e-05 0.0000000000000000e+00  -8.9521298465278506e-05 -1.6075118594304161e-05 0.0000000000000000e+00  -1.4358041376865517e-04 -2.4224524199864008e-05 0.0000000000000000e+00  -2.4254927039351435e-04 -3.5585882968144020e-05 0.0000000000000000e+00  -4.2422800420625635e-04 -4.4572110038398938e-05 0.0000000000000000e+00  -7.0196381761454887e-04 -2.9683189779873891e-05 0.0000000000000000e+00  0.0000000000000000e+00 0.0000000000000000e+00 0.0000000000000000e+00  0.0000000000000000e+00 0.0000000000000000e+00 0.0000000000000000e+00  0.0000000000000000e+00 0.0000000000000000e+00 0.0000000000000000e+00  0.0000000000000000e+00 0.0000000000000000e+00 0.0000000000000000e+00  0.0000000000000000e+00 0.0000000000000000e+00 0.0000000000000000e+00  0.0000000000000000e+00 0.0000000000000000e+00 0.00000000000