<?xml version="1.0"?>
<VTKFile type="UnstructuredGrid"  version="0.1"  >
<UnstructuredGrid>
<Piece  NumberOfPoints="289" NumberOfCells="512">
<Points>
<DataArray  type="Float64"  NumberOfComponents="3"  format="ascii">0 0 0  0.0625 0 0  0.125 0 0  0.1875 0 0  0.25 0 0  0.3125 0 0  0.375 0 0  0.4375 0 0  0.5 0 0  0.5625 0 0  0.625 0 0  0.6875 0 0  0.75 0 0  0.8125 0 0  0.875 0 0  0.9375 0 0  1 0 0  0 0.0625 0  0.06249214562129598 0.06249706231183295 0  0.1249845784282616 0.06249407756053742 0  0.1874776685377349 0.06249100426203783 0  0.2499719730972511 0.06248781307754036 0  0.312468361866043 0.06248449436527449 0  0.3749681871240953 0.06248106714964904 0  0.4374735250477093 0.06247758917140854 0  0.4999875351663116 0.06247416654531861 0  0.5625150298291429 0.06247095945980887 0  0.6250634587380632 0.06246817653801199 0  0.6876448157760042 0.06246604298453706 0  0.750279839372444 0.06246470953538654 0  0.8130085313339193 0.06246401106256778 0  0.8759198056727446 0.06246275203941557 0  0.9392446353273424 0.06245617571182189 0  1.003683455468973 0.06242566868189552 0  0 0.125 0  0.06248400155713078 0.1249941679453715 0  0.1249684910872942 0.1249882356613552 0  0.1874541113731171 0.124982113459201 0  0.2499418548392464 0.1249757348092672 0  0.3124332981840694 0.1249690712481126 0  0.3749309179879147 0.124962150758561 0  0.4374385321628048 0.1249550795174432 0  0.4999619367369039 0.1249480650241106 0  0.5625098581144432 0.124941435166086 0  0.625095449926242 0.1249356420402477 0  0.687738801962207 0.1249312313633296 0  0.7504714346242756 0.1249287528861512 0  0.8133446950569559 0.1249286134065282 0  0.8764449435707931 0.1249310800645545 0  0.9399143540650289 0.1249377638223041 0  1.003933836855635 0.1249615506786158 0  0 0.1875 0  0.06247537426192221 0.187491370309738 0  0.1249512747039663 0.1874825759765776 0  0.1874284328152776 0.1874734664967528 0  0.2499080453033885 0.1874639229338422 0  0.3123920871111767 0.187453879415942 0  0.3748837306294685 0.1874433511628369 0  0.437387922542063 0.1874324701517046 0  0.4999121860023079 0.1874215275348636 0  0.5624677399371404 0.1874110177856519 0  0.6250710603513094 0.187401671756491 0  0.6877460390601845 0.1873944521930424 0  0.750526849707026 0.1873904619711343 0  0.8134611951841334 0.1873906698332676 0  0.8766116798042793 0.1873952219442886 0  0.9400464320769593 0.1874014763626814 0  1.003792953548485 0.1873964934359558 0  0 0.25 0  0.06246623283869965 0.2499887340530151 0  0.1249328135836118 0.2499772240398313 0  0.1874003167687603 0.2499652413564282 0  0.2498698339417098 0.2499525928390727 0  0.3123433258621874 0.2499391469745926 0  0.3748240965714792 0.2499248706304563 0  0.4373174424776724 0.2499098798358858 0  0.4998315354408626 0.2498945070482936 0  0.5623785948829749 0.249879384023232 0  0.6249763701716287 0.2498655316172504 0  0.6876498420141526 0.2498544317655237 0  0.7504327435239215 0.2498480263361128 0  0.8133677374294475 0.24984853366146 0  0.8765023804380268 0.2498578909520406 0  0.9398748995566202 0.2498765864536776 0  1.00348097128108 0.2499023019073822 0  0 0.3125 0  0.0624567611416933 0.3124863387589598 0  0.1249134520409596 0.3124723375665755 0  0.1873702162029156 0.3124576699726303 0  0.2498276913283173 0.3124420420292857 0  0.3122873566517474 0.3124252196385631 0  0.3747520114681225 0.3124070706563576 0  0.437226442133195 0.3123876287563519 0  0.4997183385096087 0.3123671871553887 0  0.5622395084199705 0.3123464300745722 0  0.6248073846504056 0.3123266057208603 0  0.687446673080076 0.3123097315868387 0  0.7501906639042241 0.3122987922134758 0  0.8130810965612721 0.3122978294108902 0  0.8761644666822903 0.3123117306711898 0  0.9394816730721922 0.3123454356148708 0  1.00304878086724 0.3124023646049977 0  0 0.375 0  0.06244737942593202 0.3749842803226089 0  0.1248940430742191 0.3749681102313239 0  0.1873394395970013 0.3749510466799583 0  0.2497834089256259 0.374932667205465 0  0.3122264769582276 0.3749125927817371 0  0.3746702842228038 0.3748905285367387 0  0.4371182150421915 0.3748663331029536 0  0.4995763075742735 0.3748401318904393 0  0.5620545298515641 0.3748124950343901 0  0.6245684819872945 0.3747847053499941 0  0.6871414901541318 0.3747591399774559 0  0.7498068290286487 0.3747397688133996 0  0.812609371679423 0.3747327078655769 0  0.8756053184810175 0.3747466152851786 0  0.938858097538625 0.3747924366804474 0  1.002428981128708 0.3748815764313255 0  0 0.4375 0  0.06243873064295461 0.4374826689965816 0  0.124875923408364 0.4374647686627943 0  0.1873101200793419 0.4374457263135138 0  0.2497400713427066 0.4374249676718051 0  0.3121649277458407 0.4374019277664067 0  0.3745845553110544 0.4373760797741945 0  0.4370000527188834 0.4373469951899888 0  0.4994145810783215 0.4373144571502465 0  0.5618346608964583 0.4372786618763879 0  0.6242721358127422 0.4372405619007994 0  0.6867470243121739 0.4372024268261488 0  0.7492914227166004 0.4371687108517677 0  0.8119543820814799 0.437147284338218 0  0.8748071190143238 0.43715092249308 0  0.9379469661693061 0.4371984935946768 0  1.001497398517286 0.4373144019360093 0  0 0.5 0  0.06243162934491235 0.4999816232289289 0  0.1248608102949127 0.4999625605421544 0  0.1872850593068102 0.4999421078213269 0  0.2497018496460159 0.4999195275312791 0  0.3121086472140311 0.4998940394884663 0  0.3745030400128274 0.4998648247590456 0  0.4368830399128347 0.4998310555648277 0  0.4992476923000229 0.499791975302028 0  0.5615982223027408 0.4997470730743223 0  0.6239400896296653 0.4996964325764006 0  0.6862865230765612 0.4996413932766748 0  0.74866432764226 0.4995857455463817 0  0.8111228615662178 0.4995377662302853 0  0.8737467014019169 0.4995133729799592 0  0.9366709851448203 0.4995402079571072 0  1.000095205410282 0.4996609249592774 0  0 0.5625 0  0.06242697444831998 0.5624812588929036 0  0.1248506212925107 0.5624617325912433 0  0.1872674443555455 0.5624406003838739 0  0.2496736056148026 0.5624169699980197 0  0.312064762269665 0.5623898414827908 0  0.374435935610561 0.5623580735975647 0  0.4367814708285205 0.562320360182441 0  0.4990952167648849 0.5622752344542832 0  0.5613711880649236 0.5622211412211505 0  0.6236052167758983 0.5621566628414353 0  0.6857985226865843 0.5620810778237602 0  0.7479647910037555 0.5619956111673059 0  0.8101431819361155 0.5619060506990554 0  0.8724202068275546 0.5618278313413134 0  0.9349620049052226 0.5617948296744306 0  0.998052188171055 0.5618714440174356 0  0 0.625 0  0.0624256315701195 0.6249816743928706 0  0.1248472268417561 0.6249624991009225 0  0.1872604473015267 0.6249415720223663 0  0.2496603071904127 0.6249178813068634 0  0.3120407897010977 0.6248902398026097 0  0.3743944004326263 0.6248572067034529 0  0.4367116663000919 0.6248169932507954 0  0.4989806457717093 0.6247673535256169 0  0.5611866506496297 0.6247054741031431 0  0.6233126748782113 0.6246279116802357 0  0.6853416411897957 0.6245307213312645 0  0.7472627791871601 0.6244101569419611 0  0.8090865723801061 0.6242649060007105 0  0.8708757396176108 0.624102101634223 0  0.9328016464042398 0.6239515719493369 0  0.995228739457712 0.6238939285374504 0  0 0.6875 0  0.06242829665276162 0.6874829333229275 0  0.124852158161463 0.6874650043295607 0  0.1872667376848413 0.6874452854681407 0  0.2496662842582831 0.6874227095748393 0  0.3120435541802335 0.6873959790301687 0  0.3743890446429477 0.6873634458748121 0  0.4366899757639269 0.6873229463583286 0  0.4989289558966308 0.6872715664273726 0  0.5610823281738334 0.6872053056599575 0  0.623118410743896 0.6871186007616136 0  0.6849964444332295 0.6870036883608467 0  0.7466685928292158 0.6868499182143172 0  0.808090952201905 0.6866436826030361 0  0.8692571933072929 0.6863716069886068 0  0.9302811702392609 0.6860357581896757 0  0.9915599602310233 0.6857029229576271 0  0 0.75 0  0.06243535952616066 0.7499850475654948 0  0.1248663088994893 0.7499692849839273 0  0.1872879673034258 0.7499518316967904 0  0.2496944036260298 0.7499316543827854 0  0.312077910160007 0.7499074624775532 0  0.3744279926324476 0.7498775630255331 0  0.4367299082309943 0.7498396475122586 0  0.4989625105369019 0.7497904654327348 0  0.5610950705996791 0.7497253056946456 0  0.6230826829724989 0.7496371419910378 0  0.6848600171095444 0.7495151726109671 0  0.7463341542101201 0.7493422607272512 0  0.8073809857941657 0.7490905180191619 0  0.8678617876425242 0.7487148486781794 0  0.927711247969473 0.748151456918675 0  0.9872146932014226 0.7473755974285153 0  0 0.8125 0  0.06244679200898997 0.8124879644957816 0  0.1248896839526144 0.8124752410211954 0  0.1873243180227254 0.8124610759974416 0  0.2497453033707568 0.812444572323865 0  0.3121454702061659 0.8124245884579473 0  0.3745147846758416 0.8123995946516732 0  0.4368386873165338 0.8123674563061001 0  0.4990954626969218 0.8123250933471586 0  0.5612519753039074 0.8122679227548657 0  0.6232566376309324 0.8121889014581423 0  0.6850277146143164 0.8120767724861524 0  0.746434052218227 0.8119125533710223 0  0.8072650702282347 0.8116617117698381 0  0.8671936323554779 0.8112548383183836 0  0.9257821134800904 0.810536556502089 0  0.9828530030320649 0.8091311116878985 0  0 0.875 0  0.06246208719387236 0.8749915618475527 0  0.1249212559457115 0.8749826230115068 0  0.1873742231335098 0.87497263221694 0  0.249816876215922 0.8749609270396043 0  0.3122436561495726 0.8749466547879511 0  0.3746466317513755 0.8749286589863807 0  0.4370140283523485 0.8749053082521434 0  0.4993277881957116 0.8748742305391947 0  0.5615593753232708 0.8748318927014007 0  0.6236622984190592 0.8747729263135638 0  0.68555826915044 0.8746890263167226 0  0.7471104915410636 0.8745670564890305 0  0.8080696821851906 0.8743852695258107 0  0.867959591231392 0.874103182985563 0  0.9258269594383697 0.8736240367268513 0  0.9797417118933163 0.8726168531199804 0  0 0.9375 0  0.06248027173718259 0.9374956525801588 0  0.1249589813591785 0.9374910416296316 0  0.1874343645451921 0.9374858761806109 0  0.2499041949920622 0.9374798048905377 0  0.3123654346488515 0.9374723729632614 0  0.3748136997309652 0.9374629605394769 0  0.4372423937311925 0.937450691
[...]
<PointData  Vectors="f_54"> 
<DataArray  type="Float64"  Name="f_54"  NumberOfComponents="3" format="ascii">0.0000000000000000e+00 0.0000000000000000e+00 0.0000000000000000e+00  0.0000000000000000e+00 0.0000000000000000e+00 0.0000000000000000e+00  0.0000000000000000e+00 0.0000000000000000e+00 0.0000000000000000e+00  0.0000000000000000e+00 0.0000000000000000e+00 0.0000000000000000e+00  0.0000000000000000e+00 0.0000000000000000e+00 0.0000000000000000e+00  0.0000000000000000e+00 0.0000000000000000e+00 0.0000000000000000e+00  0.0000000000000000e+00 0.0000000000000000e+00 0.0000000000000000e+00  0.0000000000000000e+00 0.0000000000000000e+00 0.0000000000000000e+00  0.0000000000000000e+00 0.0000000000000000e+00 0.0000000000000000e+00  0.0000000000000000e+00 0.0000000000000000e+00 0.0000000000000000e+00  0.0000000000000000e+00 0.0000000000000000e+00 0.0000000000000000e+00  0.0000000000000000e+00 0.0000000000000000e+00 0.0000000000000000e+00  0.0000000000000000e+00 0.0000000000000000e+00 0.0000000000000000e+00  0.0000000000000000e+00 0.0000000000000000e+00 0.0000000000000000e+00  0.0000000000000000e+00 0.0000000000000000e+00 0.0000000000000000e+00  0.0000000000000000e+00 0.0000000000000000e+00 0.0000000000000000e+00  0.0000000000000000e+00 0.0000000000000000e+00 0.0000000000000000e+00  0.0000000000000000e+00 0.0000000000000000e+00 0.0000000000000000e+00  -4.7082462626697875e-06 -1.2931609023707015e-07 0.0000000000000000e+00  -9.5528872154521144e-06 -2.6099587954316491e-07 0.0000000000000000e+00  -1.4670361799573614e-05 -3.9713384329291297e-07 0.0000000000000000e+00  -2.0195852079143489e-05 -5.3920920361041661e-07 0.0000000000000000e+00  -2.6261364588762241e-05 -6.8764166690342559e-07 0.0000000000000000e+00  -3.2992284995060949e-05 -8.4117647868591055e-07 0.0000000000000000e+00  -4.0502117109490426e-05 -9.9603548939230073e-07 0.0000000000000000e+00  -4.8885691986792307e-05 -1.1447695269689140e-06 0.0000000000000000e+00  -5.8212704871687742e-05 -1.2747341411763414e-06 0.0000000000000000e+00  -6.8527650368324194e-05 -1.3660113519390952e-06 0.0000000000000000e+00  -7.9873912595957569e-05 -1.3881015222831118e-06 0.0000000000000000e+00  -9.2394428781751150e-05 -1.2925753358539563e-06 0.0000000000000000e+00  -1.0667287670280398e-04 -9.9017264587668126e-07 0.0000000000000000e+00  -1.2487043943767011e-04 -2.6501608047843147e-07 0.0000000000000000e+00  -1.5472390311321979e-04 1.5766202968894839e-06 0.0000000000000000e+00  -2.2528885093255372e-04 7.2912360625258206e-06 0.0000000000000000e+00  0.0000000000000000e+00 0.0000000000000000e+00 0.0000000000000000e+00  -9.2784211463348332e-06 -2.5622256983953512e-07 0.0000000000000000e+00  -1.8829962085026387e-05 -5.1745304707247177e-07 0.0000000000000000e+00  -2.8928337215192664e-05 -7.8821452304346453e-07 0.0000000000000000e+00  -3.9845864163563294e-05 -1.0719117355373920e-06 0.0000000000000000e+00  -5.1850165427318382e-05 -1.3700040474938932e-06 0.0000000000000000e+00  -6.5197666830859308e-05 -1.6808396170486342e-06 0.0000000000000000e+00  -8.0122943664006491e-05 -1.9980210646900286e-06 0.0000000000000000e+00  -9.6823504774631928e-05 -2.3081811161814919e-06 0.0000000000000000e+00  -1.1544110643999374e-04 -2.5880896105397053e-06 0.0000000000000000e+00  -1.3604430123851096e-04 -2.8011172344690151e-06 0.0000000000000000e+00  -1.5862493483758856e-04 -2.8933009538209552e-06 0.0000000000000000e+00  -1.8313745788811620e-04 -2.7898782152739229e-06 0.0000000000000000e+00  -2.0963524870810214e-04 -2.3960750030117093e-06 0.0000000000000000e+00  -2.3855430484262305e-04 -1.6227232195304605e-06 0.0000000000000000e+00  -2.7085101828830431e-04 -5.5473936254866699e-07 0.0000000000000000e+00  -3.0502258129775180e-04 -4.4165167526003957e-07 0.0000000000000000e+00  0.0000000000000000e+00 0.0000000000000000e+00 0.0000000000000000e+00  -1.3573305666877116e-05 -3.7806130771205853e-07 0.0000000000000000e+00  -2.7556601671611522e-05 -7.6428097024979217e-07 0.0000000000000000e+00  -4.2361999149558245e-05 -1.1662202934431060e-06 0.0000000000000000e+00  -5.8402250239097016e-05 -1.5900369899391840e-06 0.0000000000000000e+00  -7.6087205531958103e-05 -2.0393983465777468e-06 0.0000000000000000e+00  -9.5815292336124251e-05 -2.5138943435136269e-06 0.0000000000000000e+00  -1.1795800766200480e-04 -3.0067372814945897e-06 0.0000000000000000e+00  -1.4283536027076993e-04 -3.5015306018680879e-06 0.0000000000000000e+00  -1.7068045147837336e-04 -3.9679573440676655e-06 0.0000000000000000e+00  -2.0159205658283540e-04 -4.3564834535611336e-06 0.0000000000000000e+00  -2.3547452966147365e-04 -4.5928165588151375e-06 0.0000000000000000e+00  -2.7196079531445879e-04 -4.5743899469145088e-06 0.0000000000000000e+00  -3.1029139236560732e-04 -4.1745302130628437e-06 0.0000000000000000e+00  -3.4902963930820945e-04 -3.2661288524539804e-06 0.0000000000000000e+00  -3.8519114539823263e-04 -1.7760224237313405e-06 0.0000000000000000e+00  -4.1166064612376744e-04 3.3602707368607132e-07 0.0000000000000000e+00  0.0000000000000000e+00 0.0000000000000000e+00 0.0000000000000000e+00  -1.7455582368368659e-05 -4.9166853914732910e-07 0.0000000000000000e+00  -3.5456902873434857e-05 -9.9527191414795527e-07 0.0000000000000000e+00  -5.4554757546986505e-05 -1.5221817536088214e-06 0.0000000000000000e+00  -7.5305822375772106e-05 -2.0823935061065797e-06 0.0000000000000000e+00  -9.8270723274121848e-05 -2.6833675548994662e-06 0.0000000000000000e+00  -1.2400556498857383e-04 -3.3282337451533198e-06 0.0000000000000000e+00  -1.5304372900061655e-04 -4.0130383696727645e-06 0.0000000000000000e+00  -1.8586388948509764e-04 -4.7226444240763131e-06 0.0000000000000000e+00  -2.2283905357061326e-04 -5.4248787360432608e-06 0.0000000000000000e+00  -2.6415966410224501e-04 -6.0626764482466870e-06 0.0000000000000000e+00  -3.0972021138106666e-04 -6.5445675913692596e-06 0.0000000000000000e+00  -3.5894993685747854e-04 -6.7353792813954463e-06 0.0000000000000000e+00  -4.1054584625525186e-04 -6.4522495519093556e-06 0.0000000000000000e+00  -4.6201626295964943e-04 -5.4765722119963542e-06 0.0000000000000000e+00  -5.0886495534110108e-04 -3.5993562766104787e-06 0.0000000000000000e+00  -5.4327514004051940e-04 -7.2789640906362281e-07 0.0000000000000000e+00  0.0000000000000000e+00 0.0000000000000000e+00 0.0000000000000000e+00  -2.0789170334005940e-05 -5.9325662214493261e-07 0.0000000000000000e+00  -4.2255878751190820e-05 -1.2028206416198964e-06 0.0000000000000000e+00  -6.5087395961727106e-05 -1.8446448014795207e-06 0.0000000000000000e+00  -8.9986126655576762e-05 -2.5337157192698456e-06 0.0000000000000000e+00  -1.1767185340180969e-04 -3.2830749222118995e-06 0.0000000000000000e+00  -1.4887653978952142e-04 -4.1021329964834635e-06 0.0000000000000000e+00  -1.8432752583332762e-04 -4.9938463822809501e-06 0.0000000000000000e+00  -2.2471333203453081e-04 -5.9501399210505021e-06 0.0000000000000000e+00  -2.7062402735234995e-04 -6.9447292184576456e-06 0.0000000000000000e+00  -3.2245495295625179e-04 -7.9222999104257139e-06 0.0000000000000000e+00  -3.8025804991374877e-04 -8.7830585342561067e-06 0.0000000000000000e+00  -4.4351838689889812e-04 -9.3625089672656716e-06 0.0000000000000000e+00  -5.1082455566647475e-04 -9.4089807188761351e-06 0.0000000000000000e+00  -5.7939542751381256e-04 -8.5676941597043145e-06 0.0000000000000000e+00  -6.4444943946716682e-04 -6.3924184058263100e-06 0.0000000000000000e+00  -6.9854569654584462e-04 -2.4273716740178734e-06 0.0000000000000000e+00  0.0000000000000000e+00 0.0000000000000000e+00 0.0000000000000000e+00  -2.3442104003976641e-05 -6.7844551528131401e-07 0.0000000000000000e+00  -4.7684862312004929e-05 -1.3779577159423945e-06 0.0000000000000000e+00  -7.3545188694643815e-05 -2.1196359375292095e-06 0.0000000000000000e+00  -1.0186875867519314e-04 -2.9244273359425038e-06 0.0000000000000000e+00  -1.3353947441126517e-04 -3.8126258387008156e-06 0.0000000000000000e+00  -1.6948170210712279e-04 -4.8027210957922161e-06 0.0000000000000000e+00  -2.1065062505423162e-04 -5.9091107546734460e-06 0.0000000000000000e+00  -2.5800379838311670e-04 -7.1378679917025938e-06 0.0000000000000000e+00  -3.1244380626590558e-04 -8.4792365762863282e-06 0.0000000000000000e+00  -3.7471770723760073e-04 -9.8947503379642914e-06 0.0000000000000000e+00  -4.4525393551049584e-04 -1.1295881441174801e-05 0.0000000000000000e+00  -5.2391271264602083e-04 -1.2510288243809496e-05 0.0000000000000000e+00  -6.0962556091521665e-04 -1.3232295908378224e-05 0.0000000000000000e+00  -6.9991277680042467e-04 -1.2959139737306127e-05 0.0000000000000000e+00  -7.9031528683916081e-04 -1.0928825648074821e-05 0.0000000000000000e+00  -8.7389126137692576e-04 -6.1033050730630851e-06 0.0000000000000000e+00  0.0000000000000000e+00 0.0000000000000000e+00 0.0000000000000000e+00  -2.5291296869357360e-05 -7.4247331316593572e-07 0.0000000000000000e+00  -5.1490908894836357e-05 -1.5107658023232026e-06 0.0000000000000000e+00  -7.9531584718403831e-05 -2.3312632653627555e-06 0.0000000000000000e+00  -1.1039248715560029e-04 -3.2313601060583991e-06 0.0000000000000000e+00  -1.4511899437598866e-04 -4.2397307564053540e-06 0.0000000000000000e+00  -1.8483697060814270e-04 -5.3861914319930133e-06 0.0000000000000000e+00  -2.3075708466773672e-04 -6.7007381307186406e-06 0.0000000000000000e+00  -2.8416200260854627e-04 -8.2109505251262340e-06 0.0000000000000000e+00  -3.4636521425533619e-04 -9.9361915613165625e-06 0.0000000000000000e+00  -4.1862466406563558e-04 -1.1875633573411350e-05 0.0000000000000000e+00  -5.0198754623316045e-04 -1.3984732565563964e-05 0.0000000000000000e+00  -5.9703632544290158e-04 -1.6131095896621995e-05 0.0000000000000000e+00  -7.0350517149801825e-04 -1.8016389376862308e-05 0.0000000000000000e+00  -8.1975095225693807e-04 -1.9049587241119295e-05 0.0000000000000000e+00  -9.4210933710737533e-04 -1.8168516189090979e-05 0.0000000000000000e+00  -1.0642516669425257e-03 -1.3649430308470443e-05 0.0000000000000000e+00  0.0000000000000000e+00 0.0000000000000000e+00 0.0000000000000000e+00  -2.6229304869728196e-05 -7.8059023472417191e-07 0.0000000000000000e+00  -5.3450539118877665e-05 -1.5911995757700548e-06 0.0000000000000000e+00  -8.2689279314327371e-05 -2.4630195066104823e-06 0.0000000000000000e+00  -1.1503793503941747e-04 -3.4296007323467565e-06 0.0000000000000000e+00  -1.5168848253887905e-04 -4.5281043130842533e-06 0.0000000000000000e+00  -1.9396307020667043e-04 -5.8005776470010333e-06 0.0000000000000000e+00  -2.4333926593209725e-04 -7.2951022670903815e-06 0.0000000000000000e+00  -3.0146374337714963e-04 -9.0663490499522305e-06 0.0000000000000000e+00  -3.7014340159801653e-04 -1.1174336838994461e-05 0.0000000000000000e+00  -4.5129557408491106e-04 -1.3678515395045806e-05 0.0000000000000000e+00  -5.4682865133968191e-04 -1.6620706066423664e-05 0.0000000000000000e+00  -6.5841190767388497e-04 -1.9983315147448328e-05 0.0000000000000000e+00  -7.8708296667247821e-04 -2.3596734039925722e-05 0.0000000000000000e+00  -9.3264535397162595e-04 -2.6952633753443678e-05 0.0000000000000000e+00  -1.0928503900907932e-03 -2.8869958979650173e-05 0.0000000000000000e+00  -1.2624568605013203e-03 -2.6996581159057700e-05 0.0000000000000000e+00  0.0000000000000000e+00 0.0000000000000000e+00 0.0000000000000000e+00  -2.6172868935660800e-05 -7.8860380012920522e-07 0.0000000000000000e+00  -5.3387468266106387e-05 -1.6102516783619540e-06 0.0000000000000000e+00  -8.2728386546230352e-05 -2.4997257855871156e-06 0.0000000000000000e+00  -1.1536796830653196e-04 -3.4954569047208917e-06 0.0000000000000000e+00  -1.5261334065305566e-04 -4.6417748146010881e-06 0.0000000000000000e+00  -1.9595638749900568e-04 -5.9917346542164325e-06 0.0000000000000000e+00  -2.4712578711374295e-04 -7.6108034454608627e-06 0.0000000000000000e+00  -3.0813758302036923e-04 -9.5816932857596490e-06 0.0000000000000000e+00  -3.8133583169944646e-04 -1.2010386200819590e-05 0.0000000000000000e+00  -4.6940613101552033e-04 -1.5032359437204173e-05 0.0000000000000000e+00  -5.7533020354286288e-04 -1.8814762779424035e-05 0.0000000000000000e+00  -7.0222720187895673e-04 -2.3541477250429647e-05 0.0000000000000000e+00  -8.5299779711675919e-04 -2.9346778179832310e-05 0.0000000000000000e+00  -1.0296621275023841e-03 -3.6119346958884425e-05 0.0000000000000000e+00  -1.2323042994594063e-03 -4.3029100730416742e-05 0.0000000000000000e+00  -1.4577021582599639e-03 -4.7590827643558143e-05 0.0000000000000000e+00  0.0000000000000000e+00 0.0000000000000000e+00 0.0000000000000000e+00  -2.5072596601663982e-05 -7.6349943197627866e-07 0.0000000000000000e+00  -5.1193074921452569e-05 -1.5613075447994405e-06 0.0000000000000000e+00  -7.9459953803773836e-05 -2.4298716815406060e-06 0.0000000000000000e+00  -1.1107774634537584e-04 -3.4102212189795280e-06 0.0000000000000000e+00  -1.4741763616679069e-04 -4.5509757194942868e-06 0.0000000000000000e+00  -1.9008741378160568e-04 -5.9124162961617852e-06 0.0000000000000000e+00  -2.4101332452114009e-04 -7.5723798309192387e-06 0.0000000000000000e+00  -3.0253505981967253e-04 -9.6352265826350517e-06 0.0000000000000000e+00  -3.7751144684748135e-04 -1.2245893384458980e-05 0.0000000000000000e+00  -4.6942608455825054e-04 -1.5611955788905304e-05 0.0000000000000000e+00  -5.8246501822581333e-04 -2.0036748042849962e-05 0.0000000000000000e+00  -7.2150577776619379e-04 -2.5962257514023465e-05 0.0000000000000000e+00  -8.9190021113025406e-04 -3.4000164606153564e-05 0.0000000000000000e+00  -1.0988503699842353e-03 -4.4862388088805468e-05 0.0000000000000000e+00  -1.3461058166070021e-03 -5.8927593307979081e-05 0.0000000000000000e+00  -1.6338099942467350e-03 -7.4864699743670525e-05 0.0000000000000000e+00  0.0000000000000000e+00 0.0000000000000000e+00 0.0000000000000000e+00  -2.2922691623363301e-05 -7.0402300406999506e-07 0.0000000000000000e+00  -4.6847374295474667e-05 -1.4414383348228542e-06 0.0000000000000000e+00  -7.2831365443913935e-05 -2.2479133938507280e-06 0.0000000000000000e+00  -1.0204974098809942e-04 -3.1640303173123971e-06 0.0000000000000000e+00  -1.3586634772927504e-04 -4.2385626412295085e-06 0.0000000000000000e+00  -1.7592063326020326e-04 -5.5330057960414179e-06 0.0000000000000000e+00  -2.2423733219271733e-04 -7.1283740350949932e-06 0.0000000000000000e+00  -2.8336697352641054e-04 -9.1361708602485758e-06 0.0000000000000000e+00  -3.5656486428850900e-04 -1.1717269555536361e-05 0.0000000000000000e+00  -4.4801207672923692e-04 -1.5116072697255521e-05 0.0000000000000000e+00  -5.6306826951098093e-04 -1.9724011390139411e-05 0.0000000000000000e+00  -7.0851093472135466e-04 -2.6196661379723138e-05 0.0000000000000000e+00  -8.9263609311631255e-04 -3.5655800130157080e-05 0.0000000000000000e+00  -1.1249359274387583e-03 -4.9972165490259668e-05 0.0000000000000000e+00  -1.4148159970205961e-03 -7.1889923541413025e-05 0.0000000000000000e+00  -1.7687883051367434e-03 -1.0395016653474614e-04 0.0000000000000000e+00  0.0000000000000000e+00 0.0000000000000000e+00 0.0000000000000000e+00  -1.9769240726285890e-05 -6.1109804187761375e-07 0.0000000000000000e+00  -4.0437345470261420e-05 -1.2523378088953583e-06 0.0000000000000000e+00  -6.2958503942862513e-05 -1.9559753171161428e-06 0.0000000000000000e+00  -8.8406194635591302e-05 -2.7588243351131399e-06 0.0000000000000000e+00  -1.1804823681880042e-04 -3.7052047684019875e-06 0.0000000000000000e+00  -1.5344288297672516e-04 -4.8508873627512489e-06 0.0000000000000000e+00  -1.9656729950714335e-04 -6.2688189032373044e-06 0.0000000000000000e+00  -2.4999392452778842e-04 -8.0582112010853492e-06 0.0000000000000000e+00  -3.1713542080550548e-04 -1.0360540665132211e-05 0.0000000000000000e+00  -4.0258394725060226e-04 -1.3390921818457796e-05 0.0000000000000000e+00  -5.1257066092758497e-04 -1.7505568798280045e-05 0.0000000000000000e+00  -6.5555352352840099e-04 -2.3355585511873136e-05 0.0000000000000000e+00  -8.4287101513720304e-04 -3.2243156217539944e-05 0.0000000000000000e+00  -1.0891906746672020e-03 -4.6916463557065972e-05 0.0000000000000000e+00  -1.4119293216900228e-03 -7.3093715664323118e-05 0.0000000000000000e+00  -1.8274820836949547e-03 -1.2037257725476331e-04 0.0000000000000000e+00  0.0000000000000000e+00 0.0000000000000000e+00 0.0000000000000000e+00  -1.5715330862882391e-05 -4.8797598752634909e-07 0.0000000000000000e+00  -3.2168856875458149e-05 -1.0006591697416360e-06 0.0000000000000000e+00  -5.0148259053682309e-05 -1.5644631235425582e-06 0.0000000000000000e+00  -7.0548983501355269e-05 -2.2094343440996221e-06 0.0000000000000000e+00  -9.4444414386614275e-05 -2.9714061150133936e-06 0.0000000000000000e+00  -1.2317905558090076e-04 -3.8945355967296381e-06 0.0000000000000000e+00  -1.5849874697558561e-04 -5.0342942610171504e-06 0.0000000000000000e+00  -2.0273909308544681e-04 -6.4609485034162605e-06 0.0000000000000000e+00  -2.5910459709977833e-04 -8.2637814793741953e-06 0.0000000000000000e+00  -3.3208820228829231e-04 -1.0557866535660684e-05 0.0000000000000000e+00  -4.2810531682519631e-04 -1.3502373994697891e-05 0.0000000000000000e+00  -5.5644526759813736e-04 -1.7367436355551533e-05 0.0000000000000000e+00  -7.3065700772738731e-04 -2.2787584874253125e-05 0.0000000000000000e+00  -9.7040462371299826e-04 -3.1690822352504896e-05 0.0000000000000000e+00  -1.3033851869169027e-03 -5.0668503693680660e-05 0.0000000000000000e+00  -1.7654268655232894e-03 -1.0450026138518084e-04 0.0000000000000000e+00  0.0000000000000000e+00 0.0000000000000000e+00 0.0000000000000000e+00  -1.0921328993881768e-05 -3.4008422283756463e-07 0.0000000000000000e+00  -2.2368440239072424e-05 -6.9766332450086186e-07 0.0000000000000000e+00  -3.4904644197797736e-05 -1.0913912186259169e-06 0.0000000000000000e+00  -4.9175576389196208e-05 -1.5423385298199170e-06 0.0000000000000000e+00  -6.5964242757556984e-05 -2.0752200599930395e-06 0.0000000000000000e+00  -8.6266171626509693e-05 -2.7194163468889403e-06 0.0000000000000000e+00  -1.1139800355177115e-04 -3.5091156307769496e-06 0.0000000000000000e+00  -1.4316096984235817e-04 -4.4807655133789160e-06 0.0000000000000000e+00  -1.8409482118955173e-04 -5.6632861827282524e-06 0.0000000000000000e+00  -2.3788226847342133e-04 -7.0500478266365062e-06 0.0000000000000000e+00  -3.1000687379088593e-04 -8.5269370021831029e-06 0.0000000000000000e+00  -4.0884492546250351e-04 -9.6995012187543972e-06 0.0000000000000000e+00  -5.4752535708286034e-04 -9.5030232794664693e-06 0.0000000000000000e+00  -7.4722721384203983e-04 -5.3920857375728008e-06 0.0000000000000000e+00  -1.0431525605159207e-03 8.1693455684771226e-06 0.0000000000000000e+00  -1.4934932835000449e-03 4.2072218809050095e-05 0.0000000000000000e+00  0.0000000000000000e+00 0.0000000000000000e+00 0.0000000000000000e+00  -5.5991204403015343e-06 -1.7462036241875025e-07 0.0000000000000000e+00  -1.1472066258758396e-05 -3.5830034475650567e-07 0.0000000000000000e+00  -1.7913005872958538e-05 -5.6067536519971373e-07 0.0000000000000000e+00  -2.5260945638247258e-05 -7.9255599685299286e-07 0.0000000000000000e+00  -3.3930254967293923e-05 -1.0664212575701904e-06 0.0000000000000000e+00  -4.4453134072378338e-05 -1.3965672867862459e-06 0.0000000000000000e+00  -5.7542375418001643e-05 -1.7981627808877378e-06 0.0000000000000000e+00  -7.4188325709995475e-05 -2.2831595945701961e-06 0.0000000000000000e+00  -9.5813756647829474e-05 -2.8474895949722990e-06 0.0000000000000000e+00  -1.2452664347421279e-04 -3.4342663183535205e-06 0.0000000000000000e+00  -1.6353276779757059e-04 -3.8303052236539683e-06 0.0000000000000000e+00  -2.1777324715190803e-04 -3.3751578941563702e-06 0.0000000000000000e+00  -2.9469581600332891e-04 -1.4383030644607594e-07 0.0000000000000000e+00  -4.0413809727373525e-04 1.1283974125848233e-05 0.0000000000000000e+00  -5.5251679479841141e-04 4.5260590484532605e-05 0.0000000000000000e+00  -7.1654686479169657e-04 1.3365071317776093e-04 0.0000000000000000e+00  0.0000000000000000e+00 0.0000000000000000e+00 0.0000000000000000e+00  0.0000000000000000e+00 0.0000000000000000e+00 0.0000000000000000e+00  0.0000000000000000e+00 0.0000000000000000e+00 0.0000000000000000e+00  0.0000000000000000e+00 0.0000000000000000e+00 0.0000000000000000e+00  0.0000000000000000e+00 0.0000000000000000e+00 0.0000000000000000e+00  0.0000000000000000e+00 0.00000