<?xml version="1.0"?>
<VTKFile type="UnstructuredGrid"  version="0.1"  >
<UnstructuredGrid>
<Piece  NumberOfPoints="289" NumberOfCells="512">
<Points>
<DataArray  type="Float64"  NumberOfComponents="3"  format="ascii">0 0 0  0.0625 0 0  0.125 0 0  0.1875 0 0  0.25 0 0  0.3125 0 0  0.375 0 0  0.4375 0 0  0.5 0 0  0.5625 0 0  0.625 0 0  0.6875 0 0  0.75 0 0  0.8125 0 0  0.875 0 0  0.9375 0 0  1 0 0  0 0.0625 0  0.06257721757202853 0.06249824968581636 0  0.1251569058228925 0.06249644320886759 0  0.1877415698948607 0.06249452388288296 0  0.2503337748562198 0.0624924343731794 0  0.3129361662458099 0.06249011698494582 0  0.3755514816104149 0.06248751477352859 0  0.4381825574820578 0.06248457383973788 0  0.5008323517812985 0.06248124709394161 0  0.5635040416871582 0.06247749921605333 0  0.6262013616390564 0.06247331031235645 0  0.6889296316517733 0.06246866761299495 0  0.7516987575596077 0.06246350414333592 0  0.81453209771987 0.06245742415177011 0  0.8774939841169651 0.06244856167112893 0  0.9407816123333249 0.06242875328565334 0  1.005063818697888 0.06236181217894769 0  0 0.125 0  0.06265205614119479 0.1249965526799663 0  0.1253090344948796 0.1249929930818318 0  0.1879759314173767 0.1249892076158391 0  0.2506578735847407 0.1249850808171729 0  0.3133601621430002 0.1249804955668573 0  0.3760882931945936 0.1249753349233208 0  0.4388479539897415 0.1249694864245858 0  0.5016450106445036 0.1249628499279387 0  0.564485543889237 0.1249553501518704 0  0.6273760835743813 0.1249469549662711 0  0.690324399719673 0.1249377008802078 0  0.7533416273307398 0.124927735028157 0  0.8164471778087289 0.1249174407494605 0  0.8796779710538631 0.1249080535807584 0  0.9430961439851119 0.1249050139317255 0  1.006732927568395 0.1249359827346494 0  0 0.1875 0  0.06272206274556406 0.1874949651519236 0  0.1254514428989694 0.1874897626612575 0  0.1881955812708303 0.1874842223241049 0  0.2509621394555093 0.1874781697986722 0  0.3137590758284462 0.1874714260602254 0  0.3765946773858794 0.1874638090614688 0  0.4394775310748396 0.1874551389655267 0  0.5024164215934041 0.1874452489445982 0  0.5654201537784075 0.1874340044388011 0  0.628497319513485 0.1874213351182624 0  0.6916560492602482 0.187407286065811 0  0.7549037241268038 0.1873920987179939 0  0.8182461368622729 0.1873763342606149 0  0.8816835540769358 0.1873609982703513 0  0.9451946056992073 0.1873470818892325 0  1.008684490004782 0.1873300141450722 0  0 0.25 0  0.06278484191544903 0.2499935424831559 0  0.1255792928258243 0.24998686389083 0  0.1883931486952541 0.2499797387491063 0  0.2512365481005756 0.2499719338299174 0  0.3141200977824599 0.2499632058444128 0  0.3770549339964651 0.2499533015186644 0  0.4400526835235646 0.2499419617354597 0  0.5031252736867871 0.249928932421234 0  0.5662845178292087 0.2499139864357718 0  0.6295413604305308 0.2498969631520944 0  0.6929045724012897 0.2498778358957258 0  0.7563784577521762 0.2498568213040893 0  0.8199585772943403 0.2498345445717755 0  0.8836233073202876 0.2498122562506543 0  0.9473172742987684 0.2497920586591797 0  1.010923292886033 0.2497774673231875 0  0 0.3125 0  0.06283810307599282 0.312492338077714 0  0.1256879408059049 0.3124844053709794 0  0.1885615164577083 0.3124759242653361 0  0.2514713389527295 0.3124666043606795 0  0.3144306263334525 0.3124561372650309 0  0.3774534348129894 0.3124441933333623 0  0.4405546618860978 0.3124304219725934 0  0.5037498424768694 0.3124144583190037 0  0.5670546095139734 0.3123959411193144 0  0.6304836123886675 0.3123745500333365 0  0.6940485572062817 0.3123500760443664 0  0.7577548213322615 0.3123225470151607 0  0.82159578744628 0.3122924425388823 0  0.8855437662425035 0.3122610518727755 0  0.9495368034737663 0.3122310808530258 0  1.013463847752973 0.3122077988699798 0  0 0.375 0  0.06287972290019012 0.3749914015661102 0  0.1257730588908312 0.3749824887791789 0  0.188693990245595 0.3749729375783358 0  0.2516572128049478 0.3749624049577091 0  0.3146784529761998 0.3749505198375784 0  0.3777747185464405 0.3749368747462646 0  0.4409644274960046 0.3749210193595343 0  0.5042673206469546 0.3749024579922437 0  0.5677040027105397 0.3748806551017813 0  0.6312948616820849 0.3748550565227143 0  0.6950579785034937 0.3748251408821763 0  0.759005460636897 0.3747905277280359 0  0.8231374698571556 0.3747511896804626 0  0.8874332651141333 0.3747078484695426 0  0.9518393371556847 0.3746626714620989 0  1.016256968841364 0.3746203492463314 0  0 0.4375 0  0.06290782652841508 0.437490776391807 0  0.1258307962098635 0.4374812038966954 0  0.1887845369267808 0.4374709209045119 0  0.2517856359105813 0.437459540236076 0  0.3148521056225576 0.4374466354977032 0  0.3780038154645201 0.437431726522382 0  0.4412628444337311 0.4374142638538557 0  0.5046536700913139 0.437393612705654 0  0.5682030441123841 0.4373690379307122 0  0.6319393026966129 0.437339694052488 0  0.6958907105512726 0.4373046300437454 0  0.7600822419209731 0.4372628308957254 0  0.8245300041864704 0.4372133442676929 0  0.8892324430682568 0.4371555935670199 0  0.9541577986884652 0.4370900783507918 0  1.019228278489456 0.4370198341141519 0  0 0.5 0  0.06292088852468512 0.499990496927019 0  0.1258579849279834 0.4999806225291691 0  0.1888281025184496 0.4999699900349899 0  0.2518492772460105 0.4999581809773997 0  0.3149414073964976 0.4999447271511167 0  0.3781269154672801 0.4999290896757059 0  0.4414314152366514 0.4999106337117345 0  0.5048843349361636 0.4998885968925517 0  0.5685193903759524 0.4998620489162109 0  0.6323747041944151 0.4998298392390665 0  0.6964922074448944 0.499790530396798 0  0.7609157129780852 0.4997423192060599 0  0.8256867020916225 0.4996829654949498 0  0.8908364444687369 0.4996097996489855 0  0.9563727006161449 0.4995200152628939 0  1.022259190297357 0.4994117689842705 0  0 0.5625 0  0.06291784951882769 0.5624905854274719 0  0.1258523835911796 0.5624807919793261 0  0.1888210025529768 0.5624702233679053 0  0.2518425766072626 0.5624584470527991 0  0.3149382630145248 0.5624449727768418 0  0.3781324208419198 0.5624292264742222 0  0.4414536500088019 0.5624105167819227 0  0.5049359678495604 0.5623879898515338 0  0.5686201045641694 0.5623605654312267 0  0.632554830482001 0.5623268423718699 0  0.6967980894516232 0.5622849534245106 0  0.7614174442727136 0.562232335938925 0  0.8264888436413584 0.5621653676589232 0  0.8920918620512933 0.5620788075063163 0  0.9582982631965272 0.5619650295041559 0  1.025149295271887 0.5618132740994067 0  0 0.625 0  0.06289823848535923 0.6249910492600569 0  0.125812937551168 0.62498172902467 0  0.1887613541217596 0.6249716515697005 0  0.2517624029279298 0.6249603908498078 0  0.3148376244860129 0.6249474593494396 0  0.3780123333038318 0.6249322793270625 0  0.4413170272264263 0.6249141449568186 0  0.5047891550920255 0.6248921697144428 0  0.5684753545401697 0.6248652092120083 0  0.6324342726390353 0.6248317414574397 0  0.6967400382222402 0.6247896696354733 0  0.7614862927601096 0.6247359772030757 0  0.8267902370570042 0.6246660916336563 0  0.8927950572228628 0.6245726680060607 0  0.9596667620979332 0.6244432614203307 0  1.027577630561579 0.624256178170239 0  0 0.6875 0  0.06286228482301319 0.687491878877776 0  0.1257400230178973 0.6874834154612972 0  0.1886494949515258 0.6874742497751455 0  0.2516087216932427 0.6874639844609031 0  0.3146385220808061 0.6874521620919481 0  0.3777638225785723 0.6874382369297035 0  0.4410153548196635 0.6874215378011397 0  0.5044319287106778 0.6874012168651662 0  0.568063547657946 0.6873761753385619 0  0.6319757446580829 0.6873449495936439 0  0.6962556676717497 0.6873055238209821 0  0.7610206116395372 0.687254993463948 0  0.8264297748458452 0.6871888939024411 0  0.8926995759489039 0.6870997063362888 0  0.9601204471499339 0.6869731833817611 0  1.029065014492226 0.6867785726676326 0  0 0.75 0  0.0628110003868767 0.7499930469457404 0  0.1256356317095341 0.7499857961242298 0  0.1884883162094222 0.7499779339901292 0  0.2513851562510409 0.749969113549926 0  0.3143449865272093 0.7499589342143357 0  0.3773907215926722 0.7499469170389005 0  0.4405511724314113 0.7499324729767588 0  0.5038635922765883 0.749914860898346 0  0.5673773549415418 0.7498931308363098 0  0.6311594073083258 0.7498660459324501 0  0.6953025434055315 0.7498319730152595 0  0.7599382607146115 0.7497887226018961 0  0.8252572527067042 0.7497332856028061 0  0.8915428795559036 0.74966127350707 0  0.9592258224114784 0.7495652757642155 0  1.028963368440687 0.7494287045711643 0  0 0.8125 0  0.0627462109438171 0.8124945088490548 0  0.1255034505807629 0.8124887798978289 0  0.1882834286975396 0.8124825626189546 0  0.2510993106993146 0.8124755794891331 0  0.3139666505463298 0.8124675099646339 0  0.3769046147260613 0.8124579712262605 0  0.4399376794602744 0.8124464944621768 0  0.5030980864270648 0.8124324956826374 0  0.5664295220494598 0.8124152413185716 0  0.629992806102714 0.8123938133752674 0  0.6938749723790028 0.8123670935475857 0  0.7582043165981921 0.812333831763505 0  0.823176644610521 0.8122930072286478 0  0.8891047743154576 0.81224511400615 0  0.9565226309982678 0.8121961461930192 0  1.026415919343078 0.8121689118802289 0  0 0.875 0  0.06267052030468814 0.8749962045878946 0  0.1253487984779106 0.8749922437054869 0  0.1880430922658843 0.8749879430299541 0  0.2507627325555322 0.8749831094708714 0  0.3135188221217639 0.874977520209263 0  0.3763251673353292 0.8749709098316646 0  0.4391995944666651 0.8749629551004908 0  0.5021658942942917 0.8749532574645653 0  0.5652568033000003 0.8749413250781964 0  0.6285187300824989 0.8749265608828312 0  0.6920195032874819 0.8749082779949484 0  0.7558615586328319 0.8748858150646847 0  0.8202056001267451 0.8748590345983739 0  0.8853177114064653 0.8748304799873449 0  0.9516901467274134 0.8748157972091228 0  1.020562312354635 0.8749024748198243 0  0 0.9375 0  0.06258719883357612 0.937498061859522 0  0.1251783995930538 0.9374960389986721 0  0.1877778681135 0.9374938421930951 0  0.2503904381882163 0.9374913726785655 0  0.313021884565851 0.9374885166509418 0  0.3756794246491151 0.9374851389177632 0  0.4383724343528236 0.93748107555
[...]
<PointData  Vectors="f_54"> 
<DataArray  type="Float64"  Name="f_54"  NumberOfComponents="3" format="ascii">0.0000000000000000e+00 0.0000000000000000e+00 0.0000000000000000e+00  0.0000000000000000e+00 0.0000000000000000e+00 0.0000000000000000e+00  0.0000000000000000e+00 0.0000000000000000e+00 0.0000000000000000e+00  0.0000000000000000e+00 0.0000000000000000e+00 0.0000000000000000e+00  0.0000000000000000e+00 0.0000000000000000e+00 0.0000000000000000e+00  0.0000000000000000e+00 0.0000000000000000e+00 0.0000000000000000e+00  0.0000000000000000e+00 0.0000000000000000e+00 0.0000000000000000e+00  0.0000000000000000e+00 0.0000000000000000e+00 0.0000000000000000e+00  0.0000000000000000e+00 0.0000000000000000e+00 0.0000000000000000e+00  0.0000000000000000e+00 0.0000000000000000e+00 0.0000000000000000e+00  0.0000000000000000e+00 0.0000000000000000e+00 0.0000000000000000e+00  0.0000000000000000e+00 0.0000000000000000e+00 0.0000000000000000e+00  0.0000000000000000e+00 0.0000000000000000e+00 0.0000000000000000e+00  0.0000000000000000e+00 0.0000000000000000e+00 0.0000000000000000e+00  0.0000000000000000e+00 0.0000000000000000e+00 0.0000000000000000e+00  0.0000000000000000e+00 0.0000000000000000e+00 0.0000000000000000e+00  0.0000000000000000e+00 0.0000000000000000e+00 0.0000000000000000e+00  0.0000000000000000e+00 0.0000000000000000e+00 0.0000000000000000e+00  -2.6966855399264262e-07 -2.9384423737367988e-08 0.0000000000000000e+00  -5.2883202989600527e-07 -5.9428197106394685e-08 0.0000000000000000e+00  -7.6389934738849872e-07 -9.0795860479082162e-08 0.0000000000000000e+00  -9.5465006980774859e-07 -1.2416645624782470e-07 0.0000000000000000e+00  -1.0698026914512158e-06 -1.6026727407934288e-07 0.0000000000000000e+00  -1.0610576448308599e-06 -1.9995191371998726e-07 0.0000000000000000e+00  -8.5468780012141418e-07 -2.4436286268520863e-07 0.0000000000000000e+00  -3.3906938260353508e-07 -2.9525259253717610e-07 0.0000000000000000e+00  6.5508312524990359e-07 -3.5560810348447738e-07 0.0000000000000000e+00  2.3891988248460744e-06 -4.3089810087745034e-07 0.0000000000000000e+00  5.2849212237834322e-06 -5.3176644515177324e-07 0.0000000000000000e+00  1.0078026534200134e-05 -6.8065776843668880e-07 0.0000000000000000e+00  1.8214532336116132e-05 -9.3086260336763584e-07 0.0000000000000000e+00  3.2994640474049992e-05 -1.4297239999833754e-06 0.0000000000000000e+00  6.3255355223123164e-05 -2.6550768032232237e-06 0.0000000000000000e+00  1.3695699300843138e-04 -6.4270777477773464e-06 0.0000000000000000e+00  0.0000000000000000e+00 0.0000000000000000e+00 0.0000000000000000e+00  -5.5046149408573799e-07 -5.8181024016328834e-08 0.0000000000000000e+00  -1.0829525811463759e-06 -1.1768544293802264e-07 0.0000000000000000e+00  -1.5737063014068536e-06 -1.7983850957283151e-07 0.0000000000000000e+00  -1.9864824556485011e-06 -2.4597387923897098e-07 0.0000000000000000e+00  -2.2642205748775204e-06 -3.1747995179686333e-07 0.0000000000000000e+00  -2.3178758958095401e-06 -3.9591828136452997e-07 0.0000000000000000e+00  -2.0109092273696280e-06 -4.8327996845493680e-07 0.0000000000000000e+00  -1.1370813441336217e-06 -5.8249393111309758e-07 0.0000000000000000e+00  6.1251773452289273e-07 -6.9837881623045414e-07 0.0000000000000000e+00  3.7010623117817599e-06 -8.3935300375869413e-07 0.0000000000000000e+00  8.8325246673712430e-06 -1.0203843422014587e-06 0.0000000000000000e+00  1.7107649894060985e-05 -1.2676983705615987e-06 0.0000000000000000e+00  3.0317554725300174e-05 -1.6243491480791707e-06 0.0000000000000000e+00  5.1473686753688341e-05 -2.1450367808075462e-06 0.0000000000000000e+00  8.5488488832960783e-05 -2.8052761902176378e-06 0.0000000000000000e+00  1.3810074221551962e-04 -2.8995090650676751e-06 0.0000000000000000e+00  0.0000000000000000e+00 0.0000000000000000e+00 0.0000000000000000e+00  -8.4977446807402711e-07 -8.5722598450037502e-08 0.0000000000000000e+00  -1.6798953587374759e-06 -1.7344304774842099e-07 0.0000000000000000e+00  -2.4629640750704263e-06 -2.6514385887071834e-07 0.0000000000000000e+00  -3.1548590316909512e-06 -3.6277590251003531e-07 0.0000000000000000e+00  -3.6834877064756844e-06 -4.6828100173449185e-07 0.0000000000000000e+00  -3.9337814230175213e-06 -5.8368630669284733e-07 0.0000000000000000e+00  -3.7271703508736458e-06 -7.1134386460643149e-07 0.0000000000000000e+00  -2.7933033991310438e-06 -8.5444108241273097e-07 0.0000000000000000e+00  -7.3115063023053107e-07 -1.0179781091633903e-06 0.0000000000000000e+00  3.0440513554160012e-06 -1.2104769245232642e-06 0.0000000000000000e+00  9.3715235099783591e-06 -1.4466759304209375e-06 0.0000000000000000e+00  1.9432590521500700e-05 -1.7511455553890329e-06 0.0000000000000000e+00  3.4832250650157708e-05 -2.1616554700543016e-06 0.0000000000000000e+00  5.7564628209466522e-05 -2.7292421267794602e-06 0.0000000000000000e+00  8.9466786828405924e-05 -3.5183190272944006e-06 0.0000000000000000e+00  1.3004008785114874e-04 -4.7059386995493678e-06 0.0000000000000000e+00  0.0000000000000000e+00 0.0000000000000000e+00 0.0000000000000000e+00  -1.1692085266523759e-06 -1.1133165927506339e-07 0.0000000000000000e+00  -2.3248517708440786e-06 -2.2536519468202449e-07 0.0000000000000000e+00  -3.4447426324894498e-06 -3.4475782809548855e-07 0.0000000000000000e+00  -4.4879509012714814e-06 -4.7206350697275632e-07 0.0000000000000000e+00  -5.3819943011233838e-06 -6.0969225735739140e-07 0.0000000000000000e+00  -6.0056073927771454e-06 -7.5990736769438497e-07 0.0000000000000000e+00  -6.1652061583080324e-06 -9.2492324359428283e-07 0.0000000000000000e+00  -5.5630640763471800e-06 -1.1072244100145467e-06 0.0000000000000000e+00  -3.7556372609174152e-06 -1.3103090420486336e-06 0.0000000000000000e+00  -1.0236535341586524e-07 -1.5401523264710007e-06 0.0000000000000000e+00  6.2891248426794862e-06 -1.8077162928201402e-06 0.0000000000000000e+00  1.6600963259449446e-05 -2.1326186021272960e-06 0.0000000000000000e+00  3.2270944342007601e-05 -2.5472493642535715e-06 0.0000000000000000e+00  5.4756137644063874e-05 -3.0986896399416498e-06 0.0000000000000000e+00  8.4833258550564265e-05 -3.8418230045991498e-06 0.0000000000000000e+00  1.2108086952290199e-04 -4.8004434806236636e-06 0.0000000000000000e+00  0.0000000000000000e+00 0.0000000000000000e+00 0.0000000000000000e+00  -1.5026200319272401e-06 -1.3430198729400605e-07 0.0000000000000000e+00  -3.0064592546879899e-06 -2.7207006932236159e-07 0.0000000000000000e+00  -4.5045299530138045e-06 -4.1669468834959799e-07 0.0000000000000000e+00  -5.9717712503506223e-06 -5.7138141842962208e-07 0.0000000000000000e+00  -7.3522486811811875e-06 -7.3901863058173849e-07 0.0000000000000000e+00  -8.5414479947534344e-06 -9.2201334411703173e-07 0.0000000000000000e+00  -9.3615067315358119e-06 -1.1221247299649294e-06 0.0000000000000000e+00  -9.5271155979144470e-06 -1.3403856371544853e-06 0.0000000000000000e+00  -8.6004104312161036e-06 -1.5773156214078499e-06 0.0000000000000000e+00  -5.9355804642624471e-06 -1.8338165582718269e-06 0.0000000000000000e+00  -6.2036771379169078e-07 -2.1134055541356807e-06 0.0000000000000000e+00  8.5639102067935431e-06 -2.4266999823838945e-06 0.0000000000000000e+00  2.3114121078606010e-05 -2.7990290097629136e-06 0.0000000000000000e+00  4.4614496275326752e-05 -3.2809079740672562e-06 0.0000000000000000e+00  7.4244936422468717e-05 -3.9570046730069803e-06 0.0000000000000000e+00  1.1189001570395498e-04 -4.9386230728684920e-06 0.0000000000000000e+00  0.0000000000000000e+00 0.0000000000000000e+00 0.0000000000000000e+00  -1.8352388884402253e-06 -1.5386901933208957e-07 0.0000000000000000e+00  -3.6948132677235077e-06 -3.1206003580108323e-07 0.0000000000000000e+00  -5.5966794123489128e-06 -4.7880545931013029e-07 0.0000000000000000e+00  -7.5443707946914159e-06 -6.5810220326057269e-07 0.0000000000000000e+00  -9.5159984796752726e-06 -8.5348652332219406e-07 0.0000000000000000e+00  -1.1448110179908401e-05 -1.0676759192594942e-06 0.0000000000000000e+00  -1.3211765272297318e-05 -1.3020420738484280e-06 0.0000000000000000e+00  -1.4577550118306021e-05 -1.5559222082730246e-06 0.0000000000000000e+00  -1.5165930409708538e-05 -1.8258993121826226e-06 0.0000000000000000e+00  -1.4380135360642013e-05 -2.1054704974010866e-06 0.0000000000000000e+00  -1.1322332456947450e-05 -2.3861169569683548e-06 0.0000000000000000e+00  -4.7029180841506358e-06 -2.6618617924731947e-06 0.0000000000000000e+00  7.2294084796431019e-06 -2.9410135496237701e-06 0.0000000000000000e+00  2.6682063305700112e-05 -3.2704186143664057e-06 0.0000000000000000e+00  5.6157912644988355e-05 -3.7770173940166097e-06 0.0000000000000000e+00  9.8071915949369143e-05 -4.7236676900137385e-06 0.0000000000000000e+00  0.0000000000000000e+00 0.0000000000000000e+00 0.0000000000000000e+00  -2.1440672223544594e-06 -1.6917958114128123e-07 0.0000000000000000e+00  -4.3421377805806366e-06 -3.4364231176379173e-07 0.0000000000000000e+00  -6.6450663607626431e-06 -5.2860884350947868e-07 0.0000000000000000e+00  -9.0959742960265373e-06 -7.2909964953416559e-07 0.0000000000000000e+00  -1.1723055058602798e-05 -9.4966056866539308e-07 0.0000000000000000e+00  -1.4527541397861247e-05 -1.1938414573129268e-06 0.0000000000000000e+00  -1.7463718592071151e-05 -1.4632906527966044e-06 0.0000000000000000e+00  -2.0406346875874003e-05 -1.7563071434413097e-06 0.0000000000000000e+00  -2.3098777833720818e-05 -2.0657406729241779e-06 0.0000000000000000e+00  -2.5072589496883338e-05 -2.3763885234849566e-06 0.0000000000000000e+00  -2.5527463956454172e-05 -2.6628174928991560e-06 0.0000000000000000e+00  -2.3160152733376238e-05 -2.8904407632739966e-06 0.0000000000000000e+00  -1.5937273534299666e-05 -3.0266453250109580e-06 0.0000000000000000e+00  -8.2334313627821550e-07 -3.0756939255144026e-06 0.0000000000000000e+00  2.6493325454836900e-05 -3.1600799106763251e-06 0.0000000000000000e+00  7.1790139398808620e-05 -3.6744146619451105e-06 0.0000000000000000e+00  0.0000000000000000e+00 0.0000000000000000e+00 0.0000000000000000e+00  -2.3996737426386522e-06 -1.7927943968699370e-07 0.0000000000000000e+00  -4.8863788179357512e-06 -3.6488025287763639e-07 0.0000000000000000e+00  -7.5484292148012575e-06 -5.6315177384201135e-07 0.0000000000000000e+00  -1.0475810443650919e-05 -7.8041980920241583e-07 0.0000000000000000e+00  -1.3758859819260655e-05 -1.0227636123703089e-06 0.0000000000000000e+00  -1.7483378285022107e-05 -1.2954607324514387e-06 0.0000000000000000e+00  -2.1719052293999172e-05 -1.6018445519990919e-06 0.0000000000000000e+00  -2.6495666315354078e-05 -1.9411750700922018e-06 0.0000000000000000e+00  -3.1757516869850327e-05 -2.3049539146672374e-06 0.0000000000000000e+00  -3.7279849634938841e-05 -2.6710348831753718e-06 0.0000000000000000e+00  -4.2521218388985710e-05 -2.9952697049871734e-06 0.0000000000000000e+00  -4.6372541712555641e-05 -3.2022989885279874e-06 0.0000000000000000e+00  -4.6750669154123135e-05 -3.1827755584813975e-06 0.0000000000000000e+00  -3.9982188207393251e-05 -2.8182104433066207e-06 0.0000000000000000e+00  -1.9954169905103203e-05 -2.0827711084646963e-06 0.0000000000000000e+00  2.2898883383029758e-05 -1.3156234392654910e-06 0.0000000000000000e+00  0.0000000000000000e+00 0.0000000000000000e+00 0.0000000000000000e+00  -2.5693709510559640e-06 -1.8314196966137614e-07 0.0000000000000000e+00  -5.2577588015759204e-06 -3.7362870570447371e-07 0.0000000000000000e+00  -8.1906323606105215e-06 -5.7899685333435451e-07 0.0000000000000000e+00  -1.1506356642667943e-05 -8.0710940726540898e-07 0.0000000000000000e+00  -1.5362505738801789e-05 -1.0661373491746964e-06 0.0000000000000000e+00  -1.9941195150677218e-05 -1.3642153324103700e-06 0.0000000000000000e+00  -2.5451297761604196e-05 -1.7084377080063470e-06 0.0000000000000000e+00  -3.2122705718940387e-05 -2.1025661140969689e-06 0.0000000000000000e+00  -4.0182468155074713e-05 -2.5423072724259436e-06 0.0000000000000000e+00  -4.9792482241926195e-05 -3.0062112087205901e-06 0.0000000000000000e+00  -6.0910009517838514e-05 -3.4392170606606583e-06 0.0000000000000000e+00  -7.3001382062613088e-05 -3.7254181322409310e-06 0.0000000000000000e+00  -8.4493955725668045e-05 -3.6497614350275829e-06 0.0000000000000000e+00  -9.1802123482304188e-05 -2.8640269848391056e-06 0.0000000000000000e+00  -8.7753106208947085e-05 -9.2106301793610699e-07 0.0000000000000000e+00  -5.9358492461418266e-05 2.4449617024299146e-06 0.0000000000000000e+00  0.0000000000000000e+00 0.0000000000000000e+00 0.0000000000000000e+00  -2.6215738841157857e-06 -1.7975935408462749e-07 0.0000000000000000e+00  -5.3879587356619434e-06 -3.6770688340971431e-07 0.0000000000000000e+00  -8.4555719828315968e-06 -5.7244589763443113e-07 0.0000000000000000e+00  -1.2005188229344721e-05 -8.0340753800247623e-07 0.0000000000000000e+00  -1.6256730036004896e-05 -1.0712064956697061e-06 0.0000000000000000e+00  -2.1486970168446427e-05 -1.3878286789447669e-06 0.0000000000000000e+00  -2.8050323416503862e-05 -1.7663626666891310e-06 0.0000000000000000e+00  -3.6401074414967975e-05 -2.2196106372948609e-06 0.0000000000000000e+00  -4.7110803968541786e-05 -2.7561118362104414e-06 0.0000000000000000e+00  -6.0864106196920681e-05 -3.3704462143279196e-06 0.0000000000000000e+00  -7.8392238741018048e-05 -4.0213896758062018e-06 0.0000000000000000e+00  -1.0025587857414576e-04 -4.5855561778220873e-06 0.0000000000000000e+00  -1.2629639050550242e-04 -4.7656951013272646e-06 0.0000000000000000e+00  -1.5442675832840977e-04 -3.9294515648724917e-06 0.0000000000000000e+00  -1.7827014732429834e-04 -8.9300212782559396e-07 0.0000000000000000e+00  -1.8319073180489485e-04 6.1367803483579660e-06 0.0000000000000000e+00  0.0000000000000000e+00 0.0000000000000000e+00 0.0000000000000000e+00  -2.5308832615997573e-06 -1.6830556104671582e-07 0.0000000000000000e+00  -5.2210428904996359e-06 -3.4523908143816261e-07 0.0000000000000000e+00  -8.2455220183495757e-06 -5.4008057531662735e-07 0.0000000000000000e+00  -1.1813241090524238e-05 -7.6349331358751440e-07 0.0000000000000000e+00  -1.6189530749585595e-05 -1.0283668151716065e-06 0.0000000000000000e+00  -2.1726144096922079e-05 -1.3508129942080757e-06 0.0000000000000000e+00  -2.8902390756376609e-05 -1.7512619272659774e-06 0.0000000000000000e+00  -3.8381562350038813e-05 -2.2553469524223479e-06 0.0000000000000000e+00  -5.1086083152723746e-05 -2.8935597747802233e-06 0.0000000000000000e+00  -6.8289741168191582e-05 -3.6967810752443427e-06 0.0000000000000000e+00  -9.1707765720496336e-05 -4.6799713909345482e-06 0.0000000000000000e+00  -1.2351501547966837e-04 -5.7942620827429767e-06 0.0000000000000000e+00  -1.6609240068418685e-04 -6.7989937427320347e-06 0.0000000000000000e+00  -2.2100265321884618e-04 -6.9438244715190125e-06 0.0000000000000000e+00  -2.8613520436162682e-04 -4.2539981488365720e-06 0.0000000000000000e+00  -3.4934642014333858e-04 5.7816805056294132e-06 0.0000000000000000e+00  0.0000000000000000e+00 0.0000000000000000e+00 0.0000000000000000e+00  -2.2831513326997302e-06 -1.4835665523003221e-07 0.0000000000000000e+00  -4.7245777800987978e-06 -3.0514148174728292e-07 0.0000000000000000e+00  -7.5004672482410785e-06 -4.7961305341731614e-07 0.0000000000000000e+00  -1.0826093415230037e-05 -6.8285443626774103e-07 0.0000000000000000e+00  -1.4983337799883099e-05 -9.2907267440050588e-07 0.0000000000000000e+00  -2.0359655318242135e-05 -1.2374526365203486e-06 0.0000000000000000e+00  -2.7505807479760365e-05 -1.6349022039125796e-06 0.0000000000000000e+00  -3.7223616363108514e-05 -2.1601404758507199e-06 0.0000000000000000e+00  -5.0700973575933724e-05 -2.8695943973090314e-06 0.0000000000000000e+00  -6.9719284863662784e-05 -3.8450238998360554e-06 0.0000000000000000e+00  -9.6965000269944431e-05 -5.2000667269950784e-06 0.0000000000000000e+00  -1.3646530084202992e-04 -7.0724331020788794e-06 0.0000000000000000e+00  -1.9407657290648083e-04 -9.5516239924928088e-06 0.0000000000000000e+00  -2.7758227093589369e-04 -1.2367654758079229e-05 0.0000000000000000e+00  -3.9477816051488473e-04 -1.3774792378310592e-05 0.0000000000000000e+00  -5.4546139428431203e-04 -7.1154856950477661e-06 0.0000000000000000e+00  0.0000000000000000e+00 0.0000000000000000e+00 0.0000000000000000e+00  -1.8795652059548031e-06 -1.2012329932511483e-07 0.0000000000000000e+00  -3.8988259716385749e-06 -2.4765957355262549e-07 0.0000000000000000e+00  -6.2147505862985599e-06 -3.9089492414343656e-07 0.0000000000000000e+00  -9.0224040756767589e-06 -5.6007727394485761e-07 0.0000000000000000e+00  -1.2582840184553060e-05 -7.6894466004824326e-07 0.0000000000000000e+00  -1.7264210138660924e-05 -1.0371120206477536e-06 0.0000000000000000e+00  -2.3605748671470408e-05 -1.3940235992365285e-06 0.0000000000000000e+00  -3.2421203746490504e-05 -1.8857582520973645e-06 0.0000000000000000e+00  -4.4971137286970787e-05 -2.5870875106379835e-06 0.0000000000000000e+00  -6.3257619384462509e-05 -3.6232962861849526e-06 0.0000000000000000e+00  -9.0539646596922064e-05 -5.2100975480400878e-06 0.0000000000000000e+00  -1.3224664456025668e-04 -7.7257829861830579e-06 0.0000000000000000e+00  -1.9757963684366919e-04 -1.1831807199736385e-05 0.0000000000000000e+00  -3.0208745237339166e-04 -1.8608069261792931e-05 0.0000000000000000e+00  -4.7032068419519777e-04 -2.9234239732616281e-05 0.0000000000000000e+00  -7.2913091171096598e-04 -4.0566157588264199e-05 0.0000000000000000e+00  0.0000000000000000e+00 0.0000000000000000e+00 0.0000000000000000e+00  -1.3387402174554444e-06 -8.4624455395725931e-08 0.0000000000000000e+00  -2.7817087543530266e-06 -1.7479240027405514e-07 0.0000000000000000e+00  -4.4467585948412222e-06 -2.7677920969901654e-07 0.0000000000000000e+00  -6.4820063789725099e-06 -3.9852804996494959e-07 0.0000000000000000e+00  -9.0885547785124005e-06 -5.5102001239129487e-07 0.0000000000000000e+00  -1.2554847909490130e-05 -7.5052263563839074e-07 0.0000000000000000e+00  -1.7311825585105512e-05 -1.0225298232177265e-06 0.0000000000000000e+00  -2.4025549123897877e-05 -1.4090103619771122e-06 0.0000000000000000e+00  -3.3759220458691246e-05 -1.9823358601105794e-06 0.0000000000000000e+00  -4.8268761558123190e-05 -2.8732459598894196e-06 0.0000000000000000e+00  -7.0567655910699713e-05 -4.3297595229346627e-06 0.0000000000000000e+00  -1.0606389550098375e-04 -6.8483625247169570e-06 0.0000000000000000e+00  -1.6498290796496462e-04 -1.1486843536411048e-05 0.0000000000000000e+00  -2.6784434827248848e-04 -2.0682020324567461e-05 0.0000000000000000e+00  -4.5850934348360187e-04 -4.0704610824147673e-05 0.0000000000000000e+00  -8.3638074000175157e-04 -9.1138559305908141e-05 0.0000000000000000e+00  0.0000000000000000e+00 0.0000000000000000e+00 0.0000000000000000e+00  -6.9605541785508849e-07 -4.3726520262999823e-08 0.0000000000000000e+00  -1.4476986589758746e-06 -9.0418693670613039e-08 0.0000000000000000e+00  -2.3179929272594313e-06 -1.4345850216361985e-07 0.0000000000000000e+00  -3.3866661462854966e-06 -2.0718368213373625e-07 0.0000000000000000e+00  -4.7627812623136270e-06 -2.8769432454027988e-07 0.0000000000000000e+00  -6.6041357722061405e-06 -3.9420851734159155e-07 0.0000000000000000e+00  -9.1488814516697341e-06 -5.4149979194339799e-07 0.0000000000000000e+00  -1.2769630371818439e-05 -7.5451002187563330e-07 0.0000000000000000e+00  -1.8070403535554010e-05 -1.0774960468042647e-06 0.0000000000000000e+00  -2.6069302643153943e-05 -1.5930457308831796e-06 0.0000000000000000e+00  -3.8563679570432638e-05 -2.4636649619801616e-06 0.0000000000000000e+00  -5.8914790211763393e-05 -4.0278685882749426e-06 0.0000000000000000e+00  -9.3891438952187301e-05 -7.0358302984567092e-06 0.0000000000000000e+00  -1.5850290870983243e-04 -1.3264144995879077e-05 0.0000000000000000e+00  -2.9035801145315657e-04 -2.7204061819987103e-05 0.0000000000000000e+00  -5.9675396229679888e-04 -6.0535230982050986e-05 0.0000000000000000e+00  0.0000000000000000e+00 0.0000000000000000e+00 0.0000000000000000e+00  0.0000000000000000e+00 0.0000000000000000e+00 0.0000000000000000e+00  0.0000000000000000e+00 0.0000000000000000e+00 0.0000000000000000e+00  0.0000000000000000e+00 0.0000000000000000e+00 0.0000000000000000e+00  0.0000000000000000e+00 0.0000000000000000e+00 0.0000000000000000e+00  0.0000000000000000e+00 0.0000000000000000e+00 0.0000000000000000e+