<?xml version="1.0"?>
<VTKFile type="UnstructuredGrid"  version="0.1"  >
<UnstructuredGrid>
<Piece  NumberOfPoints="289" NumberOfCells="512">
<Points>
<DataArray  type="Float64"  NumberOfComponents="3"  format="ascii">0 0 0  0.0625 0 0  0.125 0 0  0.1875 0 0  0.25 0 0  0.3125 0 0  0.375 0 0  0.4375 0 0  0.5 0 0  0.5625 0 0  0.625 0 0  0.6875 0 0  0.75 0 0  0.8125 0 0  0.875 0 0  0.9375 0 0  1 0 0  0 0.0625 0  0.06252493788548628 0.0624977559274298 0  0.1250510889121947 0.06249547180010274 0  0.1875797451014791 0.0624931109353933 0  0.2501123677511078 0.06249064395502775 0  0.3126506935443034 0.06248805314654927 0  0.3751968720416149 0.06248533734356319 0  0.4377536580487236 0.06248251676845266 0  0.5003247044384395 0.06247963625340123 0  0.5629150540117158 0.06247676322787957 0  0.6255320633470182 0.06247397254668319 0  0.688187353561692 0.06247129952488003 0  0.750901426319895 0.06246861015480418 0  0.8137158206620972 0.06246522109044219 0  0.8767285403549399 0.06245863285340608 0  0.9402081176974165 0.06243969747151882 0  1.005005416138647 0.06237185344399975 0  0 0.125 0  0.06254866884453415 0.1249955483145514 0  0.1250996863609272 0.1249910127028325 0  0.1876555522113487 0.1249863156705404 0  0.250219089509726 0.1249813938103367 0  0.3127936452838485 0.1249762065984923 0  0.3753833454537812 0.1249707467893296 0  0.4379934399628985 0.1249650517999681 0  0.5006308003291039 0.1249592138938915 0  0.5633046893527401 0.1249533841428062 0  0.626028049017583 0.1249477605341422 0  0.6888198294882331 0.1249425445344456 0  0.7517094629144528 0.1249378494641864 0  0.8147456296907424 0.1249335893116572 0  0.8780123077581047 0.1249296911394356 0  0.9416488202137115 0.1249287241097251 0  1.005812542396175 0.1249522742308214 0  0 0.1875 0  0.06257006131324365 0.187493421196522 0  0.1251434552653554 0.1874867075904377 0  0.1877237243241138 0.1874797331273218 0  0.2503148593939405 0.1874723912722431 0  0.3129215736519585 0.187464608073765 0  0.3755496426295415 0.1874563587797858 0  0.438206345137835 0.187447688123425 0  0.5009010542773648 0.1874387327337237 0  0.5636460517622592 0.1874297409952632 0  0.6264576737731125 0.1874210803360998 0  0.689357927115604 0.1874132137265972 0  0.7523766446671959 0.187406615670959 0  0.8155536788518407 0.1874015776122341 0  0.8789381795646142 0.1873977634169375 0  0.9425737665850464 0.1873927635191474 0  1.006437820802019 0.1873748262185372 0  0 0.25 0  0.06258813571600219 0.2499914256048938 0  0.1251803760376609 0.2499826560906652 0  0.1877810765978442 0.2499735060600691 0  0.2503951284447659 0.2499638124634914 0  0.3130282811725652 0.2499534510724188 0  0.3756875365672095 0.2499423593255287 0  0.4383816408871125 0.2499305672939159 0  0.5011217031875477 0.2499182373767203 0  0.5639219550561501 0.2499057106271298 0  0.6268006225273194 0.2498935520476145 0  0.6897807496039712 0.2498825768980359 0  0.7528904617529283 0.2498738223277576 0  0.8161612882387151 0.2498683994342049 0  0.8796212327800698 0.2498671172523533 0  0.9432758958670713 0.2498697644689234 0  1.00706869804957 0.2498746025029562 0  0 0.3125 0  0.06260212362600696 0.3124896219514351 0  0.1252088694423107 0.3124789779544558 0  0.1878251317121618 0.3124678106806247 0  0.250456384387585 0.3124558837369455 0  0.3131090297294757 0.3124429995129315 0  0.3757908203767326 0.3124290266665554 0  0.4385113802357826 0.3124139414634574 0  0.501282841537843 0.3123978873977917 0  0.5641205875443036 0.3123812564991928 0  0.6270440168425305 0.3123647917186473 0  0.6900770754783681 0.3123496996537884 0  0.7532479498436673 0.3123377418333487 0  0.8165866618668221 0.3123312361077362 0  0.8801183410505725 0.3123328528861153 0  0.9438492333597923 0.3123450862996737 0  1.007744424733615 0.3123694869052533 0  0 0.375 0  0.06261150884670752 0.3749880810397341 0  0.125227881445301 0.3749758158237343 0  0.1878542531248615 0.3749628628129936 0  0.2504963376417682 0.3749488940214596 0  0.3131607772726407 0.3749336106651596 0  0.3758555709723909 0.3749167712579867 0  0.4385906114727338 0.3748982392804953 0  0.5013783592419834 0.3748780600433635 0  0.5642346628959256 0.374856578812865 0  0.6271796816570184 0.3748346128614714 0  0.6902387398058661 0.3748136845106015 0  0.753442693842987 0.3747963014633086 0  0.8168269787403274 0.3747862191733661 0  0.8804279920747848 0.3747885171679522 0  0.9442753060304667 0.3748091532098405 0  1.008379451511545 0.3748534245598716 0  0 0.4375 0  0.06261604809035855 0.4374868829738746 0  0.1252369260979488 0.4374733337835915 0  0.1878677128802284 0.4374589178072046 0  0.2505140169282054 0.4374431993428766 0  0.3131823012168726 0.4374257499499385 0  0.3758802898038486 0.4374061702372103 0  0.4386174988493448 0.4373841347058504 0  0.5014059474841489 0.437359474722374 0  0.5642611160058855 0.437332322514232 0  0.6272032207270303 0.4373033486587375 0  0.6902588448463267 0.4372741331767345 0  0.7534628618901938 0.4372477043733758 0  0.8168603505484731 0.4372292313161908 0  0.8805077715077121 0.4372267083633152 0  0.9444721051902576 0.4372511416564307 0  1.008826239994117 0.4373152049462812 0  0 0.5 0  0.06261577004720681 0.4999861132483676 0  0.1252360843190431 0.4999717100151109 0  0.187865691944691 0.4999562610169264 0  0.2505097755893418 0.4999392139126626 0  0.31317422030437 0.4999199882876905 0  0.3758659593781293 0.4998979817515528 0  0.4385934504555513 0.4998725974262089 0  0.5013673682389977 0.4998433113205509 0  0.5642016540484899 0.4998098120866314 0  0.6271151450368302 0.4997722681773346 0  0.6901341178755384 0.4997318100660304 0  0.7532961964571822 0.4996913520651939 0  0.8166560876051316 0.4996568881137674 0  0.8802932627241657 0.4996392816477321 0  0.9443205337068141 0.4996561073110528 0  1.008890105651561 0.4997319429882237 0  0 0.5625 0  0.06261095239620082 0.5624858555657835 0  0.1252259570732208 0.5624711223225121 0  0.1878492091586615 0.562455186110622 0  0.2504851998079595 0.5624373822164876 0  0.3131388968115646 0.5624169713851854 0  0.3758159800912916 0.5623931201634865 0  0.4385231842017792 0.5623648931401192 0  0.5012688482370151 0.5623312736762361 0  0.5640638658088695 0.5622912476060954 0  0.626923397435337 0.5622440190171156 0  0.6898700014853241 0.5621894917728638 0  0.752939296920469 0.5621292622957311 0  0.8161898351938123 0.5620685334694809 0  0.8797191320013265 0.5620194987093629 0  0.943686586986719 0.5620064878333894 0  1.008339089939856 0.562071462862844 0  0 0.625 0  0.06260207758977503 0.6249861815020199 0  0.1252075732986201 0.6249717264824137 0  0.1878199753166652 0.6249559602646838 0  0.2504429041796932 0.6249381287577332 0  0.3130801789888373 0.6249173523693021 0  0.3757358939326123 0.6248925731711925 0  0.4384145348538265 0.6248624958645139 0  0.5011212121085625 0.6248255289998452 0  0.563862189887931 0.6247797476095051 0  0.6266461161920412 0.6247229336746632 0  0.6894868210508998 0.6246528333002414 0  0.7524094541818162 0.6245679567313915 0  0.8154633221000495 0.6244696504022066 0  0.8787470088950972 0.624366934970198 0  0.9424525940209465 0.6242865858370238 0  1.006930021510001 0.6242901325905883 0  0 0.6875 0  0.06258977078451795 0.6874871379960796 0  0.1251822580596857 0.6874736292482349 0  0.1877801763694053 0.6874587785339381 0  0.2503862086253488 0.6874417871497586 0  0.313002949054902 0.6874216862795515 0  0.3756327936355706 0.6873972504022371 0  0.4382777617160322 0.687366880844767 0  0.5009392505468924 0.6873284477241481 0  0.5636177874847083 0.6872790795104254 0  0.6263130273888646 0.6872149019487835 0  0.6890247277877793 0.6871307789670542 0  0.7517566483236598 0.6870202791781842 0  0.814528176916518 0.6868766253421579 0  0.8774045453880068 0.686696955160071 0  0.9405664897733158 0.6864963336807254 0  1.004444295894598 0.6863450456163548 0  0 0.75 0  0.0625747271090276 0.7499887346141835 0  0.1251514751342393 0.7499768601125211 0  0.1877322057302086 0.7499637139861015 0  0.2503187176714317 0.7499485178307562 0  0.3129124852045758 0.7499302977367733 0  0.3755143794245764 0.7499077734825291 0  0.4381241972912407 0.7498791961573543 0  0.5007398874387842 0.7498421019529289 0  0.5633563221382366 0.7497929298568684 0  0.6259634585035443 0.7497264183525324 0  0.6885439053346187 0.7496346483890042 0  0.7510707617856986 0.7495055589350269 0  0.8135097018407352 0.7493208964000766 0  0.8758393318814415 0.7490547938588943 0  0.9381324777208871 0.7486810885416376 0  1.000793696034315 0.7482306732323982 0  0 0.8125 0  0.06255763957395909 0.812490933312089 0  0.1251166684465911 0.8124813478761489 0  0.1876783866568883 0.8124706742772757 0  0.2502438639870154 0.8124582318804885 0  0.3128137228739638 0.8124431491958253 0  0.3753877638563922 0.8124242484320836 0  0.4379643108565361 0.8123998682191721 0  0.5005390613256248 0.8123675798056093 0  0.5631030573170084 0.8123237162446401 0  0.6256390909519802 0.8122625622525312 0  0.6881153514245696 0.8121748985861553 0  0.7504744526993096 0.8120452393651106 0  0.8126160337331559 0.8118462248004068 0  0.8743773349300213 0.8115264676399625 0  0.9355575434384927 0.8109840023080799 0  0.9962704263039874 0.8100264797928866 0  0 0.875 0  0.06253914147005049 0.8749936436072437 0  0.1250791339426664 0.8749869087444073 0  0.18762074293491 0.8749793772995567 0  0.2501645172229406 0.874970543530561 0  0.3127105859903003 0.8749597497493857 0  0.3752583052105536 0.8749460909724571 0  0.4378056240401475 0.8749282650933052 0  0.5003479267757956 0.8749043275928002 0  0.5628758680078965 0.8748712762459661 0  0.6253712112143971 0.8748243247520561 0  0.6877985584307559 0.8747555832801073 0  0.7500882799880371 0.8746515280975615 0  0.8120998411608806 0.8744876794040841 0  0.8735401875694644 0.8742154501366018 0  0.9337812555341344 0.8737208800102926 0  0.9915090927315298 0.8726499163583292 0  0 0.9375 0  0.06251977599716926 0.9374967253839683 0  0.1250399523092846 0.9374932512782819 0  0.1875608779576681 0.9374893565016297 0  0.2500827726636213 0.9374847717537429 0  0.3126056058357131 0.9374791438833671 0  0.3751288841024398 0.937471982420891 0  0.4376512653191464 0.
[...]
<PointData  Vectors="f_54"> 
<DataArray  type="Float64"  Name="f_54"  NumberOfComponents="3" format="ascii">0.0000000000000000e+00 0.0000000000000000e+00 0.0000000000000000e+00  0.0000000000000000e+00 0.0000000000000000e+00 0.0000000000000000e+00  0.0000000000000000e+00 0.0000000000000000e+00 0.0000000000000000e+00  0.0000000000000000e+00 0.0000000000000000e+00 0.0000000000000000e+00  0.0000000000000000e+00 0.0000000000000000e+00 0.0000000000000000e+00  0.0000000000000000e+00 0.0000000000000000e+00 0.0000000000000000e+00  0.0000000000000000e+00 0.0000000000000000e+00 0.0000000000000000e+00  0.0000000000000000e+00 0.0000000000000000e+00 0.0000000000000000e+00  0.0000000000000000e+00 0.0000000000000000e+00 0.0000000000000000e+00  0.0000000000000000e+00 0.0000000000000000e+00 0.0000000000000000e+00  0.0000000000000000e+00 0.0000000000000000e+00 0.0000000000000000e+00  0.0000000000000000e+00 0.0000000000000000e+00 0.0000000000000000e+00  0.0000000000000000e+00 0.0000000000000000e+00 0.0000000000000000e+00  0.0000000000000000e+00 0.0000000000000000e+00 0.0000000000000000e+00  0.0000000000000000e+00 0.0000000000000000e+00 0.0000000000000000e+00  0.0000000000000000e+00 0.0000000000000000e+00 0.0000000000000000e+00  0.0000000000000000e+00 0.0000000000000000e+00 0.0000000000000000e+00  0.0000000000000000e+00 0.0000000000000000e+00 0.0000000000000000e+00  -4.5342805593146865e-06 -7.3915824719827784e-08 0.0000000000000000e+00  -9.1941445091392558e-06 -1.4782902129106846e-07 0.0000000000000000e+00  -1.4104168599980178e-05 -2.2140277721353708e-07 0.0000000000000000e+00  -1.9385537790433471e-05 -2.9358472452198093e-07 0.0000000000000000e+00  -2.5152710612132210e-05 -3.6216417075816124e-07 0.0000000000000000e+00  -3.1508043435196158e-05 -4.2323872665866289e-07 0.0000000000000000e+00  -3.8533690914660071e-05 -4.7058492268410493e-07 0.0000000000000000e+00  -4.6280309053447816e-05 -4.9495617026740191e-07 0.0000000000000000e+00  -5.4752799380704073e-05 -4.8335988077874478e-07 0.0000000000000000e+00  -6.3895397675843438e-05 -4.1832609111236143e-07 0.0000000000000000e+00  -7.3584359809321991e-05 -2.7679235563156545e-07 0.0000000000000000e+00  -8.3654639619575670e-05 -2.6413734242620182e-08 0.0000000000000000e+00  -9.4046873291307053e-05 3.9034749291649288e-07 0.0000000000000000e+00  -1.0537630183788483e-04 1.1242921510030789e-06 0.0000000000000000e+00  -1.2107880574574383e-04 2.7094894676335405e-06 0.0000000000000000e+00  -1.5632553299285292e-04 7.3947680490556284e-06 0.0000000000000000e+00  0.0000000000000000e+00 0.0000000000000000e+00 0.0000000000000000e+00  -8.9462893434404616e-06 -1.4788660492579002e-07 0.0000000000000000e+00  -1.8145627747266251e-05 -2.9611077031016950e-07 0.0000000000000000e+00  -2.7849721174569861e-05 -4.4437547993852015e-07 0.0000000000000000e+00  -3.8304940099959526e-05 -5.9101643750917115e-07 0.0000000000000000e+00  -4.9746416889595939e-05 -7.3213583747914539e-07 0.0000000000000000e+00  -6.2388032216521280e-05 -8.6053387599400822e-07 0.0000000000000000e+00  -7.6406725518671752e-05 -9.6441397015174033e-07 0.0000000000000000e+00  -9.1919647896617011e-05 -1.0259054729503383e-06 0.0000000000000000e+00  -1.0895322201994599e-04 -1.0195715094904033e-06 0.0000000000000000e+00  -1.2740472139878057e-04 -9.1127249585247389e-07 0.0000000000000000e+00  -1.4700044908705186e-04 -6.5807473701949917e-07 0.0000000000000000e+00  -1.6726093472835691e-04 -2.1054228769866548e-07 0.0000000000000000e+00  -1.8748963221610414e-04 4.7874307150300483e-07 0.0000000000000000e+00  -2.0677318339442589e-04 1.4227608540005646e-06 0.0000000000000000e+00  -2.2369716170851818e-04 2.4467559769109547e-06 0.0000000000000000e+00  -2.3362642096722442e-04 2.3656410015560426e-06 0.0000000000000000e+00  0.0000000000000000e+00 0.0000000000000000e+00 0.0000000000000000e+00  -1.3108119581229361e-05 -2.2156262857629997e-07 0.0000000000000000e+00  -2.6599311219241083e-05 -4.4445215772885017e-07 0.0000000000000000e+00  -4.0856225503568262e-05 -6.6913351007291364e-07 0.0000000000000000e+00  -5.6256985251983709e-05 -8.9419435715142092e-07 0.0000000000000000e+00  -7.3168244816830275e-05 -1.1151081387012482e-06 0.0000000000000000e+00  -9.1932151102979616e-05 -1.3226467342992647e-06 0.0000000000000000e+00  -1.1284455909842055e-04 -1.5008625213855156e-06 0.0000000000000000e+00  -1.3612149284310886e-04 -1.6246444106807555e-06 0.0000000000000000e+00  -1.6185061561692338e-04 -1.6570488168766681e-06 0.0000000000000000e+00  -1.8992443205857195e-04 -1.5470215942551936e-06 0.0000000000000000e+00  -2.1995161579102003e-04 -1.2289695949872034e-06 0.0000000000000000e+00  -2.5113965303045843e-04 -6.2735091240680244e-07 0.0000000000000000e+00  -2.8212629858119493e-04 3.2703006492065028e-07 0.0000000000000000e+00  -3.1067955279086594e-04 1.6557099319363702e-06 0.0000000000000000e+00  -3.3301604358777694e-04 3.2486861131956238e-06 0.0000000000000000e+00  -3.4217496843713115e-04 4.7975115453572159e-06 0.0000000000000000e+00  0.0000000000000000e+00 0.0000000000000000e+00 0.0000000000000000e+00  -1.6889361517309270e-05 -2.9394443773026914e-07 0.0000000000000000e+00  -3.4293709461613832e-05 -5.9108712053068797e-07 0.0000000000000000e+00  -5.2730305972260561e-05 -8.9365424649952059e-07 0.0000000000000000e+00  -7.2716628281336218e-05 -1.2017200470454139e-06 0.0000000000000000e+00  -9.4764718418197114e-05 -1.5117057964627880e-06 0.0000000000000000e+00  -1.1936780384907529e-04 -1.8143452020396765e-06 0.0000000000000000e+00  -1.4697541547511585e-04 -2.0919225434712463e-06 0.0000000000000000e+00  -1.7795225403029882e-04 -2.3146327267494634e-06 0.0000000000000000e+00  -2.1251491170740715e-04 -2.4360740787361242e-06 0.0000000000000000e+00  -2.5063920820525087e-04 -2.3883109104232522e-06 0.0000000000000000e+00  -2.9192897224671256e-04 -2.0779061439366283e-06 0.0000000000000000e+00  -3.3543324808801617e-04 -1.3862832653533969e-06 0.0000000000000000e+00  -3.7939001125005125e-04 -1.8132698570316400e-07 0.0000000000000000e+00  -4.2085738936542159e-04 1.6476276881629128e-06 0.0000000000000000e+00  -4.5518369618334541e-04 4.1151679474803175e-06 0.0000000000000000e+00  -4.7538646478936168e-04 7.0139749522148320e-06 0.0000000000000000e+00  0.0000000000000000e+00 0.0000000000000000e+00 0.0000000000000000e+00  -2.0157848148354558e-05 -3.6315241827019134e-07 0.0000000000000000e+00  -4.0961929678552291e-05 -7.3237092891248167e-07 0.0000000000000000e+00  -6.3065596512000826e-05 -1.1128026443807312e-06 0.0000000000000000e+00  -8.7131990114727866e-05 -1.5075069165453222e-06 0.0000000000000000e+00  -1.1383273921738081e-04 -1.9158759605637337e-06 0.0000000000000000e+00  -1.4383804219593067e-04 -2.3313366302633982e-06 0.0000000000000000e+00  -1.7779340284896625e-04 -2.7379763259273464e-06 0.0000000000000000e+00  -2.1627660944347426e-04 -3.1056613329846475e-06 0.0000000000000000e+00  -2.5972642337484468e-04 -3.3831956093837916e-06 0.0000000000000000e+00  -3.0833199186331751e-04 -3.4892382905443167e-06 0.0000000000000000e+00  -3.6186954940284447e-04 -3.3013551856328745e-06 0.0000000000000000e+00  -4.1947139107606897e-04 -2.6452944877665355e-06 0.0000000000000000e+00  -4.7931392900482796e-04 -1.2902838169319612e-06 0.0000000000000000e+00  -5.3822503571565638e-04 1.0370210703695278e-06 0.0000000000000000e+00  -5.9126071158639032e-04 4.5967730240548735e-06 0.0000000000000000e+00  -6.3144767218003845e-04 9.5015781914037679e-06 0.0000000000000000e+00  0.0000000000000000e+00 0.0000000000000000e+00 0.0000000000000000e+00  -2.2782283936435707e-05 -4.2631510263055413e-07 0.0000000000000000e+00  -4.6336534170270345e-05 -8.6251030027463666e-07 0.0000000000000000e+00  -7.1448944927808252e-05 -1.3177997702024620e-06 0.0000000000000000e+00  -9.8930285589667329e-05 -1.7998050881385099e-06 0.0000000000000000e+00  -1.2962250685225185e-04 -2.3131754929138619e-06 0.0000000000000000e+00  -1.6439703670404122e-04 -2.8573715709565106e-06 0.0000000000000000e+00  -2.0413949279654144e-04 -3.4230876564603082e-06 0.0000000000000000e+00  -2.4971308900581052e-04 -3.9865365902499465e-06 0.0000000000000000e+00  -3.0188970632101032e-04 -4.5004775759265016e-06 0.0000000000000000e+00  -3.6123358055075968e-04 -4.8804854650903414e-06 0.0000000000000000e+00  -4.2791860928838857e-04 -4.9847585508362061e-06 0.0000000000000000e+00  -5.0145863461325581e-04 -4.5863725439552048e-06 0.0000000000000000e+00  -5.8033597208345287e-04 -3.3397780714735879e-06 0.0000000000000000e+00  -6.6153756462985157e-04 -7.5129488584503944e-07 0.0000000000000000e+00  -7.4006780718408299e-04 3.8198471393875322e-06 0.0000000000000000e+00  -8.0861767871802024e-04 1.1076906851640314e-05 0.0000000000000000e+00  0.0000000000000000e+00 0.0000000000000000e+00 0.0000000000000000e+00  -2.4637133332449161e-05 -4.7962193916313049e-07 0.0000000000000000e+00  -5.0159185798546272e-05 -9.7363136850504567e-07 0.0000000000000000e+00  -7.7474441244878130e-05 -1.4962144218968390e-06 0.0000000000000000e+00  -1.0753536123232567e-04 -2.0609330730668852e-06 0.0000000000000000e+00  -1.4135674832216168e-04 -2.6798978527989251e-06 0.0000000000000000e+00  -1.8002754332566983e-04 -3.3621449706760316e-06 0.0000000000000000e+00  -2.2471116977865226e-04 -4.1106039339393899e-06 0.0000000000000000e+00  -2.7662614967711855e-04 -4.9166123300714601e-06 0.0000000000000000e+00  -3.3699399374544233e-04 -5.7502075140637549e-06 0.0000000000000000e+00  -4.0693491702445704e-04 -6.5432584832287827e-06 0.0000000000000000e+00  -4.8728424417372615e-04 -7.1608106412665563e-06 0.0000000000000000e+00  -5.7829582235350619e-04 -7.3540922989102998e-06 0.0000000000000000e+00  -6.7919969198629337e-04 -6.6880076820858890e-06 0.0000000000000000e+00  -7.8760229354960063e-04 -4.4412145729294440e-06 0.0000000000000000e+00  -8.9877554221317051e-04 5.0186994989366768e-07 0.0000000000000000e+00  -1.0049784448307882e-03 9.6958276711657649e-06 0.0000000000000000e+00  0.0000000000000000e+00 0.0000000000000000e+00 0.0000000000000000e+00  -2.5609885000580603e-05 -5.1857725311656885e-07 0.0000000000000000e+00  -5.2195424053067906e-05 -1.0562755848290162e-06 0.0000000000000000e+00  -8.0766104766771598e-05 -1.6326592182170214e-06 0.0000000000000000e+00  -1.1239860781522606e-04 -2.2680580281513141e-06 0.0000000000000000e+00  -1.4826964090733404e-04 -2.9836565167160153e-06 0.0000000000000000e+00  -1.8968633450438499e-04 -3.8010637236326668e-06 0.0000000000000000e+00  -2.3811041299497666e-04 -4.7408369579306678e-06 0.0000000000000000e+00  -2.9516872980366423e-04 -5.8189270041096717e-06 0.0000000000000000e+00  -3.6263673489652260e-04 -7.0390251125466957e-06 0.0000000000000000e+00  -4.4237197208514745e-04 -8.3768963984234632e-06 0.0000000000000000e+00  -5.3616095618939171e-04 -9.7492771176620332e-06 0.0000000000000000e+00  -6.4542553816878540e-04 -1.0953903321579809e-05 0.0000000000000000e+00  -7.7071982855556585e-04 -1.1558523592164788e-05 0.0000000000000000e+00  -9.1095247644112877e-04 -1.0709106185733004e-05 0.0000000000000000e+00  -1.0623235103401918e-03 -6.8369006993128531e-06 0.0000000000000000e+00  -1.2170975179882392e-03 2.6903039553742373e-06 0.0000000000000000e+00  0.0000000000000000e+00 0.0000000000000000e+00 0.0000000000000000e+00  -2.5610435559741998e-05 -5.3846672383176761e-07 0.0000000000000000e+00  -5.2254159023408928e-05 -1.1003641549048098e-06 0.0000000000000000e+00  -8.1008894455717874e-05 -1.7103053289773378e-06 0.0000000000000000e+00  -1.1304343085074023e-04 -2.3953026213068388e-06 0.0000000000000000e+00  -1.4966688227462002e-04 -3.1860392099628519e-06 0.0000000000000000e+00  -1.9238147995128936e-04 -4.1181441826807426e-06 0.0000000000000000e+00  -2.4293788900771701e-04 -5.2332693171723305e-06 0.0000000000000000e+00  -3.0338875843445551e-04 -6.5794016339399156e-06 0.0000000000000000e+00  -3.7612982763279569e-04 -8.2089918645695134e-06 0.0000000000000000e+00  -4.6390609621268239e-04 -1.0171490943326572e-05 0.0000000000000000e+00  -5.6973994074448935e-04 -1.2492334696528701e-05 0.0000000000000000e+00  -6.9670500203312166e-04 -1.5120355514156270e-05 0.0000000000000000e+00  -8.4742425416263066e-04 -1.7804886482145087e-05 0.0000000000000000e+00  -1.0231291945083814e-03 -1.9827117489493969e-05 0.0000000000000000e+00  -1.2221403052560997e-03 -1.9466773635348508e-05 0.0000000000000000e+00  -1.4378505338105679e-03 -1.3106884286106880e-05 0.0000000000000000e+00  0.0000000000000000e+00 0.0000000000000000e+00 0.0000000000000000e+00  -2.4581869249235936e-05 -5.3500465852050929e-07 0.0000000000000000e+00  -5.0210483376692130e-05 -1.0965784124185042e-06 0.0000000000000000e+00  -7.7986106086522794e-05 -1.7131733929845242e-06 0.0000000000000000e+00  -1.0912114289353662e-04 -2.4172216703528400e-06 0.0000000000000000e+00  -1.4500528766127034e-04 -3.2476331032427778e-06 0.0000000000000000e+00  -1.8728173898908317e-04 -4.2529651216888485e-06 0.0000000000000000e+00  -2.3793786041491658e-04 -5.4955851265993046e-06 0.0000000000000000e+00  -2.9941203901406784e-04 -7.0571843416995457e-06 0.0000000000000000e+00  -3.7471388255934542e-04 -9.0458765956022641e-06 0.0000000000000000e+00  -4.6754377393834912e-04 -1.1604342279116628e-05 0.0000000000000000e+00  -5.8237352235299491e-04 -1.4915533826168173e-05 0.0000000000000000e+00  -7.2440097873378796e-04 -1.9192874365219986e-05 0.0000000000000000e+00  -8.9920218469988341e-04 -2.4613584616006006e-05 0.0000000000000000e+00  -1.1117673611150166e-03 -3.1078552689359919e-05 0.0000000000000000e+00  -1.3644817102945528e-03 -3.7515214965172198e-05 0.0000000000000000e+00  -1.6537796879706748e-03 -4.0211815079739032e-05 0.0000000000000000e+00  0.0000000000000000e+00 0.0000000000000000e+00 0.0000000000000000e+00  -2.2511397757583159e-05 -5.0507669884162348e-07 0.0000000000000000e+00  -4.6029278957912043e-05 -1.0379797029316123e-06 0.0000000000000000e+00  -7.1619287229944927e-05 -1.6289268404050706e-06 0.0000000000000000e+00  -1.0047311777574529e-04 -2.3132869844481399e-06 0.0000000000000000e+00  -1.3398587555735799e-04 -3.1350415075390801e-06 0.0000000000000000e+00  -1.7385237934076185e-04 -4.1515205651199381e-06 0.0000000000000000e+00  -2.2219133036739552e-04 -5.4402683944839003e-06 0.0000000000000000e+00  -2.8170793045720485e-04 -7.1094552137464998e-06 0.0000000000000000e+00  -3.5590591344711238e-04 -9.3142849297428748e-06 0.0000000000000000e+00  -4.4935554994838373e-04 -1.2283642052388280e-05 0.0000000000000000e+00  -5.6800643671912367e-04 -1.6363832815601874e-05 0.0000000000000000e+00  -7.1948313299822109e-04 -2.2087687868659118e-05 0.0000000000000000e+00  -9.1317622380037355e-04 -3.0265637725568448e-05 0.0000000000000000e+00  -1.1596659673446684e-03 -4.2020411289499787e-05 0.0000000000000000e+00  -1.4685295685752894e-03 -5.8375378014852794e-05 0.0000000000000000e+00  -1.8433154688570358e-03 -7.8108724557236019e-05 0.0000000000000000e+00  0.0000000000000000e+00 0.0000000000000000e+00 0.0000000000000000e+00  -1.9439762947970447e-05 -4.4744465771723102e-07 0.0000000000000000e+00  -3.9786025821852958e-05 -9.2157476037546590e-07 0.0000000000000000e+00  -6.2004810426252933e-05 -1.4516530165109703e-06 0.0000000000000000e+00  -8.7190610489298014e-05 -2.0725449520256385e-06 0.0000000000000000e+00  -1.1664876354103620e-04 -2.8285939115210523e-06 0.0000000000000000e+00  -1.5200297833744904e-04 -3.7790686148594494e-06 0.0000000000000000e+00  -1.9534236158631025e-04 -5.0063044707191049e-06 0.0000000000000000e+00  -2.4942840165533930e-04 -6.6285288054500705e-06 0.0000000000000000e+00  -3.1799085280288504e-04 -8.8212139139032068e-06 0.0000000000000000e+00  -4.0615138864542915e-04 -1.1854962131700774e-05 0.0000000000000000e+00  -5.2101995947503984e-04 -1.6167540889614971e-05 0.0000000000000000e+00  -6.7249210080716157e-04 -2.2509622041430711e-05 0.0000000000000000e+00  -8.7417726364389379e-04 -3.2249305596385798e-05 0.0000000000000000e+00  -1.1440369279144191e-03 -4.7984804226331025e-05 0.0000000000000000e+00  -1.5032411973789079e-03 -7.4491482555771521e-05 0.0000000000000000e+00  -1.9693495750825094e-03 -1.1783489702845283e-04 0.0000000000000000e+00  0.0000000000000000e+00 0.0000000000000000e+00 0.0000000000000000e+00  -1.5467135031788441e-05 -3.6325933535201674e-07 0.0000000000000000e+00  -3.1680513108508876e-05 -7.4947413406410956e-07 0.0000000000000000e+00  -4.9439705753509716e-05 -1.1839758811221513e-06 0.0000000000000000e+00  -6.9660533586891584e-05 -1.6972781475998845e-06 0.0000000000000000e+00  -9.3452219113254531e-05 -2.3286751191577136e-06 0.0000000000000000e+00  -1.2222185429092147e-04 -3.1312832373219382e-06 0.0000000000000000e+00  -1.5782374900568638e-04 -4.1794711181812922e-06 0.0000000000000000e+00  -2.0278131498992772e-04 -5.5802507747486053e-06 0.0000000000000000e+00  -2.6062615374065375e-04 -7.4915460561042447e-06 0.0000000000000000e+00  -3.3642724710496402e-04 -1.0153587979978001e-05 0.0000000000000000e+00  -4.3762843466696352e-04 -1.3949209376880389e-05 0.0000000000000000e+00  -5.7537868291596508e-04 -1.9538717768320313e-05 0.0000000000000000e+00  -7.6660956959518820e-04 -2.8213627876691309e-05 0.0000000000000000e+00  -1.0370533043070798e-03 -4.2946745082323128e-05 0.0000000000000000e+00  -1.4244444430918455e-03 -7.1795936737061318e-05 0.0000000000000000e+00  -1.9741647353484063e-03 -1.4035061955890456e-04 0.0000000000000000e+00  0.0000000000000000e+00 0.0000000000000000e+00 0.0000000000000000e+00  -1.0753623275435156e-05 -2.5624987587165408e-07 0.0000000000000000e+00  -2.2039188264421536e-05 -5.2933712775297127e-07 0.0000000000000000e+00  -3.4428996395840459e-05 -8.3790910780313997e-07 0.0000000000000000e+00  -4.8583957981702373e-05 -1.2045584720509452e-06 0.0000000000000000e+00  -6.5313916720098584e-05 -1.6585305532675236e-06 0.0000000000000000e+00  -8.5661542545036572e-05 -2.2394194526663142e-06 0.0000000000000000e+00  -1.1102621228182760e-04 -3.0023186685980218e-06 0.0000000000000000e+00  -1.4335537461369300e-04 -4.0248644030653807e-06 0.0000000000000000e+00  -1.8545134649508232e-04 -5.4161655688783549e-06 0.0000000000000000e+00  -2.4147995164478867e-04 -7.3259338462237351e-06 0.0000000000000000e+00  -3.1784176008454497e-04 -9.9474179478013303e-06 0.0000000000000000e+00  -4.2471667912071014e-04 -1.3497653252861874e-05 0.0000000000000000e+00  -5.7891987377103459e-04 -1.8148656513868991e-05 0.0000000000000000e+00  -8.0952444896552833e-04 -2.3938391484848466e-05 0.0000000000000000e+00  -1.1701187542967216e-03 -3.1148390070802516e-05 0.0000000000000000e+00  -1.7699793834070273e-03 -4.3756297784381883e-05 0.0000000000000000e+00  0.0000000000000000e+00 0.0000000000000000e+00 0.0000000000000000e+00  -5.5130863307472177e-06 -1.3252402152327475e-07 0.0000000000000000e+00  -1.1303010320340701e-05 -2.7395111479682105e-07 0.0000000000000000e+00  -1.7668373593776148e-05 -4.3415819581752119e-07 0.0000000000000000e+00  -2.4955770010909964e-05 -6.2514078841901555e-07 0.0000000000000000e+00  -3.3592981586093826e-05 -8.6244341152884134e-07 0.0000000000000000e+00  -4.4135918231451124e-05 -1.1670485361073467e-06 0.0000000000000000e+00  -5.7339340440716234e-05 -1.5678089400983351e-06 0.0000000000000000e+00  -7.4268751713590762e-05 -2.1041309082130951e-06 0.0000000000000000e+00  -9.6484864923387421e-05 -2.8271921920803956e-06 0.0000000000000000e+00  -1.2635893047203633e-04 -3.7930793011070526e-06 0.0000000000000000e+00  -1.6762755335538620e-04 -5.0247759093200365e-06 0.0000000000000000e+00  -2.2637890389181809e-04 -6.3646672348835102e-06 0.0000000000000000e+00  -3.1273193281341745e-04 -6.9533477380939302e-06 0.0000000000000000e+00  -4.4309975312213390e-04 -3.4626321195891223e-06 0.0000000000000000e+00  -6.3976691260446113e-04 1.5521262644004184e-05 0.0000000000000000e+00  -9.0929699366065428e-04 8.3764100514455760e-05 0.0000000000000000e+00  0.0000000000000000e+00 0.0000000000000000e+00 0.0000000000000000e+00  0.0000000000000000e+00 0.0000000000000000e+00 0.0000000000000000e+00  0.0000000000000000e+00 0.0000000000000000e+00 0.0000000000000000e+00  0.0000000000000000e+00 0.0000000000000000e+00 0.0000000000000000e+00  0.0000000000000000e+00 0.0000000000000000e+00 0.0000000000000000e+00  0.0000000000000000e+00 0.0000000000000000e+00 0