<?xml version="1.0"?>
<VTKFile type="UnstructuredGrid"  version="0.1"  >
<UnstructuredGrid>
<Piece  NumberOfPoints="289" NumberOfCells="512">
<Points>
<DataArray  type="Float64"  NumberOfComponents="3"  format="ascii">0 0 0  0.0625 0 0  0.125 0 0  0.1875 0 0  0.25 0 0  0.3125 0 0  0.375 0 0  0.4375 0 0  0.5 0 0  0.5625 0 0  0.625 0 0  0.6875 0 0  0.75 0 0  0.8125 0 0  0.875 0 0  0.9375 0 0  1 0 0  0 0.0625 0  0.06244024905304744 0.06249453749059445 0  0.1248787295752939 0.06248896367837726 0  0.1873136663593819 0.06248317442828769 0  0.2497432971754343 0.06247708200903786 0  0.3121658993376628 0.06247062613816303 0  0.3745798420198492 0.06246378818106089 0  0.4369836735502829 0.06245660885035764 0  0.499376249605557 0.06244920862943708 0  0.5617568949506523 0.06244180801360682 0  0.6241255495143813 0.06243474100266948 0  0.6864827230238214 0.06242844977795125 0  0.7488286863649553 0.06242344261839055 0  0.8111599968471664 0.06242020176991921 0  0.8734565900784104 0.06241910403461229 0  0.9356334592080677 0.06242091957713333 0  0.997351044268474 0.06243198284088459 0  0 0.125 0  0.06238232418672365 0.1249891864031746 0  0.1247611181491587 0.1249781425709673 0  0.1871328334017391 0.1249666514825775 0  0.2494939350921432 0.124954526684696 0  0.3118409490136325 0.1249416335371727 0  0.3741705616461379 0.1249279173274046 0  0.436479796064786 0.1249134395546181 0  0.4987662874445964 0.1248984218682357 0  0.5610286755177807 0.1248832934258004 0  0.6232671058357504 0.1248687305172215 0  0.6854837612800121 0.124855665330452 0  0.7476831808228029 0.1248452207777892 0  0.8098718190291209 0.1248384921797672 0  0.8720561939392791 0.124836000339651 0  0.9342425907753498 0.1248361894689874 0  0.9964736596034481 0.1248294021452157 0  0 0.1875 0  0.06232800101947766 0.1874840662127528 0  0.1246507198588234 0.1874677691589021 0  0.1869628327902977 0.1874507625054481 0  0.2492590013141182 0.1874327399109604 0  0.3115339226691962 0.1874134644427072 0  0.3737824589861414 0.1873928094030189 0  0.4359998840933408 0.1873708138956718 0  0.4981822971216981 0.1873477548382623 0  0.5603272630564661 0.1873242331402845 0  0.6224347512215694 0.187301263415497 0  0.6845084567263301 0.187280340714061 0  0.7465576342367557 0.187263429396427 0  0.8085997736379413 0.1872527704238177 0  0.8706652870174569 0.1872503230716139 0  0.9328084163691581 0.1872565772003671 0  0.9951368942366366 0.1872690357791191 0  0 0.25 0  0.06227904495225792 0.2499793104554399 0  0.1245510825859526 0.2499581064643195 0  0.186809023193329 0.2499358906164399 0  0.2490456900597084 0.249912207384724 0  0.3112538455452633 0.2498866769829415 0  0.3734263143747316 0.2498590457236476 0  0.4355562576042497 0.2498292594487668 0  0.4976376705321062 0.2497975664262105 0  0.5596662048085116 0.2497646538891146 0  0.6216404517162647 0.249731815702405 0  0.6835638769153377 0.2497011332069081 0  0.7454476871204937 0.2496756201533202 0  0.8073150920509268 0.2496592257109169 0  0.8692078268554552 0.2496564966543489 0  0.9311965561209496 0.2496715777736065 0  0.9933971289828442 0.2497061118573543 0  0 0.3125 0  0.06223719076928761 0.3124750706884975 0  0.1244657139023455 0.3124494573006504 0  0.1866767573013869 0.3124224880423622 0  0.2488612959938276 0.3123935245138158 0  0.3110100571845659 0.312361994091805 0  0.3731135884176082 0.312327443464318 0  0.4351624911978398 0.3122896239584109 0  0.4971479100654146 0.3122486219482461 0  0.5590624056970505 0.3122050496909512 0  0.6209013916737237 0.3121603111298177 0  0.6826653780424256 0.3121169486352285 0  0.7443633370286455 0.3120790508970465 0  0.8060175758885513 0.3120526434065413 0  0.8676705352779156 0.3120458705103679 0  0.9293938021999685 0.3120685994410155 0  0.9912988418881371 0.3121308507982561 0  0 0.375 0  0.06220410168449336 0.3749715166995533 0  0.124398003365822 0.3749421659680322 0  0.1865712770710147 0.3749110821386263 0  0.248713100749645 0.3748774117824135 0  0.3108121218301229 0.3748403363996963 0  0.3728564126571697 0.3747991187866513 0  0.4348335808607428 0.3747531875694554 0  0.4967311312745291 0.3747022809332591 0  0.5585372242795621 0.3746466793450622 0  0.6202420398927447 0.374587567114159 0  0.6818400336946168 0.3745275699679927 0  0.7433334435865354 0.3744715094595237 0  0.8047374369138888 0.374427370354887 0  0.8660872054631061 0.3744073496266336 0  0.9274470141274037 0.374428590694687 0  0.9889205322705924 0.3745128124391111 0  0 0.4375 0  0.06218130443189484 0.4374688317091993 0  0.1243510929481319 0.437436609589374 0  0.1864975210050871 0.4374022651321147 0  0.2486081223388118 0.437364707462694 0  0.3106695334248523 0.4373228264465139 0  0.3726672787664869 0.4372755177775266 0  0.4345856705994289 0.4372217464831171 0  0.4964079140457078 0.4371606757741989 0  0.5581165667736194 0.4370919049127326 0  0.6196945867742241 0.4370158850013638 0  0.6811273141620368 0.4369346158829769 0  0.7424058590633665 0.436852763748956 0  0.8035324612470203 0.4367793488596838 0  0.8645283519645001 0.4367300581073895 0  0.9254443552154535 0.4367298822538494 0  0.9863738892952337 0.4368149749252516 0  0 0.5 0  0.06217010077914134 0.4999672016615486 0  0.1243276952406821 0.4999331768556562 0  0.1864598398877746 0.4998966630842141 0  0.2485527161979564 0.4998563292217821 0  0.310591189257112 0.4998107490955743 0  0.3725583759882047 0.4997583893223229 0  0.4344352549967054 0.4996976258501279 0  0.4962003874489533 0.4996268163685112 0  0.5578298841926531 0.4995444787789804 0  0.6192978650629435 0.499449666685673 0  0.6805778309229026 0.4993427021678836 0  0.7416456156526413 0.4992265345480456 0  0.8024848648441837 0.499109133869335 0  0.8630961422660967 0.4990074159197283 0  0.9235104529713627 0.4989529403209957 0  0.983806892657849 0.4989983637832697 0  0 0.5625 0  0.06217146056480648 0.5624667984609157 0  0.1243298691469926 0.5624322334537906 0  0.1864616340625778 0.5623948817042058 0  0.2485520418494554 0.5623531985469938 0  0.3105846427805359 0.562305454625135 0  0.3725405776938077 0.5622496725375205 0  0.4343978431161441 0.5621835704099281 0  0.4961305210339321 0.5621045302736678 0  0.5577080635490922 0.562009631972166 0  0.6190948536588445 0.5618958407380633 0  0.6802505150148909 0.5617605338004685 0  0.7411318847535406 0.5616027447222987 0  0.801698225092204 0.5614258624150107 0  0.86192193703098 0.5612430812146156 0  0.9218069140435037 0.5610873903535427 0  0.981413810380164 0.5610269815061049 0  0 0.625 0  0.06218590642568145 0.6249677582090656 0  0.1243587738061037 0.6249340759959795 0  0.186504944144243 0.624897430812835 0  0.2486094382928677 0.6248561279902112 0  0.3106551883911233 0.6248081989371808 0  0.3726221346010382 0.6247512801230892 0  0.434486135838756 0.6246824669813728 0  0.4962176528183617 0.6245981403962946 0  0.5577802016681027 0.624493774832961 0  0.619128695354463 0.6243637694652114 0  0.680208089492996 0.624201430403358 0  0.7409534196739581 0.6239994583459754 0  0.8012936372920301 0.6237518646095518 0  0.8611637395804053 0.6234595613498051 0  0.9205314555489544 0.6231444000803688 0  0.9794416523118391 0.6228787144960973 0  0 0.6875 0  0.06221340495794279 0.6874701569741618 0  0.1244144318120805 0.6874388795827218 0  0.1865900455182533 0.6874046351784835 0  0.248725781513737 0.6873656810274197 0  0.3108048774899123 0.6873199307327141 0  0.3728071983088296 0.6872647818069787 0  0.4347078511625624 0.6871968832486995 0  0.4964753617591771 0.687111813662221 0  0.5580692656477296 0.687003629130657 0  0.6194370074214663 0.6868642285866312 0  0.6805102655898595 0.6866824897930736 0  0.7412015733658202 0.6864432243727817 0  0.8014041678185025 0.6861264647574122 0  0.8610027561844057 0.6857093972778521 0  0.9199109056482407 0.6851792356165933 0  0.9781526563337292 0.6845791952113456 0  0 0.75 0  0.06225328213524847 0.7499739880265323 0  0.1244955402685373 0.7499466474519668 0  0.1867151117756429 0.749916545877214 0  0.2488989247633426 0.7498820261148685 0  0.3110316129134447 0.7498410565677736 0  0.3730943776496704 0.7497910287552046 0  0.4350634513612117 0.7497284685958072 0  0.4969079478426383 0.7496486085239068 0  0.5585867862827745 0.7495447319842752 0  0.620044249754916 0.7494071345635799 0  0.6812036637150266 0.7492214146090508 0  0.7419589949648965 0.7489655568577419 0  0.8021661206535174 0.7486049028802076 0  0.8616430520770993 0.7480842921155778 0  0.9202113984481747 0.7473228548679907 0  0.9778513249745249 0.7462655845538938 0  0 0.8125 0  0.06230418129936455 0.8124791453067983 0  0.1245993703363439 0.8124571733235524 0  0.186876018816986 0.8124328710487847 0  0.249123339295368 0.8124048164246946 0  0.311328508033704 0.8123712351233006 0  0.3734756132186581 0.8123298014574383 0  0.4355441872067949 0.8122773463562103 0  0.4975070661030846 0.8122094120118438 0  0.5593271492177817 0.8121195489535923 0  0.62095232202299 0.8119981618935866 0  0.6823072544902177 0.8118305055164924 0  0.7432798990321858 0.8115928954612958 0  0.803699732669873 0.8112446452413065 0  0.8633083076826026 0.8107084653349756 0  0.9217561475677868 0.8098173176856515 0  0.9788760257724268 0.808162808280154 0  0 0.875 0  0.06236407901693576 0.8749854176642977 0  0.1247217902633678 0.8749700268229664 0  0.1870663544315673 0.8749529453541772 0  0.2493900693051366 0.8749331294913987 0  0.3116837073551322 0.8749092612155588 0  0.3739357087434213 0.8748795895863195 0  0.4361310345334176 0.8748416956229327 0  0.4982494564825916 0.8747921328410005 0  0.5602628886593773 0.8747258668598389 0  0.6221310136088921 0.87463539065742 0  0.6837936681587746 0.8745093097799078 0  0.745156522610959 0.8743300007071538 0  0.8060613844096676 0.8740692538828516 0  0.8662173898424124 0.8736775164889076 0  0.9250260810640821 0.8730454240050133 0  0.9811454515947927 0.8718211218041858 0  0 0.9375 0  0.06243036721542565 0.9374924968907109 0  0.1248574321293565 0.9374845691084283 0  0.1872776737341147 0.9374757519403091 0  0.2496870790244603 0.937465492507748 0  0.3120808200021433 0.9374530878199067 0  0.3744528188648132 0.9374375970055681 0  0.4367951276704504 0.937
[...]
<PointData  Vectors="f_54"> 
<DataArray  type="Float64"  Name="f_54"  NumberOfComponents="3" format="ascii">0.0000000000000000e+00 0.0000000000000000e+00 0.0000000000000000e+00  0.0000000000000000e+00 0.0000000000000000e+00 0.0000000000000000e+00  0.0000000000000000e+00 0.0000000000000000e+00 0.0000000000000000e+00  0.0000000000000000e+00 0.0000000000000000e+00 0.0000000000000000e+00  0.0000000000000000e+00 0.0000000000000000e+00 0.0000000000000000e+00  0.0000000000000000e+00 0.0000000000000000e+00 0.0000000000000000e+00  0.0000000000000000e+00 0.0000000000000000e+00 0.0000000000000000e+00  0.0000000000000000e+00 0.0000000000000000e+00 0.0000000000000000e+00  0.0000000000000000e+00 0.0000000000000000e+00 0.0000000000000000e+00  0.0000000000000000e+00 0.0000000000000000e+00 0.0000000000000000e+00  0.0000000000000000e+00 0.0000000000000000e+00 0.0000000000000000e+00  0.0000000000000000e+00 0.0000000000000000e+00 0.0000000000000000e+00  0.0000000000000000e+00 0.0000000000000000e+00 0.0000000000000000e+00  0.0000000000000000e+00 0.0000000000000000e+00 0.0000000000000000e+00  0.0000000000000000e+00 0.0000000000000000e+00 0.0000000000000000e+00  0.0000000000000000e+00 0.0000000000000000e+00 0.0000000000000000e+00  0.0000000000000000e+00 0.0000000000000000e+00 0.0000000000000000e+00  0.0000000000000000e+00 0.0000000000000000e+00 0.0000000000000000e+00  2.8507219409827954e-06 1.9513788334354014e-08 0.0000000000000000e+00  5.7560205874325347e-06 4.0836217660806092e-08 0.0000000000000000e+00  8.7660288186492327e-06 6.5869723087646160e-08 0.0000000000000000e+00  1.1920317729906425e-05 9.6674672219973925e-08 0.0000000000000000e+00  1.5240386006584357e-05 1.3547338768443231e-07 0.0000000000000000e+00  1.8719268818462060e-05 1.8453348859939140e-07 0.0000000000000000e+00  2.2306959148463811e-05 2.4583505110791070e-07 0.0000000000000000e+00  2.5889880820436712e-05 3.2037024787110483e-07 0.0000000000000000e+00  2.9261634135882941e-05 4.0684136987303257e-07 0.0000000000000000e+00  3.2079610608510730e-05 4.9938983921023604e-07 0.0000000000000000e+00  3.3794728880237073e-05 5.8371679285304841e-07 0.0000000000000000e+00  3.3519847565669635e-05 6.3020346288257369e-07 0.0000000000000000e+00  2.9734820676287134e-05 5.8008876747446633e-07 0.0000000000000000e+00  1.9502388587798336e-05 3.1129459497537895e-07 0.0000000000000000e+00  -3.9152093586133066e-06 -4.6585783526839419e-07 0.0000000000000000e+00  -5.8899284240565939e-05 -2.5681646774479952e-06 0.0000000000000000e+00  0.0000000000000000e+00 0.0000000000000000e+00 0.0000000000000000e+00  5.6408932164156963e-06 3.7175709138568302e-08 0.0000000000000000e+00  1.1395311652127101e-05 7.7865294309322851e-08 0.0000000000000000e+00  1.7368747216924176e-05 1.2579332352526752e-07 0.0000000000000000e+00  2.3647434800737927e-05 1.8505845121308131e-07 0.0000000000000000e+00  3.0284493388826926e-05 2.6019878437083658e-07 0.0000000000000000e+00  3.7280634490155940e-05 3.5605480035315362e-07 0.0000000000000000e+00  4.4557093789862033e-05 4.7726052686572223e-07 0.0000000000000000e+00  5.1917898681054647e-05 6.2709248254441088e-07 0.0000000000000000e+00  5.8997599051232472e-05 8.0526726568286493e-07 0.0000000000000000e+00  6.5188445214843264e-05 1.0041029556929503e-06 0.0000000000000000e+00  6.9535872229423498e-05 1.2022534601553180e-06 0.0000000000000000e+00  7.0579001261018826e-05 1.3550099226385126e-06 0.0000000000000000e+00  6.6087058211545846e-05 1.3800801565417569e-06 0.0000000000000000e+00  5.2605152846990980e-05 1.1388904900151543e-06 0.0000000000000000e+00  2.4774511731918115e-05 4.2292205926624854e-07 0.0000000000000000e+00  -2.4741579658889460e-05 -9.8682962565074197e-07 0.0000000000000000e+00  0.0000000000000000e+00 0.0000000000000000e+00 0.0000000000000000e+00  8.3112408814626804e-06 5.1276317346124827e-08 0.0000000000000000e+00  1.6803270334556710e-05 1.0755309033432318e-07 0.0000000000000000e+00  2.5646848482901182e-05 1.7419582715352450e-07 0.0000000000000000e+00  3.4988253514752476e-05 2.5725682158587921e-07 0.0000000000000000e+00  4.4931146955023746e-05 3.6370070885693866e-07 0.0000000000000000e+00  5.5510884996055567e-05 5.0141495402878717e-07 0.0000000000000000e+00  6.6658134774606891e-05 6.7879742437105278e-07 0.0000000000000000e+00  7.8148271395024195e-05 9.0357306606656074e-07 0.0000000000000000e+00  8.9532765817930402e-05 1.1802997045680179e-06 0.0000000000000000e+00  1.0004881282030240e-04 1.5057993281594162e-06 0.0000000000000000e+00  1.0850422096861896e-04 1.8615821833709817e-06 0.0000000000000000e+00  1.1313763817882066e-04 2.2024742802998441e-06 0.0000000000000000e+00  1.1146574363839554e-04 2.4418368027917970e-06 0.0000000000000000e+00  1.0017224702274062e-04 2.4380553402518396e-06 0.0000000000000000e+00  7.5241475734492361e-05 2.0005237776226530e-06 0.0000000000000000e+00  3.2953630308351764e-05 9.7382800747447985e-07 0.0000000000000000e+00  0.0000000000000000e+00 0.0000000000000000e+00 0.0000000000000000e+00  1.0794242205560570e-05 6.0324788170956969e-08 0.0000000000000000e+00  2.1847108775347131e-05 1.2676370167543168e-07 0.0000000000000000e+00  3.3407399165840762e-05 2.0598323985125998e-07 0.0000000000000000e+00  4.5698999435620955e-05 3.0574274695265345e-07 0.0000000000000000e+00  5.8901288227137711e-05 4.3539213086632394e-07 0.0000000000000000e+00  7.3120318959105077e-05 6.0623357940035918e-07 0.0000000000000000e+00  8.8346883245829825e-05 8.3155013652763013e-07 0.0000000000000000e+00  1.0439721274096080e-04 1.1259306299226217e-06 0.0000000000000000e+00  1.2083229780981873e-04 1.5032578891997483e-06 0.0000000000000000e+00  1.3685343813976813e-04 1.9723727898113236e-06 0.0000000000000000e+00  1.5117635161494716e-04 2.5290374253060338e-06 0.0000000000000000e+00  1.6189726194533829e-04 3.1425901043823827e-06 0.0000000000000000e+00  1.6638847959292907e-04 3.7360289219687097e-06 0.0000000000000000e+00  1.6131035405547920e-04 4.1596556418649118e-06 0.0000000000000000e+00  1.4291702188434563e-04 4.1595687430497333e-06 0.0000000000000000e+00  1.0795069254936656e-04 3.3298066287802556e-06 0.0000000000000000e+00  0.0000000000000000e+00 0.0000000000000000e+00 0.0000000000000000e+00  1.3011845593600711e-05 6.3204785130335345e-08 0.0000000000000000e+00  2.6370654281668266e-05 1.3307531075623936e-07 0.0000000000000000e+00  4.0416395257055656e-05 2.1702159385628191e-07 0.0000000000000000e+00  5.5469466421687785e-05 3.2398917468943881e-07 0.0000000000000000e+00  7.1813077498135186e-05 4.6531543313395777e-07 0.0000000000000000e+00  8.9665283661203782e-05 6.5563180635658402e-07 0.0000000000000000e+00  1.0913592075210252e-04 9.1369360039000712e-07 0.0000000000000000e+00  1.3016294639934181e-04 1.2628346735654270e-06 0.0000000000000000e+00  1.5242251604076081e-04 1.7304170045446450e-06 0.0000000000000000e+00  1.7520857010871715e-04 2.3451089702389547e-06 0.0000000000000000e+00  1.9728273543299566e-04 3.1300323985449260e-06 0.0000000000000000e+00  2.1670727866217505e-04 4.0888080035454876e-06 0.0000000000000000e+00  2.3069760869881699e-04 5.1805661975318436e-06 0.0000000000000000e+00  2.3557161828214259e-04 6.2797437216868259e-06 0.0000000000000000e+00  2.2693017145659260e-04 7.1182468565513350e-06 0.0000000000000000e+00  2.0025166608112079e-04 7.2145881514347865e-06 0.0000000000000000e+00  0.0000000000000000e+00 0.0000000000000000e+00 0.0000000000000000e+00  1.4875515407554076e-05 5.9365518386065344e-08 0.0000000000000000e+00  3.0193974749476912e-05 1.2519078344482116e-07 0.0000000000000000e+00  4.6396985588635784e-05 2.0482400567814411e-07 0.0000000000000000e+00  6.3918234160383487e-05 3.0751526549948164e-07 0.0000000000000000e+00  8.3171786387862415e-05 4.4564539157441786e-07 0.0000000000000000e+00  1.0452975530814071e-04 6.3627480549056488e-07 0.0000000000000000e+00  1.2828371637759400e-04 9.0305842462694630e-07 0.0000000000000000e+00  1.5458259202185808e-04 1.2784324224434268e-06 0.0000000000000000e+00  1.8333809278384036e-04 1.8056547613999415e-06 0.0000000000000000e+00  2.1408804312273070e-04 2.5396185684194556e-06 0.0000000000000000e+00  2.4580978420525308e-04 3.5441332293998307e-06 0.0000000000000000e+00  2.7668348290432136e-04 4.8813400854184374e-06 0.0000000000000000e+00  3.0382342379737181e-04 6.5860230373308415e-06 0.0000000000000000e+00  3.2302993083616380e-04 8.6143760889265868e-06 0.0000000000000000e+00  3.2866851595866187e-04 1.0755645005451799e-05 0.0000000000000000e+00  3.1385000957717668e-04 1.2502414526028940e-05 0.0000000000000000e+00  0.0000000000000000e+00 0.0000000000000000e+00 0.0000000000000000e+00  1.6289076664253690e-05 4.9019228762903759e-08 0.0000000000000000e+00  3.3118841264208995e-05 1.0338569619575390e-07 0.0000000000000000e+00  5.1037012315590834e-05 1.6936271461684269e-07 0.0000000000000000e+00  7.0601238240310235e-05 2.5524881055063763e-07 0.0000000000000000e+00  9.2377540486520746e-05 3.7287218201185571e-07 0.0000000000000000e+00  1.1692920011678387e-04 5.3972311822330150e-07 0.0000000000000000e+00  1.4478995407384403e-04 7.8201920134815137e-07 0.0000000000000000e+00  1.7641246173636968e-04 1.1389940896518904e-06 0.0000000000000000e+00  2.1207908392632276e-04 1.6685341470031438e-06 0.0000000000000000e+00  2.5175732783413600e-04 2.4537225952621671e-06 0.0000000000000000e+00  2.9487790515370435e-04 3.6084527265461665e-06 0.0000000000000000e+00  3.4001197331250544e-04 5.2773409667774153e-06 0.0000000000000000e+00  3.8443156648218903e-04 7.6198192761958403e-06 0.0000000000000000e+00  4.2356369201512783e-04 1.0759938715110396e-05 0.0000000000000000e+00  4.5040834141807726e-04 1.4673174839317882e-05 0.0000000000000000e+00  4.5509643485239551e-04 1.8974527647659223e-05 0.0000000000000000e+00  0.0000000000000000e+00 0.0000000000000000e+00 0.0000000000000000e+00  1.7154593172937085e-05 3.3291422304340783e-08 0.0000000000000000e+00  3.4940590354643732e-05 6.9879134690658710e-08 0.0000000000000000e+00  5.4006955300171411e-05 1.1381812326079502e-07 0.0000000000000000e+00  7.5035603942877942e-05 1.7093290152152501e-07 0.0000000000000000e+00  9.8754033362765740e-05 2.5031540721338496e-07 0.0000000000000000e+00  1.2594144158569934e-04 3.6672422403364665e-07 0.0000000000000000e+00  1.5742264290423557e-04 5.4446889945954490e-07 0.0000000000000000e+00  1.9404003869869801e-04 8.2360356038487572e-07 0.0000000000000000e+00  2.3658751202668425e-04 1.2694724892509406e-06 0.0000000000000000e+00  2.8568055557623423e-04 1.9866111465816467e-06 0.0000000000000000e+00  3.4152376541018634e-04 3.1371324956462974e-06 0.0000000000000000e+00  4.0352117989095901e-04 4.9608160674750829e-06 0.0000000000000000e+00  4.6966229606362991e-04 7.7870304698285190e-06 0.0000000000000000e+00  5.3562174217079825e-04 1.2014380176841784e-05 0.0000000000000000e+00  5.9356306210642132e-04 1.8010211650512565e-05 0.0000000000000000e+00  6.3077479032643815e-04 2.5850637883126458e-05 0.0000000000000000e+00  0.0000000000000000e+00 0.0000000000000000e+00 0.0000000000000000e+00  1.7381172602234180e-05 1.4252708496790159e-08 0.0000000000000000e+00  3.5466297450605978e-05 2.8967741633618508e-08 0.0000000000000000e+00  5.4988495571024310e-05 4.4982593245533251e-08 0.0000000000000000e+00  7.6739791582562219e-05 6.4123440122697188e-08 0.0000000000000000e+00  1.0160099602763883e-04 9.0295076400542002e-08 0.0000000000000000e+00  1.3057051770629484e-04 1.3153646602190207e-07 0.0000000000000000e+00  1.6478846155565114e-04 2.0384745383302754e-07 0.0000000000000000e+00  2.0554794803273472e-04 3.3814280344758675e-07 0.0000000000000000e+00  2.5427761693043818e-04 5.9251083211614490e-07 0.0000000000000000e+00  3.1246547981568322e-04 1.0729890178790444e-06 0.0000000000000000e+00  3.8147163557334144e-04 1.9668883665584743e-06 0.0000000000000000e+00  4.6214299291704483e-04 3.5919224293793998e-06 0.0000000000000000e+00  5.5409771075768679e-04 6.4586723518597595e-06 0.0000000000000000e+00  6.5450386058744979e-04 1.1326751253185169e-05 0.0000000000000000e+00  7.5618073551910055e-04 1.9197483274801348e-05 0.0000000000000000e+00  8.4500168888229697e-04 3.1124721880622494e-05 0.0000000000000000e+00  0.0000000000000000e+00 0.0000000000000000e+00 0.0000000000000000e+00  1.6896126778958983e-05 -5.2387811938707649e-09 0.0000000000000000e+00  3.4538232304511009e-05 -1.3246363680060864e-08 0.0000000000000000e+00  5.3712504718644676e-05 -2.7008269178484757e-08 0.0000000000000000e+00  7.5289325052545485e-05 -4.9807232594555400e-08 0.0000000000000000e+00  1.0027139909551635e-04 -8.5026254941895758e-08 0.0000000000000000e+00  1.2984850814981455e-04 -1.3527223778405047e-07 0.0000000000000000e+00  1.6545931752167539e-04 -2.0002682753535966e-07 0.0000000000000000e+00  2.0885739132980516e-04 -2.7024246939834924e-07 0.0000000000000000e+00  2.6217134963963778e-04 -3.1685462288002940e-07 0.0000000000000000e+00  3.2793429675109136e-04 -2.6770042140003946e-07 0.0000000000000000e+00  4.0902897147318356e-04 3.6463159728458897e-08 0.0000000000000000e+00  5.0844289148734251e-04 9.2073626401455740e-07 0.0000000000000000e+00  6.2864032641569588e-04 3.0056471608691499e-06 0.0000000000000000e+00  7.7023011953656750e-04 7.3931536430470022e-06 0.0000000000000000e+00  9.2947216723767996e-04 1.5870654252496074e-05 0.0000000000000000e+00  1.0941486783654954e-03 3.0991238985726372e-05 0.0000000000000000e+00  0.0000000000000000e+00 0.0000000000000000e+00 0.0000000000000000e+00  1.5657338148535803e-05 -2.1927461065697579e-08 0.0000000000000000e+00  3.2060331876428677e-05 -4.9652422380421319e-08 0.0000000000000000e+00  5.0003225362058918e-05 -8.9888018460184070e-08 0.0000000000000000e+00  7.0384349367040542e-05 -1.5123133652595663e-07 0.0000000000000000e+00  9.4270250910707850e-05 -2.4525605294458297e-07 0.0000000000000000e+00  1.2297531138425133e-04 -3.8763738118311309e-07 0.0000000000000000e+00  1.5816318218278102e-04 -5.9893135822890031e-07 0.0000000000000000e+00  2.0197620020249055e-04 -9.0391012907369286e-07 0.0000000000000000e+00  2.5719619543050106e-04 -1.3267145630054967e-06 0.0000000000000000e+00  3.2743074455369921e-04 -1.8755518126224491e-06 0.0000000000000000e+00  4.1729445911108147e-04 -2.5035529359375381e-06 0.0000000000000000e+00  5.3249852995938731e-04 -3.0194594710596579e-06 0.0000000000000000e+00  6.7964339829478947e-04 -2.9021707686624278e-06 0.0000000000000000e+00  8.6528494729426421e-04 -9.5493790944208358e-07 0.0000000000000000e+00  1.0934901438558653e-03 5.2467716825359820e-06 0.0000000000000000e+00  1.3608514267500643e-03 2.0052835366680124e-05 0.0000000000000000e+00  0.0000000000000000e+00 0.0000000000000000e+00 0.0000000000000000e+00  1.3665077274122673e-05 -3.2765083086250022e-08 0.0000000000000000e+00  2.8024050846863610e-05 -7.3442486352336185e-08 0.0000000000000000e+00  4.3822917078344791e-05 -1.3148176875233651e-07 0.0000000000000000e+00  6.1921095448608848e-05 -2.1969018253707633e-07 0.0000000000000000e+00  8.3365227936813574e-05 -3.5669779432730333e-07 0.0000000000000000e+00  1.0948637318037469e-04 -5.7047900046137401e-07 0.0000000000000000e+00  1.4203336076963044e-04 -9.0341350477537911e-07 0.0000000000000000e+00  1.8335971261454402e-04 -1.4192562297005289e-06 0.0000000000000000e+00  2.3668715334519190e-04 -2.2116205288776113e-06 0.0000000000000000e+00  3.0647332138231630e-04 -3.4108873715144652e-06 0.0000000000000000e+00  3.9890834322222707e-04 -5.1786791406278812e-06 0.0000000000000000e+00  5.2253647599315059e-04 -7.6591443159579561e-06 0.0000000000000000e+00  6.8890044184066062e-04 -1.0811291444943768e-05 0.0000000000000000e+00  9.1283711939015456e-04 -1.3963551948231725e-05 0.0000000000000000e+00  1.2114118023342315e-03 -1.4861059639066762e-05 0.0000000000000000e+00  1.5991505419430210e-03 -8.5108504269824122e-06 0.0000000000000000e+00  0.0000000000000000e+00 0.0000000000000000e+00 0.0000000000000000e+00  1.0971047155414956e-05 -3.5626383076365060e-08 0.0000000000000000e+00  2.2528787792858554e-05 -7.9729484236994029e-08 0.0000000000000000e+00  3.5308874355005737e-05 -1.4264283031065040e-07 0.0000000000000000e+00  5.0054813234578317e-05 -2.3887985653169046e-07 0.0000000000000000e+00  6.7691122834466719e-05 -3.9054112835641719e-07 0.0000000000000000e+00  8.9423946187777814e-05 -6.3273768016801924e-07 0.0000000000000000e+00  1.1688650143453545e-04 -1.0225643896353023e-06 0.0000000000000000e+00  1.5235622819773445e-04 -1.6541648237315368e-06 0.0000000000000000e+00  1.9908586816464173e-04 -2.6839402474991834e-06 0.0000000000000000e+00  2.6181491520275090e-04 -4.3716295099089680e-06 0.0000000000000000e+00  3.4756376541996711e-04 -7.1425306313791451e-06 0.0000000000000000e+00  4.6685882656096768e-04 -1.1664073674182776e-05 0.0000000000000000e+00  6.3556966314982574e-04 -1.8872559798817505e-05 0.0000000000000000e+00  8.7746406566469428e-04 -2.9669960816159951e-05 0.0000000000000000e+00  1.2271465318069651e-03 -4.3235871590478639e-05 0.0000000000000000e+00  1.7319606603848046e-03 -4.9562820938254371e-05 0.0000000000000000e+00  0.0000000000000000e+00 0.0000000000000000e+00 0.0000000000000000e+00  7.6823219838816232e-06 -2.9946668094869785e-08 0.0000000000000000e+00  1.5791654088046053e-05 -6.7050875230347334e-08 0.0000000000000000e+00  2.4793433073531410e-05 -1.2016550249352331e-07 0.0000000000000000e+00  3.5238466458483883e-05 -2.0203377838741215e-07 0.0000000000000000e+00  4.7822662219796466e-05 -3.3267140273760066e-07 0.0000000000000000e+00  6.3471804322183214e-05 -5.4509700338764506e-07 0.0000000000000000e+00  8.3468773318819063e-05 -8.9556301852442409e-07 0.0000000000000000e+00  1.0965203994112574e-04 -1.4824686158086447e-06 0.0000000000000000e+00  1.4473481055710645e-04 -2.4823180847816758e-06 0.0000000000000000e+00  1.9283154091995458e-04 -4.2197824038445355e-06 0.0000000000000000e+00  2.6034764444079383e-04 -7.3070262449856427e-06 0.0000000000000000e+00  3.5751999472919798e-04 -1.2924638666392890e-05 0.0000000000000000e+00  5.0115766167840316e-04 -2.3389750546335174e-05 0.0000000000000000e+00  7.1965903519699266e-04 -4.3287994643639228e-05 0.0000000000000000e+00  1.0622113964403053e-03 -8.1622687056975845e-05 0.0000000000000000e+00  1.6135480069140774e-03 -1.5528971200718932e-04 0.0000000000000000e+00  0.0000000000000000e+00 0.0000000000000000e+00 0.0000000000000000e+00  3.9583113939210052e-06 -1.7051903174211124e-08 0.0000000000000000e+00  8.1421877976561670e-06 -3.8211387709070423e-08 0.0000000000000000e+00  1.2798494055964707e-05 -6.8606111103172840e-08 0.0000000000000000e+00  1.8221670052949303e-05 -1.1573219811643742e-07 0.0000000000000000e+00  2.4787715435628392e-05 -1.9159549877952743e-07 0.0000000000000000e+00  3.3003440100574828e-05 -3.1647852800895774e-07 0.0000000000000000e+00  4.3582191118613703e-05 -5.2597928334982624e-07 0.0000000000000000e+00  5.7565320526277573e-05 -8.8478659111540627e-07 0.0000000000000000e+00  7.6523553303289944e-05 -1.5148523494098356e-06 0.0000000000000000e+00  1.0289958814996056e-04 -2.6557000843560606e-06 0.0000000000000000e+00  1.4060013240627453e-04 -4.7997787263408743e-06 0.0000000000000000e+00  1.9601157112752565e-04 -9.0104707835513218e-06 0.0000000000000000e+00  2.7963063539611171e-04 -1.7697610729203741e-05 0.0000000000000000e+00  4.0805736845412114e-04 -3.6536109279940705e-05 0.0000000000000000e+00  6.0332548535091098e-04 -7.8999644343758058e-05 0.0000000000000000e+00  8.7479188697762403e-04 -1.7450805319412809e-04 0.0000000000000000e+00  0.0000000000000000e+00 0.0000000000000000e+00 0.0000000000000000e+00  0.0000000000000000e+00 0.0000000000000000e+00 0.0000000000000000e+00  0.0000000000000000e+00 0.0000000000000000e+00 0.0000000000000000e+00  0.0000000000000000e+00 0.0000000000000000e+00 0.0000000000000000e+00  0.0000000000000000e+00 0.0000000000000000e+00 0.0000000000000000e+00  0.0000000000000000e+00 0.0000000000000000e+00 0.0000000000000000e+00  0.0000000000000000e+00 0.0000000000000000e+00 0.0000000000000000e+00  0.0000000000000000e+00 0.0000000000000000e+00 0.0000000000000000e+00  0.0000000000000000e+00 0.0000000000000000e+00 0.0000000000000000e+00  0.0000000000000000e+00 0.0000000000000000e+00 0.0000000000000000e+00  0.0000000000000000e+00 0.0000000000000000e+00 0.0000000000