<?xml version="1.0"?>
<VTKFile type="UnstructuredGrid"  version="0.1"  >
<UnstructuredGrid>
<Piece  NumberOfPoints="289" NumberOfCells="512">
<Points>
<DataArray  type="Float64"  NumberOfComponents="3"  format="ascii">0 0 0  0.0625 0 0  0.125 0 0  0.1875 0 0  0.25 0 0  0.3125 0 0  0.375 0 0  0.4375 0 0  0.5 0 0  0.5625 0 0  0.625 0 0  0.6875 0 0  0.75 0 0  0.8125 0 0  0.875 0 0  0.9375 0 0  1 0 0  0 0.0625 0  0.06244620537376114 0.06249457595948348 0  0.1248907596754462 0.06248904433413275 0  0.1873319964048672 0.06248330491475345 0  0.249768241092476 0.0624772742547127 0  0.3121978228710875 0.06247089674954373 0  0.3746191059570568 0.06246415863433731 0  0.4370305476360594 0.06245710505384385 0  0.4994307851614938 0.06244985912298567 0  0.5618187387679684 0.06244263959482479 0  0.6241936711965446 0.06243576982188622 0  0.6865550037377662 0.06242966465580451 0  0.7489012519076845 0.06242477459033552 0  0.8112259857897861 0.06242146618644262 0  0.8735034357115405 0.06241987550007569 0  0.935635684787767 0.06242020282377266 0  0.9972483709618669 0.06242717824598107 0  0 0.125 0  0.06239410717052157 0.1249892595394157 0  0.1247849276387047 0.1249782960522222 0  0.1871691406596722 0.1249669001860567 0  0.2495434009966905 0.1249548939856422 0  0.3119043582861551 0.124942152320571 0  0.3742487184010713 0.1249286307884777 0  0.4365733648967738 0.1249144010566643 0  0.4988755584442718 0.1248996925801014 0  0.5611532238974414 0.1248849356268986 0  0.6234053050961956 0.1248707932546465 0  0.6856320874711712 0.1248581574764517 0  0.7478352011658269 0.1248480644674068 0  0.8100166648630296 0.1248414474780108 0  0.8721761519553377 0.1248385526617895 0  0.9343093676993081 0.1248374131622095 0  0.9964443769202177 0.124827962434831 0  0 0.1875 0  0.06234535426368142 0.1874841667156893 0  0.1246858123083705 0.1874679803886407 0  0.1870164167787167 0.1874511056915164 0  0.2493321472722508 0.1874332487732028 0  0.3116279347484152 0.1874141871998203 0  0.37389873922394 0.1873938108950861 0  0.4361397233505813 0.187372176999413 0  0.4983465638058414 0.1873495796557348 0  0.5605159528750226 0.1873266313446678 0  0.6226463535245353 0.1873043435610706 0  0.6847390868959961 0.1872841783393224 0  0.7467998815213114 0.1872680139338922 0  0.808841235947128 0.1872579212069908 0  0.8708868679817899 0.1872555748663486 0  0.932982841961243 0.1872610682336384 0  0.9952290694541647 0.1872715324268126 0  0 0.25 0  0.06230156907155934 0.2499794280010358 0  0.1245966799598598 0.2499583539967864 0  0.1868787731433389 0.2499362941811659 0  0.2491411533880926 0.2499128089436128 0  0.3113769769994754 0.2498875378096336 0  0.3735793175334867 0.2498602506403422 0  0.4357413554544529 0.2498309212812281 0  0.4978567562335957 0.249799829322297 0  0.5599203286744396 0.2497676928789051 0  0.6219290950286774 0.2497358278706822 0  0.6838839668544664 0.2497063129883192 0  0.7457923322505932 0.2496821077788015 0  0.8076720896816141 0.2496670147289498 0  0.8695581609645888 0.2496652856156935 0  0.9315134469658559 0.2496805521673262 0  0.9936467676292386 0.2497136205245787 0  0 0.3125 0  0.06226432276080734 0.3124751927303888 0  0.1245207105732408 0.312449714860666 0  0.186761071029039 0.3124229096166856 0  0.2489770614131638 0.312394156812473 0  0.3111600191930752 0.3123629070356225 0  0.3733009746266602 0.3123287371170993 0  0.4353907981237917 0.3122914373125127 0  0.4974205610091166 0.3122511429060508 0  0.5593822263477549 0.3122085243593898 0  0.6212698401112584 0.3121650482401597 0  0.683081465961759 0.312123310964774 0  0.7448222021956966 0.3120874194836021 0  0.8065087353292435 0.3120633320306486 0  0.8681759983659891 0.3120589585151652 0  0.9298864861856242 0.3120836441744642 0  0.9917420987707585 0.3121464474893696 0  0 0.375 0  0.06223509460397853 0.3749716296587256 0  0.12446091981386 0.374942404826881 0  0.186667976918286 0.374911474596568 0  0.2488463597298415 0.3748780041969578 0  0.3109855958548021 0.3748412002201516 0  0.3730745583759873 0.3748003602061083 0  0.4351014995738855 0.3747549612027996 0  0.4970542884138187 0.3747048081920699 0  0.5589209782736131 0.3746502714255729 0  0.6206908939152039 0.374592650473729 0  0.6823565065785365 0.3745347077132751 0  0.7439164533004973 0.3744814035489167 0  0.8053801223131406 0.3744408149944083 0  0.8667742120928494 0.3744250846497202 0  0.9281514773944579 0.3744509780678087 0  0.9896013367554515 0.3745392440742285 0  0 0.4375 0  0.06221521304992124 0.4374689225556808 0  0.1244200409745785 0.4374368018323302 0  0.1866037857620663 0.4374025817212328 0  0.2487551508033662 0.4373651878622619 0  0.3108619638871662 0.4373235337826407 0  0.3729109418833361 0.4372765503290365 0  0.4348875383395994 0.4372232554501805 0  0.4967759467340865 0.4371628919029861 0  0.5585593821048122 0.4370951769205298 0  0.6202208385827992 0.4370207320809498 0  0.6817446231982515 0.436941793262295 0  0.7431190886472286 0.436863331341253 0  0.804341094407345 0.4367947136026767 0  0.8654227406203727 0.4367519243028238 0  0.9264007416975363 0.4367599859107131 0  0.9873484379747693 0.4368544004957244 0  0 0.5 0  0.06220577934460326 0.4999672597826485 0  0.1244003676367404 0.4999332993628076 0  0.186572173772988 0.4998968640114608 0  0.2487088015942018 0.4998566338878027 0  0.3107966359908117 0.4998112006077851 0  0.3728204257931003 0.4997590598842657 0  0.4347628841280074 0.4996986358745895 0  0.4966043561850638 0.4996283660955825 0  0.5583226572379254 0.4995468992946475 0  0.6198932751479036 0.4994534994888754 0  0.6812902793215254 0.4993488172136736 0  0.742488492411354 0.4992362921757668 0  0.8034677331995094 0.4991245782436658 0  0.8642200995538658 0.4990314426386905 0  0.9247610451371978 0.4989892892680944 0  0.9851441853997359 0.4990511311776962 0  0 0.5625 0  0.06220757856041398 0.5624668175687548 0  0.1244035665217908 0.5624322720968452 0  0.1865758941769841 0.562394941442926 0  0.2487114925649536 0.5623532839576008 0  0.310795741454567 0.5623055772972633 0  0.3728118569643392 0.5622498590952431 0  0.434740208730521 0.5621838780675875 0  0.4965575771364743 0.5621050761507365 0  0.5582364091247453 0.5620106467800763 0  0.6197442345500277 0.561897764013724 0  0.6810436112383147 0.561764176339118 0  0.7420933388865312 0.5616095514762789 0  0.8028522511180907 0.561438306873384 0  0.8632874922676453 0.5612651890309819 0  0.9233890583482909 0.5611252877755977 0  0.983189797370013 0.5610891477845413 0  0 0.625 0  0.06222098700768149 0.6249677379015511 0  0.1244304791141047 0.6249340292217923 0  0.1866164452522547 0.62489734475147 0  0.2487657066719782 0.6248559824149484 0  0.3108632686574257 0.6248079657515297 0  0.372891530444366 0.6247509244803969 0  0.4348293242925616 0.624681952833109 0  0.4966507368946188 0.6245974464083045 0  0.5583236921083528 0.6244929325595748 0  0.6198083637891778 0.6243629465526129 0  0.6810557300631443 0.6242011001200555 0  0.7420071472162287 0.6240007248140976 0  0.8025969667618151 0.623757046788354 0  0.862762051643968 0.6234731560135993 0  0.9224635370292719 0.6231744845215761 0  0.9817230368227777 0.6229386102580612 0  0 0.6875 0  0.06224588841287389 0.6874701034839006 0  0.124480938456154 0.6874387603313072 0  0.1866937543030053 0.6874044237139522 0  0.2488717238344918 0.6873653327746686 0  0.3110002817282691 0.6873193767340653 0  0.3730619974235944 0.6872639200082135 0  0.4350353981895514 0.6871955678840944 0  0.4968934111485136 0.6871098453629452 0  0.5586012864172699 0.687000753612422 0  0.6201138842762908 0.6868601638438728 0  0.6813723868223857 0.6866770276244163 0  0.7423011366255717 0.6864365032592294 0  0.802807134161062 0.6861196010553913 0  0.8627890392901013 0.6857057890429362 0  0.9221698415660233 0.6851869521649118 0  0.9809687814782259 0.6846147850681831 0  0 0.75 0  0.06228161311582205 0.7499739137357729 0  0.1245536322388018 0.7499464823960208 0  0.1868059310164335 0.7499162539598522 0  0.2490272052657429 0.7498815447432376 0  0.3112042382021201 0.7498402847329608 0  0.3733209604832318 0.749789807899547 0  0.4353571847742519 0.7497265530790941 0  0.4972868365298968 0.7496456216482547 0  0.5590754146300225 0.7495401040729668 0  0.6206763003551954 0.7494000251738518 0  0.6820254539073255 0.7492106413216922 0  0.7430342997315957 0.7489496115227563 0  0.803582361541755 0.7485822810188738 0  0.863518220143134 0.7480546646498876 0  0.92269911784599 0.7472900400390935 0  0.9811369461757005 0.7462426005016045 0  0 0.8125 0  0.06232691410916224 0.8124790668210121 0  0.1246460431391474 0.812456998849339 0  0.1869491455570768 0.8124325618126671 0  0.2492269601240668 0.8124043039071306 0  0.3114685573105987 0.8123704057007518 0  0.3736604914969172 0.8123284701180327 0  0.4357856276959689 0.8122752123748828 0  0.497821440292963 0.8122059843798856 0  0.5597374416658553 0.81211402121054 0  0.6214911388424027 0.8119892043765615 0  0.6830214383146149 0.8118159318416247 0  0.7442376278779144 0.8115691714780656 0  0.8050013610511869 0.8112063306875379 0  0.865102462526728 0.8106482214748126 0  0.9242620109702483 0.8097291805689301 0  0.9824100220045695 0.8080600710053459 0  0 0.875 0  0.06237999053482959 0.8749853526170057 0  0.1247544908945303 0.874969882020583 0  0.1871176773664612 0.8749526879582016 0  0.2494629766701444 0.8749327006885906 0  0.3117825845285265 0.8749085615899803 0  0.3740668300201694 0.8748784530428828 0  0.4363032854185486 0.8748398429481575 0  0.4984754556679121 0.8747890877533334 0  0.5605607516522895 0.8747208009742924 0  0.6225271737411788 0.8746268303449607 0  0.6843274833988933 0.8744945690400716 0  0.7458879756158582 0.8743040625868683 0  0.8070842966177055 0.8740225382012127 0  0.8676827824171983 0.8735914317978108 0  0.927184405356391 0.8728837244781439 0  0.9844205191823524 0.8715145055425301 0  0 0.9375 0  0.06243856333386145 0.9374924601069603 0  0.1248742875981437 0.9374844871225736 0  0.1873041581947394 0.9374756058620703 0  0.2497247649919609 0.9374652482145595 0  0.3121320480382018 0.9374526869186369 0  0.3745209620812847 0.9374369403035466 0  0.4368850085905416 0.937
[...]
<PointData  Vectors="f_54"> 
<DataArray  type="Float64"  Name="f_54"  NumberOfComponents="3" format="ascii">0.0000000000000000e+00 0.0000000000000000e+00 0.0000000000000000e+00  0.0000000000000000e+00 0.0000000000000000e+00 0.0000000000000000e+00  0.0000000000000000e+00 0.0000000000000000e+00 0.0000000000000000e+00  0.0000000000000000e+00 0.0000000000000000e+00 0.0000000000000000e+00  0.0000000000000000e+00 0.0000000000000000e+00 0.0000000000000000e+00  0.0000000000000000e+00 0.0000000000000000e+00 0.0000000000000000e+00  0.0000000000000000e+00 0.0000000000000000e+00 0.0000000000000000e+00  0.0000000000000000e+00 0.0000000000000000e+00 0.0000000000000000e+00  0.0000000000000000e+00 0.0000000000000000e+00 0.0000000000000000e+00  0.0000000000000000e+00 0.0000000000000000e+00 0.0000000000000000e+00  0.0000000000000000e+00 0.0000000000000000e+00 0.0000000000000000e+00  0.0000000000000000e+00 0.0000000000000000e+00 0.0000000000000000e+00  0.0000000000000000e+00 0.0000000000000000e+00 0.0000000000000000e+00  0.0000000000000000e+00 0.0000000000000000e+00 0.0000000000000000e+00  0.0000000000000000e+00 0.0000000000000000e+00 0.0000000000000000e+00  0.0000000000000000e+00 0.0000000000000000e+00 0.0000000000000000e+00  0.0000000000000000e+00 0.0000000000000000e+00 0.0000000000000000e+00  0.0000000000000000e+00 0.0000000000000000e+00 0.0000000000000000e+00  3.3468781480514471e-06 1.7166448713567852e-08 0.0000000000000000e+00  6.7647364022015044e-06 3.6292036511726428e-08 0.0000000000000000e+00  1.0320412503535600e-05 5.9469569864411576e-08 0.0000000000000000e+00  1.4070601156578966e-05 8.9035118894543364e-08 0.0000000000000000e+00  1.8054439771609039e-05 1.2762656533664834e-07 0.0000000000000000e+00  2.2283070108829315e-05 1.7813442869122578e-07 0.0000000000000000e+00  2.6724830610501623e-05 2.4345040836054913e-07 0.0000000000000000e+00  3.1284343147252997e-05 3.2585794190374167e-07 0.0000000000000000e+00  3.5772946538378231e-05 4.2581773418850715e-07 0.0000000000000000e+00  3.9865912484302655e-05 5.3975943199078980e-07 0.0000000000000000e+00  4.3036282365553566e-05 6.5622852310227254e-07 0.0000000000000000e+00  4.4438652395661308e-05 7.4907921561838037e-07 0.0000000000000000e+00  4.2665042221785644e-05 7.6423623336088311e-07 0.0000000000000000e+00  3.5127220593891221e-05 5.8834103621029301e-07 0.0000000000000000e+00  1.6240512018222909e-05 -4.5106627251438043e-08 0.0000000000000000e+00  -2.8403971879165862e-05 -1.8828328306516729e-06 0.0000000000000000e+00  0.0000000000000000e+00 0.0000000000000000e+00 0.0000000000000000e+00  6.6164013840268211e-06 3.2338774349192360e-08 0.0000000000000000e+00  1.3378836233772635e-05 6.8452695340008213e-08 0.0000000000000000e+00  2.0425929825664871e-05 1.1240216298788589e-07 0.0000000000000000e+00  2.7877950039397349e-05 1.6878215746837893e-07 0.0000000000000000e+00  3.5823171215306377e-05 2.4289225334703151e-07 0.0000000000000000e+00  4.4298500975099839e-05 3.4073196885225671e-07 0.0000000000000000e+00  5.3261900395635448e-05 4.6865634904112076e-07 0.0000000000000000e+00  6.2553619641533934e-05 6.3241552741106463e-07 0.0000000000000000e+00  7.1842451276801254e-05 8.3514338505476322e-07 0.0000000000000000e+00  8.0551553236005247e-05 1.0736511679486036e-06 0.0000000000000000e+00  8.7754515394371794e-05 1.3321343881201427e-06 0.0000000000000000e+00  9.2023001829945832e-05 1.5721789755071940e-06 0.0000000000000000e+00  9.1186756893388599e-05 1.7180665055074223e-06 0.0000000000000000e+00  8.1933818701309861e-05 1.6385446163939742e-06 0.0000000000000000e+00  5.9197927660254774e-05 1.1400383869093881e-06 0.0000000000000000e+00  1.5839660914305640e-05 6.3204465482102799e-08 0.0000000000000000e+00  0.0000000000000000e+00 0.0000000000000000e+00 0.0000000000000000e+00  9.7331271810688801e-06 4.3697149993160890e-08 0.0000000000000000e+00  1.9695102391018567e-05 9.2692159516776483e-08 0.0000000000000000e+00  3.0105753174364094e-05 1.5274707528620467e-07 0.0000000000000000e+00  4.1161964273619809e-05 2.3052634833942654e-07 0.0000000000000000e+00  5.3019989436282670e-05 3.3396812364852759e-07 0.0000000000000000e+00  6.5769749947553073e-05 4.7248649258014700e-07 0.0000000000000000e+00  7.9397725323074428e-05 6.5680972218549112e-07 0.0000000000000000e+00  9.3734587799739811e-05 8.9810904951257905e-07 0.0000000000000000e+00  1.0838341263627932e-04 1.2058533442285470e-06 0.0000000000000000e+00  1.2262433560959656e-04 1.5835398251525147e-06 0.0000000000000000e+00  1.3529235909074622e-04 2.0211550624020430e-06 0.0000000000000000e+00  1.4462789233484182e-04 2.4831078541539947e-06 0.0000000000000000e+00  1.4810923686913501e-04 2.8909953572696893e-06 0.0000000000000000e+00  1.4230976497964619e-04 3.1033279981527333e-06 0.0000000000000000e+00  1.2293480015106175e-04 2.9023031905908822e-06 0.0000000000000000e+00  8.5512222252570911e-05 2.0131525760997402e-06 0.0000000000000000e+00  0.0000000000000000e+00 0.0000000000000000e+00 0.0000000000000000e+00  1.2613933602782120e-05 4.9715211820436493e-08 0.0000000000000000e+00  2.5549218742392633e-05 1.0577865089485435e-07 0.0000000000000000e+00  3.9118861173269123e-05 1.7519953744383028e-07 0.0000000000000000e+00  5.3613373707408806e-05 2.6631990873312486e-07 0.0000000000000000e+00  6.9282025349212345e-05 3.8948307330387370e-07 0.0000000000000000e+00  8.6304313177202073e-05 5.5763241491650386e-07 0.0000000000000000e+00  1.0474739317847749e-04 7.8667209382190721e-07 0.0000000000000000e+00  1.2450466794995305e-04 1.0952464423799917e-06 0.0000000000000000e+00  1.4521066312865569e-04 1.5033152592157290e-06 0.0000000000000000e+00  1.6612851603239157e-04 2.0284915148152087e-06 0.0000000000000000e+00  1.8601036041421037e-04 2.6785754986001130e-06 0.0000000000000000e+00  2.0294054503536458e-04 3.4381697799652975e-06 0.0000000000000000e+00  2.1419263837434672e-04 4.2469655298595817e-06 0.0000000000000000e+00  2.1617387106420837e-04 4.9675963994412134e-06 0.0000000000000000e+00  2.0460895553535657e-04 5.3410619928442883e-06 0.0000000000000000e+00  1.7522252368836513e-04 4.9194406212365964e-06 0.0000000000000000e+00  0.0000000000000000e+00 0.0000000000000000e+00 0.0000000000000000e+00  1.5166079659835711e-05 4.9340878492908026e-08 0.0000000000000000e+00  3.0755193015995581e-05 1.0540919175717182e-07 0.0000000000000000e+00  4.7185428481622480e-05 1.7577537780837192e-07 0.0000000000000000e+00  6.4858888479906354e-05 2.6976866461229665e-07 0.0000000000000000e+00  8.4145541416224287e-05 3.9950363017998014e-07 0.0000000000000000e+00  1.0535619845069072e-04 5.8103543788388845e-07 0.0000000000000000e+00  1.2869945371664796e-04 8.3557427658472681e-07 0.0000000000000000e+00  1.5421640917694419e-04 1.1905231459981448e-06 0.0000000000000000e+00  1.8168639060500791e-04 1.6797922671265493e-06 0.0000000000000000e+00  2.1049760268047863e-04 2.3423037764782947e-06 0.0000000000000000e+00  2.3948057418011860e-04 3.2167369858274960e-06 0.0000000000000000e+00  2.6671242647284202e-04 4.3293172903888407e-06 0.0000000000000000e+00  2.8932119304268046e-04 5.6698999388447935e-06 0.0000000000000000e+00  3.0335715760073729e-04 7.1501599028466096e-06 0.0000000000000000e+00  3.0385427693635134e-04 8.5375814717957820e-06 0.0000000000000000e+00  2.8526461625546482e-04 9.3642021319506059e-06 0.0000000000000000e+00  0.0000000000000000e+00 0.0000000000000000e+00 0.0000000000000000e+00  1.7287699179999696e-05 4.2197095171870633e-08 0.0000000000000000e+00  3.5105865045525679e-05 9.0643947178626259e-08 0.0000000000000000e+00  5.3986323965005987e-05 1.5254618947428286e-07 0.0000000000000000e+00  7.4457985107193297e-05 2.3717047170174696e-07 0.0000000000000000e+00  9.7037471024584231e-05 3.5720832932889038e-07 0.0000000000000000e+00  1.2220877774601972e-04 5.3054508294097917e-07 0.0000000000000000e+00  1.5038600151385276e-04 7.8254435257215326e-07 0.0000000000000000e+00  1.8185122615635313e-04 1.1488611003596039e-06 0.0000000000000000e+00  2.1665755056291113e-04 1.6785392461180916e-06 0.0000000000000000e+00  2.5448568009256542e-04 2.4365808100823449e-06 0.0000000000000000e+00  2.9444309131475814e-04 3.5040505654754792e-06 0.0000000000000000e+00  3.3480046424896984e-04 4.9717760975532993e-06 0.0000000000000000e+00  3.7267560885351691e-04 6.9204940111466930e-06 0.0000000000000000e+00  4.0370663146075460e-04 9.3758562997915983e-06 0.0000000000000000e+00  4.2180869371533406e-04 1.2222085217267695e-05 0.0000000000000000e+00  4.1918217132340521e-04 1.5057165214716614e-05 0.0000000000000000e+00  0.0000000000000000e+00 0.0000000000000000e+00 0.0000000000000000e+00  1.8871217930823476e-05 2.8769275773957800e-08 0.0000000000000000e+00  3.8379532113430500e-05 6.2336330603599479e-08 0.0000000000000000e+00  5.9172434224362469e-05 1.0643192007375665e-07 0.0000000000000000e+00  8.1913904137891766e-05 1.6887227641320888e-07 0.0000000000000000e+00  1.0728621272710883e-04 2.6111459445255909e-07 0.0000000000000000e+00  1.3598218024572095e-04 4.0051290857812364e-07 0.0000000000000000e+00  1.6868160369146304e-04 6.1363172759361619e-07 0.0000000000000000e+00  2.0600244655847214e-04 9.4103062273284357e-07 0.0000000000000000e+00  2.4841306914084789e-04 1.4438804600128473e-06 0.0000000000000000e+00  2.9608637141072497e-04 2.2124144106944757e-06 0.0000000000000000e+00  3.4867104905459030e-04 3.3751677553551837e-06 0.0000000000000000e+00  4.0495161644955695e-04 5.1055450428918090e-06 0.0000000000000000e+00  4.6237269233851368e-04 7.6174550349914356e-06 0.0000000000000000e+00  5.1642384453881389e-04 1.1133352735576062e-05 0.0000000000000000e+00  5.5993293467758204e-04 1.5795118147456591e-05 0.0000000000000000e+00  5.8241251165804084e-04 2.1471040204229707e-05 0.0000000000000000e+00  0.0000000000000000e+00 0.0000000000000000e+00 0.0000000000000000e+00  1.9809907920695764e-05 1.0523603708969937e-08 0.0000000000000000e+00  4.0353221536544268e-05 2.3437806070028891e-08 0.0000000000000000e+00  6.2384872408656605e-05 4.1847133071653273e-08 0.0000000000000000e+00  8.6700788665215403e-05 7.0538423075531190e-08 0.0000000000000000e+00  1.1415494309023735e-04 1.1743475480971519e-07 0.0000000000000000e+00  1.4567036424581445e-04 1.9596107347296601e-07 0.0000000000000000e+00  1.8223855723230881e-04 3.2893669837639118e-07 0.0000000000000000e+00  2.2489767396856642e-04 5.5490280723641874e-07 0.0000000000000000e+00  2.7467320936693451e-04 9.3813308168644503e-07 0.0000000000000000e+00  3.3245502545817431e-04 1.5838053921283025e-06 0.0000000000000000e+00  3.9877039759685486e-04 2.6595031054460245e-06 0.0000000000000000e+00  4.7339513836459180e-04 4.4224117945734731e-06 0.0000000000000000e+00  5.5472810312308894e-04 7.2464712408248922e-06 0.0000000000000000e+00  6.3885123510129126e-04 1.1632462708381425e-05 0.0000000000000000e+00  7.1823351533019928e-04 1.8162923673616465e-05 0.0000000000000000e+00  7.8014489569446877e-04 2.7328813915136284e-05 0.0000000000000000e+00  0.0000000000000000e+00 0.0000000000000000e+00 0.0000000000000000e+00  2.0007412591203587e-05 -1.0112704719291628e-08 0.0000000000000000e+00  4.0822399549298943e-05 -2.0979237784560629e-08 0.0000000000000000e+00  6.3286097963228814e-05 -3.3082329063351739e-08 0.0000000000000000e+00  8.8307753959295760e-05 -4.6139080965165694e-08 0.0000000000000000e+00  1.1689991743826901e-04 -5.8167786233523966e-08 0.0000000000000000e+00  1.5021351478530751e-04 -6.3650719896653519e-08 0.0000000000000000e+00  1.8956963856338172e-04 -5.0016673351919553e-08 0.0000000000000000e+00  2.3648063154501598e-04 8.8913623517450340e-09 0.0000000000000000e+00  2.9264526144962911e-04 1.6457132569206087e-07 0.0000000000000000e+00  3.5988914398962617e-04 5.1426659217845156e-07 0.0000000000000000e+00  4.3999884867161300e-04 1.2347941489294465e-06 0.0000000000000000e+00  5.3436293074445701e-04 2.6351571803620514e-06 0.0000000000000000e+00  6.4328492687123931e-04 5.2308033754279804e-06 0.0000000000000000e+00  7.6478267194018642e-04 9.8321969265789002e-06 0.0000000000000000e+00  8.9267378837696535e-04 1.7616041225643601e-05 0.0000000000000000e+00  1.0138542677905658e-03 3.0105435115962463e-05 0.0000000000000000e+00  0.0000000000000000e+00 0.0000000000000000e+00 0.0000000000000000e+00  1.9389574791820413e-05 -2.9971933909601061e-08 0.0000000000000000e+00  3.9625879525222693e-05 -6.4133135476682994e-08 0.0000000000000000e+00  6.1600403487279998e-05 -1.0703481351119622e-07 0.0000000000000000e+00  8.6298615555671396e-05 -1.6384498823891780e-07 0.0000000000000000e+00  1.1485392670971249e-04 -2.4039308180400860e-07 0.0000000000000000e+00  1.4860958535991249e-04 -3.4266159809105673e-07 0.0000000000000000e+00  1.8918972449673532e-04 -4.7503074730634344e-07 0.0000000000000000e+00  2.3857788458404546e-04 -6.3586033767314749e-07 0.0000000000000000e+00  2.9919475638117403e-04 -8.0764557709649024e-07 0.0000000000000000e+00  3.7395304270336212e-04 -9.3661040773779769e-07 0.0000000000000000e+00  4.6624000875653774e-04 -8.9278810608712179e-07 0.0000000000000000e+00  5.7972774657238555e-04 -3.9644450662607409e-07 0.0000000000000000e+00  7.1782514106980802e-04 1.1079839375539861e-06 0.0000000000000000e+00  8.8245736301116161e-04 4.6471579436010154e-06 0.0000000000000000e+00  1.0717162261122540e-03 1.1978832484215526e-05 0.0000000000000000e+00  1.2758849315542050e-03 2.5863614660839441e-05 0.0000000000000000e+00  0.0000000000000000e+00 0.0000000000000000e+00 0.0000000000000000e+00  1.7917301227145239e-05 -4.5596331579411918e-08 0.0000000000000000e+00  3.6673405031701550e-05 -9.8466629018000928e-08 0.0000000000000000e+00  5.7160074139152975e-05 -1.6695665873578179e-07 0.0000000000000000e+00  8.0382762741226465e-05 -2.6164215232253350e-07 0.0000000000000000e+00  1.0753055772198580e-04 -3.9668467091186255e-07 0.0000000000000000e+00  1.4006305861115554e-04 -5.9136730215695419e-07 0.0000000000000000e+00  1.7982144799338226e-04 -8.7156909078062868e-07 0.0000000000000000e+00  2.2917139733755082e-04 -1.2703481532436005e-06 0.0000000000000000e+00  2.9118370214451086e-04 -1.8254268997645442e-06 0.0000000000000000e+00  3.6985094160487731e-04 -2.5683488023714390e-06 0.0000000000000000e+00  4.7031702556831200e-04 -3.4938830168511240e-06 0.0000000000000000e+00  5.9904519187061866e-04 -4.4867560902880993e-06 0.0000000000000000e+00  7.6373989403316427e-04 -5.1647602828964190e-06 0.0000000000000000e+00  9.7262707244390233e-04 -4.5782950455362248e-06 0.0000000000000000e+00  1.2323668812442505e-03 -7.1096135182808592e-07 0.0000000000000000e+00  1.5436649254749993e-03 1.0231760614880750e-05 0.0000000000000000e+00  0.0000000000000000e+00 0.0000000000000000e+00 0.0000000000000000e+00  1.5598596644342865e-05 -5.3884532945078896e-08 0.0000000000000000e+00  3.1972014049038874e-05 -1.1705397180111394e-07 0.0000000000000000e+00  4.9951027072139096e-05 -2.0046544277846140e-07 0.0000000000000000e+00  7.0488443285911619e-05 -3.1872901333472520e-07 0.0000000000000000e+00  9.4738104460999814e-05 -4.9278113609829716e-07 0.0000000000000000e+00  1.2415857908862986e-04 -7.5371425216018453e-07 0.0000000000000000e+00  1.6065514059368971e-04 -1.1483453178532210e-06 0.0000000000000000e+00  2.0677881517050083e-04 -1.7471128130827187e-06 0.0000000000000000e+00  2.6600796709075195e-04 -2.6544165741794331e-06 0.0000000000000000e+00  3.4314459633683644e-04 -4.0195160329287775e-06 0.0000000000000000e+00  4.4485878722305884e-04 -6.0399502272643367e-06 0.0000000000000000e+00  5.8039458944229426e-04 -8.9332155602795420e-06 0.0000000000000000e+00  7.6236808439337567e-04 -1.2815354341653145e-05 0.0000000000000000e+00  1.0073506595380778e-03 -1.7358683089561236e-05 0.0000000000000000e+00  1.3353576525911388e-03 -2.1066613610328806e-05 0.0000000000000000e+00  1.7662345991390515e-03 -2.0620101752685337e-05 0.0000000000000000e+00  0.0000000000000000e+00 0.0000000000000000e+00 0.0000000000000000e+00  1.2497468501490160e-05 -5.2817815402341888e-08 0.0000000000000000e+00  2.5646206421671492e-05 -1.1524238953330870e-07 0.0000000000000000e+00  4.0149497869168755e-05 -1.9882982588888735e-07 0.0000000000000000e+00  5.6825389746527429e-05 -3.1950922277136121e-07 0.0000000000000000e+00  7.6683945131782446e-05 -5.0109179895502071e-07 0.0000000000000000e+00  1.0103285246259471e-04 -7.8079441863033744e-07 0.0000000000000000e+00  1.3162928693510116e-04 -1.2182964735723849e-06 0.0000000000000000e+00  1.7090570818465532e-04 -1.9108523693763500e-06 0.0000000000000000e+00  2.2231333654284136e-04 -3.0185335440234803e-06 0.0000000000000000e+00  2.9085280927309008e-04 -4.8055799335120773e-06 0.0000000000000000e+00  3.8390115285893544e-04 -7.7042845894802295e-06 0.0000000000000000e+00  5.1249919604421084e-04 -1.2398737125047454e-05 0.0000000000000000e+00  6.9331793836259557e-04 -1.9877066407267942e-05 0.0000000000000000e+00  9.5149557357218943e-04 -3.1208040626247229e-05 0.0000000000000000e+00  1.3241903169458604e-03 -4.6082896104249354e-05 0.0000000000000000e+00  1.8636665246425494e-03 -5.6054950077429187e-05 0.0000000000000000e+00  0.0000000000000000e+00 0.0000000000000000e+00 0.0000000000000000e+00  8.7373561955119196e-06 -4.2075517408265117e-08 0.0000000000000000e+00  1.7946645183439416e-05 -9.2100564992660429e-08 0.0000000000000000e+00  2.8140305823711063e-05 -1.5976780806643131e-07 0.0000000000000000e+00  3.9920884076232730e-05 -2.5874847780477854e-07 0.0000000000000000e+00  5.4043471118475345e-05 -4.1007730986418236e-07 0.0000000000000000e+00  7.1503619490954692e-05 -6.4779324865155864e-07 0.0000000000000000e+00  9.3668264248105858e-05 -1.0288528906680494e-06 0.0000000000000000e+00  1.2247857664308704e-04 -1.6511877831658541e-06 0.0000000000000000e+00  1.6077421575792249e-04 -2.6875691680584375e-06 0.0000000000000000e+00  2.1282597485054386e-04 -4.4507882025810909e-06 0.0000000000000000e+00  2.8523411718624529e-04 -7.5219521487420286e-06 0.0000000000000000e+00  3.8848659277225083e-04 -1.3007109853928189e-05 0.0000000000000000e+00  5.3975379240952192e-04 -2.3052914408083288e-05 0.0000000000000000e+00  7.6811253127571119e-04 -4.1866213520628142e-05 0.0000000000000000e+00  1.1246605016967169e-03 -7.7619707405901411e-05 0.0000000000000000e+00  1.7016809863887594e-03 -1.4544719335086759e-04 0.0000000000000000e+00  0.0000000000000000e+00 0.0000000000000000e+00 0.0000000000000000e+00  4.4972707933301077e-06 -2.3321532665285576e-08 0.0000000000000000e+00  9.2431190577048530e-06 -5.1155036018501650e-08 0.0000000000000000e+00  1.4508456863253652e-05 -8.9048985490839583e-08 0.0000000000000000e+00  2.0614135092334976e-05 -1.4494286985332847e-07 0.0000000000000000e+00  2.7966218569602670e-05 -2.3127569955785908e-07 0.0000000000000000e+00  3.7106623339796277e-05 -3.6862386050847880e-07 0.0000000000000000e+00  4.8790237595100385e-05 -5.9237122155420544e-07 0.0000000000000000e+00  6.4107506014240479e-05 -9.6552538289190226e-07 0.0000000000000000e+00  8.4685975270096662e-05 -1.6044757078036550e-06 0.0000000000000000e+00  1.1303091513122791e-04 -2.7332886058998800e-06 0.0000000000000000e+00  1.5311190730406447e-04 -4.8041577311054901e-06 0.0000000000000000e+00  2.1137239599603775e-04 -8.7789758459232342e-06 0.0000000000000000e+00  2.9838002789710027e-04 -1.6819689625678855e-05 0.0000000000000000e+00  4.3098189643138977e-04 -3.4032731818468071e-05 0.0000000000000000e+00  6.3226672692926129e-04 -7.2786297370242611e-05 0.0000000000000000e+00  9.1457076081878749e-04 -1.6132523582382976e-04 0.0000000000000000e+00  0.0000000000000000e+00 0.0000000000000000e+00 0.0000000000000000e+00  0.0000000000000000e+00 0.0000000000000000e+00 0.0000000000000000e+00  0.0000000000000000e+00 0.0000000000000000e+00 0.0000000000000000e+00  0.0000000000000000e+00 0.0000000000000000e+00 0.0000000000000000e+00  0.0000000000000000e+00 0.0000000000000000e+00 0.0000000000000000e+00  0.0000000000000000e+00 0.0000000000000000e+00 0.0000000000000000e+00  0.0000000000000000e+00 0.0000000000000000e+00 0.0000000000000000e+00  0.0000000000000000e+00 0.0000000000000000e+00 0.0000000000000000e+00  0.0000000000000000e+00 0.0000000000000000e+00 0.0000000000000000e+00  0.0000000000000000e+00 0.0000000000000000e+00 0.0000000000000000e+00  0.0000000000000000e+00 0.0000000000000000e+00 0.000