<?xml version="1.0"?>
<VTKFile type="UnstructuredGrid"  version="0.1"  >
<UnstructuredGrid>
<Piece  NumberOfPoints="289" NumberOfCells="512">
<Points>
<DataArray  type="Float64"  NumberOfComponents="3"  format="ascii">0 0 0  0.0625 0 0  0.125 0 0  0.1875 0 0  0.25 0 0  0.3125 0 0  0.375 0 0  0.4375 0 0  0.5 0 0  0.5625 0 0  0.625 0 0  0.6875 0 0  0.75 0 0  0.8125 0 0  0.875 0 0  0.9375 0 0  1 0 0  0 0.0625 0  0.0624414715137368 0.06248634461734339 0  0.1248816620750123 0.06247244489317226 0  0.187319333370505 0.06245807773515297 0  0.2497534062163151 0.06244307164522715 0  0.3121830782224393 0.06242734045518369 0  0.3746079924736657 0.06241092580870057 0  0.4370284810470743 0.06239404908457661 0  0.4994459151040346 0.06237717013109979 0  0.5618632084879079 0.06236104424503224 0  0.6242855547585514 0.06234675959673706 0  0.6867215554492151 0.06233572609953415 0  0.749185085132309 0.06232958284298109 0  0.8116986660231728 0.06233003308050677 0  0.8742998557246791 0.06233885567971481 0  0.9370515525734571 0.06235947711973861 0  1.000038298297608 0.06240818993350358 0  0 0.125 0  0.06238428589437815 0.1249729300228285 0  0.1247659484743114 0.1249453464623622 0  0.1871424408895113 0.1249167751353482 0  0.2495115100972296 0.1248868386755226 0  0.31187141909556 0.1248553217368703 0  0.3742212703609331 0.1248222554686612 0  0.4365614777903908 0.1247880244060858 0  0.4988944487236669 0.1247534932522076 0  0.5612255618539166 0.1247201398827131 0  0.623564572419139 0.1246901612512763 0  0.6859276677039549 0.1246664880126312 0  0.7483405779196111 0.1246526026627909 0  0.8108434691592565 0.1246520180596229 0  0.8734987763385764 0.1246672732512238 0  0.9364037305788502 0.1246982932666742 0  0.9997166325333362 0.1247381931637038 0  0 0.1875 0  0.06232982618079564 0.1874600285255879 0  0.1246555636786929 0.1874192284133792 0  0.1869732134282712 0.18737682213848 0  0.2492791490699681 0.1873321606913664 0  0.311570411361542 0.1872848146828994 0  0.3738451482941734 0.1872346979531929 0  0.4361032684769083 0.1871822325320342 0  0.4983473917738874 0.1871285582105947 0  0.5605842019134906 0.1870757767343959 0  0.6228263305965832 0.1870271931745451 0  0.6850949268475641 0.1869874644996344 0  0.7474230626808938 0.1869624679450085 0  0.80985999593159 0.1869585130014244 0  0.8724757788230932 0.186980095449595 0  0.935364382911743 0.1870242281445028 0  0.9986420781396482 0.1870660473804716 0  0 0.25 0  0.06227959634527409 0.2499479578770322 0  0.1245534814086894 0.2498947122693753 0  0.1868160156523053 0.2498391124400481 0  0.2490619277589488 0.2497801461499687 0  0.3112866317426276 0.2497170461680707 0  0.3734867251233296 0.2496494445691645 0  0.4356607534181542 0.2495775933203879 0  0.497810344204719 0.2495026681585063 0  0.5599418283822193 0.2494271640288666 0  0.6220684635061526 0.249355365749013 0  0.6842133241414867 0.2492938215015524 0  0.7464127625034445 0.2492516329035762 0  0.8087199435634196 0.2492401641150129 0  0.871207137200168 0.2492714273881173 0  0.9339641424280976 0.2493540292834055 0  0.9970889496215462 0.249486133694439 0  0 0.3125 0  0.06223524684923071 0.3124370948502528 0  0.1244630089055122 0.312372548445255 0  0.1866758165143252 0.3123047602517193 0  0.2488664592447125 0.3122322479247425 0  0.311028262190354 0.3121537521639516 0  0.3731555662696981 0.312068403762479 0  0.4352445150361904 0.3119759839556778 0  0.4972942758435762 0.311877316473593 0  0.5593088426984217 0.3117748342623964 0  0.6212995609990818 0.3116733573970654 0  0.6832884391484237 0.311581083692268 0  0.7453120980608821 0.311510696924888 0  0.8074257674481858 0.3114802879063661 0  0.8697060458489152 0.3115134097626054 0  0.932250518043952 0.3116370852281575 0  0.9951729029674479 0.3118762189678953 0  0 0.375 0  0.06219856032275242 0.3749278779426264 0  0.1243877681093314 0.3748536255103443 0  0.1865581867491356 0.3747751246768203 0  0.2487004136028902 0.3746903178963116 0  0.3108052414356904 0.3745972871260217 0  0.3728640287493966 0.3744944032931697 0  0.4348693982157112 0.374380589582111 0  0.4968164252653815 0.3742557617194569 0  0.5587045251692567 0.37412153482031 0  0.6205402771498603 0.3739823155391575 0  0.6823413953583727 0.3738469156411404 0  0.744141893981984 0.3737307895049253 0  0.8059981055115794 0.3736588284647493 0  0.867994583519939 0.3736681932102393 0  0.9302483647662358 0.3738097672931643 0  0.9929105125184864 0.374145469715371 0  0 0.4375 0  0.06217138965768956 0.4374207954290283 0  0.1243315766974655 0.4373389492066282 0  0.1864691340690065 0.4372517867509892 0  0.2485723287484032 0.4371565961642442 0  0.3106290887597458 0.4370506518754672 0  0.3726271564908008 0.4369313041892511 0  0.4345545581537248 0.4367961845133008 0  0.4964005893467512 0.43664360864084 0  0.5581576141096275 0.4364733130549531 0  0.6198240934739031 0.4362877390279157 0  0.6814093677730694 0.4360941871947544 0  0.7429407317146759 0.4359082746391915 0  0.804473102600482 0.4357591320821155 0  0.8661008899313554 0.4356964072504797 0  0.9279705491508944 0.4357978947316974 0  0.9902916906452185 0.4361740665254918 0  0 0.5 0  0.06215554547712177 0.4999163559749757 0  0.1242982209258658 0.4998295843325146 0  0.1864147591065267 0.4997364652186056 0  0.2484911522320272 0.499633608654258 0  0.3105123485726397 0.4995173928877581 0  0.3724620731539645 0.4993839455833833 0  0.4343228951975299 0.4992292115411738 0  0.4960767643802999 0.4990491901683705 0  0.5577064026342597 0.4988404988554468 0  0.6191981943629957 0.498601549807057 0  0.680547577056565 0.4983348542108188 0  0.7417683394260808 0.4980513225627245 0  0.8029074418172167 0.4977778741838826 0  0.8640663873782803 0.4975698734429164 0  0.9254279391733568 0.4975288178494934 0  0.9872835819590324 0.4978213100430081 0  0 0.5625 0  0.06215263610877211 0.562415041282511 0  0.1242911242562362 0.5623265570466243 0  0.186400731935133 0.5622308633507839 0  0.248465500760765 0.5621239536117151 0  0.3104676154253595 0.5620013295957352 0  0.372386785320117 0.561857832128546 0  0.4341997204710472 0.5616874917675637 0  0.4958798978055806 0.5614834526465305 0  0.5573980359865113 0.5612380937676258 0  0.6187241101295866 0.560943623925193 0  0.679832457680794 0.5605937460479343 0  0.7407126497658308 0.5601876348968724 0  0.8013901818270921 0.5597386795889714 0  0.8619616660756695 0.5592922608475958 0  0.9226461681789624 0.5589579902595485 0  0.9838430586966641 0.5589572110031749 0  0 0.625 0  0.06216387115419069 0.6249172438472411 0  0.1243129320374505 0.6248307228525485 0  0.1864316136363163 0.6247364518209186 0  0.2485026551222016 0.624629976144487 0  0.310506128323336 0.6245060909281273 0  0.3724183157720841 0.624358502617737 0  0.4342104360453097 0.6241794135392085 0  0.4958473017604414 0.6239590179776955 0  0.5572862184156872 0.6236849299277789 0  0.6184769380949949 0.6233416602195225 0  0.6793645619442447 0.6229105395419924 0  0.739899425166751 0.6223712450659615 0  0.8000617505349337 0.6217080648212902 0  0.8599138428186222 0.6209286868215107 0  0.9196939935427477 0.6201116559401421 0  0.9799507692227223 0.6195020686543085 0  0 0.6875 0  0.06218984930980419 0.6874231973476026 0  0.1243650532872046 0.6873426155777963 0  0.1865100822194494 0.6872542108524519 0  0.2486073598525204 0.6871533605587699 0  0.3106359908819785 0.6870344912998241 0  0.3725701577541403 0.6868905924478936 0  0.4343770475424859 0.6867125497951149 0  0.4960141813410873 0.6864882041015561 0  0.5574261281066313 0.6862009954938026 0  0.6185409767297966 0.6858280027658217 0  0.6792680716577896 0.6853371811558716 0  0.739501454355442 0.6846839020164254 0  0.7991404175626704 0.6838085407466675 0  0.8581529480595907 0.6826436039106863 0  0.9167276143866931 0.6811619622660253 0  0.9755435078578339 0.6795377125775117 0  0 0.75 0  0.06223036101069816 0.7499329113171935 0  0.1244472237312306 0.7498623025491818 0  0.1866361653622691 0.7497843743356138 0  0.2487805711086854 0.7496947066953527 0  0.3108601930373956 0.7495878429584794 0  0.3728492167704136 0.7494567216039892 0  0.4347135489398165 0.7492918570122501 0  0.4964069183456741 0.7490801077046657 0  0.5578652442416718 0.7488027523977933 0  0.6189986699096733 0.7484323614111917 0  0.6796810879683566 0.747927483572973 0  0.739739236682041 0.7472232729739224 0  0.7989517174984135 0.7462148715294564 0  0.8570947591890681 0.744731296217087 0  0.9141444356114613 0.7425236909643428 0  0.9708054943304399 0.7395356557086684 0  0 0.8125 0  0.06228424407405492 0.8124461239884919 0  0.1245571739454151 0.8123892771363016 0  0.1868066246274856 0.8123262320993812 0  0.2490183807965942 0.8122531857347969 0  0.3111747716415304 0.8121653640309174 0  0.3732526989504413 0.8120564714654784 0  0.4352207092649161 0.811917881507896 0  0.4970344695190333 0.8117373983944649 0  0.5586295647904077 0.8114972906637031 0  0.6199097866520482 0.8111710186055631 0  0.680727916733024 0.8107174035914619 0  0.7408547615541288 0.8100691642530971 0  0.7999337921933185 0.8091074363189088 0  0.8574392547206521 0.8075977915873269 0  0.9127797722823011 0.8050115117089932 0  0.966489698603518 0.7999400269556924 0  0 0.875 0  0.06234933195682719 0.874962286115719 0  0.1246904933857685 0.8749224181972383 0  0.1870146588977986 0.874878045932208 0  0.2493114081883925 0.8748263758701742 0  0.3115676014171791 0.8747638643019834 0  0.3737657525026338 0.8746857871326872 0  0.4358815218657028 0.8745856098475515 0  0.4978796559253353 0.8744540426129246 0  0.5597071153746774 0.8742776104918302 0  0.6212809269434768 0.8740364930688009 0  0.6824656919854161 0.873701265511899 0  0.7430298131418803 0.8732277853323033 0  0.8025557066011738 0.8725474357643848 0  0.86024693592654 0.8715390101962656 0  0.9145117109456118 0.8699143849822413 0  0.962182107089918 0.8666747509698118 0  0 0.9375 0  0.06242252565051074 0.9374805837118066 0  0.1248407649598387 0.9374600351771017 0  0.187250075557113 0.9374371158949217 0  0.2496449428617135 0.9374103468224665 0  0.3120183554820528 0.9373778412605615 0  0.3743608871642133 0.9373370715802852 0  0.4366592543234176 0.9372845327
[...]
<PointData  Vectors="f_54"> 
<DataArray  type="Float64"  Name="f_54"  NumberOfComponents="3" format="ascii">0.0000000000000000e+00 0.0000000000000000e+00 0.0000000000000000e+00  0.0000000000000000e+00 0.0000000000000000e+00 0.0000000000000000e+00  0.0000000000000000e+00 0.0000000000000000e+00 0.0000000000000000e+00  0.0000000000000000e+00 0.0000000000000000e+00 0.0000000000000000e+00  0.0000000000000000e+00 0.0000000000000000e+00 0.0000000000000000e+00  0.0000000000000000e+00 0.0000000000000000e+00 0.0000000000000000e+00  0.0000000000000000e+00 0.0000000000000000e+00 0.0000000000000000e+00  0.0000000000000000e+00 0.0000000000000000e+00 0.0000000000000000e+00  0.0000000000000000e+00 0.0000000000000000e+00 0.0000000000000000e+00  0.0000000000000000e+00 0.0000000000000000e+00 0.0000000000000000e+00  0.0000000000000000e+00 0.0000000000000000e+00 0.0000000000000000e+00  0.0000000000000000e+00 0.0000000000000000e+00 0.0000000000000000e+00  0.0000000000000000e+00 0.0000000000000000e+00 0.0000000000000000e+00  0.0000000000000000e+00 0.0000000000000000e+00 0.0000000000000000e+00  0.0000000000000000e+00 0.0000000000000000e+00 0.0000000000000000e+00  0.0000000000000000e+00 0.0000000000000000e+00 0.0000000000000000e+00  0.0000000000000000e+00 0.0000000000000000e+00 0.0000000000000000e+00  0.0000000000000000e+00 0.0000000000000000e+00 0.0000000000000000e+00  -4.4356186321254859e-07 -2.8825982595913801e-08 0.0000000000000000e+00  -9.2510800842972976e-07 -5.8783667345806609e-08 0.0000000000000000e+00  -1.4866654820638894e-06 -9.1068643687802501e-08 0.0000000000000000e+00  -2.1784051537316494e-06 -1.2698435056144747e-07 0.0000000000000000e+00  -3.0636355375031620e-06 -1.6799873215289112e-07 0.0000000000000000e+00  -4.2250154689900053e-06 -2.1579806610151516e-07 0.0000000000000000e+00  -5.7727185875446214e-06 -2.7232539259103399e-07 0.0000000000000000e+00  -7.8559292283631029e-06 -3.3977578167410104e-07 0.0000000000000000e+00  -1.0680767095328514e-05 -4.2049508101265444e-07 0.0000000000000000e+00  -1.4542416216240693e-05 -5.1668680273192471e-07 0.0000000000000000e+00  -1.9892421976583269e-05 -6.2975117766428360e-07 0.0000000000000000e+00  -2.7501209658161217e-05 -7.5883758108644151e-07 0.0000000000000000e+00  -3.8899583334225557e-05 -8.9710527317059754e-07 0.0000000000000000e+00  -5.7704996160150769e-05 -1.0186753753001980e-06 0.0000000000000000e+00  -9.3991343583524697e-05 -1.0209172951143005e-06 0.0000000000000000e+00  -1.7994372794332357e-04 -4.4226215024694076e-07 0.0000000000000000e+00  0.0000000000000000e+00 0.0000000000000000e+00 0.0000000000000000e+00  -8.4807378052713322e-07 -5.6452607039286202e-08 0.0000000000000000e+00  -1.7680099362275413e-06 -1.1510855909471827e-07 0.0000000000000000e+00  -2.8393149175849951e-06 -1.7829504950666895e-07 0.0000000000000000e+00  -4.1569430837785940e-06 -2.4855180437430679e-07 0.0000000000000000e+00  -5.8407301085286826e-06 -3.2874772354209672e-07 0.0000000000000000e+00  -8.0470006677145843e-06 -4.2220044374224828e-07 0.0000000000000000e+00  -1.0983425788970567e-05 -5.3278109018809946e-07 0.0000000000000000e+00  -1.4928845943026144e-05 -6.6496030272774136e-07 0.0000000000000000e+00  -2.0261372381012278e-05 -8.2370730370352277e-07 0.0000000000000000e+00  -2.7502023670359010e-05 -1.0140921717548409e-06 0.0000000000000000e+00  -3.7390605478862441e-05 -1.2403978245984944e-06 0.0000000000000000e+00  -5.1031834682814971e-05 -1.5047086959997689e-06 0.0000000000000000e+00  -7.0191079328272025e-05 -1.8061914576913267e-06 0.0000000000000000e+00  -9.7862437868796444e-05 -2.1489976136256247e-06 0.0000000000000000e+00  -1.3902847385305158e-04 -2.6018157896346655e-06 0.0000000000000000e+00  -1.9936378467288286e-04 -3.6411116064042305e-06 0.0000000000000000e+00  0.0000000000000000e+00 0.0000000000000000e+00 0.0000000000000000e+00  -1.1794958980438194e-06 -8.1797568999477302e-08 0.0000000000000000e+00  -2.4571664053094063e-06 -1.6676016233754297e-07 0.0000000000000000e+00  -3.9416545301768146e-06 -2.5822823242277161e-07 0.0000000000000000e+00  -5.7629038256894138e-06 -3.5985076820135198e-07 0.0000000000000000e+00  -8.0851564437922229e-06 -4.7576495953544802e-07 0.0000000000000000e+00  -1.1122813923317914e-05 -6.1079826775743359e-07 0.0000000000000000e+00  -1.5160219307734066e-05 -7.7068283331914515e-07 0.0000000000000000e+00  -2.0576518603560236e-05 -9.6224119428141951e-07 0.0000000000000000e+00  -2.7876942288247398e-05 -1.1934394755350479e-06 0.0000000000000000e+00  -3.7732143840394725e-05 -1.4730896118881895e-06 0.0000000000000000e+00  -5.1027223704124348e-05 -1.8097930442118294e-06 0.0000000000000000e+00  -6.8918859466768283e-05 -2.2094169450241950e-06 0.0000000000000000e+00  -9.2879403499936659e-05 -2.6697464985456497e-06 0.0000000000000000e+00  -1.2462189234816243e-04 -3.1681683532763584e-06 0.0000000000000000e+00  -1.6549903522068747e-04 -3.6211684786890600e-06 0.0000000000000000e+00  -2.1415098560410381e-04 -3.6861274138559907e-06 0.0000000000000000e+00  0.0000000000000000e+00 0.0000000000000000e+00 0.0000000000000000e+00  -1.4114246392028348e-06 -1.0389115031177740e-07 0.0000000000000000e+00  -2.9370075337229737e-06 -2.1175441756663556e-07 0.0000000000000000e+00  -4.7031520959312099e-06 -3.2777408214679342e-07 0.0000000000000000e+00  -6.8614707486919586e-06 -4.5651842148812778e-07 0.0000000000000000e+00  -9.6043014588238104e-06 -6.0317774293682854e-07 0.0000000000000000e+00  -1.3183711932845187e-05 -7.7385768934050381e-07 0.0000000000000000e+00  -1.7935024065314913e-05 -9.7594273892179850e-07 0.0000000000000000e+00  -2.4305448138386448e-05 -1.2185238244009666e-06 0.0000000000000000e+00  -3.2887258062380979e-05 -1.5128232590160379e-06 0.0000000000000000e+00  -4.4452210184134495e-05 -1.8724065266591479e-06 0.0000000000000000e+00  -5.9977669857291175e-05 -2.3126742004698127e-06 0.0000000000000000e+00  -8.0640598607306763e-05 -2.8485882594259000e-06 0.0000000000000000e+00  -1.0772264419081329e-04 -3.4887561201717338e-06 0.0000000000000000e+00  -1.4229685588368086e-04 -4.2232120230178374e-06 0.0000000000000000e+00  -1.8442873672561795e-04 -5.0046032095191385e-06 0.0000000000000000e+00  -2.3148028084602637e-04 -5.7515300647372402e-06 0.0000000000000000e+00  0.0000000000000000e+00 0.0000000000000000e+00 0.0000000000000000e+00  -1.5279068454450993e-06 -1.2192232702913271e-07 0.0000000000000000e+00  -3.1738143142004233e-06 -2.4843538752684863e-07 0.0000000000000000e+00  -5.0684777244420114e-06 -3.8435649586317509e-07 0.0000000000000000e+00  -7.3693841600798772e-06 -5.3492499926921354e-07 0.0000000000000000e+00  -1.0277583697513577e-05 -7.0607808496384866e-07 0.0000000000000000e+00  -1.4058765023375747e-05 -9.0481877750957696e-07 0.0000000000000000e+00  -1.9069920241662000e-05 -1.1397320488078459e-06 0.0000000000000000e+00  -2.5792397000156287e-05 -1.4217168115853728e-06 0.0000000000000000e+00  -3.4870565525688449e-05 -1.7649856091994041e-06 0.0000000000000000e+00  -4.7151617113133174e-05 -2.1882804868054631e-06 0.0000000000000000e+00  -6.3714129932452974e-05 -2.7159390311251495e-06 0.0000000000000000e+00  -8.5857590312997460e-05 -3.3777105571508137e-06 0.0000000000000000e+00  -1.1499732525862813e-04 -4.2048430710350181e-06 0.0000000000000000e+00  -1.5236630702647163e-04 -5.2180750832007853e-06 0.0000000000000000e+00  -1.9837995477037723e-04 -6.4023725387502044e-06 0.0000000000000000e+00  -2.5154330956281984e-04 -7.6676030461080970e-06 0.0000000000000000e+00  0.0000000000000000e+00 0.0000000000000000e+00 0.0000000000000000e+00  -1.5252796504453605e-06 -1.3527357229079648e-07 0.0000000000000000e+00  -3.1596248053577658e-06 -2.7555185891006445e-07 0.0000000000000000e+00  -5.0239178036728649e-06 -4.2605271080034382e-07 0.0000000000000000e+00  -7.2644627310704851e-06 -5.9240081594668037e-07 0.0000000000000000e+00  -1.0069646312165855e-05 -7.8089988687010265e-07 0.0000000000000000e+00  -1.3691711632932283e-05 -9.9891788429634247e-07 0.0000000000000000e+00  -1.8475756920928430e-05 -1.2554850914455996e-06 0.0000000000000000e+00  -2.4898028387225768e-05 -1.5622725028760390e-06 0.0000000000000000e+00  -3.3614741376241641e-05 -1.9352041392640422e-06 0.0000000000000000e+00  -4.5520007921658858e-05 -2.3970138710493550e-06 0.0000000000000000e+00  -6.1805169183218144e-05 -2.9809282142539229e-06 0.0000000000000000e+00  -8.3999248281923863e-05 -3.7349528001336810e-06 0.0000000000000000e+00  -1.1394863047313780e-04 -4.7241998223496984e-06 0.0000000000000000e+00  -1.5366441090568206e-04 -6.0242389108013886e-06 0.0000000000000000e+00  -2.0494244053946177e-04 -7.6909256351860053e-06 0.0000000000000000e+00  -2.6868522692870701e-04 -9.6824307876538364e-06 0.0000000000000000e+00  0.0000000000000000e+00 0.0000000000000000e+00 0.0000000000000000e+00  -1.4128000984955306e-06 -1.4353708252224923e-07 0.0000000000000000e+00  -2.9137052575528953e-06 -2.9229547687574196e-07 0.0000000000000000e+00  -4.6001360496440246e-06 -4.5166919535953495e-07 0.0000000000000000e+00  -6.5903859119343043e-06 -6.2738662556716320e-07 0.0000000000000000e+00  -9.0381980173161170e-06 -8.2572158885745617e-07 0.0000000000000000e+00  -1.2153111852885642e-05 -1.0537951487224409e-06 0.0000000000000000e+00  -1.6229729990687408e-05 -1.3200864431752904e-06 0.0000000000000000e+00  -2.1690051945009963e-05 -1.6353988114280990e-06 0.0000000000000000e+00  -2.9143945808002638e-05 -2.0147591754968018e-06 0.0000000000000000e+00  -3.9472963826722173e-05 -2.4810931306880878e-06 0.0000000000000000e+00  -5.3940477074245609e-05 -3.0719450103684091e-06 0.0000000000000000e+00  -7.4323544732514114e-05 -3.8505818820445973e-06 0.0000000000000000e+00  -1.0304464915983034e-04 -4.9212294155166944e-06 0.0000000000000000e+00  -1.4325109142389203e-04 -6.4420414424370653e-06 0.0000000000000000e+00  -1.9875359483740373e-04 -8.6146669036962287e-06 0.0000000000000000e+00  -2.7372737988724084e-04 -1.1605870117879676e-05 0.0000000000000000e+00  0.0000000000000000e+00 0.0000000000000000e+00 0.0000000000000000e+00  -1.2118504563127723e-06 -1.4650658815647215e-07 0.0000000000000000e+00  -2.4811279072634132e-06 -2.9828423427679761e-07 0.0000000000000000e+00  -3.8705334173611986e-06 -4.6072083296953256e-07 0.0000000000000000e+00  -5.4556776163494649e-06 -6.3942863471545704e-07 0.0000000000000000e+00  -7.3352208856635732e-06 -8.4034038209572666e-07 0.0000000000000000e+00  -9.6466552686419496e-06 -1.0698101569176892e-06 0.0000000000000000e+00  -1.2591729814611104e-05 -1.3347922978439051e-06 0.0000000000000000e+00  -1.6477825268809245e-05 -1.6433188736361336e-06 0.0000000000000000e+00  -2.1784953193930216e-05 -2.0058399280256557e-06 0.0000000000000000e+00  -2.9272446710732339e-05 -2.4387186061361245e-06 0.0000000000000000e+00  -4.0143900581109054e-05 -2.9725349143150121e-06 0.0000000000000000e+00  -5.6290350121470510e-05 -3.6699145373731480e-06 0.0000000000000000e+00  -8.0622404365019687e-05 -4.6592886128076944e-06 0.0000000000000000e+00  -1.1746862589446957e-04 -6.1875694292434210e-06 0.0000000000000000e+00  -1.7295042532793585e-04 -8.6744013957967670e-06 0.0000000000000000e+00  -2.5518253273757314e-04 -1.2702105562983606e-05 0.0000000000000000e+00  0.0000000000000000e+00 0.0000000000000000e+00 0.0000000000000000e+00  -9.5355904773879702e-07 -1.4414494679198990e-07 0.0000000000000000e+00  -1.9280477267865092e-06 -2.9348730778233333e-07 0.0000000000000000e+00  -2.9443617676837759e-06 -4.5329313877159535e-07 0.0000000000000000e+00  -4.0252820961498440e-06 -6.2895440509012517e-07 0.0000000000000000e+00  -5.1986557409647043e-06 -8.2595486101832509e-07 0.0000000000000000e+00  -6.5046656292388949e-06 -1.0496997624536961e-06 0.0000000000000000e+00  -8.0112161851798245e-06 -1.3051499267017362e-06 0.0000000000000000e+00  -9.8448663996745475e-06 -1.5962619478818903e-06 0.0000000000000000e+00  -1.2250587326210722e-05 -1.9255054603777957e-06 0.0000000000000000e+00  -1.5703099666255655e-05 -2.2945630130525961e-06 0.0000000000000000e+00  -2.1106610576326323e-05 -2.7095015619945443e-06 0.0000000000000000e+00  -3.0137313593789367e-05 -3.1986556751855839e-06 0.0000000000000000e+00  -4.5795876002832553e-05 -3.8607325334536297e-06 0.0000000000000000e+00  -7.3219434307713482e-05 -4.9717328068805534e-06 0.0000000000000000e+00  -1.2070251443852841e-04 -7.1697681205432911e-06 0.0000000000000000e+00  -2.0067814532946730e-04 -1.1636057336067280e-05 0.0000000000000000e+00  0.0000000000000000e+00 0.0000000000000000e+00 0.0000000000000000e+00  -6.7481771893846421e-07 -1.3653821798373715e-07 0.0000000000000000e+00  -1.3335126252251638e-06 -2.7811161267915876e-07 0.0000000000000000e+00  -1.9539789875698448e-06 -4.2981180073793370e-07 0.0000000000000000e+00  -2.5030933037106778e-06 -5.9683709899651208e-07 0.0000000000000000e+00  -2.9308594023765244e-06 -7.8438782232208898e-07 0.0000000000000000e+00  -3.1652553698777546e-06 -9.9729086473838304e-07 0.0000000000000000e+00  -3.1103699193857572e-06 -1.2391032654218993e-06 0.0000000000000000e+00  -2.6540366557764222e-06 -1.5102819514851210e-06 0.0000000000000000e+00  -1.6983740660372644e-06 -1.8048574379615592e-06 0.0000000000000000e+00  -2.4034074236918840e-07 -2.1052351747431953e-06 0.0000000000000000e+00  1.4458516225695643e-06 -2.3763688881853626e-06 0.0000000000000000e+00  2.4312620055653242e-06 -2.5667470444753446e-06 0.0000000000000000e+00  4.0650728795150965e-07 -2.6420524173003432e-06 0.0000000000000000e+00  -9.6019733667960304e-06 -2.7218887217487121e-06 0.0000000000000000e+00  -3.7226551255186063e-05 -3.4617294597215260e-06 0.0000000000000000e+00  -9.9231171677207998e-05 -6.7946342103745973e-06 0.0000000000000000e+00  0.0000000000000000e+00 0.0000000000000000e+00 0.0000000000000000e+00  -4.1294333132749793e-07 -1.2385839240051481e-07 0.0000000000000000e+00  -7.7818306980613747e-07 -2.5250055495582254e-07 0.0000000000000000e+00  -1.0364464139277148e-06 -3.9080921639576450e-07 0.0000000000000000e+00  -1.1048113267771483e-06 -5.4388586863840320e-07 0.0000000000000000e+00  -8.6108434042054450e-07 -7.1701916666773856e-07 0.0000000000000000e+00  -1.2384729867522577e-07 -9.1536518500487963e-07 0.0000000000000000e+00  1.3724647650623139e-06 -1.1429609525236592e-06 0.0000000000000000e+00  4.0058635969760044e-06 -1.4002548600853135e-06 0.0000000000000000e+00  8.2910506314691854e-06 -1.6784814631925375e-06 0.0000000000000000e+00  1.4878273551075526e-05 -1.9477343882718423e-06 0.0000000000000000e+00  2.4474574637119904e-05 -2.1337511969595179e-06 0.0000000000000000e+00  3.7570262698519677e-05 -2.0788450111134650e-06 0.0000000000000000e+00  5.3724946550593334e-05 -1.4968283429630709e-06 0.0000000000000000e+00  6.9939519639822487e-05 -2.2653760452831526e-09 0.0000000000000000e+00  7.7385319222529749e-05 2.4563829919765385e-06 0.0000000000000000e+00  5.6459129994929015e-05 4.0308988643585219e-06 0.0000000000000000e+00  0.0000000000000000e+00 0.0000000000000000e+00 0.0000000000000000e+00  -1.9960976831621588e-07 -1.0636208802712007e-07 0.0000000000000000e+00  -3.3117683592536982e-07 -2.1711435093976275e-07 0.0000000000000000e+00  -3.1113044093262649e-07 -3.3683378488233230e-07 0.0000000000000000e+00  -2.2803238086435582e-08 -4.7054634223638133e-07 0.0000000000000000e+00  7.0741360710551120e-07 -6.2394237210727136e-07 0.0000000000000000e+00  2.1438248189692439e-06 -8.0350485322958292e-07 0.0000000000000000e+00  4.6903106236080120e-06 -1.0162898422064883e-06 0.0000000000000000e+00  8.9606471710732509e-06 -1.2686016141953232e-06 0.0000000000000000e+00  1.5876143614580635e-05 -1.5615100566113662e-06 0.0000000000000000e+00  2.6790317729505432e-05 -1.8779469860327410e-06 0.0000000000000000e+00  4.3617428526419040e-05 -2.1486860985412710e-06 0.0000000000000000e+00  6.8874424497374241e-05 -2.1691769550400370e-06 0.0000000000000000e+00  1.0536729888177535e-04 -1.4147418570138048e-06 0.0000000000000000e+00  1.5480023102446352e-04 1.3033421660685448e-06 0.0000000000000000e+00  2.1346995703033103e-04 8.1379869217324295e-06 0.0000000000000000e+00  2.6149103434275708e-04 1.9397958072010365e-05 0.0000000000000000e+00  0.0000000000000000e+00 0.0000000000000000e+00 0.0000000000000000e+00  -5.5084836691539516e-08 -8.4442651036812623e-08 0.0000000000000000e+00  -3.7226924598837929e-08 -1.7264528045662956e-07 0.0000000000000000e+00  1.4314868728854634e-07 -2.6864122153530252e-07 0.0000000000000000e+00  6.1197288728056117e-07 -3.7714943966925597e-07 0.0000000000000000e+00  1.5592703662336038e-06 -5.0411670209468917e-07 0.0000000000000000e+00  3.2809002489150428e-06 -6.5756554169093833e-07 0.0000000000000000e+00  6.2438808415160632e-06 -8.4894267275623550e-07 0.0000000000000000e+00  1.1190436424277406e-05 -1.0951384263030707e-06 0.0000000000000000e+00  1.9304346974322179e-05 -1.4208753586856490e-06 0.0000000000000000e+00  3.2474170741104084e-05 -1.8589240745273104e-06 0.0000000000000000e+00  5.3696133835584165e-05 -2.4373173968272034e-06 0.0000000000000000e+00  8.7641826770949645e-05 -3.1155715348613247e-06 0.0000000000000000e+00  1.4129186260812966e-04 -3.5499045084867114e-06 0.0000000000000000e+00  2.2404776351782528e-04 -2.3284935217036158e-06 0.0000000000000000e+00  3.4502274196982234e-04 5.4837402515853117e-06 0.0000000000000000e+00  4.9835660997178211e-04 3.8478874405159566e-05 0.0000000000000000e+00  0.0000000000000000e+00 0.0000000000000000e+00 0.0000000000000000e+00  1.5912850727030196e-08 -5.8724580361203558e-08 0.0000000000000000e+00  9.2901492803631764e-08 -1.2025478814062355e-07 0.0000000000000000e+00  3.0617259934158065e-07 -1.8768669740239236e-07 0.0000000000000000e+00  7.6234447567213585e-07 -2.6486502661916348e-07 0.0000000000000000e+00  1.6244278651536897e-06 -3.5710664220231445e-07 0.0000000000000000e+00  3.1510488095041937e-06 -4.7256796160970571e-07 0.0000000000000000e+00  5.7611122503283396e-06 -6.2499755398153454e-07 0.0000000000000000e+00  1.0143700556488323e-05 -8.3948314589668255e-07 0.0000000000000000e+00  1.7449001185256356e-05 -1.1646816055028334e-06 0.0000000000000000e+00  2.9625571752645302e-05 -1.6988775669116377e-06 0.0000000000000000e+00  5.0022472342561958e-05 -2.6441738996578777e-06 0.0000000000000000e+00  8.4465152551462265e-05 -4.4117661501180019e-06 0.0000000000000000e+00  1.4313838832655303e-04 -7.7970306270356722e-06 0.0000000000000000e+00  2.4359559091658518e-04 -1.4177098411111701e-05 0.0000000000000000e+00  4.1377707154257980e-04 -2.5481680958741488e-05 0.0000000000000000e+00  6.8561815007085628e-04 -4.2901735593990581e-05 0.0000000000000000e+00  0.0000000000000000e+00 0.0000000000000000e+00 0.0000000000000000e+00  2.5459926817964226e-08 -3.0151736614767976e-08 0.0000000000000000e+00  8.5713735433927184e-08 -6.1819062918171637e-08 0.0000000000000000e+00  2.2373188727834008e-07 -9.6709807166133931e-08 0.0000000000000000e+00  5.0085260534049175e-07 -1.3703585952052594e-07 0.0000000000000000e+00  1.0118036595518016e-06 -1.8605111224560010e-07 0.0000000000000000e+00  1.9089618115167734e-06 -2.4915824636570079e-07 0.0000000000000000e+00  3.4437293789596822e-06 -3.3636270717238862e-07 0.0000000000000000e+00  6.0397931884073056e-06 -4.6803045716887799e-07 0.0000000000000000e+00  1.0426710922430262e-05 -6.8908522196483772e-07 0.0000000000000000e+00  1.7888925926804280e-05 -1.1056273179895419e-06 0.0000000000000000e+00  3.0733255193618568e-05 -1.9830062184996086e-06 0.0000000000000000e+00  5.3141664940034700e-05 -4.0144518212016014e-06 0.0000000000000000e+00  9.2542488668184106e-05 -9.0501259810241439e-06 0.0000000000000000e+00  1.6087966963495206e-04 -2.1921469359011691e-05 0.0000000000000000e+00  2.7144283598570530e-04 -5.3834470478467037e-05 0.0000000000000000e+00  4.1742248490501857e-04 -1.2193660601850508e-04 0.0000000000000000e+00  0.0000000000000000e+00 0.0000000000000000e+00 0.0000000000000000e+00  0.0000000000000000e+00 0.0000000000000000e+00 0.0000000000000000e+00  0.0000000000000000e+00 0.0000000000000000e+00 0.0000000000000000e+00  0.0000000000000000e+00 0.0000000000000000e+00 0.0000000000000000e+00  0.0000000000000000e+00 0.0000000000000000e+00 0.0000000000000000e+00  0.0000000000000000e+00 0.0000000000000000e+00 0.0000000000000000e+00  0.0000000000000000e+00 0.00000