<?xml version="1.0"?>
<VTKFile type="UnstructuredGrid"  version="0.1"  >
<UnstructuredGrid>
<Piece  NumberOfPoints="289" NumberOfCells="512">
<Points>
<DataArray  type="Float64"  NumberOfComponents="3"  format="ascii">0 0 0  0.0625 0 0  0.125 0 0  0.1875 0 0  0.25 0 0  0.3125 0 0  0.375 0 0  0.4375 0 0  0.5 0 0  0.5625 0 0  0.625 0 0  0.6875 0 0  0.75 0 0  0.8125 0 0  0.875 0 0  0.9375 0 0  1 0 0  0 0.0625 0  0.06262415631428667 0.06247087304526699 0  0.1252525625233571 0.06244112262573319 0  0.1878896468289285 0.06241014706692494 0  0.2505400572927295 0.06237742055479308 0  0.3132087832210748 0.06234254453054459 0  0.3759012941072455 0.06230531448254246 0  0.4386237235422961 0.06226580324694364 0  0.5013831639634881 0.06222445495168022 0  0.5641882318417991 0.06218216880621344 0  0.6270503005017958 0.06214032034134745 0  0.6899864328236737 0.06210059767891241 0  0.7530268480679022 0.06206435720034914 0  0.8162351809461544 0.06203070407403076 0  0.8797670241653198 0.06199083938628554 0  0.9440502259954923 0.06191003895034044 0  1.010386810575153 0.06166435513328849 0  0 0.125 0  0.0627441828283434 0.1249423371469185 0  0.1254968127744169 0.1248833864475721 0  0.1882666962024082 0.1248218988009129 0  0.2510631005857508 0.1247567651454831 0  0.313896008066678 0.1246871150944394 0  0.3767764001620397 0.1246124498964292 0  0.439716615006734 0.1245328161495327 0  0.5027308692742749 0.1244490168535343 0  0.5658361487826663 0.1243628351687723 0  0.6290539154715945 0.1242772048749588 0  0.6924135948243513 0.1241961893465139 0  0.7559598198948912 0.1241245315062458 0  0.8197669523971541 0.1240665211107143 0  0.8839644101878049 0.1240246700786617 0  0.9487608404581669 0.1240035836643086 0  1.014354911537802 0.1240488047591063 0  0 0.1875 0  0.06285584807636087 0.1874150702565648 0  0.1257241720007671 0.1873281177430377 0  0.1886179801768388 0.187237165606772 0  0.2515509982015372 0.1871404169089382 0  0.3145380577012466 0.1870363902072143 0  0.3775955183846904 0.1869241130171764 0  0.4407417570262426 0.1868033912726886 0  0.5039977880353611 0.1866751661012268 0  0.567388135182109 0.1865419511186291 0  0.6309421550383053 0.1864083040733732 0  0.6946960721805787 0.1862812107827503 0  0.7586957665832117 0.186170123057969 0  0.8229988799838281 0.1860861365764687 0  0.8876691003212661 0.1860391280470379 0  0.9527387865936124 0.1860288782065101 0  1.018084382785696 0.1860119204070146 0  0 0.25 0  0.06295511485572215 0.2498898185533031 0  0.1259264415961679 0.2497767916860566 0  0.1889308818583129 0.2496581118411031 0  0.251986322147342 0.2495311527152288 0  0.3151121616645659 0.2493936224342355 0  0.3783298703106707 0.2492438005312444 0  0.4416635927191733 0.2490808946102274 0  0.5051408142861727 0.2489055554269612 0  0.5687930888157713 0.2487205849129963 0  0.6326567505573227 0.2485318502938812 0  0.6967732701826254 0.2483493600622191 0  0.7611881420267034 0.2481883292272911 0  0.8259452033920913 0.2480697956271438 0  0.8910690046322715 0.248019832043296 0  0.9565214904677933 0.2480656421979223 0  1.022120190526814 0.2482278971695106 0  0 0.3125 0  0.06303825735650273 0.3123674118140012 0  0.1260960388408051 0.3122310698465703 0  0.1891936927490721 0.3120872296548125 0  0.2523528294277028 0.311932276611193 0  0.315596996850217 0.3117628659764615 0  0.3789523917283446 0.3115761691213878 0  0.4424486122984692 0.3113702824494654 0  0.506119440204047 0.3111448740375047 0  0.5700035851367434 0.3109021636793995 0  0.6341451847825899 0.3106483474152797 0  0.6985935126667674 0.3103955686307556 0  0.7634006066778013 0.3101644619404147 0  0.8286141524446239 0.3099870730289466 0  0.8942611148456413 0.3099094785538025 0  0.9603175568369362 0.3099926885005153 0  1.026669647384859 0.3103098388017424 0  0 0.375 0  0.0631019834185879 0.3748487596744466 0  0.1262262427269929 0.3746927990821723 0  0.1893959836585674 0.374527354665634 0  0.2526359542485679 0.374347677711054 0  0.3159732784962367 0.3741491194339468 0  0.3794383496924963 0.3739273320877796 0  0.4430658005719598 0.3736786602084236 0  0.5068955539739144 0.3734008335037575 0  0.5709739177702818 0.3730941269259747 0  0.6353545851653378 0.3727632241494861 0  0.7000991692538527 0.372420094998173 0  0.7652764501550152 0.3720882269065098 0  0.8309588366930533 0.3718084130074731 0  0.8972141023453499 0.3716457732649778 0  0.9640920957392086 0.3716965644641945 0  1.03161408000956 0.3720918663390407 0  0 0.4375 0  0.06314356378432787 0.4373348227780853 0  0.126311455574297 0.4371639581851459 0  0.1895290041205355 0.4369815986749448 0  0.2528233484439278 0.4367817706344905 0  0.3162244319533853 0.436558315526919 0  0.3797660995426526 0.4363049746809582 0  0.4434873476130218 0.4360156581434434 0  0.5074337932861874 0.43568503248772 0  0.5716594519696707 0.4353096516912127 0  0.6362289369038286 0.4348899943958285 0  0.7012202043268054 0.4344339687300572 0  0.766727938509857 0.433962670407348 0  0.8328676204800677 0.43351926944549 0  0.8997805389943507 0.4331814135365709 0  0.9676416828660157 0.4330757469708815 0  1.036679079204613 0.4333899679113334 0  0 0.5 0  0.06316096753375439 0.4998265549189218 0  0.1263474805831375 0.4996465423540311 0  0.1895861159898837 0.4994531786330815 0  0.2529054918363428 0.4992392780260955 0  0.3163374060879249 0.4989970827575369 0  0.3799181300681534 0.4987181547131 0  0.4436899503969868 0.4983933959165404 0  0.5077031143729664 0.4980133268321034 0  0.5720184545051925 0.4975688650250406 0  0.6367111940750496 0.4970530503471045 0  0.7018768297432039 0.4964645134920161 0  0.7676406040630989 0.4958140318268197 0  0.8341729085770085 0.4951361610406068 0  0.9017139169915181 0.4945079596880089 0  0.9706123107969993 0.4940739636857131 0  1.041389469370018 0.4940666608748032 0  0 0.5625 0  0.06315299773366831 0.5623248164197824 0  0.1263318038284357 0.5621423839243596 0  0.1895632449649615 0.5619451336495406 0  0.2528763531612264 0.5617248308057532 0  0.3163036092664691 0.5614722209802742 0  0.3798823844590384 0.5611766658564614 0  0.4436567085731922 0.5608257971991863 0  0.5076795967919553 0.5604052693217368 0  0.5720163893510222 0.5598987986463653 0  0.6367500281779453 0.5592889066930845 0  0.7019901281540861 0.5585592578144117 0  0.7678893966412765 0.5577004449538566 0  0.8346735959661821 0.5567228392247731 0  0.9026943672330403 0.5556823896362451 0  0.9725166513625966 0.5547241016852139 0  1.045057180941294 0.5541310991342182 0  0 0.625 0  0.06311941536829635 0.6248302649877415 0  0.1262638556762247 0.6246529207316925 0  0.1894593084374935 0.624459943593154 0  0.252734035416653 0.6242423950013041 0  0.3161198603688292 0.623989880224584 0  0.3796536741588674 0.6236899032929004 0  0.4433792927502909 0.6233270861059022 0  0.5073499175444346 0.6228822377400809 0  0.5716317224955548 0.6223313177890721 0  0.6363097493987122 0.6216445007502462 0  0.701498811367657 0.6207859915070599 0  0.767365397747881 0.6197164358962415 0  0.8341729161379867 0.6184029230382361 0  0.9023721034471671 0.6168490087839702 0  0.9727656613064504 0.6151669156482482 0  1.046775517239573 0.6136880319357825 0  0 0.6875 0  0.06306103495319464 0.6873432372100079 0  0.1261452163016211 0.6871789391085035 0  0.1892765597434104 0.6869990910347648 0  0.2524813077610096 0.6867945813952986 0  0.3157891899544434 0.6865545086826691 0  0.3792348928096135 0.6862652904672405 0  0.4428598445093783 0.6859094719462688 0  0.5067144936915233 0.6854640991887511 0  0.5708614696771135 0.6848984874347327 0  0.6353806191177931 0.6841712060677151 0  0.7003786552090746 0.6832262332147565 0  0.766010946931482 0.6819889580165298 0  0.832535225689456 0.680365866091466 0  0.9004435999876895 0.6782648169028467 0  0.9707500894092402 0.6757025388121385 0  1.045506129392626 0.6731241878801619 0  0 0.75 0  0.06297977357732296 0.7498636399985625 0  0.1259797267554276 0.7497203330979353 0  0.1890207849194765 0.7495626365158047 0  0.2521259235200771 0.7493819458640193 0  0.3153213288940686 0.7491677280201191 0  0.3786377448695795 0.7489064874316735 0  0.4421120600551607 0.7485803050350295 0  0.505789178393663 0.7481647074066586 0  0.5697242180111859 0.7476254911454377 0  0.6339852405578401 0.7469139099478515 0  0.6986576423913615 0.7459592718476933 0  0.7638554095609047 0.7446574419164147 0  0.82976003789539 0.7428533843808435 0  0.8967625603721622 0.7403198591270482 0  0.9659476137979111 0.73677674081529 0  1.03997911431474 0.7324321449724264 0  0 0.8125 0  0.06287863717772089 0.8123908745556311 0  0.1257734719813104 0.812275930077995 0  0.1887012994068471 0.8121488960400647 0  0.2516806510931199 0.8120024276069592 0  0.3147327869243648 0.8118273738868811 0  0.3778828501388197 0.8116117609119731 0  0.4411612046616588 0.8113393039299985 0  0.5046048833896821 0.8109871557109724 0  0.568258839027047 0.8105224133507997 0  0.6321761413012166 0.8098965825508646 0  0.6964152222588731 0.8090365859311927 0  0.7610312475235295 0.8078295833430991 0  0.8260631756046374 0.8060956579057005 0  0.8915607002849205 0.803534786409855 0  0.9579607596755235 0.7996271152610672 0  1.029137542356267 0.7936132886859231 0  0 0.875 0  0.06276163316108613 0.8749238139527868 0  0.1255346133413095 0.8748434310068357 0  0.1883307122543315 0.8747543097276261 0  0.2511629842079992 0.8746510804235343 0  0.3140465137250556 0.8745269688955296 0  0.3769993072122969 0.8743729786514536 0  0.4400433489959286 0.8741766671199577 0  0.5032057469077548 0.8739202491295188 0  0.5665195841334327 0.8735775869584311 0  0.6300231711090007 0.8731093341157308 0  0.6937537526131734 0.8724549950852091 0  0.7577245404221465 0.8715195944705307 0  0.8218561695503149 0.8701490695345983 0  0.8857999560877654 0.8680717592551018 0  0.9485851558653629 0.864704553618959 0  1.008383214999137 0.8583727311386788 0  0 0.9375 0  0.06263360587973806 0.9374608483524485 0  0.1252730620805663 0.9374194985630387 0  0.1879244442271621 0.9373735661500536 0  0.2505945215998659 0.9373202159777411 0  0.3132911740233713 0.9372558445683351 0  0.3760239095964669 0.9371756231374108 0  0.4388045172008918 0.9370728
[...]
<PointData  Vectors="f_54"> 
<DataArray  type="Float64"  Name="f_54"  NumberOfComponents="3" format="ascii">0.0000000000000000e+00 0.0000000000000000e+00 0.0000000000000000e+00  0.0000000000000000e+00 0.0000000000000000e+00 0.0000000000000000e+00  0.0000000000000000e+00 0.0000000000000000e+00 0.0000000000000000e+00  0.0000000000000000e+00 0.0000000000000000e+00 0.0000000000000000e+00  0.0000000000000000e+00 0.0000000000000000e+00 0.0000000000000000e+00  0.0000000000000000e+00 0.0000000000000000e+00 0.0000000000000000e+00  0.0000000000000000e+00 0.0000000000000000e+00 0.0000000000000000e+00  0.0000000000000000e+00 0.0000000000000000e+00 0.0000000000000000e+00  0.0000000000000000e+00 0.0000000000000000e+00 0.0000000000000000e+00  0.0000000000000000e+00 0.0000000000000000e+00 0.0000000000000000e+00  0.0000000000000000e+00 0.0000000000000000e+00 0.0000000000000000e+00  0.0000000000000000e+00 0.0000000000000000e+00 0.0000000000000000e+00  0.0000000000000000e+00 0.0000000000000000e+00 0.0000000000000000e+00  0.0000000000000000e+00 0.0000000000000000e+00 0.0000000000000000e+00  0.0000000000000000e+00 0.0000000000000000e+00 0.0000000000000000e+00  0.0000000000000000e+00 0.0000000000000000e+00 0.0000000000000000e+00  0.0000000000000000e+00 0.0000000000000000e+00 0.0000000000000000e+00  0.0000000000000000e+00 0.0000000000000000e+00 0.0000000000000000e+00  5.8889630153659263e-07 -1.3540849720155927e-07 0.0000000000000000e+00  1.2220649538044138e-06 -2.7468252450443609e-07 0.0000000000000000e+00  1.9488969163745185e-06 -4.2188609948679228e-07 0.0000000000000000e+00  2.8285123236990491e-06 -5.8125481852523364e-07 0.0000000000000000e+00  3.9360939918380783e-06 -7.5735727652740355e-07 0.0000000000000000e+00  5.3712096696739178e-06 -9.5537758139376135e-07 0.0000000000000000e+00  7.2694375730164698e-06 -1.1816417075360226e-06 0.0000000000000000e+00  9.8196730201753622e-06 -1.4446346591102997e-06 0.0000000000000000e+00  1.3292040700077773e-05 -1.7570420906435497e-06 0.0000000000000000e+00  1.8087862468260284e-05 -2.1400968708405781e-06 0.0000000000000000e+00  2.4841016534451754e-05 -2.6336988172864718e-06 0.0000000000000000e+00  3.4652508174452428e-05 -3.3228266312352870e-06 0.0000000000000000e+00  4.9705200190159642e-05 -4.4152317721148510e-06 0.0000000000000000e+00  7.5065575617027039e-05 -6.4961176225585582e-06 0.0000000000000000e+00  1.2458407219081711e-04 -1.1454128510281995e-05 0.0000000000000000e+00  2.4362493628982945e-04 -2.6428959114793634e-05 0.0000000000000000e+00  0.0000000000000000e+00 0.0000000000000000e+00 0.0000000000000000e+00  1.1354776463320782e-06 -2.6737224943630857e-07 0.0000000000000000e+00  2.3556274170679466e-06 -5.4247615942437178e-07 0.0000000000000000e+00  3.7548816240109310e-06 -8.3341269723560395e-07 0.0000000000000000e+00  5.4463804088017084e-06 -1.1485860529616658e-06 0.0000000000000000e+00  7.5741223520938112e-06 -1.4969764047308414e-06 0.0000000000000000e+00  1.0328819299919846e-05 -1.8886044477367932e-06 0.0000000000000000e+00  1.3969651409308938e-05 -2.3353778867627665e-06 0.0000000000000000e+00  1.8855490316992619e-05 -2.8526721913730581e-06 0.0000000000000000e+00  2.5492055299073815e-05 -3.4622955176160001e-06 0.0000000000000000e+00  3.4607797796924514e-05 -4.1980367404989746e-06 0.0000000000000000e+00  4.7285228665161701e-05 -5.1159576457310710e-06 0.0000000000000000e+00  6.5203664740466711e-05 -6.3127834466563432e-06 0.0000000000000000e+00  9.1101275589107152e-05 -7.9537811184230255e-06 0.0000000000000000e+00  1.2959968642267214e-04 -1.0283085909350581e-05 0.0000000000000000e+00  1.8816874459783495e-04 -1.3399193634758681e-05 0.0000000000000000e+00  2.7467013988711038e-04 -1.5453911525865838e-05 0.0000000000000000e+00  0.0000000000000000e+00 0.0000000000000000e+00 0.0000000000000000e+00  1.5990400642326670e-06 -3.9190520534577732e-07 0.0000000000000000e+00  3.3150941096372080e-06 -7.9535694431146304e-07 0.0000000000000000e+00  5.2785126765146455e-06 -1.2223882444520713e-06 0.0000000000000000e+00  7.6455539024929833e-06 -1.6853942602174341e-06 0.0000000000000000e+00  1.0615161881859340e-05 -2.1974271714604106e-06 0.0000000000000000e+00  1.4450684411337964e-05 -2.7726720871199198e-06 0.0000000000000000e+00  1.9509047906579002e-05 -3.4272946241031057e-06 0.0000000000000000e+00  2.6280832330991211e-05 -4.1809938588421742e-06 0.0000000000000000e+00  3.5446109965723829e-05 -5.0597892013294767e-06 0.0000000000000000e+00  4.7952846485052386e-05 -6.1007345860237904e-06 0.0000000000000000e+00  6.5126047260831722e-05 -7.3590156825854786e-06 0.0000000000000000e+00  8.8810576442100337e-05 -8.9159426739947095e-06 0.0000000000000000e+00  1.2151349145385416e-04 -1.0878793018113726e-05 0.0000000000000000e+00  1.6635520768507083e-04 -1.3341096385462257e-05 0.0000000000000000e+00  2.2611116507350386e-04 -1.6229313176448872e-05 0.0000000000000000e+00  2.9928661542424001e-04 -1.9035951786941023e-05 0.0000000000000000e+00  0.0000000000000000e+00 0.0000000000000000e+00 0.0000000000000000e+00  1.9472176207308422e-06 -5.0509903036885724e-07 0.0000000000000000e+00  4.0323629758154248e-06 -1.0254824239025791e-06 0.0000000000000000e+00  6.4087633577803819e-06 -1.5769789058476633e-06 0.0000000000000000e+00  9.2602649551426557e-06 -2.1757748436459650e-06 0.0000000000000000e+00  1.2821028181405327e-05 -2.8386407622484149e-06 0.0000000000000000e+00  1.7401111171458793e-05 -3.5832432646991843e-06 0.0000000000000000e+00  2.3420448223177987e-05 -4.4286835312212790e-06 0.0000000000000000e+00  3.1454183675787945e-05 -5.3965309216250499e-06 0.0000000000000000e+00  4.2292182772727706e-05 -6.5127900371428867e-06 0.0000000000000000e+00  5.7013697004711466e-05 -7.8113607295639228e-06 0.0000000000000000e+00  7.7071347215405212e-05 -9.3392820933381938e-06 0.0000000000000000e+00  1.0435834229345128e-04 -1.1162454803884104e-05 0.0000000000000000e+00  1.4117906668271896e-04 -1.3365610506923053e-05 0.0000000000000000e+00  1.8991734885520138e-04 -1.6029456150315838e-05 0.0000000000000000e+00  2.5197041807638001e-04 -1.9153720478391118e-05 0.0000000000000000e+00  3.2540664058698459e-04 -2.2498527396687744e-05 0.0000000000000000e+00  0.0000000000000000e+00 0.0000000000000000e+00 0.0000000000000000e+00  2.1593387201670460e-06 -6.0316290680030014e-07 0.0000000000000000e+00  4.4639265739057081e-06 -1.2252647636114899e-06 0.0000000000000000e+00  7.0746818195296163e-06 -1.8858053376126524e-06 0.0000000000000000e+00  1.0184477299284626e-05 -2.6046301978203097e-06 0.0000000000000000e+00  1.4039079373992809e-05 -3.4020340529775798e-06 0.0000000000000000e+00  1.8964507075330360e-05 -4.2987774976608299e-06 0.0000000000000000e+00  2.5403665517844312e-05 -5.3160605967677536e-06 0.0000000000000000e+00  3.3965333084503356e-05 -6.4756163040638876e-06 0.0000000000000000e+00  4.5487980535938177e-05 -7.8003228641625342e-06 0.0000000000000000e+00  6.1118023494473192e-05 -9.3161478179738462e-06 0.0000000000000000e+00  8.2393906744773066e-05 -1.1056857475212522e-05 0.0000000000000000e+00  1.1130814989239111e-04 -1.3073662205077648e-05 0.0000000000000000e+00  1.5028074713270670e-04 -1.5452524254338800e-05 0.0000000000000000e+00  2.0191623068703895e-04 -1.8342108445458117e-05 0.0000000000000000e+00  2.6837577055369123e-04 -2.1997428022295608e-05 0.0000000000000000e+00  3.5037549796402461e-04 -2.6857051512268711e-05 0.0000000000000000e+00  0.0000000000000000e+00 0.0000000000000000e+00 0.0000000000000000e+00  2.2285035216908184e-06 -6.8244177726430017e-07 0.0000000000000000e+00  4.5953163844706971e-06 -1.3873804254483575e-06 0.0000000000000000e+00  7.2527834674700869e-06 -2.1378878454828483e-06 0.0000000000000000e+00  1.0383069487401741e-05 -2.9574588052345269e-06 0.0000000000000000e+00  1.4218128364673832e-05 -3.8700071337214795e-06 0.0000000000000000e+00  1.9066505259452289e-05 -4.8995473471767887e-06 0.0000000000000000e+00  2.5350376606325138e-05 -6.0694403176903720e-06 0.0000000000000000e+00  3.3656983313919240e-05 -7.4011438248081600e-06 0.0000000000000000e+00  4.4808927966743867e-05 -8.9126589123870130e-06 0.0000000000000000e+00  5.9956609388308688e-05 -1.0617570746162730e-05 0.0000000000000000e+00  8.0691261993214006e-05 -1.2527297787741979e-05 0.0000000000000000e+00  1.0916550910631178e-04 -1.4662892992753253e-05 0.0000000000000000e+00  1.4818811821876979e-04 -1.7090047510732440e-05 0.0000000000000000e+00  2.0124037510308666e-04 -2.0003569678399649e-05 0.0000000000000000e+00  2.7239358596774509e-04 -2.3906070236547119e-05 0.0000000000000000e+00  3.6633096621472476e-04 -2.9947868160728711e-05 0.0000000000000000e+00  0.0000000000000000e+00 0.0000000000000000e+00 0.0000000000000000e+00  2.1621153319944919e-06 -7.3943828822821454e-07 0.0000000000000000e+00  4.4423512761134430e-06 -1.5047707144093042e-06 0.0000000000000000e+00  6.9693986918451205e-06 -2.3225302580776963e-06 0.0000000000000000e+00  9.8958993800398244e-06 -3.2199568427850573e-06 0.0000000000000000e+00  1.3415080104909803e-05 -4.2250062432651714e-06 0.0000000000000000e+00  1.7784130333485786e-05 -5.3658130598572249e-06 0.0000000000000000e+00  2.3358386756154862e-05 -6.6692503915024913e-06 0.0000000000000000e+00  3.0642190663114734e-05 -8.1581118278132064e-06 0.0000000000000000e+00  4.0364641035563710e-05 -9.8464482080012500e-06 0.0000000000000000e+00  5.3591015605897497e-05 -1.1733101596132824e-05 0.0000000000000000e+00  7.1882270039376914e-05 -1.3795479045098892e-05 0.0000000000000000e+00  9.7513634192122252e-05 -1.5991377184693777e-05 0.0000000000000000e+00  1.3375730243836992e-04 -1.8290737453034693e-05 0.0000000000000000e+00  1.8523146500121920e-04 -2.0788670629230047e-05 0.0000000000000000e+00  2.5836425569981790e-04 -2.4002865149756375e-05 0.0000000000000000e+00  3.6225448073624449e-04 -2.9536406586976960e-05 0.0000000000000000e+00  0.0000000000000000e+00 0.0000000000000000e+00 0.0000000000000000e+00  1.9807161585500398e-06 -7.7087926356529968e-07 0.0000000000000000e+00  4.0488627952372405e-06 -1.5707250184071952e-06 0.0000000000000000e+00  6.2974326547745194e-06 -2.4293041246810995e-06 0.0000000000000000e+00  8.8339854435353802e-06 -3.3776850938726882e-06 0.0000000000000000e+00  1.1791438846109399e-05 -4.4485004376575547e-06 0.0000000000000000e+00  1.5344523462275036e-05 -5.6755320594237982e-06 0.0000000000000000e+00  1.9736240450653731e-05 -7.0920159186550203e-06 0.0000000000000000e+00  2.5321665573552659e-05 -8.7266328446238632e-06 0.0000000000000000e+00  3.2641412033059074e-05 -1.0595540905876226e-05 0.0000000000000000e+00  4.2544807916128696e-05 -1.2688184078936448e-05 0.0000000000000000e+00  5.6393768593161596e-05 -1.4944835714364971e-05 0.0000000000000000e+00  7.6391057753861773e-05 -1.7227778915706636e-05 0.0000000000000000e+00  1.0608588988547939e-04 -1.9303664755205276e-05 0.0000000000000000e+00  1.5110965292324842e-04 -2.0899917845498607e-05 0.0000000000000000e+00  2.2021271276799852e-04 -2.2001848859880771e-05 0.0000000000000000e+00  3.2689203507446190e-04 -2.3741168375677725e-05 0.0000000000000000e+00  0.0000000000000000e+00 0.0000000000000000e+00 0.0000000000000000e+00  1.7151150431368838e-06 -7.7387315912403702e-07 0.0000000000000000e+00  3.4808071756182613e-06 -1.5791574615783355e-06 0.0000000000000000e+00  5.3472200884599315e-06 -2.4483444945408629e-06 0.0000000000000000e+00  7.3669884911073976e-06 -3.4161657053756977e-06 0.0000000000000000e+00  9.5978981068959183e-06 -4.5204412639059570e-06 0.0000000000000000e+00  1.2108664798131095e-05 -5.8023612106507485e-06 0.0000000000000000e+00  1.4991433858738597e-05 -7.3054867467398610e-06 0.0000000000000000e+00  1.8388346638285666e-05 -9.0720091087326133e-06 0.0000000000000000e+00  2.2546732977552881e-05 -1.1133366846435121e-05 0.0000000000000000e+00  2.7930833737633896e-05 -1.3489703816552069e-05 0.0000000000000000e+00  3.5441133110902016e-05 -1.6068344941608784e-05 0.0000000000000000e+00  4.6828162305069903e-05 -1.8646165040684577e-05 0.0000000000000000e+00  6.5430019189375026e-05 -2.0721392232275397e-05 0.0000000000000000e+00  9.7379287369139177e-05 -2.1356310645979545e-05 0.0000000000000000e+00  1.5336332534957332e-04 -1.9164122555844933e-05 0.0000000000000000e+00  2.5104540828431584e-04 -1.2977078675517366e-05 0.0000000000000000e+00  0.0000000000000000e+00 0.0000000000000000e+00 0.0000000000000000e+00  1.4019930103443074e-06 -7.4619383586127202e-07 0.0000000000000000e+00  2.8170454203123873e-06 -1.5251718897512602e-06 0.0000000000000000e+00  4.2516406955942241e-06 -2.3711670386204579e-06 0.0000000000000000e+00  5.7015835863706245e-06 -3.3218341627769856e-06 0.0000000000000000e+00  7.1450975117111498e-06 -4.4200088652860823e-06 0.0000000000000000e+00  8.5348972594320399e-06 -5.7153536662606335e-06 0.0000000000000000e+00  9.7905678465016954e-06 -7.2653933698891312e-06 0.0000000000000000e+00  1.0795834933683178e-05 -9.1346226247405555e-06 0.0000000000000000e+00  1.1412887845204762e-05 -1.1388471571619451e-05 0.0000000000000000e+00  1.1542762463634312e-05 -1.4074557958851859e-05 0.0000000000000000e+00  1.1296421458629560e-05 -1.7173780570661004e-05 0.0000000000000000e+00  1.1411210033323214e-05 -2.0482212477882295e-05 0.0000000000000000e+00  1.4166329118247020e-05 -2.3342299340713202e-05 0.0000000000000000e+00  2.5179902178512795e-05 -2.4086857384589272e-05 0.0000000000000000e+00  5.6352220168889934e-05 -1.9139507246510804e-05 0.0000000000000000e+00  1.2962334170182411e-04 -2.4499123074176901e-06 0.0000000000000000e+00  0.0000000000000000e+00 0.0000000000000000e+00 0.0000000000000000e+00  1.0784362521458808e-06 -6.8669257328144341e-07 0.0000000000000000e+00  2.1376409668051830e-06 -1.4059420732718823e-06 0.0000000000000000e+00  3.1465826319429474e-06 -2.1921180195404866e-06 0.0000000000000000e+00  4.0516221286496109e-06 -3.0841743229228490e-06 0.0000000000000000e+00  4.7602513695402758e-06 -4.1284624290902077e-06 0.0000000000000000e+00  5.1186015171722296e-06 -5.3821978058934701e-06 0.0000000000000000e+00  4.8802236835365970e-06 -6.9176971300502674e-06 0.0000000000000000e+00  3.6645399078295187e-06 -8.8271131629102121e-06 0.0000000000000000e+00  9.0762310244242664e-07 -1.1226125758018859e-05 0.0000000000000000e+00  -4.1782426219861848e-06 -1.4251246985994251e-05 0.0000000000000000e+00  -1.2580936550165913e-05 -1.8034285058524749e-05 0.0000000000000000e+00  -2.5244758976838054e-05 -2.2604913647859719e-05 0.0000000000000000e+00  -4.2209536185509216e-05 -2.7575814618068964e-05 0.0000000000000000e+00  -6.0252756235796280e-05 -3.1189065988740001e-05 0.0000000000000000e+00  -6.7872635877655940e-05 -2.7735857869920085e-05 0.0000000000000000e+00  -3.9144785295495545e-05 -2.9855959695476296e-06 0.0000000000000000e+00  0.0000000000000000e+00 0.0000000000000000e+00 0.0000000000000000e+00  7.7615819451462233e-07 -5.9578590706494275e-07 0.0000000000000000e+00  1.5112394178144730e-06 -1.2218098283807686e-06 0.0000000000000000e+00  2.1491699101111803e-06 -1.9103443548005015e-06 0.0000000000000000e+00  2.6032692134685013e-06 -2.6990018019625191e-06 0.0000000000000000e+00  2.7330775917794065e-06 -3.6343988679492771e-06 0.0000000000000000e+00  2.3100469056502415e-06 -4.7773077017348941e-06 0.0000000000000000e+00  9.6507969666890353e-07 -6.2102528004564918e-06 0.0000000000000000e+00  -1.8922965325412193e-06 -8.0489946515842034e-06 0.0000000000000000e+00  -7.1968343742251590e-06 -1.0459926964698665e-05 0.0000000000000000e+00  -1.6406269525448426e-05 -1.3685590784449314e-05 0.0000000000000000e+00  -3.1731480461667168e-05 -1.8077800643627240e-05 0.0000000000000000e+00  -5.6328485849439260e-05 -2.4121353755429381e-05 0.0000000000000000e+00  -9.4053630221914777e-05 -3.2351127054193327e-05 0.0000000000000000e+00  -1.4736123418334274e-04 -4.2674261707933636e-05 0.0000000000000000e+00  -2.0883012112445147e-04 -5.0590625935640622e-05 0.0000000000000000e+00  -2.4733430103003552e-04 -3.2114457938014363e-05 0.0000000000000000e+00  0.0000000000000000e+00 0.0000000000000000e+00 0.0000000000000000e+00  5.1643324318052436e-07 -4.7590589512003147e-07 0.0000000000000000e+00  9.8376305933112757e-07 -9.7735183921516421e-07 0.0000000000000000e+00  1.3375780012223434e-06 -1.5318574486504534e-06 0.0000000000000000e+00  1.4810924915747788e-06 -2.1722481085862689e-06 0.0000000000000000e+00  1.2597603189115970e-06 -2.9405654176986413e-06 0.0000000000000000e+00  4.2205721938192804e-07 -3.8939788409091152e-06 0.0000000000000000e+00  -1.4439535554851098e-06 -5.1143009579688552e-06 0.0000000000000000e+00  -5.0161174212674614e-06 -6.7240168167847510e-06 0.0000000000000000e+00  -1.1416889896263877e-05 -8.9143242173899380e-06 0.0000000000000000e+00  -2.2518834812177560e-05 -1.1995952092006445e-05 0.0000000000000000e+00  -4.1462623700639160e-05 -1.6494682241828615e-05 0.0000000000000000e+00  -7.3492754138500637e-05 -2.3337884354463212e-05 0.0000000000000000e+00  -1.2709171615964601e-04 -3.4229544910662701e-05 0.0000000000000000e+00  -2.1453271565832784e-04 -5.2367367533370907e-05 0.0000000000000000e+00  -3.4644099776714532e-04 -8.2931597743222794e-05 0.0000000000000000e+00  -4.7346139198844306e-04 -1.1477453383130742e-04 0.0000000000000000e+00  0.0000000000000000e+00 0.0000000000000000e+00 0.0000000000000000e+00  3.0685190993344848e-07 -3.3175904852042640e-07 0.0000000000000000e+00  5.7096294652093306e-07 -6.8205261423438784e-07 0.0000000000000000e+00  7.3714053715052176e-07 -1.0709928741328499e-06 0.0000000000000000e+00  7.2328894929777842e-07 -1.5229728891312671e-06 0.0000000000000000e+00  3.9881680668116381e-07 -2.0699580644875344e-06 0.0000000000000000e+00  -4.4964468802299685e-07 -2.7566615251014876e-06 0.0000000000000000e+00  -2.1757173280935081e-06 -3.6492346479084671e-06 0.0000000000000000e+00  -5.3735650230679511e-06 -4.8505875418452103e-06 0.0000000000000000e+00  -1.1059338942834932e-05 -6.5285444915282351e-06 0.0000000000000000e+00  -2.1011459420643461e-05 -8.9697383607549699e-06 0.0000000000000000e+00  -3.8430795953914950e-05 -1.2687613528739339e-05 0.0000000000000000e+00  -6.9252639532353026e-05 -1.8652630232340020e-05 0.0000000000000000e+00  -1.2474213234913125e-04 -2.8834610402887136e-05 0.0000000000000000e+00  -2.2626433078231739e-04 -4.7721938704092890e-05 0.0000000000000000e+00  -4.1233893549408269e-04 -8.7788229774708328e-05 0.0000000000000000e+00  -7.4883022316732644e-04 -1.9350146433758184e-04 0.0000000000000000e+00  0.0000000000000000e+00 0.0000000000000000e+00 0.0000000000000000e+00  1.4079777421625878e-07 -1.7025007165250902e-07 0.0000000000000000e+00  2.5699821688339075e-07 -3.5022658437658961e-07 0.0000000000000000e+00  3.1706995573521440e-07 -5.5052465111171318e-07 0.0000000000000000e+00  2.7433287797116123e-07 -7.8411301992288765e-07 0.0000000000000000e+00  5.4662499258854301e-08 -1.0681956317140099e-06 0.0000000000000000e+00  -4.6329939052745793e-07 -1.4271877397933101e-06 0.0000000000000000e+00  -1.4819359444547740e-06 -1.8977896952880414e-06 0.0000000000000000e+00  -3.3451262196564250e-06 -2.5380326327255056e-06 0.0000000000000000e+00  -6.6516389481146995e-06 -3.4439403025576505e-06 0.0000000000000000e+00  -1.2479137990424829e-05 -4.7808264468750812e-06 0.0000000000000000e+00  -2.2853482615769325e-05 -6.8417172314472643e-06 0.0000000000000000e+00  -4.1793762408397012e-05 -1.0148138619626701e-05 0.0000000000000000e+00  -7.7742969417853055e-05 -1.5566158361610968e-05 0.0000000000000000e+00  -1.4895999661898137e-04 -2.4073542315699409e-05 0.0000000000000000e+00  -2.9040397289000082e-04 -3.4241794485147104e-05 0.0000000000000000e+00  -5.2666317205666668e-04 -3.4652353233542527e-05 0.0000000000000000e+00  0.0000000000000000e+00 0.0000000000000000e+00 0.0000000000000000e+00  0.0000000000000000e+00 0.0000000000000000e+00 0.0000000000000000e+00  0.0000000000000000e+00 0.0000000000000000e+00 0.0000000000000000e+00  0.0000000000000000e+00 0.0000000000000000e+00 0.0000000000000000e+00  0.0000000000000000e+00 0.0000000000000000e+00 0.0000000000000000e+00  0.0000000000000000e+00 0.0000000000000000e+00 0.0000000000000000e+00  0.0000000000000000e+00 0.0000000000000000e+00 0.0000000000000000e+00  0.0000000000000000e+00 0.0000000000000000e+00 0.0000000000000000e+00  0.00