<?xml version="1.0"?>
<VTKFile type="UnstructuredGrid"  version="0.1"  >
<UnstructuredGrid>
<Piece  NumberOfPoints="289" NumberOfCells="512">
<Points>
<DataArray  type="Float64"  NumberOfComponents="3"  format="ascii">0 0 0  0.0625 0 0  0.125 0 0  0.1875 0 0  0.25 0 0  0.3125 0 0  0.375 0 0  0.4375 0 0  0.5 0 0  0.5625 0 0  0.625 0 0  0.6875 0 0  0.75 0 0  0.8125 0 0  0.875 0 0  0.9375 0 0  1 0 0  0 0.0625 0  0.06254464015443144 0.06247326426377961 0  0.1250915565502619 0.06244603719037269 0  0.187643186688877 0.06241785902261614 0  0.2502023068427837 0.06238836115643442 0  0.3127722454918083 0.06235732436840476 0  0.3753571597639563 0.06232475043117994 0  0.4379624209236995 0.06229094606228893 0  0.5005951967680687 0.06225660983105601 0  0.5632654183314879 0.06222289643927358 0  0.6259875682396885 0.06219140147861722 0  0.6887843931493823 0.06216394613765987 0  0.751695524234161 0.06214189395320444 0  0.8147996508274046 0.06212431810106471 0  0.8782769811055238 0.06210294400311589 0  0.942600508718389 0.06204647071583424 0  1.009181991601663 0.06184512483015447 0  0 0.125 0  0.06258698813733052 0.1249469923849626 0  0.1251783906317498 0.1248929550669438 0  0.1877789360794506 0.1248369168653189 0  0.2503940157393956 0.1247780786921693 0  0.3130301006124334 0.1247159274128781 0  0.375695277834266 0.1246503810998338 0  0.438399984022967 0.1245819680804046 0  0.5011580696451332 0.1245120291361842 0  0.563988448571944 0.1244429067014771 0  0.6269178471359315 0.1243780388834782 0  0.6899857269022086 0.1243218008478956 0  0.7532535974623478 0.1242788366133753 0  0.8168228855399069 0.124252597364357 0  0.8808668135852509 0.1242434238141316 0  0.9456700781815071 0.1242506844532754 0  1.01157854203744 0.1243047543755397 0  0 0.1875 0  0.06262493411186566 0.1874217346239559 0  0.1252561282501596 0.1873418163581648 0  0.1879002849708768 0.1872586678246108 0  0.2505650445760078 0.1871709420233104 0  0.3132595727700079 0.1870776838755566 0  0.3759953076824343 0.1869785479705023 0  0.4387869531889037 0.1868740857941726 0  0.5016538445686296 0.1867661036438802 0  0.5646218764798864 0.1866580657661764 0  0.6277262775598963 0.1865554649942609 0  0.6910156076480842 0.1864659895153108 0  0.7545572275426218 0.1863991565953266 0  0.8184432659741977 0.186364810345454 0  0.8827908989947775 0.18636924638741 0  0.9477142575649954 0.1864053124916544 0  1.013208624102186 0.1864208676586479 0  0 0.25 0  0.06265667094549435 0.2498981245223989 0  0.1253210235650446 0.2497938621976569 0  0.1880012723895883 0.2496849024450375 0  0.2507067687897607 0.2495691853564767 0  0.3134487123391581 0.2494450938020955 0  0.3762410490227593 0.2493117320596139 0  0.4391016422255423 0.2491693233724798 0  0.5020538153954023 0.2490197551894565 0  0.5651283605375089 0.2488672843250581 0  0.6283660382319818 0.2487193709628853 0  0.6918203384871739 0.2485875165944305 0  0.7555595131466333 0.2484877980031673 0  0.819664920210031 0.2484404563598657 0  0.8842183035472687 0.2484673410143798 0  0.9492631617195505 0.2485853441311441 0  1.014721643772503 0.2487953206460744 0  0 0.3125 0  0.06268081290560339 0.312376903224371 0  0.1253702094655505 0.3122505681316229 0  0.1880773489773476 0.3121178105480712 0  0.2508126302652286 0.3119756622344458 0  0.313588472159305 0.311821563547725 0  0.3764203046170633 0.3116536727499253 0  0.4393278630213401 0.3114713496498357 0  0.5023368813060221 0.3112758844010854 0  0.5654812462101938 0.3110715503679325 0  0.6288055441257178 0.3108670484381568 0  0.6923675778263343 0.3106773483596525 0  0.7562396272218367 0.3105257628831764 0  0.8205056807346012 0.3104457210740124 0  0.885249576163622 0.310481044483355 0  0.9505277207430215 0.3106826471324739 0  1.016326805742299 0.3110990591026788 0  0 0.375 0  0.06269647764444668 0.3748589244886495 0  0.1254018716206727 0.3747136618520257 0  0.1881256628345961 0.3745600286418865 0  0.2508785621391036 0.3743939524178983 0  0.3136732971150093 0.3742116204621875 0  0.3765256326152611 0.3740097649572901 0  0.4394557417376845 0.3737861678973935 0  0.5024900668059999 0.3735405061180127 0  0.5656638095573691 0.3732757050678868 0  0.6290241155674123 0.3730000203468535 0  0.6926337718412845 0.3727300872863878 0  0.7565746700204239 0.3724950903753467 0  0.8209492946008049 0.3723418396065266 0  0.8858774012988853 0.3723396457133615 0  0.9514855919527917 0.3725822930008078 0  1.017894064402087 0.3731825208422536 0  0 0.4375 0  0.06270332532918445 0.4373451330283719 0  0.1254153339592297 0.4371850862008702 0  0.1881452060016229 0.4370146025505885 0  0.25090321850379 0.4368283534836923 0  0.3137014636065422 0.4366209872379923 0  0.3765548133167281 0.4363873103674818 0  0.4394822843584211 0.4361227015429799 0  0.5025090284668911 0.4358239202447275 0  0.5656692674277992 0.4354905724158172 0  0.6290105885356604 0.4351276400457311 0  0.692600053512119 0.4347496621507534 0  0.756532421654096 0.4343872936455316 0  0.820940272249521 0.4340968173114041 0  0.8860049915675211 0.4339721864699502 0  0.9519676892425697 0.4341565886253019 0  1.019144270809955 0.4348465634505828 0  0 0.5 0  0.06270155111617197 0.499836510335703 0  0.1254110474193464 0.4996668931688747 0  0.1881368089867851 0.4994848368225221 0  0.2508879951742457 0.4992837044831052 0  0.3136751667730921 0.4990564230538757 0  0.3765110758587902 0.4987954662714299 0  0.4394118658368032 0.4984930253185385 0  0.5023990000844709 0.4981415414751147 0  0.5655024698686536 0.4977349217100285 0  0.6287662038347418 0.4972710136126344 0  0.6922571313833638 0.4967563364706939 0  0.7560799463841154 0.4962146703734566 0  0.8203998981128892 0.4957016900748884 0  0.8854751824113313 0.4953274621220626 0  0.951698759273929 0.4952849572490357 0  1.019652332634937 0.4958731065171968 0  0 0.5625 0  0.0626918291507966 0.5623339861552277 0  0.1253904760876035 0.5621610623640466 0  0.1881029685586828 0.5619740130712229 0  0.2508368095262329 0.5617649998158928 0  0.3136002936335718 0.5615252432092852 0  0.3764029758302292 0.5612447197629244 0  0.4392564645661858 0.5609119277884695 0  0.5021758972516791 0.5605138531593317 0  0.5651828257780011 0.560036425044974 0  0.6283109477158375 0.559466080692686 0  0.6916173818717201 0.5587937267983114 0  0.7552041752467943 0.558023685117265 0  0.8192570973519148 0.5571924508314507 0  0.8841095542875742 0.5564046969913923 0  0.9503346357106907 0.5558922355442016 0  1.018860164879071 0.5560840062486697 0  0 0.625 0  0.06267520968465795 0.6248383204364876 0  0.1253558804918787 0.6246692515372192 0  0.1880474980254982 0.6244849823078511 0  0.2507555993525 0.6242767843168374 0  0.3134857755241919 0.6240344705949725 0  0.376243681350821 0.6237457572300713 0  0.4390351453265109 0.6233955080935075 0  0.5018666496727668 0.6229648801125092 0  0.5647468727909208 0.6224304904879936 0  0.627690949510323 0.6217640031402646 0  0.6907311892554328 0.6209332487676047 0  0.75394216771369 0.6199078371411343 0  0.8174953137963089 0.6186768097759686 0  0.8817663723097752 0.617295929599617 0  0.9475152743136837 0.6159946233458587 0  1.016129204246989 0.6153465105646407 0  0 0.6875 0  0.06265297726582911 0.6873499691073727 0  0.1253100112925282 0.6871925058253259 0  0.1879750104201237 0.6870196702884014 0  0.2506515274233037 0.6868223762739648 0  0.3133424342322403 0.6865896587537886 0  0.3760494066312534 0.6863077237827573 0  0.4387721548502846 0.6859586673866978 0  0.5015074079534141 0.6855187156763709 0  0.5642479383400338 0.6849558090644137 0  0.6269827768053334 0.6842263834817262 0  0.6897021897355595 0.6832714979355254 0  0.7524173024485877 0.6820137941303182 0  0.8152193819985264 0.6803620343782557 0  0.8784340184307875 0.678249596645273 0  0.9429483745114573 0.6757969325179326 0  1.010688355973254 0.6737285137239994 0  0 0.75 0  0.06262648727729798 0.7498689553804687 0  0.1252557487255515 0.749730972191361 0  0.1878902873259671 0.7495785731686051 0  0.2505319528508309 0.7494030347697677 0  0.3131813574336625 0.7491935493968755 0  0.3758369077211521 0.7489360782138426 0  0.4384931927838698 0.7486116993846957 0  0.5011383399174822 0.7481941465428197 0  0.563749834155499 0.7476460426730925 0  0.6262884333581923 0.7469130037776899 0  0.6886911200752238 0.7459142189880847 0  0.7508696719029857 0.7445272982320925 0  0.8127416554339589 0.7425652327909237 0  0.8743871941526405 0.7397536508543296 0  0.9366144029698685 0.735806454423646 0  1.001890784020294 0.7314038929892809 0  0 0.8125 0  0.06259700801687884 0.8123947736502538 0  0.1251957486273163 0.8122836794027601 0  0.1877976408043486 0.8121603508196543 0  0.250403341664022 0.812017249879509 0  0.3130120564306549 0.8118448531274682 0  0.3756203577133875 0.8116305006294996 0  0.4382201047771551 0.8113566786454497 0  0.500794717611149 0.8109983591235275 0  0.5633124347918079 0.8105187458509147 0  0.6257140815935799 0.8098622387319904 0  0.6878912351670068 0.8089422554996315 0  0.749649693887935 0.8076186889496396 0  0.8106607877603859 0.805652211129277 0  0.8704602080142176 0.8026028588799172 0  0.928887527538965 0.7975996858042529 0  0.9901202301018248 0.7889542331170893 0  0 0.875 0  0.06256560142482662 0.8749263524555142 0  0.1251321731332024 0.8748484445165511 0  0.1877004192709163 0.8747616317688133 0  0.2502703930982565 0.8746603583150246 0  0.3128409005375485 0.8745375107842972 0  0.3754084574387963 0.8743834879805498 0  0.4379653879992137 0.8741847888492132 0  0.500496242163495 0.8739217954964605 0  0.5629708194097496 0.8735652099488205 0  0.625330098177113 0.8730702194591949 0  0.6874568508143227 0.8723667193959305 0  0.7491124970573205 0.8713420171312733 0  0.8097997858554431 0.8698053765484764 0  0.8684711316123431 0.8673917811025194 0  0.922968055262108 0.8632191968317742 0  0.9692417902928774 0.8545529011423246 0  0 0.9375 0  0.06253307223529532 0.9374620948754693 0  0.1250665789610256 0.9374219497118308 0  0.187600807262991 0.9373771158802409 0  0.2501356823705514 0.9373246468976959 0  0.3126704351659673 0.937260741864242 0  0.3752030160761773 0.9371802274766645 0  0.4377290100302009 0.93707576696
[...]
<PointData  Vectors="f_54"> 
<DataArray  type="Float64"  Name="f_54"  NumberOfComponents="3" format="ascii">0.0000000000000000e+00 0.0000000000000000e+00 0.0000000000000000e+00  0.0000000000000000e+00 0.0000000000000000e+00 0.0000000000000000e+00  0.0000000000000000e+00 0.0000000000000000e+00 0.0000000000000000e+00  0.0000000000000000e+00 0.0000000000000000e+00 0.0000000000000000e+00  0.0000000000000000e+00 0.0000000000000000e+00 0.0000000000000000e+00  0.0000000000000000e+00 0.0000000000000000e+00 0.0000000000000000e+00  0.0000000000000000e+00 0.0000000000000000e+00 0.0000000000000000e+00  0.0000000000000000e+00 0.0000000000000000e+00 0.0000000000000000e+00  0.0000000000000000e+00 0.0000000000000000e+00 0.0000000000000000e+00  0.0000000000000000e+00 0.0000000000000000e+00 0.0000000000000000e+00  0.0000000000000000e+00 0.0000000000000000e+00 0.0000000000000000e+00  0.0000000000000000e+00 0.0000000000000000e+00 0.0000000000000000e+00  0.0000000000000000e+00 0.0000000000000000e+00 0.0000000000000000e+00  0.0000000000000000e+00 0.0000000000000000e+00 0.0000000000000000e+00  0.0000000000000000e+00 0.0000000000000000e+00 0.0000000000000000e+00  0.0000000000000000e+00 0.0000000000000000e+00 0.0000000000000000e+00  0.0000000000000000e+00 0.0000000000000000e+00 0.0000000000000000e+00  0.0000000000000000e+00 0.0000000000000000e+00 0.0000000000000000e+00  -4.4855875118469813e-06 -2.6278488680086861e-07 0.0000000000000000e+00  -9.0942214519287599e-06 -5.2676105542004761e-07 0.0000000000000000e+00  -1.3951572563724766e-05 -7.9235587808556871e-07 0.0000000000000000e+00  -1.9180645231243600e-05 -1.0579225714776420e-06 0.0000000000000000e+00  -2.4899192042206156e-05 -1.3184609361633972e-06 0.0000000000000000e+00  -3.1215376259781414e-05 -1.5640715463762684e-06 0.0000000000000000e+00  -3.8221130630324326e-05 -1.7781240745358549e-06 0.0000000000000000e+00  -4.5982877531591508e-05 -1.9352002054344689e-06 0.0000000000000000e+00  -5.4529987180041311e-05 -1.9989551173487234e-06 0.0000000000000000e+00  -6.3843475244042394e-05 -1.9199776764511430e-06 0.0000000000000000e+00  -7.3853867030970226e-05 -1.6329248141044304e-06 0.0000000000000000e+00  -8.4477649569581552e-05 -1.0484994864519239e-06 0.0000000000000000e+00  -9.5791424082804577e-05 -2.1262791948688928e-08 0.0000000000000000e+00  -1.0869715517775779e-04 1.7823052557857075e-06 0.0000000000000000e+00  -1.2745906855795197e-04 5.4261376660097287e-06 0.0000000000000000e+00  -1.7067301701860268e-04 1.5174075991033908e-05 0.0000000000000000e+00  0.0000000000000000e+00 0.0000000000000000e+00 0.0000000000000000e+00  -8.8507779998878476e-06 -5.2452014471183572e-07 0.0000000000000000e+00  -1.7949802688515127e-05 -1.0524347315661439e-06 0.0000000000000000e+00  -2.7550858043686225e-05 -1.5856961666482786e-06 0.0000000000000000e+00  -3.7903789292564453e-05 -2.1222876077676834e-06 0.0000000000000000e+00  -4.9250061333617334e-05 -2.6537139395437528e-06 0.0000000000000000e+00  -6.1814785275994324e-05 -3.1618917575874087e-06 0.0000000000000000e+00  -7.5793922493228071e-05 -3.6153568143508791e-06 0.0000000000000000e+00  -9.1335467746164764e-05 -3.9648855947361919e-06 0.0000000000000000e+00  -1.0851388321804484e-04 -4.1389358226912340e-06 0.0000000000000000e+00  -1.2729835433883567e-04 -4.0397651303481002e-06 0.0000000000000000e+00  -1.4751836018298545e-04 -3.5416405120483720e-06 0.0000000000000000e+00  -1.6883530491825841e-04 -2.4932264467098078e-06 0.0000000000000000e+00  -1.9073223500343386e-04 -7.2867718419023845e-07 0.0000000000000000e+00  -2.1249349946328243e-04 1.8906371443424527e-06 0.0000000000000000e+00  -2.3279621127209185e-04 5.2676334870968593e-06 0.0000000000000000e+00  -2.4624039535292667e-04 7.8582171711956876e-06 0.0000000000000000e+00  0.0000000000000000e+00 0.0000000000000000e+00 0.0000000000000000e+00  -1.2966725603048662e-05 -7.8275792063723673e-07 0.0000000000000000e+00  -2.6309611398753665e-05 -1.5730178442499801e-06 0.0000000000000000e+00  -4.0413716078885357e-05 -2.3763489474898504e-06 0.0000000000000000e+00  -5.5661418651074306e-05 -3.1928642836028063e-06 0.0000000000000000e+00  -7.2427495822538981e-05 -4.0136308253365291e-06 0.0000000000000000e+00  -9.1068951367700795e-05 -4.8160339519991196e-06 0.0000000000000000e+00  -1.1190739665122613e-04 -5.5578485439637583e-06 0.0000000000000000e+00  -1.3520146464174649e-04 -6.1699961833003312e-06 0.0000000000000000e+00  -1.6110638950442323e-04 -6.5484786892759466e-06 0.0000000000000000e+00  -1.8961723106155853e-04 -6.5470171057809575e-06 0.0000000000000000e+00  -2.2049001898271199e-04 -5.9739472656594045e-06 0.0000000000000000e+00  -2.5312681614447221e-04 -4.6009279214229390e-06 0.0000000000000000e+00  -2.8638166648685756e-04 -2.1995840838449226e-06 0.0000000000000000e+00  -3.1815134213677884e-04 1.3582533505735253e-06 0.0000000000000000e+00  -3.4435305696756000e-04 5.8628592975863961e-06 0.0000000000000000e+00  -3.5637056556104700e-04 1.0329363245737958e-05 0.0000000000000000e+00  0.0000000000000000e+00 0.0000000000000000e+00 0.0000000000000000e+00  -1.6702613170228161e-05 -1.0331605336638962e-06 0.0000000000000000e+00  -3.3911303886165439e-05 -2.0805155866787841e-06 0.0000000000000000e+00  -5.2144999074484019e-05 -3.1541372814480051e-06 0.0000000000000000e+00  -7.1924775882757224e-05 -4.2598412446503379e-06 0.0000000000000000e+00  -9.3770504479587341e-05 -5.3928225370702675e-06 0.0000000000000000e+00  -1.1819082031917459e-04 -6.5316918553374574e-06 0.0000000000000000e+00  -1.4566330327215227e-04 -7.6303364546946338e-06 0.0000000000000000e+00  -1.7660094471424537e-04 -8.6071553181092895e-06 0.0000000000000000e+00  -2.1129989076131502e-04 -9.3316810824266079e-06 0.0000000000000000e+00  -2.4986162242747603e-04 -9.6098034810860409e-06 0.0000000000000000e+00  -2.9207877514874297e-04 -9.1715000966749520e-06 0.0000000000000000e+00  -3.3726403250177941e-04 -7.6704860603076385e-06 0.0000000000000000e+00  -3.8397813943910522e-04 -4.7156281298737705e-06 0.0000000000000000e+00  -4.2956600317424899e-04 2.8390899870622868e-08 0.0000000000000000e+00  -4.6935610899124537e-04 6.6118292561037279e-06 0.0000000000000000e+00  -4.9550874228732782e-04 1.4384964931962657e-05 0.0000000000000000e+00  0.0000000000000000e+00 0.0000000000000000e+00 0.0000000000000000e+00  -1.9926804503143156e-05 -1.2688511687492383e-06 0.0000000000000000e+00  -4.0489124385710694e-05 -2.5615084783004273e-06 0.0000000000000000e+00  -6.2339961359111879e-05 -3.8998840353449537e-06 0.0000000000000000e+00  -8.6143672097929846e-05 -5.2998327715685209e-06 0.0000000000000000e+00  -1.1257682798677363e-04 -6.7665508194704007e-06 0.0000000000000000e+00  -1.4232157949188747e-04 -8.2877971660446147e-06 0.0000000000000000e+00  -1.7604763179718388e-04 -9.8238779914528064e-06 0.0000000000000000e+00  -2.1437768020471135e-04 -1.1293135864631210e-05 0.0000000000000000e+00  -2.5782956030014569e-04 -1.2551687332342569e-05 0.0000000000000000e+00  -3.0672632416101119e-04 -1.3366792806809316e-05 0.0000000000000000e+00  -3.6106253706047025e-04 -1.3385456272570737e-05 0.0000000000000000e+00  -4.2031029179424113e-04 -1.2105381449646174e-05 0.0000000000000000e+00  -4.8314070493035065e-04 -8.8669039993334298e-06 0.0000000000000000e+00  -5.4703014771410722e-04 -2.9043192816961296e-06 0.0000000000000000e+00  -6.0774526837753767e-04 6.4800288039736095e-06 0.0000000000000000e+00  -6.5885704403605247e-04 1.9545764964590712e-05 0.0000000000000000e+00  0.0000000000000000e+00 0.0000000000000000e+00 0.0000000000000000e+00  -2.2509693138068654e-05 -1.4801185895630489e-06 0.0000000000000000e+00  -4.5779224228254545e-05 -2.9964190749637005e-06 0.0000000000000000e+00  -7.0591254275533113e-05 -4.5839292974622006e-06 0.0000000000000000e+00  -9.7753761591476892e-05 -6.2731065236433005e-06 0.0000000000000000e+00  -1.2810819086885410e-04 -8.0858096562241927e-06 0.0000000000000000e+00  -1.6253021306649414e-04 -1.0028689194975928e-05 0.0000000000000000e+00  -2.0191870608019438e-04 -1.2082402696867342e-05 0.0000000000000000e+00  -2.4716679595236977e-04 -1.4184335580434055e-05 0.0000000000000000e+00  -2.9910667804621406e-04 -1.6201578098604441e-05 0.0000000000000000e+00  -3.5841783756838637e-04 -1.7890043158610444e-05 0.0000000000000000e+00  -4.2548705761174177e-04 -1.8835689150769090e-05 0.0000000000000000e+00  -5.0020987697306019e-04 -1.8377058387504901e-05 0.0000000000000000e+00  -5.8172986748954115e-04 -1.5519163870932427e-05 0.0000000000000000e+00  -6.6812980846411060e-04 -8.8731632573399042e-06 0.0000000000000000e+00  -7.5612975981804997e-04 3.3044648434471448e-06 0.0000000000000000e+00  -8.4093379913641468e-04 2.2864101058896833e-05 0.0000000000000000e+00  0.0000000000000000e+00 0.0000000000000000e+00 0.0000000000000000e+00  -2.4328550151528573e-05 -1.6546111819927732e-06 0.0000000000000000e+00  -4.9529196527228810e-05 -3.3597791462043890e-06 0.0000000000000000e+00  -7.6502781320763019e-05 -5.1661873602363439e-06 0.0000000000000000e+00  -1.0619393486935866e-04 -7.1228743639424227e-06 0.0000000000000000e+00  -1.3960970072326585e-04 -9.2748279184797666e-06 0.0000000000000000e+00  -1.7783216674563390e-04 -1.1658036186307805e-05 0.0000000000000000e+00  -2.2202063678934954e-04 -1.4290055972837920e-05 0.0000000000000000e+00  -2.7339644393833593e-04 -1.7152830596281588e-05 0.0000000000000000e+00  -3.3320044288356811e-04 -2.0162308538747344e-05 0.0000000000000000e+00  -4.0261021915595138e-04 -2.3116089075812339e-05 0.0000000000000000e+00  -4.8260314856498520e-04 -2.5605992290143032e-05 0.0000000000000000e+00  -5.7375712733869161e-04 -2.6878945602949230e-05 0.0000000000000000e+00  -6.7600069325092439e-04 -2.5633099088237713e-05 0.0000000000000000e+00  -7.8836599696499544e-04 -1.9759909527761166e-05 0.0000000000000000e+00  -9.0885671332909381e-04 -6.1000183304444410e-06 0.0000000000000000e+00  -1.0345847596836429e-03 1.9655255661805756e-05 0.0000000000000000e+00  0.0000000000000000e+00 0.0000000000000000e+00 0.0000000000000000e+00  -2.5274452236417567e-05 -1.7781295867440233e-06 0.0000000000000000e+00  -5.1512093313482061e-05 -3.6217653096000276e-06 0.0000000000000000e+00  -7.9711073285655901e-05 -5.5982796442719532e-06 0.0000000000000000e+00  -1.1093521255587838e-04 -7.7776442262329137e-06 0.0000000000000000e+00  -1.4634595718013903e-04 -1.0232759316685211e-05 0.0000000000000000e+00  -1.8723139489095118e-04 -1.3037981348653267e-05 0.0000000000000000e+00  -2.3502848023508480e-04 -1.6264049062045932e-05 0.0000000000000000e+00  -2.9133139746627076e-04 -1.9965909554473310e-05 0.0000000000000000e+00  -3.5787434507596758e-04 -2.4156682105464743e-05 0.0000000000000000e+00  -4.3647142244075275e-04 -2.8754889449598964e-05 0.0000000000000000e+00  -5.2889233338081231e-04 -3.3481271860007562e-05 0.0000000000000000e+00  -6.3665799789912184e-04 -3.7664578619521847e-05 0.0000000000000000e+00  -7.6077186714168434e-04 -3.9896567639376806e-05 0.0000000000000000e+00  -9.0148533757529741e-04 -3.7476530728520632e-05 0.0000000000000000e+00  -1.0583282913835829e-03 -2.5651289330816239e-05 0.0000000000000000e+00  -1.2307094411757949e-03 3.2256772890154719e-06 0.0000000000000000e+00  0.0000000000000000e+00 0.0000000000000000e+00 0.0000000000000000e+00  -2.5261065360850678e-05 -1.8360539016766023e-06 0.0000000000000000e+00  -5.1544580236294721e-05 -3.7511318709237989e-06 0.0000000000000000e+00  -7.9913928005852439e-05 -5.8280996871041888e-06 0.0000000000000000e+00  -1.1152132235501676e-04 -8.1574835436351811e-06 0.0000000000000000e+00  -1.4765498944255558e-04 -1.0841399758352653e-05 0.0000000000000000e+00  -1.8978841494896842e-04 -1.3997211047875899e-05 0.0000000000000000e+00  -2.3962954365837802e-04 -1.7759980008575539e-05 0.0000000000000000e+00  -2.9916401097696021e-04 -2.2281337951010955e-05 0.0000000000000000e+00  -3.7067989286279981e-04 -2.7719078738405881e-05 0.0000000000000000e+00  -4.5675127113091408e-04 -3.4204293921244534e-05 0.0000000000000000e+00  -5.6014537535603657e-04 -4.1756217641565358e-05 0.0000000000000000e+00  -6.8361211230052652e-04 -5.0079763113060372e-05 0.0000000000000000e+00  -8.2954582718710603e-04 -5.8114951855526520e-05 0.0000000000000000e+00  -9.9965021494956741e-04 -6.3120657368015090e-05 0.0000000000000000e+00  -1.1950774208687555e-03 -5.9080854699936290e-05 0.0000000000000000e+00  -1.4179776484981080e-03 -3.4492501670005323e-05 0.0000000000000000e+00  0.0000000000000000e+00 0.0000000000000000e+00 0.0000000000000000e+00  -2.4234675872970077e-05 -1.8153158559451800e-06 0.0000000000000000e+00  -4.9508093869976924e-05 -3.7194016476810556e-06 0.0000000000000000e+00  -7.6904833093307306e-05 -5.8067266543125240e-06 0.0000000000000000e+00  -1.0761948574476355e-04 -8.1844113855793291e-06 0.0000000000000000e+00  -1.4301917809165528e-04 -1.0979987146856071e-05 0.0000000000000000e+00  -1.8471508529115083e-04 -1.4350955695436258e-05 0.0000000000000000e+00  -2.3464419944654665e-04 -1.8496782224189356e-05 0.0000000000000000e+00  -2.9515913110998585e-04 -2.3673612017053446e-05 0.0000000000000000e+00  -3.6911598429713777e-04 -3.0210540647176836e-05 0.0000000000000000e+00  -4.5993491555540184e-04 -3.8521316876711488e-05 0.0000000000000000e+00  -5.7158105242030414e-04 -4.9090007771797867e-05 0.0000000000000000e+00  -7.0837690490272668e-04 -6.2364128716352221e-05 0.0000000000000000e+00  -8.7454410347224054e-04 -7.8365210934918918e-05 0.0000000000000000e+00  -1.0735287815915274e-03 -9.5536760477460208e-05 0.0000000000000000e+00  -1.3078506409886163e-03 -1.0798452041770477e-04 0.0000000000000000e+00  -1.5810004250854312e-03 -1.0079823984580216e-04 0.0000000000000000e+00  0.0000000000000000e+00 0.0000000000000000e+00 0.0000000000000000e+00  -2.2184424252450841e-05 -1.7066666966625767e-06 0.0000000000000000e+00  -4.5370928110210817e-05 -3.5058096526548884e-06 0.0000000000000000e+00  -7.0610147773806622e-05 -5.4969295416002526e-06 0.0000000000000000e+00  -9.9077716717804775e-05 -7.7959818954964956e-06 0.0000000000000000e+00  -1.3214949447664523e-04 -1.0546261309784014e-05 0.0000000000000000e+00  -1.7149392733535813e-04 -1.3933092190557392e-05 0.0000000000000000e+00  -2.1918803539655148e-04 -1.8204718900872473e-05 0.0000000000000000e+00  -2.7786228474482503e-04 -2.3703137941799994e-05 0.0000000000000000e+00  -3.5087377327283267e-04 -3.0910775675296618e-05 0.0000000000000000e+00  -4.4249015028396455e-04 -4.0521647546611249e-05 0.0000000000000000e+00  -5.5802568552660377e-04 -5.3545645420511351e-05 0.0000000000000000e+00  -7.0378582935523126e-04 -7.1434643474034453e-05 0.0000000000000000e+00  -8.8653763487778279e-04 -9.6104538461013855e-05 0.0000000000000000e+00  -1.1121735303162882e-03 -1.2922141410652278e-04 0.0000000000000000e+00  -1.3845217412852193e-03 -1.6832444321279833e-04 0.0000000000000000e+00  -1.7095972096835812e-03 -1.9860169924130623e-04 0.0000000000000000e+00  0.0000000000000000e+00 0.0000000000000000e+00 0.0000000000000000e+00  -1.9151261204325859e-05 -1.5068433730559235e-06 0.0000000000000000e+00  -3.9208177028220135e-05 -3.1021309639321480e-06 0.0000000000000000e+00  -6.1124224749831857e-05 -4.8817650723631594e-06 0.0000000000000000e+00  -8.5982044524667744e-05 -6.9596883426637383e-06 0.0000000000000000e+00  -1.1507518432111086e-04 -9.4802435998715780e-06 0.0000000000000000e+00  -1.5001453864888688e-04 -1.2635497191627458e-05 0.0000000000000000e+00  -1.9287240156120282e-04 -1.6691005501609358e-05 0.0000000000000000e+00  -2.4638060396837166e-04 -2.2026122397302158e-05 0.0000000000000000e+00  -3.1420085098310147e-04 -2.9200404338044791e-05 0.0000000000000000e+00  -4.0127769390738258e-04 -3.9069456421920205e-05 0.0000000000000000e+00  -5.1424711504755927e-04 -5.2998934266085220e-05 0.0000000000000000e+00  -6.6175524852605052e-04 -7.3275598821842894e-05 0.0000000000000000e+00  -8.5422421799754731e-04 -1.0388435426615754e-04 0.0000000000000000e+00  -1.1018421610464728e-03 -1.5171940971407148e-04 0.0000000000000000e+00  -1.4083856399614522e-03 -2.2610581394644596e-04 0.0000000000000000e+00  -1.7820119816874783e-03 -3.0522220390698717e-04 0.0000000000000000e+00  0.0000000000000000e+00 0.0000000000000000e+00 0.0000000000000000e+00  -1.5233813496009877e-05 -1.2201618853984887e-06 0.0000000000000000e+00  -3.1215601971467111e-05 -2.5163168308820292e-06 0.0000000000000000e+00  -4.8735863388813928e-05 -3.9712773098302229e-06 0.0000000000000000e+00  -6.8703686430273973e-05 -5.6846816542726122e-06 0.0000000000000000e+00  -9.2225121887651575e-05 -7.7846345419188078e-06 0.0000000000000000e+00  -1.2071036377515030e-04 -1.0444109051275414e-05 0.0000000000000000e+00  -1.5602806807070270e-04 -1.3905290718775709e-05 0.0000000000000000e+00  -2.0073496692112787e-04 -1.8517280146569472e-05 0.0000000000000000e+00  -2.5842342701718038e-04 -2.4797492974577531e-05 0.0000000000000000e+00  -3.3424689997908508e-04 -3.3539519116346425e-05 0.0000000000000000e+00  -4.3568951222178182e-04 -4.6025142934907089e-05 0.0000000000000000e+00  -5.7358627720796986e-04 -6.4501355024746199e-05 0.0000000000000000e+00  -7.6309005232898762e-04 -9.3385432996286695e-05 0.0000000000000000e+00  -1.0231080185978520e-03 -1.4253433887078971e-04 0.0000000000000000e+00  -1.3678213814202287e-03 -2.3695960661634965e-04 0.0000000000000000e+00  -1.7366922753440798e-03 -4.6531907314174679e-04 0.0000000000000000e+00  0.0000000000000000e+00 0.0000000000000000e+00 0.0000000000000000e+00  -1.0589275953659427e-05 -8.5912061251772631e-07 0.0000000000000000e+00  -2.1713127995253899e-05 -1.7739573900450083e-06 0.0000000000000000e+00  -3.3938307476778894e-05 -2.8053950318682034e-06 0.0000000000000000e+00  -4.7923145043330653e-05 -4.0272189756404612e-06 0.0000000000000000e+00  -6.4480190957080124e-05 -5.5349733829436902e-06 0.0000000000000000e+00  -8.4665248613327601e-05 -7.4582015422138334e-06 0.0000000000000000e+00  -1.0991197262084165e-04 -9.9777784631812421e-06 0.0000000000000000e+00  -1.4224498069154165e-04 -1.3350222806596929e-05 0.0000000000000000e+00  -1.8462976500228400e-04 -1.7940212169086761e-05 0.0000000000000000e+00  -2.4156344225582379e-04 -2.4259900631093777e-05 0.0000000000000000e+00  -3.2008864604975303e-04 -3.3010233455330253e-05 0.0000000000000000e+00  -4.3152864567471560e-04 -4.5138264413478865e-05 0.0000000000000000e+00  -5.9434781235079455e-04 -6.2101153609157506e-05 0.0000000000000000e+00  -8.3839804379993944e-04 -8.7390180800687954e-05 0.0000000000000000e+00  -1.2095469571465507e-03 -1.3302882676788943e-04 0.0000000000000000e+00  -1.7682625642221014e-03 -2.3738376734522743e-04 0.0000000000000000e+00  0.0000000000000000e+00 0.0000000000000000e+00 0.0000000000000000e+00  -5.4278242195262597e-06 -4.4378598634707617e-07 0.0000000000000000e+00  -1.1134293960627201e-05 -9.1702579906278532e-07 0.0000000000000000e+00  -1.7415440140347730e-05 -1.4519451253521282e-06 0.0000000000000000e+00  -2.4617349477828131e-05 -2.0877282716662135e-06 0.0000000000000000e+00  -3.3171198964754731e-05 -2.8752298935863725e-06 0.0000000000000000e+00  -4.3644347152481577e-05 -3.8832887493155692e-06 0.0000000000000000e+00  -5.6820141570386593e-05 -5.2069882656383964e-06 0.0000000000000000e+00  -7.3829644009153352e-05 -6.9768978297674514e-06 0.0000000000000000e+00  -9.6379619478904771e-05 -9.3630554863186833e-06 0.0000000000000000e+00  -1.2716324571193741e-04 -1.2548459322661692e-05 0.0000000000000000e+00  -1.7061778500651625e-04 -1.6581204154662125e-05 0.0000000000000000e+00  -2.3429290948238414e-04 -2.0795420779952267e-05 0.0000000000000000e+00  -3.3093505050206767e-04 -2.1823935483829108e-05 0.0000000000000000e+00  -4.7923940732291439e-04 -7.7868042430553578e-06 0.0000000000000000e+00  -6.9080667362812493e-04 5.2089295507185605e-05 0.0000000000000000e+00  -9.1789260502802455e-04 1.9144194152208562e-04 0.0000000000000000e+00  0.0000000000000000e+00 0.0000000000000000e+00 0.0000000000000000e+00  0.0000000000000000e+00 0.0000000000000000e+00 0.0000000000000000e+00  0.0000000000000000e+00 0.0000000000000000e+00 0.0000000000000000e+00  0.0000000000000000e+00 0.0000000000000000e+00 0.0000000000000000e+00  0.0000000000000000e+00 0.0000000000000000e+00 0.0000000000000000e+00  0.0000000000000000e+00 0.0000000000000000e