<?xml version="1.0"?>
<VTKFile type="UnstructuredGrid"  version="0.1"  >
<UnstructuredGrid>
<Piece  NumberOfPoints="289" NumberOfCells="512">
<Points>
<DataArray  type="Float64"  NumberOfComponents="3"  format="ascii">0 0 0  0.0625 0 0  0.125 0 0  0.1875 0 0  0.25 0 0  0.3125 0 0  0.375 0 0  0.4375 0 0  0.5 0 0  0.5625 0 0  0.625 0 0  0.6875 0 0  0.75 0 0  0.8125 0 0  0.875 0 0  0.9375 0 0  1 0 0  0 0.0625 0  0.06258554267119522 0.06247556362021806 0  0.1251744255059561 0.06245063778143799 0  0.1877701623871687 0.06242475696367428 0  0.2503765595792153 0.06239752695433799 0  0.3129978905585806 0.06236867128208685 0  0.3756391123077515 0.062338089209337 0  0.4383061603022143 0.0623059246160447 0  0.5010064001452775 0.06227263798516421 0  0.5637494126582809 0.06223905918464821 0  0.6265485405313523 0.06220636893599416 0  0.6894242997296623 0.06217589136094047 0  0.7524126860091787 0.06214841537491084 0  0.8155872599021488 0.06212227239153431 0  0.8791227857908028 0.06208769800095524 0  0.9434935788535216 0.06200840830024622 0  1.010157169620229 0.06175296272280389 0  0 0.125 0  0.06266778479815387 0.1249515921608015 0  0.1253421444760714 0.1249021681055416 0  0.1880299974188757 0.1248507555032741 0  0.2507388475840716 0.1247965156520152 0  0.3134771329605133 0.1247388338080819 0  0.376254650821745 0.1246774363481834 0  0.439083119281382 0.1246125373478182 0  0.5019769878354989 0.124545006491488 0  0.5649547255310419 0.1244765288221745 0  0.6280410691727163 0.1244096871931828 0  0.6912712603498429 0.1243478319171255 0  0.7546994029562282 0.1242945147389804 0  0.8184148824651606 0.1242522629211457 0  0.8825714965840475 0.1242212067392834 0  0.9474196468229904 0.1242029154767708 0  1.013227072890692 0.1242399501842713 0  0 0.1875 0  0.06274348759331466 0.1874286221218628 0  0.1254965390106074 0.1873556350114728 0  0.1882692139997406 0.1872794848631896 0  0.2510724312198623 0.1871987943506822 0  0.3139184736916792 0.187112489670209 0  0.3768215921927725 0.1870199750185092 0  0.439798766081287 0.1869213664974899 0  0.502870714159 0.1868177882886322 0  0.5660633041139121 0.1867117132877841 0  0.6294095904035181 0.1866072895533967 0  0.6929527741966306 0.1865105209723192 0  0.7567501808900429 0.1864290500657498 0  0.8208769317956169 0.1863710881433243 0  0.8854222827445131 0.1863425492532593 0  0.9504540544738624 0.1863393005869918 0  1.015889164657472 0.1863194843066485 0  0 0.25 0  0.06280967468176864 0.2499072547925946 0  0.1256315245416178 0.249812222246356 0  0.1884783448863329 0.2497126684324095 0  0.2513640279104892 0.2496065466125269 0  0.3143042020528026 0.2494921460995539 0  0.3773169819338121 0.2493683131031056 0  0.4404238786828595 0.2492347713677464 0  0.503650924397392 0.2490925687311837 0  0.5670300488470559 0.2489446648444725 0  0.6306006642467511 0.2487966450941859 0  0.6944111361311891 0.248657479275096 0  0.7585190186581652 0.2485401132608936 0  0.8229868839035944 0.2484614432349773 0  0.887866066994815 0.248440813583199 0  0.9531533909595997 0.2484956910016204 0  1.018704186698532 0.2486344674582219 0  0 0.3125 0  0.062863755190894 0.3123881737631836 0  0.1257418035497986 0.3122732943551139 0  0.1886491463205854 0.3121523410768102 0  0.2516020725656339 0.3120224452485004 0  0.3146189078641989 0.3118810354666534 0  0.3777208890848824 0.3117260784534182 0  0.4409332141267734 0.3115564634184826 0  0.5042863055500402 0.3113725897988711 0  0.5678172791483318 0.3111772276542804 0  0.6315714644930079 0.3109767168725566 0  0.6956034631349213 0.3107825343289974 0  0.7599764340471 0.3106131463137756 0  0.824756790002991 0.3104958101281504 0  0.8899993472561132 0.3104675215340001 0  0.9557171796344035 0.3105736670127945 0  1.021838468968073 0.3108625269945068 0  0 0.375 0  0.06290362942882331 0.3748721462271334 0  0.125823082885639 0.3747404054841897 0  0.1887749381028307 0.374600879121285 0  0.2517771927538225 0.3744497276426754 0  0.3148500940572782 0.3742832754788943 0  0.3780171190241373 0.374098225861947 0  0.4413061729054206 0.3738920532737937 0  0.504751076998068 0.3736636714053728 0  0.568393394416843 0.3734145149410856 0  0.63228454946972 0.3731502181662523 0  0.6964879490511582 0.372883100972682 0  0.7610802920659229 0.3726356261913698 0  0.8261503933788715 0.3724447496282473 0  0.8917930322928028 0.3723664508502404 0  0.958096329147021 0.3724785505700725 0  1.025128234444006 0.3728783972863683 0  0 0.4375 0  0.06292777436002089 0.4373600021437499 0  0.1258722502288694 0.4372152626069551 0  0.1888508817854065 0.4370609593022101 0  0.2518826026660967 0.4368921734699643 0  0.3149886972840512 0.4367039081847859 0  0.3781938509777903 0.4364912123374137 0  0.4415274819992417 0.4362494889306153 0  0.5050255021257636 0.43597511654188 0  0.5687327100312353 0.4356665912056698 0  0.6327060796382784 0.4353265102305078 0  0.6970192249975421 0.4349648634845246 0  0.7617682242147653 0.4346042164439754 0  0.8270786830301037 0.4342872804368902 0  0.8931135609168392 0.4340866478499827 0  0.9600819946403063 0.4341145069185495 0  1.028254671463837 0.4345269000214049 0  0 0.5 0  0.0629353059745671 0.499852586722508 0  0.1258875043702999 0.4996996320209317 0  0.1888741912459337 0.499535424333564 0  0.2519144160566008 0.4993539431368004 0  0.315029539713132 0.499148743769373 0  0.378244286410599 0.4989129148953395 0  0.4415881280184443 0.4986391813285647 0  0.5050972378048462 0.4983202880194163 0  0.5688174247842158 0.4979499133797949 0  0.632808754468807 0.4975245540922881 0  0.6971530161649661 0.4970471391352242 0  0.7619657917391924 0.4965335801278672 0  0.8274154206219481 0.4960238929253874 0  0.8937512121672512 0.4955992237782402 0  0.9613429136956607 0.4954031957503051 0  1.030737025905528 0.4956576494578015 0  0 0.5625 0  0.06292601432604429 0.5623506850722934 0  0.1258684297437057 0.5621951845840855 0  0.1888442581947392 0.5620270420196896 0  0.2518718485283811 0.5618392455043808 0  0.3149716636587365 0.5616239419265677 0  0.3781672318937047 0.561372158873269 0  0.441486421687082 0.5610735755768996 0  0.5049633306739389 0.560716443263186 0  0.5686413702852889 0.5602878768313552 0  0.6325787020243381 0.5597749868768156 0  0.6968582539948183 0.5591678148338756 0  0.7616063520202326 0.558465978517861 0  0.8270264844434206 0.5576925363824361 0  0.8934567138496959 0.5569203864801004 0  0.9614579389960197 0.5563149912675078 0  1.031936987657972 0.5561826145815304 0  0 0.625 0  0.06290036626985816 0.6248549233139123 0  0.125816002750593 0.6247032867246864 0  0.1887626660591971 0.6245381636990318 0  0.2517572541572106 0.6243518307529485 0  0.3148184365490947 0.6241352990968326 0  0.3779673910615837 0.6238777635185243 0  0.4412287569576618 0.6235659514409967 0  0.5046320546856889 0.6231833846149424 0  0.5682141584442022 0.6227096473073811 0  0.6320241869680873 0.6221199660005881 0  0.696133911904947 0.6213859417338657 0  0.7606603932203153 0.6204796250321374 0  0.8258141914254309 0.6193864185995228 0  0.8919956055515375 0.6181394133006141 0  0.9599641862284565 0.6168965326329139 0  1.031089489138248 0.6160614315946981 0  0 0.6875 0  0.06285947252577659 0.6873656573040073 0  0.1257325205939983 0.6872247595722516 0  0.1886330697849407 0.6870703149744199 0  0.2515759431573356 0.6868943486600704 0  0.3145773022687733 0.6866872785907696 0  0.3776550869976051 0.6864371111106959 0  0.4408294675514018 0.6861283648688022 0  0.5041233879028225 0.6857406072521839 0  0.5675635057005252 0.6852464712161007 0  0.6311825222170826 0.6846090579068382 0  0.6950258531375048 0.6837788824979303 0  0.7591708379553046 0.682691559567828 0  0.8237797400971054 0.6812713269719846 0  0.8892356382618229 0.6794596810252804 0  0.9564425477521924 0.6773339982185655 0  1.027321689768967 0.6754262140593065 0  0 0.75 0  0.06280502027108814 0.7498828668038154 0  0.1256214544714592 0.7497596443094257 0  0.1884609413166244 0.7496237818818006 0  0.251335768389513 0.7494676670254193 0  0.3142591253579182 0.7492819158050112 0  0.3772452431785676 0.7490544071253332 0  0.4403093070951443 0.7487689025239026 0  0.5034669553276533 0.7484030090148572 0  0.5667331030062711 0.7479251040859812 0  0.6301199331620367 0.7472896157979615 0  0.6936348774649608 0.7464296966889845 0  0.7572838228451509 0.7452459048642333 0  0.8211012881660397 0.7435899402223554 0  0.8852855906905073 0.7412507048159641 0  0.9506835731781101 0.7380139260004352 0  1.019754508969031 0.7343127074147856 0  0 0.8125 0  0.06273917892741225 0.8124060772133969 0  0.1254872453560531 0.8123070228916909 0  0.1882532158467331 0.8121972793827609 0  0.2510465419411999 0.8120702934310308 0  0.3138772231082153 0.8119178273826096 0  0.376755738592024 0.8117289886187529 0  0.4396925929173947 0.811488786972888 0  0.5026970529610988 0.8111759099511252 0  0.5657742173271902 0.8107591901260239 0  0.6289187209246268 0.8101918349607224 0  0.6921019863763924 0.8094016677390523 0  0.7552486908111197 0.8082737608739452 0  0.8182030504454028 0.8066171663182182 0  0.8807303845011999 0.8040959284075542 0  0.9428744874473756 0.8000889186086539 0  1.008161812001926 0.7936529497348143 0  0 0.875 0  0.06266449233614675 0.8749343306056937 0  0.1253350748378508 0.8748649439977645 0  0.1880179061454423 0.8747877947863623 0  0.2507194162464372 0.8746980633314599 0  0.3134463489802365 0.8745896077958459 0  0.3762056368248675 0.8744541750776545 0  0.4390039021338383 0.8742802006024137 0  0.5018461240073407 0.8740509139964362 0  0.564732412394478 0.8737412667443745 0  0.6276503961505975 0.8733128359064929 0  0.6905572315661378 0.8727051651083605 0  0.753336746158184 0.8718204072649423 0  0.8156976784108891 0.870492954510761 0  0.8769409716383714 0.8684131769232967 0  0.9354877869117374 0.864866787804161 0  0.9882174433994843 0.8576575176499959 0  0 0.9375 0  0.06258377182148508 0.9374662213892048 0  0.1251706464879015 0.9374304907441495 0  0.1877637594538452 0.9373906776701965 0  0.250366386130212 0.9373442286406355 0  0.3129819641705233 0.9372878636408118 0  0.3756140284241687 0.9372171339366863 0  0.4382659457124687 0.9371257407745406 
[...]
<PointData  Vectors="f_54"> 
<DataArray  type="Float64"  Name="f_54"  NumberOfComponents="3" format="ascii">0.0000000000000000e+00 0.0000000000000000e+00 0.0000000000000000e+00  0.0000000000000000e+00 0.0000000000000000e+00 0.0000000000000000e+00  0.0000000000000000e+00 0.0000000000000000e+00 0.0000000000000000e+00  0.0000000000000000e+00 0.0000000000000000e+00 0.0000000000000000e+00  0.0000000000000000e+00 0.0000000000000000e+00 0.0000000000000000e+00  0.0000000000000000e+00 0.0000000000000000e+00 0.0000000000000000e+00  0.0000000000000000e+00 0.0000000000000000e+00 0.0000000000000000e+00  0.0000000000000000e+00 0.0000000000000000e+00 0.0000000000000000e+00  0.0000000000000000e+00 0.0000000000000000e+00 0.0000000000000000e+00  0.0000000000000000e+00 0.0000000000000000e+00 0.0000000000000000e+00  0.0000000000000000e+00 0.0000000000000000e+00 0.0000000000000000e+00  0.0000000000000000e+00 0.0000000000000000e+00 0.0000000000000000e+00  0.0000000000000000e+00 0.0000000000000000e+00 0.0000000000000000e+00  0.0000000000000000e+00 0.0000000000000000e+00 0.0000000000000000e+00  0.0000000000000000e+00 0.0000000000000000e+00 0.0000000000000000e+00  0.0000000000000000e+00 0.0000000000000000e+00 0.0000000000000000e+00  0.0000000000000000e+00 0.0000000000000000e+00 0.0000000000000000e+00  0.0000000000000000e+00 0.0000000000000000e+00 0.0000000000000000e+00  -3.5223580219184073e-06 -1.9536778590654908e-07 0.0000000000000000e+00  -7.1307809464486044e-06 -3.9040550349863168e-07 0.0000000000000000e+00  -1.0911334862768917e-05 -5.8409126871943414e-07 0.0000000000000000e+00  -1.4943965689056816e-05 -7.7365231510956946e-07 0.0000000000000000e+00  -1.9297722128289035e-05 -9.5356124007764441e-07 0.0000000000000000e+00  -2.4023578929125078e-05 -1.1144309372464349e-06 0.0000000000000000e+00  -2.9143733242229438e-05 -1.2418925772999458e-06 0.0000000000000000e+00  -3.4635859919458533e-05 -1.3156871100373469e-06 0.0000000000000000e+00  -4.0410072847550780e-05 -1.3094339451279934e-06 0.0000000000000000e+00  -4.6274759064337527e-05 -1.1918727467999379e-06 0.0000000000000000e+00  -5.1883744359749942e-05 -9.3075804719184027e-07 0.0000000000000000e+00  -5.6647919631008933e-05 -5.0077613923969654e-07 0.0000000000000000e+00  -5.9569424910874049e-05 1.0403446440874211e-07 0.0000000000000000e+00  -5.8884277417132344e-05 8.5796603075626807e-07 0.0000000000000000e+00  -5.1171242747304701e-05 1.7181381082757104e-06 0.0000000000000000e+00  -2.8753756979655056e-05 2.8100616961776482e-06 0.0000000000000000e+00  0.0000000000000000e+00 0.0000000000000000e+00 0.0000000000000000e+00  -6.9656359862341129e-06 -3.9143579790746389e-07 0.0000000000000000e+00  -1.4107371580214927e-05 -7.8307433272299231e-07 0.0000000000000000e+00  -2.1601835547322766e-05 -1.1737769631041288e-06 0.0000000000000000e+00  -2.9615038715993651e-05 -1.5589733170892039e-06 0.0000000000000000e+00  -3.8293739082818025e-05 -1.9286248523907863e-06 0.0000000000000000e+00  -4.7752134321795555e-05 -2.2648845774841818e-06 0.0000000000000000e+00  -5.8051696499039985e-05 -2.5395530947093445e-06 0.0000000000000000e+00  -6.9171289437817754e-05 -2.7117024594152062e-06 0.0000000000000000e+00  -8.0963545261276293e-05 -2.7263079915312204e-06 0.0000000000000000e+00  -9.3091207943183309e-05 -2.5154792216139259e-06 0.0000000000000000e+00  -1.0493223139304583e-04 -2.0049958194143660e-06 0.0000000000000000e+00  -1.1543101296763464e-04 -1.1304123673977892e-06 0.0000000000000000e+00  -1.2284574866100521e-04 1.3070288396384144e-07 0.0000000000000000e+00  -1.2427485237431226e-04 1.6989046926575871e-06 0.0000000000000000e+00  -1.1467988398755409e-04 3.2765690009084461e-06 0.0000000000000000e+00  -8.4724236952625541e-05 4.0703396962542605e-06 0.0000000000000000e+00  0.0000000000000000e+00 0.0000000000000000e+00 0.0000000000000000e+00  -1.0237068353330017e-05 -5.8748804395395701e-07 0.0000000000000000e+00  -2.0746310052868041e-05 -1.1773768648752430e-06 0.0000000000000000e+00  -3.1801883364545706e-05 -1.7701920125470995e-06 0.0000000000000000e+00  -4.3665878969672250e-05 -2.3615698743629538e-06 0.0000000000000000e+00  -5.6577613300129842e-05 -2.9392022271279688e-06 0.0000000000000000e+00  -7.0736302421137959e-05 -3.4791070005309070e-06 0.0000000000000000e+00  -8.6274024829563150e-05 -3.9412051661014118e-06 0.0000000000000000e+00  -1.0321506109516320e-04 -4.2645100949122070e-06 0.0000000000000000e+00  -1.2141653700522568e-04 -4.3628689325450036e-06 0.0000000000000000e+00  -1.4048350470784315e-04 -4.1233372562607401e-06 0.0000000000000000e+00  -1.5964849533255649e-04 -3.4112038937486345e-06 0.0000000000000000e+00  -1.7759992113314387e-04 -2.0888242649558421e-06 0.0000000000000000e+00  -1.9223445347914513e-04 -6.0485452688166916e-08 0.0000000000000000e+00  -2.0030118302406189e-04 2.6359725499516806e-06 0.0000000000000000e+00  -1.9694413937232765e-04 5.6559357700293915e-06 0.0000000000000000e+00  -1.7545420982657147e-04 8.0461774176856730e-06 0.0000000000000000e+00  0.0000000000000000e+00 0.0000000000000000e+00 0.0000000000000000e+00  -1.3238368635694010e-05 -7.8114552232180400e-07 0.0000000000000000e+00  -2.6851614091185625e-05 -1.5692308753240814e-06 0.0000000000000000e+00  -4.1219298728157987e-05 -2.3690050400386096e-06 0.0000000000000000e+00  -5.6711734092641736e-05 -3.1793310444455221e-06 0.0000000000000000e+00  -7.3679744001659662e-05 -3.9892492571869005e-06 0.0000000000000000e+00  -9.2436351100995168e-05 -4.7728144216134873e-06 0.0000000000000000e+00  -1.1322652073964587e-04 -5.4823769485267902e-06 0.0000000000000000e+00  -1.3618013636292382e-04 -6.0402223864045615e-06 0.0000000000000000e+00  -1.6124233322596968e-04 -6.3290880096945510e-06 0.0000000000000000e+00  -1.8807437475741690e-04 -6.1833790645242010e-06 0.0000000000000000e+00  -2.1591780542170385e-04 -5.3854591191592176e-06 0.0000000000000000e+00  -2.4341569914402634e-04 -3.6760103113214654e-06 0.0000000000000000e+00  -2.6839107265908934e-04 -7.9519795862798549e-07 0.0000000000000000e+00  -2.8760689298495625e-04 3.4170972107012557e-06 0.0000000000000000e+00  -2.9661476979763260e-04 8.8214134623579136e-06 0.0000000000000000e+00  -2.9003003073302901e-04 1.4645570636364925e-05 0.0000000000000000e+00  0.0000000000000000e+00 0.0000000000000000e+00 0.0000000000000000e+00  -1.5865509346140902e-05 -9.6771925750279192e-07 0.0000000000000000e+00  -3.2213753435396935e-05 -1.9496912330772748e-06 0.0000000000000000e+00  -4.9536290756262492e-05 -2.9580071938397853e-06 0.0000000000000000e+00  -6.8323397337299432e-05 -3.9986545444916863e-06 0.0000000000000000e+00  -8.9057447395183995e-05 -5.0670601192430290e-06 0.0000000000000000e+00  -1.1219743706422988e-04 -6.1417434555617808e-06 0.0000000000000000e+00  -1.3815009996481580e-04 -7.1752458791086062e-06 0.0000000000000000e+00  -1.6722176964895145e-04 -8.0814568827107662e-06 0.0000000000000000e+00  -1.9954387110352996e-04 -8.7186943106715497e-06 0.0000000000000000e+00  -2.3496426294658900e-04 -8.8688482824607022e-06 0.0000000000000000e+00  -2.7289780679361924e-04 -8.2154304180924741e-06 0.0000000000000000e+00  -3.1213483608666452e-04 -6.3289825609351753e-06 0.0000000000000000e+00  -3.5062012341735799e-04 -2.6791583353805870e-06 0.0000000000000000e+00  -3.8524611676663629e-04 3.2892779149285219e-06 0.0000000000000000e+00  -4.1176601789190816e-04 1.1956788053400924e-05 0.0000000000000000e+00  -4.2502255248594989e-04 2.3134332984794322e-05 0.0000000000000000e+00  0.0000000000000000e+00 0.0000000000000000e+00 0.0000000000000000e+00  -1.8010527955026897e-05 -1.1398151340474077e-06 0.0000000000000000e+00  -3.6612843835664654e-05 -2.3040133772937337e-06 0.0000000000000000e+00  -5.6413166467634765e-05 -3.5153179048925197e-06 0.0000000000000000e+00  -7.8029957120190484e-05 -4.7912559443388535e-06 0.0000000000000000e+00  -1.0209448331038388e-04 -6.1398475650527199e-06 0.0000000000000000e+00  -1.2924271232482787e-04 -7.5528115252821688e-06 0.0000000000000000e+00  -1.6009344052128055e-04 -8.9948358813396584e-06 0.0000000000000000e+00  -1.9520559823017457e-04 -1.0386898768703459e-05 0.0000000000000000e+00  -2.3500547859846833e-04 -1.1581020729593236e-05 0.0000000000000000e+00  -2.7967300499001825e-04 -1.2323562626396675e-05 0.0000000000000000e+00  -3.2897688200915210e-04 -1.2205276909580732e-05 0.0000000000000000e+00  -3.8205502242596301e-04 -1.0601089271282736e-05 0.0000000000000000e+00  -4.3715425373581300e-04 -6.6153145580264347e-06 0.0000000000000000e+00  -4.9137664127943935e-04 9.2578918026927879e-07 0.0000000000000000e+00  -5.4052299902348794e-04 1.3351783344082783e-05 0.0000000000000000e+00  -5.7913546054071282e-04 3.1777609607683551e-05 0.0000000000000000e+00  0.0000000000000000e+00 0.0000000000000000e+00 0.0000000000000000e+00  -1.9565703847621354e-05 -1.2873295199538154e-06 0.0000000000000000e+00  -3.9826832318896978e-05 -2.6114955294240608e-06 0.0000000000000000e+00  -6.1500140545387005e-05 -4.0087316699324315e-06 0.0000000000000000e+00  -8.5333437401999675e-05 -5.5123766547402782e-06 0.0000000000000000e+00  -1.1211703413452107e-04 -7.1496866618643735e-06 0.0000000000000000e+00  -1.4268810686444175e-04 -8.9359261311268088e-06 0.0000000000000000e+00  -1.7792272390479240e-04 -1.0863755939713100e-05 0.0000000000000000e+00  -2.1870732396239175e-04 -1.2884707925979308e-05 0.0000000000000000e+00  -2.6587747876933470e-04 -1.4877642324064497e-05 0.0000000000000000e+00  -3.2010742850674000e-04 -1.6596478113547110e-05 0.0000000000000000e+00  -3.8173126665605982e-04 -1.7586730208913471e-05 0.0000000000000000e+00  -4.5048091388119642e-04 -1.7059913755779416e-05 0.0000000000000000e+00  -5.2514632737043273e-04 -1.3723372693777302e-05 0.0000000000000000e+00  -6.0320852186546755e-04 -5.5934841319511520e-06 0.0000000000000000e+00  -6.8055269246840441e-04 1.0115648780632225e-05 0.0000000000000000e+00  -7.5135801467100284e-04 3.6861634213790438e-05 0.0000000000000000e+00  0.0000000000000000e+00 0.0000000000000000e+00 0.0000000000000000e+00  -2.0430196237931655e-05 -1.3979732046250663e-06 0.0000000000000000e+00  -4.1644952273581363e-05 -2.8464247353043606e-06 0.0000000000000000e+00  -6.4457904026063450e-05 -4.3968267002415457e-06 0.0000000000000000e+00  -8.9736652257383734e-05 -6.1014885582474701e-06 0.0000000000000000e+00  -1.1842847001899592e-04 -8.0126623773029656e-06 0.0000000000000000e+00  -1.5158241220075697e-04 -1.0179356045144565e-05 0.0000000000000000e+00  -1.9036328717264038e-04 -1.2639746709344389e-05 0.0000000000000000e+00  -2.3604892615456034e-04 -1.5405289933766007e-05 0.0000000000000000e+00  -2.8999583035222462e-04 -1.8429349991588712e-05 0.0000000000000000e+00  -3.5354925953629213e-04 -2.1547429350288896e-05 0.0000000000000000e+00  -4.2786357797912469e-04 -2.4366652983955807e-05 0.0000000000000000e+00  -5.1359377113068265e-04 -2.6068985830275952e-05 0.0000000000000000e+00  -6.1043706731479439e-04 -2.5081478132697161e-05 0.0000000000000000e+00  -7.1657497693452946e-04 -1.8579885321131272e-05 0.0000000000000000e+00  -8.2819971574701748e-04 -1.8723902698071254e-06 0.0000000000000000e+00  -9.3936683653308907e-04 3.2155051337927893e-05 0.0000000000000000e+00  0.0000000000000000e+00 0.0000000000000000e+00 0.0000000000000000e+00  -2.0518898678847246e-05 -1.4584118347294324e-06 0.0000000000000000e+00  -4.1886070001436883e-05 -2.9803672096481088e-06 0.0000000000000000e+00  -6.4986672763568708e-05 -4.6323756238131034e-06 0.0000000000000000e+00  -9.0784508240701088e-05 -6.4866118712840883e-06 0.0000000000000000e+00  -1.2036430705436936e-04 -8.6233919366636697e-06 0.0000000000000000e+00  -1.5497618614360647e-04 -1.1132655281580685e-05 0.0000000000000000e+00  -1.9607995264327312e-04 -1.4112941283678068e-05 0.0000000000000000e+00  -2.4538240300647681e-04 -1.7664493460020007e-05 0.0000000000000000e+00  -3.0485221232298552e-04 -2.1869212830009587e-05 0.0000000000000000e+00  -3.7668202647386399e-04 -2.6741965249890742e-05 0.0000000000000000e+00  -4.6314411513065314e-04 -3.2120781861319615e-05 0.0000000000000000e+00  -5.6625826086359964e-04 -3.7430128478799667e-05 0.0000000000000000e+00  -6.8718352997142185e-04 -4.1193768246413293e-05 0.0000000000000000e+00  -8.2533792710689493e-04 -4.0106958641220440e-05 0.0000000000000000e+00  -9.7757606698520207e-04 -2.7511205782289657e-05 0.0000000000000000e+00  -1.1382429228539628e-03 8.5746885672344866e-06 0.0000000000000000e+00  0.0000000000000000e+00 0.0000000000000000e+00 0.0000000000000000e+00  -1.9772846859881015e-05 -1.4560021122315144e-06 0.0000000000000000e+00  -4.0420685809609984e-05 -2.9858181321763345e-06 0.0000000000000000e+00  -6.2862123257884892e-05 -4.6682499994714901e-06 0.0000000000000000e+00  -8.8117280849616170e-05 -6.5929137789173958e-06 0.0000000000000000e+00  -1.1736693861041383e-04 -8.8666652265519013e-06 0.0000000000000000e+00  -1.5202178226127614e-04 -1.1621105601475087e-05 0.0000000000000000e+00  -1.9380372119423252e-04 -1.5021091788262235e-05 0.0000000000000000e+00  -2.4483772965048513e-04 -1.9273147911754202e-05 0.0000000000000000e+00  -3.0774393211639749e-04 -2.4629899208621454e-05 0.0000000000000000e+00  -3.8570021516117598e-04 -3.1379307502044463e-05 0.0000000000000000e+00  -4.8240645991540080e-04 -3.9788209741812445e-05 0.0000000000000000e+00  -6.0181245936713978e-04 -4.9919497625942549e-05 0.0000000000000000e+00  -7.4738223809466594e-04 -6.1116647564368572e-05 0.0000000000000000e+00  -9.2067904687571228e-04 -7.0675587708152255e-05 0.0000000000000000e+00  -1.1196264166840485e-03 -7.0892203249921774e-05 0.0000000000000000e+00  -1.3381268328213865e-03 -4.4225293670546164e-05 0.0000000000000000e+00  0.0000000000000000e+00 0.0000000000000000e+00 0.0000000000000000e+00  -1.8170034183252817e-05 -1.3809434552948678e-06 0.0000000000000000e+00  -3.7194307037989255e-05 -2.8408684598158408e-06 0.0000000000000000e+00  -5.7974875518053527e-05 -4.4653752077762972e-06 0.0000000000000000e+00  -8.1531801540420858e-05 -6.3552245832176575e-06 0.0000000000000000e+00  -1.0907629293048182e-04 -8.6363967705361481e-06 0.0000000000000000e+00  -1.4210301039836474e-04 -1.1473578743558226e-05 0.0000000000000000e+00  -1.8250986560695503e-04 -1.5088968195401883e-05 0.0000000000000000e+00  -2.3275363030902414e-04 -1.9788927972999201e-05 0.0000000000000000e+00  -2.9604537171313948e-04 -2.6001539430545677e-05 0.0000000000000000e+00  -3.7657321494018707e-04 -3.4327117172339274e-05 0.0000000000000000e+00  -4.7969298121320876e-04 -4.5595705912446918e-05 0.0000000000000000e+00  -6.1191180771795635e-04 -6.0889040108397424e-05 0.0000000000000000e+00  -7.8024285144508490e-04 -8.1338623503087362e-05 0.0000000000000000e+00  -9.9013437314764662e-04 -1.0696746156761329e-04 0.0000000000000000e+00  -1.2417083599218814e-03 -1.3216157934824548e-04 0.0000000000000000e+00  -1.5292605609454801e-03 -1.3530045374788728e-04 0.0000000000000000e+00  0.0000000000000000e+00 0.0000000000000000e+00 0.0000000000000000e+00  -1.5735014845000457e-05 -1.2284920003994838e-06 0.0000000000000000e+00  -3.2248802030248665e-05 -2.5341338254078271e-06 0.0000000000000000e+00  -5.0368124827408802e-05 -4.0014862415083029e-06 0.0000000000000000e+00  -7.1043006449259235e-05 -5.7326205678955448e-06 0.0000000000000000e+00  -9.5427089301432005e-05 -7.8594218568547521e-06 0.0000000000000000e+00  -1.2498510785015612e-04 -1.0561133208518483e-05 0.0000000000000000e+00  -1.6164300833575857e-04 -1.4090736641362555e-05 0.0000000000000000e+00  -2.0800235184549278e-04 -1.8816171370813482e-05 0.0000000000000000e+00  -2.6764712906851676e-04 -2.5286918430702260e-05 0.0000000000000000e+00  -3.4557187279230422e-04 -3.4345203297218622e-05 0.0000000000000000e+00  -4.4873417806432696e-04 -4.7317616410592336e-05 0.0000000000000000e+00  -5.8661977268562710e-04 -6.6349485225252581e-05 0.0000000000000000e+00  -7.7132546509641451e-04 -9.4950407001678281e-05 0.0000000000000000e+00  -1.0155109881519605e-03 -1.3852080396739076e-04 0.0000000000000000e+00  -1.3235691342129640e-03 -2.0185119499949869e-04 0.0000000000000000e+00  -1.6884998617787016e-03 -2.5890181911279622e-04 0.0000000000000000e+00  0.0000000000000000e+00 0.0000000000000000e+00 0.0000000000000000e+00  -1.2545340732723108e-05 -1.0007600977291399e-06 0.0000000000000000e+00  -2.5737456056610571e-05 -2.0688697149373176e-06 0.0000000000000000e+00  -4.0266094153315472e-05 -3.2787353995441105e-06 0.0000000000000000e+00  -5.6934439394204636e-05 -4.7217574366027745e-06 0.0000000000000000e+00  -7.6736141218492865e-05 -6.5186406011399315e-06 0.0000000000000000e+00  -1.0096312634395508e-04 -8.8374646006600123e-06 0.0000000000000000e+00  -1.3136499878493258e-04 -1.1921684538436545e-05 0.0000000000000000e+00  -1.7039365681632384e-04 -1.6135286890548068e-05 0.0000000000000000e+00  -2.2158799400213611e-04 -2.2038472075672778e-05 0.0000000000000000e+00  -2.9018597361140795e-04 -3.0520762970520143e-05 0.0000000000000000e+00  -3.8409053559487701e-04 -4.3051716996675958e-05 0.0000000000000000e+00  -5.1532150478904423e-04 -6.2199804626764541e-05 0.0000000000000000e+00  -7.0187705006289985e-04 -9.2828457869963555e-05 0.0000000000000000e+00  -9.6876803544460217e-04 -1.4510413810372492e-04 0.0000000000000000e+00  -1.3408984190685157e-03 -2.4231469757242066e-04 0.0000000000000000e+00  -1.7568513340502447e-03 -4.4168068642039704e-04 0.0000000000000000e+00  0.0000000000000000e+00 0.0000000000000000e+00 0.0000000000000000e+00  -8.7328727525170155e-06 -7.0761643125156233e-07 0.0000000000000000e+00  -1.7929224879247602e-05 -1.4651390838725885e-06 0.0000000000000000e+00  -2.8085001103676215e-05 -2.3279804910427807e-06 0.0000000000000000e+00  -3.9783419669281865e-05 -3.3649642052755818e-06 0.0000000000000000e+00  -5.3756049322752119e-05 -4.6681709539692730e-06 0.0000000000000000e+00  -7.0971194395470541e-05 -6.3675208641250347e-06 0.0000000000000000e+00  -9.2770153834290515e-05 -8.6534120285447684e-06 0.0000000000000000e+00  -1.2108772225404067e-04 -1.1812820414709128e-05 0.0000000000000000e+00  -1.5882383262265601e-04 -1.6287761735861432e-05 0.0000000000000000e+00  -2.1049268104245930e-04 -2.2771059340348125e-05 0.0000000000000000e+00  -2.8339036510150329e-04 -3.2367084887933349e-05 0.0000000000000000e+00  -3.8973302161901850e-04 -4.6886517988062651e-05 0.0000000000000000e+00  -5.5056019704962224e-04 -6.9535867282315508e-05 0.0000000000000000e+00  -8.0264303011333665e-04 -1.0720828690163066e-04 0.0000000000000000e+00  -1.2104087676243916e-03 -1.7966905422123967e-04 0.0000000000000000e+00  -1.8897499745350586e-03 -3.5209414180299616e-04 0.0000000000000000e+00  0.0000000000000000e+00 0.0000000000000000e+00 0.0000000000000000e+00  -4.4785133316408352e-06 -3.6634589565062145e-07 0.0000000000000000e+00  -9.1986148414320608e-06 -7.5921055265345736e-07 0.0000000000000000e+00  -1.4419304391737475e-05 -1.2081116573352143e-06 0.0000000000000000e+00  -2.0446906020274410e-05 -1.7499148378326398e-06 0.0000000000000000e+00  -2.7668786303962083e-05 -2.4342431342298859e-06 0.0000000000000000e+00  -3.6603133144844517e-05 -3.3314685183671741e-06 0.0000000000000000e+00  -4.7977670044031698e-05 -4.5449445636846053e-06 0.0000000000000000e+00  -6.2861249200557088e-05 -6.2297361294666583e-06 0.0000000000000000e+00  -8.2895233027712115e-05 -8.6198564001313101e-06 0.0000000000000000e+00  -1.1072043789385045e-04 -1.2060746252152229e-05 0.0000000000000000e+00  -1.5079954755091709e-04 -1.7016008648177448e-05 0.0000000000000000e+00  -2.1103934368004663e-04 -2.3897953732983365e-05 0.0000000000000000e+00  -3.0586018687750043e-04 -3.2102180023244676e-05 0.0000000000000000e+00  -4.6043325425082314e-04 -3.6055165713644927e-05 0.0000000000000000e+00  -7.0594735100778865e-04 -1.3599463227964813e-05 0.0000000000000000e+00  -1.0212095484803045e-03 8.0026294047308850e-05 0.0000000000000000e+00  0.0000000000000000e+00 0.0000000000000000e+00 0.0000000000000000e+00  0.0000000000000000e+00 0.0000000000000000e+00 0.0000000000000000e+00  0.0000000000000000e+00 0.0000000000000000e+00 0.0000000000000000e+00  0.0000000000000000e+00 0.0000000000000000e+00 0.0000000000000000e+00  0.0000000000000000e+00 0.0000000000000000e+00 0.0000000000000000e+00  0.0000000000000000e+00 0.0000000000000000e+00 0