<?xml version="1.0"?>
<VTKFile type="UnstructuredGrid"  version="0.1"  >
<UnstructuredGrid>
<Piece  NumberOfPoints="1089" NumberOfCells="2048">
<Points>
<DataArray  type="Float64"  NumberOfComponents="3"  format="ascii">0 0 0  0.03125 0 0  0.0625 0 0  0.09375 0 0  0.125 0 0  0.15625 0 0  0.1875 0 0  0.21875 0 0  0.25 0 0  0.28125 0 0  0.3125 0 0  0.34375 0 0  0.375 0 0  0.40625 0 0  0.4375 0 0  0.46875 0 0  0.5 0 0  0.53125 0 0  0.5625 0 0  0.59375 0 0  0.625 0 0  0.65625 0 0  0.6875 0 0  0.71875 0 0  0.75 0 0  0.78125 0 0  0.8125 0 0  0.84375 0 0  0.875 0 0  0.90625 0 0  0.9375 0 0  0.96875 0 0  1 0 0  0 0.03125 0  0.03125 0.03125 0  0.0625 0.03125 0  0.09375 0.03125 0  0.125 0.03125 0  0.15625 0.03125 0  0.1875 0.03125 0  0.21875 0.03125 0  0.25 0.03125 0  0.28125 0.03125 0  0.3125 0.03125 0  0.34375 0.03125 0  0.375 0.03125 0  0.40625 0.03125 0  0.4375 0.03125 0  0.46875 0.03125 0  0.5 0.03125 0  0.53125 0.03125 0  0.5625 0.03125 0  0.59375 0.03125 0  0.625 0.03125 0  0.65625 0.03125 0  0.6875 0.03125 0  0.71875 0.03125 0  0.75 0.03125 0  0.78125 0.03125 0  0.8125 0.03125 0  0.84375 0.03125 0  0.875 0.03125 0  0.90625 0.03125 0  0.9375 0.03125 0  0.96875 0.03125 0  1 0.03125 0  0 0.0625 0  0.03125 0.0625 0  0.0625 0.0625 0  0.09375 0.0625 0  0.125 0.0625 0  0.15625 0.0625 0  0.1875 0.0625 0  0.21875 0.0625 0  0.25 0.0625 0  0.28125 0.0625 0  0.3125 0.0625 0  0.34375 0.0625 0  0.375 0.0625 0  0.40625 0.0625 0  0.4375 0.0625 0  0.46875 0.0625 0  0.5 0.0625 0  0.53125 0.0625 0  0.5625 0.0625 0  0.59375 0.0625 0  0.625 0.0625 0  0.65625 0.0625 0  0.6875 0.0625 0  0.71875 0.0625 0  0.75 0.0625 0  0.78125 0.0625 0  0.8125 0.0625 0  0.84375 0.0625 0  0.875 0.0625 0  0.90625 0.0625 0  0.9375 0.0625 0  0.96875 0.0625 0  1 0.0625 0  0 0.09375 0  0.03125 0.09375 0  0.0625 0.09375 0  0.09375 0.09375 0  0.125 0.09375 0  0.15625 0.09375 0  0.1875 0.09375 0  0.21875 0.09375 0  0.25 0.09375 0  0.28125 0.09375 0  0.3125 0.09375 0  0.34375 0.09375 0  0.375 0.09375 0  0.40625 0.09375 0  0.4375 0.09375 0  0.46875 0.09375 0  0.5 0.09375 0  0.53125 0.09375 0  0.5625 0.09375 0  0.59375 0.09375 0  0.625 0.09375 0  0.65625 0.09375 0  0.6875 0.09375 0  0.71875 0.09375 0  0.75 0.09375 0  0.78125 0.09375 0  0.8125 0.09375 0  0.84375 0.09375 0  0.875 0.09375 0  0.90625 0.09375 0  0.9375 0.09375 0  0.96875 0.09375 0  1 0.09375 0  0 0.125 0  0.03125 0.125 0  0.0625 0.125 0  0.09375 0.125 0  0.125 0.125 0  0.15625 0.125 0  0.1875 0.125 0  0.21875 0.125 0  0.25 0.125 0  0.28125 0.125 0  0.3125 0.125 0  0.34375 0.125 0  0.375 0.125 0  0.40625 0.125 0  0.4375 0.125 0  0.46875 0.125 0  0.5 0.125 0  0.53125 0.125 0  0.5625 0.125 0  0.59375 0.125 0  0.625 0.125 0  0.65625 0.125 0  0.6875 0.125 0  0.71875 0.125 0  0.75 0.125 0  0.78125 0.125 0  0.8125 0.125 0  0.84375 0.125 0  0.875 0.125 0  0.90625 0.125 0  0.9375 0.125 0  0.96875 0.125 0  1 0.125 0  0 0.15625 0  0.03125 0.15625 0  0.0625 0.15625 0  0.09375 0.15625 0  0.125 0.15625 0  0.15625 0.15625 0  0.1875 0.15625 0  0.21875 0.15625 0  0.25 0.15625 0  0.28125 0.15625 0  0.3125 0.15625 0  0.34375 0.15625 0  0.375 0.15625 0  0.40625 0.15625 0  0.4375 0.15625 0  0.46875 0.15625 0  0.5 0.15625 0  0.53125 0.15625 0  0.5625 0.15625 0  0.59375 0.15625 0  0.625 0.15625 0  0.65625 0.15625 0  0.6875 0.15625 0  0.71875 0.15625 0  0.75 0.15625 0  0.78125 0.15625 0  0.8125 0.15625 0  0.84375 0.15625 0  0.875 0.15625 0  0.90625 0.15625 0  0.9375 0.15625 0  0.96875 0.15625 0  1 0.15625 0  0 0.1875 0  0.03125 0.1875 0  0.0625 0.1875 0  0.09375 0.1875 0  0.125 0.1875 0  0.15625 0.1875 0  0.1875 0.1875 0  0.21875 0.1875 0  0.25 0.1875 0  0.28125 0.1875 0  0.3125 0.1875 0  0.34375 0.1875 0  0.375 0.1875 0  0.40625 0.1875 0  0.4375 0.1875 0  0.46875 0.1875 0  0.5 0.1875 0  0.53125 0.1875 0  0.5625 0.1875 0  0.59375 0.1875 0  0.625 0.1875 0  0.65625 0.1875 0  0.6875 0.1875 0  0.71875 0.1875 0  0.75 0.1875 0  0.78125 0.1875 0  0.8125 0.1875 0  0.84375 0.1875 0  0.875 0.1875 0  0.90625 0.1875 0  0.9375 0.1875 0  0.96875 0.1875 0  1 0.1875 0  0 0.21875 0  0.03125 0.21875 0  0.0625 0.21875 0  0.09375 0.21875 0  0.125 0.21875 0  0.15625 0.21875 0  0.1875 0.21875 0  0.21875 0.21875 0  0.25 0.21875 0  0.28125 0.21875 0  0.3125 0.21875 0  0.34375 0.21875 0  0.375 0.21875 0  0.40625 0.21875 0  0.4375 0.21875 0  0.46875 0.21875 0  0.5 0.21875 0  0.53125 0.21875 0  0.5625 0.21875 0  0.59375 0.21875 0  0.625 0.21875 0  0.65625 0.21875 0  0.6875 0.21875 0  0.71875 0.21875 0  0.75 0.21875 0  0.78125 0.21875 0  0.8125 0.21875 0  0.84375 0.21875 0  0.875 0.21875 0  0.90625 0.21875 0  0.9375 0.21875 0  0.96875 0.21875 0  1 0.21875 0  0 0.25 0  0.03125 0.25 0  0.0625 0.25 0  0.09375 0.25 0  0.125 0.25 0  0.15625 0.25 0  0.1875 0.25 0  0.21875 0.25 0  0.25 0.25 0  0.28125 0.25 0  0.3125 0.25 0  0.34375 0.25 0  0.375 0.25 0  0.40625 0.25 0  0.4375 0.25 0  0.46875 0.25 0  0.5 0.25 0  0.53125 0.25 0  0.5625 0.25 0  0.59375 0.25 0  0.625 0.25 0  0.65625 0.25 0  0.6875 0.25 0  0.71875 0.25 0  0.75 0.25 0  0.78125 0.25 0  0.8125 0.25 0  0.84375 0.25 0  0.875 0.25 0  0.90625 0.25 0  0.9375 0.25 0  0.96875 0.25 0  1 0.25 0  0 0.28125 0  0.03125 0.28125 0  0.0625 0.28125 0  0.09375 0.28125 0  0.125 0.28125 0  0.15625 0.28125 0  0.1875 0.28125 0  0.21875 0.28125 0  0.25 0.28125 0  0.28125 0.28125 0  0.3125 0.28125 0  0.34375 0.28125 0  0.375 0.28125 0  0.40625 0.28125 0  0.4375 0.28125 0  0.46875 0.28125 0  0.5 0.28125 0  0.53125 0.28125 0  0.5625 0.28125 0  0.59375 0.28125 0  0.625 0.28125 0  0.65625 0.28125 0  0.6875 0.28125 0  0.71875 0.28125 0  0.75 0.28125 0  0.78125 0.28125 0  0.8125 0.28125 0  0.84375 0.28125 0  0.875 0.28125 0  0.90625 0.28125 0  0.9375 0.28125 0  0.96875 0.28125 0  1 0.28125 0  0 0.3125 0  0.03125 0.3125 0  0.0625 0.3125 0  0.09375 0.3125 0  0.125 0.3125 0  0.15625 0.3125 0  0.1875 0.3125 0  0.21875 0.3125 0  0.25 0.3125 0  0.28125 0.3125 0  0.3125 0.3125 0  0.34375 0.3125 0  0.375 0.3125 0  0.40625 0.3125 0  0.4375 0.3125 0  0.46875 0.3125 0  0.5 0.3125 0  0.53125 0.3125 0  0.5625 0.3125 0  0.59375 0.3125 0  0.625 0.3125 0  0.65625 0.3125 0  0.6875 0.3125 0  0.71875 0.3125 0  0.75 0.3125 0  0.78125 0.3125 0  0.8125 0.3125 0  0.84375 0.3125 0  0.875 0.3125 0  0.90625 0.3125 0  0.9375 0.3125 0  0.96875 0.3125 0  1 0.3125 0  0 0.34375 0  0.03125 0.34375 0  0.0625 0.34375 0  0.09375 0.34375 0  0.125 0.34375 0  0.15625 0.34375 0  0.1875 0.34375 0  0.21875 0.34375 0  0.25 0.34375 0  0.28125 0.34375 0  0.3125 0.34375 0  0.34375 0.34375 0  0.375 0.34375 0  0.40625 0.34375 0  0.4375 0.34375 0  0.46875 0.34375 0  0.5 0.34375 0  0.53125 0.34375 0  0.5625 0.34375 0  0.59375 0.34375 0  0.625 0.34375 0  0.65625 0.34375 0  0.6875 0.34375 0  0.71875 0.34375 0  0.75 0.34375 0  0.78125 0.34375 0  0.8125 0.34375 0  0.84375 0.34375 0  0.875 0.34375 0  0.90625 0.34375 0  0.9375 0.34375 0  0.96875 0.34375 0  1 0.34375 0  0 0.375 0  0.03125 0.375 0  0.0625 0.375 0  0.09375 0.375 0  0.125 0.375 0  0.15625 0.375 0  0.1875 0.375 0  0.21875 0.375 0  0.25 0.375 0  0.28125 0.375 0  0.3125 0.375 0  0.34375 0.375 0  0.375 0.375 0  0.40625 0.375 0  0.4375 0.375 0  0.46875 0.375 0  0.5 0.375 0  0.53125 0.375 0  0.5625 0.375 0  0.59375 0.375 0  0.625 0.375 0  0.65625 0.375 0  0.6875 0.375 0  0.71875 0.375 0  0.75 0.375 0  0.78125 0.375 0  0.8125 0.375 0  0.84375 0.375 0  0.875 0.375 0  0.90625 0.375 0  0.9375 0.375 0  0.96875 0.375 0  1 0.375 0  0 0.40625 0  0.03125 0.40625 0  0.0625 0.40625 0  0.09375 0.40625 0  0.125 0.40625 0  0.15625 0.40625 0  0.1875 0.40625 0  0.21875 0.40625 0  0.25 0.40625 0  0.28125 0.40625 0  0.3125 0.40625 0  0.34375 0.40625 0  0.375 0.40625 0  0.40625 0.40625 0  0.4375 0.40625 0  0.46875 0.40625 0  0.5 0.40625 0  0.53125 0.40625 0  0.5625 0.40625 0  0.59375 0.40625 0  0.625 0.40625 0  0.65625 0.40625 0  0.6875 0.40625 0  0.71875 0.40625 0  0.75 0.40625 0  0.78125 0.40625 0  0.8125 0.40625 0  0.84375 0.40625 0  0.875 0.40625 0  0.90625 0.40625 0  0.9375 0.40625 0  0.96875 0.40625 0  1 0.40625 0  0 0.4375 0  0.03125 0.4375 0  0.0625 0.4375 0  0.09375 0.4375 0  0.125 0.4375 0  0.15625 0.4375 0  0.1875 0.4375 0  0.21875 0.4375 0  0.25 0.4375 0  0.28125 0.4375 0  0.3125 0.4375 0  0.34375 0.4375 0  0.375 0.4375 0  0.40625 0.4375 0  0.4375 0.4375 0  0.46875 0.4375 0  0.5 0.4375 0  0.53125 0.4375 0  0.5625 0.4375 0  0.59375 0.4375 0  0.625 0.4375 0  0.65625 0.4375 0  0.6875 0.4375 0  0.71875 0.4375 0  0.75 0.4375 0  0.78125 0.4375 0  0.8125 0.4375 0  0.84375 0.4375 0  0.875 0.4375 0  0.90625 0.4375 0  0.9375 0.4375 0  0.96875 0.4375 0  1 0.4375 0  0 0.46875 0  0.03125 0.46875 0  0.0625 0.46875 0  0.09375 0.46875 0  0.125 0.46875 0  0.15625 0.46875 0  0.1875 0.46875 0  0.21875 0.46875 0  0.25 0.46875 0  0.28125 0.46875 0  0.3125 0.46875 0  0.34375 0.46875 0  0.375 0.46875 0  0.40625 0.46875 0  0.4375 0.46875 0  0.46875 0.46875 0  0.5 0.46875 0  0.53125 0.46875 0  0.5625 0.46875 0  0.59375 0.46875 0  0.625 0.46875 0  0.65625 0.46875 0  0.6875 0.46875 0  0.71875 0.46875 0  0.75 0.46875 0  0.78125 0.46875 0  0.8125 0.46875 0  0.84375 0.46875 0  0.875 0.46875 0  0.90625 0.46875 0  0.9375 0.46875 0  0.96875 0.46875 0  1 0.46875 0  0 0.5 0  0.03125 0.5 0  0.0625 0.5 0  0.09375 0.5 0  0.125 0.5 0  0.15625 0.5 0  0.1875 0.5 0  0.21875 0.5 0  0.25 0.5 0  0.28125 0.5 0  0.3125 0.5 0  0.34375 0.5 0  0.375 0.5 0  0.40625 0.5 0  0.4375 0.5 0  0.46875 0.5 0  0.5 0.5 0  0.53125 0.5 0  0.5625 0.5 0  0.59375 0.5 0  0.625 0.5 0  0.65625 0.5 0  0.6875 0.5 0  0.71875 0.5 0  0.75 0.5 0  0.78125 0.5 0  0.8125 0.5 0  0.84375 0.5 0  0.875 0.5 0  0.90625 0.5 0  0.9375 0.5 0  0.96875 0.5 0  1 0.5 0  0 0.53125 0  0.03125 0.53125 0  0.0625 0.53125 0  0.09375 0.53125 0  0.125 0.53125 0  0.15625 0.53125 0  0.1875 0.53125 0  0.21875 0.53125 0  0.25 0.53125 0  0.28125 0.53125 0  0.3125 0.53125 0  0.34375 0.53125 0  0.375 0.53125 0  0.40625 0.53125 0  0.4375 0.53125 0  0.46875 0.53125 0  0.5 0.53125 0  0.53125 0.53125 0  0.5625 0.53125 0  0.59375 0.53125 0  0.625 0.53125 0  0.65625 0.53125 0  0.6875 0.53125 0  0.71875 0.53125 0  0.75 0.53125 0  0.78125 0.531
[...]
<PointData  Scalars="f_24782"> 
<DataArray  type="Float64"  Name="f_24782"  format="ascii">9.3442393343634111e-01  9.3580996260073868e-01  9.3418398626488208e-01  9.3191499348263429e-01  9.2871445222763926e-01  9.2460778388993925e-01  9.1960245603257684e-01  9.1370278012174666e-01  9.0691433008657940e-01  8.9924304585585269e-01  8.9069546993326165e-01  8.8127893156673331e-01  8.7100170723440384e-01  8.5987316298465732e-01  8.4790384404203412e-01  8.3510549218405106e-01  8.2149098301431522e-01  8.0707419114835399e-01  7.9186980786007843e-01  7.7589314772434304e-01  7.5915998522461647e-01  7.4168645450831039e-01  7.2348903352877758e-01  7.0458460411556112e-01  6.8499058468005802e-01  6.6472505475473875e-01  6.4380697487209038e-01  6.2225598973102814e-01  6.0009374741058918e-01  5.7733722311791502e-01  5.5403034648368277e-01  5.3010812566987620e-01  5.0575339861531443e-01  9.3621563977834932e-01  9.3580707717857348e-01  9.3414961865186508e-01  9.3199301935549939e-01  9.2878376198010482e-01  9.2468835929043458e-01  9.1968539566623675e-01  9.1378308913441553e-01  9.0698823149892072e-01  8.9930802394252496e-01  8.9075041477760575e-01  8.8132394498273969e-01  8.7103777338672084e-01  8.5990171194664988e-01  8.4792627396319309e-01  8.3512272530627696e-01  8.2150312969899908e-01  8.0708038578591124e-01  7.9186825805779837e-01  7.7588140492589308e-01  7.5913540480881481e-01  7.4164677510753996e-01  7.2343297453235955e-01  7.0451237334217787e-01  6.8490418601902303e-01  6.6462835066222226e-01  6.4370539698589702e-01  6.2215621744749250e-01  6.0000204969841431e-01  5.7726415630566230e-01  5.5396452083820613e-01  5.3012541938708013e-01  5.0580267023132786e-01  9.3612862319327250e-01  9.3554391536989367e-01  9.3423677012584005e-01  9.3198155150258566e-01  9.2876498217628267e-01  9.2467302731594292e-01  9.1966831191465581e-01  9.1376761529464134e-01  9.0697531523540598e-01  8.9929850085135421e-01  8.9074467493962417e-01  8.8132190684108691e-01  8.7103892234738955e-01  8.5990518135188865e-01  8.4793097908808923e-01  8.3512753538707152e-01  8.2150705624452658e-01  8.0708275808212715e-01  7.9186885361797732e-01  7.7588050590313284e-01  7.5913376197255178e-01  7.4164547761757549e-01  7.2343324413380350e-01  7.0451531870576556e-01  6.8491056701363795e-01  6.6463839751786602e-01  6.4371873255931633e-01  6.2217184736898068e-01  6.0001890016331771e-01  5.7727942853773473e-01  5.5398184317061372e-01  5.3013745940746237e-01  5.0574487539809265e-01  9.3611071727366935e-01  9.3562010461180767e-01  9.3427184442397293e-01  9.3196130049948134e-01  9.2877176731300803e-01  9.2467363449019091e-01  9.1966747376320845e-01  9.1376614171204484e-01  9.0697274415911688e-01  8.9929503597994553e-01  8.9074039758916457e-01  8.8131694851567166e-01  8.7103343391619736e-01  8.5989932040508243e-01  8.4792489841357799e-01  8.3512137177284818e-01  8.2150092177717193e-01  8.0707673477105868e-01  7.9186299255516901e-01  7.7587483202270291e-01  7.5912828469415328e-01  7.4164020636323680e-01  7.2342820580897849e-01  7.0451057334385281e-01  6.8490621593361845e-01  6.6463458406703102e-01  6.4371561915716591e-01  6.2216966345974778e-01  6.0001761971439671e-01  5.7727984821685796e-01  5.5398247780392673e-01  5.3013493981090964e-01  5.0574910915540039e-01  9.3613892348747596e-01  9.3561075469585520e-01  9.3425123344000327e-01  9.3196035957083856e-01  9.2877144678839341e-01  9.2466652931625504e-01  9.1966192976200056e-01  9.1376009769913669e-01  9.0696678509706152e-01  8.9928945033036467e-01  8.9073530950477209e-01  8.8131245915235168e-01  8.7102956161750056e-01  8.5989601599498455e-01  8.4792205146349342e-01  8.3511882582697916e-01  8.2149849753288529e-01  8.0707425945235745e-01  7.9186033159516711e-01  7.7587191708916647e-01  7.5912513139402438e-01  7.4163691602283965e-01  7.2342494880576913e-01  7.0450755559405487e-01  6.8490363497663642e-01  6.6463258478679599e-01  6.4371425766445367e-01  6.2216890259310842e-01  6.0001726011373002e-01  5.7727990904296644e-01  5.5398109330668821e-01  5.3013551677700732e-01  5.0573790952533182e-01  9.3614712878051842e-01  9.3560161623409532e-01  9.3425385120641780e-01  9.3196122671762227e-01  9.2876638721124727e-01  9.2466273363173457e-01  9.1965823034550842e-01  9.1375558478027541e-01  9.0696225232835659e-01  8.9928481919540282e-01  8.9073068119524035e-01  8.8130789525999453e-01  8.7102509538160200e-01  8.5989166253034499e-01  8.4791780439702580e-01  8.3511466080404073e-01  8.2149437763220512e-01  8.0707014400328336e-01  7.9185618741252017e-01  7.7586773003574550e-01  7.5912091545311111e-01  7.4163271708351997e-01  7.2342084130100515e-01  7.0450363172627140e-01  6.8489998814844666e-01  6.6462929223034928e-01  6.4371135778430155e-01  6.2216641779063886e-01  6.0001505321110737e-01  5.7727821938280066e-01  5.5397857033490649e-01  5.3013540213307342e-01  5.0572839077308995e-01  9.3615894895039775e-01  9.3559486746150788e-01  9.3425169554740728e-01  9.3195592460061405e-01  9.2876315862615699e-01  9.2465960609248810e-01  9.1965412863639950e-01  9.1375137751049973e-01  9.0695796581198240e-01  8.9928043260369206e-01  8.9072631177471728e-01  8.8130357960438577e-01  8.7102087064710398e-01  8.5988754861578531e-01  8.4791380366119762e-01  8.3511075853955408e-01  8.2149054446101555e-01  8.0706634241286446e-01  7.9185238173788342e-01  7.7586389817685675e-01  7.5911705936498053e-01  7.4162886869046329e-01  7.2341706127638294e-01  7.0450000009061975e-01  6.8489658843426160e-01  6.6462619291073577e-01  6.4370859227880362e-01  6.2216400075162348e-01  6.0001285346160071e-01  5.7727656764454771e-01  5.5397593393209199e-01  5.3013586928972178e-01  5.0571838142362391e-01  9.3617136457124028e-01  9.3558847352330754e-01  9.3424975227486617e-01  9.3195496815048040e-01  9.2876240701111257e-01  9.2465767976561342e-01  9.1965230663741238e-01  9.1374944490244681e-01  9.0695584511897809e-01  8.9927822692797033e-01  8.9072405806826849e-01  8.8130130344008517e-01  8.7101860495625050e-01  8.5988531456728390e-01  8.4791161412286575e-01  8.3510861462853081e-01  8.2148843557241402e-01  8.0706424942151755e-01  7.9185028346964059e-01  7.7586177998469696e-01  7.5911492147394477e-01  7.4162673154291980e-01  7.2341496567644148e-01  7.0449800100810112e-01  6.8489474392209426e-01  6.6462455039994084e-01  6.4370717470690586e-01  6.2216282160834779e-01  6.0001181150536564e-01  5.7727600338871454e-01  5.5397432354110721e-01  5.3013769192883131e-01  5.0570992579054874e-01  9.3618319104503100e-01  9.3558449509906894e-01  9.3425025525610317e-01  9.3195489057472469e-01  9.2876122352447443e-01  9.2465685535204734e-01  9.1965145278363147e-01  9.1374829704615346e-01  9.0695462259118942e-01  8.9927692509150137e-01  8.9072269812104898e-01  8.8129991569878496e-01  8.7101721467510984e-01  8.5988394218971376e-01  8.4791027427185872e-01  8.3510731215224221e-01  8.2148716519437381e-01  8.0706299773386048e-01  7.9184903408439022e-01  7.7586052071464995e-01  7.5911365156196731e-01  7.4162546648717054e-01  7.2341373770311235e-01  7.0449685398797468e-01  6.8489372434151696e-01  6.6462369505304431e-01  6.4370650083000547e-01  6.2216233522157727e-01  6.0001142424999387e-01  5.7727600431656090e-01  5.5397328972683646e-01  5.3013977504809928e-01  5.0570231772066809e-01  9.3619319657125222e-01  9.3558399952671312e-01  9.3425240279868305e-01  9.3195637758656635e-01  9.2876308808774866e-01  9.2465889576982652e-01  9.1965298693263697e-01  9.1374979176444970e-01  9.0695604215635772e-01  8.9927825241072334e-01  8.9072397735758635e-01  8.8130116272655745e-01  8.7101844832767228e-01  8.5988517821221155e-01  8.4791152287617233e-01  8.3510857580556508e-01  8.2148843817563610e-01  8.0706426775585649e-01  7.9185028651583045e-01  7.7586174435734367e-01  7.5911484438793786e-01  7.4162663930749817e-01  7.2341491424868332e-01  7.0449806632972967e-01  6.8489500549307647e-01  6.6462506774655405e-01  6.4370797171832783e-01  6.2216389330424293e-01  6.0001298768945821e-01  5.7727776963229405e-01  5.5397400492641458e-01  5.3014277650734098e-01  5.0569866315732837e-01  9.3619979128767261e-01  9.3558718032603405e-01  9.3425610995834329e-01  9.3196002470389494e-01  9.2876654394149494e-01  9.2466193627330706e-01  9.1965585146504047e-01  9.1375266617223738e-01  9.0695877267462821e-01  8.9928093419708433e-01  8.9072662542710013e-01  8.8130379002986892e-01  8.7102107185381261e-01  8.5988780784427421e-01  8.4791416371019712e-01  8.3511122628152967e-01  8.2149109023062861e-01  8.0706690861220864e-01  7.9185290229811678e-01  7.7586432470564526e-01  7.5911738677777074e-01  7.4162915147000652e-01  7.2341741359384970e-01  7.0450057545244149e-01  6.8489754583811302e-01  6.6462764874701807e-01  6.4371058852478413e-01  6.2216651313449423e-01  6.0001553349905357e-01  5.7728031184145479e-01  5.5397555637627194e-01  5.3014551732151838e-01  5.0569825648524402e-01  9.3620142246066929e-01  9.3559386765779518e-01  9.3426093575147506e-01  9.3196515341299679e-01  9.2877129536614034e-01  9.2466652460222554e-01  9.1966033958295401e-01  9.1375703024971611e-01  9.0696303336772521e-01  8.9928517415612974e-01  8.9073083565369204e-01  8.8130799470434529e-01  8.7102528058549211e-01  8.5989202477679805e-01  8.4791838806630238e-01  8.3511545120374675e-01  8.2149530402941850e-01  8.0707109668407395e-01  7.9185705024300534e-01  7.7586842185513027e-01  7.5912142913648839e-01  7.4163314287554549e-01  7.2342136438288274e-01  7.0450449789020009e-01  6.8490144855642698e-01  6.6463152603475195e-01  6.4371442139247415e-01  6.2217024311474889e-01  6.0001908810097848e-01  5.7728361746841705e-01  5.5397798048536384e-01  5.3014770481659235e-01  5.0570238900928777e-01  9.3619687530830442e-01  9.3560342560805265e-01  9.3426609088952539e-01  9.3197118426931580e-01  9.2877676089452488e-01  9.2467180730457110e-01  9.1966544604074107e-01  9.1376202318122868e-01  9.0696797144434071e-01  8.9929008801383670e-01  8.9073573489619362e-01  8.8131290323101230e-01  8.7103020079344917e-01  8.5989695744409611e-01  8.4792332707372342e-01  8.3512038541213662e-01  8.2150021886123226e-01  8.0707597612105275e-01  7.9186187945950259e-01  7.7587318972725372e-01  7.5912612993535022e-01  7.4163777630076433e-01  7.2342593353670381e-01  7.0450900463641275e-01  6.8490588855651535e-01  6.6463587824963832e-01  6.4371865217959523e-01  6.2217426843504620e-01  6.0002284270465855e-01  5.7728688198586242e-01  5.5398053269178216e-01  5.3014853658029926e-01  5.0571076618746391e-01  9.3618550404148948e-01  9.3561484621840307e-01  9.3427076802811793e-01  9.3197731296245245e-01  9.2878214819878668e-01  9.2467707723723080e-01  9.1967055472729664e-01  9.1376704511524864e-01  9.0697294539212070e-01  8.9929504221788759e-01  8.9074069130830913e-01  8.8131787580532273e-01  8.7103518984193695e-01  8.5990196037142219e-01  8.4792833362735853e-01  8.3512538174107498e-01  8.2150518868197930e-01  8.0708090283704059e-01  7.9186674819044389e-01  7.7587798887698933e-01  7.5913085180764328e-01  7.4164241621148586e-01  7.2343048725221804e-01  7.0451346378188062e-01  6.8491023616414870e-01  6.6464007879156461e-01  6.4372265814862861e-01  6.2217797348797499e-01  6.0002619208090457e-01  5.7728952281240220e-01  5.5398268209894286e-01  5.3014753912156787e-01  5.0572315120073452e-01  9.3616738423150803e-01  9.3562693662375918e-01  9.3427420845030207e-01  9.3198273106309304e-01  9.2878671093139831e-01  9.2468159279349416e-01  9.1967491165576420e-01  9.1377133152810508e-01  9.0697719414121858e-01  8.9929928282553340e-01  8.9074494212451905e-01  8.8132214487458793e-01  8.7103947682380256e-01  8.5990625930868270e-01  8.4793263244224848e-01  8.3512966580307058e-01  8.2150944182130314e-01  8.0708510935216193e-01  7.9187089415578682e-01  7.7588206287917760e-01  7.5913484468042947e-01  7.4164631948000648e-01  7.2343429025284356e-01  7.0451714931304654e-01  6.8491377651122209e-01  6.6464342677414467e-01  6.4372575525768483e-01  6.2218069796157838e-01  6.0002850246592043e-01  5.7729096081777231e-01  5.5398388533655651e-01  5.3014442273037565e-01  5.0573875426391623e-01  9.3614336262343345e-01  9.3563848655679771e-01  9.3427584919089202e-01  9.3198674753511135e-01  9.2878982037424096e-01  9.2468472929233025e-01  9.1967790593249144e-01  9.1377427872919870e-01  9.0698011495365893e-01  8.9930220210968714e-01  8.9074787297064373e-01  8.8132509222416544e-01  8.7104243851074781e-01  8.5990922757412969e-01  8.4793559554738995e-01  8.3513261032444142e-01  8.2151235379238219e-01  8.0708797572551483e-01  7.9187370339066621e-01  7.7588480495046508e-01  7.5913751014420217e-01  7.4164889752301699e-01  7.2343676574090010e-01  7.0451949890946741e-01  6.8491596516894004e-01  6.6464540034320918e-01  6.4372744888934663e-01  6.2218198427489479e-01  6.0002935475431673e-01  5.7729085675015113e-01  5.5398381756428494e-01  5.3013926649812981e-01  5.0575654406071946e-01  9.3611498638871327e-01  9.3564844386918455e-01  9.3427540406765908e-01  9.3198889227582504e-01  9.2879107335649425e-01  9.2468607546502501e-01  9.1967913150874880e-01  9.1377547816163407e-01  9.0698129597676025e-01  8.9930338405057053e-01  8.9074906341684967e-01  8.8132629281475006e-01  8.7104364532983580e-01  8.5991043295919456e-01  8.4793678983237930e-01  8.3513378336612454e-01  8.2151349593963208e-01  8.0708907847922784e-01  7.9187475932327134e-01  7.7588580707144816e-01  7.5913845052054152e-01  7.4164976520378645e-01  7.2343754398719717e-01  7.0452016199864687e-01  6.8491647535836286e-01  6.6464570253626776e-01  6.4372747781808015e-01  6.2218161852737230e-01  6.0002858192545416e-01  5.7728914205535919e-01  5.5398239859947096e-01  5.3013251592645638e-01  5.0577528836528873e-01  9.3608433416362613e-01  9.3565604773239885e-01  9.3427290191344703e-01  9.3198898229944238e-01  9.2879034637818703e-01  9.2468549075006512e-01  9.1967845077104848e-01  9.1377478891144670e-01  9.0698059375144191e-01  8.9930268163520510e-01  8.9074836255980649e-01  8.8132559196597116e-01  8.7104293960096335e-01  8.5990971613710743e-01  8.4793605582204901e-01  8.3513302718685167e-01  8.2151271410983473e-01  8.0708826882517248e-01  7.9187392024401893e-01  7.7588493633943423e-01  7.5913754369829933e-01  7.4164881367035873e-01  7.2343653258284224e-01  7.0451906669948217e-01  6.8491526073986275e-01  6.6464431885031494e-01  6.4372586555381728e-01  6.2217967381719386e-01  6.0002630440518534e-01  5.7728604005751905e-01  5.5397981362413751e-01  5.3012493910332170e-01  5.0579369186096590e-01  9.3605377227716979e-01  9.3566090753763587e-01  9.3426867277469161e-01  9.3198713779979248e-01  9.2878780603680333e-01  9.2468311995516894e-01  9.1967600884734602e-01  9.1377235175482963e-01  9.0697814694284495e-01  8.9930023128591252e-01  8.9074590489095284e-01  8.8132312253547884e-01  8.7104045314045286e-01  8.5990720879180560e-01  8.4793352625527785e-01  8.3513047698149978e-01  8.2151014734239147e-01  8.0708569100936656e-01  7.9187133691790401e-01  7.7588235139440598e-01  7.5913495784495733e-01  7.4164622265084368e-01  7.2343392554639485e-01  7.0451642489065958e-01  6.8491255546680541e-01  6.6464151102874780e-01  6.4372290662686416e-01  6.2217648679269966e-01  6.0002289725898095e-01  5.7728201546642333e-01  5.5397646571545434e-01  5.3011750056503759e-01  5.0581050362951496e-01  9.3602568696972577e-01  9.3566302275469293e-01  9.3426329576059164e-01  9.3198375558994218e-01  9.2878387887464531e-01  9.2467936714663179e-01  9.1967220871871747e-01  9.1376856627428082e-01  9.0697435501877788e-01  8.9929643278361560e-01  8.9074209099082513e-01  8.8131928606090604e-01  8.7103658872093936e-01  8.5990331539775400e-01  8.4792960796537742e-01  8.3512654269337006e-01  8.2150620941116914e-01  8.0708176327765768e-01  7.9186743259195924e-01  7.7587848103824286e-01  7.5913112805758931e-01  7.4164243444027178e-01  7.2343017414287081e-01  7.0451269891433765e-01  6.8490883538321645e-01  6.6463777118410583e-01  6.4371911246442703e-01  6.2217259360604171e-01  6.0001891751895209e-01  5.7727768404291446e-01  5.5397289292356255e-01  5.3011119063321333e-01  5.0582461977550386e-01  9.3600218818099190e-01  9.3566273259751043e-01  9.3425749684243642e-01  9.3197942570959191e-01  9.2877916688154172e-01  9.2467481456154654e-01  9.1966763130233953e-01  9.1376401236265736e-01  9.0696980064852895e-01  8.9929187237359798e-01  8.9073751114412836e-01  8.8131467677621633e-01  8.7103194440773934e-01  8.5989863780397469e-01  8.4792490662588538e-01  8.3512183385564831e-01  8.2150151362761126e-01  8.0707710244789110e-01  7.9186282711324896e-01  7.7587394762626971e-01  7.5912667859111760e-01  7.4163807481981692e-01  7.2342590610162860e-01  7.0450851755825816e-01  6.8490473103308303e-01  6.6463373324635000e-01  6.4371512196514491e-01  6.2216863758613017e-01  6.0001500737717572e-01  5.7727370109553622e-01  5.5396966674948078e-01  5.3010684673976172e-01  5.0583517042697423e-01  9.3598498496338645e-01  9.3566066710323315e-01  9.3425209667519582e-01  9.3197488245443771e-01  9.2877439970925491e-01  9.2467017562749820e-01  9.1966298864436680e-01  9.1375940339274675e-01  9.0696520237357847e-01  8.9928727463614611e-01  8.9073289614638085e-01  8.8131003120579210e-01  8.7102726185885693e-01  8.5989392219893335e-01  8.4792017234989403e-01  8.3511710379055870e-01  8.2149681558424714e-01  8.0707246514286790e-01  7.9185827662020425e-01  7.7586950511489117e-01  7.5912235927843374e-01  7.4163388812697484e-01  7.2342185818317017e-01  7.0450460698548767e-01  6.8490096064738248e-01  6.6463010184568017e-01  6.4371161674553223e-01  6.2216526851258314e-01  6.0001178660293242e-01  5.7727065372027986e-01  5.5396730226377899e-01  5.3010500372541380e-01  5.0584159373354765e-01  9.3597490119711768e-01  9.3565751808871034e-01  9.3424773435483011e-01  9.3197073731424807e-01  9.2877016792318878e-01  9.2466603016380666e-01  9.1965886084953241e-01  9.1375532489872058e-01  9.0696115475843042e-01  8.9928324402511051e-01  8.9072886024034514e-01  8.8130597263994281e-01  8.7102317252815342e-01  8.5988980725141784e-01  8.4791604998755021e-01  8.3511300230272967e-01  8.2149276851965880e-01  8.0706850616954673e-01  7.9185443532745903e-01  7.7586580467420307e-01  7.5911881573341822e-01  7.4163051211355779e-01  7.2341865603254618e-01  7.0450158055810563e-01  6.8489812279326456e-01  6.6462743963245519e-01  6.4370913970333277e-01  6.2216302598348305e-01  6.0000978428882434e-01  5.7726899018877165e-01  5.5396617173757357e-01  5.3010581864038597e-01  5.0584368578649086e-01  9.3597278505897985e-01  9.3565426936159846e-01  9.3424526432414812e-01  9.3196783534179251e-01  9.2876728274815268e-01  9.2466317772260598e-01  9.1965604542904700e-01  9.1375257829822476e-01  9.0695846563706084e-01  8.9928059474748612e-01  8.9072622302738458e-01  8.8130332461310157e-01  8.7102050232899730e-01  8.5988711963200049e-01  8.4791336524605632e-01  8.3511035223509711e-01  8.2149019027127435e-01  8.0706603596414950e-01  7.9185210364843783e-01  7.7586363386571611e-01  7.5911681992307123e-01  7.4162869968408673e-01  7.2341703012073388e-01  7.0450014645356140e-01  6.8489688550713967e-01  6.6462638127715179e-01  6.4370832869942674e-01  6.2216242739098349e-01  6.0000933299012282e-01  5.7726890476363435e-01  5.5396651480187264e-01  5.3010904686771354e-01  5.0584162624408779e-01  9.3597703644836161e-01  9.3565120206162766e-01  9.3424443169907245e-01  9.3196597905043688e-01  9.2876549665895791e-01  9.2466136985121949e-01  9.1965430027712591e-01  9.1375093592617107e-01  9.0695692374204240e-01  8.9927913222690525e-01  8.9072480606398818e-01  8.8130192395421614e-01  8.7101910231602764e-01  8.5988572341475777e-01  8.4791199389045446e-01  8.3510903964044880e-01  8.2148897575259205e-01  8.0706495688864421e-01  7.9185118999865234e-01  7.7586290579857609e-01  7.5911628821660881e-01  7.4162836841510460e-01  7.2341689896690464e-01  7.0450021807302177e-01  6.8489714958928405e-01  6.6462685150870160e-01  6.4370903268224566e-01  6.2216320445065687e-01  6.0001047361433479e-01  5.7727059662254965e-01  5.5396830606236924e-01  5.3011412748551945e-01  5.0583595930446346e-01  9.3598917522677150e-01  9.3564971699448618e-01  9.3424647658579807e-01  9.3196638623763828e-01  9.28765972104