<?xml version="1.0"?>
<VTKFile type="UnstructuredGrid"  version="0.1"  >
<UnstructuredGrid>
<Piece  NumberOfPoints="1089" NumberOfCells="2048">
<Points>
<DataArray  type="Float64"  NumberOfComponents="3"  format="ascii">0 0 0  0.03125 0 0  0.0625 0 0  0.09375 0 0  0.125 0 0  0.15625 0 0  0.1875 0 0  0.21875 0 0  0.25 0 0  0.28125 0 0  0.3125 0 0  0.34375 0 0  0.375 0 0  0.40625 0 0  0.4375 0 0  0.46875 0 0  0.5 0 0  0.53125 0 0  0.5625 0 0  0.59375 0 0  0.625 0 0  0.65625 0 0  0.6875 0 0  0.71875 0 0  0.75 0 0  0.78125 0 0  0.8125 0 0  0.84375 0 0  0.875 0 0  0.90625 0 0  0.9375 0 0  0.96875 0 0  1 0 0  0 0.03125 0  0.03125 0.03125 0  0.0625 0.03125 0  0.09375 0.03125 0  0.125 0.03125 0  0.15625 0.03125 0  0.1875 0.03125 0  0.21875 0.03125 0  0.25 0.03125 0  0.28125 0.03125 0  0.3125 0.03125 0  0.34375 0.03125 0  0.375 0.03125 0  0.40625 0.03125 0  0.4375 0.03125 0  0.46875 0.03125 0  0.5 0.03125 0  0.53125 0.03125 0  0.5625 0.03125 0  0.59375 0.03125 0  0.625 0.03125 0  0.65625 0.03125 0  0.6875 0.03125 0  0.71875 0.03125 0  0.75 0.03125 0  0.78125 0.03125 0  0.8125 0.03125 0  0.84375 0.03125 0  0.875 0.03125 0  0.90625 0.03125 0  0.9375 0.03125 0  0.96875 0.03125 0  1 0.03125 0  0 0.0625 0  0.03125 0.0625 0  0.0625 0.0625 0  0.09375 0.0625 0  0.125 0.0625 0  0.15625 0.0625 0  0.1875 0.0625 0  0.21875 0.0625 0  0.25 0.0625 0  0.28125 0.0625 0  0.3125 0.0625 0  0.34375 0.0625 0  0.375 0.0625 0  0.40625 0.0625 0  0.4375 0.0625 0  0.46875 0.0625 0  0.5 0.0625 0  0.53125 0.0625 0  0.5625 0.0625 0  0.59375 0.0625 0  0.625 0.0625 0  0.65625 0.0625 0  0.6875 0.0625 0  0.71875 0.0625 0  0.75 0.0625 0  0.78125 0.0625 0  0.8125 0.0625 0  0.84375 0.0625 0  0.875 0.0625 0  0.90625 0.0625 0  0.9375 0.0625 0  0.96875 0.0625 0  1 0.0625 0  0 0.09375 0  0.03125 0.09375 0  0.0625 0.09375 0  0.09375 0.09375 0  0.125 0.09375 0  0.15625 0.09375 0  0.1875 0.09375 0  0.21875 0.09375 0  0.25 0.09375 0  0.28125 0.09375 0  0.3125 0.09375 0  0.34375 0.09375 0  0.375 0.09375 0  0.40625 0.09375 0  0.4375 0.09375 0  0.46875 0.09375 0  0.5 0.09375 0  0.53125 0.09375 0  0.5625 0.09375 0  0.59375 0.09375 0  0.625 0.09375 0  0.65625 0.09375 0  0.6875 0.09375 0  0.71875 0.09375 0  0.75 0.09375 0  0.78125 0.09375 0  0.8125 0.09375 0  0.84375 0.09375 0  0.875 0.09375 0  0.90625 0.09375 0  0.9375 0.09375 0  0.96875 0.09375 0  1 0.09375 0  0 0.125 0  0.03125 0.125 0  0.0625 0.125 0  0.09375 0.125 0  0.125 0.125 0  0.15625 0.125 0  0.1875 0.125 0  0.21875 0.125 0  0.25 0.125 0  0.28125 0.125 0  0.3125 0.125 0  0.34375 0.125 0  0.375 0.125 0  0.40625 0.125 0  0.4375 0.125 0  0.46875 0.125 0  0.5 0.125 0  0.53125 0.125 0  0.5625 0.125 0  0.59375 0.125 0  0.625 0.125 0  0.65625 0.125 0  0.6875 0.125 0  0.71875 0.125 0  0.75 0.125 0  0.78125 0.125 0  0.8125 0.125 0  0.84375 0.125 0  0.875 0.125 0  0.90625 0.125 0  0.9375 0.125 0  0.96875 0.125 0  1 0.125 0  0 0.15625 0  0.03125 0.15625 0  0.0625 0.15625 0  0.09375 0.15625 0  0.125 0.15625 0  0.15625 0.15625 0  0.1875 0.15625 0  0.21875 0.15625 0  0.25 0.15625 0  0.28125 0.15625 0  0.3125 0.15625 0  0.34375 0.15625 0  0.375 0.15625 0  0.40625 0.15625 0  0.4375 0.15625 0  0.46875 0.15625 0  0.5 0.15625 0  0.53125 0.15625 0  0.5625 0.15625 0  0.59375 0.15625 0  0.625 0.15625 0  0.65625 0.15625 0  0.6875 0.15625 0  0.71875 0.15625 0  0.75 0.15625 0  0.78125 0.15625 0  0.8125 0.15625 0  0.84375 0.15625 0  0.875 0.15625 0  0.90625 0.15625 0  0.9375 0.15625 0  0.96875 0.15625 0  1 0.15625 0  0 0.1875 0  0.03125 0.1875 0  0.0625 0.1875 0  0.09375 0.1875 0  0.125 0.1875 0  0.15625 0.1875 0  0.1875 0.1875 0  0.21875 0.1875 0  0.25 0.1875 0  0.28125 0.1875 0  0.3125 0.1875 0  0.34375 0.1875 0  0.375 0.1875 0  0.40625 0.1875 0  0.4375 0.1875 0  0.46875 0.1875 0  0.5 0.1875 0  0.53125 0.1875 0  0.5625 0.1875 0  0.59375 0.1875 0  0.625 0.1875 0  0.65625 0.1875 0  0.6875 0.1875 0  0.71875 0.1875 0  0.75 0.1875 0  0.78125 0.1875 0  0.8125 0.1875 0  0.84375 0.1875 0  0.875 0.1875 0  0.90625 0.1875 0  0.9375 0.1875 0  0.96875 0.1875 0  1 0.1875 0  0 0.21875 0  0.03125 0.21875 0  0.0625 0.21875 0  0.09375 0.21875 0  0.125 0.21875 0  0.15625 0.21875 0  0.1875 0.21875 0  0.21875 0.21875 0  0.25 0.21875 0  0.28125 0.21875 0  0.3125 0.21875 0  0.34375 0.21875 0  0.375 0.21875 0  0.40625 0.21875 0  0.4375 0.21875 0  0.46875 0.21875 0  0.5 0.21875 0  0.53125 0.21875 0  0.5625 0.21875 0  0.59375 0.21875 0  0.625 0.21875 0  0.65625 0.21875 0  0.6875 0.21875 0  0.71875 0.21875 0  0.75 0.21875 0  0.78125 0.21875 0  0.8125 0.21875 0  0.84375 0.21875 0  0.875 0.21875 0  0.90625 0.21875 0  0.9375 0.21875 0  0.96875 0.21875 0  1 0.21875 0  0 0.25 0  0.03125 0.25 0  0.0625 0.25 0  0.09375 0.25 0  0.125 0.25 0  0.15625 0.25 0  0.1875 0.25 0  0.21875 0.25 0  0.25 0.25 0  0.28125 0.25 0  0.3125 0.25 0  0.34375 0.25 0  0.375 0.25 0  0.40625 0.25 0  0.4375 0.25 0  0.46875 0.25 0  0.5 0.25 0  0.53125 0.25 0  0.5625 0.25 0  0.59375 0.25 0  0.625 0.25 0  0.65625 0.25 0  0.6875 0.25 0  0.71875 0.25 0  0.75 0.25 0  0.78125 0.25 0  0.8125 0.25 0  0.84375 0.25 0  0.875 0.25 0  0.90625 0.25 0  0.9375 0.25 0  0.96875 0.25 0  1 0.25 0  0 0.28125 0  0.03125 0.28125 0  0.0625 0.28125 0  0.09375 0.28125 0  0.125 0.28125 0  0.15625 0.28125 0  0.1875 0.28125 0  0.21875 0.28125 0  0.25 0.28125 0  0.28125 0.28125 0  0.3125 0.28125 0  0.34375 0.28125 0  0.375 0.28125 0  0.40625 0.28125 0  0.4375 0.28125 0  0.46875 0.28125 0  0.5 0.28125 0  0.53125 0.28125 0  0.5625 0.28125 0  0.59375 0.28125 0  0.625 0.28125 0  0.65625 0.28125 0  0.6875 0.28125 0  0.71875 0.28125 0  0.75 0.28125 0  0.78125 0.28125 0  0.8125 0.28125 0  0.84375 0.28125 0  0.875 0.28125 0  0.90625 0.28125 0  0.9375 0.28125 0  0.96875 0.28125 0  1 0.28125 0  0 0.3125 0  0.03125 0.3125 0  0.0625 0.3125 0  0.09375 0.3125 0  0.125 0.3125 0  0.15625 0.3125 0  0.1875 0.3125 0  0.21875 0.3125 0  0.25 0.3125 0  0.28125 0.3125 0  0.3125 0.3125 0  0.34375 0.3125 0  0.375 0.3125 0  0.40625 0.3125 0  0.4375 0.3125 0  0.46875 0.3125 0  0.5 0.3125 0  0.53125 0.3125 0  0.5625 0.3125 0  0.59375 0.3125 0  0.625 0.3125 0  0.65625 0.3125 0  0.6875 0.3125 0  0.71875 0.3125 0  0.75 0.3125 0  0.78125 0.3125 0  0.8125 0.3125 0  0.84375 0.3125 0  0.875 0.3125 0  0.90625 0.3125 0  0.9375 0.3125 0  0.96875 0.3125 0  1 0.3125 0  0 0.34375 0  0.03125 0.34375 0  0.0625 0.34375 0  0.09375 0.34375 0  0.125 0.34375 0  0.15625 0.34375 0  0.1875 0.34375 0  0.21875 0.34375 0  0.25 0.34375 0  0.28125 0.34375 0  0.3125 0.34375 0  0.34375 0.34375 0  0.375 0.34375 0  0.40625 0.34375 0  0.4375 0.34375 0  0.46875 0.34375 0  0.5 0.34375 0  0.53125 0.34375 0  0.5625 0.34375 0  0.59375 0.34375 0  0.625 0.34375 0  0.65625 0.34375 0  0.6875 0.34375 0  0.71875 0.34375 0  0.75 0.34375 0  0.78125 0.34375 0  0.8125 0.34375 0  0.84375 0.34375 0  0.875 0.34375 0  0.90625 0.34375 0  0.9375 0.34375 0  0.96875 0.34375 0  1 0.34375 0  0 0.375 0  0.03125 0.375 0  0.0625 0.375 0  0.09375 0.375 0  0.125 0.375 0  0.15625 0.375 0  0.1875 0.375 0  0.21875 0.375 0  0.25 0.375 0  0.28125 0.375 0  0.3125 0.375 0  0.34375 0.375 0  0.375 0.375 0  0.40625 0.375 0  0.4375 0.375 0  0.46875 0.375 0  0.5 0.375 0  0.53125 0.375 0  0.5625 0.375 0  0.59375 0.375 0  0.625 0.375 0  0.65625 0.375 0  0.6875 0.375 0  0.71875 0.375 0  0.75 0.375 0  0.78125 0.375 0  0.8125 0.375 0  0.84375 0.375 0  0.875 0.375 0  0.90625 0.375 0  0.9375 0.375 0  0.96875 0.375 0  1 0.375 0  0 0.40625 0  0.03125 0.40625 0  0.0625 0.40625 0  0.09375 0.40625 0  0.125 0.40625 0  0.15625 0.40625 0  0.1875 0.40625 0  0.21875 0.40625 0  0.25 0.40625 0  0.28125 0.40625 0  0.3125 0.40625 0  0.34375 0.40625 0  0.375 0.40625 0  0.40625 0.40625 0  0.4375 0.40625 0  0.46875 0.40625 0  0.5 0.40625 0  0.53125 0.40625 0  0.5625 0.40625 0  0.59375 0.40625 0  0.625 0.40625 0  0.65625 0.40625 0  0.6875 0.40625 0  0.71875 0.40625 0  0.75 0.40625 0  0.78125 0.40625 0  0.8125 0.40625 0  0.84375 0.40625 0  0.875 0.40625 0  0.90625 0.40625 0  0.9375 0.40625 0  0.96875 0.40625 0  1 0.40625 0  0 0.4375 0  0.03125 0.4375 0  0.0625 0.4375 0  0.09375 0.4375 0  0.125 0.4375 0  0.15625 0.4375 0  0.1875 0.4375 0  0.21875 0.4375 0  0.25 0.4375 0  0.28125 0.4375 0  0.3125 0.4375 0  0.34375 0.4375 0  0.375 0.4375 0  0.40625 0.4375 0  0.4375 0.4375 0  0.46875 0.4375 0  0.5 0.4375 0  0.53125 0.4375 0  0.5625 0.4375 0  0.59375 0.4375 0  0.625 0.4375 0  0.65625 0.4375 0  0.6875 0.4375 0  0.71875 0.4375 0  0.75 0.4375 0  0.78125 0.4375 0  0.8125 0.4375 0  0.84375 0.4375 0  0.875 0.4375 0  0.90625 0.4375 0  0.9375 0.4375 0  0.96875 0.4375 0  1 0.4375 0  0 0.46875 0  0.03125 0.46875 0  0.0625 0.46875 0  0.09375 0.46875 0  0.125 0.46875 0  0.15625 0.46875 0  0.1875 0.46875 0  0.21875 0.46875 0  0.25 0.46875 0  0.28125 0.46875 0  0.3125 0.46875 0  0.34375 0.46875 0  0.375 0.46875 0  0.40625 0.46875 0  0.4375 0.46875 0  0.46875 0.46875 0  0.5 0.46875 0  0.53125 0.46875 0  0.5625 0.46875 0  0.59375 0.46875 0  0.625 0.46875 0  0.65625 0.46875 0  0.6875 0.46875 0  0.71875 0.46875 0  0.75 0.46875 0  0.78125 0.46875 0  0.8125 0.46875 0  0.84375 0.46875 0  0.875 0.46875 0  0.90625 0.46875 0  0.9375 0.46875 0  0.96875 0.46875 0  1 0.46875 0  0 0.5 0  0.03125 0.5 0  0.0625 0.5 0  0.09375 0.5 0  0.125 0.5 0  0.15625 0.5 0  0.1875 0.5 0  0.21875 0.5 0  0.25 0.5 0  0.28125 0.5 0  0.3125 0.5 0  0.34375 0.5 0  0.375 0.5 0  0.40625 0.5 0  0.4375 0.5 0  0.46875 0.5 0  0.5 0.5 0  0.53125 0.5 0  0.5625 0.5 0  0.59375 0.5 0  0.625 0.5 0  0.65625 0.5 0  0.6875 0.5 0  0.71875 0.5 0  0.75 0.5 0  0.78125 0.5 0  0.8125 0.5 0  0.84375 0.5 0  0.875 0.5 0  0.90625 0.5 0  0.9375 0.5 0  0.96875 0.5 0  1 0.5 0  0 0.53125 0  0.03125 0.53125 0  0.0625 0.53125 0  0.09375 0.53125 0  0.125 0.53125 0  0.15625 0.53125 0  0.1875 0.53125 0  0.21875 0.53125 0  0.25 0.53125 0  0.28125 0.53125 0  0.3125 0.53125 0  0.34375 0.53125 0  0.375 0.53125 0  0.40625 0.53125 0  0.4375 0.53125 0  0.46875 0.53125 0  0.5 0.53125 0  0.53125 0.53125 0  0.5625 0.53125 0  0.59375 0.53125 0  0.625 0.53125 0  0.65625 0.53125 0  0.6875 0.53125 0  0.71875 0.53125 0  0.75 0.53125 0  0.78125 0.531
[...]
<PointData  Scalars="f_10196"> 
<DataArray  type="Float64"  Name="f_10196"  format="ascii">9.9344422108397479e-01  9.9491431557283094e-01  9.9318578009937641e-01  9.9077427309024846e-01  9.8737321639389641e-01  9.8300858485422404e-01  9.7768794116546354e-01  9.7141570098923791e-01  9.6419782706568857e-01  9.5604081221964832e-01  9.4695186695872602e-01  9.3693905432565705e-01  9.2601141084566874e-01  9.1417906506476243e-01  9.0145331947660501e-01  8.8784667348384549e-01  8.7337277366058874e-01  8.5804629252816100e-01  8.4188275528162604e-01  8.2489834951659280e-01  8.0710976173533155e-01  7.8853407816205501e-01  7.6918877901440885e-01  7.4909180862999092e-01  7.2826175550047823e-01  7.0671791944664453e-01  6.8448079258709016e-01  6.6157116731362209e-01  6.3801307913115202e-01  6.1382385883040347e-01  5.8905015563922836e-01  5.6361619118594364e-01  5.3769786173065059e-01  9.9533651449313509e-01  9.9490140735288612e-01  9.9313864471905700e-01  9.9084857519228142e-01  9.8743968320234576e-01  9.8308840898845185e-01  9.7777163642987919e-01  9.7149768999086517e-01  9.6427371969241316e-01  9.5610755400080294e-01  9.4700796483542171e-01  9.3698441584018999e-01  9.2604700714011201e-01  9.1420645315850035e-01  9.0147410265834571e-01  8.8786199048091285e-01  8.7338290499067706e-01  8.5805045804682334e-01  8.4187914869244995e-01  8.2488441650067923e-01  8.0708268329404587e-01  7.8849138037767419e-01  7.6912895657479652e-01  7.4901485366390308e-01  7.2816945090391394e-01  7.0661393341000056e-01  6.8437021335977244e-01  6.6146046643239587e-01  6.3790761619759573e-01  6.1373328125663706e-01  5.8895900176308036e-01  5.6360532381903294e-01  5.3772387787870057e-01  9.9522798947555391e-01  9.9461016409260672e-01  9.9322126168109237e-01  9.9082778879983890e-01  9.8741244336046397e-01  9.8306617310140576e-01  9.7774907458825422e-01  9.7147826139120330e-01  9.6425824640375279e-01  9.5609663745010887e-01  9.4700168239504945e-01  9.3698233788206242e-01  9.2604827506039533e-01  9.1420989477198988e-01  9.0147839526923224e-01  8.8786585639983484e-01  8.7338531658071528e-01  8.5805082054778747e-01  8.4187742477825878e-01  8.2488115986837296e-01  8.0707896107472499e-01  7.8848858433596380e-01  7.6912852854537461e-01  7.4901797013028315e-01  7.2817673451462095e-01  7.0662522967642216e-01  6.8438454308131558e-01  6.6147596086176352e-01  6.3792227431897741e-01  6.1374303873664449e-01  5.8896753681586178e-01  5.6360772625007038e-01  5.3766195992210597e-01  9.9519239799999271e-01  9.9467864601949729e-01  9.9324859231668516e-01  9.9079840710655398e-01  9.8741354906157852e-01  9.8306223782562563e-01  9.7774516567123781e-01  9.7147503594760187e-01  9.6425506016902462e-01  9.5609346441841514e-01  9.4699834301196484e-01  9.3697870311870113e-01  9.2604426366443771e-01  9.1420548422267511e-01  9.0147362494454297e-01  8.8786082026648938e-01  8.7338014715574630e-01  8.5804566630090429e-01  8.4187242501598891e-01  8.2487642196607924e-01  8.0707454436434733e-01  7.8848449348625949e-01  7.6912471589775433e-01  7.4901434677435463e-01  7.2817317928044034e-01  7.0662161511140165e-01  6.8438070547233132e-01  6.6147187146302888e-01  6.3791760835762634e-01  6.1373884890697450e-01  5.8896331899503629e-01  5.6360268292435678e-01  5.3767149839543626e-01  9.9520879848205590e-01  9.9465855657483504e-01  9.9321945835579806e-01  9.9079218555211057e-01  9.8740950590301901e-01  9.8305231555601646e-01  9.7773807389923950e-01  9.7146841165871523e-01  9.6424940105292412e-01  9.5608888670005887e-01  9.4699478336224663e-01  9.3697606618382479e-01  9.2604238511245651e-01  9.1420416612633593e-01  9.0147265643528718e-01  8.8785999857185471e-01  8.7337929699353767e-01  8.5804465699729193e-01  8.4187118420912066e-01  8.2487494351668700e-01  8.0707288729732940e-01  7.8848276920245464e-01  7.6912306269199915e-01  7.4901289495657597e-01  7.2817201155756361e-01  7.0662074069087610e-01  6.8438003595378838e-01  6.6147129770801050e-01  6.3791692221891527e-01  6.1373846812744370e-01  5.8896216638476662e-01  5.6360558630648483e-01  5.3766504862541997e-01  9.9520829027936064e-01  9.9464167579137985e-01  9.9321766272478429e-01  9.9079012731758631e-01  9.8740232199976619e-01  9.8304751473790941e-01  9.7773418875276474e-01  9.7146436828752603e-01  9.6424592260638731e-01  9.5608575048588818e-01  9.4699195363482935e-01  9.3697345812188060e-01  9.2603989974459699e-01  9.1420171641468650e-01  9.0147017702539012e-01  8.8785745410060013e-01  8.7337668270410429e-01  8.5804199413626758e-01  8.4186851241163174e-01  8.2487231256146676e-01  8.0707034986431803e-01  7.8848037530041226e-01  7.6912085517977635e-01  7.4901090676983850e-01  7.2817026145746555e-01  7.0661924198311010e-01  6.8437878051885181e-01  6.6147036287946459e-01  6.3791624926390056e-01  6.1373869085582700e-01  5.8896243306348905e-01  5.6360954129373109e-01  5.3766022105579159e-01  9.9521574906831856e-01  9.9463016389900061e-01  9.9321281532762951e-01  9.9078281905152887e-01  9.8739806062181945e-01  9.8304415255924782e-01  9.7773039694152908e-01  9.7146101867267109e-01  9.6424295079010280e-01  9.5608304517785092e-01  9.4698953446464240e-01  9.3697125261886238e-01  9.2603784459025995e-01  9.1419975162293921e-01  9.0146825733936953e-01  8.8785555341549505e-01  8.7337479213286962e-01  8.5804011677672143e-01  8.4186665737781219e-01  8.2487049101667620e-01  8.0706857436356960e-01  7.8847866210211526e-01  7.6911922752925843e-01  7.4900939786837717e-01  7.2816891325617761e-01  7.0661811056843560e-01  6.8437791702646855e-01  6.6146989468386497e-01  6.3791614248628015e-01  6.1373961522706000e-01  5.8896309066820118e-01  5.6361426462491004e-01  5.3765389663088115e-01  9.9522747348846385e-01  9.9462170973068997e-01  9.9321022653107938e-01  9.9078159931175769e-01  9.8739746830037245e-01  9.8304272487842304e-01  9.7772939358327826e-01  9.7146021426086238e-01  9.6424221213361605e-01  9.5608243324076392e-01  9.4698901877752883e-01  9.3697078410420576e-01  9.2603738488208598e-01  9.1419926581178446e-01  9.0146772792165375e-01  8.8785498062122714e-01  8.7337419054310761e-01  8.5803950847976074e-01  8.4186606480170401e-01  8.2486993239511797e-01  8.0706806347099436e-01  7.8847821221079017e-01  7.6911885764612742e-01  7.4900913948873649e-01  7.2816881290366497e-01  7.0661823665375989e-01  6.8437833978588347e-01  6.6147075374059727e-01  6.3791741465735108e-01  6.1374190975812648e-01  5.8896502468278356e-01  5.6362041340130931e-01  5.3764895545989844e-01  9.9524181109293886e-01  9.9461832011782936e-01  9.9321199931252979e-01  9.9078238262199558e-01  9.8739698561916345e-01  9.8304268942809037e-01  9.7772937366178825e-01  9.7145998657864885e-01  9.6424200452178732e-01  9.5608223103368284e-01  9.4698881016326186e-01  9.3697055736807577e-01  9.2603712125080950e-01  9.1419895184419786e-01  9.0146736309394915e-01  8.8785457681237046e-01  8.7337376882275131e-01  8.5803909262568157e-01  8.4186567513520594e-01  8.2486958251278208e-01  8.0706776142526937e-01  7.8847796598906539e-01  7.6911868293325414e-01  7.4900906752225127e-01  7.2816889366888427e-01  7.0661854362826571e-01  6.8437894898558937e-01  6.6147179671990231e-01  6.3791886460069702e-01  6.1374429340555725e-01  5.8896703332614109e-01  5.6362629981822399e-01  5.3764423481261792e-01  9.9525702419875872e-01  9.9462087471570282e-01  9.9321700999907314e-01  9.9078572111077701e-01  9.8740020142145168e-01  9.8304581480839659e-01  9.7773172804874120e-01  9.7146218386345784e-01  9.6424404375356843e-01  9.5608412084464856e-01  9.4699059649117301e-01  9.3697224374478261e-01  9.2603870924075471e-01  9.1420044526553268e-01  9.0146877284216320e-01  8.8785592176265904e-01  8.7337507304671791e-01  8.5804038010970263e-01  8.4186696491863777e-01  8.2487088641805006e-01  8.0706908578612302e-01  7.8847931720008935e-01  7.6912007499631152e-01  7.4901052936311097e-01  7.2817047194263085e-01  7.0662030527481146e-01  6.8438096168944795e-01  6.6147416788492874e-01  6.3792156355045093e-01  6.1374773709939989e-01  5.8897010773817049e-01  5.6363240396962633e-01  5.3764311424609235e-01  9.9527099198273039e-01  9.9462933879788773e-01  9.9322496140808636e-01  9.9079212933528649e-01  9.8740547833954717e-01  9.8305005291141412e-01  9.7773529738043907e-01  9.7146544797185264e-01  9.6424691128417550e-01  9.5608675296761236e-01  9.4699303863073980e-01  9.3697452499863654e-01  9.2604085506115452e-01  9.1420247481621775e-01  9.0147070758770154e-01  8.8785778606321542e-01  8.7337689235328553e-01  8.5804217720818654e-01  8.4186875646043813e-01  8.2487268162172178e-01  8.0707088847416997e-01  7.8848113097218786e-01  7.6912190997492935e-01  7.4901240837193717e-01  7.2817243265301734e-01  7.0662240069677107e-01  6.8438324382526239e-01  6.6147671258529750e-01  6.3792434034329093e-01  6.1375102775700774e-01  5.8897310012585125e-01  5.6363729233366011e-01  5.3764472690624887e-01  9.9528167068083517e-01  9.9464330478655116e-01  9.9323522986737711e-01  9.9080085442021559e-01  9.8741255012483287e-01  9.8305609187382315e-01  9.7774053655281323e-01  9.7147005972536571e-01  9.6425101920147738e-01  9.5609053229012608e-01  9.4699653528403005e-01  9.3697780547161080e-01  9.2604396044194914e-01  9.1420543821545730e-01  9.0147355943066620e-01  8.8786055469742964e-01  8.7337960362356859e-01  8.5804485199324088e-01  8.4187140846209152e-01  8.2487531681828374e-01  8.0707350716628579e-01  7.8848373222315526e-01  7.6912449719196552e-01  7.4901499408245054e-01  7.2817504004602840e-01  7.0662506242661349e-01  6.8438599032565450e-01  6.6147958219859015e-01  6.3792730454186097e-01  6.1375421017073095e-01  5.8897607761536308e-01  5.6364061981605929e-01  5.3765043511374611e-01  9.9528742240993828e-01  9.9466188254860866e-01  9.9324688516307347e-01  9.9081133400996491e-01  9.8742094465773589e-01  9.8306323173501953e-01  9.7774662903395626e-01  9.7147538772491904e-01  9.6425576772068222e-01  9.5609484086620733e-01  9.4700049043105528e-01  9.3698149457148672e-01  9.2604743708314896e-01  9.1420874956367748e-01  9.0147674388125476e-01  8.8786364492505609e-01  8.7338262660206856e-01  8.5804782757225884e-01  8.4187434815564510e-01  8.2487822375542341e-01  8.0707637795838350e-01  7.8848656054123656e-01  7.6912727812090986e-01  7.4901772753870788e-01  7.2817773192863700e-01  7.0662772208541580e-01  6.8438862425413693e-01  6.6148218869230935e-01  6.3792985787274881e-01  6.1375666168247456e-01  5.8897842944719048e-01  5.6364162606859070e-01  5.3765995276310463e-01  9.9528726133646506e-01  9.9468379301089860e-01  9.9325902436164326e-01  9.9082281594819677e-01  9.8743002304575433e-01  9.8307099325424629e-01  9.7775324323476420e-01  9.7148115250853639e-01  9.6426085846225240e-01  9.5609940663032367e-01  9.4700464589000866e-01  9.3698533272705031e-01  9.2605102547790363e-01  9.1421214631075232e-01  9.0147999446357685e-01  8.8786678677506548e-01  8.7338568869747990e-01  8.5805082993703019e-01  8.4187730127758853e-01  8.2488112883018783e-01  8.0707922848184188e-01  7.8848934503008705e-01  7.6912998332371518e-01  7.4902034065003165e-01  7.2818024151106020e-01  7.0663011440023848e-01  6.8439088223397360e-01  6.6148427089452666e-01  6.3793174052552337e-01  6.1375811976522454e-01  5.8897989235560577e-01  5.6364001580017964e-01  5.3767312751691498e-01  9.9528099919624047e-01  9.9470755073795691e-01  9.9327081011475993e-01  9.9083454712902019e-01  9.8743919714969286e-01  9.8307886039093695e-01  9.7775989935942598e-01  9.7148689861654525e-01  9.6426586694210692e-01  9.5610383275517197e-01  9.4700860966955425e-01  9.3698893196167121e-01  9.2605433886324173e-01  9.1421523935164417e-01  9.0148291948189241e-01  8.8786958622598644e-01  8.7338839460621798e-01  8.5805346397269999e-01  8.4187987449495050e-01  8.2488364210311127e-01  8.0708167381843532e-01  7.8849170755237363e-01  7.6913224350528187e-01  7.4902247551357926e-01  7.2818222536735699e-01  7.0663191410504445e-01  6.8439246062479975e-01  6.6148555094727035e-01  6.3793269877825698e-01  6.1375836792849381e-01  5.8898023864059912e-01  5.6363575926384646e-01  5.3768927197297423e-01  9.9526926784405489e-01  9.9473162018166317e-01  9.9328158484439244e-01  9.9084584835983425e-01  9.8744794194689212e-01  9.8308637248843089e-01  9.7776619718304314e-01  9.7149226819848089e-01  9.6427046389278848e-01  9.5610780599708434e-01  9.4701207757729577e-01  9.3699199528990962e-01  9.2605708185303259e-01  9.1421773273120366e-01  9.0148522156068334e-01  8.8787174421959769e-01  8.7339044426647472e-01  8.5805542974775562e-01  8.4188176949943005e-01  8.2488546871160273e-01  8.0708342478474071e-01  7.8849336742864085e-01  7.6913379010398752e-01  7.4902388025768762e-01  7.2818345378495064e-01  7.0663292002820055e-01  6.8439319281751632e-01  6.6148590489661818e-01  6.3793264997704968e-01  6.1375739721712608e-01  5.8897944239602629e-01  5.6362923130630360e-01  5.3770747217033865e-01  9.9525340776397242e-01  9.9475457920849519e-01  9.9329091269783054e-01  9.9085617280703786e-01  9.8745585234808286e-01  9.8309316589915297e-01  9.7777181860785378e-01  9.7149697295067039e-01  9.6427438466939086e-01  9.5611107970435882e-01  9.4701481637720730e-01  9.3699429840564652e-01  9.2605903503406917e-01  9.1421941005789076e-01  9.0148668568185408e-01  8.8787304638038556e-01  8.7339162393450354e-01  8.5805651464057187e-01  8.4188277582330906e-01  8.2488640193702256e-01  8.0708428071636273e-01  7.8849413326454942e-01  7.6913444531184372e-01  7.4902439621454109e-01  7.2818379392125909e-01  7.0663303303959168e-01  6.8439302110980571e-01  6.6148532799517379e-01  6.3793164226134236e-01  6.1375536068959557e-01  5.8897763560879979e-01  5.6362115072865226e-01  5.3772659829255320e-01  9.9523525648349320e-01  9.9477524270985707e-01  9.9329858456329656e-01  9.9086513844152002e-01  9.8746265981563186e-01  9.8309899303897241e-01  9.7777655286485343e-01  9.7150082843376240e-01  9.6427746848768858e-01  9.5611351239269704e-01  9.4701670021382189e-01  9.3699572769547401e-01  9.2606009419869584e-01  9.1422017422565660e-01  9.0148721979444801e-01  8.8787340437253937e-01  8.7339184809893544e-01  8.5805663559704648e-01  8.4188281309571555e-01  8.2488636498155277e-01  8.0708417013636113e-01  7.8849394166905706e-01  7.6913415775707916e-01  7.4902398924346325e-01  7.2818323529001339e-01  7.0663227413904839e-01  6.8439200612421858e-01  6.6148393395413496e-01  6.3792984435293343e-01  6.1375254850642647e-01  5.8897508525066755e-01  5.6361248979859657e-01  5.3774542021571214e-01  9.9521687215174814e-01  9.9479274051647615e-01  9.9330458624529916e-01  9.9087253027088606e-01  9.8746822894685149e-01  9.8310372428045190e-01  9.7778029830030211e-01  9.7150375530688426e-01  9.6427965873401733e-01  9.5611506805638458e-01  9.4701771170420646e-01  9.3699628205788432e-01  9.2606027212364794e-01  9.1422004950158453e-01  9.0148685740505563e-01  8.8787285897184798e-01  8.7339116310010445e-01  8.5805584325185236e-01  8.4188193549329648e-01  8.2488541544985483e-01  8.0708315481575599e-01  7.8849286016405729e-01  7.6913300336178292e-01  7.4902274748092124e-01  7.2818188318354993e-01  7.0663077208210456e-01  6.8439030716391380e-01  6.6148192562662245e-01  6.3792750644716356e-01  6.1374932884778122e-01  5.8897213511689561e-01  5.6360431950768075e-01  5.3776269797969112e-01  9.9520025396729317e-01  9.9480655025993547e-01  9.9330905147983428e-01  9.9087828609063688e-01  9.8747254219077440e-01  9.8310733855304433e-01  9.7778305477283656e-01  9.7150577347406597e-01  9.6428099795424593e-01  9.5611581136587087e-01  9.4701793672343315e-01  9.3699606695863458e-01  9.2605969190771564e-01  9.1421917439350697e-01  9.0148575006305198e-01  8.8787157236846947e-01  8.7338973945458120e-01  8.5805431439228008e-01  8.4188032438655713e-01  8.2488373816004323e-01  8.0708142254517068e-01  7.8849107954949504e-01  7.6913117709373080e-01  7.4902087174693943e-01  7.2817994645189721e-01  7.0662874696936406e-01  6.8438816023245219e-01  6.6147956517665907e-01  6.3792492229996600e-01  6.1374608849531576e-01  5.8896914753635232e-01  5.6359763300575183e-01  5.3777727875655890e-01  9.9518705728631773e-01  9.9481647598989620e-01  9.9331218961022216e-01  9.9088245111763640e-01  9.8747565722329256e-01  9.8310988589192638e-01  9.7778488777458072e-01  9.7150696710281392e-01  9.6428159279830605e-01  9.5611587204525617e-01  9.4701752787032500e-01  9.3699525684117768e-01  9.2605854832433943e-01  9.1421776206131411e-01  9.0148412703441139e-01  8.8786978741425926e-01  8.7338783098321104e-01  8.5805231126344650e-01  8.4187824812302980e-01  8.2488160568013680e-01  8.0707924854473345e-01  7.8848887663000744e-01  7.6912895718500141e-01  7.4901864017078090e-01  7.2817770329954512e-01  7.0662647905031206e-01  6.8438585044963351e-01  6.6147714699506133e-01  6.3792239853708155e-01  6.1374318230917835e-01  5.8896645330922692e-01  5.6359318164670369e-01  5.3778819012665402e-01  9.9517851481810760e-01  9.9482264731481340e-01  9.9331429098354351e-01  9.9088519317860924e-01  9.8747772698237346e-01  9.8311150913535394e-01  9.7778595017858605e-01  9.7150750552125087e-01  9.6428163335124706e-01  9.5611546213316301e-01  9.4701671926721409e-01  9.3699410723824961e-01  9.2605711716794992e-01  9.1421610695873001e-01  9.0148229941101754e-01  8.8786782945887510e-01  8.7338577468538159e-01  8.5805017984749776e-01  8.4187605914553854e-01  8.2487937468253469e-01  8.0707699161988389e-01  7.8848661105899132e-01  7.6912670206639511e-01  7.4901640679516213e-01  7.2817550607537151e-01  7.0662431333375098e-01  6.8438370595537779e-01  6.6147497729875615e-01  6.3792022718668340e-01  6.1374090035204343e-01  5.8896432600504012e-01  5.6359135407524208e-01  5.3779473077680873e-01  9.9517498694489270e-01  9.9482533958659558e-01  9.9331550898993881e-01  9.9088659965134163e-01  9.8747879978184916e-01  9.8311224657384344e-01  9.7778628670690237e-01  9.7150744917849341e-01  9.6428120022493402e-01  9.5611468396830923e-01  9.4701563527201715e-01  9.3699276415203814e-01  9.2605556532608124e-01  9.1421439571431151e-01  9.0148047201900028e-01  8.8786591961359596e-01  8.7338380579168828e-01  8.5804816725063815e-01  8.4187401433565956e-01  8.2487730992211383e-01  8.0707492285985405e-01  7.8848455917701188e-01  7.6912469015791329e-01  7.4901445309271009e-01  7.2817363726696149e-01  7.0662251170407453e-01  6.8438198550501361e-01  6.6147333236096884e-01  6.3791869454503991e-01  6.1373946873813179e-01  5.8896295449171499e-01  5.6359213641995010e-01  5.3779654270895083e-01  9.9517701390087854e-01  9.9482528923950997e-01  9.9331636411367186e-01  9.9088713913172499e-01  9.8747928455933542e-01  9.8311248877032920e-01  9.7778628512099308e-01  9.7150719367450011e-01  9.6428070089108664e-01  9.5611395811276201e-01  9.4701470949017763e-01  9.3699167369044933e-01  9.2605435060958474e-01  9.1421309676699813e-01  9.0147912255337992e-01  8.8786454318945129e-01  8.7338241542914752e-01  8.5804676862614093e-01  8.4187261127154456e-01  8.2487591007855865e-01  8.0707354129190245e-01  7.8848321916257236e-01  7.6912341778843274e-01  7.4901327613873048e-01  7.2817257762449772e-01  7.0662154770496766e-01  6.8438119358846983e-01  6.6147261556716463e-01  6.3791802751706028e-01  6.1373898104252778e-01  5.8896249875880080e-01  5.6359512027328296e-01  5.3779365918676747e-01  9.9518272117683404e-01  9.9482268916299532e-01  9.9331639339834077e-01  9.9088636691818033e-01  9.8747865582234950e-01  9.8311169944339505e-01  9.7778541235860339e-01  9.7150622267256181e-01  9.6427963974370345e-01  9.5611281134465353e-01  9.4701349126325962e-01  9.3699040742825501e-01  9.2605306612358862e-01  9.1421182381159338e-01  9.0147788425148145e-01  8.8786335197355104e-01  8.7338127315306890e-01  8.5804567086466232e-01  8.4187155418422899e-01  8.2487489727026930e-01  8.0707258794120962e-01  7.8848235183165694e-01  7.6912266883995217e-01  7.4901268020475642e-01  7.2817214730380864e-01  7.0662129883181291e-01  6.8438115824653256e-01  6.6147256289805623e-01  6.3791831462517368e-01  6.1373969853133015e-01  5.8896296917617263e-01  5.6359961515883139e-01  5.3778650134558237e-01  9.9519391913692989e-01  9.9481919552873643e-01  9.9331700106949150e-01  9.9088560230419098e-01  9.87478132002