<?xml version="1.0"?>
<VTKFile type="UnstructuredGrid"  version="0.1"  >
<UnstructuredGrid>
<Piece  NumberOfPoints="81" NumberOfCells="128">
<Points>
<DataArray  type="Float64"  NumberOfComponents="3"  format="ascii">0 0 0  0.125 0 0  0.25 0 0  0.375 0 0  0.5 0 0  0.625 0 0  0.75 0 0  0.875 0 0  1 0 0  0 0.125 0  0.125 0.125 0  0.25 0.125 0  0.375 0.125 0  0.5 0.125 0  0.625 0.125 0  0.75 0.125 0  0.875 0.125 0  1 0.125 0  0 0.25 0  0.125 0.25 0  0.25 0.25 0  0.375 0.25 0  0.5 0.25 0  0.625 0.25 0  0.75 0.25 0  0.875 0.25 0  1 0.25 0  0 0.375 0  0.125 0.375 0  0.25 0.375 0  0.375 0.375 0  0.5 0.375 0  0.625 0.375 0  0.75 0.375 0  0.875 0.375 0  1 0.375 0  0 0.5 0  0.125 0.5 0  0.25 0.5 0  0.375 0.5 0  0.5 0.5 0  0.625 0.5 0  0.75 0.5 0  0.875 0.5 0  1 0.5 0  0 0.625 0  0.125 0.625 0  0.25 0.625 0  0.375 0.625 0  0.5 0.625 0  0.625 0.625 0  0.75 0.625 0  0.875 0.625 0  1 0.625 0  0 0.75 0  0.125 0.75 0  0.25 0.75 0  0.375 0.75 0  0.5 0.75 0  0.625 0.75 0  0.75 0.75 0  0.875 0.75 0  1 0.75 0  0 0.875 0  0.125 0.875 0  0.25 0.875 0  0.375 0.875 0  0.5 0.875 0  0.625 0.875 0  0.75 0.875 0  0.875 0.875 0  1 0.875 0  0 1 0  0.125 1 0  0.25 1 0  0.375 1 0  0.5 1 0  0.625 1 0  0.75 1 0  0.875 1 0  1 1 0  </DataArray>
</Points>
<Cells>
<DataArray  type="UInt32"  Name="connectivity"  format="ascii">0 1 10  0 9 10  1 2 11  1 10 11  2 3 12  2 11 12  3 4 13  3 12 13  4 5 14  4 13 14  5 6 15  5 14 15  6 7 16  6 15 16  7 8 17  7 16 17  9 10 19  9 18 19  10 11 20  10 19 20  11 12 21  11 20 21  12 13 22  12 21 22  13 14 23  13 22 23  14 15 24  14 23 24  15 16 25  15 24 25  16 17 26  16 25 26  18 19 28  18 27 28  19 20 29  19 28 29  20 21 30  20 29 30  21 22 31  21 30 31  22 23 32  22 31 32  23 24 33  23 32 33  24 25 34  24 33 34  25 26 35  25 34 35  27 28 37  27 36 37  28 29 38  28 37 38  29 30 39  29 38 39  30 31 40  30 39 40  31 32 41  31 40 41  32 33 42  32 41 42  33 34 43  33 42 43  34 35 44  34 43 44  36 37 46  36 45 46  37 38 47  37 46 47  38 39 48  38 47 48  39 40 49  39 48 49  40 41 50  40 49 50  41 42 51  41 50 51  42 43 52  42 51 52  43 44 53  43 52 53  45 46 55  45 54 55  46 47 56  46 55 56  47 48 57  47 56 57  48 49 58  48 57 58  49 50 59  49 58 59  50 51 60  50 59 60  51 52 61  51 60 61  52 53 62  52 61 62  54 55 64  54 63 64  55 56 65  55 64 65  56 57 66  56 65 66  57 58 67  57 66 67  58 59 68  58 67 68  59 60 69  59 68 69  60 61 70  60 69 70  61 62 71  61 70 71  63 64 73  63 72 73  64 65 74  64 73 74  65 66 75  65 74 75  66 67 76  66 75 76  67 68 77  67 76 77  68 69 78  68 77 78  69 70 79  69 78 79  70 71 80  70 79 80  </DataArray>
<DataArray  type="UInt32"  Name="offsets"  format="ascii">3 6 9 12 15 18 21 24 27 30 33 36 39 42 45 48 51 54 57 60 63 66 69 72 75 78 81 84 87 90 93 96 99 102 105 108 111 114 117 120 123 126 129 132 135 138 141 144 147 150 153 156 159 162 165 168 171 174 177 180 183 186 189 192 195 198 201 204 207 210 213 216 219 222 225 228 231 234 237 240 243 246 249 252 255 258 261 264 267 270 273 276 279 282 285 288 291 294 297 300 303 306 309 312 315 318 321 324 327 330 333 336 339 342 345 348 351 354 357 360 363 366 369 372 375 378 381 384 </DataArray>
<DataArray  type="UInt8"  Name="types"  format="ascii">5 5 5 5 5 5 5 5 5 5 5 5 5 5 5 5 5 5 5 5 5 5 5 5 5 5 5 5 5 5 5 5 5 5 5 5 5 5 5 5 5 5 5 5 5 5 5 5 5 5 5 5 5 5 5 5 5 5 5 5 5 5 5 5 5 5 5 5 5 5 5 5 5 5 5 5 5 5 5 5 5 5 5 5 5 5 5 5 5 5 5 5 5 5 5 5 5 5 5 5 5 5 5 5 5 5 5 5 5 5 5 5 5 5 5 5 5 5 5 5 5 5 5 5 5 5 5 5 </DataArray>
</Cells>
<PointData  Scalars="f_301"> 
<DataArray  type="Float64"  Name="f_301"  format="ascii">9.7177108182826000e-01  9.8831492549155509e-01  9.7253700683563571e-01  9.3991615785634219e-01  8.8498934577138022e-01  8.1400019867237849e-01  7.3190368273604578e-01  6.3000469343894772e-01  5.3777799901862311e-01  1.0087378554888202e+00  9.9498810859600573e-01  9.6741251971304909e-01  9.2776191174568945e-01  8.7538684900679931e-01  8.1073593846761216e-01  7.3170237704077690e-01  6.3997469080454172e-01  5.5190158552026569e-01  1.0046812222408124e+00  9.9082456010986442e-01  9.6637031607854396e-01  9.2962448863467395e-01  8.7881600550400707e-01  8.1076465355450045e-01  7.2890654293713864e-01  6.4008262748110778e-01  5.4393289114155374e-01  9.9775279161504560e-01  9.9168591486420887e-01  9.6807623307028656e-01  9.3100485853132176e-01  8.7800313364442961e-01  8.0964229422554324e-01  7.3008863886025654e-01  6.4300299642775471e-01  5.3654780558312654e-01  9.9013658983639896e-01  9.9225182341016638e-01  9.6824690256775481e-01  9.3034396993071355e-01  8.7762545671104186e-01  8.1133626786896829e-01  7.3183352061564799e-01  6.4303427934072632e-01  5.3110652174040074e-01  9.8824600878847857e-01  9.9120425341286911e-01  9.6558915086796249e-01  9.2843958406568272e-01  8.7778627033024326e-01  8.1159140522430528e-01  7.3050227709948523e-01  6.4147963762858407e-01  5.3338869341445305e-01  9.9365373597030626e-01  9.8747549961761294e-01  9.6434707370430339e-01  9.2955070324820854e-01  8.7852610118315788e-01  8.0984246532678306e-01  7.2908664362084807e-01  6.4106512111514380e-01  5.3949021685257026e-01  9.9336686877231140e-01  9.9044302381534222e-01  9.6709323785865453e-01  9.2966590096230117e-01  8.7515502374934506e-01  8.0826744943166617e-01  7.3186197441476608e-01  6.4251487488810111e-01  5.4392973179004045e-01  1.0306760023677695e+00  9.7719302773036232e-01  9.6843826275700629e-01  9.3326706404897941e-01  8.8491350199025909e-01  8.2079097198987783e-01  7.3646626652922442e-01  6.3744447801185622e-01  5.3829483131409539e-01  </DataArray> 
</PointData> 
</Piece>
</UnstructuredGrid>
</VTKFile>