<?xml version="1.0"?>
<VTKFile type="UnstructuredGrid"  version="0.1"  >
<UnstructuredGrid>
<Piece  NumberOfPoints="1089" NumberOfCells="2048">
<Points>
<DataArray  type="Float64"  NumberOfComponents="3"  format="ascii">0 0 0  0.03125 0 0  0.0625 0 0  0.09375 0 0  0.125 0 0  0.15625 0 0  0.1875 0 0  0.21875 0 0  0.25 0 0  0.28125 0 0  0.3125 0 0  0.34375 0 0  0.375 0 0  0.40625 0 0  0.4375 0 0  0.46875 0 0  0.5 0 0  0.53125 0 0  0.5625 0 0  0.59375 0 0  0.625 0 0  0.65625 0 0  0.6875 0 0  0.71875 0 0  0.75 0 0  0.78125 0 0  0.8125 0 0  0.84375 0 0  0.875 0 0  0.90625 0 0  0.9375 0 0  0.96875 0 0  1 0 0  0 0.03125 0  0.03125 0.03125 0  0.0625 0.03125 0  0.09375 0.03125 0  0.125 0.03125 0  0.15625 0.03125 0  0.1875 0.03125 0  0.21875 0.03125 0  0.25 0.03125 0  0.28125 0.03125 0  0.3125 0.03125 0  0.34375 0.03125 0  0.375 0.03125 0  0.40625 0.03125 0  0.4375 0.03125 0  0.46875 0.03125 0  0.5 0.03125 0  0.53125 0.03125 0  0.5625 0.03125 0  0.59375 0.03125 0  0.625 0.03125 0  0.65625 0.03125 0  0.6875 0.03125 0  0.71875 0.03125 0  0.75 0.03125 0  0.78125 0.03125 0  0.8125 0.03125 0  0.84375 0.03125 0  0.875 0.03125 0  0.90625 0.03125 0  0.9375 0.03125 0  0.96875 0.03125 0  1 0.03125 0  0 0.0625 0  0.03125 0.0625 0  0.0625 0.0625 0  0.09375 0.0625 0  0.125 0.0625 0  0.15625 0.0625 0  0.1875 0.0625 0  0.21875 0.0625 0  0.25 0.0625 0  0.28125 0.0625 0  0.3125 0.0625 0  0.34375 0.0625 0  0.375 0.0625 0  0.40625 0.0625 0  0.4375 0.0625 0  0.46875 0.0625 0  0.5 0.0625 0  0.53125 0.0625 0  0.5625 0.0625 0  0.59375 0.0625 0  0.625 0.0625 0  0.65625 0.0625 0  0.6875 0.0625 0  0.71875 0.0625 0  0.75 0.0625 0  0.78125 0.0625 0  0.8125 0.0625 0  0.84375 0.0625 0  0.875 0.0625 0  0.90625 0.0625 0  0.9375 0.0625 0  0.96875 0.0625 0  1 0.0625 0  0 0.09375 0  0.03125 0.09375 0  0.0625 0.09375 0  0.09375 0.09375 0  0.125 0.09375 0  0.15625 0.09375 0  0.1875 0.09375 0  0.21875 0.09375 0  0.25 0.09375 0  0.28125 0.09375 0  0.3125 0.09375 0  0.34375 0.09375 0  0.375 0.09375 0  0.40625 0.09375 0  0.4375 0.09375 0  0.46875 0.09375 0  0.5 0.09375 0  0.53125 0.09375 0  0.5625 0.09375 0  0.59375 0.09375 0  0.625 0.09375 0  0.65625 0.09375 0  0.6875 0.09375 0  0.71875 0.09375 0  0.75 0.09375 0  0.78125 0.09375 0  0.8125 0.09375 0  0.84375 0.09375 0  0.875 0.09375 0  0.90625 0.09375 0  0.9375 0.09375 0  0.96875 0.09375 0  1 0.09375 0  0 0.125 0  0.03125 0.125 0  0.0625 0.125 0  0.09375 0.125 0  0.125 0.125 0  0.15625 0.125 0  0.1875 0.125 0  0.21875 0.125 0  0.25 0.125 0  0.28125 0.125 0  0.3125 0.125 0  0.34375 0.125 0  0.375 0.125 0  0.40625 0.125 0  0.4375 0.125 0  0.46875 0.125 0  0.5 0.125 0  0.53125 0.125 0  0.5625 0.125 0  0.59375 0.125 0  0.625 0.125 0  0.65625 0.125 0  0.6875 0.125 0  0.71875 0.125 0  0.75 0.125 0  0.78125 0.125 0  0.8125 0.125 0  0.84375 0.125 0  0.875 0.125 0  0.90625 0.125 0  0.9375 0.125 0  0.96875 0.125 0  1 0.125 0  0 0.15625 0  0.03125 0.15625 0  0.0625 0.15625 0  0.09375 0.15625 0  0.125 0.15625 0  0.15625 0.15625 0  0.1875 0.15625 0  0.21875 0.15625 0  0.25 0.15625 0  0.28125 0.15625 0  0.3125 0.15625 0  0.34375 0.15625 0  0.375 0.15625 0  0.40625 0.15625 0  0.4375 0.15625 0  0.46875 0.15625 0  0.5 0.15625 0  0.53125 0.15625 0  0.5625 0.15625 0  0.59375 0.15625 0  0.625 0.15625 0  0.65625 0.15625 0  0.6875 0.15625 0  0.71875 0.15625 0  0.75 0.15625 0  0.78125 0.15625 0  0.8125 0.15625 0  0.84375 0.15625 0  0.875 0.15625 0  0.90625 0.15625 0  0.9375 0.15625 0  0.96875 0.15625 0  1 0.15625 0  0 0.1875 0  0.03125 0.1875 0  0.0625 0.1875 0  0.09375 0.1875 0  0.125 0.1875 0  0.15625 0.1875 0  0.1875 0.1875 0  0.21875 0.1875 0  0.25 0.1875 0  0.28125 0.1875 0  0.3125 0.1875 0  0.34375 0.1875 0  0.375 0.1875 0  0.40625 0.1875 0  0.4375 0.1875 0  0.46875 0.1875 0  0.5 0.1875 0  0.53125 0.1875 0  0.5625 0.1875 0  0.59375 0.1875 0  0.625 0.1875 0  0.65625 0.1875 0  0.6875 0.1875 0  0.71875 0.1875 0  0.75 0.1875 0  0.78125 0.1875 0  0.8125 0.1875 0  0.84375 0.1875 0  0.875 0.1875 0  0.90625 0.1875 0  0.9375 0.1875 0  0.96875 0.1875 0  1 0.1875 0  0 0.21875 0  0.03125 0.21875 0  0.0625 0.21875 0  0.09375 0.21875 0  0.125 0.21875 0  0.15625 0.21875 0  0.1875 0.21875 0  0.21875 0.21875 0  0.25 0.21875 0  0.28125 0.21875 0  0.3125 0.21875 0  0.34375 0.21875 0  0.375 0.21875 0  0.40625 0.21875 0  0.4375 0.21875 0  0.46875 0.21875 0  0.5 0.21875 0  0.53125 0.21875 0  0.5625 0.21875 0  0.59375 0.21875 0  0.625 0.21875 0  0.65625 0.21875 0  0.6875 0.21875 0  0.71875 0.21875 0  0.75 0.21875 0  0.78125 0.21875 0  0.8125 0.21875 0  0.84375 0.21875 0  0.875 0.21875 0  0.90625 0.21875 0  0.9375 0.21875 0  0.96875 0.21875 0  1 0.21875 0  0 0.25 0  0.03125 0.25 0  0.0625 0.25 0  0.09375 0.25 0  0.125 0.25 0  0.15625 0.25 0  0.1875 0.25 0  0.21875 0.25 0  0.25 0.25 0  0.28125 0.25 0  0.3125 0.25 0  0.34375 0.25 0  0.375 0.25 0  0.40625 0.25 0  0.4375 0.25 0  0.46875 0.25 0  0.5 0.25 0  0.53125 0.25 0  0.5625 0.25 0  0.59375 0.25 0  0.625 0.25 0  0.65625 0.25 0  0.6875 0.25 0  0.71875 0.25 0  0.75 0.25 0  0.78125 0.25 0  0.8125 0.25 0  0.84375 0.25 0  0.875 0.25 0  0.90625 0.25 0  0.9375 0.25 0  0.96875 0.25 0  1 0.25 0  0 0.28125 0  0.03125 0.28125 0  0.0625 0.28125 0  0.09375 0.28125 0  0.125 0.28125 0  0.15625 0.28125 0  0.1875 0.28125 0  0.21875 0.28125 0  0.25 0.28125 0  0.28125 0.28125 0  0.3125 0.28125 0  0.34375 0.28125 0  0.375 0.28125 0  0.40625 0.28125 0  0.4375 0.28125 0  0.46875 0.28125 0  0.5 0.28125 0  0.53125 0.28125 0  0.5625 0.28125 0  0.59375 0.28125 0  0.625 0.28125 0  0.65625 0.28125 0  0.6875 0.28125 0  0.71875 0.28125 0  0.75 0.28125 0  0.78125 0.28125 0  0.8125 0.28125 0  0.84375 0.28125 0  0.875 0.28125 0  0.90625 0.28125 0  0.9375 0.28125 0  0.96875 0.28125 0  1 0.28125 0  0 0.3125 0  0.03125 0.3125 0  0.0625 0.3125 0  0.09375 0.3125 0  0.125 0.3125 0  0.15625 0.3125 0  0.1875 0.3125 0  0.21875 0.3125 0  0.25 0.3125 0  0.28125 0.3125 0  0.3125 0.3125 0  0.34375 0.3125 0  0.375 0.3125 0  0.40625 0.3125 0  0.4375 0.3125 0  0.46875 0.3125 0  0.5 0.3125 0  0.53125 0.3125 0  0.5625 0.3125 0  0.59375 0.3125 0  0.625 0.3125 0  0.65625 0.3125 0  0.6875 0.3125 0  0.71875 0.3125 0  0.75 0.3125 0  0.78125 0.3125 0  0.8125 0.3125 0  0.84375 0.3125 0  0.875 0.3125 0  0.90625 0.3125 0  0.9375 0.3125 0  0.96875 0.3125 0  1 0.3125 0  0 0.34375 0  0.03125 0.34375 0  0.0625 0.34375 0  0.09375 0.34375 0  0.125 0.34375 0  0.15625 0.34375 0  0.1875 0.34375 0  0.21875 0.34375 0  0.25 0.34375 0  0.28125 0.34375 0  0.3125 0.34375 0  0.34375 0.34375 0  0.375 0.34375 0  0.40625 0.34375 0  0.4375 0.34375 0  0.46875 0.34375 0  0.5 0.34375 0  0.53125 0.34375 0  0.5625 0.34375 0  0.59375 0.34375 0  0.625 0.34375 0  0.65625 0.34375 0  0.6875 0.34375 0  0.71875 0.34375 0  0.75 0.34375 0  0.78125 0.34375 0  0.8125 0.34375 0  0.84375 0.34375 0  0.875 0.34375 0  0.90625 0.34375 0  0.9375 0.34375 0  0.96875 0.34375 0  1 0.34375 0  0 0.375 0  0.03125 0.375 0  0.0625 0.375 0  0.09375 0.375 0  0.125 0.375 0  0.15625 0.375 0  0.1875 0.375 0  0.21875 0.375 0  0.25 0.375 0  0.28125 0.375 0  0.3125 0.375 0  0.34375 0.375 0  0.375 0.375 0  0.40625 0.375 0  0.4375 0.375 0  0.46875 0.375 0  0.5 0.375 0  0.53125 0.375 0  0.5625 0.375 0  0.59375 0.375 0  0.625 0.375 0  0.65625 0.375 0  0.6875 0.375 0  0.71875 0.375 0  0.75 0.375 0  0.78125 0.375 0  0.8125 0.375 0  0.84375 0.375 0  0.875 0.375 0  0.90625 0.375 0  0.9375 0.375 0  0.96875 0.375 0  1 0.375 0  0 0.40625 0  0.03125 0.40625 0  0.0625 0.40625 0  0.09375 0.40625 0  0.125 0.40625 0  0.15625 0.40625 0  0.1875 0.40625 0  0.21875 0.40625 0  0.25 0.40625 0  0.28125 0.40625 0  0.3125 0.40625 0  0.34375 0.40625 0  0.375 0.40625 0  0.40625 0.40625 0  0.4375 0.40625 0  0.46875 0.40625 0  0.5 0.40625 0  0.53125 0.40625 0  0.5625 0.40625 0  0.59375 0.40625 0  0.625 0.40625 0  0.65625 0.40625 0  0.6875 0.40625 0  0.71875 0.40625 0  0.75 0.40625 0  0.78125 0.40625 0  0.8125 0.40625 0  0.84375 0.40625 0  0.875 0.40625 0  0.90625 0.40625 0  0.9375 0.40625 0  0.96875 0.40625 0  1 0.40625 0  0 0.4375 0  0.03125 0.4375 0  0.0625 0.4375 0  0.09375 0.4375 0  0.125 0.4375 0  0.15625 0.4375 0  0.1875 0.4375 0  0.21875 0.4375 0  0.25 0.4375 0  0.28125 0.4375 0  0.3125 0.4375 0  0.34375 0.4375 0  0.375 0.4375 0  0.40625 0.4375 0  0.4375 0.4375 0  0.46875 0.4375 0  0.5 0.4375 0  0.53125 0.4375 0  0.5625 0.4375 0  0.59375 0.4375 0  0.625 0.4375 0  0.65625 0.4375 0  0.6875 0.4375 0  0.71875 0.4375 0  0.75 0.4375 0  0.78125 0.4375 0  0.8125 0.4375 0  0.84375 0.4375 0  0.875 0.4375 0  0.90625 0.4375 0  0.9375 0.4375 0  0.96875 0.4375 0  1 0.4375 0  0 0.46875 0  0.03125 0.46875 0  0.0625 0.46875 0  0.09375 0.46875 0  0.125 0.46875 0  0.15625 0.46875 0  0.1875 0.46875 0  0.21875 0.46875 0  0.25 0.46875 0  0.28125 0.46875 0  0.3125 0.46875 0  0.34375 0.46875 0  0.375 0.46875 0  0.40625 0.46875 0  0.4375 0.46875 0  0.46875 0.46875 0  0.5 0.46875 0  0.53125 0.46875 0  0.5625 0.46875 0  0.59375 0.46875 0  0.625 0.46875 0  0.65625 0.46875 0  0.6875 0.46875 0  0.71875 0.46875 0  0.75 0.46875 0  0.78125 0.46875 0  0.8125 0.46875 0  0.84375 0.46875 0  0.875 0.46875 0  0.90625 0.46875 0  0.9375 0.46875 0  0.96875 0.46875 0  1 0.46875 0  0 0.5 0  0.03125 0.5 0  0.0625 0.5 0  0.09375 0.5 0  0.125 0.5 0  0.15625 0.5 0  0.1875 0.5 0  0.21875 0.5 0  0.25 0.5 0  0.28125 0.5 0  0.3125 0.5 0  0.34375 0.5 0  0.375 0.5 0  0.40625 0.5 0  0.4375 0.5 0  0.46875 0.5 0  0.5 0.5 0  0.53125 0.5 0  0.5625 0.5 0  0.59375 0.5 0  0.625 0.5 0  0.65625 0.5 0  0.6875 0.5 0  0.71875 0.5 0  0.75 0.5 0  0.78125 0.5 0  0.8125 0.5 0  0.84375 0.5 0  0.875 0.5 0  0.90625 0.5 0  0.9375 0.5 0  0.96875 0.5 0  1 0.5 0  0 0.53125 0  0.03125 0.53125 0  0.0625 0.53125 0  0.09375 0.53125 0  0.125 0.53125 0  0.15625 0.53125 0  0.1875 0.53125 0  0.21875 0.53125 0  0.25 0.53125 0  0.28125 0.53125 0  0.3125 0.53125 0  0.34375 0.53125 0  0.375 0.53125 0  0.40625 0.53125 0  0.4375 0.53125 0  0.46875 0.53125 0  0.5 0.53125 0  0.53125 0.53125 0  0.5625 0.53125 0  0.59375 0.53125 0  0.625 0.53125 0  0.65625 0.53125 0  0.6875 0.53125 0  0.71875 0.53125 0  0.75 0.53125 0  0.78125 0.531
[...]
<PointData  Scalars="f_23387"> 
<DataArray  type="Float64"  Name="f_23387"  format="ascii">9.9514171566306486e-01  9.9660334579024967e-01  9.9487171174546796e-01  9.9245681860178303e-01  9.8905121095100879e-01  9.8468190219007690e-01  9.7935646268485910e-01  9.7307878894810329e-01  9.6585426515484241e-01  9.5768883159885188e-01  9.4858923499544845e-01  9.3856320210407651e-01  9.2761957785719129e-01  9.1576844391829237e-01  9.0302118320415214e-01  8.8939047126386916e-01  8.7489018701995147e-01  8.5953525167366784e-01  8.4334142196452511e-01  8.2632507704528968e-01  8.0850304329614664e-01  7.8989249379624471e-01  7.7051094313119439e-01  7.5037633479797994e-01  7.2950717707662671e-01  7.0792277214941457e-01  6.8564306325238533e-01  6.6268974618721821e-01  6.3908252694368362e-01  6.1484783253180997e-01  5.9001176873577266e-01  5.6452209282030974e-01  5.3861902073194468e-01  9.9705329835516443e-01  9.9662068085584143e-01  9.9485390645747951e-01  9.9256396257990753e-01  9.8914499402067113e-01  9.8478369296510893e-01  9.7945604421879595e-01  9.7317039373331049e-01  9.6593362330350130e-01  9.5775323095094822e-01  9.4863774238514664e-01  9.3859648546222607e-01  9.2763954354432632e-01  9.1577771628004878e-01  9.0302250374861781e-01  8.8938611243318477e-01  8.7488147805662697e-01  8.5952230294156962e-01  8.4332310623568008e-01  8.2629928419270759e-01  8.0846717442538774e-01  7.8984411247730046e-01  7.7044846570875647e-01  7.5029962579359710e-01  7.2941794799463711e-01  7.0782463726324329e-01  6.8554154351643559e-01  6.6259113905374933e-01  6.3899542910239382e-01  6.1478025412765924e-01  5.8995743606305096e-01  5.6457376256065384e-01  5.3870751622253288e-01  9.9698953124686274e-01  9.9635685812874264e-01  9.9495862661336598e-01  9.9256278214033467e-01  9.8913219122019713e-01  9.8477329194941166e-01  9.7944206145248491e-01  9.7315669896927792e-01  9.6592132615437087e-01  9.5774328829824451e-01  9.4863061942946403e-01  9.3859215727633116e-01  9.2763756476754677e-01  9.1577732547734603e-01  9.0302277284137145e-01  8.8938612576461706e-01  8.7488051997843086e-01  8.5952002516090786e-01  8.4331964222492295e-01  8.2629528077592862e-01  8.0846372177419057e-01  7.8984257231124144e-01  7.7045022059916679e-01  7.5030579452907908e-01  7.2942912296966111e-01  7.0784072454038427e-01  6.8556167653574418e-01  6.6261399052775338e-01  6.3901917529780228e-01  6.1480269049924596e-01  5.8998109508624463e-01  5.6459091397878891e-01  5.3863559869750677e-01  9.9698467713401040e-01  9.9644306339878408e-01  9.9499799574758585e-01  9.9254214874438340e-01  9.8914031396221591e-01  9.8477581504235145e-01  9.7944383026437565e-01  9.7315895695449606e-01  9.6592359988059162e-01  9.5774579592558451e-01  9.4863337196920405e-01  9.3859517283896321e-01  9.2764085185989165e-01  9.1578088206247266e-01  9.0302658062545227e-01  8.8939013861606719e-01  8.7488465032075202e-01  8.5952413172226250e-01  8.4332352347764694e-01  8.2629867813476909e-01  8.0846633512984778e-01  7.8984408788922189e-01  7.7045034836424631e-01  7.5030430877157916e-01  7.2942590378923411e-01  7.0783577829393030e-01  6.8555519125469355e-01  6.6260624136617707e-01  6.3901070342221000e-01  6.1479393687974160e-01  5.8997232606566241e-01  5.6457902054593767e-01  5.3862678941279307e-01  9.9702290170269081e-01  9.9644410992941290e-01  9.9498870941232942e-01  9.9255113657503391e-01  9.8914893332469456e-01  9.8477610742965382e-01  9.7944481713473286e-01  9.7315857956150942e-01  9.6592247933914044e-01  9.5774427015673014e-01  9.4863156562656747e-01  9.3859318525884450e-01  9.2763870299495010e-01  9.1577854491716371e-01  9.0302400019202955e-01  8.8938725511842054e-01  8.7488142400781577e-01  8.5952056682198230e-01  8.4331968791252443e-01  8.2629471449904912e-01  8.0846245855481191e-01  7.8984056796542690e-01  7.7044747580897965e-01  7.5030235081124652e-01  7.2942505876230312e-01  7.0783613312497573e-01  6.8555671283718644e-01  6.6260872142150928e-01  6.3901392435081317e-01  6.1479723612537762e-01  5.8997526230520503e-01  5.6458252248333585e-01  5.3861770656273478e-01  9.9703985128431327e-01  9.9644362129106046e-01  9.9499996167697147e-01  9.9255769656357751e-01  9.8914916169959410e-01  9.8477719262501240e-01  9.7944577494380414e-01  9.7315848332474442e-01  9.6592222611658785e-01  9.5774380511230395e-01  9.4863099285806751e-01  9.3859255393217589e-01  9.2763802321062827e-01  9.1577781084869114e-01  9.0302319523498087e-01  8.8938636122124726e-01  8.7488042780655551e-01  8.5951946387677380e-01  8.4331848504431461e-01  8.2629343030957236e-01  8.0846112219544197e-01  7.8983921614399855e-01  7.7044614849207016e-01  7.5030108529881456e-01  7.2942388558710325e-01  7.0783506492069614e-01  6.8555575595537976e-01  6.6260781410519998e-01  6.3901308680275737e-01  6.1479616553234528e-01  5.8997417885135750e-01  5.6458365098291596e-01  5.3860434529274781e-01  9.9705768737658262e-01  9.9644312896158371e-01  9.9500504959223035e-01  9.9255725249228177e-01  9.8915101398983885e-01  9.8477857907517719e-01  9.7944586043669790e-01  9.7315818953545952e-01  9.6592163087886085e-01  9.5774289931151690e-01  9.4862989885079696e-01  9.3859129344143910e-01  9.2763661085389371e-01  9.1577624613773712e-01  9.0302147200317195e-01  8.8938447591877900e-01  8.7487838517240479e-01  8.5951728150769902e-01  8.4331619650340339e-01  8.2629108674875151e-01  8.0845879205505833e-01  7.8983698217781861e-01  7.7044410182434786e-01  7.5029931559859075e-01  7.2942247098222412e-01  7.0783405332654181e-01  6.8555517151187562e-01  6.6260759109813594e-01  6.3901323968387236e-01  6.1479641149110553e-01  5.8997481292925980e-01  5.6458684848602980e-01  5.3859293152768295e-01  9.9707317196970147e-01  9.9644057009456921e-01  9.9500830701829901e-01  9.9255913969368592e-01  9.8915343401494049e-01  9.8477938879607529e-01  9.7944671449604748e-01  9.7315882090475037e-01  9.6592199676075252e-01  9.5774311066306628e-01  9.4862998514522423e-01  9.3859125720692194e-01  9.2763645604646172e-01  9.1577596626690705e-01  9.0302106280469430e-01  8.8938393869153864e-01  8.7487772963501420e-01  8.5951652698077907e-01  8.4331537190852457e-01  8.2629022998079960e-01  8.0845794890622980e-01  7.8983620454329462e-01  7.7044344502579831e-01  7.5029883344522730e-01  7.2942221160740606e-01  7.0783404573325082e-01  6.8555543870384894e-01  6.6260808350057177e-01  6.3901403041285976e-01  6.1479726323958572e-01  5.8997611306508779e-01  5.6459121979307458e-01  5.3858175703137356e-01  9.9708474016168780e-01  9.9643769148762829e-01  9.9501162957827449e-01  9.9255965820993397e-01  9.8915341032048709e-01  9.8477950628338418e-01  9.7944685346261640e-01  9.7315863892342447e-01  9.6592175007648895e-01  9.5774277745569225e-01  9.4862956513046415e-01  9.3859074886912286e-01  9.2763584946718725e-01  9.1577525066549892e-01  9.0302023361016959e-01  8.8938299937211629e-01  8.7487669361752374e-01  8.5951541742805937e-01  8.4331422065397532e-01  8.2628907610934477e-01  8.0845683732873674e-01  7.8983518436260858e-01  7.7044256751559248e-01  7.5029814803843442e-01  7.2942176305939954e-01  7.0783386131026149e-01  6.8555554495647886e-01  6.6260843450987272e-01  6.3901472906634194e-01  6.1479802807697215e-01  5.8997752645566681e-01  5.6459533729985156e-01  5.3857084917443243e-01  9.9709082922591530e-01  9.9643549826720423e-01  9.9501397016449222e-01  9.9255939744071298e-01  9.8915437937865225e-01  9.8478055716304336e-01  9.7944756477789519e-01  9.7315941052459320e-01  9.6592254451589632e-01  9.5774353959446989e-01  9.4863030515213520e-01  9.3859144106468118e-01  9.2763647315352193e-01  9.1577578973605611e-01  9.0302068042138117e-01  8.8938335671158586e-01  8.7487697511620233e-01  8.5951564605827335e-01  8.4331442647179200e-01  8.2628929377782490e-01  8.0845710399373194e-01  7.8983553785352401e-01  7.7044304483878689e-01  7.5029878253987459e-01  7.2942258357729883e-01  7.0783488096909175e-01  6.8555678265985509e-01  6.6260983600794965e-01  6.3901641768519424e-01  6.1479965209526777e-01  5.8997987958065690e-01  5.6459954237793708e-01  5.3856332415018093e-01  9.9708976579332076e-01  9.9643424891642174e-01  9.9501516481708419e-01  9.9255903724749150e-01  9.8915482933258214e-01  9.8478063261252380e-01  9.7944778908451657e-01  9.7315984996810589e-01  9.6592301292015181e-01  9.5774407979910403e-01  9.4863088199959578e-01  9.3859201796517910e-01  9.2763702557783645e-01  9.1577629757718504e-01  9.0302113489815761e-01  8.8938376060737723e-01  8.7487734209297985e-01  8.5951599827897884e-01  8.4331479147361310e-01  8.2628970129669443e-01  8.0845758339705998e-01  7.8983611627230443e-01  7.7044374606147603e-01  7.5029962507437942e-01  7.2942358128954354e-01  7.0783603295421171e-01  6.8555809852729221e-01  6.6261124799513205e-01  6.3901806404962180e-01  6.1480108038435144e-01  5.8998215409114807e-01  5.6460252504511510e-01  5.3855875203650638e-01  9.9708017291189510e-01  9.9643400695024742e-01  9.9501487897513974e-01  9.9255809814872875e-01  9.8915465618856568e-01  9.8478054477785415e-01  9.7944806732143430e-01  9.7316030930334774e-01  9.6592362496730466e-01  9.5774485229182515e-01  9.4863174077387125e-01  9.3859293204666694e-01  9.2763796225325379e-01  9.1577723424391788e-01  9.0302206173396327e-01  8.8938467925136055e-01  8.7487826431069249e-01  8.5951694271271473e-01  8.4331577989532902e-01  8.2629075501315141e-01  8.0845872049080558e-01  7.8983734985215326e-01  7.7044508361962649e-01  7.5030106745272351e-01  7.2942512456219444e-01  7.0783765936381005e-01  6.8555980454372079e-01  6.6261294802835780e-01  6.3901990457610380e-01  6.1480249580070023e-01  5.8998451762143289e-01  5.6460408482093583e-01  5.3855883601490018e-01  9.9706129470847371e-01  9.9643452389377263e-01  9.9501260216666609e-01  9.9255637028308030e-01  9.8915362364964154e-01  9.8477979200406607e-01  9.7944773852858391e-01  9.7316028507344776e-01  9.6592388696517439e-01  9.5774533285127283e-01  9.4863237332459582e-01  9.3859368021631617e-01  9.2763878610757300e-01  9.1577811129552178e-01  9.0302298095393518e-01  8.8938564072953741e-01  8.7487927665554754e-01  8.5951801915583981e-01  8.4331693425007404e-01  8.2629199800902375e-01  8.0846005716354108e-01  7.8983877816582071e-01  7.7044659436785490e-01  7.5030264410031233e-01  7.2942674594877888e-01  7.0783929169749094e-01  6.8556143043023410e-01  6.6261446421986825e-01  6.3902145899563945e-01  6.1480341297730756e-01  5.8998647059288634e-01  5.6460362007811771e-01  5.3856365054407307e-01  9.9703320803894491e-01  9.9643530107843636e-01  9.9500797272108354e-01  9.9255353854517814e-01  9.8915140796855872e-01  9.8477815393109147e-01  9.7944667561399146e-01  9.7315966831056044e-01  9.6592364653698848e-01  9.5774538102442097e-01  9.4863264618384369e-01  9.3859412693198330e-01  9.2763936510986622e-01  9.1577879920155414e-01  9.0302376480638602e-01  8.8938651801866686e-01  8.7488025105680878e-01  8.5951909647141089e-01  8.4331811833983494e-01  8.2629328742173103e-01  8.0846144299706435e-01  7.8984024327181568e-01  7.7044811381889411e-01  7.5030418581613612e-01  7.2942827367090557e-01  7.0784075815697811e-01  6.8556280481400844e-01  6.6261562885259828e-01  6.3902255378144712e-01  6.1480367228614519e-01  5.8998781902332453e-01  5.6460095353651651e-01  5.3857330932600478e-01  9.9699691951454594e-01  9.9643573756392212e-01  9.9500080239484412e-01  9.9254936529951832e-01  9.8914781441604283e-01  9.8477543797870792e-01  9.7944466188463175e-01  9.7315822523129714e-01  9.6592266980032138e-01  9.5774477056473850e-01  9.4863232632468752e-01  9.3859403798879737e-01  9.2763946510882622e-01  9.1577906217435090e-01  9.0302417553163195e-01  8.8938707005080064e-01  8.7488094164245933e-01  8.5951992261671151e-01  8.4331907301279097e-01  8.2629435684572650e-01  8.0846260523866365e-01  7.8984146815805611e-01  7.7044936390233476e-01  7.5030541760601710e-01  7.2942944022273026e-01  7.0784180363486549e-01  6.8556368724657923e-01  6.6261622315818047e-01  6.3902298000568225e-01  6.1480311526701459e-01  5.8998835070231181e-01  5.6459611235001972e-01  5.3858727578356713e-01  9.9695433156484725e-01  9.9643524767688096e-01  9.9499117055183572e-01  9.9254375625732982e-01  9.8914278598945404e-01  9.8477156892877959e-01  9.7944161500961868e-01  9.7315586566340750e-01  9.6592085708778674e-01  9.5774339119063800e-01  9.4863129440788763e-01  9.3859328949860710e-01  9.2763895601699731e-01  9.1577876360202248e-01  9.0302406922413136e-01  8.8938714422379972e-01  8.7488118603234932e-01  8.5952032478300844e-01  8.4331961520983911e-01  8.2629501425822116e-01  8.0846334545452547e-01  7.8984225181546663e-01  7.7045014598840034e-01  7.5030614903391346e-01  7.2943006936421773e-01  7.0784227260901667e-01  6.8556394657403064e-01  6.6261615070418811e-01  6.3902266266473495e-01  6.1480174918579078e-01  5.8998800312015109e-01  5.6458946391565534e-01  5.3860465653491918e-01  9.9690806921633346e-01  9.9643338490256550e-01  9.9497944100770541e-01  9.9253680395565680e-01  9.8913644760337249e-01  9.8476661995103409e-01  9.7943758028892269e-01  9.7315260665973746e-01  9.6591820395157246e-01  9.5774122226168290e-01  9.4862951734791079e-01  9.3859183754374220e-01  9.2763778289163135e-01  9.1577783765277654e-01  9.0302336814555151e-01  8.8938664998158146e-01  8.7488088041089829e-01  8.5952018618971160e-01  8.4331961658697796e-01  8.2629512240382486e-01  8.0846352142490341e-01  7.8984245219779625e-01  7.7045032429356541e-01  7.5030625731347256e-01  7.2943005811325545e-01  7.0784208919231772e-01  6.8556353867753606e-01  6.6261541196423790e-01  6.3902163375385213e-01  6.1479971539895528e-01  5.8998683662549711e-01  5.6458166841249435e-01  5.3862422353887007e-01  9.9686120577189241e-01  9.9642992658497864e-01  9.9496623631669789e-01  9.9252879780594361e-01  9.8912910133308063e-01  9.8476081364720014e-01  9.7943273967826916e-01  9.7314859220686611e-01  9.6591482679104090e-01  9.5773835839144483e-01  9.4862707205015184e-01  9.3858974351200530e-01  9.2763599245336792e-01  9.1577631637952450e-01  9.0302208906262016e-01  8.8938558855488326e-01  8.7488001079366895e-01  8.5951947892694280e-01  8.4331903777480288e-01  8.2629463409947668e-01  8.0846308292123514e-01  7.8984202168600837e-01  7.7044986006778704e-01  7.5030571912407851e-01  7.2942940508835585e-01  7.0784128081453046e-01  6.8556252482975810e-01  6.6261411555214389e-01  6.3902003842156085e-01  6.1479728142515500e-01  5.8998503423059812e-01  5.6457360974616722e-01  5.3864455708189207e-01  9.9681692692697466e-01  9.9642491456195548e-01  9.9495237019513116e-01  9.9252019708749639e-01  9.8912119421864808e-01  9.8475449960978123e-01  9.7942739207722895e-01  9.7314407592945740e-01  9.6591094695601176e-01  9.5773499542414531e-01  9.4862413366586817e-01  9.3858716438937362e-01  9.2763372459706972e-01  9.1577432283567006e-01  9.0302033825132733e-01  8.8938404991922637e-01  8.7487865203956861e-01  8.5951826492832717e-01  8.4331793100305064e-01  8.2629359600921848e-01  8.0846207595464836e-01  7.8984101089847703e-01  7.7044881398789355e-01  7.5030461059581477e-01  7.2942820709925127e-01  7.0783997024726231e-01  6.8556105830065728e-01  6.6261245681515857e-01  6.3901810732992070e-01  6.1479479353061661e-01  5.8998286298626035e-01  5.6456626243517316e-01  5.3866417426189572e-01  9.9677819937780399e-01  9.9641865325549395e-01  9.9493876158018324e-01  9.9251158284615015e-01  9.8911326998113325e-01  9.8474811749197622e-01  9.7942192195582911e-01  9.7313939531014182e-01  9.6590686894598177e-01  9.5773141165782516e-01  9.4862095896884657e-01  9.3858433784097317e-01  9.2763119912057868e-01  9.1577205965657904e-01  9.0301830194870059e-01  8.8938220517105970e-01  8.7487696210502941e-01  8.5951669185766466e-01  8.4331643720336624e-01  8.2629214642732307e-01  8.0846064051423727e-01  7.8983956555460433e-01  7.7044734158557260e-01  7.5030310037547565e-01  7.2942664858399997e-01  7.0783835999925304e-01  6.8555936279947904e-01  6.6261068796065103e-01  6.3901612041679667e-01  6.1479261843055788e-01  5.8998062565579512e-01  5.6456053064453016e-01  5.3868166659400585e-01  9.9674744610405075e-01  9.9641165705592316e-01  9.9492632308496753e-01  9.9250357751295626e-01  9.8910589320688380e-01  9.8474213234072305e-01  9.7941674048051552e-01  9.7313491788268924e-01  9.6590293004140737e-01  9.5772792021352604e-01  9.4861784097572743e-01  9.3858153889741003e-01  9.2762867443844821e-01  9.1576976982617941e-01  9.0301620917728198e-01  8.8938027138499542e-01  8.7487514876004790e-01  8.5951496136893724e-01  8.4331475540765999e-01  8.2629048533697225e-01  8.0845898065940214e-01  7.8983789635550472e-01  7.7044566251679514e-01  7.5030141679640683e-01  7.2942496717113836e-01  7.0783669794230630e-01  6.8555769896914887e-01  6.6260908251377149e-01  6.3901436738277928e-01  6.1479108288943607e-01  5.8997860932719981e-01  5.6455709120154918e-01  5.3869582964826557e-01  9.9672644044630432e-01  9.9640462280444508e-01  9.9491593022768943e-01  9.9249682800980155e-01  9.8909964047413979e-01  9.8473703347575270e-01  9.7941228880585629e-01  9.7313104774858294e-01  9.6589950871572039e-01  9.5772487870664991e-01  9.4861511944248567e-01  9.3857909107765947e-01  9.2762645922666154e-01  9.1576774875796052e-01  9.0301434412667914e-01  8.8937852407278106e-01  8.7487348179319524e-01  8.5951334065797080e-01  8.4331315324029388e-01  8.2628888337848294e-01  8.0845737169558329e-01  7.8983628449123855e-01  7.7044406313425973e-01  7.5029984849855813e-01  7.2942345637881756e-01  7.0783527570955940e-01  6.8555634830605927e-01  6.6260790155432037e-01  6.3901310484816909e-01  6.1479042448452448e-01  5.8997705027273606e-01  5.6455627247152718e-01  5.3870578094334642e-01  9.9671584985212047e-01  9.9639822936675115e-01  9.9490817425536682e-01  9.9249177645946174e-01  9.8909487765525517e-01  9.8473311903373151e-01  9.7940882768368376e-01  9.7312801954802530e-01  9.6589682225866369e-01  9.5772249040167812e-01  9.4861298559813656e-01  9.3857717488325110e-01  9.2762472482591218e-01  9.1576616066960037e-01  9.0301286644937484e-01  8.8937712125286672e-01  8.7487212064498143e-01  8.5951199345363605e-01  8.4331180109553261e-01  8.2628751911784504e-01  8.0845600090114533e-01  7.8983492559035862e-01  7.7044274386267952e-01  7.5029860051238728e-01  7.2942232292797959e-01  7.0783427855475789e-01  6.8555549372790336e-01  6.6260734006241617e-01  6.3901254979916389e-01  6.1479077704336016e-01  5.8997609534417272e-01  5.6455801166177555e-01  5.3871104836277683e-01  9.9671626921177070e-01  9.9639343337029584e-01  9.9490384032512680e-01  9.9248910215853003e-01  9.8909221193264107e-01  9.8473094596248656e-01  9.7940688670869558e-01  9.7312634462548253e-01  9.6589536869105985e-01  9.5772124085756083e-01  9.4861191277854939e-01  9.3857625171891068e-01  9.2762392168917951e-01  9.1576544671230253e-01  9.0301221017148470e-01  8.8937649223966353e-01  8.7487149222845206e-01  8.5951134613075886e-01  8.4331112591983748e-01  8.2628682016207355e-01  8.0845529573602926e-01  7.8983424437286320e-01  7.7044212332746509e-01  7.5029808515506802e-01  7.2942195346589211e-01  7.0783407376883822e-01  6.8555552466740932e-01  6.6260767471131621e-01  6.3901281726820180e-01  6.1479209549433800e-01  5.8997585174698675e-01  5.6456186263074037e-01  5.3871162505688264e-01  9.9672569760555596e-01  9.9639046769478357e-01  9.9490256080017470e-01  9.9248842548801808e-01  9.8909119361301134e-01  9.8473004273907316e-01  9.7940598671597923e-01  9.7312554464240208e-01  9.6589467296526776e-01  9.5772065903361669e-01  9.4861143475033216e-01  9.3857586153950134e-01  9.2762359799147875e-01  9.1576516576188749e-01  9.0301194756602565e-01  8.8937622533521588e-01  8.7487120314965794e-01  8.5951102524257794e-01  8.4331077500179619e-01  8.2628645438964221e-01  8.0845494354086123e-01  7.8983394517406180e-01  7.7044192186648985e-01  7.5029803155847852e-01  7.2942207757766253e-01  7.0783443026180937e-01  6.8555614641716933e-01  6.6260849503499464e-01  6.3901385044031611e-01  6.1479445955053103e-01  5.8997626750466026e-01  5.6456711563354334e-01  5.3870796894671313e-01  9.9674540724172234e-01  9.9639078209016396e-01  9.9490558259323436e-01  9.9249094012007777e-01  9.89092974316