<?xml version="1.0"?>
<VTKFile type="UnstructuredGrid"  version="0.1"  >
<UnstructuredGrid>
<Piece  NumberOfPoints="81" NumberOfCells="128">
<Points>
<DataArray  type="Float64"  NumberOfComponents="3"  format="ascii">0 0 0  0.125 0 0  0.25 0 0  0.375 0 0  0.5 0 0  0.625 0 0  0.75 0 0  0.875 0 0  1 0 0  0 0.125 0  0.125 0.125 0  0.25 0.125 0  0.375 0.125 0  0.5 0.125 0  0.625 0.125 0  0.75 0.125 0  0.875 0.125 0  1 0.125 0  0 0.25 0  0.125 0.25 0  0.25 0.25 0  0.375 0.25 0  0.5 0.25 0  0.625 0.25 0  0.75 0.25 0  0.875 0.25 0  1 0.25 0  0 0.375 0  0.125 0.375 0  0.25 0.375 0  0.375 0.375 0  0.5 0.375 0  0.625 0.375 0  0.75 0.375 0  0.875 0.375 0  1 0.375 0  0 0.5 0  0.125 0.5 0  0.25 0.5 0  0.375 0.5 0  0.5 0.5 0  0.625 0.5 0  0.75 0.5 0  0.875 0.5 0  1 0.5 0  0 0.625 0  0.125 0.625 0  0.25 0.625 0  0.375 0.625 0  0.5 0.625 0  0.625 0.625 0  0.75 0.625 0  0.875 0.625 0  1 0.625 0  0 0.75 0  0.125 0.75 0  0.25 0.75 0  0.375 0.75 0  0.5 0.75 0  0.625 0.75 0  0.75 0.75 0  0.875 0.75 0  1 0.75 0  0 0.875 0  0.125 0.875 0  0.25 0.875 0  0.375 0.875 0  0.5 0.875 0  0.625 0.875 0  0.75 0.875 0  0.875 0.875 0  1 0.875 0  0 1 0  0.125 1 0  0.25 1 0  0.375 1 0  0.5 1 0  0.625 1 0  0.75 1 0  0.875 1 0  1 1 0  </DataArray>
</Points>
<Cells>
<DataArray  type="UInt32"  Name="connectivity"  format="ascii">0 1 10  0 9 10  1 2 11  1 10 11  2 3 12  2 11 12  3 4 13  3 12 13  4 5 14  4 13 14  5 6 15  5 14 15  6 7 16  6 15 16  7 8 17  7 16 17  9 10 19  9 18 19  10 11 20  10 19 20  11 12 21  11 20 21  12 13 22  12 21 22  13 14 23  13 22 23  14 15 24  14 23 24  15 16 25  15 24 25  16 17 26  16 25 26  18 19 28  18 27 28  19 20 29  19 28 29  20 21 30  20 29 30  21 22 31  21 30 31  22 23 32  22 31 32  23 24 33  23 32 33  24 25 34  24 33 34  25 26 35  25 34 35  27 28 37  27 36 37  28 29 38  28 37 38  29 30 39  29 38 39  30 31 40  30 39 40  31 32 41  31 40 41  32 33 42  32 41 42  33 34 43  33 42 43  34 35 44  34 43 44  36 37 46  36 45 46  37 38 47  37 46 47  38 39 48  38 47 48  39 40 49  39 48 49  40 41 50  40 49 50  41 42 51  41 50 51  42 43 52  42 51 52  43 44 53  43 52 53  45 46 55  45 54 55  46 47 56  46 55 56  47 48 57  47 56 57  48 49 58  48 57 58  49 50 59  49 58 59  50 51 60  50 59 60  51 52 61  51 60 61  52 53 62  52 61 62  54 55 64  54 63 64  55 56 65  55 64 65  56 57 66  56 65 66  57 58 67  57 66 67  58 59 68  58 67 68  59 60 69  59 68 69  60 61 70  60 69 70  61 62 71  61 70 71  63 64 73  63 72 73  64 65 74  64 73 74  65 66 75  65 74 75  66 67 76  66 75 76  67 68 77  67 76 77  68 69 78  68 77 78  69 70 79  69 78 79  70 71 80  70 79 80  </DataArray>
<DataArray  type="UInt32"  Name="offsets"  format="ascii">3 6 9 12 15 18 21 24 27 30 33 36 39 42 45 48 51 54 57 60 63 66 69 72 75 78 81 84 87 90 93 96 99 102 105 108 111 114 117 120 123 126 129 132 135 138 141 144 147 150 153 156 159 162 165 168 171 174 177 180 183 186 189 192 195 198 201 204 207 210 213 216 219 222 225 228 231 234 237 240 243 246 249 252 255 258 261 264 267 270 273 276 279 282 285 288 291 294 297 300 303 306 309 312 315 318 321 324 327 330 333 336 339 342 345 348 351 354 357 360 363 366 369 372 375 378 381 384 </DataArray>
<DataArray  type="UInt8"  Name="types"  format="ascii">5 5 5 5 5 5 5 5 5 5 5 5 5 5 5 5 5 5 5 5 5 5 5 5 5 5 5 5 5 5 5 5 5 5 5 5 5 5 5 5 5 5 5 5 5 5 5 5 5 5 5 5 5 5 5 5 5 5 5 5 5 5 5 5 5 5 5 5 5 5 5 5 5 5 5 5 5 5 5 5 5 5 5 5 5 5 5 5 5 5 5 5 5 5 5 5 5 5 5 5 5 5 5 5 5 5 5 5 5 5 5 5 5 5 5 5 5 5 5 5 5 5 5 5 5 5 5 5 </DataArray>
</Cells>
<PointData  Scalars="f_1231"> 
<DataArray  type="Float64"  Name="f_1231"  format="ascii">6.6874523838645261e-01  6.8319317943867186e-01  6.6419867342356209e-01  6.3959937275955914e-01  6.0479249954806191e-01  5.6021365702839698e-01  5.0598087459226992e-01  4.4186270598454697e-01  3.7102799861569435e-01  6.9423973434904784e-01  6.8471110339000785e-01  6.6495445741362369e-01  6.4011964042792213e-01  6.0470460939654447e-01  5.5775489299397463e-01  5.0047070529136850e-01  4.3904537924011916e-01  3.7101060263983821e-01  6.9562749748866659e-01  6.7946895699600718e-01  6.6373915989151910e-01  6.3867983915791959e-01  6.0387334960296413e-01  5.5623622217877067e-01  4.9972006294407978e-01  4.4029195864334975e-01  3.7020531542475282e-01  6.9398561679486215e-01  6.8063651775338008e-01  6.6595511802655794e-01  6.4050065363959485e-01  6.0539025420720494e-01  5.5747750363279769e-01  5.0197731891732600e-01  4.4184462371970701e-01  3.7046626816838368e-01  6.8827089916496298e-01  6.8273415336940402e-01  6.6691322132900366e-01  6.4134630428399830e-01  6.0641765388678159e-01  5.5918546668624058e-01  5.0375400842785600e-01  4.4127271644669436e-01  3.7214227421784901e-01  6.8148508524780471e-01  6.8245365261363655e-01  6.6420953073460420e-01  6.3938718275440476e-01  6.0512826203132564e-01  5.5797166320977098e-01  5.0153907677963738e-01  4.3840178309738215e-01  3.7325623671428593e-01  6.8262742489987949e-01  6.8052054855510324e-01  6.6202139605354049e-01  6.3821098136107524e-01  6.0369497656487980e-01  5.5601653252442362e-01  4.9986611591661251e-01  4.3864128399077595e-01  3.7406787661949120e-01  6.7548525317247443e-01  6.8112131265830478e-01  6.6282323663466536e-01  6.3988756759199505e-01  6.0469838122820707e-01  5.5788507817715827e-01  5.0303159226964667e-01  4.4175979784451169e-01  3.7322273713150794e-01  7.1920879431851703e-01  6.8102033012474927e-01  6.6901555703735716e-01  6.4229560625710480e-01  6.0484011568382201e-01  5.5786206816253714e-01  5.0213487154162484e-01  4.4072704739585439e-01  3.7135315858715812e-01  </DataArray> 
</PointData> 
</Piece>
</UnstructuredGrid>
</VTKFile>