<?xml version="1.0"?>
<VTKFile type="UnstructuredGrid"  version="0.1"  >
<UnstructuredGrid>
<Piece  NumberOfPoints="81" NumberOfCells="128">
<Points>
<DataArray  type="Float64"  NumberOfComponents="3"  format="ascii">0 0 0  0.125 0 0  0.25 0 0  0.375 0 0  0.5 0 0  0.625 0 0  0.75 0 0  0.875 0 0  1 0 0  0 0.125 0  0.125 0.125 0  0.25 0.125 0  0.375 0.125 0  0.5 0.125 0  0.625 0.125 0  0.75 0.125 0  0.875 0.125 0  1 0.125 0  0 0.25 0  0.125 0.25 0  0.25 0.25 0  0.375 0.25 0  0.5 0.25 0  0.625 0.25 0  0.75 0.25 0  0.875 0.25 0  1 0.25 0  0 0.375 0  0.125 0.375 0  0.25 0.375 0  0.375 0.375 0  0.5 0.375 0  0.625 0.375 0  0.75 0.375 0  0.875 0.375 0  1 0.375 0  0 0.5 0  0.125 0.5 0  0.25 0.5 0  0.375 0.5 0  0.5 0.5 0  0.625 0.5 0  0.75 0.5 0  0.875 0.5 0  1 0.5 0  0 0.625 0  0.125 0.625 0  0.25 0.625 0  0.375 0.625 0  0.5 0.625 0  0.625 0.625 0  0.75 0.625 0  0.875 0.625 0  1 0.625 0  0 0.75 0  0.125 0.75 0  0.25 0.75 0  0.375 0.75 0  0.5 0.75 0  0.625 0.75 0  0.75 0.75 0  0.875 0.75 0  1 0.75 0  0 0.875 0  0.125 0.875 0  0.25 0.875 0  0.375 0.875 0  0.5 0.875 0  0.625 0.875 0  0.75 0.875 0  0.875 0.875 0  1 0.875 0  0 1 0  0.125 1 0  0.25 1 0  0.375 1 0  0.5 1 0  0.625 1 0  0.75 1 0  0.875 1 0  1 1 0  </DataArray>
</Points>
<Cells>
<DataArray  type="UInt32"  Name="connectivity"  format="ascii">0 1 10  0 9 10  1 2 11  1 10 11  2 3 12  2 11 12  3 4 13  3 12 13  4 5 14  4 13 14  5 6 15  5 14 15  6 7 16  6 15 16  7 8 17  7 16 17  9 10 19  9 18 19  10 11 20  10 19 20  11 12 21  11 20 21  12 13 22  12 21 22  13 14 23  13 22 23  14 15 24  14 23 24  15 16 25  15 24 25  16 17 26  16 25 26  18 19 28  18 27 28  19 20 29  19 28 29  20 21 30  20 29 30  21 22 31  21 30 31  22 23 32  22 31 32  23 24 33  23 32 33  24 25 34  24 33 34  25 26 35  25 34 35  27 28 37  27 36 37  28 29 38  28 37 38  29 30 39  29 38 39  30 31 40  30 39 40  31 32 41  31 40 41  32 33 42  32 41 42  33 34 43  33 42 43  34 35 44  34 43 44  36 37 46  36 45 46  37 38 47  37 46 47  38 39 48  38 47 48  39 40 49  39 48 49  40 41 50  40 49 50  41 42 51  41 50 51  42 43 52  42 51 52  43 44 53  43 52 53  45 46 55  45 54 55  46 47 56  46 55 56  47 48 57  47 56 57  48 49 58  48 57 58  49 50 59  49 58 59  50 51 60  50 59 60  51 52 61  51 60 61  52 53 62  52 61 62  54 55 64  54 63 64  55 56 65  55 64 65  56 57 66  56 65 66  57 58 67  57 66 67  58 59 68  58 67 68  59 60 69  59 68 69  60 61 70  60 69 70  61 62 71  61 70 71  63 64 73  63 72 73  64 65 74  64 73 74  65 66 75  65 74 75  66 67 76  66 75 76  67 68 77  67 76 77  68 69 78  68 77 78  69 70 79  69 78 79  70 71 80  70 79 80  </DataArray>
<DataArray  type="UInt32"  Name="offsets"  format="ascii">3 6 9 12 15 18 21 24 27 30 33 36 39 42 45 48 51 54 57 60 63 66 69 72 75 78 81 84 87 90 93 96 99 102 105 108 111 114 117 120 123 126 129 132 135 138 141 144 147 150 153 156 159 162 165 168 171 174 177 180 183 186 189 192 195 198 201 204 207 210 213 216 219 222 225 228 231 234 237 240 243 246 249 252 255 258 261 264 267 270 273 276 279 282 285 288 291 294 297 300 303 306 309 312 315 318 321 324 327 330 333 336 339 342 345 348 351 354 357 360 363 366 369 372 375 378 381 384 </DataArray>
<DataArray  type="UInt8"  Name="types"  format="ascii">5 5 5 5 5 5 5 5 5 5 5 5 5 5 5 5 5 5 5 5 5 5 5 5 5 5 5 5 5 5 5 5 5 5 5 5 5 5 5 5 5 5 5 5 5 5 5 5 5 5 5 5 5 5 5 5 5 5 5 5 5 5 5 5 5 5 5 5 5 5 5 5 5 5 5 5 5 5 5 5 5 5 5 5 5 5 5 5 5 5 5 5 5 5 5 5 5 5 5 5 5 5 5 5 5 5 5 5 5 5 5 5 5 5 5 5 5 5 5 5 5 5 5 5 5 5 5 5 </DataArray>
</Cells>
<PointData  Scalars="f_13508"> 
<DataArray  type="Float64"  Name="f_13508"  format="ascii">9.5878230230863137e-01  9.8015113511847995e-01  9.5380518078361942e-01  9.1877747511994479e-01  8.6833156405132550e-01  8.0478000740935973e-01  7.2738159871569408e-01  6.3436009323261688e-01  5.3230183609122061e-01  9.9518755082988497e-01  9.8368515061780737e-01  9.5606476094368009e-01  9.1970166273101950e-01  8.6891200701357940e-01  8.0259360308592065e-01  7.2000965154271013e-01  6.3048720894310561e-01  5.3262281631099473e-01  1.0002104159099710e+00  9.7686989395638690e-01  9.5466528421603392e-01  9.1841324224540855e-01  8.6849103630607638e-01  8.0042248695265306e-01  7.1896637137572506e-01  6.3313765572215053e-01  5.3186293806375584e-01  9.9854296091068973e-01  9.7801465926572673e-01  9.5766763359624407e-01  9.2046850235202760e-01  8.6920027289427793e-01  8.0052701257020797e-01  7.2138288749215296e-01  6.3482634279328765e-01  5.3110337760780402e-01  9.8861349187309477e-01  9.8075163620211647e-01  9.5848764618071070e-01  9.2065063015416770e-01  8.6961389606062689e-01  8.0251783222673678e-01  7.2377090516137499e-01  6.3324377106159613e-01  5.3335540355555866e-01  9.7817181553517329e-01  9.8077490078432139e-01  9.5481763377689088e-01  9.1851182012508670e-01  8.6907081058237423e-01  8.0207601308752596e-01  7.2141360785363029e-01  6.2958123852187609e-01  5.3585578826377855e-01  9.8035137119368754e-01  9.7789800875456390e-01  9.5228011407784241e-01  9.1837423191950229e-01  8.6840591945647194e-01  7.9995656844353069e-01  7.1966897611649971e-01  6.3126921010753012e-01  5.3816625861032563e-01  9.6860736147750703e-01  9.7749355430352303e-01  9.5319499070433744e-01  9.2054975677357198e-01  8.6889941829441053e-01  8.0182623101587114e-01  7.2412853667627408e-01  6.3585224004154584e-01  5.3633148792081997e-01  1.0318440283384673e+00  9.7761590873320869e-01  9.6172896926000517e-01  9.2269345097591060e-01  8.6839608408375191e-01  8.0142064658817302e-01  7.2114513276045344e-01  6.3270695191568427e-01  5.3257459614021352e-01  </DataArray> 
</PointData> 
</Piece>
</UnstructuredGrid>
</VTKFile>