<?xml version="1.0"?>
<VTKFile type="UnstructuredGrid"  version="0.1"  >
<UnstructuredGrid>
<Piece  NumberOfPoints="81" NumberOfCells="128">
<Points>
<DataArray  type="Float64"  NumberOfComponents="3"  format="ascii">0 0 0  0.125 0 0  0.25 0 0  0.375 0 0  0.5 0 0  0.625 0 0  0.75 0 0  0.875 0 0  1 0 0  0 0.125 0  0.125 0.125 0  0.25 0.125 0  0.375 0.125 0  0.5 0.125 0  0.625 0.125 0  0.75 0.125 0  0.875 0.125 0  1 0.125 0  0 0.25 0  0.125 0.25 0  0.25 0.25 0  0.375 0.25 0  0.5 0.25 0  0.625 0.25 0  0.75 0.25 0  0.875 0.25 0  1 0.25 0  0 0.375 0  0.125 0.375 0  0.25 0.375 0  0.375 0.375 0  0.5 0.375 0  0.625 0.375 0  0.75 0.375 0  0.875 0.375 0  1 0.375 0  0 0.5 0  0.125 0.5 0  0.25 0.5 0  0.375 0.5 0  0.5 0.5 0  0.625 0.5 0  0.75 0.5 0  0.875 0.5 0  1 0.5 0  0 0.625 0  0.125 0.625 0  0.25 0.625 0  0.375 0.625 0  0.5 0.625 0  0.625 0.625 0  0.75 0.625 0  0.875 0.625 0  1 0.625 0  0 0.75 0  0.125 0.75 0  0.25 0.75 0  0.375 0.75 0  0.5 0.75 0  0.625 0.75 0  0.75 0.75 0  0.875 0.75 0  1 0.75 0  0 0.875 0  0.125 0.875 0  0.25 0.875 0  0.375 0.875 0  0.5 0.875 0  0.625 0.875 0  0.75 0.875 0  0.875 0.875 0  1 0.875 0  0 1 0  0.125 1 0  0.25 1 0  0.375 1 0  0.5 1 0  0.625 1 0  0.75 1 0  0.875 1 0  1 1 0  </DataArray>
</Points>
<Cells>
<DataArray  type="UInt32"  Name="connectivity"  format="ascii">0 1 10  0 9 10  1 2 11  1 10 11  2 3 12  2 11 12  3 4 13  3 12 13  4 5 14  4 13 14  5 6 15  5 14 15  6 7 16  6 15 16  7 8 17  7 16 17  9 10 19  9 18 19  10 11 20  10 19 20  11 12 21  11 20 21  12 13 22  12 21 22  13 14 23  13 22 23  14 15 24  14 23 24  15 16 25  15 24 25  16 17 26  16 25 26  18 19 28  18 27 28  19 20 29  19 28 29  20 21 30  20 29 30  21 22 31  21 30 31  22 23 32  22 31 32  23 24 33  23 32 33  24 25 34  24 33 34  25 26 35  25 34 35  27 28 37  27 36 37  28 29 38  28 37 38  29 30 39  29 38 39  30 31 40  30 39 40  31 32 41  31 40 41  32 33 42  32 41 42  33 34 43  33 42 43  34 35 44  34 43 44  36 37 46  36 45 46  37 38 47  37 46 47  38 39 48  38 47 48  39 40 49  39 48 49  40 41 50  40 49 50  41 42 51  41 50 51  42 43 52  42 51 52  43 44 53  43 52 53  45 46 55  45 54 55  46 47 56  46 55 56  47 48 57  47 56 57  48 49 58  48 57 58  49 50 59  49 58 59  50 51 60  50 59 60  51 52 61  51 60 61  52 53 62  52 61 62  54 55 64  54 63 64  55 56 65  55 64 65  56 57 66  56 65 66  57 58 67  57 66 67  58 59 68  58 67 68  59 60 69  59 68 69  60 61 70  60 69 70  61 62 71  61 70 71  63 64 73  63 72 73  64 65 74  64 73 74  65 66 75  65 74 75  66 67 76  66 75 76  67 68 77  67 76 77  68 69 78  68 77 78  69 70 79  69 78 79  70 71 80  70 79 80  </DataArray>
<DataArray  type="UInt32"  Name="offsets"  format="ascii">3 6 9 12 15 18 21 24 27 30 33 36 39 42 45 48 51 54 57 60 63 66 69 72 75 78 81 84 87 90 93 96 99 102 105 108 111 114 117 120 123 126 129 132 135 138 141 144 147 150 153 156 159 162 165 168 171 174 177 180 183 186 189 192 195 198 201 204 207 210 213 216 219 222 225 228 231 234 237 240 243 246 249 252 255 258 261 264 267 270 273 276 279 282 285 288 291 294 297 300 303 306 309 312 315 318 321 324 327 330 333 336 339 342 345 348 351 354 357 360 363 366 369 372 375 378 381 384 </DataArray>
<DataArray  type="UInt8"  Name="types"  format="ascii">5 5 5 5 5 5 5 5 5 5 5 5 5 5 5 5 5 5 5 5 5 5 5 5 5 5 5 5 5 5 5 5 5 5 5 5 5 5 5 5 5 5 5 5 5 5 5 5 5 5 5 5 5 5 5 5 5 5 5 5 5 5 5 5 5 5 5 5 5 5 5 5 5 5 5 5 5 5 5 5 5 5 5 5 5 5 5 5 5 5 5 5 5 5 5 5 5 5 5 5 5 5 5 5 5 5 5 5 5 5 5 5 5 5 5 5 5 5 5 5 5 5 5 5 5 5 5 5 </DataArray>
</Cells>
<PointData  Scalars="f_6517"> 
<DataArray  type="Float64"  Name="f_6517"  format="ascii">6.9116186508213773e-01  7.0620353422473348e-01  6.8674251592303326e-01  6.6117498074305037e-01  6.2508350044483085e-01  5.7929126593807745e-01  5.2357187485516721e-01  4.5710546638691757e-01  3.8358649754429369e-01  7.1760117175997062e-01  7.0829990838793633e-01  6.8835341782377479e-01  6.6233702747341450e-01  6.2537533117865429e-01  5.7726544173359418e-01  5.1838820421009901e-01  4.5433332493858691e-01  3.8332926866791706e-01  7.1976819500414468e-01  7.0346734409971379e-01  6.8764784098346121e-01  6.6134601540631288e-01  6.2493933882348662e-01  5.7610332914609563e-01  5.1797324640670739e-01  4.5589485810370850e-01  3.8271290594901136e-01  7.1783168836023148e-01  7.0424715349241596e-01  6.8943845158200279e-01  6.6269118997392895e-01  6.2593039692161900e-01  5.7681537843903585e-01  5.1976037850020340e-01  4.5709578170686760e-01  3.8289875384536975e-01  7.1139056391385458e-01  7.0587624384259529e-01  6.8991841327720060e-01  6.6311710313009564e-01  6.2651993227234526e-01  5.7806774889227108e-01  5.2108317885936806e-01  4.5612926762276601e-01  3.8457041732573610e-01  7.0464782772771217e-01  7.0597893371430698e-01  6.8761536352215580e-01  6.6158454838702230e-01  6.2563156653355023e-01  5.7722027310719726e-01  5.1926159491768364e-01  4.5364048801794604e-01  3.8604848041931056e-01  7.0593785691745703e-01  7.0431069057920326e-01  6.8588513674453067e-01  6.6092950372685255e-01  6.2471255273989756e-01  5.7571983249497938e-01  5.1805941679292844e-01  4.5432213346637657e-01  3.8708392413943016e-01  6.9806163752156647e-01  7.0458070606059742e-01  6.8625783883275815e-01  6.6220398341267594e-01  6.2531063164010459e-01  5.7718782245228251e-01  5.2087820278827157e-01  4.5715728654962728e-01  3.8590679583334131e-01  7.4359555364141516e-01  7.0423369438526850e-01  6.9210168597546662e-01  6.6410234342248253e-01  6.2505449036791538e-01  5.7658301491219011e-01  5.1912689947937085e-01  4.5560777909271538e-01  3.8382030775154746e-01  </DataArray> 
</PointData> 
</Piece>
</UnstructuredGrid>
</VTKFile>