<?xml version="1.0"?>
<VTKFile type="UnstructuredGrid"  version="0.1"  >
<UnstructuredGrid>
<Piece  NumberOfPoints="81" NumberOfCells="128">
<Points>
<DataArray  type="Float64"  NumberOfComponents="3"  format="ascii">0 0 0  0.125 0 0  0.25 0 0  0.375 0 0  0.5 0 0  0.625 0 0  0.75 0 0  0.875 0 0  1 0 0  0 0.125 0  0.125 0.125 0  0.25 0.125 0  0.375 0.125 0  0.5 0.125 0  0.625 0.125 0  0.75 0.125 0  0.875 0.125 0  1 0.125 0  0 0.25 0  0.125 0.25 0  0.25 0.25 0  0.375 0.25 0  0.5 0.25 0  0.625 0.25 0  0.75 0.25 0  0.875 0.25 0  1 0.25 0  0 0.375 0  0.125 0.375 0  0.25 0.375 0  0.375 0.375 0  0.5 0.375 0  0.625 0.375 0  0.75 0.375 0  0.875 0.375 0  1 0.375 0  0 0.5 0  0.125 0.5 0  0.25 0.5 0  0.375 0.5 0  0.5 0.5 0  0.625 0.5 0  0.75 0.5 0  0.875 0.5 0  1 0.5 0  0 0.625 0  0.125 0.625 0  0.25 0.625 0  0.375 0.625 0  0.5 0.625 0  0.625 0.625 0  0.75 0.625 0  0.875 0.625 0  1 0.625 0  0 0.75 0  0.125 0.75 0  0.25 0.75 0  0.375 0.75 0  0.5 0.75 0  0.625 0.75 0  0.75 0.75 0  0.875 0.75 0  1 0.75 0  0 0.875 0  0.125 0.875 0  0.25 0.875 0  0.375 0.875 0  0.5 0.875 0  0.625 0.875 0  0.75 0.875 0  0.875 0.875 0  1 0.875 0  0 1 0  0.125 1 0  0.25 1 0  0.375 1 0  0.5 1 0  0.625 1 0  0.75 1 0  0.875 1 0  1 1 0  </DataArray>
</Points>
<Cells>
<DataArray  type="UInt32"  Name="connectivity"  format="ascii">0 1 10  0 9 10  1 2 11  1 10 11  2 3 12  2 11 12  3 4 13  3 12 13  4 5 14  4 13 14  5 6 15  5 14 15  6 7 16  6 15 16  7 8 17  7 16 17  9 10 19  9 18 19  10 11 20  10 19 20  11 12 21  11 20 21  12 13 22  12 21 22  13 14 23  13 22 23  14 15 24  14 23 24  15 16 25  15 24 25  16 17 26  16 25 26  18 19 28  18 27 28  19 20 29  19 28 29  20 21 30  20 29 30  21 22 31  21 30 31  22 23 32  22 31 32  23 24 33  23 32 33  24 25 34  24 33 34  25 26 35  25 34 35  27 28 37  27 36 37  28 29 38  28 37 38  29 30 39  29 38 39  30 31 40  30 39 40  31 32 41  31 40 41  32 33 42  32 41 42  33 34 43  33 42 43  34 35 44  34 43 44  36 37 46  36 45 46  37 38 47  37 46 47  38 39 48  38 47 48  39 40 49  39 48 49  40 41 50  40 49 50  41 42 51  41 50 51  42 43 52  42 51 52  43 44 53  43 52 53  45 46 55  45 54 55  46 47 56  46 55 56  47 48 57  47 56 57  48 49 58  48 57 58  49 50 59  49 58 59  50 51 60  50 59 60  51 52 61  51 60 61  52 53 62  52 61 62  54 55 64  54 63 64  55 56 65  55 64 65  56 57 66  56 65 66  57 58 67  57 66 67  58 59 68  58 67 68  59 60 69  59 68 69  60 61 70  60 69 70  61 62 71  61 70 71  63 64 73  63 72 73  64 65 74  64 73 74  65 66 75  65 74 75  66 67 76  66 75 76  67 68 77  67 76 77  68 69 78  68 77 78  69 70 79  69 78 79  70 71 80  70 79 80  </DataArray>
<DataArray  type="UInt32"  Name="offsets"  format="ascii">3 6 9 12 15 18 21 24 27 30 33 36 39 42 45 48 51 54 57 60 63 66 69 72 75 78 81 84 87 90 93 96 99 102 105 108 111 114 117 120 123 126 129 132 135 138 141 144 147 150 153 156 159 162 165 168 171 174 177 180 183 186 189 192 195 198 201 204 207 210 213 216 219 222 225 228 231 234 237 240 243 246 249 252 255 258 261 264 267 270 273 276 279 282 285 288 291 294 297 300 303 306 309 312 315 318 321 324 327 330 333 336 339 342 345 348 351 354 357 360 363 366 369 372 375 378 381 384 </DataArray>
<DataArray  type="UInt8"  Name="types"  format="ascii">5 5 5 5 5 5 5 5 5 5 5 5 5 5 5 5 5 5 5 5 5 5 5 5 5 5 5 5 5 5 5 5 5 5 5 5 5 5 5 5 5 5 5 5 5 5 5 5 5 5 5 5 5 5 5 5 5 5 5 5 5 5 5 5 5 5 5 5 5 5 5 5 5 5 5 5 5 5 5 5 5 5 5 5 5 5 5 5 5 5 5 5 5 5 5 5 5 5 5 5 5 5 5 5 5 5 5 5 5 5 5 5 5 5 5 5 5 5 5 5 5 5 5 5 5 5 5 5 </DataArray>
</Cells>
<PointData  Scalars="f_15213"> 
<DataArray  type="Float64"  Name="f_15213"  format="ascii">8.4701037612803787e-01  8.6566089838013616e-01  8.4207173918618405e-01  8.1086182846092736e-01  7.6640349828846543e-01  7.1031855286659440e-01  6.4210242749281898e-01  5.6023847659638026e-01  4.7007870436518423e-01  8.7928436687871636e-01  8.6852445424234370e-01  8.4407479491138426e-01  8.1203992324119423e-01  7.6695283640708245e-01  7.0818258202462792e-01  6.3559961542576005e-01  5.5674838617682154e-01  4.7006750574820916e-01  8.8272689850421715e-01  8.6245467004257037e-01  8.4298987989749607e-01  8.1089881432849942e-01  7.6654389207858331e-01  7.0649642519393130e-01  6.3487116060120230e-01  5.5893613360535876e-01  4.6937547766086357e-01  8.8068834612872304e-01  8.6332560736981523e-01  8.4541603338225335e-01  8.1269630202705745e-01  7.6756460761919076e-01  7.0707763653356248e-01  6.3714271395073740e-01  5.6052471221651223e-01  4.6920661398604147e-01  8.7234885969389164e-01  8.6560149061287661e-01  8.4615300987084019e-01  8.1313023922751249e-01  7.6820758759102137e-01  7.0880489641069033e-01  6.3904910485277167e-01  5.5920895591403386e-01  4.7122651051192921e-01  8.6373338113317777e-01  8.6579338739422473e-01  8.4315039890439980e-01  8.1121748367302149e-01  7.6735762276738539e-01  7.0802080236837039e-01  6.3681971743437682e-01  5.5601052872147272e-01  4.7323137241768903e-01  8.6558710610775624e-01  8.6348734223168255e-01  8.4091603484257860e-01  8.1065761969432260e-01  7.6637897115858444e-01  7.0607964782038923e-01  6.3529434661598572e-01  5.5724121776043689e-01  4.7487857033076458e-01  8.5537316637404381e-01  8.6332913788195187e-01  8.4149660767971435e-01  8.1234929394217981e-01  7.6687737996578220e-01  7.0775479158255572e-01  6.3901536637612988e-01  5.6104550248437313e-01  4.7331882581127094e-01  9.1111219572790969e-01  8.6323807667774199e-01  8.4886081139437641e-01  8.1434519438463782e-01  7.6639930476455342e-01  7.0718990770608836e-01  6.3662470046620334e-01  5.5863136607160258e-01  4.7031887437622472e-01  </DataArray> 
</PointData> 
</Piece>
</UnstructuredGrid>
</VTKFile>