<?xml version="1.0"?>
<VTKFile type="UnstructuredGrid"  version="0.1"  >
<UnstructuredGrid>
<Piece  NumberOfPoints="81" NumberOfCells="128">
<Points>
<DataArray  type="Float64"  NumberOfComponents="3"  format="ascii">0 0 0  0.125 0 0  0.25 0 0  0.375 0 0  0.5 0 0  0.625 0 0  0.75 0 0  0.875 0 0  1 0 0  0 0.125 0  0.125 0.125 0  0.25 0.125 0  0.375 0.125 0  0.5 0.125 0  0.625 0.125 0  0.75 0.125 0  0.875 0.125 0  1 0.125 0  0 0.25 0  0.125 0.25 0  0.25 0.25 0  0.375 0.25 0  0.5 0.25 0  0.625 0.25 0  0.75 0.25 0  0.875 0.25 0  1 0.25 0  0 0.375 0  0.125 0.375 0  0.25 0.375 0  0.375 0.375 0  0.5 0.375 0  0.625 0.375 0  0.75 0.375 0  0.875 0.375 0  1 0.375 0  0 0.5 0  0.125 0.5 0  0.25 0.5 0  0.375 0.5 0  0.5 0.5 0  0.625 0.5 0  0.75 0.5 0  0.875 0.5 0  1 0.5 0  0 0.625 0  0.125 0.625 0  0.25 0.625 0  0.375 0.625 0  0.5 0.625 0  0.625 0.625 0  0.75 0.625 0  0.875 0.625 0  1 0.625 0  0 0.75 0  0.125 0.75 0  0.25 0.75 0  0.375 0.75 0  0.5 0.75 0  0.625 0.75 0  0.75 0.75 0  0.875 0.75 0  1 0.75 0  0 0.875 0  0.125 0.875 0  0.25 0.875 0  0.375 0.875 0  0.5 0.875 0  0.625 0.875 0  0.75 0.875 0  0.875 0.875 0  1 0.875 0  0 1 0  0.125 1 0  0.25 1 0  0.375 1 0  0.5 1 0  0.625 1 0  0.75 1 0  0.875 1 0  1 1 0  </DataArray>
</Points>
<Cells>
<DataArray  type="UInt32"  Name="connectivity"  format="ascii">0 1 10  0 9 10  1 2 11  1 10 11  2 3 12  2 11 12  3 4 13  3 12 13  4 5 14  4 13 14  5 6 15  5 14 15  6 7 16  6 15 16  7 8 17  7 16 17  9 10 19  9 18 19  10 11 20  10 19 20  11 12 21  11 20 21  12 13 22  12 21 22  13 14 23  13 22 23  14 15 24  14 23 24  15 16 25  15 24 25  16 17 26  16 25 26  18 19 28  18 27 28  19 20 29  19 28 29  20 21 30  20 29 30  21 22 31  21 30 31  22 23 32  22 31 32  23 24 33  23 32 33  24 25 34  24 33 34  25 26 35  25 34 35  27 28 37  27 36 37  28 29 38  28 37 38  29 30 39  29 38 39  30 31 40  30 39 40  31 32 41  31 40 41  32 33 42  32 41 42  33 34 43  33 42 43  34 35 44  34 43 44  36 37 46  36 45 46  37 38 47  37 46 47  38 39 48  38 47 48  39 40 49  39 48 49  40 41 50  40 49 50  41 42 51  41 50 51  42 43 52  42 51 52  43 44 53  43 52 53  45 46 55  45 54 55  46 47 56  46 55 56  47 48 57  47 56 57  48 49 58  48 57 58  49 50 59  49 58 59  50 51 60  50 59 60  51 52 61  51 60 61  52 53 62  52 61 62  54 55 64  54 63 64  55 56 65  55 64 65  56 57 66  56 65 66  57 58 67  57 66 67  58 59 68  58 67 68  59 60 69  59 68 69  60 61 70  60 69 70  61 62 71  61 70 71  63 64 73  63 72 73  64 65 74  64 73 74  65 66 75  65 74 75  66 67 76  66 75 76  67 68 77  67 76 77  68 69 78  68 77 78  69 70 79  69 78 79  70 71 80  70 79 80  </DataArray>
<DataArray  type="UInt32"  Name="offsets"  format="ascii">3 6 9 12 15 18 21 24 27 30 33 36 39 42 45 48 51 54 57 60 63 66 69 72 75 78 81 84 87 90 93 96 99 102 105 108 111 114 117 120 123 126 129 132 135 138 141 144 147 150 153 156 159 162 165 168 171 174 177 180 183 186 189 192 195 198 201 204 207 210 213 216 219 222 225 228 231 234 237 240 243 246 249 252 255 258 261 264 267 270 273 276 279 282 285 288 291 294 297 300 303 306 309 312 315 318 321 324 327 330 333 336 339 342 345 348 351 354 357 360 363 366 369 372 375 378 381 384 </DataArray>
<DataArray  type="UInt8"  Name="types"  format="ascii">5 5 5 5 5 5 5 5 5 5 5 5 5 5 5 5 5 5 5 5 5 5 5 5 5 5 5 5 5 5 5 5 5 5 5 5 5 5 5 5 5 5 5 5 5 5 5 5 5 5 5 5 5 5 5 5 5 5 5 5 5 5 5 5 5 5 5 5 5 5 5 5 5 5 5 5 5 5 5 5 5 5 5 5 5 5 5 5 5 5 5 5 5 5 5 5 5 5 5 5 5 5 5 5 5 5 5 5 5 5 5 5 5 5 5 5 5 5 5 5 5 5 5 5 5 5 5 5 </DataArray>
</Cells>
<PointData  Scalars="f_17086"> 
<DataArray  type="Float64"  Name="f_17086"  format="ascii">6.1759899277605435e-01  6.1267368203801764e-01  5.9830857452552755e-01  5.7459121675171065e-01  5.4190955515502526e-01  5.0077010584297132e-01  4.5181991046387104e-01  3.9581816067964448e-01  3.3356045641212106e-01  6.1749342073766345e-01  6.1267470632094179e-01  5.9831329282453893e-01  5.7459315522341459e-01  5.4191314059623275e-01  5.0077444101666235e-01  4.5182468812404730e-01  3.9581111647148215e-01  3.3367528774043925e-01  6.1750667205097931e-01  6.1269112566636652e-01  5.9831004734870386e-01  5.7459260873332818e-01  5.4191235670998128e-01  5.0077333427357840e-01  4.5182324595118578e-01  3.9581441595096284e-01  3.3365716902529730e-01  6.1750541287790739e-01  6.1268711638915163e-01  5.9830791207607392e-01  5.7459318531865877e-01  5.4191210314947436e-01  5.0077358210770928e-01  4.5182323602597912e-01  3.9581342876484615e-01  3.3365920118914388e-01  6.1750562900024109e-01  6.1268776023090443e-01  5.9830891999487756e-01  5.7459352558024024e-01  5.4191242480215729e-01  5.0077375311557082e-01  4.5182347394800665e-01  3.9581386416159925e-01  3.3365937133882834e-01  6.1750557386239557e-01  6.1268668023480910e-01  5.9830863928868694e-01  5.7459332330641921e-01  5.4191203101277607e-01  5.0077346612261209e-01  4.5182288158012035e-01  3.9581365246643818e-01  3.3365926822878567e-01  6.1750305053397858e-01  6.1268944370295042e-01  5.9830899038369667e-01  5.7459341471583447e-01  5.4191256001376698e-01  5.0077369321422671e-01  4.5182445122480752e-01  3.9581582244944113e-01  3.3365964985370145e-01  6.1753077572051585e-01  6.1267920827703148e-01  5.9830954498669386e-01  5.7459243078677025e-01  5.4191179856521765e-01  5.0077262677579593e-01  4.5182399100878351e-01  3.9580582185129470e-01  3.3365335462470586e-01  6.1731826127734091e-01  6.1271397977870656e-01  5.9830799146855751e-01  5.7459606487553483e-01  5.4191480224486466e-01  5.0077730560502509e-01  4.5182644694721413e-01  3.9581556594927703e-01  3.3370841379123389e-01  </DataArray> 
</PointData> 
</Piece>
</UnstructuredGrid>
</VTKFile>