<?xml version="1.0"?>
<VTKFile type="UnstructuredGrid"  version="0.1"  >
<UnstructuredGrid>
<Piece  NumberOfPoints="81" NumberOfCells="128">
<Points>
<DataArray  type="Float64"  NumberOfComponents="3"  format="ascii">0 0 0  0.125 0 0  0.25 0 0  0.375 0 0  0.5 0 0  0.625 0 0  0.75 0 0  0.875 0 0  1 0 0  0 0.125 0  0.125 0.125 0  0.25 0.125 0  0.375 0.125 0  0.5 0.125 0  0.625 0.125 0  0.75 0.125 0  0.875 0.125 0  1 0.125 0  0 0.25 0  0.125 0.25 0  0.25 0.25 0  0.375 0.25 0  0.5 0.25 0  0.625 0.25 0  0.75 0.25 0  0.875 0.25 0  1 0.25 0  0 0.375 0  0.125 0.375 0  0.25 0.375 0  0.375 0.375 0  0.5 0.375 0  0.625 0.375 0  0.75 0.375 0  0.875 0.375 0  1 0.375 0  0 0.5 0  0.125 0.5 0  0.25 0.5 0  0.375 0.5 0  0.5 0.5 0  0.625 0.5 0  0.75 0.5 0  0.875 0.5 0  1 0.5 0  0 0.625 0  0.125 0.625 0  0.25 0.625 0  0.375 0.625 0  0.5 0.625 0  0.625 0.625 0  0.75 0.625 0  0.875 0.625 0  1 0.625 0  0 0.75 0  0.125 0.75 0  0.25 0.75 0  0.375 0.75 0  0.5 0.75 0  0.625 0.75 0  0.75 0.75 0  0.875 0.75 0  1 0.75 0  0 0.875 0  0.125 0.875 0  0.25 0.875 0  0.375 0.875 0  0.5 0.875 0  0.625 0.875 0  0.75 0.875 0  0.875 0.875 0  1 0.875 0  0 1 0  0.125 1 0  0.25 1 0  0.375 1 0  0.5 1 0  0.625 1 0  0.75 1 0  0.875 1 0  1 1 0  </DataArray>
</Points>
<Cells>
<DataArray  type="UInt32"  Name="connectivity"  format="ascii">0 1 10  0 9 10  1 2 11  1 10 11  2 3 12  2 11 12  3 4 13  3 12 13  4 5 14  4 13 14  5 6 15  5 14 15  6 7 16  6 15 16  7 8 17  7 16 17  9 10 19  9 18 19  10 11 20  10 19 20  11 12 21  11 20 21  12 13 22  12 21 22  13 14 23  13 22 23  14 15 24  14 23 24  15 16 25  15 24 25  16 17 26  16 25 26  18 19 28  18 27 28  19 20 29  19 28 29  20 21 30  20 29 30  21 22 31  21 30 31  22 23 32  22 31 32  23 24 33  23 32 33  24 25 34  24 33 34  25 26 35  25 34 35  27 28 37  27 36 37  28 29 38  28 37 38  29 30 39  29 38 39  30 31 40  30 39 40  31 32 41  31 40 41  32 33 42  32 41 42  33 34 43  33 42 43  34 35 44  34 43 44  36 37 46  36 45 46  37 38 47  37 46 47  38 39 48  38 47 48  39 40 49  39 48 49  40 41 50  40 49 50  41 42 51  41 50 51  42 43 52  42 51 52  43 44 53  43 52 53  45 46 55  45 54 55  46 47 56  46 55 56  47 48 57  47 56 57  48 49 58  48 57 58  49 50 59  49 58 59  50 51 60  50 59 60  51 52 61  51 60 61  52 53 62  52 61 62  54 55 64  54 63 64  55 56 65  55 64 65  56 57 66  56 65 66  57 58 67  57 66 67  58 59 68  58 67 68  59 60 69  59 68 69  60 61 70  60 69 70  61 62 71  61 70 71  63 64 73  63 72 73  64 65 74  64 73 74  65 66 75  65 74 75  66 67 76  66 75 76  67 68 77  67 76 77  68 69 78  68 77 78  69 70 79  69 78 79  70 71 80  70 79 80  </DataArray>
<DataArray  type="UInt32"  Name="offsets"  format="ascii">3 6 9 12 15 18 21 24 27 30 33 36 39 42 45 48 51 54 57 60 63 66 69 72 75 78 81 84 87 90 93 96 99 102 105 108 111 114 117 120 123 126 129 132 135 138 141 144 147 150 153 156 159 162 165 168 171 174 177 180 183 186 189 192 195 198 201 204 207 210 213 216 219 222 225 228 231 234 237 240 243 246 249 252 255 258 261 264 267 270 273 276 279 282 285 288 291 294 297 300 303 306 309 312 315 318 321 324 327 330 333 336 339 342 345 348 351 354 357 360 363 366 369 372 375 378 381 384 </DataArray>
<DataArray  type="UInt8"  Name="types"  format="ascii">5 5 5 5 5 5 5 5 5 5 5 5 5 5 5 5 5 5 5 5 5 5 5 5 5 5 5 5 5 5 5 5 5 5 5 5 5 5 5 5 5 5 5 5 5 5 5 5 5 5 5 5 5 5 5 5 5 5 5 5 5 5 5 5 5 5 5 5 5 5 5 5 5 5 5 5 5 5 5 5 5 5 5 5 5 5 5 5 5 5 5 5 5 5 5 5 5 5 5 5 5 5 5 5 5 5 5 5 5 5 5 5 5 5 5 5 5 5 5 5 5 5 5 5 5 5 5 5 </DataArray>
</Cells>
<PointData  Scalars="f_5910"> 
<DataArray  type="Float64"  Name="f_5910"  format="ascii">8.4715480511804986e-01  8.4039880210115492e-01  8.2069431747992405e-01  7.8816143799370597e-01  7.4333230617076340e-01  6.8690170545368234e-01  6.1975717686487208e-01  5.4294009655928765e-01  4.5754178156401754e-01  8.4700999293303292e-01  8.4040020710053398e-01  8.2070078952687664e-01  7.8816409697734713e-01  7.4333722428718374e-01  6.8690765197119008e-01  6.1976373033698418e-01  5.4293043408434394e-01  4.5769929463107339e-01  8.4702816963649441e-01  8.4042272936422868e-01  8.2069633773780193e-01  7.8816334736196891e-01  7.4333614903768941e-01  6.8690613386197674e-01  6.1976175212185725e-01  5.4293495994971797e-01  4.5767444135771218e-01  8.4702644244048064e-01  8.4041722987589185e-01  8.2069340880415798e-01  7.8816413825871423e-01  7.4333580123109655e-01  6.8690647381375269e-01  6.1976173850754424e-01  5.4293360583568606e-01  4.5767722885799561e-01  8.4702673889347924e-01  8.4041811302764735e-01  8.2069479135702406e-01  7.8816460499236674e-01  7.4333624243909557e-01  6.8690670838364887e-01  6.1976206486298036e-01  5.4293420306537010e-01  4.5767746225073852e-01  8.4702666326140830e-01  8.4041663160703006e-01  8.2069440631494761e-01  7.8816432753524457e-01  7.4333570228185653e-01  6.8690631471807206e-01  6.1976125231744972e-01  5.4293391268508329e-01  4.5767732081565021e-01  8.4702320203524351e-01  8.4042042223062496e-01  8.2069488790871337e-01  7.8816445292069059e-01  7.4333642790760490e-01  6.8690662621753162e-01  6.1976340538449581e-01  5.4293688923062411e-01  4.5767784428700403e-01  8.4706123241623887e-01  8.4040638239190979e-01  8.2069564865249667e-01  7.8816310327432770e-01  7.4333538343569927e-01  6.8690516339383556e-01  6.1976277411044811e-01  5.4292317150298364e-01  4.5766920917983062e-01  8.4676972832734243e-01  8.4045407813796724e-01  8.2069351770609023e-01  7.8816808812014949e-01  7.4333950355518641e-01  6.8691158130045482e-01  6.1976614289839493e-01  5.4293653739172965e-01  4.5774473332743371e-01  </DataArray> 
</PointData> 
</Piece>
</UnstructuredGrid>
</VTKFile>