<?xml version="1.0"?>
<VTKFile type="UnstructuredGrid"  version="0.1"  >
<UnstructuredGrid>
<Piece  NumberOfPoints="81" NumberOfCells="128">
<Points>
<DataArray  type="Float64"  NumberOfComponents="3"  format="ascii">0 0 0  0.125 0 0  0.25 0 0  0.375 0 0  0.5 0 0  0.625 0 0  0.75 0 0  0.875 0 0  1 0 0  0 0.125 0  0.125 0.125 0  0.25 0.125 0  0.375 0.125 0  0.5 0.125 0  0.625 0.125 0  0.75 0.125 0  0.875 0.125 0  1 0.125 0  0 0.25 0  0.125 0.25 0  0.25 0.25 0  0.375 0.25 0  0.5 0.25 0  0.625 0.25 0  0.75 0.25 0  0.875 0.25 0  1 0.25 0  0 0.375 0  0.125 0.375 0  0.25 0.375 0  0.375 0.375 0  0.5 0.375 0  0.625 0.375 0  0.75 0.375 0  0.875 0.375 0  1 0.375 0  0 0.5 0  0.125 0.5 0  0.25 0.5 0  0.375 0.5 0  0.5 0.5 0  0.625 0.5 0  0.75 0.5 0  0.875 0.5 0  1 0.5 0  0 0.625 0  0.125 0.625 0  0.25 0.625 0  0.375 0.625 0  0.5 0.625 0  0.625 0.625 0  0.75 0.625 0  0.875 0.625 0  1 0.625 0  0 0.75 0  0.125 0.75 0  0.25 0.75 0  0.375 0.75 0  0.5 0.75 0  0.625 0.75 0  0.75 0.75 0  0.875 0.75 0  1 0.75 0  0 0.875 0  0.125 0.875 0  0.25 0.875 0  0.375 0.875 0  0.5 0.875 0  0.625 0.875 0  0.75 0.875 0  0.875 0.875 0  1 0.875 0  0 1 0  0.125 1 0  0.25 1 0  0.375 1 0  0.5 1 0  0.625 1 0  0.75 1 0  0.875 1 0  1 1 0  </DataArray>
</Points>
<Cells>
<DataArray  type="UInt32"  Name="connectivity"  format="ascii">0 1 10  0 9 10  1 2 11  1 10 11  2 3 12  2 11 12  3 4 13  3 12 13  4 5 14  4 13 14  5 6 15  5 14 15  6 7 16  6 15 16  7 8 17  7 16 17  9 10 19  9 18 19  10 11 20  10 19 20  11 12 21  11 20 21  12 13 22  12 21 22  13 14 23  13 22 23  14 15 24  14 23 24  15 16 25  15 24 25  16 17 26  16 25 26  18 19 28  18 27 28  19 20 29  19 28 29  20 21 30  20 29 30  21 22 31  21 30 31  22 23 32  22 31 32  23 24 33  23 32 33  24 25 34  24 33 34  25 26 35  25 34 35  27 28 37  27 36 37  28 29 38  28 37 38  29 30 39  29 38 39  30 31 40  30 39 40  31 32 41  31 40 41  32 33 42  32 41 42  33 34 43  33 42 43  34 35 44  34 43 44  36 37 46  36 45 46  37 38 47  37 46 47  38 39 48  38 47 48  39 40 49  39 48 49  40 41 50  40 49 50  41 42 51  41 50 51  42 43 52  42 51 52  43 44 53  43 52 53  45 46 55  45 54 55  46 47 56  46 55 56  47 48 57  47 56 57  48 49 58  48 57 58  49 50 59  49 58 59  50 51 60  50 59 60  51 52 61  51 60 61  52 53 62  52 61 62  54 55 64  54 63 64  55 56 65  55 64 65  56 57 66  56 65 66  57 58 67  57 66 67  58 59 68  58 67 68  59 60 69  59 68 69  60 61 70  60 69 70  61 62 71  61 70 71  63 64 73  63 72 73  64 65 74  64 73 74  65 66 75  65 74 75  66 67 76  66 75 76  67 68 77  67 76 77  68 69 78  68 77 78  69 70 79  69 78 79  70 71 80  70 79 80  </DataArray>
<DataArray  type="UInt32"  Name="offsets"  format="ascii">3 6 9 12 15 18 21 24 27 30 33 36 39 42 45 48 51 54 57 60 63 66 69 72 75 78 81 84 87 90 93 96 99 102 105 108 111 114 117 120 123 126 129 132 135 138 141 144 147 150 153 156 159 162 165 168 171 174 177 180 183 186 189 192 195 198 201 204 207 210 213 216 219 222 225 228 231 234 237 240 243 246 249 252 255 258 261 264 267 270 273 276 279 282 285 288 291 294 297 300 303 306 309 312 315 318 321 324 327 330 333 336 339 342 345 348 351 354 357 360 363 366 369 372 375 378 381 384 </DataArray>
<DataArray  type="UInt8"  Name="types"  format="ascii">5 5 5 5 5 5 5 5 5 5 5 5 5 5 5 5 5 5 5 5 5 5 5 5 5 5 5 5 5 5 5 5 5 5 5 5 5 5 5 5 5 5 5 5 5 5 5 5 5 5 5 5 5 5 5 5 5 5 5 5 5 5 5 5 5 5 5 5 5 5 5 5 5 5 5 5 5 5 5 5 5 5 5 5 5 5 5 5 5 5 5 5 5 5 5 5 5 5 5 5 5 5 5 5 5 5 5 5 5 5 5 5 5 5 5 5 5 5 5 5 5 5 5 5 5 5 5 5 </DataArray>
</Cells>
<PointData  Scalars="f_4511"> 
<DataArray  type="Float64"  Name="f_4511"  format="ascii">1.0014543920741164e+00  9.9346786015189725e-01  9.7017442836319612e-01  9.3171605587748318e-01  8.7872180891609208e-01  8.1201301780249369e-01  7.3263887903497471e-01  6.4183044355945651e-01  5.4087779935433455e-01  1.0012832040010091e+00  9.9346952105589159e-01  9.7018207921969501e-01  9.3171919916467272e-01  8.7872762281133288e-01  8.1202004741035227e-01  7.3264662614729781e-01  6.4181902117489087e-01  5.4106400163030521e-01  1.0013046913837218e+00  9.9349614549307819e-01  9.7017681658800758e-01  9.3171831301540153e-01  8.7872635171740499e-01  8.1201825279485773e-01  7.3264428762284484e-01  6.4182437137503079e-01  5.4103462161662297e-01  1.0013026495986503e+00  9.9348964433565690e-01  9.7017335418250106e-01  9.3171924796496997e-01  8.7872594056180731e-01  8.1201865466497325e-01  7.3264427152883960e-01  6.4182277062456949e-01  5.4103791682829494e-01  1.0013030000471830e+00  9.9349068834343246e-01  9.7017498855160533e-01  9.3171979970883467e-01  8.7872646213081262e-01  8.1201893195910080e-01  7.3264465732619699e-01  6.4182347663283013e-01  5.4103819273086462e-01  1.0013029106395928e+00  9.9348893709894315e-01  9.7017453337850645e-01  9.3171947171606195e-01  8.7872582359009122e-01  8.1201846659182819e-01  7.3264369678476382e-01  6.4182313336308561e-01  5.4103802553498781e-01  1.0012988189905532e+00  9.9349341814139858e-01  9.7017510268908458e-01  9.3171961993903640e-01  8.7872668138029586e-01  8.1201883482736248e-01  7.3264624200841955e-01  6.4182665205245248e-01  5.4103864435067894e-01  1.0013437761717556e+00  9.9347682110616897e-01  9.7017600199367282e-01  9.3171802446997976e-01  8.7872544666974328e-01  8.1201710556701168e-01  7.3264549575500260e-01  6.4181043579715658e-01  5.4102843645720733e-01  1.0009991779373251e+00  9.9353320408845847e-01  9.7017348291967886e-01  9.3172391724862236e-01  8.7873031722200967e-01  8.1202469242213315e-01  7.3264947812925640e-01  6.4182623613011625e-01  5.4111771646703322e-01  </DataArray> 
</PointData> 
</Piece>
</UnstructuredGrid>
</VTKFile>