<?xml version="1.0"?>
<VTKFile type="UnstructuredGrid"  version="0.1"  >
<UnstructuredGrid>
<Piece  NumberOfPoints="81" NumberOfCells="128">
<Points>
<DataArray  type="Float64"  NumberOfComponents="3"  format="ascii">0 0 0  0.125 0 0  0.25 0 0  0.375 0 0  0.5 0 0  0.625 0 0  0.75 0 0  0.875 0 0  1 0 0  0 0.125 0  0.125 0.125 0  0.25 0.125 0  0.375 0.125 0  0.5 0.125 0  0.625 0.125 0  0.75 0.125 0  0.875 0.125 0  1 0.125 0  0 0.25 0  0.125 0.25 0  0.25 0.25 0  0.375 0.25 0  0.5 0.25 0  0.625 0.25 0  0.75 0.25 0  0.875 0.25 0  1 0.25 0  0 0.375 0  0.125 0.375 0  0.25 0.375 0  0.375 0.375 0  0.5 0.375 0  0.625 0.375 0  0.75 0.375 0  0.875 0.375 0  1 0.375 0  0 0.5 0  0.125 0.5 0  0.25 0.5 0  0.375 0.5 0  0.5 0.5 0  0.625 0.5 0  0.75 0.5 0  0.875 0.5 0  1 0.5 0  0 0.625 0  0.125 0.625 0  0.25 0.625 0  0.375 0.625 0  0.5 0.625 0  0.625 0.625 0  0.75 0.625 0  0.875 0.625 0  1 0.625 0  0 0.75 0  0.125 0.75 0  0.25 0.75 0  0.375 0.75 0  0.5 0.75 0  0.625 0.75 0  0.75 0.75 0  0.875 0.75 0  1 0.75 0  0 0.875 0  0.125 0.875 0  0.25 0.875 0  0.375 0.875 0  0.5 0.875 0  0.625 0.875 0  0.75 0.875 0  0.875 0.875 0  1 0.875 0  0 1 0  0.125 1 0  0.25 1 0  0.375 1 0  0.5 1 0  0.625 1 0  0.75 1 0  0.875 1 0  1 1 0  </DataArray>
</Points>
<Cells>
<DataArray  type="UInt32"  Name="connectivity"  format="ascii">0 1 10  0 9 10  1 2 11  1 10 11  2 3 12  2 11 12  3 4 13  3 12 13  4 5 14  4 13 14  5 6 15  5 14 15  6 7 16  6 15 16  7 8 17  7 16 17  9 10 19  9 18 19  10 11 20  10 19 20  11 12 21  11 20 21  12 13 22  12 21 22  13 14 23  13 22 23  14 15 24  14 23 24  15 16 25  15 24 25  16 17 26  16 25 26  18 19 28  18 27 28  19 20 29  19 28 29  20 21 30  20 29 30  21 22 31  21 30 31  22 23 32  22 31 32  23 24 33  23 32 33  24 25 34  24 33 34  25 26 35  25 34 35  27 28 37  27 36 37  28 29 38  28 37 38  29 30 39  29 38 39  30 31 40  30 39 40  31 32 41  31 40 41  32 33 42  32 41 42  33 34 43  33 42 43  34 35 44  34 43 44  36 37 46  36 45 46  37 38 47  37 46 47  38 39 48  38 47 48  39 40 49  39 48 49  40 41 50  40 49 50  41 42 51  41 50 51  42 43 52  42 51 52  43 44 53  43 52 53  45 46 55  45 54 55  46 47 56  46 55 56  47 48 57  47 56 57  48 49 58  48 57 58  49 50 59  49 58 59  50 51 60  50 59 60  51 52 61  51 60 61  52 53 62  52 61 62  54 55 64  54 63 64  55 56 65  55 64 65  56 57 66  56 65 66  57 58 67  57 66 67  58 59 68  58 67 68  59 60 69  59 68 69  60 61 70  60 69 70  61 62 71  61 70 71  63 64 73  63 72 73  64 65 74  64 73 74  65 66 75  65 74 75  66 67 76  66 75 76  67 68 77  67 76 77  68 69 78  68 77 78  69 70 79  69 78 79  70 71 80  70 79 80  </DataArray>
<DataArray  type="UInt32"  Name="offsets"  format="ascii">3 6 9 12 15 18 21 24 27 30 33 36 39 42 45 48 51 54 57 60 63 66 69 72 75 78 81 84 87 90 93 96 99 102 105 108 111 114 117 120 123 126 129 132 135 138 141 144 147 150 153 156 159 162 165 168 171 174 177 180 183 186 189 192 195 198 201 204 207 210 213 216 219 222 225 228 231 234 237 240 243 246 249 252 255 258 261 264 267 270 273 276 279 282 285 288 291 294 297 300 303 306 309 312 315 318 321 324 327 330 333 336 339 342 345 348 351 354 357 360 363 366 369 372 375 378 381 384 </DataArray>
<DataArray  type="UInt8"  Name="types"  format="ascii">5 5 5 5 5 5 5 5 5 5 5 5 5 5 5 5 5 5 5 5 5 5 5 5 5 5 5 5 5 5 5 5 5 5 5 5 5 5 5 5 5 5 5 5 5 5 5 5 5 5 5 5 5 5 5 5 5 5 5 5 5 5 5 5 5 5 5 5 5 5 5 5 5 5 5 5 5 5 5 5 5 5 5 5 5 5 5 5 5 5 5 5 5 5 5 5 5 5 5 5 5 5 5 5 5 5 5 5 5 5 5 5 5 5 5 5 5 5 5 5 5 5 5 5 5 5 5 5 </DataArray>
</Cells>
<PointData  Scalars="f_5148"> 
<DataArray  type="Float64"  Name="f_5148"  format="ascii">9.5295190092979665e-01  9.4535217313654996e-01  9.2318689004637455e-01  8.8659113545487289e-01  8.3616350861546418e-01  7.7268556113872289e-01  6.9715567478362406e-01  6.1074527817272051e-01  5.1468197767641488e-01  9.5278900384633947e-01  9.4535375359955476e-01  9.2319417035619444e-01  8.8659412650621361e-01  8.3616904093182820e-01  7.7269225028824851e-01  6.9716304668740015e-01  6.1073440899767717e-01  5.1485916179408198e-01  9.5280945055101673e-01  9.4537908856061670e-01  9.2318916260455830e-01  8.8659328327497011e-01  8.3616783139958739e-01  7.7269054258966452e-01  6.9716082142248503e-01  6.1073950007664646e-01  5.1483120471474930e-01  9.5280750765378563e-01  9.4537290226758885e-01  9.2318586789045509e-01  8.8659417294301279e-01  8.3616744015709943e-01  7.7269092499638603e-01  6.9716080610794551e-01  6.1073797685381481e-01  5.1483434033255815e-01  9.5280784112937666e-01  9.4537389571192665e-01  9.2318742310371060e-01  8.8659469796478985e-01  8.3616793646544652e-01  7.7269118886059018e-01  6.9716117322034521e-01  6.1073864866864613e-01  5.1483460287259986e-01  9.5280775605197954e-01  9.4537222928380138e-01  9.2318698997557802e-01  8.8659438585737982e-01  8.3616732885056355e-01  7.7269074603200949e-01  6.9716025919990476e-01  6.1073832202416001e-01  5.1483444377436283e-01  9.5280386256989869e-01  9.4537649330017537e-01  9.2318753171327739e-01  8.8659452690161156e-01  8.3616814509622828e-01  7.7269109643314060e-01  6.9716268115315605e-01  6.1074167029618054e-01  5.1483503261954033e-01  9.5284664238256545e-01  9.4536070009341888e-01  9.2318838746269838e-01  8.8659300870439561e-01  8.3616697018524089e-01  7.7268945092441743e-01  6.9716197104232369e-01  6.1072623942740356e-01  5.1482531911529572e-01  9.5251873374772777e-01  9.4541435233217996e-01  9.2318599039262694e-01  8.8659861608367663e-01  8.3617160484666730e-01  7.7269667033257738e-01  6.9716576054202095e-01  6.1074127451781612e-01  5.1491027511104759e-01  </DataArray> 
</PointData> 
</Piece>
</UnstructuredGrid>
</VTKFile>