<?xml version="1.0"?>
<VTKFile type="UnstructuredGrid"  version="0.1"  >
<UnstructuredGrid>
<Piece  NumberOfPoints="81" NumberOfCells="128">
<Points>
<DataArray  type="Float64"  NumberOfComponents="3"  format="ascii">0 0 0  0.125 0 0  0.25 0 0  0.375 0 0  0.5 0 0  0.625 0 0  0.75 0 0  0.875 0 0  1 0 0  0 0.125 0  0.125 0.125 0  0.25 0.125 0  0.375 0.125 0  0.5 0.125 0  0.625 0.125 0  0.75 0.125 0  0.875 0.125 0  1 0.125 0  0 0.25 0  0.125 0.25 0  0.25 0.25 0  0.375 0.25 0  0.5 0.25 0  0.625 0.25 0  0.75 0.25 0  0.875 0.25 0  1 0.25 0  0 0.375 0  0.125 0.375 0  0.25 0.375 0  0.375 0.375 0  0.5 0.375 0  0.625 0.375 0  0.75 0.375 0  0.875 0.375 0  1 0.375 0  0 0.5 0  0.125 0.5 0  0.25 0.5 0  0.375 0.5 0  0.5 0.5 0  0.625 0.5 0  0.75 0.5 0  0.875 0.5 0  1 0.5 0  0 0.625 0  0.125 0.625 0  0.25 0.625 0  0.375 0.625 0  0.5 0.625 0  0.625 0.625 0  0.75 0.625 0  0.875 0.625 0  1 0.625 0  0 0.75 0  0.125 0.75 0  0.25 0.75 0  0.375 0.75 0  0.5 0.75 0  0.625 0.75 0  0.75 0.75 0  0.875 0.75 0  1 0.75 0  0 0.875 0  0.125 0.875 0  0.25 0.875 0  0.375 0.875 0  0.5 0.875 0  0.625 0.875 0  0.75 0.875 0  0.875 0.875 0  1 0.875 0  0 1 0  0.125 1 0  0.25 1 0  0.375 1 0  0.5 1 0  0.625 1 0  0.75 1 0  0.875 1 0  1 1 0  </DataArray>
</Points>
<Cells>
<DataArray  type="UInt32"  Name="connectivity"  format="ascii">0 1 10  0 9 10  1 2 11  1 10 11  2 3 12  2 11 12  3 4 13  3 12 13  4 5 14  4 13 14  5 6 15  5 14 15  6 7 16  6 15 16  7 8 17  7 16 17  9 10 19  9 18 19  10 11 20  10 19 20  11 12 21  11 20 21  12 13 22  12 21 22  13 14 23  13 22 23  14 15 24  14 23 24  15 16 25  15 24 25  16 17 26  16 25 26  18 19 28  18 27 28  19 20 29  19 28 29  20 21 30  20 29 30  21 22 31  21 30 31  22 23 32  22 31 32  23 24 33  23 32 33  24 25 34  24 33 34  25 26 35  25 34 35  27 28 37  27 36 37  28 29 38  28 37 38  29 30 39  29 38 39  30 31 40  30 39 40  31 32 41  31 40 41  32 33 42  32 41 42  33 34 43  33 42 43  34 35 44  34 43 44  36 37 46  36 45 46  37 38 47  37 46 47  38 39 48  38 47 48  39 40 49  39 48 49  40 41 50  40 49 50  41 42 51  41 50 51  42 43 52  42 51 52  43 44 53  43 52 53  45 46 55  45 54 55  46 47 56  46 55 56  47 48 57  47 56 57  48 49 58  48 57 58  49 50 59  49 58 59  50 51 60  50 59 60  51 52 61  51 60 61  52 53 62  52 61 62  54 55 64  54 63 64  55 56 65  55 64 65  56 57 66  56 65 66  57 58 67  57 66 67  58 59 68  58 67 68  59 60 69  59 68 69  60 61 70  60 69 70  61 62 71  61 70 71  63 64 73  63 72 73  64 65 74  64 73 74  65 66 75  65 74 75  66 67 76  66 75 76  67 68 77  67 76 77  68 69 78  68 77 78  69 70 79  69 78 79  70 71 80  70 79 80  </DataArray>
<DataArray  type="UInt32"  Name="offsets"  format="ascii">3 6 9 12 15 18 21 24 27 30 33 36 39 42 45 48 51 54 57 60 63 66 69 72 75 78 81 84 87 90 93 96 99 102 105 108 111 114 117 120 123 126 129 132 135 138 141 144 147 150 153 156 159 162 165 168 171 174 177 180 183 186 189 192 195 198 201 204 207 210 213 216 219 222 225 228 231 234 237 240 243 246 249 252 255 258 261 264 267 270 273 276 279 282 285 288 291 294 297 300 303 306 309 312 315 318 321 324 327 330 333 336 339 342 345 348 351 354 357 360 363 366 369 372 375 378 381 384 </DataArray>
<DataArray  type="UInt8"  Name="types"  format="ascii">5 5 5 5 5 5 5 5 5 5 5 5 5 5 5 5 5 5 5 5 5 5 5 5 5 5 5 5 5 5 5 5 5 5 5 5 5 5 5 5 5 5 5 5 5 5 5 5 5 5 5 5 5 5 5 5 5 5 5 5 5 5 5 5 5 5 5 5 5 5 5 5 5 5 5 5 5 5 5 5 5 5 5 5 5 5 5 5 5 5 5 5 5 5 5 5 5 5 5 5 5 5 5 5 5 5 5 5 5 5 5 5 5 5 5 5 5 5 5 5 5 5 5 5 5 5 5 5 </DataArray>
</Cells>
<PointData  Vectors="f_16414"> 
<DataArray  type="Float64"  Name="f_16414"  NumberOfComponents="3" format="ascii">9.7833399014409970e-05 -9.7769002563872039e-05 0.0000000000000000e+00  -4.8462727422366944e-03 -5.0222879630314787e-01 0.0000000000000000e+00  1.6761050424262650e-04 -7.1204501665851649e-01 0.0000000000000000e+00  3.5048832761710742e-03 -5.0547040262076337e-01 0.0000000000000000e+00  4.3245698618762356e-03 -3.0594932117141331e-03 0.0000000000000000e+00  1.2246574077753247e-03 5.0204730770045647e-01 0.0000000000000000e+00  -3.3752070759719027e-03 7.1403523135753066e-01 0.0000000000000000e+00  -5.9213440687702346e-03 5.0817733702298928e-01 0.0000000000000000e+00  -2.2665049193088256e-03 -1.1989371381569145e-03 0.0000000000000000e+00  5.0206650496260763e-01 -5.7094243577608788e-06 0.0000000000000000e+00  3.5717037170677751e-01 -3.5841852097434113e-01 0.0000000000000000e+00  5.6843243614163996e-04 -5.0408832942382265e-01 0.0000000000000000e+00  -3.5685357184595029e-01 -3.5496862818212921e-01 0.0000000000000000e+00  -5.0519935991253129e-01 2.1282462818824543e-03 0.0000000000000000e+00  -3.5811707686787797e-01 3.5867107499595829e-01 0.0000000000000000e+00  -1.8937292974619707e-03 5.0598441081636658e-01 0.0000000000000000e+00  3.5507831510049725e-01 3.5760589785135205e-01 0.0000000000000000e+00  5.0541360465649654e-01 -3.3797475537893388e-03 0.0000000000000000e+00  7.0996677344490788e-01 6.2018973067344611e-05 0.0000000000000000e+00  5.0513308507719212e-01 -1.2792075615818039e-03 0.0000000000000000e+00  -4.4936307080884577e-05 4.9609453780536278e-05 0.0000000000000000e+00  -5.0432189421084861e-01 1.6204098807411622e-03 0.0000000000000000e+00  -7.1281369087851265e-01 2.5356254960633116e-03 0.0000000000000000e+00  -5.0378139757147478e-01 2.3820631675460727e-03 0.0000000000000000e+00  -2.2637014958917518e-05 1.4463673335904767e-03 0.0000000000000000e+00  5.0394805033723711e-01 3.2459317650110385e-04 0.0000000000000000e+00  7.1177013690453372e-01 3.0854489732973765e-04 0.0000000000000000e+00  5.0197904037416441e-01 9.2853109115267047e-05 0.0000000000000000e+00  3.5668767305038318e-01 3.5543714052531283e-01 0.0000000000000000e+00  -1.0679964850512436e-03 5.0391996732351052e-01 0.0000000000000000e+00  -3.5709285739906482e-01 3.5756056633847422e-01 0.0000000000000000e+00  -5.0362830277151305e-01 1.8716113362848160e-03 0.0000000000000000e+00  -3.5497841684188991e-01 -3.5464730515729587e-01 0.0000000000000000e+00  1.7185660007169581e-03 -5.0286131337280282e-01 0.0000000000000000e+00  3.5809106093873910e-01 -3.5620542823461282e-01 0.0000000000000000e+00  5.0218664062531904e-01 3.8288667320742023e-03 0.0000000000000000e+00  -6.1136288827938351e-05 6.9241158453033731e-05 0.0000000000000000e+00  -1.0656954419142727e-03 5.0420413099149441e-01 0.0000000000000000e+00  -1.8872514969961840e-03 7.1305469733563154e-01 0.0000000000000000e+00  -1.3723690196443968e-03 5.0456762929295351e-01 0.0000000000000000e+00  -8.7017135359842147e-06 6.4517932906415598e-04 0.0000000000000000e+00  1.5694961314006999e-03 -5.0326184676356911e-01 0.0000000000000000e+00  2.4822177386129895e-03 -7.1179718452943608e-01 0.0000000000000000e+00  2.2230986888402194e-03 -5.0339371707057257e-01 0.0000000000000000e+00  -1.9795461144158600e-03 5.7181609213388601e-03 0.0000000000000000e+00  -5.0206546015289111e-01 5.1249228117867866e-06 0.0000000000000000e+00  -3.5805743947860830e-01 3.5763475775250064e-01 0.0000000000000000e+00  -1.6995735385124170e-03 5.0448520325953261e-01 0.0000000000000000e+00  3.5486108337584632e-01 3.5612735276352298e-01 0.0000000000000000e+00  5.0360393539400361e-01 -6.8775532708029836e-04 0.0000000000000000e+00  3.5743855796664942e-01 -3.5667171563497496e-01 0.0000000000000000e+00  1.7973294963587589e-03 -5.0326275008493371e-01 0.0000000000000000e+00  -3.5526043123616252e-01 -3.5492772423807212e-01 0.0000000000000000e+00  -5.0587700928697688e-01 6.0483696582653481e-03 0.0000000000000000e+00  -7.0996727893423572e-01 -6.1325458800195955e-05 0.0000000000000000e+00  -5.0494795784966984e-01 1.2946511524927775e-03 0.0000000000000000e+00  -5.1164325781371015e-04 1.1407726667640515e-04 0.0000000000000000e+00  5.0344771251857612e-01 -1.0383529335980519e-03 0.0000000000000000e+00  7.1274361994478630e-01 -1.5822236762506412e-03 0.0000000000000000e+00  5.0445371985292331e-01 -1.1125123865352155e-03 0.0000000000000000e+00  3.7547951806648101e-04 2.9698835433422888e-04 0.0000000000000000e+00  -5.0442046578105459e-01 2.2476186882783057e-03 0.0000000000000000e+00  -7.1309081234450378e-01 4.0061550748269311e-03 0.0000000000000000e+00  -5.0198618329886413e-01 -8.5815230687464388e-05 0.0000000000000000e+00  -3.5662366270218654e-01 -3.5604137276048442e-01 0.0000000000000000e+00  1.2320157537622845e-03 -5.0484549121591626e-01 0.0000000000000000e+00  3.5769838220732247e-01 -3.5761620149118206e-01 0.0000000000000000e+00  5.0501553757624129e-01 -1.3380868669427301e-03 0.0000000000000000e+00  3.5657624903513035e-01 3.5543582684452069e-01 0.0000000000000000e+00  -8.5718597373335718e-04 5.0452127369037880e-01 0.0000000000000000e+00  -3.5807205389126123e-01 3.5924482975969801e-01 0.0000000000000000e+00  -5.0250725226863135e-01 7.8994397386702059e-05 0.0000000000000000e+00  -1.2439804966594246e-05 -1.2233486270215103e-05 0.0000000000000000e+00  5.9489193401791735e-03 -5.0708987960862184e-01 0.0000000000000000e+00  2.5848181191127496e-03 -7.1318869306998600e-01 0.0000000000000000e+00  -1.6495470106467132e-03 -5.0124119344317053e-01 0.0000000000000000e+00  -4.5950314841553628e-03 3.8073733585636334e-03 0.0000000000000000e+00  -3.9491482277625852e-03 5.0619472737871907e-01 0.0000000000000000e+00  -9.2939873579021544e-04 7.1299465786162675e-01 0.0000000000000000e+00  2.0082225427636743e-03 5.0410363527645474e-01 0.0000000000000000e+00  7.5700543002738688e-03 -5.8867357561020756e-03 0.0000000000000000e+00  </DataArray> 
</PointData> 
</Piece>
</UnstructuredGrid>
</VTKFile>