<?xml version="1.0"?>
<VTKFile type="UnstructuredGrid"  version="0.1"  >
<UnstructuredGrid>
<Piece  NumberOfPoints="81" NumberOfCells="128">
<Points>
<DataArray  type="Float64"  NumberOfComponents="3"  format="ascii">0 0 0  0.125 0 0  0.25 0 0  0.375 0 0  0.5 0 0  0.625 0 0  0.75 0 0  0.875 0 0  1 0 0  0 0.125 0  0.125 0.125 0  0.25 0.125 0  0.375 0.125 0  0.5 0.125 0  0.625 0.125 0  0.75 0.125 0  0.875 0.125 0  1 0.125 0  0 0.25 0  0.125 0.25 0  0.25 0.25 0  0.375 0.25 0  0.5 0.25 0  0.625 0.25 0  0.75 0.25 0  0.875 0.25 0  1 0.25 0  0 0.375 0  0.125 0.375 0  0.25 0.375 0  0.375 0.375 0  0.5 0.375 0  0.625 0.375 0  0.75 0.375 0  0.875 0.375 0  1 0.375 0  0 0.5 0  0.125 0.5 0  0.25 0.5 0  0.375 0.5 0  0.5 0.5 0  0.625 0.5 0  0.75 0.5 0  0.875 0.5 0  1 0.5 0  0 0.625 0  0.125 0.625 0  0.25 0.625 0  0.375 0.625 0  0.5 0.625 0  0.625 0.625 0  0.75 0.625 0  0.875 0.625 0  1 0.625 0  0 0.75 0  0.125 0.75 0  0.25 0.75 0  0.375 0.75 0  0.5 0.75 0  0.625 0.75 0  0.75 0.75 0  0.875 0.75 0  1 0.75 0  0 0.875 0  0.125 0.875 0  0.25 0.875 0  0.375 0.875 0  0.5 0.875 0  0.625 0.875 0  0.75 0.875 0  0.875 0.875 0  1 0.875 0  0 1 0  0.125 1 0  0.25 1 0  0.375 1 0  0.5 1 0  0.625 1 0  0.75 1 0  0.875 1 0  1 1 0  </DataArray>
</Points>
<Cells>
<DataArray  type="UInt32"  Name="connectivity"  format="ascii">0 1 10  0 9 10  1 2 11  1 10 11  2 3 12  2 11 12  3 4 13  3 12 13  4 5 14  4 13 14  5 6 15  5 14 15  6 7 16  6 15 16  7 8 17  7 16 17  9 10 19  9 18 19  10 11 20  10 19 20  11 12 21  11 20 21  12 13 22  12 21 22  13 14 23  13 22 23  14 15 24  14 23 24  15 16 25  15 24 25  16 17 26  16 25 26  18 19 28  18 27 28  19 20 29  19 28 29  20 21 30  20 29 30  21 22 31  21 30 31  22 23 32  22 31 32  23 24 33  23 32 33  24 25 34  24 33 34  25 26 35  25 34 35  27 28 37  27 36 37  28 29 38  28 37 38  29 30 39  29 38 39  30 31 40  30 39 40  31 32 41  31 40 41  32 33 42  32 41 42  33 34 43  33 42 43  34 35 44  34 43 44  36 37 46  36 45 46  37 38 47  37 46 47  38 39 48  38 47 48  39 40 49  39 48 49  40 41 50  40 49 50  41 42 51  41 50 51  42 43 52  42 51 52  43 44 53  43 52 53  45 46 55  45 54 55  46 47 56  46 55 56  47 48 57  47 56 57  48 49 58  48 57 58  49 50 59  49 58 59  50 51 60  50 59 60  51 52 61  51 60 61  52 53 62  52 61 62  54 55 64  54 63 64  55 56 65  55 64 65  56 57 66  56 65 66  57 58 67  57 66 67  58 59 68  58 67 68  59 60 69  59 68 69  60 61 70  60 69 70  61 62 71  61 70 71  63 64 73  63 72 73  64 65 74  64 73 74  65 66 75  65 74 75  66 67 76  66 75 76  67 68 77  67 76 77  68 69 78  68 77 78  69 70 79  69 78 79  70 71 80  70 79 80  </DataArray>
<DataArray  type="UInt32"  Name="offsets"  format="ascii">3 6 9 12 15 18 21 24 27 30 33 36 39 42 45 48 51 54 57 60 63 66 69 72 75 78 81 84 87 90 93 96 99 102 105 108 111 114 117 120 123 126 129 132 135 138 141 144 147 150 153 156 159 162 165 168 171 174 177 180 183 186 189 192 195 198 201 204 207 210 213 216 219 222 225 228 231 234 237 240 243 246 249 252 255 258 261 264 267 270 273 276 279 282 285 288 291 294 297 300 303 306 309 312 315 318 321 324 327 330 333 336 339 342 345 348 351 354 357 360 363 366 369 372 375 378 381 384 </DataArray>
<DataArray  type="UInt8"  Name="types"  format="ascii">5 5 5 5 5 5 5 5 5 5 5 5 5 5 5 5 5 5 5 5 5 5 5 5 5 5 5 5 5 5 5 5 5 5 5 5 5 5 5 5 5 5 5 5 5 5 5 5 5 5 5 5 5 5 5 5 5 5 5 5 5 5 5 5 5 5 5 5 5 5 5 5 5 5 5 5 5 5 5 5 5 5 5 5 5 5 5 5 5 5 5 5 5 5 5 5 5 5 5 5 5 5 5 5 5 5 5 5 5 5 5 5 5 5 5 5 5 5 5 5 5 5 5 5 5 5 5 5 </DataArray>
</Cells>
<PointData  Vectors="f_15174"> 
<DataArray  type="Float64"  Name="f_15174"  NumberOfComponents="3" format="ascii">1.1879639501983232e-04 -1.1871818016216955e-04 0.0000000000000000e+00  -5.9510619241326711e-03 -6.0990632969502090e-01 0.0000000000000000e+00  5.1243525710718295e-05 -8.6460512050218219e-01 0.0000000000000000e+00  4.1350831147065580e-03 -6.1392025911318415e-01 0.0000000000000000e+00  5.1451632344163573e-03 -4.1169657864544877e-03 0.0000000000000000e+00  1.2138152476114943e-03 6.0912194610787962e-01 0.0000000000000000e+00  -4.4865791385427876e-03 8.6663652442071937e-01 0.0000000000000000e+00  -7.3096584969765772e-03 6.1668014287703321e-01 0.0000000000000000e+00  -2.4519915986365836e-03 -2.2283763538044486e-03 0.0000000000000000e+00  6.0964545191786346e-01 -6.9328180200177137e-06 0.0000000000000000e+00  4.3368653127688844e-01 -4.3523521224334943e-01 0.0000000000000000e+00  6.1640955269095198e-04 -6.1208708944008661e-01 0.0000000000000000e+00  -4.3347916188064800e-01 -4.3106634955792145e-01 0.0000000000000000e+00  -6.1362867884370875e-01 2.3329924445468575e-03 0.0000000000000000e+00  -4.3498925969435392e-01 4.3506011734631717e-01 0.0000000000000000e+00  -2.3864300003735295e-03 6.1384359851285786e-01 0.0000000000000000e+00  4.3116719936020159e-01 4.3360044096819272e-01 0.0000000000000000e+00  6.1386032635483734e-01 -4.8778273705572034e-03 0.0000000000000000e+00  8.6209298997686656e-01 7.5307917577998083e-05 0.0000000000000000e+00  6.1337618673391259e-01 -1.6226741682091499e-03 0.0000000000000000e+00  -9.9413638499966812e-05 -7.3087392708003754e-06 0.0000000000000000e+00  -6.1248083183884516e-01 1.8617969609639701e-03 0.0000000000000000e+00  -8.6558709125499400e-01 2.8134939682317151e-03 0.0000000000000000e+00  -6.1167657635791983e-01 2.3677419429123333e-03 0.0000000000000000e+00  -2.0961037731139188e-05 1.0503053586935574e-03 0.0000000000000000e+00  6.1185034292610818e-01 -3.5685318949671858e-04 0.0000000000000000e+00  8.6412760765237928e-01 -2.7743183181947530e-04 0.0000000000000000e+00  6.0953924605185728e-01 1.1274898220379915e-04 0.0000000000000000e+00  4.3318278819121597e-01 4.3146025141844779e-01 0.0000000000000000e+00  -1.3082367323484121e-03 6.1173899563271739e-01 0.0000000000000000e+00  -4.3360347971153834e-01 4.3401281242491618e-01 0.0000000000000000e+00  -6.1142083029777539e-01 1.9480840780257361e-03 0.0000000000000000e+00  -4.3088196277425928e-01 -4.3122486810376570e-01 0.0000000000000000e+00  2.1193560926239699e-03 -6.1132509195647999e-01 0.0000000000000000e+00  4.3467888705583679e-01 -4.3320310749406954e-01 0.0000000000000000e+00  6.0948468029180536e-01 4.0709286294035732e-03 0.0000000000000000e+00  -7.4236123620374000e-05 8.4077645398275135e-05 0.0000000000000000e+00  -1.2575471182945698e-03 6.1213941608600420e-01 0.0000000000000000e+00  -2.3086584703260315e-03 8.6572148599146337e-01 0.0000000000000000e+00  -1.6354402421202372e-03 6.1251843314022270e-01 0.0000000000000000e+00  1.1096472089629225e-04 4.4653686418493198e-04 0.0000000000000000e+00  2.0490602182630961e-03 -6.1160392854232537e-01 0.0000000000000000e+00  3.0286740948132075e-03 -8.6483313775458648e-01 0.0000000000000000e+00  2.4616801198190878e-03 -6.1168355297581456e-01 0.0000000000000000e+00  -2.8118998406583317e-03 6.5228127800376996e-03 0.0000000000000000e+00  -6.0964418321767722e-01 6.2230512641093342e-06 0.0000000000000000e+00  -4.3473556252236484e-01 4.3423735962078958e-01 0.0000000000000000e+00  -2.0396234708248977e-03 6.1248601970398953e-01 0.0000000000000000e+00  4.3090569236989473e-01 4.3224347976021382e-01 0.0000000000000000e+00  6.1156962947642146e-01 -1.1634503493082448e-03 0.0000000000000000e+00  4.3410243714867092e-01 -4.3346272264274577e-01 0.0000000000000000e+00  2.0958342460344693e-03 -6.1138250478794276e-01 0.0000000000000000e+00  -4.3172361434025991e-01 -4.3115922702129617e-01 0.0000000000000000e+00  -6.1479928234550774e-01 7.3383079020758659e-03 0.0000000000000000e+00  -8.6209360375811017e-01 -7.4465837330699920e-05 0.0000000000000000e+00  -6.1299654333415654e-01 1.4991973763640286e-03 0.0000000000000000e+00  -5.2446199721887003e-04 -5.0766092587080887e-05 0.0000000000000000e+00  6.1136844975761895e-01 -1.5346947923687299e-03 0.0000000000000000e+00  8.6554133027019409e-01 -2.2456970028996276e-03 0.0000000000000000e+00  6.1258091700893047e-01 -1.6349938719315183e-03 0.0000000000000000e+00  3.0880348215734705e-04 1.5284280542259359e-04 0.0000000000000000e+00  -6.1281568772945916e-01 2.6480047423211770e-03 0.0000000000000000e+00  -8.6627759469152610e-01 5.0893803827608258e-03 0.0000000000000000e+00  -6.0954791954076748e-01 -1.0420304220127639e-04 0.0000000000000000e+00  -4.3279848428272905e-01 -4.3256619796518408e-01 0.0000000000000000e+00  1.7337602101291003e-03 -6.1330642651364475e-01 0.0000000000000000e+00  4.3451837165359636e-01 -4.3449124054853866e-01 0.0000000000000000e+00  6.1333733597277740e-01 -1.8716326735961743e-03 0.0000000000000000e+00  4.3299833759456613e-01 4.3133919366427792e-01 0.0000000000000000e+00  -1.1717800621578065e-03 6.1242354920612063e-01 0.0000000000000000e+00  -4.3502457221482388e-01 4.3616027906179072e-01 0.0000000000000000e+00  -6.1026741329255529e-01 8.4724719491603527e-05 0.0000000000000000e+00  -1.5105282767052286e-05 -1.4854804902609401e-05 0.0000000000000000e+00  7.6089128716977901e-03 -6.1611207808707580e-01 0.0000000000000000e+00  3.6976690351631465e-03 -8.6628979697949893e-01 0.0000000000000000e+00  -1.7135009957773249e-03 -6.0871751802355212e-01 0.0000000000000000e+00  -5.5710683706224713e-03 4.6122227252510788e-03 0.0000000000000000e+00  -4.8264858700777218e-03 6.1455446240858547e-01 0.0000000000000000e+00  -1.1608771046616370e-03 8.6561693598664369e-01 0.0000000000000000e+00  2.3411952474686245e-03 6.1202692270719317e-01 0.0000000000000000e+00  9.0923720906647982e-03 -7.2916239684559991e-03 0.0000000000000000e+00  </DataArray> 
</PointData> 
</Piece>
</UnstructuredGrid>
</VTKFile>