<?xml version="1.0"?>
<VTKFile type="UnstructuredGrid"  version="0.1"  >
<UnstructuredGrid>
<Piece  NumberOfPoints="1089" NumberOfCells="2048">
<Points>
<DataArray  type="Float64"  NumberOfComponents="3"  format="ascii">0 0 0  0.03125 0 0  0.0625 0 0  0.09375 0 0  0.125 0 0  0.15625 0 0  0.1875 0 0  0.21875 0 0  0.25 0 0  0.28125 0 0  0.3125 0 0  0.34375 0 0  0.375 0 0  0.40625 0 0  0.4375 0 0  0.46875 0 0  0.5 0 0  0.53125 0 0  0.5625 0 0  0.59375 0 0  0.625 0 0  0.65625 0 0  0.6875 0 0  0.71875 0 0  0.75 0 0  0.78125 0 0  0.8125 0 0  0.84375 0 0  0.875 0 0  0.90625 0 0  0.9375 0 0  0.96875 0 0  1 0 0  0 0.03125 0  0.03125 0.03125 0  0.0625 0.03125 0  0.09375 0.03125 0  0.125 0.03125 0  0.15625 0.03125 0  0.1875 0.03125 0  0.21875 0.03125 0  0.25 0.03125 0  0.28125 0.03125 0  0.3125 0.03125 0  0.34375 0.03125 0  0.375 0.03125 0  0.40625 0.03125 0  0.4375 0.03125 0  0.46875 0.03125 0  0.5 0.03125 0  0.53125 0.03125 0  0.5625 0.03125 0  0.59375 0.03125 0  0.625 0.03125 0  0.65625 0.03125 0  0.6875 0.03125 0  0.71875 0.03125 0  0.75 0.03125 0  0.78125 0.03125 0  0.8125 0.03125 0  0.84375 0.03125 0  0.875 0.03125 0  0.90625 0.03125 0  0.9375 0.03125 0  0.96875 0.03125 0  1 0.03125 0  0 0.0625 0  0.03125 0.0625 0  0.0625 0.0625 0  0.09375 0.0625 0  0.125 0.0625 0  0.15625 0.0625 0  0.1875 0.0625 0  0.21875 0.0625 0  0.25 0.0625 0  0.28125 0.0625 0  0.3125 0.0625 0  0.34375 0.0625 0  0.375 0.0625 0  0.40625 0.0625 0  0.4375 0.0625 0  0.46875 0.0625 0  0.5 0.0625 0  0.53125 0.0625 0  0.5625 0.0625 0  0.59375 0.0625 0  0.625 0.0625 0  0.65625 0.0625 0  0.6875 0.0625 0  0.71875 0.0625 0  0.75 0.0625 0  0.78125 0.0625 0  0.8125 0.0625 0  0.84375 0.0625 0  0.875 0.0625 0  0.90625 0.0625 0  0.9375 0.0625 0  0.96875 0.0625 0  1 0.0625 0  0 0.09375 0  0.03125 0.09375 0  0.0625 0.09375 0  0.09375 0.09375 0  0.125 0.09375 0  0.15625 0.09375 0  0.1875 0.09375 0  0.21875 0.09375 0  0.25 0.09375 0  0.28125 0.09375 0  0.3125 0.09375 0  0.34375 0.09375 0  0.375 0.09375 0  0.40625 0.09375 0  0.4375 0.09375 0  0.46875 0.09375 0  0.5 0.09375 0  0.53125 0.09375 0  0.5625 0.09375 0  0.59375 0.09375 0  0.625 0.09375 0  0.65625 0.09375 0  0.6875 0.09375 0  0.71875 0.09375 0  0.75 0.09375 0  0.78125 0.09375 0  0.8125 0.09375 0  0.84375 0.09375 0  0.875 0.09375 0  0.90625 0.09375 0  0.9375 0.09375 0  0.96875 0.09375 0  1 0.09375 0  0 0.125 0  0.03125 0.125 0  0.0625 0.125 0  0.09375 0.125 0  0.125 0.125 0  0.15625 0.125 0  0.1875 0.125 0  0.21875 0.125 0  0.25 0.125 0  0.28125 0.125 0  0.3125 0.125 0  0.34375 0.125 0  0.375 0.125 0  0.40625 0.125 0  0.4375 0.125 0  0.46875 0.125 0  0.5 0.125 0  0.53125 0.125 0  0.5625 0.125 0  0.59375 0.125 0  0.625 0.125 0  0.65625 0.125 0  0.6875 0.125 0  0.71875 0.125 0  0.75 0.125 0  0.78125 0.125 0  0.8125 0.125 0  0.84375 0.125 0  0.875 0.125 0  0.90625 0.125 0  0.9375 0.125 0  0.96875 0.125 0  1 0.125 0  0 0.15625 0  0.03125 0.15625 0  0.0625 0.15625 0  0.09375 0.15625 0  0.125 0.15625 0  0.15625 0.15625 0  0.1875 0.15625 0  0.21875 0.15625 0  0.25 0.15625 0  0.28125 0.15625 0  0.3125 0.15625 0  0.34375 0.15625 0  0.375 0.15625 0  0.40625 0.15625 0  0.4375 0.15625 0  0.46875 0.15625 0  0.5 0.15625 0  0.53125 0.15625 0  0.5625 0.15625 0  0.59375 0.15625 0  0.625 0.15625 0  0.65625 0.15625 0  0.6875 0.15625 0  0.71875 0.15625 0  0.75 0.15625 0  0.78125 0.15625 0  0.8125 0.15625 0  0.84375 0.15625 0  0.875 0.15625 0  0.90625 0.15625 0  0.9375 0.15625 0  0.96875 0.15625 0  1 0.15625 0  0 0.1875 0  0.03125 0.1875 0  0.0625 0.1875 0  0.09375 0.1875 0  0.125 0.1875 0  0.15625 0.1875 0  0.1875 0.1875 0  0.21875 0.1875 0  0.25 0.1875 0  0.28125 0.1875 0  0.3125 0.1875 0  0.34375 0.1875 0  0.375 0.1875 0  0.40625 0.1875 0  0.4375 0.1875 0  0.46875 0.1875 0  0.5 0.1875 0  0.53125 0.1875 0  0.5625 0.1875 0  0.59375 0.1875 0  0.625 0.1875 0  0.65625 0.1875 0  0.6875 0.1875 0  0.71875 0.1875 0  0.75 0.1875 0  0.78125 0.1875 0  0.8125 0.1875 0  0.84375 0.1875 0  0.875 0.1875 0  0.90625 0.1875 0  0.9375 0.1875 0  0.96875 0.1875 0  1 0.1875 0  0 0.21875 0  0.03125 0.21875 0  0.0625 0.21875 0  0.09375 0.21875 0  0.125 0.21875 0  0.15625 0.21875 0  0.1875 0.21875 0  0.21875 0.21875 0  0.25 0.21875 0  0.28125 0.21875 0  0.3125 0.21875 0  0.34375 0.21875 0  0.375 0.21875 0  0.40625 0.21875 0  0.4375 0.21875 0  0.46875 0.21875 0  0.5 0.21875 0  0.53125 0.21875 0  0.5625 0.21875 0  0.59375 0.21875 0  0.625 0.21875 0  0.65625 0.21875 0  0.6875 0.21875 0  0.71875 0.21875 0  0.75 0.21875 0  0.78125 0.21875 0  0.8125 0.21875 0  0.84375 0.21875 0  0.875 0.21875 0  0.90625 0.21875 0  0.9375 0.21875 0  0.96875 0.21875 0  1 0.21875 0  0 0.25 0  0.03125 0.25 0  0.0625 0.25 0  0.09375 0.25 0  0.125 0.25 0  0.15625 0.25 0  0.1875 0.25 0  0.21875 0.25 0  0.25 0.25 0  0.28125 0.25 0  0.3125 0.25 0  0.34375 0.25 0  0.375 0.25 0  0.40625 0.25 0  0.4375 0.25 0  0.46875 0.25 0  0.5 0.25 0  0.53125 0.25 0  0.5625 0.25 0  0.59375 0.25 0  0.625 0.25 0  0.65625 0.25 0  0.6875 0.25 0  0.71875 0.25 0  0.75 0.25 0  0.78125 0.25 0  0.8125 0.25 0  0.84375 0.25 0  0.875 0.25 0  0.90625 0.25 0  0.9375 0.25 0  0.96875 0.25 0  1 0.25 0  0 0.28125 0  0.03125 0.28125 0  0.0625 0.28125 0  0.09375 0.28125 0  0.125 0.28125 0  0.15625 0.28125 0  0.1875 0.28125 0  0.21875 0.28125 0  0.25 0.28125 0  0.28125 0.28125 0  0.3125 0.28125 0  0.34375 0.28125 0  0.375 0.28125 0  0.40625 0.28125 0  0.4375 0.28125 0  0.46875 0.28125 0  0.5 0.28125 0  0.53125 0.28125 0  0.5625 0.28125 0  0.59375 0.28125 0  0.625 0.28125 0  0.65625 0.28125 0  0.6875 0.28125 0  0.71875 0.28125 0  0.75 0.28125 0  0.78125 0.28125 0  0.8125 0.28125 0  0.84375 0.28125 0  0.875 0.28125 0  0.90625 0.28125 0  0.9375 0.28125 0  0.96875 0.28125 0  1 0.28125 0  0 0.3125 0  0.03125 0.3125 0  0.0625 0.3125 0  0.09375 0.3125 0  0.125 0.3125 0  0.15625 0.3125 0  0.1875 0.3125 0  0.21875 0.3125 0  0.25 0.3125 0  0.28125 0.3125 0  0.3125 0.3125 0  0.34375 0.3125 0  0.375 0.3125 0  0.40625 0.3125 0  0.4375 0.3125 0  0.46875 0.3125 0  0.5 0.3125 0  0.53125 0.3125 0  0.5625 0.3125 0  0.59375 0.3125 0  0.625 0.3125 0  0.65625 0.3125 0  0.6875 0.3125 0  0.71875 0.3125 0  0.75 0.3125 0  0.78125 0.3125 0  0.8125 0.3125 0  0.84375 0.3125 0  0.875 0.3125 0  0.90625 0.3125 0  0.9375 0.3125 0  0.96875 0.3125 0  1 0.3125 0  0 0.34375 0  0.03125 0.34375 0  0.0625 0.34375 0  0.09375 0.34375 0  0.125 0.34375 0  0.15625 0.34375 0  0.1875 0.34375 0  0.21875 0.34375 0  0.25 0.34375 0  0.28125 0.34375 0  0.3125 0.34375 0  0.34375 0.34375 0  0.375 0.34375 0  0.40625 0.34375 0  0.4375 0.34375 0  0.46875 0.34375 0  0.5 0.34375 0  0.53125 0.34375 0  0.5625 0.34375 0  0.59375 0.34375 0  0.625 0.34375 0  0.65625 0.34375 0  0.6875 0.34375 0  0.71875 0.34375 0  0.75 0.34375 0  0.78125 0.34375 0  0.8125 0.34375 0  0.84375 0.34375 0  0.875 0.34375 0  0.90625 0.34375 0  0.9375 0.34375 0  0.96875 0.34375 0  1 0.34375 0  0 0.375 0  0.03125 0.375 0  0.0625 0.375 0  0.09375 0.375 0  0.125 0.375 0  0.15625 0.375 0  0.1875 0.375 0  0.21875 0.375 0  0.25 0.375 0  0.28125 0.375 0  0.3125 0.375 0  0.34375 0.375 0  0.375 0.375 0  0.40625 0.375 0  0.4375 0.375 0  0.46875 0.375 0  0.5 0.375 0  0.53125 0.375 0  0.5625 0.375 0  0.59375 0.375 0  0.625 0.375 0  0.65625 0.375 0  0.6875 0.375 0  0.71875 0.375 0  0.75 0.375 0  0.78125 0.375 0  0.8125 0.375 0  0.84375 0.375 0  0.875 0.375 0  0.90625 0.375 0  0.9375 0.375 0  0.96875 0.375 0  1 0.375 0  0 0.40625 0  0.03125 0.40625 0  0.0625 0.40625 0  0.09375 0.40625 0  0.125 0.40625 0  0.15625 0.40625 0  0.1875 0.40625 0  0.21875 0.40625 0  0.25 0.40625 0  0.28125 0.40625 0  0.3125 0.40625 0  0.34375 0.40625 0  0.375 0.40625 0  0.40625 0.40625 0  0.4375 0.40625 0  0.46875 0.40625 0  0.5 0.40625 0  0.53125 0.40625 0  0.5625 0.40625 0  0.59375 0.40625 0  0.625 0.40625 0  0.65625 0.40625 0  0.6875 0.40625 0  0.71875 0.40625 0  0.75 0.40625 0  0.78125 0.40625 0  0.8125 0.40625 0  0.84375 0.40625 0  0.875 0.40625 0  0.90625 0.40625 0  0.9375 0.40625 0  0.96875 0.40625 0  1 0.40625 0  0 0.4375 0  0.03125 0.4375 0  0.0625 0.4375 0  0.09375 0.4375 0  0.125 0.4375 0  0.15625 0.4375 0  0.1875 0.4375 0  0.21875 0.4375 0  0.25 0.4375 0  0.28125 0.4375 0  0.3125 0.4375 0  0.34375 0.4375 0  0.375 0.4375 0  0.40625 0.4375 0  0.4375 0.4375 0  0.46875 0.4375 0  0.5 0.4375 0  0.53125 0.4375 0  0.5625 0.4375 0  0.59375 0.4375 0  0.625 0.4375 0  0.65625 0.4375 0  0.6875 0.4375 0  0.71875 0.4375 0  0.75 0.4375 0  0.78125 0.4375 0  0.8125 0.4375 0  0.84375 0.4375 0  0.875 0.4375 0  0.90625 0.4375 0  0.9375 0.4375 0  0.96875 0.4375 0  1 0.4375 0  0 0.46875 0  0.03125 0.46875 0  0.0625 0.46875 0  0.09375 0.46875 0  0.125 0.46875 0  0.15625 0.46875 0  0.1875 0.46875 0  0.21875 0.46875 0  0.25 0.46875 0  0.28125 0.46875 0  0.3125 0.46875 0  0.34375 0.46875 0  0.375 0.46875 0  0.40625 0.46875 0  0.4375 0.46875 0  0.46875 0.46875 0  0.5 0.46875 0  0.53125 0.46875 0  0.5625 0.46875 0  0.59375 0.46875 0  0.625 0.46875 0  0.65625 0.46875 0  0.6875 0.46875 0  0.71875 0.46875 0  0.75 0.46875 0  0.78125 0.46875 0  0.8125 0.46875 0  0.84375 0.46875 0  0.875 0.46875 0  0.90625 0.46875 0  0.9375 0.46875 0  0.96875 0.46875 0  1 0.46875 0  0 0.5 0  0.03125 0.5 0  0.0625 0.5 0  0.09375 0.5 0  0.125 0.5 0  0.15625 0.5 0  0.1875 0.5 0  0.21875 0.5 0  0.25 0.5 0  0.28125 0.5 0  0.3125 0.5 0  0.34375 0.5 0  0.375 0.5 0  0.40625 0.5 0  0.4375 0.5 0  0.46875 0.5 0  0.5 0.5 0  0.53125 0.5 0  0.5625 0.5 0  0.59375 0.5 0  0.625 0.5 0  0.65625 0.5 0  0.6875 0.5 0  0.71875 0.5 0  0.75 0.5 0  0.78125 0.5 0  0.8125 0.5 0  0.84375 0.5 0  0.875 0.5 0  0.90625 0.5 0  0.9375 0.5 0  0.96875 0.5 0  1 0.5 0  0 0.53125 0  0.03125 0.53125 0  0.0625 0.53125 0  0.09375 0.53125 0  0.125 0.53125 0  0.15625 0.53125 0  0.1875 0.53125 0  0.21875 0.53125 0  0.25 0.53125 0  0.28125 0.53125 0  0.3125 0.53125 0  0.34375 0.53125 0  0.375 0.53125 0  0.40625 0.53125 0  0.4375 0.53125 0  0.46875 0.53125 0  0.5 0.53125 0  0.53125 0.53125 0  0.5625 0.53125 0  0.59375 0.53125 0  0.625 0.53125 0  0.65625 0.53125 0  0.6875 0.53125 0  0.71875 0.53125 0  0.75 0.53125 0  0.78125 0.531
[...]
<PointData  Vectors="f_12172"> 
<DataArray  type="Float64"  Name="f_12172"  NumberOfComponents="3" format="ascii">1.0478257871505817e-07 -1.4335204840921283e-07 0.0000000000000000e+00  -1.5323658946487543e-05 -1.1546131672230019e-01 0.0000000000000000e+00  -2.4497787330073577e-05 -2.2646938762835861e-01 0.0000000000000000e+00  -3.8389443362236025e-05 -3.2878016232225815e-01 0.0000000000000000e+00  -4.7294792637476696e-05 -4.1845339012576616e-01 0.0000000000000000e+00  -5.2740503602664880e-05 -4.9204333012177126e-01 0.0000000000000000e+00  -5.4078433347112466e-05 -5.4672528159775424e-01 0.0000000000000000e+00  -5.1681617438799865e-05 -5.8040076902556670e-01 0.0000000000000000e+00  -4.6561824057145136e-05 -5.9177762546809820e-01 0.0000000000000000e+00  -4.0106066081815183e-05 -5.8041940351098409e-01 0.0000000000000000e+00  -3.3813362850347739e-05 -5.4676217290741158e-01 0.0000000000000000e+00  -2.9006340808550119e-05 -4.9209789133534065e-01 0.0000000000000000e+00  -2.6588971053317458e-05 -4.1852500735524861e-01 0.0000000000000000e+00  -2.6890716616341580e-05 -3.2886818749396962e-01 0.0000000000000000e+00  -2.9620508397891729e-05 -2.2657019975051043e-01 0.0000000000000000e+00  -3.3932947789424194e-05 -1.1556003571639732e-01 0.0000000000000000e+00  -3.8588509701749432e-05 -1.0226823846739736e-04 0.0000000000000000e+00  -4.2174120232827166e-05 1.1536662071759868e-01 0.0000000000000000e+00  -4.3342968434953567e-05 2.2640868124610325e-01 0.0000000000000000e+00  -4.1033422927625624e-05 3.2875515643243108e-01 0.0000000000000000e+00  -3.4634954784195731e-05 4.1847077939487953e-01 0.0000000000000000e+00  -2.4080955045430347e-05 4.9210534841929060e-01 0.0000000000000000e+00  -9.8614386727229712e-06 5.4682670192213645e-01 0.0000000000000000e+00  7.0417711927632146e-06 5.8052992845727880e-01 0.0000000000000000e+00  2.5280642194231477e-05 5.9191857130254455e-01 0.0000000000000000e+00  4.3328895009818654e-05 5.8055465276133744e-01 0.0000000000000000e+00  5.9639636994724847e-05 5.4687562155972247e-01 0.0000000000000000e+00  7.2964998756032035e-05 4.9217740729531867e-01 0.0000000000000000e+00  8.2201947121847606e-05 4.1856476268257492e-01 0.0000000000000000e+00  8.5870833318673536e-05 3.2887190873288935e-01 0.0000000000000000e+00  8.3396854629296625e-05 2.2655037720819476e-01 0.0000000000000000e+00  4.1437953620629297e-05 1.1558256203323504e-01 0.0000000000000000e+00  8.5339303983198277e-05 1.0384699494343564e-05 0.0000000000000000e+00  1.1545558887720461e-01 -1.2325292794067564e-07 0.0000000000000000e+00  1.1328485837785345e-01 -1.1334107040089694e-01 0.0000000000000000e+00  1.0667612780427362e-01 -2.2219396554080156e-01 0.0000000000000000e+00  9.5989641788616700e-02 -3.2252822272983933e-01 0.0000000000000000e+00  8.1620099357651799e-02 -4.1046850290947035e-01 0.0000000000000000e+00  6.4114838094309137e-02 -4.8263304016623437e-01 0.0000000000000000e+00  4.4147825310393005e-02 -5.3625073361147513e-01 0.0000000000000000e+00  2.2485649461247686e-02 -5.6926344186178846e-01 0.0000000000000000e+00  -4.0117226524008714e-05 -5.8040414244713756e-01 0.0000000000000000e+00  -2.2564968856642789e-02 -5.6924536522733160e-01 0.0000000000000000e+00  -4.4224472099817287e-02 -5.3621566672127119e-01 0.0000000000000000e+00  -6.4187271766670856e-02 -4.8258325800786428e-01 0.0000000000000000e+00  -8.1686867092187310e-02 -4.1040745357810354e-01 0.0000000000000000e+00  -9.6050957588335831e-02 -3.2245981042882199e-01 0.0000000000000000e+00  -1.0672724855004626e-01 -2.2211795335214310e-01 0.0000000000000000e+00  -1.1330472615180831e-01 -1.1323611234391595e-01 0.0000000000000000e+00  -1.1552957198255054e-01 2.7084903213879482e-06 0.0000000000000000e+00  -1.1331508173025744e-01 1.1324729461578978e-01 0.0000000000000000e+00  -1.0674517719293940e-01 2.2214537424482050e-01 0.0000000000000000e+00  -9.6071347009111435e-02 3.2251094338757358e-01 0.0000000000000000e+00  -8.1703109224014442e-02 4.1048531767489826e-01 0.0000000000000000e+00  -6.4192346226221816e-02 4.8268569015784224e-01 0.0000000000000000e+00  -4.4212107649346057e-02 5.3633544421078927e-01 0.0000000000000000e+00  -2.2530697454576705e-02 5.6937116929294829e-01 0.0000000000000000e+00  1.7948352842522637e-05 5.8052222429322853e-01 0.0000000000000000e+00  2.2566450499267473e-02 5.6935975935164895e-01 0.0000000000000000e+00  4.4247449705658720e-02 5.3631326715510075e-01 0.0000000000000000e+00  6.4227178025386689e-02 4.8265407062495341e-01 0.0000000000000000e+00  8.1737283199690952e-02 4.1044636242899862e-01 0.0000000000000000e+00  9.6104813934317718e-02 3.2246837502529452e-01 0.0000000000000000e+00  1.0677805795616473e-01 2.2210962741917836e-01 0.0000000000000000e+00  1.1331237664592329e-01 1.1324632982447616e-01 0.0000000000000000e+00  1.1565212964632819e-01 -3.2576625627875943e-05 0.0000000000000000e+00  2.2647415961738149e-01 -1.0698860926163571e-07 0.0000000000000000e+00  2.2215227699544662e-01 -1.0671341336605165e-01 0.0000000000000000e+00  2.0921543551180788e-01 -2.0925703747514668e-01 0.0000000000000000e+00  1.8827383836551076e-01 -3.0377375646136523e-01 0.0000000000000000e+00  1.6010100906623162e-01 -3.8661899072324946e-01 0.0000000000000000e+00  1.2577691897120666e-01 -4.5460588977044314e-01 0.0000000000000000e+00  8.6621362950457748e-02 -5.0512261148932258e-01 0.0000000000000000e+00  4.4138021528661399e-02 -5.3622975116544580e-01 0.0000000000000000e+00  -4.1178796005326938e-05 -5.4673320380421031e-01 0.0000000000000000e+00  -4.4219445382047799e-02 -5.3622987710552938e-01 0.0000000000000000e+00  -8.6700014490531677e-02 -5.0512324388752050e-01 0.0000000000000000e+00  -1.2585121187010173e-01 -4.5460790514765020e-01 0.0000000000000000e+00  -1.6016902004286571e-01 -3.8662381704091209e-01 0.0000000000000000e+00  -1.8833478782553362e-01 -3.0378194386432988e-01 0.0000000000000000e+00  -2.0926587888861817e-01 -2.0926417373638068e-01 0.0000000000000000e+00  -2.2215731522575088e-01 -1.0670130262631683e-01 0.0000000000000000e+00  -2.2651280720174211e-01 -3.3732504949364523e-05 0.0000000000000000e+00  -2.2216396024298873e-01 1.0663979956609515e-01 0.0000000000000000e+00  -2.0927689683916176e-01 2.0921967212776069e-01 0.0000000000000000e+00  -1.8834601481544200e-01 3.0376296722050694e-01 0.0000000000000000e+00  -1.6017510011319147e-01 3.8663513114368087e-01 0.0000000000000000e+00  -1.2584650436822681e-01 4.5464985719971113e-01 0.0000000000000000e+00  -8.6679564021344274e-02 5.0519178245300811e-01 0.0000000000000000e+00  -4.4179858141573880e-02 5.3631724685619453e-01 0.0000000000000000e+00  1.8736657666952606e-05 5.4682920765105014e-01 0.0000000000000000e+00  4.4216966061536460e-02 5.3632339763668579e-01 0.0000000000000000e+00  8.6715619056045995e-02 5.0520393170422806e-01 0.0000000000000000e+00  1.2588104957755109e-01 4.5466774341875743e-01 0.0000000000000000e+00  1.6020778842704567e-01 3.8665855572859514e-01 0.0000000000000000e+00  1.8837657906385361e-01 3.0379259556541932e-01 0.0000000000000000e+00  2.0930521501529173e-01 2.0926011389000457e-01 0.0000000000000000e+00  2.2215659795619605e-01 1.0671417046645568e-01 0.0000000000000000e+00  2.2660113145651350e-01 1.2353696833378270e-05 0.0000000000000000e+00  3.2878944965009876e-01 -8.0839070094951033e-08 0.0000000000000000e+00  3.2249251522093003e-01 -9.6031948711763876e-02 0.0000000000000000e+00  3.0373706495035302e-01 -1.8831502248581533e-01 0.0000000000000000e+00  2.7334388342978538e-01 -2.7337876004400324e-01 0.0000000000000000e+00  2.3244763625320111e-01 -3.4794041002129450e-01 0.0000000000000000e+00  1.8262036979296012e-01 -4.0912999646953974e-01 0.0000000000000000e+00  1.2577659252634332e-01 -4.5459670279753839e-01 0.0000000000000000e+00  6.4099969970973156e-02 -4.8259484996458807e-01 0.0000000000000000e+00  -3.9798353263315120e-05 -4.9204952104805239e-01 0.0000000000000000e+00  -6.4178672590807742e-02 -4.8259783564012693e-01 0.0000000000000000e+00  -1.2585259202264112e-01 -4.5460292217097636e-01 0.0000000000000000e+00  -1.8269211031008262e-01 -4.0914002175973047e-01 0.0000000000000000e+00  -2.3251333844587713e-01 -3.4795526660787823e-01 0.0000000000000000e+00  -2.7340180422436877e-01 -2.7339872723033964e-01 0.0000000000000000e+00  -3.0378600237381981e-01 -1.8833429083026706e-01 0.0000000000000000e+00  -3.2249781353798151e-01 -9.6029803533319455e-02 0.0000000000000000e+00  -3.2881746555734997e-01 -3.1665513034963317e-05 0.0000000000000000e+00  -3.2250129706056307e-01 9.5971330147219702e-02 0.0000000000000000e+00  -3.0379123934118285e-01 1.8828970180453081e-01 0.0000000000000000e+00  -2.7340563314607380e-01 2.7337508915548298e-01 0.0000000000000000e+00  -2.3251171562571557e-01 3.4795671437359238e-01 0.0000000000000000e+00  -1.8268082114171380e-01 4.0916723423195001e-01 0.0000000000000000e+00  -1.2582800966106039e-01 4.5465312222824167e-01 0.0000000000000000e+00  -6.4138440815115966e-02 4.8266531004107249e-01 0.0000000000000000e+00  1.6671988995022098e-05 4.9212657626030787e-01 0.0000000000000000e+00  6.4171294833345452e-02 4.8267306688273415e-01 0.0000000000000000e+00  1.2585944800898705e-01 4.5466833208153862e-01 0.0000000000000000e+00  1.8271015435679874e-01 4.0918933867213453e-01 0.0000000000000000e+00  2.3253841326173585e-01 3.4798507019587888e-01 0.0000000000000000e+00  2.7342931264900133e-01 2.7340963334469398e-01 0.0000000000000000e+00  3.0381164799542937e-01 1.8833363122235841e-01 0.0000000000000000e+00  3.2248658161615573e-01 9.6044124911019657e-02 0.0000000000000000e+00  3.2889084779516781e-01 1.9119629751746543e-05 0.0000000000000000e+00  4.1846956283393533e-01 -6.2313984129607336e-08 0.0000000000000000e+00  4.1044162497008357e-01 -8.1660247257603930e-02 0.0000000000000000e+00  3.8659041069000261e-01 -1.6013939720106196e-01 0.0000000000000000e+00  3.4791212968049828e-01 -2.3248165757928049e-01 0.0000000000000000e+00  2.9586455559888797e-01 -2.9589317642355228e-01 0.0000000000000000e+00  2.3244839913409132e-01 -3.4793285146095787e-01 0.0000000000000000e+00  1.6010017103713164e-01 -3.8660130872259452e-01 0.0000000000000000e+00  8.1599770017062229e-02 -4.1041368178530219e-01 0.0000000000000000e+00  -3.6471717338490132e-05 -4.1845570812342237e-01 0.0000000000000000e+00  -8.1671932602664171e-02 -4.1041873180695060e-01 0.0000000000000000e+00  -1.6016996631153924e-01 -3.8661157690322062e-01 0.0000000000000000e+00  -2.3251442077121845e-01 -3.4794873209806576e-01 0.0000000000000000e+00  -2.9592545182108759e-01 -2.9591527612325896e-01 0.0000000000000000e+00  -3.4796630604300438e-01 -2.3250991675338423e-01 0.0000000000000000e+00  -3.8663694567175555e-01 -1.6016832333809761e-01 0.0000000000000000e+00  -4.1045092738474764e-01 -8.1669676566187094e-02 0.0000000000000000e+00  -4.1849257690471775e-01 -3.0002145405231748e-05 0.0000000000000000e+00  -4.1045225407285019e-01 8.1613634322932394e-02 0.0000000000000000e+00  -3.8663834094932986e-01 1.6012363650127995e-01 0.0000000000000000e+00  -3.4796547814544504e-01 2.3248246655017607e-01 0.0000000000000000e+00  -2.9591948784084504e-01 2.9590867795381809e-01 0.0000000000000000e+00  -2.3250032047410707e-01 3.4796392156697181e-01 0.0000000000000000e+00  -1.6014521071171281e-01 3.8664679442597782e-01 0.0000000000000000e+00  -8.1634993551017596e-02 4.1046990250577564e-01 0.0000000000000000e+00  1.2816292305888374e-05 4.1851715313052096e-01 0.0000000000000000e+00  8.1660069724085432e-02 4.1047905430203518e-01 0.0000000000000000e+00  1.6016866539420091e-01 3.8666465119242732e-01 0.0000000000000000e+00  2.3252128490403043e-01 3.4798964165360619e-01 0.0000000000000000e+00  2.9593723683288992e-01 2.9594119885606324e-01 0.0000000000000000e+00  3.4797945259666291e-01 2.3252108832792620e-01 0.0000000000000000e+00  3.8664803506401152e-01 1.6017015431865761e-01 0.0000000000000000e+00  4.1043015512145209e-01 8.1683664938752981e-02 0.0000000000000000e+00  4.1854374425040214e-01 2.3847772776371615e-05 0.0000000000000000e+00  4.9206813206944050e-01 -4.5446401056369534e-08 0.0000000000000000e+00  4.8261812763134204e-01 -6.4152929563234096e-02 0.0000000000000000e+00  4.5458693980384562e-01 -1.2581347351854838e-01 0.0000000000000000e+00  4.0910975212758971e-01 -1.8265312464452627e-01 0.0000000000000000e+00  3.4791099916077090e-01 -2.3247665689547917e-01 0.0000000000000000e+00  2.7334284623266791e-01 -2.7336574967150962e-01 0.0000000000000000e+00  1.8827057707421802e-01 -3.0374913559642941e-01 0.0000000000000000e+00  9.5963252861681947e-02 -3.2246002468319923e-01 0.0000000000000000e+00  -3.2077678759539132e-05 -3.2878003049042276e-01 0.0000000000000000e+00  -9.6026783605558871e-02 -3.2246660773694469e-01 0.0000000000000000e+00  -1.8833223354924777e-01 -3.0376239285123707e-01 0.0000000000000000e+00  -2.7340152033955611e-01 -2.7338590920231748e-01 0.0000000000000000e+00  -3.4796569674628092e-01 -2.3250400066727081e-01 0.0000000000000000e+00  -4.0915936889272808e-01 -1.8268707059193648e-01 0.0000000000000000e+00  -4.5463079691554320e-01 -1.2584883691078047e-01 0.0000000000000000e+00  -4.8263228350225829e-01 -6.4172902779954258e-02 0.0000000000000000e+00  -4.9208737298261807e-01 -2.8946015275852174e-05 0.0000000000000000e+00  -4.8263227341097470e-01 6.4118268483097193e-02 0.0000000000000000e+00  -4.5462990116566643e-01 1.2580356889876465e-01 0.0000000000000000e+00  -4.0915599824264681e-01 1.8265611686433969e-01 0.0000000000000000e+00  -3.4795784577786387e-01 2.3249056627759504e-01 0.0000000000000000e+00  -2.7338715217964088e-01 2.7339112956046263e-01 0.0000000000000000e+00  -1.8830968951899227e-01 3.0378530730156067e-01 0.0000000000000000e+00  -9.5995149105947031e-02 3.2250443094142006e-01 0.0000000000000000e+00  8.5495340683477794e-06 3.2882867404892807e-01 0.0000000000000000e+00  9.6011661650754046e-02 3.2251478605100198e-01 0.0000000000000000e+00  1.8832447480870035e-01 3.0380547357932791e-01 0.0000000000000000e+00  2.7339919644395361e-01 2.7342007291155274e-01 0.0000000000000000e+00  3.4796622202395261e-01 2.3252692894567492e-01 0.0000000000000000e+00  4.0915991145310027e-01 1.8269869555990739e-01 0.0000000000000000e+00  4.5462859549915235e-01 1.2585286603162105e-01 0.0000000000000000e+00  4.8260359968531236e-01 6.4185681645446552e-02 0.0000000000000000e+00  4.9211552577913981e-01 2.8271318136499804e-05 0.0000000000000000e+00  5.4675679914615982e-01 -2.7318980107561096e-08 0.0000000000000000e+00  5.3624778285979868e-01 -4.4181782765178541e-02 0.0000000000000000e+00  5.0511345526302376e-01 -8.6654435121593071e-02 0.0000000000000000e+00  4.5458466982962681e-01 -1.2580714340489696e-01 0.0000000000000000e+00  3.8658630286495077e-01 -1.6012756081635243e-01 0.0000000000000000e+00  3.0373178926880562e-01 -1.8829401801339080e-01 0.0000000000000000e+00  2.0920493265836715e-01 -2.0922407331458889e-01 0.0000000000000000e+00  1.0663824727300986e-01 -2.2211397788028306e-01 0.0000000000000000e+00  -2.6822875460838174e-05 -2.2646886341477901e-01 0.0000000000000000e+00  -1.0669146192144205e-01 -2.2212164608859683e-01 0.0000000000000000e+00  -2.0925685971223076e-01 -2.0923943577913551e-01 0.0000000000000000e+00  -3.0378170366707058e-01 -1.8831712071473197e-01 0.0000000000000000e+00  -3.8663359528790875e-01 -1.6015838015848724e-01 0.0000000000000000e+00  -4.5462861942224375e-01 -1.2584485668742346e-01 0.0000000000000000e+00  -5.0515368920206516e-01 -8.6694666290337286e-02 0.0000000000000000e+00  -5.3626697352387775e-01 -4.4211829027132374e-02 0.0000000000000000e+00  -5.4677254477226855e-01 -2.8549674623420804e-05 0.0000000000000000e+00  -5.3626637499689400e-01 4.4157445983742556e-02 0.0000000000000000e+00  -5.0515190692581147e-01 8.6648120619627983e-02 0.0000000000000000e+00  -4.5462459452456649e-01 1.2581037978466444e-01 0.0000000000000000e+00  -3.8662600031503769e-01 1.6013886358546295e-01 0.0000000000000000e+00  -3.0376920778722416e-01 1.8831385728976485e-01 0.0000000000000000e+00  -2.0923841143947172e-01 2.0925208566915560e-01 0.0000000000000000e+00  -1.0666654225899569e-01 2.2214842633683962e-01 0.0000000000000000e+00  4.3682796940577587e-06 2.2650692533481112e-01 0.0000000000000000e+00  1.0667471370776127e-01 2.2215991034721494e-01 0.0000000000000000e+00  2.0924490158224945e-01 2.0927446121073381e-01 0.0000000000000000e+00  3.0377294968210333e-01 1.8834599283601597e-01 0.0000000000000000e+00  3.8662594721219579e-01 1.6017923778278054e-01 0.0000000000000000e+00  4.5461978618315702e-01 1.2585742611032330e-01 0.0000000000000000e+00  5.0514144160681418e-01 8.6701117842201719e-02 0.0000000000000000e+00  5.3623436456605644e-01 4.4223094298517132e-02 0.0000000000000000e+00  5.4677919175782241e-01 3.3588523151276650e-05 0.0000000000000000e+00  5.8043390872651301e-01 -7.7554947062873795e-09 0.0000000000000000e+00  5.6926974764790295e-01 -2.2513680755427461e-02 0.0000000000000000e+00  5.3622843615161042e-01 -4.4166692317510442e-02 0.0000000000000000e+00  4.8258948196500451e-01 -6.4127826232332819e-02 0.0000000000000000e+00  4.1040444338517601e-01 -8.1625824527689128e-02 0.0000000000000000e+00  3.2244759765408498e-01 -9.5986742665390132e-02 0.0000000000000000e+00  2.2209886860600767e-01 -1.0665870406304860e-01 0.0000000000000000e+00  1.1321461135950184e-01 -1.1323194309897774e-01 0.0000000000000000e+00  -2.0859951018498298e-05 -1.1545419357890106e-01 0.0000000000000000e+00  -1.1325611660170133e-01 -1.1324028215664898e-01 0.0000000000000000e+00  -2.2213972975604918e-01 -1.0667535756761461e-01 0.0000000000000000e+00  -3.2248748462909044e-01 -9.6011611766913821e-02 0.0000000000000000e+00  -4.1044314673367271e-01 -8.1658606322913593e-02 0.0000000000000000e+00  -4.8262664035481312e-01 -6.4167573306017314e-02 0.0000000000000000e+00  -5.3626393525015670e-01 -4.4210288055336229e-02 0.0000000000000000e+00  -5.6929365555956724e-01 -2.2553316510342189e-02 0.0000000000000000e+00  -5.8044631252182022e-01 -2.8616821071379738e-05 0.0000000000000000e+00  -5.6929311415253314e-01 2.2498384323150523e-02 0.0000000000000000e+00  -5.3626247221997814e-01 4.4162021358846552e-02 0.0000000000000000e+00  -4.8262356775268506e-01 6.4129652972145595e-02 0.0000000000000000e+00  -4.1043760226013709e-01 8.1633681049661858e-02 0.0000000000000000e+00  -3.2247860452131250e-01 9.6001091643417941e-02 0.0000000000000000e+00  -2.2212683386806947e-01 1.0667937582247808e-01 0.0000000000000000e+00  -1.1323887631568187e-01 1.1325782480293799e-01 0.0000000000000000e+00  5.7509109657528445e-07 1.1548337046842290e-01 0.0000000000000000e+00  1.1323955225130500e-01 1.1327035263394504e-01 0.0000000000000000e+00  2.2212608517360949e-01 1.0670383374281613e-01 0.0000000000000000e+00  3.2247545947692086e-01 9.6036335252324967e-02 0.0000000000000000e+00  4.1043105695744669e-01 8.1678141998114823e-02 0.0000000000000000e+00  4.8261267607946379e-01 6.4181524604957227e-02 0.0000000000000000e+00  5.3624640092534159e-01 4.4219427704489556e-02 0.0000000000000000e+00  5.6926299813462133e-01 2.2563006815976883e-02 0.0000000000000000e+00  5.8043606787986302e-01 3.9500883884592990e-05 0.0000000000000000e+00  5.9180526872992700e-01 1.2055147490629701e-08 0.0000000000000000e+00  5.8041501707623566e-01 1.9014188418682361e-05 0.0000000000000000e+00  5.4673627438478489e-01 1.7434369381497679e-05 0.0000000000000000e+00  4.9204821686260997e-01 1.4934986855146496e-05 0.0000000000000000e+00  4.1845036054350276e-01 1.1975057932938694e-05 0.0000000000000000e+00  3.2877125024273590e-01 8.7797279200126746e-06 0.0000000000000000e+00  2.2645704559722432e-01 5.3586998112700480e-06 0.0000000000000000e+00  1.1543971677633716e-01 1.6532388555768448e-06 0.0000000000000000e+00  -1.4398395906361922e-05 -2.4232530011235032e-06 0.0000000000000000e+00  -1.1546851984619852e-01 -6.9017088490100921e-06 0.0000000000000000e+00  -2.2648586333715873e-01 -1.1693172438622854e-05 0.0000000000000000e+00  -3.2880014167639326e-01 -1.6571992979694087e-05 0.0000000000000000e+00  -4.1847949684027547e-01 -2.1192446562222509e-05 0.0000000000000000e+00  -4.9207759146513330e-01 -2.5130499352366479e-05 0.0000000000000000e+00  -5.4676604442093890e-01 -2.7941017704351442e-05 0.0000000000000000e+00  -5.8044312575533474e-01 -2.9221705516677455e-05 0.0000000000000000e+00  