<?xml version="1.0"?>
<VTKFile type="UnstructuredGrid"  version="0.1"  >
<UnstructuredGrid>
<Piece  NumberOfPoints="1089" NumberOfCells="2048">
<Points>
<DataArray  type="Float64"  NumberOfComponents="3"  format="ascii">0 0 0  0.03125 0 0  0.0625 0 0  0.09375 0 0  0.125 0 0  0.15625 0 0  0.1875 0 0  0.21875 0 0  0.25 0 0  0.28125 0 0  0.3125 0 0  0.34375 0 0  0.375 0 0  0.40625 0 0  0.4375 0 0  0.46875 0 0  0.5 0 0  0.53125 0 0  0.5625 0 0  0.59375 0 0  0.625 0 0  0.65625 0 0  0.6875 0 0  0.71875 0 0  0.75 0 0  0.78125 0 0  0.8125 0 0  0.84375 0 0  0.875 0 0  0.90625 0 0  0.9375 0 0  0.96875 0 0  1 0 0  0 0.03125 0  0.03125 0.03125 0  0.0625 0.03125 0  0.09375 0.03125 0  0.125 0.03125 0  0.15625 0.03125 0  0.1875 0.03125 0  0.21875 0.03125 0  0.25 0.03125 0  0.28125 0.03125 0  0.3125 0.03125 0  0.34375 0.03125 0  0.375 0.03125 0  0.40625 0.03125 0  0.4375 0.03125 0  0.46875 0.03125 0  0.5 0.03125 0  0.53125 0.03125 0  0.5625 0.03125 0  0.59375 0.03125 0  0.625 0.03125 0  0.65625 0.03125 0  0.6875 0.03125 0  0.71875 0.03125 0  0.75 0.03125 0  0.78125 0.03125 0  0.8125 0.03125 0  0.84375 0.03125 0  0.875 0.03125 0  0.90625 0.03125 0  0.9375 0.03125 0  0.96875 0.03125 0  1 0.03125 0  0 0.0625 0  0.03125 0.0625 0  0.0625 0.0625 0  0.09375 0.0625 0  0.125 0.0625 0  0.15625 0.0625 0  0.1875 0.0625 0  0.21875 0.0625 0  0.25 0.0625 0  0.28125 0.0625 0  0.3125 0.0625 0  0.34375 0.0625 0  0.375 0.0625 0  0.40625 0.0625 0  0.4375 0.0625 0  0.46875 0.0625 0  0.5 0.0625 0  0.53125 0.0625 0  0.5625 0.0625 0  0.59375 0.0625 0  0.625 0.0625 0  0.65625 0.0625 0  0.6875 0.0625 0  0.71875 0.0625 0  0.75 0.0625 0  0.78125 0.0625 0  0.8125 0.0625 0  0.84375 0.0625 0  0.875 0.0625 0  0.90625 0.0625 0  0.9375 0.0625 0  0.96875 0.0625 0  1 0.0625 0  0 0.09375 0  0.03125 0.09375 0  0.0625 0.09375 0  0.09375 0.09375 0  0.125 0.09375 0  0.15625 0.09375 0  0.1875 0.09375 0  0.21875 0.09375 0  0.25 0.09375 0  0.28125 0.09375 0  0.3125 0.09375 0  0.34375 0.09375 0  0.375 0.09375 0  0.40625 0.09375 0  0.4375 0.09375 0  0.46875 0.09375 0  0.5 0.09375 0  0.53125 0.09375 0  0.5625 0.09375 0  0.59375 0.09375 0  0.625 0.09375 0  0.65625 0.09375 0  0.6875 0.09375 0  0.71875 0.09375 0  0.75 0.09375 0  0.78125 0.09375 0  0.8125 0.09375 0  0.84375 0.09375 0  0.875 0.09375 0  0.90625 0.09375 0  0.9375 0.09375 0  0.96875 0.09375 0  1 0.09375 0  0 0.125 0  0.03125 0.125 0  0.0625 0.125 0  0.09375 0.125 0  0.125 0.125 0  0.15625 0.125 0  0.1875 0.125 0  0.21875 0.125 0  0.25 0.125 0  0.28125 0.125 0  0.3125 0.125 0  0.34375 0.125 0  0.375 0.125 0  0.40625 0.125 0  0.4375 0.125 0  0.46875 0.125 0  0.5 0.125 0  0.53125 0.125 0  0.5625 0.125 0  0.59375 0.125 0  0.625 0.125 0  0.65625 0.125 0  0.6875 0.125 0  0.71875 0.125 0  0.75 0.125 0  0.78125 0.125 0  0.8125 0.125 0  0.84375 0.125 0  0.875 0.125 0  0.90625 0.125 0  0.9375 0.125 0  0.96875 0.125 0  1 0.125 0  0 0.15625 0  0.03125 0.15625 0  0.0625 0.15625 0  0.09375 0.15625 0  0.125 0.15625 0  0.15625 0.15625 0  0.1875 0.15625 0  0.21875 0.15625 0  0.25 0.15625 0  0.28125 0.15625 0  0.3125 0.15625 0  0.34375 0.15625 0  0.375 0.15625 0  0.40625 0.15625 0  0.4375 0.15625 0  0.46875 0.15625 0  0.5 0.15625 0  0.53125 0.15625 0  0.5625 0.15625 0  0.59375 0.15625 0  0.625 0.15625 0  0.65625 0.15625 0  0.6875 0.15625 0  0.71875 0.15625 0  0.75 0.15625 0  0.78125 0.15625 0  0.8125 0.15625 0  0.84375 0.15625 0  0.875 0.15625 0  0.90625 0.15625 0  0.9375 0.15625 0  0.96875 0.15625 0  1 0.15625 0  0 0.1875 0  0.03125 0.1875 0  0.0625 0.1875 0  0.09375 0.1875 0  0.125 0.1875 0  0.15625 0.1875 0  0.1875 0.1875 0  0.21875 0.1875 0  0.25 0.1875 0  0.28125 0.1875 0  0.3125 0.1875 0  0.34375 0.1875 0  0.375 0.1875 0  0.40625 0.1875 0  0.4375 0.1875 0  0.46875 0.1875 0  0.5 0.1875 0  0.53125 0.1875 0  0.5625 0.1875 0  0.59375 0.1875 0  0.625 0.1875 0  0.65625 0.1875 0  0.6875 0.1875 0  0.71875 0.1875 0  0.75 0.1875 0  0.78125 0.1875 0  0.8125 0.1875 0  0.84375 0.1875 0  0.875 0.1875 0  0.90625 0.1875 0  0.9375 0.1875 0  0.96875 0.1875 0  1 0.1875 0  0 0.21875 0  0.03125 0.21875 0  0.0625 0.21875 0  0.09375 0.21875 0  0.125 0.21875 0  0.15625 0.21875 0  0.1875 0.21875 0  0.21875 0.21875 0  0.25 0.21875 0  0.28125 0.21875 0  0.3125 0.21875 0  0.34375 0.21875 0  0.375 0.21875 0  0.40625 0.21875 0  0.4375 0.21875 0  0.46875 0.21875 0  0.5 0.21875 0  0.53125 0.21875 0  0.5625 0.21875 0  0.59375 0.21875 0  0.625 0.21875 0  0.65625 0.21875 0  0.6875 0.21875 0  0.71875 0.21875 0  0.75 0.21875 0  0.78125 0.21875 0  0.8125 0.21875 0  0.84375 0.21875 0  0.875 0.21875 0  0.90625 0.21875 0  0.9375 0.21875 0  0.96875 0.21875 0  1 0.21875 0  0 0.25 0  0.03125 0.25 0  0.0625 0.25 0  0.09375 0.25 0  0.125 0.25 0  0.15625 0.25 0  0.1875 0.25 0  0.21875 0.25 0  0.25 0.25 0  0.28125 0.25 0  0.3125 0.25 0  0.34375 0.25 0  0.375 0.25 0  0.40625 0.25 0  0.4375 0.25 0  0.46875 0.25 0  0.5 0.25 0  0.53125 0.25 0  0.5625 0.25 0  0.59375 0.25 0  0.625 0.25 0  0.65625 0.25 0  0.6875 0.25 0  0.71875 0.25 0  0.75 0.25 0  0.78125 0.25 0  0.8125 0.25 0  0.84375 0.25 0  0.875 0.25 0  0.90625 0.25 0  0.9375 0.25 0  0.96875 0.25 0  1 0.25 0  0 0.28125 0  0.03125 0.28125 0  0.0625 0.28125 0  0.09375 0.28125 0  0.125 0.28125 0  0.15625 0.28125 0  0.1875 0.28125 0  0.21875 0.28125 0  0.25 0.28125 0  0.28125 0.28125 0  0.3125 0.28125 0  0.34375 0.28125 0  0.375 0.28125 0  0.40625 0.28125 0  0.4375 0.28125 0  0.46875 0.28125 0  0.5 0.28125 0  0.53125 0.28125 0  0.5625 0.28125 0  0.59375 0.28125 0  0.625 0.28125 0  0.65625 0.28125 0  0.6875 0.28125 0  0.71875 0.28125 0  0.75 0.28125 0  0.78125 0.28125 0  0.8125 0.28125 0  0.84375 0.28125 0  0.875 0.28125 0  0.90625 0.28125 0  0.9375 0.28125 0  0.96875 0.28125 0  1 0.28125 0  0 0.3125 0  0.03125 0.3125 0  0.0625 0.3125 0  0.09375 0.3125 0  0.125 0.3125 0  0.15625 0.3125 0  0.1875 0.3125 0  0.21875 0.3125 0  0.25 0.3125 0  0.28125 0.3125 0  0.3125 0.3125 0  0.34375 0.3125 0  0.375 0.3125 0  0.40625 0.3125 0  0.4375 0.3125 0  0.46875 0.3125 0  0.5 0.3125 0  0.53125 0.3125 0  0.5625 0.3125 0  0.59375 0.3125 0  0.625 0.3125 0  0.65625 0.3125 0  0.6875 0.3125 0  0.71875 0.3125 0  0.75 0.3125 0  0.78125 0.3125 0  0.8125 0.3125 0  0.84375 0.3125 0  0.875 0.3125 0  0.90625 0.3125 0  0.9375 0.3125 0  0.96875 0.3125 0  1 0.3125 0  0 0.34375 0  0.03125 0.34375 0  0.0625 0.34375 0  0.09375 0.34375 0  0.125 0.34375 0  0.15625 0.34375 0  0.1875 0.34375 0  0.21875 0.34375 0  0.25 0.34375 0  0.28125 0.34375 0  0.3125 0.34375 0  0.34375 0.34375 0  0.375 0.34375 0  0.40625 0.34375 0  0.4375 0.34375 0  0.46875 0.34375 0  0.5 0.34375 0  0.53125 0.34375 0  0.5625 0.34375 0  0.59375 0.34375 0  0.625 0.34375 0  0.65625 0.34375 0  0.6875 0.34375 0  0.71875 0.34375 0  0.75 0.34375 0  0.78125 0.34375 0  0.8125 0.34375 0  0.84375 0.34375 0  0.875 0.34375 0  0.90625 0.34375 0  0.9375 0.34375 0  0.96875 0.34375 0  1 0.34375 0  0 0.375 0  0.03125 0.375 0  0.0625 0.375 0  0.09375 0.375 0  0.125 0.375 0  0.15625 0.375 0  0.1875 0.375 0  0.21875 0.375 0  0.25 0.375 0  0.28125 0.375 0  0.3125 0.375 0  0.34375 0.375 0  0.375 0.375 0  0.40625 0.375 0  0.4375 0.375 0  0.46875 0.375 0  0.5 0.375 0  0.53125 0.375 0  0.5625 0.375 0  0.59375 0.375 0  0.625 0.375 0  0.65625 0.375 0  0.6875 0.375 0  0.71875 0.375 0  0.75 0.375 0  0.78125 0.375 0  0.8125 0.375 0  0.84375 0.375 0  0.875 0.375 0  0.90625 0.375 0  0.9375 0.375 0  0.96875 0.375 0  1 0.375 0  0 0.40625 0  0.03125 0.40625 0  0.0625 0.40625 0  0.09375 0.40625 0  0.125 0.40625 0  0.15625 0.40625 0  0.1875 0.40625 0  0.21875 0.40625 0  0.25 0.40625 0  0.28125 0.40625 0  0.3125 0.40625 0  0.34375 0.40625 0  0.375 0.40625 0  0.40625 0.40625 0  0.4375 0.40625 0  0.46875 0.40625 0  0.5 0.40625 0  0.53125 0.40625 0  0.5625 0.40625 0  0.59375 0.40625 0  0.625 0.40625 0  0.65625 0.40625 0  0.6875 0.40625 0  0.71875 0.40625 0  0.75 0.40625 0  0.78125 0.40625 0  0.8125 0.40625 0  0.84375 0.40625 0  0.875 0.40625 0  0.90625 0.40625 0  0.9375 0.40625 0  0.96875 0.40625 0  1 0.40625 0  0 0.4375 0  0.03125 0.4375 0  0.0625 0.4375 0  0.09375 0.4375 0  0.125 0.4375 0  0.15625 0.4375 0  0.1875 0.4375 0  0.21875 0.4375 0  0.25 0.4375 0  0.28125 0.4375 0  0.3125 0.4375 0  0.34375 0.4375 0  0.375 0.4375 0  0.40625 0.4375 0  0.4375 0.4375 0  0.46875 0.4375 0  0.5 0.4375 0  0.53125 0.4375 0  0.5625 0.4375 0  0.59375 0.4375 0  0.625 0.4375 0  0.65625 0.4375 0  0.6875 0.4375 0  0.71875 0.4375 0  0.75 0.4375 0  0.78125 0.4375 0  0.8125 0.4375 0  0.84375 0.4375 0  0.875 0.4375 0  0.90625 0.4375 0  0.9375 0.4375 0  0.96875 0.4375 0  1 0.4375 0  0 0.46875 0  0.03125 0.46875 0  0.0625 0.46875 0  0.09375 0.46875 0  0.125 0.46875 0  0.15625 0.46875 0  0.1875 0.46875 0  0.21875 0.46875 0  0.25 0.46875 0  0.28125 0.46875 0  0.3125 0.46875 0  0.34375 0.46875 0  0.375 0.46875 0  0.40625 0.46875 0  0.4375 0.46875 0  0.46875 0.46875 0  0.5 0.46875 0  0.53125 0.46875 0  0.5625 0.46875 0  0.59375 0.46875 0  0.625 0.46875 0  0.65625 0.46875 0  0.6875 0.46875 0  0.71875 0.46875 0  0.75 0.46875 0  0.78125 0.46875 0  0.8125 0.46875 0  0.84375 0.46875 0  0.875 0.46875 0  0.90625 0.46875 0  0.9375 0.46875 0  0.96875 0.46875 0  1 0.46875 0  0 0.5 0  0.03125 0.5 0  0.0625 0.5 0  0.09375 0.5 0  0.125 0.5 0  0.15625 0.5 0  0.1875 0.5 0  0.21875 0.5 0  0.25 0.5 0  0.28125 0.5 0  0.3125 0.5 0  0.34375 0.5 0  0.375 0.5 0  0.40625 0.5 0  0.4375 0.5 0  0.46875 0.5 0  0.5 0.5 0  0.53125 0.5 0  0.5625 0.5 0  0.59375 0.5 0  0.625 0.5 0  0.65625 0.5 0  0.6875 0.5 0  0.71875 0.5 0  0.75 0.5 0  0.78125 0.5 0  0.8125 0.5 0  0.84375 0.5 0  0.875 0.5 0  0.90625 0.5 0  0.9375 0.5 0  0.96875 0.5 0  1 0.5 0  0 0.53125 0  0.03125 0.53125 0  0.0625 0.53125 0  0.09375 0.53125 0  0.125 0.53125 0  0.15625 0.53125 0  0.1875 0.53125 0  0.21875 0.53125 0  0.25 0.53125 0  0.28125 0.53125 0  0.3125 0.53125 0  0.34375 0.53125 0  0.375 0.53125 0  0.40625 0.53125 0  0.4375 0.53125 0  0.46875 0.53125 0  0.5 0.53125 0  0.53125 0.53125 0  0.5625 0.53125 0  0.59375 0.53125 0  0.625 0.53125 0  0.65625 0.53125 0  0.6875 0.53125 0  0.71875 0.53125 0  0.75 0.53125 0  0.78125 0.531
[...]
<PointData  Vectors="f_27533"> 
<DataArray  type="Float64"  Name="f_27533"  NumberOfComponents="3" format="ascii">1.0478369495240667e-07 -1.4335160004382364e-07 0.0000000000000000e+00  -1.6734329263949185e-04 -1.1540493645815976e-01 0.0000000000000000e+00  -1.3051991022110541e-04 -2.2644252761389436e-01 0.0000000000000000e+00  -1.1647861501958016e-04 -3.2876592827103129e-01 0.0000000000000000e+00  -9.5763144714845085e-05 -4.1845439903691600e-01 0.0000000000000000e+00  -7.1460925502488365e-05 -4.9206101546767378e-01 0.0000000000000000e+00  -4.3974689414731930e-05 -5.4675829493295447e-01 0.0000000000000000e+00  -1.4404919594232060e-05 -5.8044491072265891e-01 0.0000000000000000e+00  1.5845614355304776e-05 -5.9182682857140567e-01 0.0000000000000000e+00  4.5239036869836243e-05 -5.8046688881980135e-01 0.0000000000000000e+00  7.2230937514145260e-05 -5.4680157053431644e-01 0.0000000000000000e+00  9.5413755325458567e-05 -4.9212424422675211e-01 0.0000000000000000e+00  1.1363927364137525e-04 -4.1853553744629779e-01 0.0000000000000000e+00  1.2610750599396245e-04 -3.2886270906932080e-01 0.0000000000000000e+00  1.3241308722354526e-04 -2.2655111533777963e-01 0.0000000000000000e+00  1.3254672582525031e-04 -1.1553191998163900e-01 0.0000000000000000e+00  1.2685621739531356e-04 -7.1114168233324675e-05 0.0000000000000000e+00  1.1597697778295724e-04 1.1539436551751203e-01 0.0000000000000000e+00  1.0074518005597532e-04 2.2642713060091418e-01 0.0000000000000000e+00  8.2107059994504717e-05 3.2875989398267680e-01 0.0000000000000000e+00  6.1036164036324417e-05 4.1845952231135591e-01 0.0000000000000000e+00  3.8467066828421055e-05 4.9207827197509169e-01 0.0000000000000000e+00  1.5250381248816898e-05 5.4678638352290299e-01 0.0000000000000000e+00  -7.8691726059050145e-06 5.8048092542985119e-01 0.0000000000000000e+00  -3.0254457519580607e-05 5.9186669424916438e-01 0.0000000000000000e+00  -5.1350887220799583e-05 5.8050604452762911e-01 0.0000000000000000e+00  -7.0672997359416033e-05 5.4683575290681885e-01 0.0000000000000000e+00  -8.7694024751884615e-05 4.9215018870631760e-01 0.0000000000000000e+00  -1.0166722487952065e-04 4.1855126221042044e-01 0.0000000000000000e+00  -1.1189758415316779e-04 3.2886795560951837e-01 0.0000000000000000e+00  -1.0870397754564788e-04 2.2654093973815478e-01 0.0000000000000000e+00  -9.6067542991284287e-05 1.1547897103714380e-01 0.0000000000000000e+00  -4.9873899833928759e-05 -6.3889873891008464e-05 0.0000000000000000e+00  1.1545558887654933e-01 -1.2325641211938976e-07 0.0000000000000000e+00  1.1319098758028436e-01 -1.1321941791067150e-01 0.0000000000000000e+00  1.0664343872018128e-01 -2.2212925188532370e-01 0.0000000000000000e+00  9.5978712850285419e-02 -3.2248839427092535e-01 0.0000000000000000e+00  8.1626697661459732e-02 -4.1045080349940893e-01 0.0000000000000000e+00  6.4136966452891839e-02 -4.8263898796367988e-01 0.0000000000000000e+00  4.4183051844983855e-02 -5.3627990426031003e-01 0.0000000000000000e+00  2.2531489558205671e-02 -5.6931269428392106e-01 0.0000000000000000e+00  1.4123466558881358e-05 -5.8046832131106874e-01 0.0000000000000000e+00  -2.2504039433528980e-02 -5.6931825448098228e-01 0.0000000000000000e+00  -4.4157991565771132e-02 -5.3629091949918783e-01 0.0000000000000000e+00  -6.4115895610190182e-02 -4.8265524803091564e-01 0.0000000000000000e+00  -8.1610996846867151e-02 -4.1047196289528781e-01 0.0000000000000000e+00  -9.5971051520554282e-02 -3.2251446101300135e-01 0.0000000000000000e+00  -1.0664414710242105e-01 -2.2216232284610093e-01 0.0000000000000000e+00  -1.1321992303151945e-01 -1.1327152640264704e-01 0.0000000000000000e+00  -1.1544537309080463e-01 -2.6339232828228854e-05 0.0000000000000000e+00  -1.1323461548342556e-01 1.1322143132110447e-01 0.0000000000000000e+00  -1.0667224662761861e-01 2.2211965906094663e-01 0.0000000000000000e+00  -9.6010141095004206e-02 3.2248316639021601e-01 0.0000000000000000e+00  -8.1657813286530503e-02 4.1045460650295773e-01 0.0000000000000000e+00  -6.4166706126827483e-02 4.8265276960984432e-01 0.0000000000000000e+00  -4.4209007978048422e-02 5.3630260319627598e-01 0.0000000000000000e+00  -2.2551811546084148e-02 5.6934193830821223e-01 0.0000000000000000e+00  -2.7609883599646941e-05 5.8050080917586544e-01 0.0000000000000000e+00  2.2497738112271026e-02 5.6935031055101937e-01 0.0000000000000000e+00  4.4158318317258471e-02 5.3631909943501410e-01 0.0000000000000000e+00  6.4121559131538011e-02 4.8267691506783694e-01 0.0000000000000000e+00  8.1620239037377557e-02 4.1048566167062300e-01 0.0000000000000000e+00  9.5981926346273672e-02 3.2251935881033561e-01 0.0000000000000000e+00  1.0666126381466298e-01 2.2215637367717639e-01 0.0000000000000000e+00  1.1324932629094170e-01 1.1323720591392994e-01 0.0000000000000000e+00  1.1549093131093249e-01 -1.1099662215255322e-04 0.0000000000000000e+00  2.2647415961743284e-01 -1.0698830048307799e-07 0.0000000000000000e+00  2.2211514917495098e-01 -1.0665951751911622e-01 0.0000000000000000e+00  2.0923975948749229e-01 -2.0925556690442712e-01 0.0000000000000000e+00  1.8831680135219045e-01 -3.0379258342838916e-01 0.0000000000000000e+00  1.6015331002621913e-01 -3.8664974253795181e-01 0.0000000000000000e+00  1.2583481017718623e-01 -4.5464738362488488e-01 0.0000000000000000e+00  8.6681305935527600e-02 -5.0517333278957710e-01 0.0000000000000000e+00  4.4196895649182687e-02 -5.3628643188187519e-01 0.0000000000000000e+00  1.4101700740392525e-05 -5.4679131630951783e-01 0.0000000000000000e+00  -4.4169474652350632e-02 -5.3628439485113988e-01 0.0000000000000000e+00  -8.6656195434337557e-02 -5.0516936543945379e-01 0.0000000000000000e+00  -1.2581359112202556e-01 -4.5464171274704857e-01 0.0000000000000000e+00  -1.6013704994969308e-01 -3.8664280923797201e-01 0.0000000000000000e+00  -1.8830760826124252e-01 -3.0378536844054999e-01 0.0000000000000000e+00  -2.0924262644416727e-01 -2.0925310890163046e-01 0.0000000000000000e+00  -2.2213740367607240e-01 -1.0667847407691211e-01 0.0000000000000000e+00  -2.2649613015067610e-01 -3.0965869842048307e-06 0.0000000000000000e+00  -2.2215098213553630e-01 1.0667363970175991e-01 0.0000000000000000e+00  -2.0926861898886040e-01 2.0925212563614870e-01 0.0000000000000000e+00  -1.8834382481515385e-01 3.0379008854118944e-01 0.0000000000000000e+00  -1.6018053216140782e-01 3.8665413191326997e-01 0.0000000000000000e+00  -1.2586095174810585e-01 4.5465942296917067e-01 0.0000000000000000e+00  -8.6703991541088293e-02 5.0519215107723137e-01 0.0000000000000000e+00  -4.4214562268999905e-02 5.3631004129885118e-01 0.0000000000000000e+00  -2.5719704852782981e-05 5.4681705120406621e-01 0.0000000000000000e+00  4.4164134672423756e-02 5.3630937189004368e-01 0.0000000000000000e+00  8.6656556869902798e-02 5.0519096165599831e-01 0.0000000000000000e+00  1.2581842746465885e-01 4.5465800315487820e-01 0.0000000000000000e+00  1.6014476295055718e-01 3.8665282249267485e-01 0.0000000000000000e+00  1.8831632191766068e-01 3.0378885683126922e-01 0.0000000000000000e+00  2.0925649007309452e-01 2.0924799969316349e-01 0.0000000000000000e+00  2.2216337728510371e-01 1.0664857948241600e-01 0.0000000000000000e+00  2.2654756095483158e-01 -1.2415360310068888e-04 0.0000000000000000e+00  3.2878944964859075e-01 -8.0837611807880693e-08 0.0000000000000000e+00  3.2247538876547294e-01 -9.5999592574351728e-02 0.0000000000000000e+00  3.0377827939563867e-01 -1.8833408186706774e-01 0.0000000000000000e+00  2.7340061183124370e-01 -2.7341463791724485e-01 0.0000000000000000e+00  2.3251043339223595e-01 -3.4798387646314821e-01 0.0000000000000000e+00  1.8268555930015576e-01 -4.0917908180304036e-01 0.0000000000000000e+00  1.2584063969484172e-01 -4.5464973632393801e-01 0.0000000000000000e+00  6.4159918607852112e-02 -4.8264896889249004e-01 0.0000000000000000e+00  1.3666974004890669e-05 -4.9210100212045710e-01 0.0000000000000000e+00  -6.4133313464082617e-02 -4.8264268424821005e-01 0.0000000000000000e+00  -1.2581614589657780e-01 -4.5463742945606000e-01 0.0000000000000000e+00  -1.8266462057548263e-01 -4.0916126935419317e-01 0.0000000000000000e+00  -2.3249423519893428e-01 -3.4796153687128922e-01 0.0000000000000000e+00  -2.7339012161659865e-01 -2.7338976223544892e-01 0.0000000000000000e+00  -3.0378062442712739e-01 -1.8831135734336749e-01 0.0000000000000000e+00  -3.2249770640240882e-01 -9.5995551160303075e-02 0.0000000000000000e+00  -3.2882185807835884e-01 1.0201916961995229e-05 0.0000000000000000e+00  -3.2250978183026036e-01 9.6016520937496352e-02 0.0000000000000000e+00  -3.0380378107175798e-01 1.8833387090832376e-01 0.0000000000000000e+00  -2.7342248753562326e-01 2.7341436196028940e-01 0.0000000000000000e+00  -2.3253327705282203e-01 3.4798812392967093e-01 0.0000000000000000e+00  -1.8270742911901752e-01 4.0918901071396380e-01 0.0000000000000000e+00  -1.2585975046518483e-01 4.5466479679999494e-01 0.0000000000000000e+00  -6.4174981860541810e-02 4.8266762344149383e-01 0.0000000000000000e+00  -2.3817753570474300e-05 4.9212121117901247e-01 0.0000000000000000e+00  6.4128234105410201e-02 4.8266224945974973e-01 0.0000000000000000e+00  1.2581563210083646e-01 4.5465436840805434e-01 0.0000000000000000e+00  1.8266763238475120e-01 4.0917414983162620e-01 0.0000000000000000e+00  2.3249942952320540e-01 3.4796967346948410e-01 0.0000000000000000e+00  2.7339598326204745e-01 2.7339299163758729e-01 0.0000000000000000e+00  3.0379108955214690e-01 1.8830794000853313e-01 0.0000000000000000e+00  3.2251893847638358e-01 9.5970012463924420e-02 0.0000000000000000e+00  3.2886611860304904e-01 -1.2685476498050624e-04 0.0000000000000000e+00  4.1846956283310677e-01 -6.2313593735910924e-08 0.0000000000000000e+00  4.1044081352847134e-01 -8.1645174076493257e-02 0.0000000000000000e+00  3.8663911534360307e-01 -1.6016887370491506e-01 0.0000000000000000e+00  3.4797265390074700e-01 -2.3252448145063800e-01 0.0000000000000000e+00  2.9592840851125973e-01 -2.9594021597307324e-01 0.0000000000000000e+00  2.3251238620093692e-01 -3.4798189319773315e-01 0.0000000000000000e+00  1.6016123313533029e-01 -3.8665077636056178e-01 0.0000000000000000e+00  8.1655388530778750e-02 -4.1046122163721160e-01 0.0000000000000000e+00  1.1655436257710445e-05 -4.1849839138413786e-01 0.0000000000000000e+00  -8.1632690576018144e-02 -4.1045349892350852e-01 0.0000000000000000e+00  -1.6014030925161449e-01 -3.8663565803226435e-01 0.0000000000000000e+00  -2.3249438471317160e-01 -3.4796002895718636e-01 0.0000000000000000e+00  -2.9591451475145092e-01 -2.9591267533492083e-01 0.0000000000000000e+00  -3.4796354591507767e-01 -2.3249349039468195e-01 0.0000000000000000e+00  -3.8664122462035355e-01 -1.6013938182582652e-01 0.0000000000000000e+00  -4.1046107197592685e-01 -8.1630661595450460e-02 0.0000000000000000e+00  -4.1850752633434801e-01 1.5767492592574603e-05 0.0000000000000000e+00  -4.1047115488382496e-01 8.1662328672476955e-02 0.0000000000000000e+00  -3.8666057689991606e-01 1.6017134016904619e-01 0.0000000000000000e+00  -3.4799063550126202e-01 2.3252560389289464e-01 0.0000000000000000e+00  -2.9594726758152234e-01 2.9594437834739168e-01 0.0000000000000000e+00  -2.3253041786785780e-01 3.4799027536255600e-01 0.0000000000000000e+00  -1.6017718820743773e-01 3.8666296741849432e-01 0.0000000000000000e+00  -8.1668174391075973e-02 4.1047609838421600e-01 0.0000000000000000e+00  -2.0590992199720125e-05 4.1851443615324263e-01 0.0000000000000000e+00  8.1627708141267866e-02 4.1046906582344123e-01 0.0000000000000000e+00  1.6013884312046708e-01 3.8664926857276632e-01 0.0000000000000000e+00  2.3249556031663327e-01 3.4797062426053937e-01 0.0000000000000000e+00  2.9591720684032541e-01 2.9591976319422852e-01 0.0000000000000000e+00  3.4796651078099333e-01 2.3249698234586350e-01 0.0000000000000000e+00  3.8664768921757403e-01 1.6013783066968201e-01 0.0000000000000000e+00  4.1047640225568893e-01 8.1610515557840255e-02 0.0000000000000000e+00  4.1853908531817891e-01 -1.1432892626420048e-04 0.0000000000000000e+00  4.9206813206881433e-01 -4.5446720674864289e-08 0.0000000000000000e+00  4.8263296658825672e-01 -6.4154118727272197e-02 0.0000000000000000e+00  4.5464015666326069e-01 -1.2584988698046276e-01 0.0000000000000000e+00  4.0917081023352214e-01 -1.8269902535520111e-01 0.0000000000000000e+00  3.4797274456505173e-01 -2.3252378731978743e-01 0.0000000000000000e+00  2.7340260791568283e-01 -2.7341185559605724e-01 0.0000000000000000e+00  1.8832587141829979e-01 -3.0379275746236029e-01 0.0000000000000000e+00  9.6012056342081695e-02 -3.2249926994123096e-01 0.0000000000000000e+00  8.6018763468499452e-06 -3.2881267733013347e-01 0.0000000000000000e+00  -9.5995313479070199e-02 -3.2249041732605099e-01 0.0000000000000000e+00  -1.8831048211200807e-01 -3.0377541756633392e-01 0.0000000000000000e+00  -2.7338943516838737e-01 -2.7338677651449622e-01 0.0000000000000000e+00  -3.4796273640794062e-01 -2.3249214833086210e-01 0.0000000000000000e+00  -4.0916461433918877e-01 -1.8266289798509647e-01 0.0000000000000000e+00  -4.5464308583763730e-01 -1.2581374448750898e-01 0.0000000000000000e+00  -4.8265034665957840e-01 -6.4129208460957751e-02 0.0000000000000000e+00  -4.9210995281433578e-01 2.0313641022290197e-05 0.0000000000000000e+00  -4.8265820925525948e-01 6.4169627076110791e-02 0.0000000000000000e+00  -4.5465817202584596e-01 1.2585347045211703e-01 0.0000000000000000e+00  -4.0918572186836172e-01 1.8270126175024851e-01 0.0000000000000000e+00  -3.4798824055370897e-01 2.3252821663578699e-01 0.0000000000000000e+00  -2.7341747461897964e-01 2.7341933466739177e-01 0.0000000000000000e+00  -1.8833916426260483e-01 3.0380302182513919e-01 0.0000000000000000e+00  -9.6022909427986913e-02 3.2251151541777046e-01 0.0000000000000000e+00  -1.6506118566447714e-05 3.2882578475894619e-01 0.0000000000000000e+00  9.5990416512245408e-02 3.2250317843507015e-01 0.0000000000000000e+00  1.8830820986565430e-01 3.0378675434510938e-01 0.0000000000000000e+00  2.7338904470945835e-01 2.7339593061369843e-01 0.0000000000000000e+00  3.4796326299066949e-01 2.3249879556961153e-01 0.0000000000000000e+00  4.0916499169352338e-01 1.8266705313266096e-01 0.0000000000000000e+00  4.5464558112821180e-01 1.2581443872315934e-01 0.0000000000000000e+00  4.8265898912147459e-01 6.4115689008325011e-02 0.0000000000000000e+00  4.9212766174787548e-01 -9.5946743344622258e-05 0.0000000000000000e+00  5.4675679914547259e-01 -2.7319770004973733e-08 0.0000000000000000e+00  5.3627756975255447e-01 -4.4198201877003809e-02 0.0000000000000000e+00  5.0516909870423432e-01 -8.6694792565180742e-02 0.0000000000000000e+00  4.5464414424162275e-01 -1.2585272656590452e-01 0.0000000000000000e+00  3.8664393499799904e-01 -1.6017172961514001e-01 0.0000000000000000e+00  3.0378542476285436e-01 -1.8833467629303657e-01 0.0000000000000000e+00  2.0925265703591245e-01 -2.0925990893609581e-01 0.0000000000000000e+00  1.0667853558582056e-01 -2.2214352146846755e-01 0.0000000000000000e+00  4.8431045571361281e-06 -2.2649052209421949e-01 0.0000000000000000e+00  -1.0666914625452291e-01 -2.2213390048011325e-01 0.0000000000000000e+00  -2.0924414578200129e-01 -2.0924105618952119e-01 0.0000000000000000e+00  -3.0377837431151566e-01 -1.8830737297698064e-01 0.0000000000000000e+00  -3.8663901466933742e-01 -1.6013719798480819e-01 0.0000000000000000e+00  -4.5464181033658846e-01 -1.2581295180338464e-01 0.0000000000000000e+00  -5.0517342966056100e-01 -8.6653554157367446e-02 0.0000000000000000e+00  -5.3629189871560390e-01 -4.4163760383728427e-02 0.0000000000000000e+00  -5.4680124148416276e-01 2.3647671836441601e-05 0.0000000000000000e+00  -5.3629745767579784e-01 4.4210597364055172e-02 0.0000000000000000e+00  -5.0518406861794285e-01 8.6698978403385946e-02 0.0000000000000000e+00  -4.5465663073395590e-01 1.2585590632164056e-01 0.0000000000000000e+00  -3.8665680861369406e-01 1.6017648734412429e-01 0.0000000000000000e+00  -3.0379776991109941e-01 1.8834167050811390e-01 0.0000000000000000e+00  -2.0926376726707555e-01 2.0926896070756890e-01 0.0000000000000000e+00  -1.0668776557915448e-01 2.2215404022811860e-01 0.0000000000000000e+00  -1.1817668395814679e-05 2.2650169588664995e-01 0.0000000000000000e+00  1.0666444369291601e-01 2.2214486059850916e-01 0.0000000000000000e+00  2.0924137235819992e-01 2.0925103723704222e-01 0.0000000000000000e+00  3.0377688609172460e-01 1.8831585646937404e-01 0.0000000000000000e+00  3.8663795811939444e-01 1.6014400729210379e-01 0.0000000000000000e+00  4.5464023840198137e-01 1.2581824166896893e-01 0.0000000000000000e+00  5.0517248017152250e-01 8.6656986261123448e-02 0.0000000000000000e+00  5.3629414738022563e-01 4.4157880975741817e-02 0.0000000000000000e+00  5.4680475424689456e-01 -7.2622764384863426e-05 0.0000000000000000e+00  5.8043390872608869e-01 -7.7567032936822767e-09 0.0000000000000000e+00  5.6931328912578461e-01 -2.2544013427923140e-02 0.0000000000000000e+00  5.3628441286761686e-01 -4.4208443037180058e-02 0.0000000000000000e+00  4.8264533791919206e-01 -6.4170353650457493e-02 0.0000000000000000e+00  4.1045612277084143e-01 -8.1664561998360086e-02 0.0000000000000000e+00  3.2249345546565250e-01 -9.6019942726086063e-02 0.0000000000000000e+00  2.2213752684783117e-01 -1.0668524229691258e-01 0.0000000000000000e+00  1.1324503674905345e-01 -1.1325075739575395e-01 0.0000000000000000e+00  6.0328107789875508e-07 -1.1546425875482273e-01 0.0000000000000000e+00  -1.1324395682951510e-01 -1.1324071331124269e-01 0.0000000000000000e+00  -2.2213682155713485e-01 -1.0666555135543744e-01 0.0000000000000000e+00  -3.2249339143760847e-01 -9.5991391053054098e-02 0.0000000000000000e+00  -4.1045708310329321e-01 -8.1628342621844943e-02 0.0000000000000000e+00  -4.8264752591881172e-01 -6.4128263133882521e-02 0.0000000000000000e+00  -5.3629046392023760e-01 -4.4163565955699868e-02 0.0000000000000000e+00  -5.6932437175205119e-01 -2.2501396456534761e-02 0.0000000000000000e+00  -5.8047968680300777e-01 2.5835974667855091e-05 0.0000000000000000e+00  -5.6932761143837074e-01 2.2552439069486660e-02 0.0000000000000000e+00  -5.3629660778295429e-01 4.4212704206963951e-02 0.0000000000000000e+00  -4.8265594872486323e-01 6.4174180204137565e-02 0.0000000000000000e+00  -4.1046695475390027e-01 8.1669674942810772e-02 0.0000000000000000e+00  -3.2250378839438681e-01 9.6026753347310492e-02 0.0000000000000000e+00  -2.2214684858949207e-01 1.0669359574610417e-01 0.0000000000000000e+00  -1.1325286133236678e-01 1.1326022019401918e-01 0.0000000000000000e+00  -6.6589180753026850e-06 1.1547425067639150e-01 0.0000000000000000e+00  1.1323965284213042e-01 1.1325062334987461e-01 0.0000000000000000e+00  2.2213396150588993e-01 1.0667485812415130e-01 0.0000000000000000e+00  3.2249141088588340e-01 9.5999770283670835e-02 0.0000000000000000e+00  4.1045521412421954e-01 8.1635752148231433e-02 0.0000000000000000e+00  4.8264491709676449e-01 6.4135023903707844e-02 0.0000000000000000e+00  5.3628705232619400e-01 4.4170062414731572e-02 0.0000000000000000e+00  5.6932121632973798e-01 2.2503836393872125e-02 0.0000000000000000e+00  5.8047002936944814e-01 -4.5690221955352641e-05 0.0000000000000000e+00  5.9180526872975692e-01 1.2053585056125702e-08 0.0000000000000000e+00  5.8047059909110832e-01 -2.3658766648705809e-05 0.0000000000000000e+00  5.4679045811529958e-01 -2.3460398086934831e-05 0.0000000000000000e+00  4.9209847373984711e-01 -2.2215097634567660e-05 0.0000000000000000e+00  4.1849437886494761e-01 -1.9276576676797636e-05 0.0000000000000000e+00  3.2880787897810082e-01 -1.5332393879249069e-05 0.0000000000000000e+00  2.2648542775249608e-01 -1.0737833295333149e-05 0.0000000000000000e+00  1.1545929442645517e-01 -5.7680002671192198e-06 0.0000000000000000e+00  -3.8996708295319596e-06 -6.6726435794838376e-07 0.0000000000000000e+00  -1.1546704379495658e-01 4.3526301405805014e-06 0.0000000000000000e+00  -2.2649303252226760e-01 9.1179062841579436e-06 0.0000000000000000e+00  -3.2881527104116504e-01 1.3493799961103745e-05 0.0000000000000000e+00  -4.1850162224374271e-01 1.7382093956264302e-05 0.0000000000000000e+00  -4.9210550862696317e-01 2.0713478375700448e-05 0.0000000000000000e+00  -5.4679835896948736e-01 2.3437533190818275e-05 0.0000000000000000e+00  -5.8047831072032341e-01 2.5512825640095442e-05 0.0000000000000000e+00  -5