<?xml version="1.0"?>
<VTKFile type="UnstructuredGrid"  version="0.1"  >
<UnstructuredGrid>
<Piece  NumberOfPoints="81" NumberOfCells="128">
<Points>
<DataArray  type="Float64"  NumberOfComponents="3"  format="ascii">0 0 0  0.125 0 0  0.25 0 0  0.375 0 0  0.5 0 0  0.625 0 0  0.75 0 0  0.875 0 0  1 0 0  0 0.125 0  0.125 0.125 0  0.25 0.125 0  0.375 0.125 0  0.5 0.125 0  0.625 0.125 0  0.75 0.125 0  0.875 0.125 0  1 0.125 0  0 0.25 0  0.125 0.25 0  0.25 0.25 0  0.375 0.25 0  0.5 0.25 0  0.625 0.25 0  0.75 0.25 0  0.875 0.25 0  1 0.25 0  0 0.375 0  0.125 0.375 0  0.25 0.375 0  0.375 0.375 0  0.5 0.375 0  0.625 0.375 0  0.75 0.375 0  0.875 0.375 0  1 0.375 0  0 0.5 0  0.125 0.5 0  0.25 0.5 0  0.375 0.5 0  0.5 0.5 0  0.625 0.5 0  0.75 0.5 0  0.875 0.5 0  1 0.5 0  0 0.625 0  0.125 0.625 0  0.25 0.625 0  0.375 0.625 0  0.5 0.625 0  0.625 0.625 0  0.75 0.625 0  0.875 0.625 0  1 0.625 0  0 0.75 0  0.125 0.75 0  0.25 0.75 0  0.375 0.75 0  0.5 0.75 0  0.625 0.75 0  0.75 0.75 0  0.875 0.75 0  1 0.75 0  0 0.875 0  0.125 0.875 0  0.25 0.875 0  0.375 0.875 0  0.5 0.875 0  0.625 0.875 0  0.75 0.875 0  0.875 0.875 0  1 0.875 0  0 1 0  0.125 1 0  0.25 1 0  0.375 1 0  0.5 1 0  0.625 1 0  0.75 1 0  0.875 1 0  1 1 0  </DataArray>
</Points>
<Cells>
<DataArray  type="UInt32"  Name="connectivity"  format="ascii">0 1 10  0 9 10  1 2 11  1 10 11  2 3 12  2 11 12  3 4 13  3 12 13  4 5 14  4 13 14  5 6 15  5 14 15  6 7 16  6 15 16  7 8 17  7 16 17  9 10 19  9 18 19  10 11 20  10 19 20  11 12 21  11 20 21  12 13 22  12 21 22  13 14 23  13 22 23  14 15 24  14 23 24  15 16 25  15 24 25  16 17 26  16 25 26  18 19 28  18 27 28  19 20 29  19 28 29  20 21 30  20 29 30  21 22 31  21 30 31  22 23 32  22 31 32  23 24 33  23 32 33  24 25 34  24 33 34  25 26 35  25 34 35  27 28 37  27 36 37  28 29 38  28 37 38  29 30 39  29 38 39  30 31 40  30 39 40  31 32 41  31 40 41  32 33 42  32 41 42  33 34 43  33 42 43  34 35 44  34 43 44  36 37 46  36 45 46  37 38 47  37 46 47  38 39 48  38 47 48  39 40 49  39 48 49  40 41 50  40 49 50  41 42 51  41 50 51  42 43 52  42 51 52  43 44 53  43 52 53  45 46 55  45 54 55  46 47 56  46 55 56  47 48 57  47 56 57  48 49 58  48 57 58  49 50 59  49 58 59  50 51 60  50 59 60  51 52 61  51 60 61  52 53 62  52 61 62  54 55 64  54 63 64  55 56 65  55 64 65  56 57 66  56 65 66  57 58 67  57 66 67  58 59 68  58 67 68  59 60 69  59 68 69  60 61 70  60 69 70  61 62 71  61 70 71  63 64 73  63 72 73  64 65 74  64 73 74  65 66 75  65 74 75  66 67 76  66 75 76  67 68 77  67 76 77  68 69 78  68 77 78  69 70 79  69 78 79  70 71 80  70 79 80  </DataArray>
<DataArray  type="UInt32"  Name="offsets"  format="ascii">3 6 9 12 15 18 21 24 27 30 33 36 39 42 45 48 51 54 57 60 63 66 69 72 75 78 81 84 87 90 93 96 99 102 105 108 111 114 117 120 123 126 129 132 135 138 141 144 147 150 153 156 159 162 165 168 171 174 177 180 183 186 189 192 195 198 201 204 207 210 213 216 219 222 225 228 231 234 237 240 243 246 249 252 255 258 261 264 267 270 273 276 279 282 285 288 291 294 297 300 303 306 309 312 315 318 321 324 327 330 333 336 339 342 345 348 351 354 357 360 363 366 369 372 375 378 381 384 </DataArray>
<DataArray  type="UInt8"  Name="types"  format="ascii">5 5 5 5 5 5 5 5 5 5 5 5 5 5 5 5 5 5 5 5 5 5 5 5 5 5 5 5 5 5 5 5 5 5 5 5 5 5 5 5 5 5 5 5 5 5 5 5 5 5 5 5 5 5 5 5 5 5 5 5 5 5 5 5 5 5 5 5 5 5 5 5 5 5 5 5 5 5 5 5 5 5 5 5 5 5 5 5 5 5 5 5 5 5 5 5 5 5 5 5 5 5 5 5 5 5 5 5 5 5 5 5 5 5 5 5 5 5 5 5 5 5 5 5 5 5 5 5 </DataArray>
</Cells>
<PointData  Vectors="f_5703"> 
<DataArray  type="Float64"  Name="f_5703"  NumberOfComponents="3" format="ascii">1.2091955188169999e-04 -1.2083978283928589e-04 0.0000000000000000e+00  -5.2537349123425387e-03 -6.2195108393884235e-01 0.0000000000000000e+00  1.2017744504917664e-03 -8.8169909509447486e-01 0.0000000000000000e+00  4.7462853975491926e-03 -6.2558333886787010e-01 0.0000000000000000e+00  4.6518214591713116e-03 -3.6282664880627584e-03 0.0000000000000000e+00  1.7898394904241729e-04 6.2129481050805935e-01 0.0000000000000000e+00  -5.0253332071452626e-03 8.8318139594200396e-01 0.0000000000000000e+00  -6.9533350634155174e-03 6.2667666050612869e-01 0.0000000000000000e+00  -2.7475480808440782e-03 -2.8442045499714919e-03 0.0000000000000000e+00  6.2054054008811876e-01 -7.0565859954658457e-06 0.0000000000000000e+00  4.4203108991132389e-01 -4.4399278824746835e-01 0.0000000000000000e+00  1.3843564152488312e-03 -6.2422961584908365e-01 0.0000000000000000e+00  -4.4113551550757285e-01 -4.3940403727504213e-01 0.0000000000000000e+00  -6.2540690289725076e-01 2.6887588203167129e-03 0.0000000000000000e+00  -4.4394107645349529e-01 4.4385183936654582e-01 0.0000000000000000e+00  -3.0828150083720886e-03 6.2583055441836799e-01 0.0000000000000000e+00  4.3901463917649786e-01 4.4110045622925403e-01 0.0000000000000000e+00  6.2410578463399458e-01 -5.2135099098157651e-03 0.0000000000000000e+00  8.7749961543749155e-01 7.6653827167620463e-05 0.0000000000000000e+00  6.2535400573777555e-01 -2.1396581490257241e-03 0.0000000000000000e+00  -3.1790108866041272e-04 1.5005480817075435e-04 0.0000000000000000e+00  -6.2475412046070544e-01 2.5512447014792027e-03 0.0000000000000000e+00  -8.8288010440459885e-01 3.6522631621926710e-03 0.0000000000000000e+00  -6.2388796444988337e-01 2.8561216383585076e-03 0.0000000000000000e+00  2.3108207931323042e-05 9.4191376383903614e-04 0.0000000000000000e+00  6.2409406862248840e-01 -1.2692600659005508e-03 0.0000000000000000e+00  8.8099453269642469e-01 -1.3652913541770347e-03 0.0000000000000000e+00  6.2043243622144395e-01 1.1476394829806945e-04 0.0000000000000000e+00  4.4136449746100515e-01 4.3949648636553978e-01 0.0000000000000000e+00  -2.0397097174401331e-03 6.2409860118506566e-01 0.0000000000000000e+00  -4.4279004550057255e-01 4.4331765370812148e-01 0.0000000000000000e+00  -6.2369446219566571e-01 2.6913733675723388e-03 0.0000000000000000e+00  -4.3910277188438956e-01 -4.3946229061233727e-01 0.0000000000000000e+00  2.7269603465506346e-03 -6.2355356424779729e-01 0.0000000000000000e+00  4.4376354490816255e-01 -4.4214578919153258e-01 0.0000000000000000e+00  6.2192477347662012e-01 3.1083255309271203e-03 0.0000000000000000e+00  -7.5562761103706649e-05 8.5580163500445947e-05 0.0000000000000000e+00  -1.8489947381761620e-03 6.2409456197067625e-01 0.0000000000000000e+00  -3.2248331106079909e-03 8.8301019586434160e-01 0.0000000000000000e+00  -2.2991280190944839e-03 6.2482135176114240e-01 0.0000000000000000e+00  1.1430019879334770e-04 3.7351970405373204e-04 0.0000000000000000e+00  2.7071892557025408e-03 -6.2404025012016184e-01 0.0000000000000000e+00  3.9062116197738435e-03 -8.8221877474622579e-01 0.0000000000000000e+00  3.0074541664966460e-03 -6.2351612816938018e-01 0.0000000000000000e+00  -2.2558997983579375e-03 6.0942267786152820e-03 0.0000000000000000e+00  -6.2053924874270305e-01 6.3342375707366179e-06 0.0000000000000000e+00  -4.4381178943224880e-01 4.4313274724267160e-01 0.0000000000000000e+00  -2.6573390075207413e-03 6.2461061649677385e-01 0.0000000000000000e+00  4.3912599796344665e-01 4.4033688173581736e-01 0.0000000000000000e+00  6.2383184662292546e-01 -2.0423328107385084e-03 0.0000000000000000e+00  4.4324430341115878e-01 -4.4287370065379406e-01 0.0000000000000000e+00  2.7327047256264564e-03 -6.2382570984709274e-01 0.0000000000000000e+00  -4.4003789761810364e-01 -4.3903983419767856e-01 0.0000000000000000e+00  -6.2645081996896612e-01 7.4558742835120102e-03 0.0000000000000000e+00  -8.7750024028548024e-01 -7.5796633982883136e-05 0.0000000000000000e+00  -6.2518550107958548e-01 2.0798071099176244e-03 0.0000000000000000e+00  -5.6915900687260932e-04 -6.8180166694214097e-05 0.0000000000000000e+00  6.2356263972170767e-01 -2.1576483708247887e-03 0.0000000000000000e+00  8.8278681658894864e-01 -3.1884270827511356e-03 0.0000000000000000e+00  6.2476423574288487e-01 -2.3897517364080672e-03 0.0000000000000000e+00  3.9033397099001808e-04 -8.0613310824530511e-05 0.0000000000000000e+00  -6.2503341657034384e-01 3.3116759584943794e-03 0.0000000000000000e+00  -8.8319460692120755e-01 5.7971104901248039e-03 0.0000000000000000e+00  -6.2044126484011908e-01 -1.0606526367260527e-04 0.0000000000000000e+00  -4.4070740447727969e-01 -4.4051552872351346e-01 0.0000000000000000e+00  2.4571739178683013e-03 -6.2543898611739623e-01 0.0000000000000000e+00  4.4344244377462527e-01 -4.4338951033194429e-01 0.0000000000000000e+00  6.2504664854113279e-01 -2.2896726259452821e-03 0.0000000000000000e+00  4.4054276896586675e-01 4.3964422836636252e-01 0.0000000000000000e+00  -2.0748392509568011e-03 6.2462414623728713e-01 0.0000000000000000e+00  -4.4360024013635679e-01 4.4473744362336920e-01 0.0000000000000000e+00  -6.2280300186447823e-01 1.2060650614424068e-03 0.0000000000000000e+00  -1.5375219510114869e-05 -1.5120316995565753e-05 0.0000000000000000e+00  7.9031854981807797e-03 -6.2714355845246383e-01 0.0000000000000000e+00  4.2728093682020589e-03 -8.8295063398454099e-01 0.0000000000000000e+00  -6.9891806418100001e-04 -6.2096458765932538e-01 0.0000000000000000e+00  -5.1450674200493925e-03 4.0968060471172872e-03 0.0000000000000000e+00  -5.5415558068532978e-03 6.2623142540333310e-01 0.0000000000000000e+00  -2.4485487574508291e-03 8.8267159920858007e-01 0.0000000000000000e+00  1.2241048442600275e-03 6.2464331680234142e-01 0.0000000000000000e+00  7.4964903724875900e-03 -5.7185015233803572e-03 0.0000000000000000e+00  </DataArray> 
</PointData> 
</Piece>
</UnstructuredGrid>
</VTKFile>