<?xml version="1.0"?>
<VTKFile type="UnstructuredGrid"  version="0.1"  >
<UnstructuredGrid>
<Piece  NumberOfPoints="81" NumberOfCells="128">
<Points>
<DataArray  type="Float64"  NumberOfComponents="3"  format="ascii">0 0 0  0.125 0 0  0.25 0 0  0.375 0 0  0.5 0 0  0.625 0 0  0.75 0 0  0.875 0 0  1 0 0  0 0.125 0  0.125 0.125 0  0.25 0.125 0  0.375 0.125 0  0.5 0.125 0  0.625 0.125 0  0.75 0.125 0  0.875 0.125 0  1 0.125 0  0 0.25 0  0.125 0.25 0  0.25 0.25 0  0.375 0.25 0  0.5 0.25 0  0.625 0.25 0  0.75 0.25 0  0.875 0.25 0  1 0.25 0  0 0.375 0  0.125 0.375 0  0.25 0.375 0  0.375 0.375 0  0.5 0.375 0  0.625 0.375 0  0.75 0.375 0  0.875 0.375 0  1 0.375 0  0 0.5 0  0.125 0.5 0  0.25 0.5 0  0.375 0.5 0  0.5 0.5 0  0.625 0.5 0  0.75 0.5 0  0.875 0.5 0  1 0.5 0  0 0.625 0  0.125 0.625 0  0.25 0.625 0  0.375 0.625 0  0.5 0.625 0  0.625 0.625 0  0.75 0.625 0  0.875 0.625 0  1 0.625 0  0 0.75 0  0.125 0.75 0  0.25 0.75 0  0.375 0.75 0  0.5 0.75 0  0.625 0.75 0  0.75 0.75 0  0.875 0.75 0  1 0.75 0  0 0.875 0  0.125 0.875 0  0.25 0.875 0  0.375 0.875 0  0.5 0.875 0  0.625 0.875 0  0.75 0.875 0  0.875 0.875 0  1 0.875 0  0 1 0  0.125 1 0  0.25 1 0  0.375 1 0  0.5 1 0  0.625 1 0  0.75 1 0  0.875 1 0  1 1 0  </DataArray>
</Points>
<Cells>
<DataArray  type="UInt32"  Name="connectivity"  format="ascii">0 1 10  0 9 10  1 2 11  1 10 11  2 3 12  2 11 12  3 4 13  3 12 13  4 5 14  4 13 14  5 6 15  5 14 15  6 7 16  6 15 16  7 8 17  7 16 17  9 10 19  9 18 19  10 11 20  10 19 20  11 12 21  11 20 21  12 13 22  12 21 22  13 14 23  13 22 23  14 15 24  14 23 24  15 16 25  15 24 25  16 17 26  16 25 26  18 19 28  18 27 28  19 20 29  19 28 29  20 21 30  20 29 30  21 22 31  21 30 31  22 23 32  22 31 32  23 24 33  23 32 33  24 25 34  24 33 34  25 26 35  25 34 35  27 28 37  27 36 37  28 29 38  28 37 38  29 30 39  29 38 39  30 31 40  30 39 40  31 32 41  31 40 41  32 33 42  32 41 42  33 34 43  33 42 43  34 35 44  34 43 44  36 37 46  36 45 46  37 38 47  37 46 47  38 39 48  38 47 48  39 40 49  39 48 49  40 41 50  40 49 50  41 42 51  41 50 51  42 43 52  42 51 52  43 44 53  43 52 53  45 46 55  45 54 55  46 47 56  46 55 56  47 48 57  47 56 57  48 49 58  48 57 58  49 50 59  49 58 59  50 51 60  50 59 60  51 52 61  51 60 61  52 53 62  52 61 62  54 55 64  54 63 64  55 56 65  55 64 65  56 57 66  56 65 66  57 58 67  57 66 67  58 59 68  58 67 68  59 60 69  59 68 69  60 61 70  60 69 70  61 62 71  61 70 71  63 64 73  63 72 73  64 65 74  64 73 74  65 66 75  65 74 75  66 67 76  66 75 76  67 68 77  67 76 77  68 69 78  68 77 78  69 70 79  69 78 79  70 71 80  70 79 80  </DataArray>
<DataArray  type="UInt32"  Name="offsets"  format="ascii">3 6 9 12 15 18 21 24 27 30 33 36 39 42 45 48 51 54 57 60 63 66 69 72 75 78 81 84 87 90 93 96 99 102 105 108 111 114 117 120 123 126 129 132 135 138 141 144 147 150 153 156 159 162 165 168 171 174 177 180 183 186 189 192 195 198 201 204 207 210 213 216 219 222 225 228 231 234 237 240 243 246 249 252 255 258 261 264 267 270 273 276 279 282 285 288 291 294 297 300 303 306 309 312 315 318 321 324 327 330 333 336 339 342 345 348 351 354 357 360 363 366 369 372 375 378 381 384 </DataArray>
<DataArray  type="UInt8"  Name="types"  format="ascii">5 5 5 5 5 5 5 5 5 5 5 5 5 5 5 5 5 5 5 5 5 5 5 5 5 5 5 5 5 5 5 5 5 5 5 5 5 5 5 5 5 5 5 5 5 5 5 5 5 5 5 5 5 5 5 5 5 5 5 5 5 5 5 5 5 5 5 5 5 5 5 5 5 5 5 5 5 5 5 5 5 5 5 5 5 5 5 5 5 5 5 5 5 5 5 5 5 5 5 5 5 5 5 5 5 5 5 5 5 5 5 5 5 5 5 5 5 5 5 5 5 5 5 5 5 5 5 5 </DataArray>
</Cells>
<PointData  Vectors="f_882"> 
<DataArray  type="Float64"  Name="f_882"  NumberOfComponents="3" format="ascii">1.1173992708345250e-04 -1.1166645994316055e-04 0.0000000000000000e+00  -7.1174201560765841e-03 -5.7131776374418963e-01 0.0000000000000000e+00  -3.1931113259964497e-03 -8.1082493642337594e-01 0.0000000000000000e+00  1.2936358689967743e-03 -5.7703929757806338e-01 0.0000000000000000e+00  4.7906286005958039e-03 -5.7366470660726370e-03 0.0000000000000000e+00  3.1006048742099304e-03 5.7007317048076500e-01 0.0000000000000000e+00  -2.3744805443549166e-03 8.1329073685516828e-01 0.0000000000000000e+00  -6.3549144818500934e-03 5.8242891956841225e-01 0.0000000000000000e+00  -1.1595635960664783e-03 -7.2945709976226798e-04 0.0000000000000000e+00  5.7343378760590757e-01 -6.5212174002020046e-06 0.0000000000000000e+00  4.0651620489305412e-01 -4.0767365352923551e-01 0.0000000000000000e+00  -1.0672809034361413e-03 -5.7326157003656075e-01 0.0000000000000000e+00  -4.0809493166592375e-01 -4.0420159543193446e-01 0.0000000000000000e+00  -5.7579534901896823e-01 1.4141878117615650e-03 0.0000000000000000e+00  -4.0688014281372198e-01 4.0701692785339166e-01 0.0000000000000000e+00  -8.5673939537302644e-04 5.7526998303844945e-01 0.0000000000000000e+00  4.0475044812718364e-01 4.0774823950612343e-01 0.0000000000000000e+00  5.7926032823702212e-01 -2.6651562128082755e-03 0.0000000000000000e+00  8.1088647009244308e-01 7.0834679890763866e-05 0.0000000000000000e+00  5.7485671787376103e-01 -9.1899092944638553e-05 0.0000000000000000e+00  1.6254750333807792e-04 -3.4857612932411318e-04 0.0000000000000000e+00  -5.7366426262247350e-01 -6.2408719023662431e-05 0.0000000000000000e+00  -8.1065416189649997e-01 9.2546864392338812e-05 0.0000000000000000e+00  -5.7280221620628591e-01 3.9472435893288292e-04 0.0000000000000000e+00  -9.2183003119683204e-05 1.0350927212090246e-03 0.0000000000000000e+00  5.7286720133012636e-01 1.4935398244286004e-03 0.0000000000000000e+00  8.1052245206926343e-01 2.9605763246718501e-03 0.0000000000000000e+00  5.7333389015678393e-01 1.0605186568780870e-04 0.0000000000000000e+00  4.0660563250199205e-01 4.0559348702299058e-01 0.0000000000000000e+00  7.2333395553517859e-04 5.7250661973525929e-01 0.0000000000000000e+00  -4.0476478177489106e-01 4.0488248807182065e-01 0.0000000000000000e+00  -5.7243938086626811e-01 -3.2530695395479350e-04 0.0000000000000000e+00  -4.0455896526077018e-01 -4.0544437519130327e-01 0.0000000000000000e+00  3.6672517184735903e-04 -5.7274121535073175e-01 0.0000000000000000e+00  4.0635500643999123e-01 -4.0520864458885841e-01 0.0000000000000000e+00  5.7032126769948421e-01 5.7993841842078403e-03 0.0000000000000000e+00  -6.9826678203264482e-05 7.9083614197082288e-05 0.0000000000000000e+00  -1.6713605904711680e-04 5.7406617924309533e-01 0.0000000000000000e+00  2.6035581764925536e-04 8.1067578312960087e-01 0.0000000000000000e+00  6.2884681512867559e-05 5.7359155966616027e-01 0.0000000000000000e+00  -1.0280881937170036e-05 3.7978313228648485e-04 0.0000000000000000e+00  8.6840627039285270e-05 -5.7278093153189402e-01 0.0000000000000000e+00  2.1598203345078073e-04 -8.0986714547519900e-01 0.0000000000000000e+00  1.1542504499556076e-03 -5.7359767734254652e-01 0.0000000000000000e+00  -4.5302204913170259e-03 6.1800115983722884e-03 0.0000000000000000e+00  -5.7343259421837256e-01 5.8535083981207159e-06 0.0000000000000000e+00  -4.0649142962772622e-01 4.0614493072156826e-01 0.0000000000000000e+00  -3.9808303518090157e-04 5.7386474216401862e-01 0.0000000000000000e+00  4.0440250723947074e-01 4.0638737620538407e-01 0.0000000000000000e+00  5.7234999512534979e-01 1.0124598932843604e-03 0.0000000000000000e+00  4.0494047025985414e-01 -4.0439517291289961e-01 0.0000000000000000e+00  -2.9356436992601155e-04 -5.7218778348556620e-01 0.0000000000000000e+00  -4.0547345398398754e-01 -4.0516898844903443e-01 0.0000000000000000e+00  -5.7826678162118139e-01 5.7069915534724049e-03 0.0000000000000000e+00  -8.1088704738872541e-01 -7.0042826816759052e-05 0.0000000000000000e+00  -5.7403468195130869e-01 -3.1397099532558471e-04 0.0000000000000000e+00  -4.7960446873364349e-04 9.5718877414223960e-06 0.0000000000000000e+00  5.7237455945507321e-01 4.4096402501128136e-04 0.0000000000000000e+00  8.1039090207878195e-01 4.7115027963616393e-04 0.0000000000000000e+00  5.7345670848744401e-01 3.0878278561692694e-04 0.0000000000000000e+00  -3.3025524107076725e-04 5.1171058463542630e-04 0.0000000000000000e+00  -5.7468130639496595e-01 1.1889098055303591e-03 0.0000000000000000e+00  -8.1298110954150193e-01 2.7387159946288303e-03 0.0000000000000000e+00  -5.7334204825313040e-01 -9.8013602500604175e-05 0.0000000000000000e+00  -4.0642836748390893e-01 -4.0643911704973262e-01 0.0000000000000000e+00  1.6687491600245012e-04 -5.7457883748204985e-01 0.0000000000000000e+00  4.0632484144665515e-01 -4.0636590686588941e-01 0.0000000000000000e+00  5.7532957987129685e-01 -8.6104636531926623e-04 0.0000000000000000e+00  4.0737381869687050e-01 4.0456438468949540e-01 0.0000000000000000e+00  1.8193462433784100e-04 5.7365554467893942e-01 0.0000000000000000e+00  -4.0814235079138117e-01 4.0863408260220846e-01 0.0000000000000000e+00  -5.7161846357904700e-01 -1.5869318194349693e-03 0.0000000000000000e+00  -1.4208108705543411e-05 -1.3972419589230927e-05 0.0000000000000000e+00  6.6278924431688166e-03 -5.8142431585403642e-01 0.0000000000000000e+00  1.5426324551248477e-03 -8.1273408832602367e-01 0.0000000000000000e+00  -3.6861245487834760e-03 -5.6951801137756286e-01 0.0000000000000000e+00  -5.3603529145586819e-03 6.4054730322710366e-03 0.0000000000000000e+00  -2.1906288427398363e-03 5.7782926599248663e-01 0.0000000000000000e+00  1.8978891714085905e-03 8.1185352690555779e-01 0.0000000000000000e+00  3.4098618701633543e-03 5.7297420499605911e-01 0.0000000000000000e+00  1.0155027643279836e-02 -8.9507952247352262e-03 0.0000000000000000e+00  </DataArray> 
</PointData> 
</Piece>
</UnstructuredGrid>
</VTKFile>