<?xml version="1.0"?>
<VTKFile type="UnstructuredGrid"  version="0.1"  >
<UnstructuredGrid>
<Piece  NumberOfPoints="81" NumberOfCells="128">
<Points>
<DataArray  type="Float64"  NumberOfComponents="3"  format="ascii">0 0 0  0.125 0 0  0.25 0 0  0.375 0 0  0.5 0 0  0.625 0 0  0.75 0 0  0.875 0 0  1 0 0  0 0.125 0  0.125 0.125 0  0.25 0.125 0  0.375 0.125 0  0.5 0.125 0  0.625 0.125 0  0.75 0.125 0  0.875 0.125 0  1 0.125 0  0 0.25 0  0.125 0.25 0  0.25 0.25 0  0.375 0.25 0  0.5 0.25 0  0.625 0.25 0  0.75 0.25 0  0.875 0.25 0  1 0.25 0  0 0.375 0  0.125 0.375 0  0.25 0.375 0  0.375 0.375 0  0.5 0.375 0  0.625 0.375 0  0.75 0.375 0  0.875 0.375 0  1 0.375 0  0 0.5 0  0.125 0.5 0  0.25 0.5 0  0.375 0.5 0  0.5 0.5 0  0.625 0.5 0  0.75 0.5 0  0.875 0.5 0  1 0.5 0  0 0.625 0  0.125 0.625 0  0.25 0.625 0  0.375 0.625 0  0.5 0.625 0  0.625 0.625 0  0.75 0.625 0  0.875 0.625 0  1 0.625 0  0 0.75 0  0.125 0.75 0  0.25 0.75 0  0.375 0.75 0  0.5 0.75 0  0.625 0.75 0  0.75 0.75 0  0.875 0.75 0  1 0.75 0  0 0.875 0  0.125 0.875 0  0.25 0.875 0  0.375 0.875 0  0.5 0.875 0  0.625 0.875 0  0.75 0.875 0  0.875 0.875 0  1 0.875 0  0 1 0  0.125 1 0  0.25 1 0  0.375 1 0  0.5 1 0  0.625 1 0  0.75 1 0  0.875 1 0  1 1 0  </DataArray>
</Points>
<Cells>
<DataArray  type="UInt32"  Name="connectivity"  format="ascii">0 1 10  0 9 10  1 2 11  1 10 11  2 3 12  2 11 12  3 4 13  3 12 13  4 5 14  4 13 14  5 6 15  5 14 15  6 7 16  6 15 16  7 8 17  7 16 17  9 10 19  9 18 19  10 11 20  10 19 20  11 12 21  11 20 21  12 13 22  12 21 22  13 14 23  13 22 23  14 15 24  14 23 24  15 16 25  15 24 25  16 17 26  16 25 26  18 19 28  18 27 28  19 20 29  19 28 29  20 21 30  20 29 30  21 22 31  21 30 31  22 23 32  22 31 32  23 24 33  23 32 33  24 25 34  24 33 34  25 26 35  25 34 35  27 28 37  27 36 37  28 29 38  28 37 38  29 30 39  29 38 39  30 31 40  30 39 40  31 32 41  31 40 41  32 33 42  32 41 42  33 34 43  33 42 43  34 35 44  34 43 44  36 37 46  36 45 46  37 38 47  37 46 47  38 39 48  38 47 48  39 40 49  39 48 49  40 41 50  40 49 50  41 42 51  41 50 51  42 43 52  42 51 52  43 44 53  43 52 53  45 46 55  45 54 55  46 47 56  46 55 56  47 48 57  47 56 57  48 49 58  48 57 58  49 50 59  49 58 59  50 51 60  50 59 60  51 52 61  51 60 61  52 53 62  52 61 62  54 55 64  54 63 64  55 56 65  55 64 65  56 57 66  56 65 66  57 58 67  57 66 67  58 59 68  58 67 68  59 60 69  59 68 69  60 61 70  60 69 70  61 62 71  61 70 71  63 64 73  63 72 73  64 65 74  64 73 74  65 66 75  65 74 75  66 67 76  66 75 76  67 68 77  67 76 77  68 69 78  68 77 78  69 70 79  69 78 79  70 71 80  70 79 80  </DataArray>
<DataArray  type="UInt32"  Name="offsets"  format="ascii">3 6 9 12 15 18 21 24 27 30 33 36 39 42 45 48 51 54 57 60 63 66 69 72 75 78 81 84 87 90 93 96 99 102 105 108 111 114 117 120 123 126 129 132 135 138 141 144 147 150 153 156 159 162 165 168 171 174 177 180 183 186 189 192 195 198 201 204 207 210 213 216 219 222 225 228 231 234 237 240 243 246 249 252 255 258 261 264 267 270 273 276 279 282 285 288 291 294 297 300 303 306 309 312 315 318 321 324 327 330 333 336 339 342 345 348 351 354 357 360 363 366 369 372 375 378 381 384 </DataArray>
<DataArray  type="UInt8"  Name="types"  format="ascii">5 5 5 5 5 5 5 5 5 5 5 5 5 5 5 5 5 5 5 5 5 5 5 5 5 5 5 5 5 5 5 5 5 5 5 5 5 5 5 5 5 5 5 5 5 5 5 5 5 5 5 5 5 5 5 5 5 5 5 5 5 5 5 5 5 5 5 5 5 5 5 5 5 5 5 5 5 5 5 5 5 5 5 5 5 5 5 5 5 5 5 5 5 5 5 5 5 5 5 5 5 5 5 5 5 5 5 5 5 5 5 5 5 5 5 5 5 5 5 5 5 5 5 5 5 5 5 5 </DataArray>
</Cells>
<PointData  Vectors="f_13779"> 
<DataArray  type="Float64"  Name="f_13779"  NumberOfComponents="3" format="ascii">1.3350355240814178e-04 -1.3341556604481018e-04 0.0000000000000000e+00  -6.3500798097784264e-03 -6.8590316463880940e-01 0.0000000000000000e+00  3.2203132611036687e-04 -9.7251461992987853e-01 0.0000000000000000e+00  4.6462608537974721e-03 -6.9045336129914492e-01 0.0000000000000000e+00  5.4342538180878362e-03 -4.7200041623698718e-03 0.0000000000000000e+00  8.4490228692285410e-04 6.8468039577189621e-01 0.0000000000000000e+00  -5.3231086803240115e-03 9.7412852170730924e-01 0.0000000000000000e+00  -7.6223130309688268e-03 6.9228701544897209e-01 0.0000000000000000e+00  -2.2515833436161752e-03 -3.3374975780059730e-03 0.0000000000000000e+00  6.8512008284961368e-01 -7.7910498405170323e-06 0.0000000000000000e+00  4.8767173059661301e-01 -4.8965473768773854e-01 0.0000000000000000e+00  9.6322121017604573e-04 -6.8839176959675186e-01 0.0000000000000000e+00  -4.8730459364261675e-01 -4.8465523074268146e-01 0.0000000000000000e+00  -6.9017872319594642e-01 2.6941774071658812e-03 0.0000000000000000e+00  -4.8948867458600831e-01 4.8906009881816959e-01 0.0000000000000000e+00  -2.9531898489016167e-03 6.8978689616738842e-01 0.0000000000000000e+00  4.8479050652528344e-01 4.8651948917599080e-01 0.0000000000000000e+00  6.9006660977042700e-01 -6.0148672412250149e-03 0.0000000000000000e+00  9.6882084310699346e-01 8.4631140402642417e-05 0.0000000000000000e+00  6.8978902034765688e-01 -2.1024143413875002e-03 0.0000000000000000e+00  -3.1141693616608071e-04 7.9326328415381010e-05 0.0000000000000000e+00  -6.8911521694919220e-01 2.4010618921511159e-03 0.0000000000000000e+00  -9.7372072989644398e-01 3.3316113055684559e-03 0.0000000000000000e+00  -6.8800102668457241e-01 2.3492570236053529e-03 0.0000000000000000e+00  3.8269084257542609e-05 3.6941745238673536e-04 0.0000000000000000e+00  6.8827128351465572e-01 -1.6563252491223932e-03 0.0000000000000000e+00  9.7201298706270112e-01 -1.4002318470370746e-03 0.0000000000000000e+00  6.8500072862911199e-01 1.2670742521176602e-04 0.0000000000000000e+00  4.8711175638314824e-01 4.8501973820743882e-01 0.0000000000000000e+00  -1.8443535346001443e-03 6.8816630678713897e-01 0.0000000000000000e+00  -4.8804158851883128e-01 4.8842237109430092e-01 0.0000000000000000e+00  -6.8776772594771818e-01 2.2033083480818040e-03 0.0000000000000000e+00  -4.8444259533949152e-01 -4.8551705239892645e-01 0.0000000000000000e+00  2.6269398119527438e-03 -6.8843631104376235e-01 0.0000000000000000e+00  4.8901148064941224e-01 -4.8825213739442630e-01 0.0000000000000000e+00  6.8537844030112038e-01 3.4170629595706332e-03 0.0000000000000000e+00  -8.3426580965849170e-05 9.4486539953518288e-05 0.0000000000000000e+00  -1.6036459377278198e-03 6.8849669361321786e-01 0.0000000000000000e+00  -2.9860195378667905e-03 9.7387220275024833e-01 0.0000000000000000e+00  -2.1160765914579570e-03 6.8900651639557764e-01 0.0000000000000000e+00  1.8121019140968669e-04 1.9727557383886676e-04 0.0000000000000000e+00  2.6375132661504539e-03 -6.8858090846563391e-01 0.0000000000000000e+00  3.7122022058932828e-03 -9.7343457466891337e-01 0.0000000000000000e+00  2.7368418042821884e-03 -6.8848816260058654e-01 0.0000000000000000e+00  -3.4851815097391081e-03 6.4118221470396541e-03 0.0000000000000000e+00  -6.8511865710992148e-01 6.9934868683461055e-06 0.0000000000000000e+00  -4.8911605398011554e-01 4.8869224053463767e-01 0.0000000000000000e+00  -2.5046606241152509e-03 6.8903984270089336e-01 0.0000000000000000e+00  4.8456689697505123e-01 4.8598611124143831e-01 0.0000000000000000e+00  6.8801916254174611e-01 -1.9035518441490251e-03 0.0000000000000000e+00  4.8858631337960873e-01 -4.8828543587144113e-01 0.0000000000000000e+00  2.5582706514017720e-03 -6.8817820468657087e-01 0.0000000000000000e+00  -4.8576915780489843e-01 -4.8500163882797476e-01 0.0000000000000000e+00  -6.9188254002735172e-01 7.8987536876471229e-03 0.0000000000000000e+00  -9.6882153295695750e-01 -8.3684804752415931e-05 0.0000000000000000e+00  -6.8935262344856185e-01 2.0614569851053308e-03 0.0000000000000000e+00  -4.9407588169064591e-04 -1.6473748485770735e-05 0.0000000000000000e+00  6.8776239056419475e-01 -2.0776617584862848e-03 0.0000000000000000e+00  9.7370175601917275e-01 -3.2004343300743639e-03 0.0000000000000000e+00  6.8916175997348517e-01 -2.5057778002303332e-03 0.0000000000000000e+00  3.7221995388661696e-04 -2.3052835011594754e-04 0.0000000000000000e+00  -6.8949118666752096e-01 3.0662289810607186e-03 0.0000000000000000e+00  -9.7449523003754079e-01 5.8913390922843050e-03 0.0000000000000000e+00  -6.8501047599706621e-01 -1.1710345755739720e-04 0.0000000000000000e+00  -4.8631464015566134e-01 -4.8625885926179602e-01 0.0000000000000000e+00  2.4700200951123072e-03 -6.8988582977391844e-01 0.0000000000000000e+00  4.8908703044405644e-01 -4.8899331026627241e-01 0.0000000000000000e+00  6.8987383018504622e-01 -2.5943056497449522e-03 0.0000000000000000e+00  4.8671660325512622e-01 4.8467925632932962e-01 0.0000000000000000e+00  -1.7119364136351815e-03 6.8859338603374898e-01 0.0000000000000000e+00  -4.8935243094979353e-01 4.9038234410150050e-01 0.0000000000000000e+00  -6.8659898552306786e-01 5.3483782242619445e-04 0.0000000000000000e+00  -1.6975289551340637e-05 -1.6693829951976215e-05 0.0000000000000000e+00  8.9216905886749989e-03 -6.9289180376176807e-01 0.0000000000000000e+00  4.7449252652349110e-03 -9.7430271291030768e-01 0.0000000000000000e+00  -1.2602575305588088e-03 -6.8468050705243588e-01 0.0000000000000000e+00  -5.8730793729990594e-03 4.9322213639427410e-03 0.0000000000000000e+00  -5.4330094587364914e-03 6.9093131171275179e-01 0.0000000000000000e+00  -1.6178924019387194e-03 9.7340901266102420e-01 0.0000000000000000e+00  2.0302076049988974e-03 6.8849561733942855e-01 0.0000000000000000e+00  9.4129908293428786e-03 -7.6187461111677556e-03 0.0000000000000000e+00  </DataArray> 
</PointData> 
</Piece>
</UnstructuredGrid>
</VTKFile>