<?xml version="1.0"?>
<VTKFile type="UnstructuredGrid"  version="0.1"  >
<UnstructuredGrid>
<Piece  NumberOfPoints="1089" NumberOfCells="2048">
<Points>
<DataArray  type="Float64"  NumberOfComponents="3"  format="ascii">0 0 0  0.03125 0 0  0.0625 0 0  0.09375 0 0  0.125 0 0  0.15625 0 0  0.1875 0 0  0.21875 0 0  0.25 0 0  0.28125 0 0  0.3125 0 0  0.34375 0 0  0.375 0 0  0.40625 0 0  0.4375 0 0  0.46875 0 0  0.5 0 0  0.53125 0 0  0.5625 0 0  0.59375 0 0  0.625 0 0  0.65625 0 0  0.6875 0 0  0.71875 0 0  0.75 0 0  0.78125 0 0  0.8125 0 0  0.84375 0 0  0.875 0 0  0.90625 0 0  0.9375 0 0  0.96875 0 0  1 0 0  0 0.03125 0  0.03125 0.03125 0  0.0625 0.03125 0  0.09375 0.03125 0  0.125 0.03125 0  0.15625 0.03125 0  0.1875 0.03125 0  0.21875 0.03125 0  0.25 0.03125 0  0.28125 0.03125 0  0.3125 0.03125 0  0.34375 0.03125 0  0.375 0.03125 0  0.40625 0.03125 0  0.4375 0.03125 0  0.46875 0.03125 0  0.5 0.03125 0  0.53125 0.03125 0  0.5625 0.03125 0  0.59375 0.03125 0  0.625 0.03125 0  0.65625 0.03125 0  0.6875 0.03125 0  0.71875 0.03125 0  0.75 0.03125 0  0.78125 0.03125 0  0.8125 0.03125 0  0.84375 0.03125 0  0.875 0.03125 0  0.90625 0.03125 0  0.9375 0.03125 0  0.96875 0.03125 0  1 0.03125 0  0 0.0625 0  0.03125 0.0625 0  0.0625 0.0625 0  0.09375 0.0625 0  0.125 0.0625 0  0.15625 0.0625 0  0.1875 0.0625 0  0.21875 0.0625 0  0.25 0.0625 0  0.28125 0.0625 0  0.3125 0.0625 0  0.34375 0.0625 0  0.375 0.0625 0  0.40625 0.0625 0  0.4375 0.0625 0  0.46875 0.0625 0  0.5 0.0625 0  0.53125 0.0625 0  0.5625 0.0625 0  0.59375 0.0625 0  0.625 0.0625 0  0.65625 0.0625 0  0.6875 0.0625 0  0.71875 0.0625 0  0.75 0.0625 0  0.78125 0.0625 0  0.8125 0.0625 0  0.84375 0.0625 0  0.875 0.0625 0  0.90625 0.0625 0  0.9375 0.0625 0  0.96875 0.0625 0  1 0.0625 0  0 0.09375 0  0.03125 0.09375 0  0.0625 0.09375 0  0.09375 0.09375 0  0.125 0.09375 0  0.15625 0.09375 0  0.1875 0.09375 0  0.21875 0.09375 0  0.25 0.09375 0  0.28125 0.09375 0  0.3125 0.09375 0  0.34375 0.09375 0  0.375 0.09375 0  0.40625 0.09375 0  0.4375 0.09375 0  0.46875 0.09375 0  0.5 0.09375 0  0.53125 0.09375 0  0.5625 0.09375 0  0.59375 0.09375 0  0.625 0.09375 0  0.65625 0.09375 0  0.6875 0.09375 0  0.71875 0.09375 0  0.75 0.09375 0  0.78125 0.09375 0  0.8125 0.09375 0  0.84375 0.09375 0  0.875 0.09375 0  0.90625 0.09375 0  0.9375 0.09375 0  0.96875 0.09375 0  1 0.09375 0  0 0.125 0  0.03125 0.125 0  0.0625 0.125 0  0.09375 0.125 0  0.125 0.125 0  0.15625 0.125 0  0.1875 0.125 0  0.21875 0.125 0  0.25 0.125 0  0.28125 0.125 0  0.3125 0.125 0  0.34375 0.125 0  0.375 0.125 0  0.40625 0.125 0  0.4375 0.125 0  0.46875 0.125 0  0.5 0.125 0  0.53125 0.125 0  0.5625 0.125 0  0.59375 0.125 0  0.625 0.125 0  0.65625 0.125 0  0.6875 0.125 0  0.71875 0.125 0  0.75 0.125 0  0.78125 0.125 0  0.8125 0.125 0  0.84375 0.125 0  0.875 0.125 0  0.90625 0.125 0  0.9375 0.125 0  0.96875 0.125 0  1 0.125 0  0 0.15625 0  0.03125 0.15625 0  0.0625 0.15625 0  0.09375 0.15625 0  0.125 0.15625 0  0.15625 0.15625 0  0.1875 0.15625 0  0.21875 0.15625 0  0.25 0.15625 0  0.28125 0.15625 0  0.3125 0.15625 0  0.34375 0.15625 0  0.375 0.15625 0  0.40625 0.15625 0  0.4375 0.15625 0  0.46875 0.15625 0  0.5 0.15625 0  0.53125 0.15625 0  0.5625 0.15625 0  0.59375 0.15625 0  0.625 0.15625 0  0.65625 0.15625 0  0.6875 0.15625 0  0.71875 0.15625 0  0.75 0.15625 0  0.78125 0.15625 0  0.8125 0.15625 0  0.84375 0.15625 0  0.875 0.15625 0  0.90625 0.15625 0  0.9375 0.15625 0  0.96875 0.15625 0  1 0.15625 0  0 0.1875 0  0.03125 0.1875 0  0.0625 0.1875 0  0.09375 0.1875 0  0.125 0.1875 0  0.15625 0.1875 0  0.1875 0.1875 0  0.21875 0.1875 0  0.25 0.1875 0  0.28125 0.1875 0  0.3125 0.1875 0  0.34375 0.1875 0  0.375 0.1875 0  0.40625 0.1875 0  0.4375 0.1875 0  0.46875 0.1875 0  0.5 0.1875 0  0.53125 0.1875 0  0.5625 0.1875 0  0.59375 0.1875 0  0.625 0.1875 0  0.65625 0.1875 0  0.6875 0.1875 0  0.71875 0.1875 0  0.75 0.1875 0  0.78125 0.1875 0  0.8125 0.1875 0  0.84375 0.1875 0  0.875 0.1875 0  0.90625 0.1875 0  0.9375 0.1875 0  0.96875 0.1875 0  1 0.1875 0  0 0.21875 0  0.03125 0.21875 0  0.0625 0.21875 0  0.09375 0.21875 0  0.125 0.21875 0  0.15625 0.21875 0  0.1875 0.21875 0  0.21875 0.21875 0  0.25 0.21875 0  0.28125 0.21875 0  0.3125 0.21875 0  0.34375 0.21875 0  0.375 0.21875 0  0.40625 0.21875 0  0.4375 0.21875 0  0.46875 0.21875 0  0.5 0.21875 0  0.53125 0.21875 0  0.5625 0.21875 0  0.59375 0.21875 0  0.625 0.21875 0  0.65625 0.21875 0  0.6875 0.21875 0  0.71875 0.21875 0  0.75 0.21875 0  0.78125 0.21875 0  0.8125 0.21875 0  0.84375 0.21875 0  0.875 0.21875 0  0.90625 0.21875 0  0.9375 0.21875 0  0.96875 0.21875 0  1 0.21875 0  0 0.25 0  0.03125 0.25 0  0.0625 0.25 0  0.09375 0.25 0  0.125 0.25 0  0.15625 0.25 0  0.1875 0.25 0  0.21875 0.25 0  0.25 0.25 0  0.28125 0.25 0  0.3125 0.25 0  0.34375 0.25 0  0.375 0.25 0  0.40625 0.25 0  0.4375 0.25 0  0.46875 0.25 0  0.5 0.25 0  0.53125 0.25 0  0.5625 0.25 0  0.59375 0.25 0  0.625 0.25 0  0.65625 0.25 0  0.6875 0.25 0  0.71875 0.25 0  0.75 0.25 0  0.78125 0.25 0  0.8125 0.25 0  0.84375 0.25 0  0.875 0.25 0  0.90625 0.25 0  0.9375 0.25 0  0.96875 0.25 0  1 0.25 0  0 0.28125 0  0.03125 0.28125 0  0.0625 0.28125 0  0.09375 0.28125 0  0.125 0.28125 0  0.15625 0.28125 0  0.1875 0.28125 0  0.21875 0.28125 0  0.25 0.28125 0  0.28125 0.28125 0  0.3125 0.28125 0  0.34375 0.28125 0  0.375 0.28125 0  0.40625 0.28125 0  0.4375 0.28125 0  0.46875 0.28125 0  0.5 0.28125 0  0.53125 0.28125 0  0.5625 0.28125 0  0.59375 0.28125 0  0.625 0.28125 0  0.65625 0.28125 0  0.6875 0.28125 0  0.71875 0.28125 0  0.75 0.28125 0  0.78125 0.28125 0  0.8125 0.28125 0  0.84375 0.28125 0  0.875 0.28125 0  0.90625 0.28125 0  0.9375 0.28125 0  0.96875 0.28125 0  1 0.28125 0  0 0.3125 0  0.03125 0.3125 0  0.0625 0.3125 0  0.09375 0.3125 0  0.125 0.3125 0  0.15625 0.3125 0  0.1875 0.3125 0  0.21875 0.3125 0  0.25 0.3125 0  0.28125 0.3125 0  0.3125 0.3125 0  0.34375 0.3125 0  0.375 0.3125 0  0.40625 0.3125 0  0.4375 0.3125 0  0.46875 0.3125 0  0.5 0.3125 0  0.53125 0.3125 0  0.5625 0.3125 0  0.59375 0.3125 0  0.625 0.3125 0  0.65625 0.3125 0  0.6875 0.3125 0  0.71875 0.3125 0  0.75 0.3125 0  0.78125 0.3125 0  0.8125 0.3125 0  0.84375 0.3125 0  0.875 0.3125 0  0.90625 0.3125 0  0.9375 0.3125 0  0.96875 0.3125 0  1 0.3125 0  0 0.34375 0  0.03125 0.34375 0  0.0625 0.34375 0  0.09375 0.34375 0  0.125 0.34375 0  0.15625 0.34375 0  0.1875 0.34375 0  0.21875 0.34375 0  0.25 0.34375 0  0.28125 0.34375 0  0.3125 0.34375 0  0.34375 0.34375 0  0.375 0.34375 0  0.40625 0.34375 0  0.4375 0.34375 0  0.46875 0.34375 0  0.5 0.34375 0  0.53125 0.34375 0  0.5625 0.34375 0  0.59375 0.34375 0  0.625 0.34375 0  0.65625 0.34375 0  0.6875 0.34375 0  0.71875 0.34375 0  0.75 0.34375 0  0.78125 0.34375 0  0.8125 0.34375 0  0.84375 0.34375 0  0.875 0.34375 0  0.90625 0.34375 0  0.9375 0.34375 0  0.96875 0.34375 0  1 0.34375 0  0 0.375 0  0.03125 0.375 0  0.0625 0.375 0  0.09375 0.375 0  0.125 0.375 0  0.15625 0.375 0  0.1875 0.375 0  0.21875 0.375 0  0.25 0.375 0  0.28125 0.375 0  0.3125 0.375 0  0.34375 0.375 0  0.375 0.375 0  0.40625 0.375 0  0.4375 0.375 0  0.46875 0.375 0  0.5 0.375 0  0.53125 0.375 0  0.5625 0.375 0  0.59375 0.375 0  0.625 0.375 0  0.65625 0.375 0  0.6875 0.375 0  0.71875 0.375 0  0.75 0.375 0  0.78125 0.375 0  0.8125 0.375 0  0.84375 0.375 0  0.875 0.375 0  0.90625 0.375 0  0.9375 0.375 0  0.96875 0.375 0  1 0.375 0  0 0.40625 0  0.03125 0.40625 0  0.0625 0.40625 0  0.09375 0.40625 0  0.125 0.40625 0  0.15625 0.40625 0  0.1875 0.40625 0  0.21875 0.40625 0  0.25 0.40625 0  0.28125 0.40625 0  0.3125 0.40625 0  0.34375 0.40625 0  0.375 0.40625 0  0.40625 0.40625 0  0.4375 0.40625 0  0.46875 0.40625 0  0.5 0.40625 0  0.53125 0.40625 0  0.5625 0.40625 0  0.59375 0.40625 0  0.625 0.40625 0  0.65625 0.40625 0  0.6875 0.40625 0  0.71875 0.40625 0  0.75 0.40625 0  0.78125 0.40625 0  0.8125 0.40625 0  0.84375 0.40625 0  0.875 0.40625 0  0.90625 0.40625 0  0.9375 0.40625 0  0.96875 0.40625 0  1 0.40625 0  0 0.4375 0  0.03125 0.4375 0  0.0625 0.4375 0  0.09375 0.4375 0  0.125 0.4375 0  0.15625 0.4375 0  0.1875 0.4375 0  0.21875 0.4375 0  0.25 0.4375 0  0.28125 0.4375 0  0.3125 0.4375 0  0.34375 0.4375 0  0.375 0.4375 0  0.40625 0.4375 0  0.4375 0.4375 0  0.46875 0.4375 0  0.5 0.4375 0  0.53125 0.4375 0  0.5625 0.4375 0  0.59375 0.4375 0  0.625 0.4375 0  0.65625 0.4375 0  0.6875 0.4375 0  0.71875 0.4375 0  0.75 0.4375 0  0.78125 0.4375 0  0.8125 0.4375 0  0.84375 0.4375 0  0.875 0.4375 0  0.90625 0.4375 0  0.9375 0.4375 0  0.96875 0.4375 0  1 0.4375 0  0 0.46875 0  0.03125 0.46875 0  0.0625 0.46875 0  0.09375 0.46875 0  0.125 0.46875 0  0.15625 0.46875 0  0.1875 0.46875 0  0.21875 0.46875 0  0.25 0.46875 0  0.28125 0.46875 0  0.3125 0.46875 0  0.34375 0.46875 0  0.375 0.46875 0  0.40625 0.46875 0  0.4375 0.46875 0  0.46875 0.46875 0  0.5 0.46875 0  0.53125 0.46875 0  0.5625 0.46875 0  0.59375 0.46875 0  0.625 0.46875 0  0.65625 0.46875 0  0.6875 0.46875 0  0.71875 0.46875 0  0.75 0.46875 0  0.78125 0.46875 0  0.8125 0.46875 0  0.84375 0.46875 0  0.875 0.46875 0  0.90625 0.46875 0  0.9375 0.46875 0  0.96875 0.46875 0  1 0.46875 0  0 0.5 0  0.03125 0.5 0  0.0625 0.5 0  0.09375 0.5 0  0.125 0.5 0  0.15625 0.5 0  0.1875 0.5 0  0.21875 0.5 0  0.25 0.5 0  0.28125 0.5 0  0.3125 0.5 0  0.34375 0.5 0  0.375 0.5 0  0.40625 0.5 0  0.4375 0.5 0  0.46875 0.5 0  0.5 0.5 0  0.53125 0.5 0  0.5625 0.5 0  0.59375 0.5 0  0.625 0.5 0  0.65625 0.5 0  0.6875 0.5 0  0.71875 0.5 0  0.75 0.5 0  0.78125 0.5 0  0.8125 0.5 0  0.84375 0.5 0  0.875 0.5 0  0.90625 0.5 0  0.9375 0.5 0  0.96875 0.5 0  1 0.5 0  0 0.53125 0  0.03125 0.53125 0  0.0625 0.53125 0  0.09375 0.53125 0  0.125 0.53125 0  0.15625 0.53125 0  0.1875 0.53125 0  0.21875 0.53125 0  0.25 0.53125 0  0.28125 0.53125 0  0.3125 0.53125 0  0.34375 0.53125 0  0.375 0.53125 0  0.40625 0.53125 0  0.4375 0.53125 0  0.46875 0.53125 0  0.5 0.53125 0  0.53125 0.53125 0  0.5625 0.53125 0  0.59375 0.53125 0  0.625 0.53125 0  0.65625 0.53125 0  0.6875 0.53125 0  0.71875 0.53125 0  0.75 0.53125 0  0.78125 0.531
[...]
<PointData  Vectors="f_3786"> 
<DataArray  type="Float64"  Name="f_3786"  NumberOfComponents="3" format="ascii">1.4358710352989355e-07 -1.9643681978588594e-07 0.0000000000000000e+00  -3.9524915129511838e-05 -1.5821153989405373e-01 0.0000000000000000e+00  -5.3363490105503345e-05 -3.1037127347458854e-01 0.0000000000000000e+00  -7.5886947245998584e-05 -4.5058104577632446e-01 0.0000000000000000e+00  -9.1469553053359891e-05 -5.7345782731272221e-01 0.0000000000000000e+00  -1.0038117420280459e-04 -6.7429173252385555e-01 0.0000000000000000e+00  -1.0108614590663573e-04 -7.4921614986378704e-01 0.0000000000000000e+00  -9.4399093542371401e-05 -7.9535717693532881e-01 0.0000000000000000e+00  -8.2541084163735519e-05 -8.1094493616495855e-01 0.0000000000000000e+00  -6.8545110514960764e-05 -7.9538155642139230e-01 0.0000000000000000e+00  -5.5627033923479648e-05 -7.4926414769092720e-01 0.0000000000000000e+00  -4.6566205217763634e-05 -6.7436204569588853e-01 0.0000000000000000e+00  -4.3201581100979403e-05 -5.7354928086020807e-01 0.0000000000000000e+00  -4.6119208189045359e-05 -4.5069482947308015e-01 0.0000000000000000e+00  -5.4576537711463409e-05 -3.1051475666939132e-01 0.0000000000000000e+00  -6.6664571575084935e-05 -1.5839179312394247e-01 0.0000000000000000e+00  -7.9664656006054167e-05 -1.6913986020423627e-04 0.0000000000000000e+00  -9.0523926042352840e-05 1.5807368362793764e-01 0.0000000000000000e+00  -9.6358919336843701e-05 3.1025439142979561e-01 0.0000000000000000e+00  -9.4902276843424643e-05 4.5052190626412120e-01 0.0000000000000000e+00  -8.4828615907882402e-05 5.7348171055100083e-01 0.0000000000000000e+00  -6.5924780293097226e-05 6.7440382178554847e-01 0.0000000000000000e+00  -3.9097538607979291e-05 7.4940529407398171e-01 0.0000000000000000e+00  -6.2347197957075433e-06 7.9560013422269893e-01 0.0000000000000000e+00  3.0060112959581254e-05 8.1121078448828887e-01 0.0000000000000000e+00  6.6795984618809147e-05 7.9563685066781031e-01 0.0000000000000000e+00  1.0107654786511134e-04 7.4947827767424247e-01 0.0000000000000000e+00  1.3007839195755476e-04 6.7451250727432421e-01 0.0000000000000000e+00  1.5282153204649115e-04 5.7362443639818672e-01 0.0000000000000000e+00  1.6276808517838058e-04 4.5070060495938796e-01 0.0000000000000000e+00  1.6688235066598069e-04 3.1045952749634792e-01 0.0000000000000000e+00  9.5708777801291106e-05 1.5834847923460044e-01 0.0000000000000000e+00  1.3100398754622506e-04 -2.6530387984402271e-05 0.0000000000000000e+00  1.5821125647734530e-01 -1.6889115655191469e-07 0.0000000000000000e+00  1.5521495411617053e-01 -1.5529445879210094e-01 0.0000000000000000e+00  1.4615674158393252e-01 -3.0450426773920525e-01 0.0000000000000000e+00  1.3151335577621470e-01 -4.4200684985592392e-01 0.0000000000000000e+00  1.1182015454114713e-01 -5.6251092861857077e-01 0.0000000000000000e+00  8.7832663596382893e-02 -6.6139446336057772e-01 0.0000000000000000e+00  6.0473934623222682e-02 -7.3486347375457395e-01 0.0000000000000000e+00  3.0794162881066411e-02 -7.8009871366460537e-01 0.0000000000000000e+00  -6.7934605901571053e-05 -7.9536435172114606e-01 0.0000000000000000e+00  -3.0928742498758745e-02 -7.8007466459997166e-01 0.0000000000000000e+00  -6.0604747370230659e-02 -7.3481653577660622e-01 0.0000000000000000e+00  -8.7957584713692527e-02 -6.6132701593640686e-01 0.0000000000000000e+00  -1.1193743636453148e-01 -5.6242689245696453e-01 0.0000000000000000e+00  -1.3162315801122690e-01 -4.4191279980098080e-01 0.0000000000000000e+00  -1.4625762654528454e-01 -3.0441194230703361e-01 0.0000000000000000e+00  -1.5527695034763342e-01 -1.5520490909026952e-01 0.0000000000000000e+00  -1.5833239200905677e-01 -2.3282693955323691e-05 0.0000000000000000e+00  -1.5530410973016542e-01 1.5517027060905347e-01 0.0000000000000000e+00  -1.4630612633642995e-01 3.0441103315952478e-01 0.0000000000000000e+00  -1.3168227377785879e-01 4.4196160088915587e-01 0.0000000000000000e+00  -1.1199322116988360e-01 5.6253273506832058e-01 0.0000000000000000e+00  -8.7995057071089927e-02 6.6148714877234172e-01 0.0000000000000000e+00  -6.0610241670899685e-02 7.3501831390344308e-01 0.0000000000000000e+00  -3.0892054480501547e-02 7.8029733207221430e-01 0.0000000000000000e+00  1.6079627656747546e-05 7.9558215175992208e-01 0.0000000000000000e+00  3.0924788045190811e-02 7.8028486877729497e-01 0.0000000000000000e+00  6.0644793092843624e-02 7.3499451145649985e-01 0.0000000000000000e+00  8.8032751735539067e-02 6.6145427484193542e-01 0.0000000000000000e+00  1.1203606368685137e-01 5.6249464187488563e-01 0.0000000000000000e+00  1.3172966549665618e-01 4.4192296207205151e-01 0.0000000000000000e+00  1.4636524590897221e-01 3.0438329699639138e-01 0.0000000000000000e+00  1.5531710186951778e-01 1.5517570650184515e-01 0.0000000000000000e+00  1.5849489044868004e-01 -6.0940814783822764e-05 0.0000000000000000e+00  3.1034237234458745e-01 -1.4660423291923684e-07 0.0000000000000000e+00  3.0441634067883611e-01 -1.4621002157469037e-01 0.0000000000000000e+00  2.8668562188224289e-01 -2.8677321723227794e-01 0.0000000000000000e+00  2.5799000577558495e-01 -4.1630457255738079e-01 0.0000000000000000e+00  2.1937980116213310e-01 -5.2982832036301331e-01 0.0000000000000000e+00  1.7234339743380378e-01 -6.2298875815873178e-01 0.0000000000000000e+00  1.1868735713544411e-01 -6.9220992820179861e-01 0.0000000000000000e+00  6.0472391835131110e-02 -7.3483488243682926e-01 0.0000000000000000e+00  -6.5910082484005097e-05 -7.4922743918170831e-01 0.0000000000000000e+00  -6.0603118660771366e-02 -7.3483520435428584e-01 0.0000000000000000e+00  -1.1881483220252299e-01 -6.9221077622745564e-01 0.0000000000000000e+00  -1.7246569265518136e-01 -6.2299056954559806e-01 0.0000000000000000e+00  -2.1949501433834911e-01 -5.2983214892415087e-01 0.0000000000000000e+00  -2.5809580125973541e-01 -4.1631246795925225e-01 0.0000000000000000e+00  -2.8678414101055777e-01 -2.8679087458435937e-01 0.0000000000000000e+00  -3.0445631351461105e-01 -1.4624207122295269e-01 0.0000000000000000e+00  -3.1043140315721951e-01 -6.5366836144773303e-05 0.0000000000000000e+00  -3.0447774057225796e-01 1.4612252109016180e-01 0.0000000000000000e+00  -2.8682210986579665e-01 2.8670320116494413e-01 0.0000000000000000e+00  -2.5814131702714704e-01 4.1627260593013687e-01 0.0000000000000000e+00  -2.1953640015343112e-01 5.2984893553759482e-01 0.0000000000000000e+00  -1.7249044295484117e-01 6.2306451050424760e-01 0.0000000000000000e+00  -1.1881159945874632e-01 6.9233409645591637e-01 0.0000000000000000e+00  -6.0563521943299232e-02 7.3499316175597718e-01 0.0000000000000000e+00  1.4123629854653363e-05 7.4940068859323772e-01 0.0000000000000000e+00  6.0591965856689960e-02 7.3500253522033321e-01 0.0000000000000000e+00  1.1884078110799949e-01 6.9235286842303490e-01 0.0000000000000000e+00  1.7252110734341131e-01 6.2309285691425820e-01 0.0000000000000000e+00  2.1957042522042899e-01 5.2988733094277241e-01 0.0000000000000000e+00  2.5817858942076471e-01 4.1632247078851720e-01 0.0000000000000000e+00  2.8687141524081750e-01 2.8676845392654920e-01 0.0000000000000000e+00  3.0448814484512593e-01 1.4622675803654364e-01 0.0000000000000000e+00  3.1056928563156794e-01 1.4133736205742268e-05 0.0000000000000000e+00  4.5054719699042056e-01 -1.1077263310126516e-07 0.0000000000000000e+00  4.4192065156815269e-01 -1.3157688701004339e-01 0.0000000000000000e+00  4.1621954784402704e-01 -2.5807721996612265e-01 0.0000000000000000e+00  3.7457193517667126e-01 -3.7465447714051586e-01 0.0000000000000000e+00  3.1852516919227475e-01 -4.7682735046475438e-01 0.0000000000000000e+00  2.5024301756993494e-01 -5.6067357822527608e-01 0.0000000000000000e+00  1.7234628576817015e-01 -6.2297465284827336e-01 0.0000000000000000e+00  8.7827893703400009e-02 -6.6133882039158354e-01 0.0000000000000000e+00  -6.5546233149006204e-05 -6.7429313614656028e-01 0.0000000000000000e+00  -8.7957949500964278e-02 -6.6134031595052678e-01 0.0000000000000000e+00  -1.7247321984893862e-01 -6.2297779298995815e-01 0.0000000000000000e+00  -2.5036478649957478e-01 -5.6067864271645707e-01 0.0000000000000000e+00  -3.1864015833808673e-01 -4.7683512202462991e-01 0.0000000000000000e+00  -3.7467579393390299e-01 -3.7466699964907896e-01 0.0000000000000000e+00  -4.1631788175179130e-01 -2.5809816567411181e-01 0.0000000000000000e+00  -4.4196516653563889e-01 -1.3160620562162406e-01 0.0000000000000000e+00  -4.5063062973075640e-01 -5.0658085225143601e-05 0.0000000000000000e+00  -4.4197962956703690e-01 1.3151350019971569e-01 0.0000000000000000e+00  -4.1634300048640543e-01 2.5803001428954891e-01 0.0000000000000000e+00  -3.7470456966906940e-01 3.7463571157862108e-01 0.0000000000000000e+00  -3.1866353433082495e-01 4.7684758517321413e-01 0.0000000000000000e+00  -2.5037311818525121e-01 5.6073537866924994e-01 0.0000000000000000e+00  -1.7245784914802015e-01 6.2307299145795203e-01 0.0000000000000000e+00  -8.7912634770589776e-02 6.6146283003106598e-01 0.0000000000000000e+00  1.2478990400445518e-05 6.7442827193500576e-01 0.0000000000000000e+00  8.7937414019272367e-02 6.6147064316450921e-01 0.0000000000000000e+00  1.7248223845019278e-01 6.2308848666918626e-01 0.0000000000000000e+00  2.5039719832929946e-01 5.6075836443296245e-01 0.0000000000000000e+00  3.1868845805911900e-01 4.7687795090645974e-01 0.0000000000000000e+00  3.7473006935004177e-01 3.7467381588166726e-01 0.0000000000000000e+00  4.1637672154465072e-01 2.5807898754617248e-01 0.0000000000000000e+00  4.4197361306480737e-01 1.3159673324896504e-01 0.0000000000000000e+00  4.5074996739524076e-01 1.7099583834142991e-05 0.0000000000000000e+00  5.7343776925173273e-01 -8.5387992322300054e-08 0.0000000000000000e+00  5.6244232058584454e-01 -1.1188668566845021e-01 0.0000000000000000e+00  5.2976016527102876e-01 -2.1946303655868110e-01 0.0000000000000000e+00  4.7675840560561944e-01 -3.1860610595190608e-01 0.0000000000000000e+00  4.0543011771061749e-01 -4.0550046686910501e-01 0.0000000000000000e+00  3.1852573579640081e-01 -4.7680949588152766e-01 0.0000000000000000e+00  2.1938148189523909e-01 -5.2979573373530264e-01 0.0000000000000000e+00  1.1180742262526787e-01 -5.6242467657618345e-01 0.0000000000000000e+00  -6.3668021564051666e-05 -5.7344348223832597e-01 0.0000000000000000e+00  -1.1193383095278821e-01 -5.6242916478943938e-01 0.0000000000000000e+00  -2.1950512078016779e-01 -5.2980481145442271e-01 0.0000000000000000e+00  -3.1864459264563488e-01 -4.7682334791516834e-01 0.0000000000000000e+00  -4.0554298192913824e-01 -4.0551948374117597e-01 0.0000000000000000e+00  -4.7686100026459344e-01 -3.1863170728162027e-01 0.0000000000000000e+00  -5.2985763008941200e-01 -2.1949729899250306e-01 0.0000000000000000e+00  -5.6249549904505880e-01 -1.1192435666152087e-01 0.0000000000000000e+00  -5.7351927946086434e-01 -4.5704002310964898e-05 0.0000000000000000e+00  -5.6250408458183998e-01 1.1183974624652317e-01 0.0000000000000000e+00  -5.2987197738291103e-01 2.1943211033487442e-01 0.0000000000000000e+00  -4.7687592879769192e-01 3.1859580255170400e-01 0.0000000000000000e+00  -4.0555181371323679e-01 4.0551860022447733e-01 0.0000000000000000e+00  -3.1864026662626882e-01 4.7685836979541479e-01 0.0000000000000000e+00  -2.1948138577868956e-01 5.2987177934847440e-01 0.0000000000000000e+00  -1.1188632779478765e-01 5.6252000776000488e-01 0.0000000000000000e+00  9.2679541452816588e-06 5.7354734397612472e-01 0.0000000000000000e+00  1.1190437669897899e-01 5.6252961814601354e-01 0.0000000000000000e+00  2.1949809739639223e-01 5.2989057296616404e-01 0.0000000000000000e+00  3.1865505919316878e-01 4.7688554388239840e-01 0.0000000000000000e+00  4.0556497188254370e-01 4.0555307203712421e-01 0.0000000000000000e+00  4.7688664591742624e-01 3.1863668767757225e-01 0.0000000000000000e+00  5.2988583781742271e-01 2.1948096789052285e-01 0.0000000000000000e+00  5.6248018167124758e-01 1.1191674456282495e-01 0.0000000000000000e+00  5.7359788082941021e-01 2.2907876648785973e-05 0.0000000000000000e+00  6.7429145876939511e-01 -6.2274836385231439e-08 0.0000000000000000e+00  6.6135010674701067e-01 -8.7901538615238681e-02 0.0000000000000000e+00  6.2294059192643425e-01 -1.7242283803638231e-01 0.0000000000000000e+00  5.6062099591037262e-01 -2.5032014199621150e-01 0.0000000000000000e+00  4.7675240408836300e-01 -3.1859475614973176e-01 0.0000000000000000e+00  3.7456533534711961e-01 -3.7462441958703330e-01 0.0000000000000000e+00  2.5798404822711335e-01 -4.1625778276816849e-01 0.0000000000000000e+00  1.3148883733922498e-01 -4.4189614406902161e-01 0.0000000000000000e+00  -6.0157864343782630e-05 -4.5055508881331507e-01 0.0000000000000000e+00  -1.3160839629797749e-01 -4.4190225933698002e-01 0.0000000000000000e+00  -2.5810138494010743e-01 -4.1627011422280791e-01 0.0000000000000000e+00  -3.7467873439291072e-01 -3.7464314756918099e-01 0.0000000000000000e+00  -4.7686085689267282e-01 -3.1862011657622491e-01 0.0000000000000000e+00  -5.6072104869621930e-01 -2.5035273690804122e-01 0.0000000000000000e+00  -6.2303636741011881e-01 -1.7246317879420181e-01 0.0000000000000000e+00  -6.6141151412236299e-01 -8.7943504626638150e-02 0.0000000000000000e+00  -6.7437095690654514e-01 -4.0877352482398956e-05 0.0000000000000000e+00  -6.6141574576817164e-01 8.7867081650758697e-02 0.0000000000000000e+00  -6.2304281880514401e-01 1.7240202012676342e-01 0.0000000000000000e+00  -5.6072603701812884e-01 2.5031469531525907e-01 0.0000000000000000e+00  -4.7685965571498651e-01 3.1860993592031273e-01 0.0000000000000000e+00  -3.7466638722921508e-01 3.7466190797712473e-01 0.0000000000000000e+00  -2.5807357656197960e-01 4.1631522836892398e-01 0.0000000000000000e+00  -1.3156224392142885e-01 4.4196800700336208e-01 0.0000000000000000e+00  5.2006144137362913e-06 4.5063359160896604e-01 0.0000000000000000e+00  1.3157194096110009e-01 4.4197861177538106e-01 0.0000000000000000e+00  2.5808124129932708e-01 4.1633583607091867e-01 0.0000000000000000e+00  3.7467088294318740e-01 3.7469134990030317e-01 0.0000000000000000e+00  4.7686041130531687e-01 3.1864655907757161e-01 0.0000000000000000e+00  5.6072166498933496e-01 2.5035683717226992e-01 0.0000000000000000e+00  6.2303674871827563e-01 1.7244994699453836e-01 0.0000000000000000e+00  6.6137444599353523e-01 8.7937027268784981e-02 0.0000000000000000e+00  6.7440788043761435e-01 2.6829373981908142e-05 0.0000000000000000e+00  7.4923250594980939e-01 -3.7435439452388440e-08 0.0000000000000000e+00  7.3484218023119441e-01 -6.0541329676894275e-02 0.0000000000000000e+00  6.9218056943808193e-01 -1.1875950428693850e-01 0.0000000000000000e+00  6.2293747982189740e-01 -1.7241701157411068e-01 0.0000000000000000e+00  5.2975113389149697e-01 -2.1944734699738669e-01 0.0000000000000000e+00  4.1620842855628798e-01 -2.5804333461914425e-01 0.0000000000000000e+00  2.8667063148426702e-01 -2.8672285112560486e-01 0.0000000000000000e+00  1.4611592522559699e-01 -3.0438466544515941e-01 0.0000000000000000e+00  -5.4980702261524186e-05 -3.1035072226432275e-01 0.0000000000000000e+00  -1.4622536186846077e-01 -3.0439212925301473e-01 0.0000000000000000e+00  -2.8677853099308137e-01 -2.8673791050178282e-01 0.0000000000000000e+00  -4.1631353433671003e-01 -2.5806618206744347e-01 0.0000000000000000e+00  -5.2985266923890351e-01 -2.1947813415263004e-01 0.0000000000000000e+00  -6.2303272710622715e-01 -1.7245580989526127e-01 0.0000000000000000e+00  -6.9227265370333302e-01 -1.1880528861493604e-01 0.0000000000000000e+00  -7.3491118424952373e-01 -6.0587434059495605e-02 0.0000000000000000e+00  -7.4930916454836327e-01 -3.8842579130373077e-05 0.0000000000000000e+00  -7.3491261998269619e-01 6.0513995331488032e-02 0.0000000000000000e+00  -6.9227413724393938e-01 1.1874404046385166e-01 0.0000000000000000e+00  -6.2303172276208496e-01 1.7241313414612305e-01 0.0000000000000000e+00  -5.2984593549035608e-01 2.1945807441225015e-01 0.0000000000000000e+00  -4.1629769725223637e-01 2.5807002050834371e-01 0.0000000000000000e+00  -2.8675069940061693e-01 2.8676415476613631e-01 0.0000000000000000e+00  -1.4618368969031376e-01 3.0443689967532267e-01 0.0000000000000000e+00  9.1134949479042662e-07 3.1040846432799585e-01 0.0000000000000000e+00  1.4618470756947691e-01 3.0444906114679571e-01 0.0000000000000000e+00  2.8674933261237995e-01 2.8678776612817536e-01 0.0000000000000000e+00  4.1629246081638122e-01 2.5810368844919057e-01 0.0000000000000000e+00  5.2983558596500735e-01 2.1949979713654694e-01 0.0000000000000000e+00  6.2301450624387777e-01 1.7246073075641311e-01 0.0000000000000000e+00  6.9225136934038778e-01 1.1879661620084601e-01 0.0000000000000000e+00  7.3485968720413830e-01 6.0582861379972465e-02 0.0000000000000000e+00  7.4930703209357941e-01 3.5034566166613853e-05 0.0000000000000000e+00  7.9538096764893207e-01 -1.0628264081243798e-08 0.0000000000000000e+00  7.8009465403439027e-01 -3.0856258312329556e-02 0.0000000000000000e+00  7.3481976887381251e-01 -6.0534865562624704e-02 0.0000000000000000e+00  6.6131347416946706e-01 -8.7890585450011119e-02 0.0000000000000000e+00  5.6239012594093285e-01 -1.1186864251936796e-01 0.0000000000000000e+00  4.4185514458753516e-01 -1.3154685587545478e-01 0.0000000000000000e+00  3.0433910206971443e-01 -1.4616956683868207e-01 0.0000000000000000e+00  1.5512674289208309e-01 -1.5517546282894568e-01 0.0000000000000000e+00  -4.8305355418002550e-05 -1.5821903503116161e-01 0.0000000000000000e+00  -1.5522309538200307e-01 -1.5518371038073073e-01 0.0000000000000000e+00  -3.0443468551130476e-01 -1.4618625747330050e-01 0.0000000000000000e+00  -4.4194919816095940e-01 -1.3157227417611278e-01 0.0000000000000000e+00  -5.6248215615404284e-01 -1.1190293561880764e-01 0.0000000000000000e+00  -6.6140153159943149e-01 -8.7933500645105980e-02 0.0000000000000000e+00  -7.3490574328771785e-01 -6.0584391284331830e-02 0.0000000000000000e+00  -7.8016975970180358e-01 -3.0905938656656872e-02 0.0000000000000000e+00  -7.9545369607908289e-01 -3.8131099162649464e-05 0.0000000000000000e+00  -7.8016972840825438e-01 3.0833106741729285e-02 0.0000000000000000e+00  -7.3490474558192287e-01 6.0521438174556956e-02 0.0000000000000000e+00  -6.6139785964370101e-01 8.7885700945053283e-02 0.0000000000000000e+00  -5.6247362843792603e-01 1.1187380473638056e-01 0.0000000000000000e+00  -4.4193354824850128e-01 1.3156324546831646e-01 0.0000000000000000e+00  -3.0440998082660947e-01 1.4619666532436021e-01 0.0000000000000000e+00  -1.5518812550977365e-01 1.5521107313165597e-01 0.0000000000000000e+00  -2.8825849689900615e-06 1.5825958131503012e-01 0.0000000000000000e+00  1.5518158943631649e-01 1.5522480518873047e-01 0.0000000000000000e+00  3.0440111476492676e-01 1.4622339411600038e-01 0.0000000000000000e+00  4.4192080346377738e-01 1.3160152747615164e-01 0.0000000000000000e+00  5.6245540211553124e-01 1.1192154728751808e-01 0.0000000000000000e+00  6.6137240121097751e-01 8.7940501663482024e-02 0.0000000000000000e+00  7.3487162577623655e-01 6.0581425611221318e-02 0.0000000000000000e+00  7.8011445554731407e-01 3.0904215143114803e-02 0.0000000000000000e+00  7.9542209118106977e-01 4.5557073677189029e-05 0.0000000000000000e+00  8.1096338484942243e-01 1.6517604487615145e-08 0.0000000000000000e+00  7.9536851494609007e-01 1.3424310203014565e-05 0.0000000000000000e+00  7.4921979022501495e-01 1.4321162042324966e-05 0.0000000000000000e+00  6.7427463754104133e-01 1.1657914716286873e-05 0.0000000000000000e+00  5.7341557575661839e-01 7.7017856354454912e-06 0.0000000000000000e+00  4.5052030710439334e-01 4.0226311921449374e-06 0.0000000000000000e+00  3.1031078967048970e-01 6.4176299096697593e-07 0.0000000000000000e+00  1.5817519242027350e-01 -2.7763270005699139e-06 0.0000000000000000e+00  -4.0361010003560516e-05 -6.6570668339144843e-06 0.0000000000000000e+00  -1.5825592840624453e-01 -1.1270293994345360e-05 0.0000000000000000e+00  -3.1039154661777174e-01 -1.6635013706188202e-05 0.0000000000000000e+00  -4.5060082996287748e-01 -2.2493644677677960e-05 0.0000000000000000e+00  -5.7349564600403358e-01 -2.8345430360728039e-05 0.0000000000000000e+00  -6.7435316271577606e-01 -3.3523534328472470e-05 0.0000000000000000e+00  -7.4929733968481926e-01 -3.7301039737782320e-05 0.0000000000000000e+00  -7.9544788763738494e-01 -3.9008865329203444e-05 0.0000000000000000e+0