<?xml version="1.0"?>
<VTKFile type="UnstructuredGrid"  version="0.1"  >
<UnstructuredGrid>
<Piece  NumberOfPoints="81" NumberOfCells="128">
<Points>
<DataArray  type="Float64"  NumberOfComponents="3"  format="ascii">0 0 0  0.125 0 0  0.25 0 0  0.375 0 0  0.5 0 0  0.625 0 0  0.75 0 0  0.875 0 0  1 0 0  0 0.125 0  0.125 0.125 0  0.25 0.125 0  0.375 0.125 0  0.5 0.125 0  0.625 0.125 0  0.75 0.125 0  0.875 0.125 0  1 0.125 0  0 0.25 0  0.125 0.25 0  0.25 0.25 0  0.375 0.25 0  0.5 0.25 0  0.625 0.25 0  0.75 0.25 0  0.875 0.25 0  1 0.25 0  0 0.375 0  0.125 0.375 0  0.25 0.375 0  0.375 0.375 0  0.5 0.375 0  0.625 0.375 0  0.75 0.375 0  0.875 0.375 0  1 0.375 0  0 0.5 0  0.125 0.5 0  0.25 0.5 0  0.375 0.5 0  0.5 0.5 0  0.625 0.5 0  0.75 0.5 0  0.875 0.5 0  1 0.5 0  0 0.625 0  0.125 0.625 0  0.25 0.625 0  0.375 0.625 0  0.5 0.625 0  0.625 0.625 0  0.75 0.625 0  0.875 0.625 0  1 0.625 0  0 0.75 0  0.125 0.75 0  0.25 0.75 0  0.375 0.75 0  0.5 0.75 0  0.625 0.75 0  0.75 0.75 0  0.875 0.75 0  1 0.75 0  0 0.875 0  0.125 0.875 0  0.25 0.875 0  0.375 0.875 0  0.5 0.875 0  0.625 0.875 0  0.75 0.875 0  0.875 0.875 0  1 0.875 0  0 1 0  0.125 1 0  0.25 1 0  0.375 1 0  0.5 1 0  0.625 1 0  0.75 1 0  0.875 1 0  1 1 0  </DataArray>
</Points>
<Cells>
<DataArray  type="UInt32"  Name="connectivity"  format="ascii">0 1 10  0 9 10  1 2 11  1 10 11  2 3 12  2 11 12  3 4 13  3 12 13  4 5 14  4 13 14  5 6 15  5 14 15  6 7 16  6 15 16  7 8 17  7 16 17  9 10 19  9 18 19  10 11 20  10 19 20  11 12 21  11 20 21  12 13 22  12 21 22  13 14 23  13 22 23  14 15 24  14 23 24  15 16 25  15 24 25  16 17 26  16 25 26  18 19 28  18 27 28  19 20 29  19 28 29  20 21 30  20 29 30  21 22 31  21 30 31  22 23 32  22 31 32  23 24 33  23 32 33  24 25 34  24 33 34  25 26 35  25 34 35  27 28 37  27 36 37  28 29 38  28 37 38  29 30 39  29 38 39  30 31 40  30 39 40  31 32 41  31 40 41  32 33 42  32 41 42  33 34 43  33 42 43  34 35 44  34 43 44  36 37 46  36 45 46  37 38 47  37 46 47  38 39 48  38 47 48  39 40 49  39 48 49  40 41 50  40 49 50  41 42 51  41 50 51  42 43 52  42 51 52  43 44 53  43 52 53  45 46 55  45 54 55  46 47 56  46 55 56  47 48 57  47 56 57  48 49 58  48 57 58  49 50 59  49 58 59  50 51 60  50 59 60  51 52 61  51 60 61  52 53 62  52 61 62  54 55 64  54 63 64  55 56 65  55 64 65  56 57 66  56 65 66  57 58 67  57 66 67  58 59 68  58 67 68  59 60 69  59 68 69  60 61 70  60 69 70  61 62 71  61 70 71  63 64 73  63 72 73  64 65 74  64 73 74  65 66 75  65 74 75  66 67 76  66 75 76  67 68 77  67 76 77  68 69 78  68 77 78  69 70 79  69 78 79  70 71 80  70 79 80  </DataArray>
<DataArray  type="UInt32"  Name="offsets"  format="ascii">3 6 9 12 15 18 21 24 27 30 33 36 39 42 45 48 51 54 57 60 63 66 69 72 75 78 81 84 87 90 93 96 99 102 105 108 111 114 117 120 123 126 129 132 135 138 141 144 147 150 153 156 159 162 165 168 171 174 177 180 183 186 189 192 195 198 201 204 207 210 213 216 219 222 225 228 231 234 237 240 243 246 249 252 255 258 261 264 267 270 273 276 279 282 285 288 291 294 297 300 303 306 309 312 315 318 321 324 327 330 333 336 339 342 345 348 351 354 357 360 363 366 369 372 375 378 381 384 </DataArray>
<DataArray  type="UInt8"  Name="types"  format="ascii">5 5 5 5 5 5 5 5 5 5 5 5 5 5 5 5 5 5 5 5 5 5 5 5 5 5 5 5 5 5 5 5 5 5 5 5 5 5 5 5 5 5 5 5 5 5 5 5 5 5 5 5 5 5 5 5 5 5 5 5 5 5 5 5 5 5 5 5 5 5 5 5 5 5 5 5 5 5 5 5 5 5 5 5 5 5 5 5 5 5 5 5 5 5 5 5 5 5 5 5 5 5 5 5 5 5 5 5 5 5 5 5 5 5 5 5 5 5 5 5 5 5 5 5 5 5 5 5 </DataArray>
</Cells>
<PointData  Vectors="f_6633"> 
<DataArray  type="Float64"  Name="f_6633"  NumberOfComponents="3" format="ascii">8.8321048886794458e-05 -8.8262828394281858e-05 0.0000000000000000e+00  -4.0187864940122650e-03 -4.5388575528203312e-01 0.0000000000000000e+00  5.4394755121564575e-04 -6.4364398486380592e-01 0.0000000000000000e+00  3.2469948305055112e-03 -4.5671030980291849e-01 0.0000000000000000e+00  3.5566245231642953e-03 -2.4815743622918916e-03 0.0000000000000000e+00  7.3249022331675455e-04 4.5395641953354482e-01 0.0000000000000000e+00  -3.0397828020156826e-03 6.4531797381211675e-01 0.0000000000000000e+00  -4.8761007911776533e-03 4.5853691887146886e-01 0.0000000000000000e+00  -2.1336025774147936e-03 -9.8305176416215389e-04 0.0000000000000000e+00  4.5325027391203099e-01 -5.1542140776160960e-06 0.0000000000000000e+00  3.2269054554174276e-01 -3.2403389604768829e-01 0.0000000000000000e+00  8.2574492469805901e-04 -4.5561646253782306e-01 0.0000000000000000e+00  -3.2213355443187980e-01 -3.2074617459853266e-01 0.0000000000000000e+00  -4.5646103088556456e-01 2.1178867033141389e-03 0.0000000000000000e+00  -3.2382703052934764e-01 3.2439934868241799e-01 0.0000000000000000e+00  -1.9725565768874778e-03 4.5744145447124634e-01 0.0000000000000000e+00  3.2062713137478854e-01 3.2293425385469532e-01 0.0000000000000000e+00  4.5600552237245684e-01 -2.6773616665456729e-03 0.0000000000000000e+00  6.4093627310559376e-01 5.5988866860386891e-05 0.0000000000000000e+00  4.5645138757822151e-01 -1.3039396591688218e-03 0.0000000000000000e+00  -1.4930191473295430e-04 1.6251435282428530e-04 0.0000000000000000e+00  -4.5586370364049700e-01 1.7614260504964533e-03 0.0000000000000000e+00  -6.4432565773828687e-01 2.6397263014067579e-03 0.0000000000000000e+00  -4.5541193314679268e-01 2.4433038220401681e-03 0.0000000000000000e+00  -1.5158262073521519e-05 1.4647486668611445e-03 0.0000000000000000e+00  4.5556396636833740e-01 1.5049286895495347e-04 0.0000000000000000e+00  6.4333368495653998e-01 1.4915585626315147e-04 0.0000000000000000e+00  4.5317131359554008e-01 8.3824932892048823e-05 0.0000000000000000e+00  3.2220027958196784e-01 3.2114150564487354e-01 0.0000000000000000e+00  -1.2275261175926891e-03 4.5565984684020627e-01 0.0000000000000000e+00  -3.2297905770626101e-01 3.2351488211162321e-01 0.0000000000000000e+00  -4.5532279016207777e-01 2.0238488484753958e-03 0.0000000000000000e+00  -3.2081987247460358e-01 -3.2029369817468673e-01 0.0000000000000000e+00  1.7334959249721803e-03 -4.5432775367643469e-01 0.0000000000000000e+00  3.2389791482000491e-01 -3.2188403895667839e-01 0.0000000000000000e+00  4.5413854870199832e-01 3.2449947825723851e-03 0.0000000000000000e+00  -5.5191925116240179e-05 6.2508759880442388e-05 0.0000000000000000e+00  -1.2042397172270063e-03 4.5571668677834426e-01 0.0000000000000000e+00  -2.0103119401661735e-03 6.4461898534113438e-01 0.0000000000000000e+00  -1.4685178479621095e-03 4.5620038099957122e-01 0.0000000000000000e+00  -6.6253461270072191e-05 6.6074873947944725e-04 0.0000000000000000e+00  1.5439123987802228e-03 -4.5485575613589918e-01 0.0000000000000000e+00  2.4879871614953393e-03 -6.4328215138278444e-01 0.0000000000000000e+00  2.2567364227058066e-03 -4.5474592278990400e-01 0.0000000000000000e+00  -1.4733237863119946e-03 4.9818580252395774e-03 0.0000000000000000e+00  -4.5324933071184270e-01 4.6266126182611112e-06 0.0000000000000000e+00  -3.2383535930932128e-01 3.2337095538559518e-01 0.0000000000000000e+00  -1.7644045940044626e-03 4.5603810421095337e-01 0.0000000000000000e+00  3.2062801959559883e-01 3.2182977882920222e-01 0.0000000000000000e+00  4.5519601852277569e-01 -7.9395544164833753e-04 0.0000000000000000e+00  3.2319117987957163e-01 -3.2257565755939110e-01 0.0000000000000000e+00  1.8116542348180207e-03 -4.5492024128415581e-01 0.0000000000000000e+00  -3.2095501265168974e-01 -3.2048375656584421e-01 0.0000000000000000e+00  -4.5698403018228873e-01 5.3270033559125280e-03 0.0000000000000000e+00  -6.4093672951409619e-01 -5.5362748927866483e-05 0.0000000000000000e+00  -4.5644589573438887e-01 1.4185460895295690e-03 0.0000000000000000e+00  -5.0696297752795172e-04 1.8940620815828616e-04 0.0000000000000000e+00  4.5504639738152514e-01 -1.0053538081633310e-03 0.0000000000000000e+00  6.4418681659742105e-01 -1.6106221535932945e-03 0.0000000000000000e+00  4.5590626204220697e-01 -1.1772979827045066e-03 0.0000000000000000e+00  3.8220202886940236e-04 2.2973494052227976e-04 0.0000000000000000e+00  -4.5591749438063195e-01 2.3301756031319687e-03 0.0000000000000000e+00  -6.4440839347556345e-01 3.7288380163385186e-03 0.0000000000000000e+00  -4.5317776205412119e-01 -7.7471364170354290e-05 0.0000000000000000e+00  -3.2212605632552116e-01 -3.2143733656872214e-01 0.0000000000000000e+00  1.3315049425142961e-03 -4.5618504117889236e-01 0.0000000000000000e+00  3.2340757193652808e-01 -3.2322267798876964e-01 0.0000000000000000e+00  4.5625044322007446e-01 -1.2304028888618257e-03 0.0000000000000000e+00  3.2183401080011192e-01 3.2128397434239309e-01 0.0000000000000000e+00  -1.1441379822092783e-03 4.5613491158398184e-01 0.0000000000000000e+00  -3.2359557029296282e-01 3.2472960996568268e-01 0.0000000000000000e+00  -4.5446305607172716e-01 6.5642684587923731e-04 0.0000000000000000e+00  -1.1230282789580113e-05 -1.1044028083290150e-05 0.0000000000000000e+00  5.2830696311656246e-03 -4.5787550692153228e-01 0.0000000000000000e+00  2.2920528379127419e-03 -6.4437145256980177e-01 0.0000000000000000e+00  -1.1456760866451296e-03 -4.5302230382098013e-01 0.0000000000000000e+00  -3.8302544131263113e-03 3.3333323790292100e-03 0.0000000000000000e+00  -3.6877728467326308e-03 4.5749658584034025e-01 0.0000000000000000e+00  -1.2825162344890840e-03 6.4453732461605207e-01 0.0000000000000000e+00  1.2475047781556573e-03 4.5599585020460592e-01 0.0000000000000000e+00  5.9839820028460573e-03 -4.3813448664975913e-03 0.0000000000000000e+00  </DataArray> 
</PointData> 
</Piece>
</UnstructuredGrid>
</VTKFile>