<?xml version="1.0"?>
<VTKFile type="UnstructuredGrid"  version="0.1"  >
<UnstructuredGrid>
<Piece  NumberOfPoints="1089" NumberOfCells="2048">
<Points>
<DataArray  type="Float64"  NumberOfComponents="3"  format="ascii">0 0 0  0.03125 0 0  0.0625 0 0  0.09375 0 0  0.125 0 0  0.15625 0 0  0.1875 0 0  0.21875 0 0  0.25 0 0  0.28125 0 0  0.3125 0 0  0.34375 0 0  0.375 0 0  0.40625 0 0  0.4375 0 0  0.46875 0 0  0.5 0 0  0.53125 0 0  0.5625 0 0  0.59375 0 0  0.625 0 0  0.65625 0 0  0.6875 0 0  0.71875 0 0  0.75 0 0  0.78125 0 0  0.8125 0 0  0.84375 0 0  0.875 0 0  0.90625 0 0  0.9375 0 0  0.96875 0 0  1 0 0  0 0.03125 0  0.03125 0.03125 0  0.0625 0.03125 0  0.09375 0.03125 0  0.125 0.03125 0  0.15625 0.03125 0  0.1875 0.03125 0  0.21875 0.03125 0  0.25 0.03125 0  0.28125 0.03125 0  0.3125 0.03125 0  0.34375 0.03125 0  0.375 0.03125 0  0.40625 0.03125 0  0.4375 0.03125 0  0.46875 0.03125 0  0.5 0.03125 0  0.53125 0.03125 0  0.5625 0.03125 0  0.59375 0.03125 0  0.625 0.03125 0  0.65625 0.03125 0  0.6875 0.03125 0  0.71875 0.03125 0  0.75 0.03125 0  0.78125 0.03125 0  0.8125 0.03125 0  0.84375 0.03125 0  0.875 0.03125 0  0.90625 0.03125 0  0.9375 0.03125 0  0.96875 0.03125 0  1 0.03125 0  0 0.0625 0  0.03125 0.0625 0  0.0625 0.0625 0  0.09375 0.0625 0  0.125 0.0625 0  0.15625 0.0625 0  0.1875 0.0625 0  0.21875 0.0625 0  0.25 0.0625 0  0.28125 0.0625 0  0.3125 0.0625 0  0.34375 0.0625 0  0.375 0.0625 0  0.40625 0.0625 0  0.4375 0.0625 0  0.46875 0.0625 0  0.5 0.0625 0  0.53125 0.0625 0  0.5625 0.0625 0  0.59375 0.0625 0  0.625 0.0625 0  0.65625 0.0625 0  0.6875 0.0625 0  0.71875 0.0625 0  0.75 0.0625 0  0.78125 0.0625 0  0.8125 0.0625 0  0.84375 0.0625 0  0.875 0.0625 0  0.90625 0.0625 0  0.9375 0.0625 0  0.96875 0.0625 0  1 0.0625 0  0 0.09375 0  0.03125 0.09375 0  0.0625 0.09375 0  0.09375 0.09375 0  0.125 0.09375 0  0.15625 0.09375 0  0.1875 0.09375 0  0.21875 0.09375 0  0.25 0.09375 0  0.28125 0.09375 0  0.3125 0.09375 0  0.34375 0.09375 0  0.375 0.09375 0  0.40625 0.09375 0  0.4375 0.09375 0  0.46875 0.09375 0  0.5 0.09375 0  0.53125 0.09375 0  0.5625 0.09375 0  0.59375 0.09375 0  0.625 0.09375 0  0.65625 0.09375 0  0.6875 0.09375 0  0.71875 0.09375 0  0.75 0.09375 0  0.78125 0.09375 0  0.8125 0.09375 0  0.84375 0.09375 0  0.875 0.09375 0  0.90625 0.09375 0  0.9375 0.09375 0  0.96875 0.09375 0  1 0.09375 0  0 0.125 0  0.03125 0.125 0  0.0625 0.125 0  0.09375 0.125 0  0.125 0.125 0  0.15625 0.125 0  0.1875 0.125 0  0.21875 0.125 0  0.25 0.125 0  0.28125 0.125 0  0.3125 0.125 0  0.34375 0.125 0  0.375 0.125 0  0.40625 0.125 0  0.4375 0.125 0  0.46875 0.125 0  0.5 0.125 0  0.53125 0.125 0  0.5625 0.125 0  0.59375 0.125 0  0.625 0.125 0  0.65625 0.125 0  0.6875 0.125 0  0.71875 0.125 0  0.75 0.125 0  0.78125 0.125 0  0.8125 0.125 0  0.84375 0.125 0  0.875 0.125 0  0.90625 0.125 0  0.9375 0.125 0  0.96875 0.125 0  1 0.125 0  0 0.15625 0  0.03125 0.15625 0  0.0625 0.15625 0  0.09375 0.15625 0  0.125 0.15625 0  0.15625 0.15625 0  0.1875 0.15625 0  0.21875 0.15625 0  0.25 0.15625 0  0.28125 0.15625 0  0.3125 0.15625 0  0.34375 0.15625 0  0.375 0.15625 0  0.40625 0.15625 0  0.4375 0.15625 0  0.46875 0.15625 0  0.5 0.15625 0  0.53125 0.15625 0  0.5625 0.15625 0  0.59375 0.15625 0  0.625 0.15625 0  0.65625 0.15625 0  0.6875 0.15625 0  0.71875 0.15625 0  0.75 0.15625 0  0.78125 0.15625 0  0.8125 0.15625 0  0.84375 0.15625 0  0.875 0.15625 0  0.90625 0.15625 0  0.9375 0.15625 0  0.96875 0.15625 0  1 0.15625 0  0 0.1875 0  0.03125 0.1875 0  0.0625 0.1875 0  0.09375 0.1875 0  0.125 0.1875 0  0.15625 0.1875 0  0.1875 0.1875 0  0.21875 0.1875 0  0.25 0.1875 0  0.28125 0.1875 0  0.3125 0.1875 0  0.34375 0.1875 0  0.375 0.1875 0  0.40625 0.1875 0  0.4375 0.1875 0  0.46875 0.1875 0  0.5 0.1875 0  0.53125 0.1875 0  0.5625 0.1875 0  0.59375 0.1875 0  0.625 0.1875 0  0.65625 0.1875 0  0.6875 0.1875 0  0.71875 0.1875 0  0.75 0.1875 0  0.78125 0.1875 0  0.8125 0.1875 0  0.84375 0.1875 0  0.875 0.1875 0  0.90625 0.1875 0  0.9375 0.1875 0  0.96875 0.1875 0  1 0.1875 0  0 0.21875 0  0.03125 0.21875 0  0.0625 0.21875 0  0.09375 0.21875 0  0.125 0.21875 0  0.15625 0.21875 0  0.1875 0.21875 0  0.21875 0.21875 0  0.25 0.21875 0  0.28125 0.21875 0  0.3125 0.21875 0  0.34375 0.21875 0  0.375 0.21875 0  0.40625 0.21875 0  0.4375 0.21875 0  0.46875 0.21875 0  0.5 0.21875 0  0.53125 0.21875 0  0.5625 0.21875 0  0.59375 0.21875 0  0.625 0.21875 0  0.65625 0.21875 0  0.6875 0.21875 0  0.71875 0.21875 0  0.75 0.21875 0  0.78125 0.21875 0  0.8125 0.21875 0  0.84375 0.21875 0  0.875 0.21875 0  0.90625 0.21875 0  0.9375 0.21875 0  0.96875 0.21875 0  1 0.21875 0  0 0.25 0  0.03125 0.25 0  0.0625 0.25 0  0.09375 0.25 0  0.125 0.25 0  0.15625 0.25 0  0.1875 0.25 0  0.21875 0.25 0  0.25 0.25 0  0.28125 0.25 0  0.3125 0.25 0  0.34375 0.25 0  0.375 0.25 0  0.40625 0.25 0  0.4375 0.25 0  0.46875 0.25 0  0.5 0.25 0  0.53125 0.25 0  0.5625 0.25 0  0.59375 0.25 0  0.625 0.25 0  0.65625 0.25 0  0.6875 0.25 0  0.71875 0.25 0  0.75 0.25 0  0.78125 0.25 0  0.8125 0.25 0  0.84375 0.25 0  0.875 0.25 0  0.90625 0.25 0  0.9375 0.25 0  0.96875 0.25 0  1 0.25 0  0 0.28125 0  0.03125 0.28125 0  0.0625 0.28125 0  0.09375 0.28125 0  0.125 0.28125 0  0.15625 0.28125 0  0.1875 0.28125 0  0.21875 0.28125 0  0.25 0.28125 0  0.28125 0.28125 0  0.3125 0.28125 0  0.34375 0.28125 0  0.375 0.28125 0  0.40625 0.28125 0  0.4375 0.28125 0  0.46875 0.28125 0  0.5 0.28125 0  0.53125 0.28125 0  0.5625 0.28125 0  0.59375 0.28125 0  0.625 0.28125 0  0.65625 0.28125 0  0.6875 0.28125 0  0.71875 0.28125 0  0.75 0.28125 0  0.78125 0.28125 0  0.8125 0.28125 0  0.84375 0.28125 0  0.875 0.28125 0  0.90625 0.28125 0  0.9375 0.28125 0  0.96875 0.28125 0  1 0.28125 0  0 0.3125 0  0.03125 0.3125 0  0.0625 0.3125 0  0.09375 0.3125 0  0.125 0.3125 0  0.15625 0.3125 0  0.1875 0.3125 0  0.21875 0.3125 0  0.25 0.3125 0  0.28125 0.3125 0  0.3125 0.3125 0  0.34375 0.3125 0  0.375 0.3125 0  0.40625 0.3125 0  0.4375 0.3125 0  0.46875 0.3125 0  0.5 0.3125 0  0.53125 0.3125 0  0.5625 0.3125 0  0.59375 0.3125 0  0.625 0.3125 0  0.65625 0.3125 0  0.6875 0.3125 0  0.71875 0.3125 0  0.75 0.3125 0  0.78125 0.3125 0  0.8125 0.3125 0  0.84375 0.3125 0  0.875 0.3125 0  0.90625 0.3125 0  0.9375 0.3125 0  0.96875 0.3125 0  1 0.3125 0  0 0.34375 0  0.03125 0.34375 0  0.0625 0.34375 0  0.09375 0.34375 0  0.125 0.34375 0  0.15625 0.34375 0  0.1875 0.34375 0  0.21875 0.34375 0  0.25 0.34375 0  0.28125 0.34375 0  0.3125 0.34375 0  0.34375 0.34375 0  0.375 0.34375 0  0.40625 0.34375 0  0.4375 0.34375 0  0.46875 0.34375 0  0.5 0.34375 0  0.53125 0.34375 0  0.5625 0.34375 0  0.59375 0.34375 0  0.625 0.34375 0  0.65625 0.34375 0  0.6875 0.34375 0  0.71875 0.34375 0  0.75 0.34375 0  0.78125 0.34375 0  0.8125 0.34375 0  0.84375 0.34375 0  0.875 0.34375 0  0.90625 0.34375 0  0.9375 0.34375 0  0.96875 0.34375 0  1 0.34375 0  0 0.375 0  0.03125 0.375 0  0.0625 0.375 0  0.09375 0.375 0  0.125 0.375 0  0.15625 0.375 0  0.1875 0.375 0  0.21875 0.375 0  0.25 0.375 0  0.28125 0.375 0  0.3125 0.375 0  0.34375 0.375 0  0.375 0.375 0  0.40625 0.375 0  0.4375 0.375 0  0.46875 0.375 0  0.5 0.375 0  0.53125 0.375 0  0.5625 0.375 0  0.59375 0.375 0  0.625 0.375 0  0.65625 0.375 0  0.6875 0.375 0  0.71875 0.375 0  0.75 0.375 0  0.78125 0.375 0  0.8125 0.375 0  0.84375 0.375 0  0.875 0.375 0  0.90625 0.375 0  0.9375 0.375 0  0.96875 0.375 0  1 0.375 0  0 0.40625 0  0.03125 0.40625 0  0.0625 0.40625 0  0.09375 0.40625 0  0.125 0.40625 0  0.15625 0.40625 0  0.1875 0.40625 0  0.21875 0.40625 0  0.25 0.40625 0  0.28125 0.40625 0  0.3125 0.40625 0  0.34375 0.40625 0  0.375 0.40625 0  0.40625 0.40625 0  0.4375 0.40625 0  0.46875 0.40625 0  0.5 0.40625 0  0.53125 0.40625 0  0.5625 0.40625 0  0.59375 0.40625 0  0.625 0.40625 0  0.65625 0.40625 0  0.6875 0.40625 0  0.71875 0.40625 0  0.75 0.40625 0  0.78125 0.40625 0  0.8125 0.40625 0  0.84375 0.40625 0  0.875 0.40625 0  0.90625 0.40625 0  0.9375 0.40625 0  0.96875 0.40625 0  1 0.40625 0  0 0.4375 0  0.03125 0.4375 0  0.0625 0.4375 0  0.09375 0.4375 0  0.125 0.4375 0  0.15625 0.4375 0  0.1875 0.4375 0  0.21875 0.4375 0  0.25 0.4375 0  0.28125 0.4375 0  0.3125 0.4375 0  0.34375 0.4375 0  0.375 0.4375 0  0.40625 0.4375 0  0.4375 0.4375 0  0.46875 0.4375 0  0.5 0.4375 0  0.53125 0.4375 0  0.5625 0.4375 0  0.59375 0.4375 0  0.625 0.4375 0  0.65625 0.4375 0  0.6875 0.4375 0  0.71875 0.4375 0  0.75 0.4375 0  0.78125 0.4375 0  0.8125 0.4375 0  0.84375 0.4375 0  0.875 0.4375 0  0.90625 0.4375 0  0.9375 0.4375 0  0.96875 0.4375 0  1 0.4375 0  0 0.46875 0  0.03125 0.46875 0  0.0625 0.46875 0  0.09375 0.46875 0  0.125 0.46875 0  0.15625 0.46875 0  0.1875 0.46875 0  0.21875 0.46875 0  0.25 0.46875 0  0.28125 0.46875 0  0.3125 0.46875 0  0.34375 0.46875 0  0.375 0.46875 0  0.40625 0.46875 0  0.4375 0.46875 0  0.46875 0.46875 0  0.5 0.46875 0  0.53125 0.46875 0  0.5625 0.46875 0  0.59375 0.46875 0  0.625 0.46875 0  0.65625 0.46875 0  0.6875 0.46875 0  0.71875 0.46875 0  0.75 0.46875 0  0.78125 0.46875 0  0.8125 0.46875 0  0.84375 0.46875 0  0.875 0.46875 0  0.90625 0.46875 0  0.9375 0.46875 0  0.96875 0.46875 0  1 0.46875 0  0 0.5 0  0.03125 0.5 0  0.0625 0.5 0  0.09375 0.5 0  0.125 0.5 0  0.15625 0.5 0  0.1875 0.5 0  0.21875 0.5 0  0.25 0.5 0  0.28125 0.5 0  0.3125 0.5 0  0.34375 0.5 0  0.375 0.5 0  0.40625 0.5 0  0.4375 0.5 0  0.46875 0.5 0  0.5 0.5 0  0.53125 0.5 0  0.5625 0.5 0  0.59375 0.5 0  0.625 0.5 0  0.65625 0.5 0  0.6875 0.5 0  0.71875 0.5 0  0.75 0.5 0  0.78125 0.5 0  0.8125 0.5 0  0.84375 0.5 0  0.875 0.5 0  0.90625 0.5 0  0.9375 0.5 0  0.96875 0.5 0  1 0.5 0  0 0.53125 0  0.03125 0.53125 0  0.0625 0.53125 0  0.09375 0.53125 0  0.125 0.53125 0  0.15625 0.53125 0  0.1875 0.53125 0  0.21875 0.53125 0  0.25 0.53125 0  0.28125 0.53125 0  0.3125 0.53125 0  0.34375 0.53125 0  0.375 0.53125 0  0.40625 0.53125 0  0.4375 0.53125 0  0.46875 0.53125 0  0.5 0.53125 0  0.53125 0.53125 0  0.5625 0.53125 0  0.59375 0.53125 0  0.625 0.53125 0  0.65625 0.53125 0  0.6875 0.53125 0  0.71875 0.53125 0  0.75 0.53125 0  0.78125 0.531
[...]
<PointData  Vectors="f_3166"> 
<DataArray  type="Float64"  Name="f_3166"  NumberOfComponents="3" format="ascii">1.7566628123422604e-07 -2.4037568775244865e-07 0.0000000000000000e+00  -5.6539862800321892e-05 -1.9345939984700788e-01 0.0000000000000000e+00  -4.5540065258143576e-05 -3.7960467578677365e-01 0.0000000000000000e+00  -5.2632168889992127e-05 -5.5116897308936652e-01 0.0000000000000000e+00  -5.8352356278947818e-05 -7.0154345916291005e-01 0.0000000000000000e+00  -6.5029324925141037e-05 -8.2495088072182488e-01 0.0000000000000000e+00  -7.0276217776634158e-05 -9.1665127468313357e-01 0.0000000000000000e+00  -7.2742135979515343e-05 -9.7312253873958932e-01 0.0000000000000000e+00  -7.1580215359717868e-05 -9.9219618550390587e-01 0.0000000000000000e+00  -6.6437185399267852e-05 -9.7314058251498992e-01 0.0000000000000000e+00  -5.7436358537429852e-05 -9.1668904629447789e-01 0.0000000000000000e+00  -4.5108006967426184e-05 -8.2501162820565621e-01 0.0000000000000000e+00  -3.0291596591931908e-05 -7.0163170471171010e-01 0.0000000000000000e+00  -1.4018776335986013e-05 -5.5129059245054990e-01 0.0000000000000000e+00  2.6081674263285701e-06 -3.7976539623108302e-01 0.0000000000000000e+00  1.8529065070827587e-05 -1.9364708701943145e-01 0.0000000000000000e+00  3.2820326241027507e-05 -8.7327520602294617e-05 0.0000000000000000e+00  4.4765851888457999e-05 1.9347624092889190e-01 0.0000000000000000e+00  5.3902294088914028e-05 3.7960570962933438e-01 0.0000000000000000e+00  6.0037709811986404e-05 5.5114864587709655e-01 0.0000000000000000e+00  6.3242184590899534e-05 7.0151289593917410e-01 0.0000000000000000e+00  6.3808084321750099e-05 8.2491989056348147e-01 0.0000000000000000e+00  6.2179433827079067e-05 9.1662671769439974e-01 0.0000000000000000e+00  5.8849816410367497e-05 9.7310842815252341e-01 0.0000000000000000e+00  5.4249880200133044e-05 9.9219355327899550e-01 0.0000000000000000e+00  4.8584250495366299e-05 9.7314765906564560e-01 0.0000000000000000e+00  4.1844337132771740e-05 9.1670153711942237e-01 0.0000000000000000e+00  3.3110296706074145e-05 8.2502361635031252e-01 0.0000000000000000e+00  2.2486102039827425e-05 7.0163491297645297e-01 0.0000000000000000e+00  1.7248612260221918e-06 5.5128091783724120e-01 0.0000000000000000e+00  -2.1447499942104367e-05 3.7972720833607221e-01 0.0000000000000000e+00  -1.2434425599537995e-04 1.9362786065152046e-01 0.0000000000000000e+00  -9.3186498476314762e-05 -1.2573271215346530e-04 0.0000000000000000e+00  1.9356840752830437e-01 -2.0662681274664294e-07 0.0000000000000000e+00  1.8990147421320111e-01 -1.8989999259606055e-01 0.0000000000000000e+00  1.7884804757065056e-01 -3.7243974493428883e-01 0.0000000000000000e+00  1.6095120402527704e-01 -5.4068787517570427e-01 0.0000000000000000e+00  1.3686914856234886e-01 -6.8815197890348190e-01 0.0000000000000000e+00  1.0752428405254509e-01 -8.0916539713612767e-01 0.0000000000000000e+00  7.4046564452028396e-02 -8.9907908052240493e-01 0.0000000000000000e+00  3.7723124955933433e-02 -9.5443925313631361e-01 0.0000000000000000e+00  -4.9486204443001936e-05 -9.7311986404649220e-01 0.0000000000000000e+00  -3.7819335841839843e-02 -9.5440419735932314e-01 0.0000000000000000e+00  -7.4134848444790430e-02 -8.9901239529815802e-01 0.0000000000000000e+00  -1.0760054941691020e-01 -8.0907374439680180e-01 0.0000000000000000e+00  -1.3693063805201311e-01 -6.8804482190419325e-01 0.0000000000000000e+00  -1.6099833379313330e-01 -5.4057665936193044e-01 0.0000000000000000e+00  -1.7887910890800759e-01 -3.7233603713848762e-01 0.0000000000000000e+00  -1.8988615423355545e-01 -1.8978777920276735e-01 0.0000000000000000e+00  -1.9359672211795945e-01 5.3591422914647166e-05 0.0000000000000000e+00  -1.8986833892960614e-01 1.8989330490349920e-01 0.0000000000000000e+00  -1.7884426619473154e-01 3.7243656535660696e-01 0.0000000000000000e+00  -1.6094800054378908e-01 5.4066878739195567e-01 0.0000000000000000e+00  -1.3686702276356216e-01 6.8812509227011898e-01 0.0000000000000000e+00  -1.0752641904609310e-01 8.0913871549637106e-01 0.0000000000000000e+00  -7.4053385998157056e-02 8.9905878296580077e-01 0.0000000000000000e+00  -3.7733981485222307e-02 9.5442908401091220e-01 0.0000000000000000e+00  3.6226408640277325e-05 9.7312096747529819e-01 0.0000000000000000e+00  3.7805700524831488e-02 9.5441523024633790e-01 0.0000000000000000e+00  7.4122702486917047e-02 8.9902988507627790e-01 0.0000000000000000e+00  1.0759075596378889e-01 8.0909252769676010e-01 0.0000000000000000e+00  1.3692319813757767e-01 6.8805916431710723e-01 0.0000000000000000e+00  1.6098768364360524e-01 5.4057999763009312e-01 0.0000000000000000e+00  1.7886713318343089e-01 3.7232907467377713e-01 0.0000000000000000e+00  1.8980235289961800e-01 1.8978414684863126e-01 0.0000000000000000e+00  1.9364945097617794e-01 -1.5322896977128028e-04 0.0000000000000000e+00  3.7969788080140943e-01 -1.7935912988368380e-07 0.0000000000000000e+00  3.7244958602927758e-01 -1.7881218777428567e-01 0.0000000000000000e+00  3.5078414846765726e-01 -3.5077483920232227e-01 0.0000000000000000e+00  3.1569391461880764e-01 -5.0926492747840468e-01 0.0000000000000000e+00  2.6846744251237947e-01 -6.4817970237716649e-01 0.0000000000000000e+00  2.1092409151382882e-01 -7.6218121860240484e-01 0.0000000000000000e+00  1.4527465786451185e-01 -8.4688913662939991e-01 0.0000000000000000e+00  7.4042276593181036e-02 -8.9904962994983029e-01 0.0000000000000000e+00  -3.5087074829244395e-05 -9.1665935366091067e-01 0.0000000000000000e+00  -7.4110402317093343e-02 -8.9904253040956494e-01 0.0000000000000000e+00  -1.4533686924973227e-01 -8.4687690197335996e-01 0.0000000000000000e+00  -2.1097733508626587e-01 -7.6216765730139036e-01 0.0000000000000000e+00  -2.6850944825235101e-01 -6.4817035521852240e-01 0.0000000000000000e+00  -3.1572254657532767e-01 -5.0926581155203166e-01 0.0000000000000000e+00  -3.5080256021310846e-01 -3.5079176968230597e-01 0.0000000000000000e+00  -3.7240167326758816e-01 -1.7883782605710019e-01 0.0000000000000000e+00  -3.7969007397329257e-01 -1.1487765650467301e-05 0.0000000000000000e+00  -3.7238781040232455e-01 1.7881565724962847e-01 0.0000000000000000e+00  -3.5077553129146555e-01 3.5077191627017601e-01 0.0000000000000000e+00  -3.1568370085953817e-01 5.0924948403465531e-01 0.0000000000000000e+00  -2.6846070172871539e-01 6.4815831831775383e-01 0.0000000000000000e+00  -2.1092104986587437e-01 7.6216015061132736e-01 0.0000000000000000e+00  -1.4527570821621935e-01 8.4687364173852298e-01 0.0000000000000000e+00  -7.4047173952893883e-02 8.9904279615682614e-01 0.0000000000000000e+00  2.7408448512348222e-05 9.1666215493818803e-01 0.0000000000000000e+00  7.4101366233957772e-02 8.9905394888048029e-01 0.0000000000000000e+00  1.4532792297078451e-01 8.4689421987497249e-01 0.0000000000000000e+00  2.1096926415933484e-01 7.6218694434102785e-01 0.0000000000000000e+00  2.6850291742539634e-01 6.4818699874095742e-01 0.0000000000000000e+00  3.1571346382912063e-01 5.0927571879877820e-01 0.0000000000000000e+00  3.5079511994508050e-01 3.5079378494943481e-01 0.0000000000000000e+00  3.7233191965637408e-01 1.7885361155444343e-01 0.0000000000000000e+00  3.7973313337889703e-01 -4.1401569911858448e-05 0.0000000000000000e+00  5.5123576779152650e-01 -1.3552155049403911e-07 0.0000000000000000e+00  5.4068500781075712e-01 -1.6092499039184477e-01 0.0000000000000000e+00  5.0926546996191535e-01 -3.1568506820493236e-01 0.0000000000000000e+00  4.5832755288825716e-01 -4.5832258290510780e-01 0.0000000000000000e+00  3.8976785455821805e-01 -5.8334347434862710e-01 0.0000000000000000e+00  3.0623234763969120e-01 -6.8594238009338904e-01 0.0000000000000000e+00  2.1092785556855112e-01 -7.6217789882759013e-01 0.0000000000000000e+00  1.0751770201993191e-01 -8.0912172063322285e-01 0.0000000000000000e+00  -2.3822720073338846e-05 -8.2497078634259402e-01 0.0000000000000000e+00  -1.0756373379535669e-01 -8.0911681409360536e-01 0.0000000000000000e+00  -2.1096920759840251e-01 -7.6216964407725463e-01 0.0000000000000000e+00  -3.0626644203477760e-01 -6.8593381125446673e-01 0.0000000000000000e+00  -3.8979334325908316e-01 -5.8333919073772200e-01 0.0000000000000000e+00  -4.5834023093968884e-01 -4.5832840459295998e-01 0.0000000000000000e+00  -5.0927314580188021e-01 -3.1570532686793135e-01 0.0000000000000000e+00  -5.4063502868324653e-01 -1.6095051227727114e-01 0.0000000000000000e+00  -5.5122088871338393e-01 -1.0639951193300675e-05 0.0000000000000000e+00  -5.4062407761676146e-01 1.6092994285297690e-01 0.0000000000000000e+00  -5.0925189633376755e-01 3.1568680764471246e-01 0.0000000000000000e+00  -4.5830993685524751e-01 4.5831304307199711e-01 0.0000000000000000e+00  -3.8975576160647563e-01 5.8332774408395360e-01 0.0000000000000000e+00  -3.0622369908946229e-01 6.8592661824440171e-01 0.0000000000000000e+00  -2.1092364281966808e-01 7.6216661862138069e-01 0.0000000000000000e+00  -1.0751773881931492e-01 8.0911750635828250e-01 0.0000000000000000e+00  2.0307071502624619e-05 8.2497451271176825e-01 0.0000000000000000e+00  1.0755788731009704e-01 8.0912776189301405e-01 0.0000000000000000e+00  2.1096231644295158e-01 7.6218577573364021e-01 0.0000000000000000e+00  3.0625941572701137e-01 6.8595214908219160e-01 0.0000000000000000e+00  3.8978704978667772e-01 5.8335632218463396e-01 0.0000000000000000e+00  4.5833156295031457e-01 4.5834137196409969e-01 0.0000000000000000e+00  5.0926594868102226e-01 3.1571484256128884e-01 0.0000000000000000e+00  5.4056959683022920e-01 1.6098034861496427e-01 0.0000000000000000e+00  5.5127256574011207e-01 -8.3479879970594803e-06 0.0000000000000000e+00  7.0159000239073532e-01 -1.0446782798979535e-07 0.0000000000000000e+00  6.8814255824232107e-01 -1.3684924440219531e-01 0.0000000000000000e+00  6.4817919212380959e-01 -2.6845878575605314e-01 0.0000000000000000e+00  5.8334849506309128e-01 -3.8976318005315774e-01 0.0000000000000000e+00  4.9609185428712449e-01 -4.9608610127776942e-01 0.0000000000000000e+00  3.8977339818266926e-01 -5.8334061584757468e-01 0.0000000000000000e+00  2.6847524101792508e-01 -6.4817510769931441e-01 0.0000000000000000e+00  1.3686018159340932e-01 -6.8809912768989645e-01 0.0000000000000000e+00  -1.3837006895526979e-05 -7.0157929895745197e-01 0.0000000000000000e+00  -1.3688657363485981e-01 -6.8809826053503731e-01 0.0000000000000000e+00  -2.6849797626959765e-01 -6.4817456181821631e-01 0.0000000000000000e+00  -3.8979028872530880e-01 -5.8334276232893811e-01 0.0000000000000000e+00  -4.9610240892925023e-01 -4.9609445610693897e-01 0.0000000000000000e+00  -5.8334899629008019e-01 -3.8978252389534207e-01 0.0000000000000000e+00  -6.4817744025566415e-01 -2.6849229739734715e-01 0.0000000000000000e+00  -6.8809666548126569e-01 -1.3688459200339032e-01 0.0000000000000000e+00  -7.0157282744798000e-01 -1.6639861888982216e-05 0.0000000000000000e+00  -6.8808822619930177e-01 1.3685219996245593e-01 0.0000000000000000e+00  -6.4816117863891543e-01 2.6846249553602181e-01 0.0000000000000000e+00  -5.8332608889115478e-01 3.8975680457854966e-01 0.0000000000000000e+00  -4.9607448410266625e-01 4.9607398885471587e-01 0.0000000000000000e+00  -3.8975928125706460e-01 5.8332831939541407e-01 0.0000000000000000e+00  -2.6846596210439738e-01 6.4816649264697390e-01 0.0000000000000000e+00  -1.3685560361595150e-01 6.8809652284170930e-01 0.0000000000000000e+00  1.4208306464042140e-05 7.0158355276078888e-01 0.0000000000000000e+00  1.3688369627056526e-01 6.8810889515461504e-01 0.0000000000000000e+00  2.6849301178457496e-01 6.4819002502563228e-01 0.0000000000000000e+00  3.8978417973790336e-01 5.8336077028623667e-01 0.0000000000000000e+00  4.9609602834059918e-01 4.9611245759403660e-01 0.0000000000000000e+00  5.8333995538746841e-01 3.8979871421823037e-01 0.0000000000000000e+00  6.4816887955405611e-01 2.6850854922739964e-01 0.0000000000000000e+00  6.8803893584623343e-01 1.3692325518562545e-01 0.0000000000000000e+00  7.0161576148845117e-01 2.2803018371324537e-05 0.0000000000000000e+00  8.2498253783891784e-01 -7.6189995054433822e-08 0.0000000000000000e+00  8.0915612123290903e-01 -1.0751770035659475e-01 0.0000000000000000e+00  7.6218271235262625e-01 -2.1092203923899633e-01 0.0000000000000000e+00  6.8595065707462077e-01 -3.0623039106225514e-01 0.0000000000000000e+00  5.8335066551352310e-01 -3.8976838881974235e-01 0.0000000000000000e+00  4.5833457532083899e-01 -4.5832473411695263e-01 0.0000000000000000e+00  3.1570405422632325e-01 -5.0926580708912550e-01 0.0000000000000000e+00  1.6094170443064559e-01 -5.4063485357102570e-01 0.0000000000000000e+00  -5.0237312245084142e-06 -5.5122713002752011e-01 0.0000000000000000e+00  -1.6095074453119332e-01 -5.4063612366498082e-01 0.0000000000000000e+00  -3.1571030799230848e-01 -5.0926923252911394e-01 0.0000000000000000e+00  -4.5833636950317996e-01 -4.5833212277461544e-01 0.0000000000000000e+00  -5.8334795981459453e-01 -3.8978239621791438e-01 0.0000000000000000e+00  -6.8594110022978183e-01 -3.0625436419778829e-01 0.0000000000000000e+00  -7.6217339610929913e-01 -2.1095782242784700e-01 0.0000000000000000e+00  -8.0911551414856508e-01 -1.0755472296219833e-01 0.0000000000000000e+00  -8.2496372489229075e-01 -1.8482730610210298e-05 0.0000000000000000e+00  -8.0910918992737668e-01 1.0751866790300556e-01 0.0000000000000000e+00  -7.6216133518516727e-01 2.1092443619891788e-01 0.0000000000000000e+00  -6.8592441560549910e-01 3.0622522425900034e-01 0.0000000000000000e+00  -5.8332817405628878e-01 3.8975879851531192e-01 0.0000000000000000e+00  -4.5831525994011640e-01 4.5831501002070246e-01 0.0000000000000000e+00  -3.1568973351292001e-01 5.0925916075617794e-01 0.0000000000000000e+00  -1.6093247532702581e-01 5.4063327522573745e-01 0.0000000000000000e+00  9.4065068959820413e-06 5.5123138280132200e-01 0.0000000000000000e+00  1.6095108153340984e-01 5.4064591461195111e-01 0.0000000000000000e+00  3.1570764220750119e-01 5.0928342694836581e-01 0.0000000000000000e+00  4.5833165998960074e-01 4.5834906612145171e-01 0.0000000000000000e+00  5.8334205233219705e-01 3.8980037594992545e-01 0.0000000000000000e+00  6.8593242911343233e-01 3.0627258561679443e-01 0.0000000000000000e+00  7.6216464812000884e-01 2.1097871754124681e-01 0.0000000000000000e+00  8.0906764469958070e-01 1.0759764625513819e-01 0.0000000000000000e+00  8.2499902375590928e-01 4.3028603317212732e-05 0.0000000000000000e+00  9.1667145735151645e-01 -4.5799830529316082e-08 0.0000000000000000e+00  8.9907414333569324e-01 -7.4056007691824299e-02 0.0000000000000000e+00  8.4689552079805741e-01 -1.4528083019008983e-01 0.0000000000000000e+00  7.6219157163793871e-01 -2.1093018862278132e-01 0.0000000000000000e+00  6.4819077282841142e-01 -2.6847288454060603e-01 0.0000000000000000e+00  5.0928129016301915e-01 -3.1569624982457745e-01 0.0000000000000000e+00  3.5079958835316999e-01 -3.5078606802514228e-01 0.0000000000000000e+00  1.7883728818592701e-01 -3.7239448867821229e-01 0.0000000000000000e+00  2.9266686396037889e-06 -3.7969165462602761e-01 0.0000000000000000e+00  -1.7883068847256203e-01 -3.7239755263865054e-01 0.0000000000000000e+00  -3.5079097917323149e-01 -3.5079280172109112e-01 0.0000000000000000e+00  -5.0926956787238198e-01 -3.1570786555605856e-01 0.0000000000000000e+00  -6.4817626214474466e-01 -2.6849113830760069e-01 0.0000000000000000e+00  -7.6217307919802479e-01 -2.1095712540951839e-01 0.0000000000000000e+00  -8.4687936779687500e-01 -1.4531671862348866e-01 0.0000000000000000e+00  -8.9904013244055869e-01 -7.4092248971299665e-02 0.0000000000000000e+00  -9.1665109481737139e-01 -2.0582194922150842e-05 0.0000000000000000e+00  -8.9903568953743940e-01 7.4052021617611027e-02 0.0000000000000000e+00  -8.4687103898905380e-01 1.4527924853258994e-01 0.0000000000000000e+00  -7.6216191277762035e-01 2.1092407551726275e-01 0.0000000000000000e+00  -6.4816367543176268e-01 2.6846392347696596e-01 0.0000000000000000e+00  -5.0925718512232820e-01 3.1568758269800429e-01 0.0000000000000000e+00  -3.5078045187460205e-01 3.5078018911937414e-01 0.0000000000000000e+00  -1.7882352267320023e-01 3.7239298690218559e-01 0.0000000000000000e+00  5.5222692227737426e-06 3.7969519521171324e-01 0.0000000000000000e+00  1.7883447998596147e-01 3.7240598526187424e-01 0.0000000000000000e+00  3.5079106662154702e-01 3.5080533627723814e-01 0.0000000000000000e+00  5.0926696197669319e-01 3.1572337395448558e-01 0.0000000000000000e+00  6.4817184321568699e-01 2.6850858731342703e-01 0.0000000000000000e+00  7.6216626774756491e-01 2.1097643520385900e-01 0.0000000000000000e+00  8.4687232513702315e-01 1.4534034211723804e-01 0.0000000000000000e+00  8.9900588708930596e-01 7.4135135120594886e-02 0.0000000000000000e+00  9.1667748604080024e-01 5.9259590799859301e-05 0.0000000000000000e+00  9.7313320628028566e-01 -1.3002322414159039e-08 0.0000000000000000e+00  9.5444151466826588e-01 -3.7749108927606384e-02 0.0000000000000000e+00  8.9906259324702986e-01 -7.4057846375914269e-02 0.0000000000000000e+00  8.0914151299039316e-01 -1.0752553770181582e-01 0.0000000000000000e+00  6.8812071457316248e-01 -1.3686137667790937e-01 0.0000000000000000e+00  5.4065598781416147e-01 -1.6093670410529104e-01 0.0000000000000000e+00  3.7241338971905763e-01 -1.7882653590744990e-01 0.0000000000000000e+00  1.8985952285526667e-01 -1.8984366964251648e-01 0.0000000000000000e+00  1.0039773181734921e-05 -1.9356504470677047e-01 0.0000000000000000e+00  -1.8983894845826585e-01 -1.8984793028269920e-01 0.0000000000000000e+00  -3.7239152907705536e-01 -1.7883539988169833e-01 0.0000000000000000e+00  -5.4063225229784051e-01 -1.6095081985964296e-01 0.0000000000000000e+00  -6.8809575330049699e-01 -1.3688156999977466e-01 0.0000000000000000e+00  -8.0911519582620384e-01 -1.0755261969634509e-01 0.0000000000000000e+00  -8.9904003647030539e-01 -7.4090982191627963e-02 0.0000000000000000e+00  -9.5441472406134709e-01 -3.7782414527960197e-02 0.0000000000000000e+00  -9.7311147125081776e-01 -2.2027533326206604e-05 0.0000000000000000e+00  -9.5441199757965889e-01 3.7739298241676100e-02 0.0000000000000000e+00  -8.9903510629162597e-01 7.4050635542802237e-02 0.0000000000000000e+00  -8.0910903891687069e-01 1.0751673624495198e-01 0.0000000000000000e+00  -6.8808967354207817e-01 1.3685162400204665e-01 0.0000000000000000e+00  -5.4062771279515176e-01 1.6092799901548541e-01 0.0000000000000000e+00  -3.7238996735186053e-01 1.7882055972446087e-01 0.0000000000000000e+00  -1.8984160124257782e-01 1.8984157829737300e-01 0.0000000000000000e+00  2.2888052967357783e-06 1.9356736271204594e-01 0.0000000000000000e+00  1.8984623177938437e-01 1.8985458901644295e-01 0.0000000000000000e+00  3.7239467617278321e-01 1.7884587444602415e-01 0.0000000000000000e+00  5.4063237826072796e-01 1.6096439478929192e-01 0.0000000000000000e+00  6.8809384391028772e-01 1.3689772126141012e-01 0.0000000000000000e+00  8.0911174344610948e-01 1.0757171574793996e-01 0.0000000000000000e+00  8.9903663963739977e-01 7.4115090573004333e-02 0.0000000000000000e+00  9.5439720482054957e-01 3.7821377663638973e-02 0.0000000000000000e+00  9.7312979147186462e-01 7.0275515591583859e-05 0.0000000000000000e+00  9.9219799187188229e-01 2.0209619336731054e-08 0.0000000000000000e+00  9.7313043440703662e-01 7.9764989615256929e-06 0.0000000000000000e+00  9.1667921181948842e-01 1.0351351282787221e-05 0.0000000000000000e+00  8.2499640923736717e-01 1.0473702268171912e-05 0.0000000000000000e+00  7.0160623661443633e-01 8.9503504548211425e-06 0.0000000000000000e+00  5.5125313278679355e-01 6.9880580435215034e-06 0.0000000000000000e+00  3.7971503837824738e-01 4.8090491268920050e-06 0.0000000000000000e+00  1.9358501869423317e-01 2.5269936762797619e-06 0.0000000000000000e+00  1.6218384879094544e-05 1.2179893140158375e-07 0.0000000000000000e+00  -1.9355232121982802e-01 -2.4543939724386647e-06 0.0000000000000000e+00  -3.7968172779608828e-01 -5.2484239030922618e-06 0.0000000000000000e+00  -5.5121908075046366e-01 -8.2740039641789648e-06 0.0000000000000000e+00  -7.0157230856863229e-01 -1.1488019162174162e-05 0.0000000000000000e+00  -8.2496350630163984e-01 -1.4776226878195527e-05 0.0000000000000000e+00  -9.1665097063004997e-01 -1.7951835689049250e-05 0.0000000000000000e+00  -9.7311140507626703e-01 -2.0767832317319981e-05 0.0000000000000000e+00  -9.921752