<?xml version="1.0"?>
<VTKFile type="UnstructuredGrid"  version="0.1"  >
<UnstructuredGrid>
<Piece  NumberOfPoints="81" NumberOfCells="128">
<Points>
<DataArray  type="Float64"  NumberOfComponents="3"  format="ascii">0 0 0  0.125 0 0  0.25 0 0  0.375 0 0  0.5 0 0  0.625 0 0  0.75 0 0  0.875 0 0  1 0 0  0 0.125 0  0.125 0.125 0  0.25 0.125 0  0.375 0.125 0  0.5 0.125 0  0.625 0.125 0  0.75 0.125 0  0.875 0.125 0  1 0.125 0  0 0.25 0  0.125 0.25 0  0.25 0.25 0  0.375 0.25 0  0.5 0.25 0  0.625 0.25 0  0.75 0.25 0  0.875 0.25 0  1 0.25 0  0 0.375 0  0.125 0.375 0  0.25 0.375 0  0.375 0.375 0  0.5 0.375 0  0.625 0.375 0  0.75 0.375 0  0.875 0.375 0  1 0.375 0  0 0.5 0  0.125 0.5 0  0.25 0.5 0  0.375 0.5 0  0.5 0.5 0  0.625 0.5 0  0.75 0.5 0  0.875 0.5 0  1 0.5 0  0 0.625 0  0.125 0.625 0  0.25 0.625 0  0.375 0.625 0  0.5 0.625 0  0.625 0.625 0  0.75 0.625 0  0.875 0.625 0  1 0.625 0  0 0.75 0  0.125 0.75 0  0.25 0.75 0  0.375 0.75 0  0.5 0.75 0  0.625 0.75 0  0.75 0.75 0  0.875 0.75 0  1 0.75 0  0 0.875 0  0.125 0.875 0  0.25 0.875 0  0.375 0.875 0  0.5 0.875 0  0.625 0.875 0  0.75 0.875 0  0.875 0.875 0  1 0.875 0  0 1 0  0.125 1 0  0.25 1 0  0.375 1 0  0.5 1 0  0.625 1 0  0.75 1 0  0.875 1 0  1 1 0  </DataArray>
</Points>
<Cells>
<DataArray  type="UInt32"  Name="connectivity"  format="ascii">0 1 10  0 9 10  1 2 11  1 10 11  2 3 12  2 11 12  3 4 13  3 12 13  4 5 14  4 13 14  5 6 15  5 14 15  6 7 16  6 15 16  7 8 17  7 16 17  9 10 19  9 18 19  10 11 20  10 19 20  11 12 21  11 20 21  12 13 22  12 21 22  13 14 23  13 22 23  14 15 24  14 23 24  15 16 25  15 24 25  16 17 26  16 25 26  18 19 28  18 27 28  19 20 29  19 28 29  20 21 30  20 29 30  21 22 31  21 30 31  22 23 32  22 31 32  23 24 33  23 32 33  24 25 34  24 33 34  25 26 35  25 34 35  27 28 37  27 36 37  28 29 38  28 37 38  29 30 39  29 38 39  30 31 40  30 39 40  31 32 41  31 40 41  32 33 42  32 41 42  33 34 43  33 42 43  34 35 44  34 43 44  36 37 46  36 45 46  37 38 47  37 46 47  38 39 48  38 47 48  39 40 49  39 48 49  40 41 50  40 49 50  41 42 51  41 50 51  42 43 52  42 51 52  43 44 53  43 52 53  45 46 55  45 54 55  46 47 56  46 55 56  47 48 57  47 56 57  48 49 58  48 57 58  49 50 59  49 58 59  50 51 60  50 59 60  51 52 61  51 60 61  52 53 62  52 61 62  54 55 64  54 63 64  55 56 65  55 64 65  56 57 66  56 65 66  57 58 67  57 66 67  58 59 68  58 67 68  59 60 69  59 68 69  60 61 70  60 69 70  61 62 71  61 70 71  63 64 73  63 72 73  64 65 74  64 73 74  65 66 75  65 74 75  66 67 76  66 75 76  67 68 77  67 76 77  68 69 78  68 77 78  69 70 79  69 78 79  70 71 80  70 79 80  </DataArray>
<DataArray  type="UInt32"  Name="offsets"  format="ascii">3 6 9 12 15 18 21 24 27 30 33 36 39 42 45 48 51 54 57 60 63 66 69 72 75 78 81 84 87 90 93 96 99 102 105 108 111 114 117 120 123 126 129 132 135 138 141 144 147 150 153 156 159 162 165 168 171 174 177 180 183 186 189 192 195 198 201 204 207 210 213 216 219 222 225 228 231 234 237 240 243 246 249 252 255 258 261 264 267 270 273 276 279 282 285 288 291 294 297 300 303 306 309 312 315 318 321 324 327 330 333 336 339 342 345 348 351 354 357 360 363 366 369 372 375 378 381 384 </DataArray>
<DataArray  type="UInt8"  Name="types"  format="ascii">5 5 5 5 5 5 5 5 5 5 5 5 5 5 5 5 5 5 5 5 5 5 5 5 5 5 5 5 5 5 5 5 5 5 5 5 5 5 5 5 5 5 5 5 5 5 5 5 5 5 5 5 5 5 5 5 5 5 5 5 5 5 5 5 5 5 5 5 5 5 5 5 5 5 5 5 5 5 5 5 5 5 5 5 5 5 5 5 5 5 5 5 5 5 5 5 5 5 5 5 5 5 5 5 5 5 5 5 5 5 5 5 5 5 5 5 5 5 5 5 5 5 5 5 5 5 5 5 </DataArray>
</Cells>
<PointData  Vectors="f_16879"> 
<DataArray  type="Float64"  Name="f_16879"  NumberOfComponents="3" format="ascii">8.8320996170221109e-05 -8.8262869316700943e-05 0.0000000000000000e+00  -4.3473846168872931e-03 -4.5337619524224460e-01 0.0000000000000000e+00  2.0973159734918818e-04 -6.4284586047091186e-01 0.0000000000000000e+00  3.2033839580810539e-03 -4.5630716011577449e-01 0.0000000000000000e+00  3.9284435437969244e-03 -2.6386030664303510e-03 0.0000000000000000e+00  1.1842840463573557e-03 4.5341332087159658e-01 0.0000000000000000e+00  -2.9134350681506633e-03 6.4478286895334580e-01 0.0000000000000000e+00  -5.2589182354784055e-03 4.5893395412318583e-01 0.0000000000000000e+00  -2.0775228242250381e-03 -7.7219574880153243e-04 0.0000000000000000e+00  4.5325027397954987e-01 -5.1542809027745154e-06 0.0000000000000000e+00  3.2245890711347336e-01 -3.2358177465437243e-01 0.0000000000000000e+00  5.4674161956936565e-04 -4.5509650630443910e-01 0.0000000000000000e+00  -3.2211221403849205e-01 -3.2043845425943351e-01 0.0000000000000000e+00  -4.5604324274156943e-01 2.0204308405432515e-03 0.0000000000000000e+00  -3.2327206797946062e-01 3.2397154287286550e-01 0.0000000000000000e+00  -1.6751300737472747e-03 4.5698958915344451e-01 0.0000000000000000e+00  3.2058069009728679e-01 3.2305625939244498e-01 0.0000000000000000e+00  4.5628729964522063e-01 -2.7647790755897625e-03 0.0000000000000000e+00  6.4093627319419211e-01 5.5988833940373632e-05 0.0000000000000000e+00  4.5603817204136227e-01 -1.1416027004285470e-03 0.0000000000000000e+00  -1.9896323132146522e-05 7.9260754525344937e-05 0.0000000000000000e+00  -4.5527814862635746e-01 1.5227308678959039e-03 0.0000000000000000e+00  -6.4353028968414916e-01 2.4003871473458429e-03 0.0000000000000000e+00  -4.5484158651865275e-01 2.3319654241935224e-03 0.0000000000000000e+00  -2.1680154321528591e-05 1.5302079117588316e-03 0.0000000000000000e+00  4.5500342706891556e-01 5.3164266002207110e-04 0.0000000000000000e+00  6.4267460022899092e-01 4.8646646758275329e-04 0.0000000000000000e+00  4.5317131364381924e-01 8.3824935699821745e-05 0.0000000000000000e+00  3.2200183209883260e-01 3.2093497335770910e-01 0.0000000000000000e+00  -9.6873549377805986e-04 4.5501615064009160e-01 0.0000000000000000e+00  -3.2239626706399122e-01 3.2289022081836832e-01 0.0000000000000000e+00  -4.5472385721194275e-01 1.8174923651431937e-03 0.0000000000000000e+00  -3.2052812345828147e-01 -3.1998086667778075e-01 0.0000000000000000e+00  1.5442167137274697e-03 -4.5376203082248523e-01 0.0000000000000000e+00  3.2333289311352564e-01 -3.2137394074313308e-01 0.0000000000000000e+00  4.5345456521617095e-01 3.6354039735070863e-03 0.0000000000000000e+00  -5.5191960205190648e-05 6.2508788680540369e-05 0.0000000000000000e+00  -9.7399191184921062e-04 4.5524416463905465e-01 0.0000000000000000e+00  -1.7123924399884071e-03 6.4381676450723313e-01 0.0000000000000000e+00  -1.2582173073020645e-03 4.5560414373575192e-01 0.0000000000000000e+00  -4.7568321389324492e-05 7.0575066126829207e-04 0.0000000000000000e+00  1.3767427623318719e-03 -4.5418048927750254e-01 0.0000000000000000e+00  2.2409545450785464e-03 -6.4245139101409021e-01 0.0000000000000000e+00  2.0777184333304276e-03 -4.5432631890167063e-01 0.0000000000000000e+00  -1.6978772560502669e-03 5.2989740373183200e-03 0.0000000000000000e+00  -4.5324933076578522e-01 4.6266252734603145e-06 0.0000000000000000e+00  -3.2327621346510765e-01 3.2290653497694788e-01 0.0000000000000000e+00  -1.5542663243259898e-03 4.5550803816297358e-01 0.0000000000000000e+00  3.2036412726199098e-01 3.2159120907073357e-01 0.0000000000000000e+00  4.5464269716749633e-01 -5.0994631385305872e-04 0.0000000000000000e+00  3.2268058483657708e-01 -3.2188533975101202e-01 0.0000000000000000e+00  1.6565131775912556e-03 -4.5425395577985195e-01 0.0000000000000000e+00  -3.2062687120712191e-01 -3.2035827408465561e-01 0.0000000000000000e+00  -4.5655935397498476e-01 5.4699574324617532e-03 0.0000000000000000e+00  -6.4093672954557024e-01 -5.5362735896110646e-05 0.0000000000000000e+00  -4.5592855372341023e-01 1.2195823311796168e-03 0.0000000000000000e+00  -4.9746078980749146e-04 1.8452588258151376e-04 0.0000000000000000e+00  4.5450446733870842e-01 -8.4104572341813693e-04 0.0000000000000000e+00  6.4345150217180891e-01 -1.3236470937203195e-03 0.0000000000000000e+00  4.5541779966592122e-01 -9.1143706486137730e-04 0.0000000000000000e+00  3.8389274798821796e-04 3.5151748280995779e-04 0.0000000000000000e+00  -4.5529183138067625e-01 2.0717814518085051e-03 0.0000000000000000e+00  -6.4364154433358278e-01 3.5562246664751856e-03 0.0000000000000000e+00  -4.5317776204688376e-01 -7.7471369227487293e-05 0.0000000000000000e+00  -3.2204638410873820e-01 -3.2133513543914055e-01 0.0000000000000000e+00  1.0404456917942979e-03 -4.5566873974621397e-01 0.0000000000000000e+00  3.2288067067668008e-01 -3.2276814669753812e-01 0.0000000000000000e+00  4.5589737460494661e-01 -1.1243316875137234e-03 0.0000000000000000e+00  3.2191070902722613e-01 3.2098014514421658e-01 0.0000000000000000e+00  -7.3053869290667299e-04 4.5556568736755249e-01 0.0000000000000000e+00  -3.2317880991529568e-01 3.2435502700641211e-01 0.0000000000000000e+00  -4.5362453865575447e-01 1.0412551927923429e-04 0.0000000000000000e+00  -1.1230284090786649e-05 -1.1044008165818265e-05 0.0000000000000000e+00  5.2440960513494865e-03 -4.5767783173360987e-01 0.0000000000000000e+00  2.1580652016521336e-03 -6.4376201863063365e-01 0.0000000000000000e+00  -1.5744322299297044e-03 -4.5247256303854433e-01 0.0000000000000000e+00  -4.1412064091860164e-03 3.4658166225315758e-03 0.0000000000000000e+00  -3.5490871408525109e-03 4.5705425183914999e-01 0.0000000000000000e+00  -8.2488381821483356e-04 6.4375693319577099e-01 0.0000000000000000e+00  1.8359350160689551e-03 4.5514686989580810e-01 0.0000000000000000e+00  6.8821610155171903e-03 -5.2642494958058846e-03 0.0000000000000000e+00  </DataArray> 
</PointData> 
</Piece>
</UnstructuredGrid>
</VTKFile>