<?xml version="1.0"?>
<VTKFile type="UnstructuredGrid"  version="0.1"  >
<UnstructuredGrid>
<Piece  NumberOfPoints="81" NumberOfCells="128">
<Points>
<DataArray  type="Float64"  NumberOfComponents="3"  format="ascii">0 0 0  0.125 0 0  0.25 0 0  0.375 0 0  0.5 0 0  0.625 0 0  0.75 0 0  0.875 0 0  1 0 0  0 0.125 0  0.125 0.125 0  0.25 0.125 0  0.375 0.125 0  0.5 0.125 0  0.625 0.125 0  0.75 0.125 0  0.875 0.125 0  1 0.125 0  0 0.25 0  0.125 0.25 0  0.25 0.25 0  0.375 0.25 0  0.5 0.25 0  0.625 0.25 0  0.75 0.25 0  0.875 0.25 0  1 0.25 0  0 0.375 0  0.125 0.375 0  0.25 0.375 0  0.375 0.375 0  0.5 0.375 0  0.625 0.375 0  0.75 0.375 0  0.875 0.375 0  1 0.375 0  0 0.5 0  0.125 0.5 0  0.25 0.5 0  0.375 0.5 0  0.5 0.5 0  0.625 0.5 0  0.75 0.5 0  0.875 0.5 0  1 0.5 0  0 0.625 0  0.125 0.625 0  0.25 0.625 0  0.375 0.625 0  0.5 0.625 0  0.625 0.625 0  0.75 0.625 0  0.875 0.625 0  1 0.625 0  0 0.75 0  0.125 0.75 0  0.25 0.75 0  0.375 0.75 0  0.5 0.75 0  0.625 0.75 0  0.75 0.75 0  0.875 0.75 0  1 0.75 0  0 0.875 0  0.125 0.875 0  0.25 0.875 0  0.375 0.875 0  0.5 0.875 0  0.625 0.875 0  0.75 0.875 0  0.875 0.875 0  1 0.875 0  0 1 0  0.125 1 0  0.25 1 0  0.375 1 0  0.5 1 0  0.625 1 0  0.75 1 0  0.875 1 0  1 1 0  </DataArray>
</Points>
<Cells>
<DataArray  type="UInt32"  Name="connectivity"  format="ascii">0 1 10  0 9 10  1 2 11  1 10 11  2 3 12  2 11 12  3 4 13  3 12 13  4 5 14  4 13 14  5 6 15  5 14 15  6 7 16  6 15 16  7 8 17  7 16 17  9 10 19  9 18 19  10 11 20  10 19 20  11 12 21  11 20 21  12 13 22  12 21 22  13 14 23  13 22 23  14 15 24  14 23 24  15 16 25  15 24 25  16 17 26  16 25 26  18 19 28  18 27 28  19 20 29  19 28 29  20 21 30  20 29 30  21 22 31  21 30 31  22 23 32  22 31 32  23 24 33  23 32 33  24 25 34  24 33 34  25 26 35  25 34 35  27 28 37  27 36 37  28 29 38  28 37 38  29 30 39  29 38 39  30 31 40  30 39 40  31 32 41  31 40 41  32 33 42  32 41 42  33 34 43  33 42 43  34 35 44  34 43 44  36 37 46  36 45 46  37 38 47  37 46 47  38 39 48  38 47 48  39 40 49  39 48 49  40 41 50  40 49 50  41 42 51  41 50 51  42 43 52  42 51 52  43 44 53  43 52 53  45 46 55  45 54 55  46 47 56  46 55 56  47 48 57  47 56 57  48 49 58  48 57 58  49 50 59  49 58 59  50 51 60  50 59 60  51 52 61  51 60 61  52 53 62  52 61 62  54 55 64  54 63 64  55 56 65  55 64 65  56 57 66  56 65 66  57 58 67  57 66 67  58 59 68  58 67 68  59 60 69  59 68 69  60 61 70  60 69 70  61 62 71  61 70 71  63 64 73  63 72 73  64 65 74  64 73 74  65 66 75  65 74 75  66 67 76  66 75 76  67 68 77  67 76 77  68 69 78  68 77 78  69 70 79  69 78 79  70 71 80  70 79 80  </DataArray>
<DataArray  type="UInt32"  Name="offsets"  format="ascii">3 6 9 12 15 18 21 24 27 30 33 36 39 42 45 48 51 54 57 60 63 66 69 72 75 78 81 84 87 90 93 96 99 102 105 108 111 114 117 120 123 126 129 132 135 138 141 144 147 150 153 156 159 162 165 168 171 174 177 180 183 186 189 192 195 198 201 204 207 210 213 216 219 222 225 228 231 234 237 240 243 246 249 252 255 258 261 264 267 270 273 276 279 282 285 288 291 294 297 300 303 306 309 312 315 318 321 324 327 330 333 336 339 342 345 348 351 354 357 360 363 366 369 372 375 378 381 384 </DataArray>
<DataArray  type="UInt8"  Name="types"  format="ascii">5 5 5 5 5 5 5 5 5 5 5 5 5 5 5 5 5 5 5 5 5 5 5 5 5 5 5 5 5 5 5 5 5 5 5 5 5 5 5 5 5 5 5 5 5 5 5 5 5 5 5 5 5 5 5 5 5 5 5 5 5 5 5 5 5 5 5 5 5 5 5 5 5 5 5 5 5 5 5 5 5 5 5 5 5 5 5 5 5 5 5 5 5 5 5 5 5 5 5 5 5 5 5 5 5 5 5 5 5 5 5 5 5 5 5 5 5 5 5 5 5 5 5 5 5 5 5 5 </DataArray>
</Cells>
<PointData  Vectors="f_14567"> 
<DataArray  type="Float64"  Name="f_14567"  NumberOfComponents="3" format="ascii">-1.2973658603470510e-02 1.2973697571125660e-02 0.0000000000000000e+00  -1.3246140795564365e-03 -6.5222419520159269e-01 0.0000000000000000e+00  8.5983544346064540e-03 -9.2999710379813183e-01 0.0000000000000000e+00  1.3358107840418550e-02 -6.6258355554044812e-01 0.0000000000000000e+00  1.0281081255941191e-02 -7.0150504872551417e-03 0.0000000000000000e+00  1.1998122260796537e-03 6.5264320060096104e-01 0.0000000000000000e+00  -8.3914657422895552e-03 9.2978046356218236e-01 0.0000000000000000e+00  -1.1950858855647385e-02 6.6091655980904518e-01 0.0000000000000000e+00  -4.8987239735496461e-03 -4.8987713285773837e-03 0.0000000000000000e+00  6.5222437368862962e-01 1.3248871841222165e-03 0.0000000000000000e+00  4.6748501738557069e-01 -4.6748525874188390e-01 0.0000000000000000e+00  5.5505638468361382e-03 -6.5709148302075093e-01 0.0000000000000000e+00  -4.6024458976737836e-01 -4.6110492852157087e-01 0.0000000000000000e+00  -6.5650245892753423e-01 5.0978434520796249e-03 0.0000000000000000e+00  -4.6820063626423325e-01 4.6833148609394948e-01 0.0000000000000000e+00  -5.6114512400649505e-03 6.5719865459183058e-01 0.0000000000000000e+00  4.6064372831252687e-01 4.6064362871770664e-01 0.0000000000000000e+00  6.6091667243463637e-01 -1.1950965619245427e-02 0.0000000000000000e+00  9.2999721006134350e-01 -8.5982620655516168e-03 0.0000000000000000e+00  6.5709136448181227e-01 -5.5505987325760644e-03 0.0000000000000000e+00  -2.5360093150673875e-04 2.5361286651175196e-04 0.0000000000000000e+00  -6.5764684174600951e-01 6.1160807929105257e-03 0.0000000000000000e+00  -9.2988919426535144e-01 8.4914291551164908e-03 0.0000000000000000e+00  -6.5745462627790197e-01 5.9367823054169945e-03 0.0000000000000000e+00  1.0543159682059137e-05 1.0497380320740942e-05 0.0000000000000000e+00  6.5719858326256153e-01 -5.6114407125228043e-03 0.0000000000000000e+00  9.2978039781583277e-01 -8.3915365900159924e-03 0.0000000000000000e+00  6.6258358964076980e-01 -1.3358032812883001e-02 0.0000000000000000e+00  4.6110514603114644e-01 4.6024438838903048e-01 0.0000000000000000e+00  -6.1159940383512046e-03 6.5764689886554617e-01 0.0000000000000000e+00  -4.6934290210151741e-01 4.6934283348054856e-01 0.0000000000000000e+00  -6.5761968500180357e-01 6.0857544529480589e-03 0.0000000000000000e+00  -4.6070279821460164e-01 -4.6070276631259671e-01 0.0000000000000000e+00  5.9368148704082181e-03 -6.5745470787091786e-01 0.0000000000000000e+00  4.6833153882543493e-01 -4.6820048715623847e-01 0.0000000000000000e+00  6.5264328811473826e-01 1.1997957140254304e-03 0.0000000000000000e+00  7.0149998630477392e-03 -1.0281054451423924e-02 0.0000000000000000e+00  -5.0975673445556955e-03 6.5650232732107072e-01 0.0000000000000000e+00  -8.4913455855557072e-03 9.2988934291401781e-01 0.0000000000000000e+00  -6.0858039772225953e-03 6.5761962322958623e-01 0.0000000000000000e+00  -8.3316861557062100e-08 -7.2004273884769924e-09 0.0000000000000000e+00  6.0856831764253298e-03 -6.5761963392218314e-01 0.0000000000000000e+00  8.4914017861379282e-03 -9.2988929799248043e-01 0.0000000000000000e+00  5.0979326310449493e-03 -6.5650229142449967e-01 0.0000000000000000e+00  -7.0149753980974583e-03 1.0281072044396688e-02 0.0000000000000000e+00  -6.5264323607029995e-01 -1.1997821846739000e-03 0.0000000000000000e+00  -4.6833133212943601e-01 4.6820062858826500e-01 0.0000000000000000e+00  -5.9368067220661597e-03 6.5745479995838041e-01 0.0000000000000000e+00  4.6070273598869749e-01 4.6070279490818727e-01 0.0000000000000000e+00  6.5761958525709152e-01 -6.0857650477156135e-03 0.0000000000000000e+00  4.6934281931759109e-01 -4.6934287707543354e-01 0.0000000000000000e+00  6.1160538308517604e-03 -6.5764691996657687e-01 0.0000000000000000e+00  -4.6110489059349857e-01 -4.6024446207698255e-01 0.0000000000000000e+00  -6.6258354012282072e-01 1.3358089216359123e-02 0.0000000000000000e+00  -9.2978036664758967e-01 8.3915374873152065e-03 0.0000000000000000e+00  -6.5719875685743601e-01 5.6115125531417146e-03 0.0000000000000000e+00  -1.0620961037093682e-05 -1.0391525295269872e-05 0.0000000000000000e+00  6.5745468142048713e-01 -5.9367246547749339e-03 0.0000000000000000e+00  9.2988929100270989e-01 -8.4914224544221303e-03 0.0000000000000000e+00  6.5764691700267330e-01 -6.1161269189898993e-03 0.0000000000000000e+00  2.5362926646462267e-04 -2.5368012578525883e-04 0.0000000000000000e+00  -6.5709143038572748e-01 5.5504161696982822e-03 0.0000000000000000e+00  -9.2999710822835702e-01 8.5983101140275197e-03 0.0000000000000000e+00  -6.6091656027273771e-01 1.1951048856458002e-02 0.0000000000000000e+00  -4.6064397120760925e-01 -4.6064362555210997e-01 0.0000000000000000e+00  5.6113589568101366e-03 -6.5719859199035191e-01 0.0000000000000000e+00  4.6820051522713640e-01 -4.6833149995737311e-01 0.0000000000000000e+00  6.5650233122349677e-01 -5.0979249669003239e-03 0.0000000000000000e+00  4.6024447654437817e-01 4.6110483023926313e-01 0.0000000000000000e+00  -5.5505014609728079e-03 6.5709131684475597e-01 0.0000000000000000e+00  -4.6748535814772685e-01 4.6748520331924248e-01 0.0000000000000000e+00  -6.5222416646280479e-01 -1.3248162983187407e-03 0.0000000000000000e+00  4.8985178269631956e-03 4.8986880040078539e-03 0.0000000000000000e+00  1.1950741544325415e-02 -6.6091666670639848e-01 0.0000000000000000e+00  8.3914337674540120e-03 -9.2978036569753264e-01 0.0000000000000000e+00  -1.1996787153251704e-03 -6.5264312239688060e-01 0.0000000000000000e+00  -1.0280892859535524e-02 7.0151394260069251e-03 0.0000000000000000e+00  -1.3357965677643833e-02 6.6258360865971933e-01 0.0000000000000000e+00  -8.5983148928630779e-03 9.2999708839050621e-01 0.0000000000000000e+00  1.3247872036440430e-03 6.5222420486394805e-01 0.0000000000000000e+00  1.2973390471827100e-02 -1.2973609447711875e-02 0.0000000000000000e+00  </DataArray> 
</PointData> 
</Piece>
</UnstructuredGrid>
</VTKFile>