<?xml version="1.0"?>
<VTKFile type="UnstructuredGrid"  version="0.1"  >
<UnstructuredGrid>
<Piece  NumberOfPoints="81" NumberOfCells="128">
<Points>
<DataArray  type="Float64"  NumberOfComponents="3"  format="ascii">0 0 0  0.125 0 0  0.25 0 0  0.375 0 0  0.5 0 0  0.625 0 0  0.75 0 0  0.875 0 0  1 0 0  0 0.125 0  0.125 0.125 0  0.25 0.125 0  0.375 0.125 0  0.5 0.125 0  0.625 0.125 0  0.75 0.125 0  0.875 0.125 0  1 0.125 0  0 0.25 0  0.125 0.25 0  0.25 0.25 0  0.375 0.25 0  0.5 0.25 0  0.625 0.25 0  0.75 0.25 0  0.875 0.25 0  1 0.25 0  0 0.375 0  0.125 0.375 0  0.25 0.375 0  0.375 0.375 0  0.5 0.375 0  0.625 0.375 0  0.75 0.375 0  0.875 0.375 0  1 0.375 0  0 0.5 0  0.125 0.5 0  0.25 0.5 0  0.375 0.5 0  0.5 0.5 0  0.625 0.5 0  0.75 0.5 0  0.875 0.5 0  1 0.5 0  0 0.625 0  0.125 0.625 0  0.25 0.625 0  0.375 0.625 0  0.5 0.625 0  0.625 0.625 0  0.75 0.625 0  0.875 0.625 0  1 0.625 0  0 0.75 0  0.125 0.75 0  0.25 0.75 0  0.375 0.75 0  0.5 0.75 0  0.625 0.75 0  0.75 0.75 0  0.875 0.75 0  1 0.75 0  0 0.875 0  0.125 0.875 0  0.25 0.875 0  0.375 0.875 0  0.5 0.875 0  0.625 0.875 0  0.75 0.875 0  0.875 0.875 0  1 0.875 0  0 1 0  0.125 1 0  0.25 1 0  0.375 1 0  0.5 1 0  0.625 1 0  0.75 1 0  0.875 1 0  1 1 0  </DataArray>
</Points>
<Cells>
<DataArray  type="UInt32"  Name="connectivity"  format="ascii">0 1 10  0 9 10  1 2 11  1 10 11  2 3 12  2 11 12  3 4 13  3 12 13  4 5 14  4 13 14  5 6 15  5 14 15  6 7 16  6 15 16  7 8 17  7 16 17  9 10 19  9 18 19  10 11 20  10 19 20  11 12 21  11 20 21  12 13 22  12 21 22  13 14 23  13 22 23  14 15 24  14 23 24  15 16 25  15 24 25  16 17 26  16 25 26  18 19 28  18 27 28  19 20 29  19 28 29  20 21 30  20 29 30  21 22 31  21 30 31  22 23 32  22 31 32  23 24 33  23 32 33  24 25 34  24 33 34  25 26 35  25 34 35  27 28 37  27 36 37  28 29 38  28 37 38  29 30 39  29 38 39  30 31 40  30 39 40  31 32 41  31 40 41  32 33 42  32 41 42  33 34 43  33 42 43  34 35 44  34 43 44  36 37 46  36 45 46  37 38 47  37 46 47  38 39 48  38 47 48  39 40 49  39 48 49  40 41 50  40 49 50  41 42 51  41 50 51  42 43 52  42 51 52  43 44 53  43 52 53  45 46 55  45 54 55  46 47 56  46 55 56  47 48 57  47 56 57  48 49 58  48 57 58  49 50 59  49 58 59  50 51 60  50 59 60  51 52 61  51 60 61  52 53 62  52 61 62  54 55 64  54 63 64  55 56 65  55 64 65  56 57 66  56 65 66  57 58 67  57 66 67  58 59 68  58 67 68  59 60 69  59 68 69  60 61 70  60 69 70  61 62 71  61 70 71  63 64 73  63 72 73  64 65 74  64 73 74  65 66 75  65 74 75  66 67 76  66 75 76  67 68 77  67 76 77  68 69 78  68 77 78  69 70 79  69 78 79  70 71 80  70 79 80  </DataArray>
<DataArray  type="UInt32"  Name="offsets"  format="ascii">3 6 9 12 15 18 21 24 27 30 33 36 39 42 45 48 51 54 57 60 63 66 69 72 75 78 81 84 87 90 93 96 99 102 105 108 111 114 117 120 123 126 129 132 135 138 141 144 147 150 153 156 159 162 165 168 171 174 177 180 183 186 189 192 195 198 201 204 207 210 213 216 219 222 225 228 231 234 237 240 243 246 249 252 255 258 261 264 267 270 273 276 279 282 285 288 291 294 297 300 303 306 309 312 315 318 321 324 327 330 333 336 339 342 345 348 351 354 357 360 363 366 369 372 375 378 381 384 </DataArray>
<DataArray  type="UInt8"  Name="types"  format="ascii">5 5 5 5 5 5 5 5 5 5 5 5 5 5 5 5 5 5 5 5 5 5 5 5 5 5 5 5 5 5 5 5 5 5 5 5 5 5 5 5 5 5 5 5 5 5 5 5 5 5 5 5 5 5 5 5 5 5 5 5 5 5 5 5 5 5 5 5 5 5 5 5 5 5 5 5 5 5 5 5 5 5 5 5 5 5 5 5 5 5 5 5 5 5 5 5 5 5 5 5 5 5 5 5 5 5 5 5 5 5 5 5 5 5 5 5 5 5 5 5 5 5 5 5 5 5 5 5 </DataArray>
</Cells>
<PointData  Vectors="f_14102"> 
<DataArray  type="Float64"  Name="f_14102"  NumberOfComponents="3" format="ascii">-1.3439140703206886e-02 1.3439181068982930e-02 0.0000000000000000e+00  -1.3721399288128889e-03 -6.7562535729167938e-01 0.0000000000000000e+00  8.9068549277077774e-03 -9.6336448441572076e-01 0.0000000000000000e+00  1.3837383600334156e-02 -6.8635640128198927e-01 0.0000000000000000e+00  1.0649956330956244e-02 -7.2667435932916302e-03 0.0000000000000000e+00  1.2428603076852483e-03 6.7605939619231847e-01 0.0000000000000000e+00  -8.6925432727667021e-03 9.6314007134136004e-01 0.0000000000000000e+00  -1.2379643907251407e-02 6.8462959538469426e-01 0.0000000000000000e+00  -5.0744853675348750e-03 -5.0745344216143167e-03 0.0000000000000000e+00  6.7562554218265569e-01 1.3724228321015742e-03 0.0000000000000000e+00  4.8425791962840403e-01 -4.8425816964434443e-01 0.0000000000000000e+00  5.7497126138197222e-03 -6.8066727860654896e-01 0.0000000000000000e+00  -4.7675771259457289e-01 -4.7764891945636900e-01 0.0000000000000000e+00  -6.8005712090868864e-01 5.2807490569460507e-03 0.0000000000000000e+00  -4.8499921420799508e-01 4.8513475880079621e-01 0.0000000000000000e+00  -5.8127845867814894e-03 6.8077829538810186e-01 0.0000000000000000e+00  4.7717117183781899e-01 4.7717106866963499e-01 0.0000000000000000e+00  6.8462971205118062e-01 -1.2379754501421827e-02 0.0000000000000000e+00  9.6336459449155121e-01 -8.9067592445421662e-03 0.0000000000000000e+00  6.8066715581454951e-01 -5.7497487512255981e-03 0.0000000000000000e+00  -2.6269988329054398e-04 2.6271224651191430e-04 0.0000000000000000e+00  -6.8124256305618813e-01 6.3355197512379065e-03 0.0000000000000000e+00  -9.6325270319512679e-01 8.7960932744444720e-03 0.0000000000000000e+00  -6.8104345108629694e-01 6.1497882105102063e-03 0.0000000000000000e+00  1.0921437872984037e-05 1.0874015993125281e-05 0.0000000000000000e+00  6.8077822149960854e-01 -5.8127736815213231e-03 0.0000000000000000e+00  9.6314000323609605e-01 -8.6926166624397838e-03 0.0000000000000000e+00  6.8635643660579704e-01 -1.3837305880884292e-02 0.0000000000000000e+00  4.7764914476997439e-01 4.7675750399096833e-01 0.0000000000000000e+00  -6.3354298840104187e-03 6.8124262222511756e-01 0.0000000000000000e+00  -4.8618246341910204e-01 4.8618239233608046e-01 0.0000000000000000e+00  -6.8121443195473241e-01 6.3041053320499925e-03 0.0000000000000000e+00  -4.7723236110983341e-01 -4.7723232806321569e-01 0.0000000000000000e+00  6.1498219439014073e-03 -6.8104353560678998e-01 0.0000000000000000e+00  4.8513481342423564e-01 -4.8499905975015206e-01 0.0000000000000000e+00  6.7605948684600425e-01 1.2428432031947783e-03 0.0000000000000000e+00  7.2666911527376589e-03 -1.0649928564719080e-02 0.0000000000000000e+00  -5.2804630429560849e-03 6.8005698458031505e-01 0.0000000000000000e+00  -8.7960067064900907e-03 9.6325285717716136e-01 0.0000000000000000e+00  -6.3041566332068966e-03 6.8121436796618917e-01 0.0000000000000000e+00  -8.6306188447610775e-08 -7.4587715586783620e-09 0.0000000000000000e+00  6.3040314981958378e-03 -6.8121437904242532e-01 0.0000000000000000e+00  8.7960649234937825e-03 -9.6325281064388357e-01 0.0000000000000000e+00  5.2808414355649570e-03 -6.8005694739581013e-01 0.0000000000000000e+00  -7.2666658100088467e-03 1.0649946788910769e-02 0.0000000000000000e+00  -6.7605943293426241e-01 -1.2428291884234955e-03 0.0000000000000000e+00  -4.8513459931218755e-01 4.8499920625662063e-01 0.0000000000000000e+00  -6.1498135032046399e-03 6.8104363099826015e-01 0.0000000000000000e+00  4.7723229665132488e-01 4.7723235768478833e-01 0.0000000000000000e+00  6.8121432863127840e-01 -6.3041163069474373e-03 0.0000000000000000e+00  4.8618237766496986e-01 -4.8618243749510709e-01 0.0000000000000000e+00  6.3354918218070586e-03 -6.8124264408323232e-01 0.0000000000000000e+00  -4.7764888016747498e-01 -4.7675758032277155e-01 0.0000000000000000e+00  -6.8635638531119270e-01 1.3837364308061342e-02 0.0000000000000000e+00  -9.6313997094956727e-01 8.6926175919331914e-03 0.0000000000000000e+00  -6.8077840132289613e-01 5.8128480997110179e-03 0.0000000000000000e+00  -1.1002030663994373e-05 -1.0764362993627351e-05 0.0000000000000000e+00  6.8104350820734383e-01 -6.1497284914197878e-03 0.0000000000000000e+00  9.6325280340332664e-01 -8.7960863333355951e-03 0.0000000000000000e+00  6.8124264101298693e-01 -6.3355675322756943e-03 0.0000000000000000e+00  2.6272923487888052e-04 -2.6278191898181726e-04 0.0000000000000000e+00  -6.8066722408303260e-01 5.7495596381713235e-03 0.0000000000000000e+00  -9.6336448900489779e-01 8.9068090169500125e-03 0.0000000000000000e+00  -6.8462959586502314e-01 1.2379840725103897e-02 0.0000000000000000e+00  -4.7717142344773794e-01 -4.7717106539045967e-01 0.0000000000000000e+00  5.8126889924941519e-03 -6.8077823054054332e-01 0.0000000000000000e+00  4.8499908882820636e-01 -4.8513477316162607e-01 0.0000000000000000e+00  6.8005698862275654e-01 -5.2808334964383951e-03 0.0000000000000000e+00  4.7675759530924300e-01 4.7764881764778888e-01 0.0000000000000000e+00  -5.7496479896127035e-03 6.8066710646832274e-01 0.0000000000000000e+00  -4.8425827261677068e-01 4.8425811223319309e-01 0.0000000000000000e+00  -6.7562532752177296e-01 -1.3723494029852183e-03 0.0000000000000000e+00  5.0742718246119612e-03 5.0744481074417661e-03 0.0000000000000000e+00  1.2379522386914164e-02 -6.8462970611741925e-01 0.0000000000000000e+00  8.6925101507055250e-03 -9.6313996996542350e-01 0.0000000000000000e+00  -1.2427220066962832e-03 -6.7605931518235296e-01 0.0000000000000000e+00  -1.0649761175073078e-02 7.2668357230781799e-03 0.0000000000000000e+00  -1.3837236336898602e-02 6.8635645630712738e-01 0.0000000000000000e+00  -8.9068139672454829e-03 9.6336446845528401e-01 0.0000000000000000e+00  1.3723192644222650e-03 6.7562536730071099e-01 0.0000000000000000e+00  1.3438862951264039e-02 -1.3439089783788100e-02 0.0000000000000000e+00  </DataArray> 
</PointData> 
</Piece>
</UnstructuredGrid>
</VTKFile>