<?xml version="1.0"?>
<VTKFile type="UnstructuredGrid"  version="0.1"  >
<UnstructuredGrid>
<Piece  NumberOfPoints="81" NumberOfCells="128">
<Points>
<DataArray  type="Float64"  NumberOfComponents="3"  format="ascii">0 0 0  0.125 0 0  0.25 0 0  0.375 0 0  0.5 0 0  0.625 0 0  0.75 0 0  0.875 0 0  1 0 0  0 0.125 0  0.125 0.125 0  0.25 0.125 0  0.375 0.125 0  0.5 0.125 0  0.625 0.125 0  0.75 0.125 0  0.875 0.125 0  1 0.125 0  0 0.25 0  0.125 0.25 0  0.25 0.25 0  0.375 0.25 0  0.5 0.25 0  0.625 0.25 0  0.75 0.25 0  0.875 0.25 0  1 0.25 0  0 0.375 0  0.125 0.375 0  0.25 0.375 0  0.375 0.375 0  0.5 0.375 0  0.625 0.375 0  0.75 0.375 0  0.875 0.375 0  1 0.375 0  0 0.5 0  0.125 0.5 0  0.25 0.5 0  0.375 0.5 0  0.5 0.5 0  0.625 0.5 0  0.75 0.5 0  0.875 0.5 0  1 0.5 0  0 0.625 0  0.125 0.625 0  0.25 0.625 0  0.375 0.625 0  0.5 0.625 0  0.625 0.625 0  0.75 0.625 0  0.875 0.625 0  1 0.625 0  0 0.75 0  0.125 0.75 0  0.25 0.75 0  0.375 0.75 0  0.5 0.75 0  0.625 0.75 0  0.75 0.75 0  0.875 0.75 0  1 0.75 0  0 0.875 0  0.125 0.875 0  0.25 0.875 0  0.375 0.875 0  0.5 0.875 0  0.625 0.875 0  0.75 0.875 0  0.875 0.875 0  1 0.875 0  0 1 0  0.125 1 0  0.25 1 0  0.375 1 0  0.5 1 0  0.625 1 0  0.75 1 0  0.875 1 0  1 1 0  </DataArray>
</Points>
<Cells>
<DataArray  type="UInt32"  Name="connectivity"  format="ascii">0 1 10  0 9 10  1 2 11  1 10 11  2 3 12  2 11 12  3 4 13  3 12 13  4 5 14  4 13 14  5 6 15  5 14 15  6 7 16  6 15 16  7 8 17  7 16 17  9 10 19  9 18 19  10 11 20  10 19 20  11 12 21  11 20 21  12 13 22  12 21 22  13 14 23  13 22 23  14 15 24  14 23 24  15 16 25  15 24 25  16 17 26  16 25 26  18 19 28  18 27 28  19 20 29  19 28 29  20 21 30  20 29 30  21 22 31  21 30 31  22 23 32  22 31 32  23 24 33  23 32 33  24 25 34  24 33 34  25 26 35  25 34 35  27 28 37  27 36 37  28 29 38  28 37 38  29 30 39  29 38 39  30 31 40  30 39 40  31 32 41  31 40 41  32 33 42  32 41 42  33 34 43  33 42 43  34 35 44  34 43 44  36 37 46  36 45 46  37 38 47  37 46 47  38 39 48  38 47 48  39 40 49  39 48 49  40 41 50  40 49 50  41 42 51  41 50 51  42 43 52  42 51 52  43 44 53  43 52 53  45 46 55  45 54 55  46 47 56  46 55 56  47 48 57  47 56 57  48 49 58  48 57 58  49 50 59  49 58 59  50 51 60  50 59 60  51 52 61  51 60 61  52 53 62  52 61 62  54 55 64  54 63 64  55 56 65  55 64 65  56 57 66  56 65 66  57 58 67  57 66 67  58 59 68  58 67 68  59 60 69  59 68 69  60 61 70  60 69 70  61 62 71  61 70 71  63 64 73  63 72 73  64 65 74  64 73 74  65 66 75  65 74 75  66 67 76  66 75 76  67 68 77  67 76 77  68 69 78  68 77 78  69 70 79  69 78 79  70 71 80  70 79 80  </DataArray>
<DataArray  type="UInt32"  Name="offsets"  format="ascii">3 6 9 12 15 18 21 24 27 30 33 36 39 42 45 48 51 54 57 60 63 66 69 72 75 78 81 84 87 90 93 96 99 102 105 108 111 114 117 120 123 126 129 132 135 138 141 144 147 150 153 156 159 162 165 168 171 174 177 180 183 186 189 192 195 198 201 204 207 210 213 216 219 222 225 228 231 234 237 240 243 246 249 252 255 258 261 264 267 270 273 276 279 282 285 288 291 294 297 300 303 306 309 312 315 318 321 324 327 330 333 336 339 342 345 348 351 354 357 360 363 366 369 372 375 378 381 384 </DataArray>
<DataArray  type="UInt8"  Name="types"  format="ascii">5 5 5 5 5 5 5 5 5 5 5 5 5 5 5 5 5 5 5 5 5 5 5 5 5 5 5 5 5 5 5 5 5 5 5 5 5 5 5 5 5 5 5 5 5 5 5 5 5 5 5 5 5 5 5 5 5 5 5 5 5 5 5 5 5 5 5 5 5 5 5 5 5 5 5 5 5 5 5 5 5 5 5 5 5 5 5 5 5 5 5 5 5 5 5 5 5 5 5 5 5 5 5 5 5 5 5 5 5 5 5 5 5 5 5 5 5 5 5 5 5 5 5 5 5 5 5 5 </DataArray>
</Cells>
<PointData  Vectors="f_15187"> 
<DataArray  type="Float64"  Name="f_15187"  NumberOfComponents="3" format="ascii">-1.2176622983493502e-02 1.2176659557173976e-02 0.0000000000000000e+00  -1.2432365255140357e-03 -6.1215485688498872e-01 0.0000000000000000e+00  8.0701152565126784e-03 -8.7286281031484536e-01 0.0000000000000000e+00  1.2537453614057024e-02 -6.2187779079683547e-01 0.0000000000000000e+00  9.6494638977757362e-03 -6.5840814533710173e-03 0.0000000000000000e+00  1.1261018633594473e-03 6.1254812072305498e-01 0.0000000000000000e+00  -7.8759367535252232e-03 8.7265947935348398e-01 0.0000000000000000e+00  -1.1216658851747033e-02 6.2031320680732349e-01 0.0000000000000000e+00  -4.5977712801966546e-03 -4.5978157259724149e-03 0.0000000000000000e+00  6.1215502440669023e-01 1.2434928519239172e-03 0.0000000000000000e+00  4.3876511484688019e-01 -4.3876534137548900e-01 0.0000000000000000e+00  5.2095654259509986e-03 -6.1672312328828349e-01 0.0000000000000000e+00  -4.3196950228756570e-01 -4.3277698620309635e-01 0.0000000000000000e+00  -6.1617028584045819e-01 4.7846578703895984e-03 0.0000000000000000e+00  -4.3943676974020496e-01 4.3955958082168978e-01 0.0000000000000000e+00  -5.2667122073221002e-03 6.1682371078295006e-01 0.0000000000000000e+00  4.3234411978992182e-01 4.3234402631370111e-01 0.0000000000000000e+00  6.2031331251377086e-01 -1.1216759056332027e-02 0.0000000000000000e+00  8.7286291004978511e-01 -8.0700285621428322e-03 0.0000000000000000e+00  6.1672301203177404e-01 -5.2095981684884924e-03 0.0000000000000000e+00  -2.3802097970980637e-04 2.3803218148889404e-04 0.0000000000000000e+00  -6.1724436359718549e-01 5.7403398862317769e-03 0.0000000000000000e+00  -8.7276153019509228e-01 7.9697589225325004e-03 0.0000000000000000e+00  -6.1706395687011839e-01 5.5720565861659913e-03 0.0000000000000000e+00  9.8954415579681553e-06 9.8524746477162216e-06 0.0000000000000000e+00  6.1682364383578825e-01 -5.2667023265385643e-03 0.0000000000000000e+00  8.7265941764625587e-01 -7.8760032487275346e-03 0.0000000000000000e+00  6.2187782280220660e-01 -1.2537383195831725e-02 0.0000000000000000e+00  4.3277719034998990e-01 4.3196931328087967e-01 0.0000000000000000e+00  -5.7402584614316453e-03 6.1724441720758838e-01 0.0000000000000000e+00  -4.4050886057230160e-01 4.4050879616705635e-01 0.0000000000000000e+00  -6.1721887522526542e-01 5.7118766424021968e-03 0.0000000000000000e+00  -4.3239956073755431e-01 -4.3239953079544635e-01 0.0000000000000000e+00  5.5720871505297864e-03 -6.1706403345047423e-01 0.0000000000000000e+00  4.3955963031362116e-01 -4.3943662979264697e-01 0.0000000000000000e+00  6.1254820286043088e-01 1.1260863657219114e-03 0.0000000000000000e+00  6.5840339392576270e-03 -9.6494387399916198e-03 0.0000000000000000e+00  -4.7843987255080881e-03 6.1617016231922694e-01 0.0000000000000000e+00  -7.9696804870606087e-03 8.7276166971154023e-01 0.0000000000000000e+00  -5.7119231241571288e-03 6.1721881724801886e-01 0.0000000000000000e+00  -7.8198297115041542e-08 -6.7580697295925741e-09 0.0000000000000000e+00  5.7118097447466090e-03 -6.1721882728371691e-01 0.0000000000000000e+00  7.9697332349648094e-03 -8.7276162754975373e-01 0.0000000000000000e+00  4.7847415706526418e-03 -6.1617012862795872e-01 0.0000000000000000e+00  -6.5840109773094794e-03 9.6494552521417185e-03 0.0000000000000000e+00  -6.1254815401333795e-01 -1.1260736675450102e-03 0.0000000000000000e+00  -4.3955943631597327e-01 4.3943676253580904e-01 0.0000000000000000e+00  -5.5720795027803501e-03 6.1706411988055143e-01 0.0000000000000000e+00  4.3239950233449331e-01 4.3239955763426946e-01 0.0000000000000000e+00  6.1721878160836086e-01 -5.7118865862810595e-03 0.0000000000000000e+00  4.4050878287419859e-01 -4.4050883708369298e-01 0.0000000000000000e+00  5.7403145805848066e-03 -6.1724443701227916e-01 0.0000000000000000e+00  -4.3277695060513222e-01 -4.3196938244181865e-01 0.0000000000000000e+00  -6.2187777632638863e-01 1.2537436134164699e-02 0.0000000000000000e+00  -8.7265938839283130e-01 7.8760040909012317e-03 0.0000000000000000e+00  -6.1682380676587656e-01 5.2667697536351423e-03 0.0000000000000000e+00  -9.9684631932691237e-06 -9.7531228169233553e-06 0.0000000000000000e+00  6.1706400862502331e-01 -5.5720024772863011e-03 0.0000000000000000e+00  8.7276162098939902e-01 -7.9697526334946284e-03 0.0000000000000000e+00  6.1724443423046271e-01 -5.7403831785593530e-03 0.0000000000000000e+00  2.3804757391197344e-04 -2.3809530869454504e-04 0.0000000000000000e+00  -6.1672307388688774e-01 5.2094268213455589e-03 0.0000000000000000e+00  -8.7286281447289993e-01 8.0700736587646284e-03 0.0000000000000000e+00  -6.2031320724252892e-01 1.1216837179874034e-02 0.0000000000000000e+00  -4.3234434776276520e-01 -4.3234402334258276e-01 0.0000000000000000e+00  5.2666255934811675e-03 -6.1682365202738754e-01 0.0000000000000000e+00  4.3943665613901173e-01 -4.3955959383341542e-01 0.0000000000000000e+00  6.1617016598190810e-01 -4.7847343773541693e-03 0.0000000000000000e+00  4.3196939602041096e-01 4.3277689395875413e-01 0.0000000000000000e+00  -5.2095068727578721e-03 6.1672296732129650e-01 0.0000000000000000e+00  -4.3876543467434187e-01 4.3876528935773285e-01 0.0000000000000000e+00  -6.1215482991176662e-01 -1.2434263209838991e-03 0.0000000000000000e+00  4.5975777982087684e-03 4.5977375204406708e-03 0.0000000000000000e+00  1.1216548747435844e-02 -6.2031330713744637e-01 0.0000000000000000e+00  7.8759067430609012e-03 -8.7265938750114080e-01 0.0000000000000000e+00  -1.1259765548269282e-03 -6.1254804732343593e-01 0.0000000000000000e+00  -9.6492870754873849e-03 6.5841649281780483e-03 0.0000000000000000e+00  -1.2537320185040262e-02 6.2187784065272844e-01 0.0000000000000000e+00  -8.0700781440127128e-03 8.7286279585378546e-01 0.0000000000000000e+00  1.2433990137381825e-03 6.1215486595373880e-01 0.0000000000000000e+00  1.2176371324494980e-02 -1.2176576847614664e-02 0.0000000000000000e+00  </DataArray> 
</PointData> 
</Piece>
</UnstructuredGrid>
</VTKFile>