<?xml version="1.0"?>
<VTKFile type="UnstructuredGrid"  version="0.1"  >
<UnstructuredGrid>
<Piece  NumberOfPoints="1089" NumberOfCells="2048">
<Points>
<DataArray  type="Float64"  NumberOfComponents="3"  format="ascii">0 0 0  0.03125 0 0  0.0625 0 0  0.09375 0 0  0.125 0 0  0.15625 0 0  0.1875 0 0  0.21875 0 0  0.25 0 0  0.28125 0 0  0.3125 0 0  0.34375 0 0  0.375 0 0  0.40625 0 0  0.4375 0 0  0.46875 0 0  0.5 0 0  0.53125 0 0  0.5625 0 0  0.59375 0 0  0.625 0 0  0.65625 0 0  0.6875 0 0  0.71875 0 0  0.75 0 0  0.78125 0 0  0.8125 0 0  0.84375 0 0  0.875 0 0  0.90625 0 0  0.9375 0 0  0.96875 0 0  1 0 0  0 0.03125 0  0.03125 0.03125 0  0.0625 0.03125 0  0.09375 0.03125 0  0.125 0.03125 0  0.15625 0.03125 0  0.1875 0.03125 0  0.21875 0.03125 0  0.25 0.03125 0  0.28125 0.03125 0  0.3125 0.03125 0  0.34375 0.03125 0  0.375 0.03125 0  0.40625 0.03125 0  0.4375 0.03125 0  0.46875 0.03125 0  0.5 0.03125 0  0.53125 0.03125 0  0.5625 0.03125 0  0.59375 0.03125 0  0.625 0.03125 0  0.65625 0.03125 0  0.6875 0.03125 0  0.71875 0.03125 0  0.75 0.03125 0  0.78125 0.03125 0  0.8125 0.03125 0  0.84375 0.03125 0  0.875 0.03125 0  0.90625 0.03125 0  0.9375 0.03125 0  0.96875 0.03125 0  1 0.03125 0  0 0.0625 0  0.03125 0.0625 0  0.0625 0.0625 0  0.09375 0.0625 0  0.125 0.0625 0  0.15625 0.0625 0  0.1875 0.0625 0  0.21875 0.0625 0  0.25 0.0625 0  0.28125 0.0625 0  0.3125 0.0625 0  0.34375 0.0625 0  0.375 0.0625 0  0.40625 0.0625 0  0.4375 0.0625 0  0.46875 0.0625 0  0.5 0.0625 0  0.53125 0.0625 0  0.5625 0.0625 0  0.59375 0.0625 0  0.625 0.0625 0  0.65625 0.0625 0  0.6875 0.0625 0  0.71875 0.0625 0  0.75 0.0625 0  0.78125 0.0625 0  0.8125 0.0625 0  0.84375 0.0625 0  0.875 0.0625 0  0.90625 0.0625 0  0.9375 0.0625 0  0.96875 0.0625 0  1 0.0625 0  0 0.09375 0  0.03125 0.09375 0  0.0625 0.09375 0  0.09375 0.09375 0  0.125 0.09375 0  0.15625 0.09375 0  0.1875 0.09375 0  0.21875 0.09375 0  0.25 0.09375 0  0.28125 0.09375 0  0.3125 0.09375 0  0.34375 0.09375 0  0.375 0.09375 0  0.40625 0.09375 0  0.4375 0.09375 0  0.46875 0.09375 0  0.5 0.09375 0  0.53125 0.09375 0  0.5625 0.09375 0  0.59375 0.09375 0  0.625 0.09375 0  0.65625 0.09375 0  0.6875 0.09375 0  0.71875 0.09375 0  0.75 0.09375 0  0.78125 0.09375 0  0.8125 0.09375 0  0.84375 0.09375 0  0.875 0.09375 0  0.90625 0.09375 0  0.9375 0.09375 0  0.96875 0.09375 0  1 0.09375 0  0 0.125 0  0.03125 0.125 0  0.0625 0.125 0  0.09375 0.125 0  0.125 0.125 0  0.15625 0.125 0  0.1875 0.125 0  0.21875 0.125 0  0.25 0.125 0  0.28125 0.125 0  0.3125 0.125 0  0.34375 0.125 0  0.375 0.125 0  0.40625 0.125 0  0.4375 0.125 0  0.46875 0.125 0  0.5 0.125 0  0.53125 0.125 0  0.5625 0.125 0  0.59375 0.125 0  0.625 0.125 0  0.65625 0.125 0  0.6875 0.125 0  0.71875 0.125 0  0.75 0.125 0  0.78125 0.125 0  0.8125 0.125 0  0.84375 0.125 0  0.875 0.125 0  0.90625 0.125 0  0.9375 0.125 0  0.96875 0.125 0  1 0.125 0  0 0.15625 0  0.03125 0.15625 0  0.0625 0.15625 0  0.09375 0.15625 0  0.125 0.15625 0  0.15625 0.15625 0  0.1875 0.15625 0  0.21875 0.15625 0  0.25 0.15625 0  0.28125 0.15625 0  0.3125 0.15625 0  0.34375 0.15625 0  0.375 0.15625 0  0.40625 0.15625 0  0.4375 0.15625 0  0.46875 0.15625 0  0.5 0.15625 0  0.53125 0.15625 0  0.5625 0.15625 0  0.59375 0.15625 0  0.625 0.15625 0  0.65625 0.15625 0  0.6875 0.15625 0  0.71875 0.15625 0  0.75 0.15625 0  0.78125 0.15625 0  0.8125 0.15625 0  0.84375 0.15625 0  0.875 0.15625 0  0.90625 0.15625 0  0.9375 0.15625 0  0.96875 0.15625 0  1 0.15625 0  0 0.1875 0  0.03125 0.1875 0  0.0625 0.1875 0  0.09375 0.1875 0  0.125 0.1875 0  0.15625 0.1875 0  0.1875 0.1875 0  0.21875 0.1875 0  0.25 0.1875 0  0.28125 0.1875 0  0.3125 0.1875 0  0.34375 0.1875 0  0.375 0.1875 0  0.40625 0.1875 0  0.4375 0.1875 0  0.46875 0.1875 0  0.5 0.1875 0  0.53125 0.1875 0  0.5625 0.1875 0  0.59375 0.1875 0  0.625 0.1875 0  0.65625 0.1875 0  0.6875 0.1875 0  0.71875 0.1875 0  0.75 0.1875 0  0.78125 0.1875 0  0.8125 0.1875 0  0.84375 0.1875 0  0.875 0.1875 0  0.90625 0.1875 0  0.9375 0.1875 0  0.96875 0.1875 0  1 0.1875 0  0 0.21875 0  0.03125 0.21875 0  0.0625 0.21875 0  0.09375 0.21875 0  0.125 0.21875 0  0.15625 0.21875 0  0.1875 0.21875 0  0.21875 0.21875 0  0.25 0.21875 0  0.28125 0.21875 0  0.3125 0.21875 0  0.34375 0.21875 0  0.375 0.21875 0  0.40625 0.21875 0  0.4375 0.21875 0  0.46875 0.21875 0  0.5 0.21875 0  0.53125 0.21875 0  0.5625 0.21875 0  0.59375 0.21875 0  0.625 0.21875 0  0.65625 0.21875 0  0.6875 0.21875 0  0.71875 0.21875 0  0.75 0.21875 0  0.78125 0.21875 0  0.8125 0.21875 0  0.84375 0.21875 0  0.875 0.21875 0  0.90625 0.21875 0  0.9375 0.21875 0  0.96875 0.21875 0  1 0.21875 0  0 0.25 0  0.03125 0.25 0  0.0625 0.25 0  0.09375 0.25 0  0.125 0.25 0  0.15625 0.25 0  0.1875 0.25 0  0.21875 0.25 0  0.25 0.25 0  0.28125 0.25 0  0.3125 0.25 0  0.34375 0.25 0  0.375 0.25 0  0.40625 0.25 0  0.4375 0.25 0  0.46875 0.25 0  0.5 0.25 0  0.53125 0.25 0  0.5625 0.25 0  0.59375 0.25 0  0.625 0.25 0  0.65625 0.25 0  0.6875 0.25 0  0.71875 0.25 0  0.75 0.25 0  0.78125 0.25 0  0.8125 0.25 0  0.84375 0.25 0  0.875 0.25 0  0.90625 0.25 0  0.9375 0.25 0  0.96875 0.25 0  1 0.25 0  0 0.28125 0  0.03125 0.28125 0  0.0625 0.28125 0  0.09375 0.28125 0  0.125 0.28125 0  0.15625 0.28125 0  0.1875 0.28125 0  0.21875 0.28125 0  0.25 0.28125 0  0.28125 0.28125 0  0.3125 0.28125 0  0.34375 0.28125 0  0.375 0.28125 0  0.40625 0.28125 0  0.4375 0.28125 0  0.46875 0.28125 0  0.5 0.28125 0  0.53125 0.28125 0  0.5625 0.28125 0  0.59375 0.28125 0  0.625 0.28125 0  0.65625 0.28125 0  0.6875 0.28125 0  0.71875 0.28125 0  0.75 0.28125 0  0.78125 0.28125 0  0.8125 0.28125 0  0.84375 0.28125 0  0.875 0.28125 0  0.90625 0.28125 0  0.9375 0.28125 0  0.96875 0.28125 0  1 0.28125 0  0 0.3125 0  0.03125 0.3125 0  0.0625 0.3125 0  0.09375 0.3125 0  0.125 0.3125 0  0.15625 0.3125 0  0.1875 0.3125 0  0.21875 0.3125 0  0.25 0.3125 0  0.28125 0.3125 0  0.3125 0.3125 0  0.34375 0.3125 0  0.375 0.3125 0  0.40625 0.3125 0  0.4375 0.3125 0  0.46875 0.3125 0  0.5 0.3125 0  0.53125 0.3125 0  0.5625 0.3125 0  0.59375 0.3125 0  0.625 0.3125 0  0.65625 0.3125 0  0.6875 0.3125 0  0.71875 0.3125 0  0.75 0.3125 0  0.78125 0.3125 0  0.8125 0.3125 0  0.84375 0.3125 0  0.875 0.3125 0  0.90625 0.3125 0  0.9375 0.3125 0  0.96875 0.3125 0  1 0.3125 0  0 0.34375 0  0.03125 0.34375 0  0.0625 0.34375 0  0.09375 0.34375 0  0.125 0.34375 0  0.15625 0.34375 0  0.1875 0.34375 0  0.21875 0.34375 0  0.25 0.34375 0  0.28125 0.34375 0  0.3125 0.34375 0  0.34375 0.34375 0  0.375 0.34375 0  0.40625 0.34375 0  0.4375 0.34375 0  0.46875 0.34375 0  0.5 0.34375 0  0.53125 0.34375 0  0.5625 0.34375 0  0.59375 0.34375 0  0.625 0.34375 0  0.65625 0.34375 0  0.6875 0.34375 0  0.71875 0.34375 0  0.75 0.34375 0  0.78125 0.34375 0  0.8125 0.34375 0  0.84375 0.34375 0  0.875 0.34375 0  0.90625 0.34375 0  0.9375 0.34375 0  0.96875 0.34375 0  1 0.34375 0  0 0.375 0  0.03125 0.375 0  0.0625 0.375 0  0.09375 0.375 0  0.125 0.375 0  0.15625 0.375 0  0.1875 0.375 0  0.21875 0.375 0  0.25 0.375 0  0.28125 0.375 0  0.3125 0.375 0  0.34375 0.375 0  0.375 0.375 0  0.40625 0.375 0  0.4375 0.375 0  0.46875 0.375 0  0.5 0.375 0  0.53125 0.375 0  0.5625 0.375 0  0.59375 0.375 0  0.625 0.375 0  0.65625 0.375 0  0.6875 0.375 0  0.71875 0.375 0  0.75 0.375 0  0.78125 0.375 0  0.8125 0.375 0  0.84375 0.375 0  0.875 0.375 0  0.90625 0.375 0  0.9375 0.375 0  0.96875 0.375 0  1 0.375 0  0 0.40625 0  0.03125 0.40625 0  0.0625 0.40625 0  0.09375 0.40625 0  0.125 0.40625 0  0.15625 0.40625 0  0.1875 0.40625 0  0.21875 0.40625 0  0.25 0.40625 0  0.28125 0.40625 0  0.3125 0.40625 0  0.34375 0.40625 0  0.375 0.40625 0  0.40625 0.40625 0  0.4375 0.40625 0  0.46875 0.40625 0  0.5 0.40625 0  0.53125 0.40625 0  0.5625 0.40625 0  0.59375 0.40625 0  0.625 0.40625 0  0.65625 0.40625 0  0.6875 0.40625 0  0.71875 0.40625 0  0.75 0.40625 0  0.78125 0.40625 0  0.8125 0.40625 0  0.84375 0.40625 0  0.875 0.40625 0  0.90625 0.40625 0  0.9375 0.40625 0  0.96875 0.40625 0  1 0.40625 0  0 0.4375 0  0.03125 0.4375 0  0.0625 0.4375 0  0.09375 0.4375 0  0.125 0.4375 0  0.15625 0.4375 0  0.1875 0.4375 0  0.21875 0.4375 0  0.25 0.4375 0  0.28125 0.4375 0  0.3125 0.4375 0  0.34375 0.4375 0  0.375 0.4375 0  0.40625 0.4375 0  0.4375 0.4375 0  0.46875 0.4375 0  0.5 0.4375 0  0.53125 0.4375 0  0.5625 0.4375 0  0.59375 0.4375 0  0.625 0.4375 0  0.65625 0.4375 0  0.6875 0.4375 0  0.71875 0.4375 0  0.75 0.4375 0  0.78125 0.4375 0  0.8125 0.4375 0  0.84375 0.4375 0  0.875 0.4375 0  0.90625 0.4375 0  0.9375 0.4375 0  0.96875 0.4375 0  1 0.4375 0  0 0.46875 0  0.03125 0.46875 0  0.0625 0.46875 0  0.09375 0.46875 0  0.125 0.46875 0  0.15625 0.46875 0  0.1875 0.46875 0  0.21875 0.46875 0  0.25 0.46875 0  0.28125 0.46875 0  0.3125 0.46875 0  0.34375 0.46875 0  0.375 0.46875 0  0.40625 0.46875 0  0.4375 0.46875 0  0.46875 0.46875 0  0.5 0.46875 0  0.53125 0.46875 0  0.5625 0.46875 0  0.59375 0.46875 0  0.625 0.46875 0  0.65625 0.46875 0  0.6875 0.46875 0  0.71875 0.46875 0  0.75 0.46875 0  0.78125 0.46875 0  0.8125 0.46875 0  0.84375 0.46875 0  0.875 0.46875 0  0.90625 0.46875 0  0.9375 0.46875 0  0.96875 0.46875 0  1 0.46875 0  0 0.5 0  0.03125 0.5 0  0.0625 0.5 0  0.09375 0.5 0  0.125 0.5 0  0.15625 0.5 0  0.1875 0.5 0  0.21875 0.5 0  0.25 0.5 0  0.28125 0.5 0  0.3125 0.5 0  0.34375 0.5 0  0.375 0.5 0  0.40625 0.5 0  0.4375 0.5 0  0.46875 0.5 0  0.5 0.5 0  0.53125 0.5 0  0.5625 0.5 0  0.59375 0.5 0  0.625 0.5 0  0.65625 0.5 0  0.6875 0.5 0  0.71875 0.5 0  0.75 0.5 0  0.78125 0.5 0  0.8125 0.5 0  0.84375 0.5 0  0.875 0.5 0  0.90625 0.5 0  0.9375 0.5 0  0.96875 0.5 0  1 0.5 0  0 0.53125 0  0.03125 0.53125 0  0.0625 0.53125 0  0.09375 0.53125 0  0.125 0.53125 0  0.15625 0.53125 0  0.1875 0.53125 0  0.21875 0.53125 0  0.25 0.53125 0  0.28125 0.53125 0  0.3125 0.53125 0  0.34375 0.53125 0  0.375 0.53125 0  0.40625 0.53125 0  0.4375 0.53125 0  0.46875 0.53125 0  0.5 0.53125 0  0.53125 0.53125 0  0.5625 0.53125 0  0.59375 0.53125 0  0.625 0.53125 0  0.65625 0.53125 0  0.6875 0.53125 0  0.71875 0.53125 0  0.75 0.53125 0  0.78125 0.531
[...]
<PointData  Vectors="f_25066"> 
<DataArray  type="Float64"  Name="f_25066"  NumberOfComponents="3" format="ascii">-3.4969143913033714e-04 3.4963581158995615e-04 0.0000000000000000e+00  -2.5758530640817570e-04 -1.7651862730683787e-01 0.0000000000000000e+00  -2.2711656442280713e-04 -3.4647850817018583e-01 0.0000000000000000e+00  -1.9322328734956782e-04 -5.0311208722461109e-01 0.0000000000000000e+00  -1.5243681266137460e-04 -6.4041051934368542e-01 0.0000000000000000e+00  -1.0582934426088764e-04 -7.5309829088742697e-01 0.0000000000000000e+00  -5.5158199705425715e-05 -8.3684491018427354e-01 0.0000000000000000e+00  -2.3688526550465845e-06 -8.8843204224579020e-01 0.0000000000000000e+00  5.0510811165026854e-05 -9.0587722545994942e-01 0.0000000000000000e+00  1.0144916649181327e-04 -8.8851005374649483e-01 0.0000000000000000e+00  1.4848886977442591e-04 -8.3699793874234230e-01 0.0000000000000000e+00  1.8982223474622864e-04 -7.5332046233197469e-01 0.0000000000000000e+00  2.2386083942921390e-04 -6.4069330302327065e-01 0.0000000000000000e+00  2.4929659772538875e-04 -5.0344465938497041e-01 0.0000000000000000e+00  2.6515202755501518e-04 -3.4684891982158678e-01 0.0000000000000000e+00  2.7081781365846772e-04 -1.7692397078457386e-01 0.0000000000000000e+00  2.6607622305885385e-04 -1.9993277041486837e-04 0.0000000000000000e+00  2.5110947242425413e-04 1.7653178854798779e-01 0.0000000000000000e+00  2.2649272558830378e-04 3.4647949223265512e-01 0.0000000000000000e+00  1.9317199032958051e-04 5.0311218333873819e-01 0.0000000000000000e+00  1.5242776383942800e-04 6.4041055538754099e-01 0.0000000000000000e+00  1.0582582416715284e-04 7.5309830893820995e-01 0.0000000000000000e+00  5.5157060968964497e-05 8.3684491681181616e-01 0.0000000000000000e+00  2.3686750874627610e-06 8.8843204379527352e-01 0.0000000000000000e+00  -5.0510509427345999e-05 9.0587722531440240e-01 0.0000000000000000e+00  -1.0144725262630394e-04 8.8851005167590791e-01 0.0000000000000000e+00  -1.4847810259298251e-04 8.3699792733405254e-01 0.0000000000000000e+00  -1.8976339333479458e-04 7.5332039896152592e-01 0.0000000000000000e+00  -2.2353779357832802e-04 6.4069294671219523e-01 0.0000000000000000e+00  -2.4751637362029533e-04 5.0344266123132619e-01 0.0000000000000000e+00  -2.5561957412234998e-04 3.4683795342789120e-01 0.0000000000000000e+00  -2.2559579815769725e-04 1.7686717016359335e-01 0.0000000000000000e+00  -9.9282512823108227e-05 -9.9206098725051787e-05 0.0000000000000000e+00  1.7651840365634891e-01 2.5789092576757446e-04 0.0000000000000000e+00  1.7328055488140351e-01 -1.7328062197749472e-01 0.0000000000000000e+00  1.6325477663982485e-01 -3.3997711182114759e-01 0.0000000000000000e+00  1.4693701416659521e-01 -4.9358685075017628e-01 0.0000000000000000e+00  1.2497059747221308e-01 -6.2822544203258002e-01 0.0000000000000000e+00  9.8201415227747391e-02 -7.3872130813302406e-01 0.0000000000000000e+00  6.7658378867400726e-02 -8.2082848635108230e-01 0.0000000000000000e+00  3.4515266945012044e-02 -8.7139168657798438e-01 0.0000000000000000e+00  4.5752938057627003e-05 -8.8846779579962609e-01 0.0000000000000000e+00  -3.4425519145925017e-02 -8.7140058710182910e-01 0.0000000000000000e+00  -6.7573837805233961e-02 -8.2084594279342571e-01 0.0000000000000000e+00  -9.8125331778574978e-02 -7.3874664926173184e-01 0.0000000000000000e+00  -1.2490592428356422e-01 -6.2825773628977388e-01 0.0000000000000000e+00  -1.4688645216668714e-01 -4.9362523084208987e-01 0.0000000000000000e+00  -1.6322221606789183e-01 -3.4002298460124264e-01 0.0000000000000000e+00  -1.7328544174166990e-01 -1.7335384574925802e-01 0.0000000000000000e+00  -1.7668940506891007e-01 -2.2815823087982832e-05 0.0000000000000000e+00  -1.7330329364791178e-01 1.7330909090236815e-01 0.0000000000000000e+00  -1.6325723384163007e-01 3.3998082645730360e-01 0.0000000000000000e+00  -1.4693729009451736e-01 4.9358728951492298e-01 0.0000000000000000e+00  -1.2497062869238079e-01 6.2822546984336836e-01 0.0000000000000000e+00  -9.8201416113411474e-02 7.3872129767822259e-01 0.0000000000000000e+00  -6.7658378182041928e-02 8.2082848032042155e-01 0.0000000000000000e+00  -3.4515266703323229e-02 8.7139168477452456e-01 0.0000000000000000e+00  -4.5752789150525605e-05 8.8846779536731879e-01 0.0000000000000000e+00  3.4425519928669504e-02 8.7140058620034844e-01 0.0000000000000000e+00  6.7573842706406415e-02 8.2084593711623788e-01 0.0000000000000000e+00  9.8125362220555415e-02 7.3874661449111934e-01 0.0000000000000000e+00  1.2490610619300778e-01 6.2825753201826418e-01 0.0000000000000000e+00  1.4688749443454330e-01 4.9362406514707696e-01 0.0000000000000000e+00  1.6322796823841215e-01 3.4001644845728796e-01 0.0000000000000000e+00  1.7331654239035055e-01 1.7331645505937160e-01 0.0000000000000000e+00  1.7686717842418942e-01 -2.2565695746526242e-04 0.0000000000000000e+00  3.4647840945272246e-01 2.2720246861787511e-04 0.0000000000000000e+00  3.3997710602713060e-01 -1.6325476920120324e-01 0.0000000000000000e+00  3.2028259663017139e-01 -3.2028261902564598e-01 0.0000000000000000e+00  2.8825995614824668e-01 -4.6497849410705344e-01 0.0000000000000000e+00  2.4515610163301116e-01 -5.9180154057077594e-01 0.0000000000000000e+00  1.9263049240207725e-01 -6.9588135086083935e-01 0.0000000000000000e+00  1.3270213806548989e-01 -7.7321874051989337e-01 0.0000000000000000e+00  6.7674107051135954e-02 -8.2084175412918770e-01 0.0000000000000000e+00  4.5396966917647380e-05 -8.3692027761485999e-01 0.0000000000000000e+00  -6.7585057773511661e-02 -8.2083642411447699e-01 0.0000000000000000e+00  -1.3261825663869692e-01 -7.7320828723550583e-01 0.0000000000000000e+00  -1.9255501027025837e-01 -6.9586618952951840e-01 0.0000000000000000e+00  -2.4509198284252195e-01 -5.9178234441339428e-01 0.0000000000000000e+00  -2.8821020796340863e-01 -4.6495663567761764e-01 0.0000000000000000e+00  -3.2025267642246935e-01 -3.2026290418339748e-01 0.0000000000000000e+00  -3.3998801412639423e-01 -1.6326164888688802e-01 0.0000000000000000e+00  -3.4665780311491606e-01 1.3660018160880826e-05 0.0000000000000000e+00  -3.4000572713766763e-01 1.6328844397637296e-01 0.0000000000000000e+00  -3.2028742174392788e-01 3.2028814460578792e-01 0.0000000000000000e+00  -2.8826065035182580e-01 4.6497935145766428e-01 0.0000000000000000e+00  -2.4515618382513141e-01 5.9180166259643618e-01 0.0000000000000000e+00  -1.9263050263910217e-01 6.9588136772768283e-01 0.0000000000000000e+00  -1.3270213926407756e-01 7.7321874215064068e-01 0.0000000000000000e+00  -6.7674107089096658e-02 8.2084175392871983e-01 0.0000000000000000e+00  -4.5396869132663439e-05 8.3692027736545405e-01 0.0000000000000000e+00  6.7585058346268406e-02 8.2083642343035457e-01 0.0000000000000000e+00  1.3261826032066765e-01 7.7320828319203028e-01 0.0000000000000000e+00  1.9255503300445614e-01 6.9586616464292794e-01 0.0000000000000000e+00  2.4509211987629956e-01 5.9178219333511617e-01 0.0000000000000000e+00  2.8821102233158791e-01 4.6495572992788758e-01 0.0000000000000000e+00  3.2025747015581535e-01 3.2025748559106476e-01 0.0000000000000000e+00  3.4001648256212780e-01 1.6322794412437563e-01 0.0000000000000000e+00  3.4683791631461436e-01 -2.5560699898002275e-04 0.0000000000000000e+00  5.0311204910665064e-01 1.9326872148789321e-04 0.0000000000000000e+00  4.9358692717190367e-01 -1.4693706710098126e-01 0.0000000000000000e+00  4.6497849249824824e-01 -2.8825995285998035e-01 0.0000000000000000e+00  4.1848203895369002e-01 -4.1848205270106209e-01 0.0000000000000000e+00  3.5590010518158366e-01 -5.3261823200308422e-01 0.0000000000000000e+00  2.7964051293157949e-01 -6.2628549852123372e-01 0.0000000000000000e+00  1.9263437956930349e-01 -6.9588483769589993e-01 0.0000000000000000e+00  9.8225397027157463e-02 -7.3874169125626066e-01 0.0000000000000000e+00  4.1665476269835868e-05 -7.5320911322878958e-01 0.0000000000000000e+00  -9.8143667478421265e-02 -7.3873113122282752e-01 0.0000000000000000e+00  -1.9255739435059827e-01 -6.9586412618337745e-01 0.0000000000000000e+00  -2.7957124854452065e-01 -6.2625545304611807e-01 0.0000000000000000e+00  -3.5584133644206750e-01 -5.3258013406257088e-01 0.0000000000000000e+00  -4.1843664133833297e-01 -4.1843805920242205e-01 0.0000000000000000e+00  -4.6495166076995775e-01 -2.8821564439003378e-01 0.0000000000000000e+00  -4.9359884862609238e-01 -1.4691726399694308e-01 0.0000000000000000e+00  -5.0327730954295036e-01 2.7064459400773920e-05 0.0000000000000000e+00  -4.9361510569524064e-01 1.4697035284374910e-01 0.0000000000000000e+00  -4.6498355015820436e-01 2.8826565299023732e-01 0.0000000000000000e+00  -4.1848293755437427e-01 4.1848306575355865e-01 0.0000000000000000e+00  -3.5590026034828737e-01 5.3261840898800294e-01 0.0000000000000000e+00  -2.7964053572822173e-01 6.2628552546092986e-01 0.0000000000000000e+00  -1.9263438214410117e-01 6.9588484041511589e-01 0.0000000000000000e+00  -9.8225397281019963e-02 7.3874169120484978e-01 0.0000000000000000e+00  -4.1665452289523374e-05 7.5320911305632032e-01 0.0000000000000000e+00  9.8143667809923577e-02 7.3873113081828712e-01 0.0000000000000000e+00  1.9255739673161329e-01 6.9586412353900018e-01 0.0000000000000000e+00  2.7957126470022581e-01 6.2625543513613313e-01 0.0000000000000000e+00  3.5584144140416002e-01 5.3258001779213715e-01 0.0000000000000000e+00  4.1843730151726899e-01 4.1843732549212115e-01 0.0000000000000000e+00  4.6495573775535071e-01 2.8821105060264518e-01 0.0000000000000000e+00  4.9362412065754557e-01 1.4688749364716888e-01 0.0000000000000000e+00  5.0344267240756513e-01 -2.4751791519603863e-04 0.0000000000000000e+00  6.4041051508894986e-01 1.5245229824059891e-04 0.0000000000000000e+00  6.2822552000594778e-01 -1.2497062894153087e-01 0.0000000000000000e+00  5.9180157765531660e-01 -2.4515611365056950e-01 0.0000000000000000e+00  5.3261821765640982e-01 -3.5590012433653939e-01 0.0000000000000000e+00  4.5296351446843353e-01 -4.5296353536375678e-01 0.0000000000000000e+00  3.5590108234457790e-01 -5.3261914567579727e-01 0.0000000000000000e+00  2.4516145942551751e-01 -5.9180637715011442e-01 0.0000000000000000e+00  1.2500039918823658e-01 -6.2825079892108016e-01 0.0000000000000000e+00  3.5640026163517246e-05 -6.4055189054867800e-01 0.0000000000000000e+00  -1.2493048934575332e-01 -6.2823693155883864e-01 0.0000000000000000e+00  -2.4509561013758616e-01 -5.9177917954231340e-01 0.0000000000000000e+00  -3.5584184408961239e-01 -5.3257968553021795e-01 0.0000000000000000e+00  -4.5291327553240240e-01 -4.5291345288006929e-01 0.0000000000000000e+00  -5.3257950379318320e-01 -3.5584201023353379e-01 0.0000000000000000e+00  -5.9177900039721576e-01 -2.4509575869244335e-01 0.0000000000000000e+00  -6.2823676188947253e-01 -1.2493061459612112e-01 0.0000000000000000e+00  -6.4055173694155310e-01 3.5542957230872075e-05 0.0000000000000000e+00  -6.2825066796852302e-01 1.2500033461466969e-01 0.0000000000000000e+00  -5.9180627815249909e-01 2.4516143351386468e-01 0.0000000000000000e+00  -5.3261910495587028e-01 3.5590111601125102e-01 0.0000000000000000e+00  -4.5296367825207479e-01 4.5296371821202669e-01 0.0000000000000000e+00  -3.5590111141821579e-01 5.3261917874712117e-01 0.0000000000000000e+00  -2.4516146446490131e-01 5.9180638294001220e-01 0.0000000000000000e+00  -1.2500039992176598e-01 6.2825079972690256e-01 0.0000000000000000e+00  -3.5640104882249347e-05 6.4055189060076012e-01 0.0000000000000000e+00  1.2493048944858223e-01 6.2823693142520143e-01 0.0000000000000000e+00  2.4509561135374952e-01 5.9177917819213655e-01 0.0000000000000000e+00  3.5584185404584856e-01 5.3257967455179078e-01 0.0000000000000000e+00  4.5291334770965935e-01 4.5291337317449565e-01 0.0000000000000000e+00  5.3257999408608681e-01 3.5584146614029932e-01 0.0000000000000000e+00  5.9178221111656826e-01 2.4509214535120311e-01 0.0000000000000000e+00  6.2825759000568626e-01 1.2490611177062477e-01 0.0000000000000000e+00  6.4069297614788345e-01 -2.2355033223645396e-04 0.0000000000000000e+00  7.5309828740739571e-01 1.0583607309789336e-04 0.0000000000000000e+00  7.3872141438474348e-01 -9.8201433776063968e-02 0.0000000000000000e+00  6.9588140956515221e-01 -1.9263051095625947e-01 0.0000000000000000e+00  6.2628547569030357e-01 -2.7964052736904471e-01 0.0000000000000000e+00  5.3261912134564859e-01 -3.5590110249889118e-01 0.0000000000000000e+00  4.1848398847761326e-01 -4.1848401141110347e-01 0.0000000000000000e+00  2.8826664850518419e-01 -4.6498470156573035e-01 0.0000000000000000e+00  1.4697136335171090e-01 -4.9361626898944200e-01 0.0000000000000000e+00  2.8047410087663146e-05 -5.0327843588312049e-01 0.0000000000000000e+00  -1.4691634702501036e-01 -4.9359989396650222e-01 0.0000000000000000e+00  -2.8821482875640769e-01 -4.6495258478956547e-01 0.0000000000000000e+00  -4.1843737627063193e-01 -4.1843740850367300e-01 0.0000000000000000e+00  -5.3257961007918186e-01 -3.5584191726939540e-01 0.0000000000000000e+00  -6.2625510814666496e-01 -2.7957162071303432e-01 0.0000000000000000e+00  -6.9586397361600594e-01 -1.9255754355835233e-01 0.0000000000000000e+00  -7.3873117682429756e-01 -9.8143587992271894e-02 0.0000000000000000e+00  -7.5320935519244891e-01 4.1970620785980516e-05 0.0000000000000000e+00  -7.3874212044522791e-01 9.8225916326424245e-02 0.0000000000000000e+00  -6.9588544030065391e-01 1.9263509515337016e-01 0.0000000000000000e+00  -6.2628627294239336e-01 2.7964141530459602e-01 0.0000000000000000e+00  -5.3261927534042297e-01 3.5590127269046473e-01 0.0000000000000000e+00  -4.1848401768381105e-01 4.1848404375896875e-01 0.0000000000000000e+00  -2.8826665391772044e-01 4.6498470771609934e-01 0.0000000000000000e+00  -1.4697136430965674e-01 4.9361627012904807e-01 0.0000000000000000e+00  -2.8047614934682531e-05 5.0327843612757961e-01 0.0000000000000000e+00  1.4691634689123256e-01 4.9359989411474103e-01 0.0000000000000000e+00  2.8821482875570253e-01 4.6495258479024604e-01 0.0000000000000000e+00  4.1843737963090522e-01 4.1843740480386521e-01 0.0000000000000000e+00  5.3257964690874426e-01 3.5584187663490763e-01 0.0000000000000000e+00  6.2625541057812162e-01 2.7957128544848542e-01 0.0000000000000000e+00  6.9586618888515783e-01 1.9255505273010948e-01 0.0000000000000000e+00  7.3874667573247332e-01 9.8125366718177398e-02 0.0000000000000000e+00  7.5332043541117388e-01 -1.8977796139869511e-04 0.0000000000000000e+00  8.3684490417922330e-01 5.5159722518878479e-05 0.0000000000000000e+00  8.2082862944176538e-01 -6.7658393942222742e-02 0.0000000000000000e+00  7.7321880929506903e-01 -1.3270215413147210e-01 0.0000000000000000e+00  6.9588481143863001e-01 -1.9263438985402326e-01 0.0000000000000000e+00  5.9180634659375764e-01 -2.4516147387408524e-01 0.0000000000000000e+00  4.6498467397745596e-01 -2.8826666499205261e-01 0.0000000000000000e+00  3.2029381412276309e-01 -3.2029383401842970e-01 0.0000000000000000e+00  1.6329422488592057e-01 -3.4001227131831313e-01 0.0000000000000000e+00  1.9326854900894909e-05 -3.4666422413144904e-01 0.0000000000000000e+00  -1.6325631455746742e-01 -3.3999406450228670e-01 0.0000000000000000e+00  -3.2025810748200895e-01 -3.2025812350056365e-01 0.0000000000000000e+00  -4.6495256096017695e-01 -2.8821484238875145e-01 0.0000000000000000e+00  -5.9177914827295530e-01 -2.4509562651152333e-01 0.0000000000000000e+00  -6.9586399479179417e-01 -1.9255752315786998e-01 0.0000000000000000e+00  -7.7320717823587426e-01 -1.3261954217670391e-01 0.0000000000000000e+00  -8.2083644343993711e-01 -6.7585066563590729e-02 0.0000000000000000e+00  -8.3692142445298490e-01 4.6665255415246050e-05 0.0000000000000000e+00  -8.2084398447524631e-01 6.7676603754825593e-02 0.0000000000000000e+00  -7.7322197050873931e-01 1.3270576832541867e-01 0.0000000000000000e+00  -6.9588546984347777e-01 1.9263512464154062e-01 0.0000000000000000e+00  -5.9180648082930043e-01 2.4516162114882281e-01 0.0000000000000000e+00  -4.6498470064625047e-01 2.8826669404412664e-01 0.0000000000000000e+00  -3.2029381918616512e-01 3.2029383955175839e-01 0.0000000000000000e+00  -1.6329422588851888e-01 3.4001227244031151e-01 0.0000000000000000e+00  -1.9327114050771915e-05 3.4666422443258699e-01 0.0000000000000000e+00  1.6325631419993009e-01 3.3999406490190726e-01 0.0000000000000000e+00  3.2025810626942602e-01 3.2025812484139654e-01 0.0000000000000000e+00  4.6495255763114846e-01 2.8821484608302561e-01 0.0000000000000000e+00  5.9177914840720569e-01 2.4509562650140521e-01 0.0000000000000000e+00  6.9586409742936561e-01 1.9255740994901963e-01 0.0000000000000000e+00  7.7320830977466104e-01 1.3261827230704595e-01 0.0000000000000000e+00  8.2084599823484539e-01 6.7573844090262222e-02 0.0000000000000000e+00  8.3699796136522697e-01 -1.4849179847687509e-04 0.0000000000000000e+00  8.8843203878233190e-01 2.3650475126003297e-06 0.0000000000000000e+00  8.7139185869248537e-01 -3.4515278591504939e-02 0.0000000000000000e+00  8.2084183097037033e-01 -6.7674119425764401e-02 0.0000000000000000e+00  7.3874166531153584e-01 -9.8225406527771106e-02 0.0000000000000000e+00  6.2825076380077838e-01 -1.2500040896125902e-01 0.0000000000000000e+00  4.9361623780399599e-01 -1.4697137485698950e-01 0.0000000000000000e+00  3.4001224856232642e-01 -1.6329423867128826e-01 0.0000000000000000e+00  1.7334176510004823e-01 -1.7334178100992415e-01 0.0000000000000000e+00  9.8518670574338409e-06 -1.7672789274434467e-01 0.0000000000000000e+00  -1.7332244056187784e-01 -1.7332245004410601e-01 0.0000000000000000e+00  -3.3999404890983198e-01 -1.6325632267310664e-01 0.0000000000000000e+00  -4.9359987665149968e-01 -1.4691634635220843e-01 0.0000000000000000e+00  -6.2823693795166036e-01 -1.2493045722754795e-01 0.0000000000000000e+00  -7.3873120604637987e-01 -9.8143560692493997e-02 0.0000000000000000e+00  -8.2083644817809598e-01 -6.7585062159394221e-02 0.0000000000000000e+00  -8.7139740593673154e-01 -3.4429307589622433e-02 0.0000000000000000e+00  -8.8847105007051597e-01 4.9545962642201304e-05 0.0000000000000000e+00  -8.7140125001039648e-01 3.4526495491348848e-02 0.0000000000000000e+00  -8.2084398859983343e-01 6.7676611161009467e-02 0.0000000000000000e+00  -7.3874215304201363e-01 9.8225952617259166e-02 0.0000000000000000e+00  -6.2825087083428399e-01 1.2500052580031040e-01 0.0000000000000000e+00  -4.9361625998815778e-01 1.4697139887864000e-01 0.0000000000000000e+00  -3.4001225309696603e-01 1.6329424352398259e-01 0.0000000000000000e+00  -1.7334176601545759e-01 1.7334178198385528e-01 0.0000000000000000e+00  -9.8521492415889694e-06 1.7672789305281866e-01 0.0000000000000000e+00  1.7332243999840874e-01 1.7332245066753008e-01 0.0000000000000000e+00  3.3999404653417342e-01 1.6325632529873726e-01 0.0000000000000000e+00  4.9359986675749679e-01 1.4691635730222280e-01 0.0000000000000000e+00  6.2823690136180399e-01 1.2493049785131934e-01 0.0000000000000000e+00  7.3873110486177718e-01 9.8143673926225208e-02 0.0000000000000000e+00  8.2083645204269007e-01 6.7585062434713419e-02 0.0000000000000000e+00  8.7140064616780355e-01 3.4425518254032651e-02 0.0000000000000000e+00  8.8851008231286810e-01 -1.0146026791059012e-04 0.0000000000000000e+00  9.0587722825056805e-01 -5.0520479655618478e-05 0.0000000000000000e+00  8.8846798693673901e-01 -4.5759961955362690e-05 0.0000000000000000e+00  8.3692036054249808e-01 -4.5405724866576027e-05 0.0000000000000000e+00  7.5320908747431015e-01 -4.1673926432776142e-05 0.0000000000000000e+00  6.4055185494986400e-01 -3.5648831264547927e-05 0.0000000000000000e+00  5.0327840340718044e-01 -2.8057260237555839e-05 0.0000000000000000e+00  3.4666420030102724e-01 -1.9338457721375457e-05 0.0000000000000000e+00  1.7672787599945014e-01 -9.8653149588711510e-06 0.0000000000000000e+00  -3.8158406800111869e-09 -1.0559375176759119e-08 0.0000000000000000e+00  -1.7672788395639158e-01 9.8451040527883902e-06 0.0000000000000000e+00  -3.4666421072871656e-01 1.9322529873340631e-05 0.0000000000000000e+00  -5.0327842631395125e-01 2.8057421838296366e-05 0.0000000000000000e+00  -6.4055193422140488e-01 3.5714086663426832e-05 0.0000000000000000e+00  -7.5320939052315083e-01 4.1998280026766329e-05 0.0000000000000000e+00  -8.3692143235192495e-01 4.6668503219990411e-05 0.0000000000000000e+00  -8.8847105288638439e-01 4.9545282039851957e-05 0.0000000000000000e+00  -9.0587722