<?xml version="1.0"?>
<VTKFile type="UnstructuredGrid"  version="0.1"  >
<UnstructuredGrid>
<Piece  NumberOfPoints="1089" NumberOfCells="2048">
<Points>
<DataArray  type="Float64"  NumberOfComponents="3"  format="ascii">0 0 0  0.03125 0 0  0.0625 0 0  0.09375 0 0  0.125 0 0  0.15625 0 0  0.1875 0 0  0.21875 0 0  0.25 0 0  0.28125 0 0  0.3125 0 0  0.34375 0 0  0.375 0 0  0.40625 0 0  0.4375 0 0  0.46875 0 0  0.5 0 0  0.53125 0 0  0.5625 0 0  0.59375 0 0  0.625 0 0  0.65625 0 0  0.6875 0 0  0.71875 0 0  0.75 0 0  0.78125 0 0  0.8125 0 0  0.84375 0 0  0.875 0 0  0.90625 0 0  0.9375 0 0  0.96875 0 0  1 0 0  0 0.03125 0  0.03125 0.03125 0  0.0625 0.03125 0  0.09375 0.03125 0  0.125 0.03125 0  0.15625 0.03125 0  0.1875 0.03125 0  0.21875 0.03125 0  0.25 0.03125 0  0.28125 0.03125 0  0.3125 0.03125 0  0.34375 0.03125 0  0.375 0.03125 0  0.40625 0.03125 0  0.4375 0.03125 0  0.46875 0.03125 0  0.5 0.03125 0  0.53125 0.03125 0  0.5625 0.03125 0  0.59375 0.03125 0  0.625 0.03125 0  0.65625 0.03125 0  0.6875 0.03125 0  0.71875 0.03125 0  0.75 0.03125 0  0.78125 0.03125 0  0.8125 0.03125 0  0.84375 0.03125 0  0.875 0.03125 0  0.90625 0.03125 0  0.9375 0.03125 0  0.96875 0.03125 0  1 0.03125 0  0 0.0625 0  0.03125 0.0625 0  0.0625 0.0625 0  0.09375 0.0625 0  0.125 0.0625 0  0.15625 0.0625 0  0.1875 0.0625 0  0.21875 0.0625 0  0.25 0.0625 0  0.28125 0.0625 0  0.3125 0.0625 0  0.34375 0.0625 0  0.375 0.0625 0  0.40625 0.0625 0  0.4375 0.0625 0  0.46875 0.0625 0  0.5 0.0625 0  0.53125 0.0625 0  0.5625 0.0625 0  0.59375 0.0625 0  0.625 0.0625 0  0.65625 0.0625 0  0.6875 0.0625 0  0.71875 0.0625 0  0.75 0.0625 0  0.78125 0.0625 0  0.8125 0.0625 0  0.84375 0.0625 0  0.875 0.0625 0  0.90625 0.0625 0  0.9375 0.0625 0  0.96875 0.0625 0  1 0.0625 0  0 0.09375 0  0.03125 0.09375 0  0.0625 0.09375 0  0.09375 0.09375 0  0.125 0.09375 0  0.15625 0.09375 0  0.1875 0.09375 0  0.21875 0.09375 0  0.25 0.09375 0  0.28125 0.09375 0  0.3125 0.09375 0  0.34375 0.09375 0  0.375 0.09375 0  0.40625 0.09375 0  0.4375 0.09375 0  0.46875 0.09375 0  0.5 0.09375 0  0.53125 0.09375 0  0.5625 0.09375 0  0.59375 0.09375 0  0.625 0.09375 0  0.65625 0.09375 0  0.6875 0.09375 0  0.71875 0.09375 0  0.75 0.09375 0  0.78125 0.09375 0  0.8125 0.09375 0  0.84375 0.09375 0  0.875 0.09375 0  0.90625 0.09375 0  0.9375 0.09375 0  0.96875 0.09375 0  1 0.09375 0  0 0.125 0  0.03125 0.125 0  0.0625 0.125 0  0.09375 0.125 0  0.125 0.125 0  0.15625 0.125 0  0.1875 0.125 0  0.21875 0.125 0  0.25 0.125 0  0.28125 0.125 0  0.3125 0.125 0  0.34375 0.125 0  0.375 0.125 0  0.40625 0.125 0  0.4375 0.125 0  0.46875 0.125 0  0.5 0.125 0  0.53125 0.125 0  0.5625 0.125 0  0.59375 0.125 0  0.625 0.125 0  0.65625 0.125 0  0.6875 0.125 0  0.71875 0.125 0  0.75 0.125 0  0.78125 0.125 0  0.8125 0.125 0  0.84375 0.125 0  0.875 0.125 0  0.90625 0.125 0  0.9375 0.125 0  0.96875 0.125 0  1 0.125 0  0 0.15625 0  0.03125 0.15625 0  0.0625 0.15625 0  0.09375 0.15625 0  0.125 0.15625 0  0.15625 0.15625 0  0.1875 0.15625 0  0.21875 0.15625 0  0.25 0.15625 0  0.28125 0.15625 0  0.3125 0.15625 0  0.34375 0.15625 0  0.375 0.15625 0  0.40625 0.15625 0  0.4375 0.15625 0  0.46875 0.15625 0  0.5 0.15625 0  0.53125 0.15625 0  0.5625 0.15625 0  0.59375 0.15625 0  0.625 0.15625 0  0.65625 0.15625 0  0.6875 0.15625 0  0.71875 0.15625 0  0.75 0.15625 0  0.78125 0.15625 0  0.8125 0.15625 0  0.84375 0.15625 0  0.875 0.15625 0  0.90625 0.15625 0  0.9375 0.15625 0  0.96875 0.15625 0  1 0.15625 0  0 0.1875 0  0.03125 0.1875 0  0.0625 0.1875 0  0.09375 0.1875 0  0.125 0.1875 0  0.15625 0.1875 0  0.1875 0.1875 0  0.21875 0.1875 0  0.25 0.1875 0  0.28125 0.1875 0  0.3125 0.1875 0  0.34375 0.1875 0  0.375 0.1875 0  0.40625 0.1875 0  0.4375 0.1875 0  0.46875 0.1875 0  0.5 0.1875 0  0.53125 0.1875 0  0.5625 0.1875 0  0.59375 0.1875 0  0.625 0.1875 0  0.65625 0.1875 0  0.6875 0.1875 0  0.71875 0.1875 0  0.75 0.1875 0  0.78125 0.1875 0  0.8125 0.1875 0  0.84375 0.1875 0  0.875 0.1875 0  0.90625 0.1875 0  0.9375 0.1875 0  0.96875 0.1875 0  1 0.1875 0  0 0.21875 0  0.03125 0.21875 0  0.0625 0.21875 0  0.09375 0.21875 0  0.125 0.21875 0  0.15625 0.21875 0  0.1875 0.21875 0  0.21875 0.21875 0  0.25 0.21875 0  0.28125 0.21875 0  0.3125 0.21875 0  0.34375 0.21875 0  0.375 0.21875 0  0.40625 0.21875 0  0.4375 0.21875 0  0.46875 0.21875 0  0.5 0.21875 0  0.53125 0.21875 0  0.5625 0.21875 0  0.59375 0.21875 0  0.625 0.21875 0  0.65625 0.21875 0  0.6875 0.21875 0  0.71875 0.21875 0  0.75 0.21875 0  0.78125 0.21875 0  0.8125 0.21875 0  0.84375 0.21875 0  0.875 0.21875 0  0.90625 0.21875 0  0.9375 0.21875 0  0.96875 0.21875 0  1 0.21875 0  0 0.25 0  0.03125 0.25 0  0.0625 0.25 0  0.09375 0.25 0  0.125 0.25 0  0.15625 0.25 0  0.1875 0.25 0  0.21875 0.25 0  0.25 0.25 0  0.28125 0.25 0  0.3125 0.25 0  0.34375 0.25 0  0.375 0.25 0  0.40625 0.25 0  0.4375 0.25 0  0.46875 0.25 0  0.5 0.25 0  0.53125 0.25 0  0.5625 0.25 0  0.59375 0.25 0  0.625 0.25 0  0.65625 0.25 0  0.6875 0.25 0  0.71875 0.25 0  0.75 0.25 0  0.78125 0.25 0  0.8125 0.25 0  0.84375 0.25 0  0.875 0.25 0  0.90625 0.25 0  0.9375 0.25 0  0.96875 0.25 0  1 0.25 0  0 0.28125 0  0.03125 0.28125 0  0.0625 0.28125 0  0.09375 0.28125 0  0.125 0.28125 0  0.15625 0.28125 0  0.1875 0.28125 0  0.21875 0.28125 0  0.25 0.28125 0  0.28125 0.28125 0  0.3125 0.28125 0  0.34375 0.28125 0  0.375 0.28125 0  0.40625 0.28125 0  0.4375 0.28125 0  0.46875 0.28125 0  0.5 0.28125 0  0.53125 0.28125 0  0.5625 0.28125 0  0.59375 0.28125 0  0.625 0.28125 0  0.65625 0.28125 0  0.6875 0.28125 0  0.71875 0.28125 0  0.75 0.28125 0  0.78125 0.28125 0  0.8125 0.28125 0  0.84375 0.28125 0  0.875 0.28125 0  0.90625 0.28125 0  0.9375 0.28125 0  0.96875 0.28125 0  1 0.28125 0  0 0.3125 0  0.03125 0.3125 0  0.0625 0.3125 0  0.09375 0.3125 0  0.125 0.3125 0  0.15625 0.3125 0  0.1875 0.3125 0  0.21875 0.3125 0  0.25 0.3125 0  0.28125 0.3125 0  0.3125 0.3125 0  0.34375 0.3125 0  0.375 0.3125 0  0.40625 0.3125 0  0.4375 0.3125 0  0.46875 0.3125 0  0.5 0.3125 0  0.53125 0.3125 0  0.5625 0.3125 0  0.59375 0.3125 0  0.625 0.3125 0  0.65625 0.3125 0  0.6875 0.3125 0  0.71875 0.3125 0  0.75 0.3125 0  0.78125 0.3125 0  0.8125 0.3125 0  0.84375 0.3125 0  0.875 0.3125 0  0.90625 0.3125 0  0.9375 0.3125 0  0.96875 0.3125 0  1 0.3125 0  0 0.34375 0  0.03125 0.34375 0  0.0625 0.34375 0  0.09375 0.34375 0  0.125 0.34375 0  0.15625 0.34375 0  0.1875 0.34375 0  0.21875 0.34375 0  0.25 0.34375 0  0.28125 0.34375 0  0.3125 0.34375 0  0.34375 0.34375 0  0.375 0.34375 0  0.40625 0.34375 0  0.4375 0.34375 0  0.46875 0.34375 0  0.5 0.34375 0  0.53125 0.34375 0  0.5625 0.34375 0  0.59375 0.34375 0  0.625 0.34375 0  0.65625 0.34375 0  0.6875 0.34375 0  0.71875 0.34375 0  0.75 0.34375 0  0.78125 0.34375 0  0.8125 0.34375 0  0.84375 0.34375 0  0.875 0.34375 0  0.90625 0.34375 0  0.9375 0.34375 0  0.96875 0.34375 0  1 0.34375 0  0 0.375 0  0.03125 0.375 0  0.0625 0.375 0  0.09375 0.375 0  0.125 0.375 0  0.15625 0.375 0  0.1875 0.375 0  0.21875 0.375 0  0.25 0.375 0  0.28125 0.375 0  0.3125 0.375 0  0.34375 0.375 0  0.375 0.375 0  0.40625 0.375 0  0.4375 0.375 0  0.46875 0.375 0  0.5 0.375 0  0.53125 0.375 0  0.5625 0.375 0  0.59375 0.375 0  0.625 0.375 0  0.65625 0.375 0  0.6875 0.375 0  0.71875 0.375 0  0.75 0.375 0  0.78125 0.375 0  0.8125 0.375 0  0.84375 0.375 0  0.875 0.375 0  0.90625 0.375 0  0.9375 0.375 0  0.96875 0.375 0  1 0.375 0  0 0.40625 0  0.03125 0.40625 0  0.0625 0.40625 0  0.09375 0.40625 0  0.125 0.40625 0  0.15625 0.40625 0  0.1875 0.40625 0  0.21875 0.40625 0  0.25 0.40625 0  0.28125 0.40625 0  0.3125 0.40625 0  0.34375 0.40625 0  0.375 0.40625 0  0.40625 0.40625 0  0.4375 0.40625 0  0.46875 0.40625 0  0.5 0.40625 0  0.53125 0.40625 0  0.5625 0.40625 0  0.59375 0.40625 0  0.625 0.40625 0  0.65625 0.40625 0  0.6875 0.40625 0  0.71875 0.40625 0  0.75 0.40625 0  0.78125 0.40625 0  0.8125 0.40625 0  0.84375 0.40625 0  0.875 0.40625 0  0.90625 0.40625 0  0.9375 0.40625 0  0.96875 0.40625 0  1 0.40625 0  0 0.4375 0  0.03125 0.4375 0  0.0625 0.4375 0  0.09375 0.4375 0  0.125 0.4375 0  0.15625 0.4375 0  0.1875 0.4375 0  0.21875 0.4375 0  0.25 0.4375 0  0.28125 0.4375 0  0.3125 0.4375 0  0.34375 0.4375 0  0.375 0.4375 0  0.40625 0.4375 0  0.4375 0.4375 0  0.46875 0.4375 0  0.5 0.4375 0  0.53125 0.4375 0  0.5625 0.4375 0  0.59375 0.4375 0  0.625 0.4375 0  0.65625 0.4375 0  0.6875 0.4375 0  0.71875 0.4375 0  0.75 0.4375 0  0.78125 0.4375 0  0.8125 0.4375 0  0.84375 0.4375 0  0.875 0.4375 0  0.90625 0.4375 0  0.9375 0.4375 0  0.96875 0.4375 0  1 0.4375 0  0 0.46875 0  0.03125 0.46875 0  0.0625 0.46875 0  0.09375 0.46875 0  0.125 0.46875 0  0.15625 0.46875 0  0.1875 0.46875 0  0.21875 0.46875 0  0.25 0.46875 0  0.28125 0.46875 0  0.3125 0.46875 0  0.34375 0.46875 0  0.375 0.46875 0  0.40625 0.46875 0  0.4375 0.46875 0  0.46875 0.46875 0  0.5 0.46875 0  0.53125 0.46875 0  0.5625 0.46875 0  0.59375 0.46875 0  0.625 0.46875 0  0.65625 0.46875 0  0.6875 0.46875 0  0.71875 0.46875 0  0.75 0.46875 0  0.78125 0.46875 0  0.8125 0.46875 0  0.84375 0.46875 0  0.875 0.46875 0  0.90625 0.46875 0  0.9375 0.46875 0  0.96875 0.46875 0  1 0.46875 0  0 0.5 0  0.03125 0.5 0  0.0625 0.5 0  0.09375 0.5 0  0.125 0.5 0  0.15625 0.5 0  0.1875 0.5 0  0.21875 0.5 0  0.25 0.5 0  0.28125 0.5 0  0.3125 0.5 0  0.34375 0.5 0  0.375 0.5 0  0.40625 0.5 0  0.4375 0.5 0  0.46875 0.5 0  0.5 0.5 0  0.53125 0.5 0  0.5625 0.5 0  0.59375 0.5 0  0.625 0.5 0  0.65625 0.5 0  0.6875 0.5 0  0.71875 0.5 0  0.75 0.5 0  0.78125 0.5 0  0.8125 0.5 0  0.84375 0.5 0  0.875 0.5 0  0.90625 0.5 0  0.9375 0.5 0  0.96875 0.5 0  1 0.5 0  0 0.53125 0  0.03125 0.53125 0  0.0625 0.53125 0  0.09375 0.53125 0  0.125 0.53125 0  0.15625 0.53125 0  0.1875 0.53125 0  0.21875 0.53125 0  0.25 0.53125 0  0.28125 0.53125 0  0.3125 0.53125 0  0.34375 0.53125 0  0.375 0.53125 0  0.40625 0.53125 0  0.4375 0.53125 0  0.46875 0.53125 0  0.5 0.53125 0  0.53125 0.53125 0  0.5625 0.53125 0  0.59375 0.53125 0  0.625 0.53125 0  0.65625 0.53125 0  0.6875 0.53125 0  0.71875 0.53125 0  0.75 0.53125 0  0.78125 0.531
[...]
<PointData  Vectors="f_27546"> 
<DataArray  type="Float64"  Name="f_27546"  NumberOfComponents="3" format="ascii">-2.2846769946219335e-04 2.2843135571811211e-04 0.0000000000000000e+00  -1.6829100110861783e-04 -1.1532682868450578e-01 0.0000000000000000e+00  -1.4838452754944829e-04 -2.2636856044177009e-01 0.0000000000000000e+00  -1.2624066535073321e-04 -3.2870367494756370e-01 0.0000000000000000e+00  -9.9593195614694534e-05 -4.1840634826443424e-01 0.0000000000000000e+00  -6.9142632942378573e-05 -4.9202987186612945e-01 0.0000000000000000e+00  -3.6037104667244091e-05 -5.4674495867543982e-01 0.0000000000000000e+00  -1.5476681894491239e-06 -5.8044893899952166e-01 0.0000000000000000e+00  3.3000775922757384e-05 -5.9184658969851456e-01 0.0000000000000000e+00  6.6280883908366729e-05 -5.8049990709911758e-01 0.0000000000000000e+00  9.7013843282758307e-05 -5.4684493848249771e-01 0.0000000000000000e+00  1.2401861877747516e-04 -4.9217502554489306e-01 0.0000000000000000e+00  1.4625742943916059e-04 -4.1859110239190450e-01 0.0000000000000000e+00  1.6287564919438566e-04 -3.2892095792301018e-01 0.0000000000000000e+00  1.7323464907776016e-04 -2.2661056550217418e-01 0.0000000000000000e+00  1.7693633854409289e-04 -1.1559165613375855e-01 0.0000000000000000e+00  1.7383846374690730e-04 -1.3062424466953049e-04 0.0000000000000000e+00  1.6406007427752952e-04 1.1533542746088735e-01 0.0000000000000000e+00  1.4797694815972101e-04 2.2636920336997288e-01 0.0000000000000000e+00  1.2620715091248488e-04 3.2870373774284822e-01 0.0000000000000000e+00  9.9587283649774981e-05 4.1840637181335716e-01 0.0000000000000000e+00  6.9140333121348938e-05 4.9202988365944300e-01 0.0000000000000000e+00  3.6036360684198490e-05 5.4674496300548381e-01 0.0000000000000000e+00  1.5475521772881681e-06 5.8044894001186187e-01 0.0000000000000000e+00  -3.3000578785203774e-05 5.9184658960342307e-01 0.0000000000000000e+00  -6.6279633501858387e-05 5.8049990574631860e-01 0.0000000000000000e+00  -9.7006808643353829e-05 5.4684493102899590e-01 0.0000000000000000e+00  -1.2398017528012097e-04 4.9217498414239114e-01 0.0000000000000000e+00  -1.4604637039076495e-04 4.1859086959932595e-01 0.0000000000000000e+00  -1.6171255607764590e-04 3.2891965244762478e-01 0.0000000000000000e+00  -1.6700670792079475e-04 2.2660340070927787e-01 0.0000000000000000e+00  -1.4739094883650918e-04 1.1555454596819165e-01 0.0000000000000000e+00  -6.4865320575008430e-05 -6.4815396123802714e-05 0.0000000000000000e+00  1.1532668256450700e-01 1.6849067471832592e-04 0.0000000000000000e+00  1.1321126371794317e-01 -1.1321130755455995e-01 0.0000000000000000e+00  1.0666101331470654e-01 -2.2212093267355565e-01 0.0000000000000000e+00  9.5999952632462526e-02 -3.2248044892418726e-01 0.0000000000000000e+00  8.1648395442286373e-02 -4.1044533958786777e-01 0.0000000000000000e+00  6.4158995361209364e-02 -4.8263680184052254e-01 0.0000000000000000e+00  4.4203982252528279e-02 -5.3628077483416137e-01 0.0000000000000000e+00  2.2550233585536147e-02 -5.6931577867073624e-01 0.0000000000000000e+00  2.9892263098176818e-05 -5.8047229825650726e-01 0.0000000000000000e+00  -2.2491597682866613e-02 -5.6932159374648361e-01 0.0000000000000000e+00  -4.4148748123745030e-02 -5.3629217984090927e-01 0.0000000000000000e+00  -6.4109286936425494e-02 -4.8265335823490285e-01 0.0000000000000000e+00  -8.1606141806726262e-02 -4.1046643874507122e-01 0.0000000000000000e+00  -9.5966918412843327e-02 -3.2250552420577377e-01 0.0000000000000000e+00  -1.0663974016320699e-01 -2.2215090323435166e-01 0.0000000000000000e+00  -1.1321445650334691e-01 -1.1325914763529601e-01 0.0000000000000000e+00  -1.1543840477146124e-01 -1.4906509078997925e-05 0.0000000000000000e+00  -1.1322611988281148e-01 1.1322990746592232e-01 0.0000000000000000e+00  -1.0666261870500419e-01 2.2212335959707138e-01 0.0000000000000000e+00  -9.6000132907443650e-02 3.2248073558711648e-01 0.0000000000000000e+00  -8.1648415839697050e-02 4.1044535775779178e-01 0.0000000000000000e+00  -6.4158995939849917e-02 4.8263679500997370e-01 0.0000000000000000e+00  -4.4203981804755411e-02 5.3628077089408444e-01 0.0000000000000000e+00  -2.2550233427630975e-02 5.6931577749246220e-01 0.0000000000000000e+00  -2.9892165811084221e-05 5.8047229797406330e-01 0.0000000000000000e+00  2.2491598194265550e-02 5.6932159315750919e-01 0.0000000000000000e+00  4.4148751325881155e-02 5.3629217613177071e-01 0.0000000000000000e+00  6.4109306825414672e-02 4.8265333551784156e-01 0.0000000000000000e+00  8.1606260655595383e-02 4.1046630528615097e-01 0.0000000000000000e+00  9.5967599369002551e-02 3.2250476260961219e-01 0.0000000000000000e+00  1.0664349829114103e-01 2.2214663290455339e-01 0.0000000000000000e+00  1.1323477582735879e-01 1.1323471877046334e-01 0.0000000000000000e+00  1.1555455136517644e-01 -1.4743090671009680e-04 0.0000000000000000e+00  2.2636849594561925e-01 1.4844065226865991e-04 0.0000000000000000e+00  2.2212092888808765e-01 -1.0666100845475122e-01 0.0000000000000000e+00  2.0925370152572914e-01 -2.0925371615760749e-01 0.0000000000000000e+00  1.8833200261366551e-01 -3.0378944109195666e-01 0.0000000000000000e+00  1.6017049398897271e-01 -3.8664811711907460e-01 0.0000000000000000e+00  1.2585336820034174e-01 -4.5464770806294258e-01 0.0000000000000000e+00  8.6699726687448395e-02 -5.0517538338081569e-01 0.0000000000000000e+00  4.4214258117341157e-02 -5.3628944321548699e-01 0.0000000000000000e+00  2.9659692613670930e-05 -5.4679419929603779e-01 0.0000000000000000e+00  -4.4156078587272586e-02 -5.3628596089918534e-01 0.0000000000000000e+00  -8.6644923525395975e-02 -5.0516855382318715e-01 0.0000000000000000e+00  -1.2580405264074432e-01 -4.5463780254596359e-01 0.0000000000000000e+00  -1.6012860256437336e-01 -3.8663557548543798e-01 0.0000000000000000e+00  -1.8829950009266966e-01 -3.0377516008725308e-01 0.0000000000000000e+00  -2.0923415343202095e-01 -2.0924083564596263e-01 0.0000000000000000e+00  -2.2212805559485069e-01 -1.0666550323439274e-01 0.0000000000000000e+00  -2.2648570115201899e-01 8.9246477740208327e-06 0.0000000000000000e+00  -2.2213962822855979e-01 1.0668300956073221e-01 0.0000000000000000e+00  -2.0925685396961616e-01 2.0925732624479279e-01 0.0000000000000000e+00  -1.8833245616521671e-01 3.0379000123412714e-01 0.0000000000000000e+00  -1.6017054768844191e-01 3.8664819684342244e-01 0.0000000000000000e+00  -1.2585337488860832e-01 4.5464771908274010e-01 0.0000000000000000e+00  -8.6699727470534643e-02 5.0517538444624976e-01 0.0000000000000000e+00  -4.4214258142142408e-02 5.3628944308451298e-01 0.0000000000000000e+00  -2.9659628726756532e-05 5.4679419913309035e-01 0.0000000000000000e+00  4.4156078961477947e-02 5.3628596045222032e-01 0.0000000000000000e+00  8.6644925930977904e-02 5.0516855118141923e-01 0.0000000000000000e+00  1.2580406749392423e-01 4.5463778628653723e-01 0.0000000000000000e+00  1.6012869209413716e-01 3.8663547677982840e-01 0.0000000000000000e+00  1.8830003215266208e-01 3.0377456832396127e-01 0.0000000000000000e+00  2.0923728537380393e-01 2.0923729545828285e-01 0.0000000000000000e+00  2.2214665518663815e-01 1.0664348253645613e-01 0.0000000000000000e+00  2.2660337646165823e-01 -1.6699849206673343e-04 0.0000000000000000e+00  3.2870365004354307e-01 1.2627034932897893e-04 0.0000000000000000e+00  3.2248049885362290e-01 -9.5999987216658880e-02 0.0000000000000000e+00  3.0378944004085856e-01 -1.8833200046530674e-01 0.0000000000000000e+00  2.7341140790802765e-01 -2.7341141688974718e-01 0.0000000000000000e+00  2.3252407457104748e-01 -3.4798124443654499e-01 0.0000000000000000e+00  1.8270056832046500e-01 -4.0917789525973053e-01 0.0000000000000000e+00  1.2585590784545247e-01 -4.5464998615469854e-01 0.0000000000000000e+00  6.4174663650240979e-02 -4.8265011896743104e-01 0.0000000000000000e+00  2.7221757369982832e-05 -4.9210227662800471e-01 0.0000000000000000e+00  -6.4121266398011190e-02 -4.8264321966629092e-01 0.0000000000000000e+00  -1.2580561025780215e-01 -4.5463645447765749e-01 0.0000000000000000e+00  -1.8265531506746752e-01 -4.0915826532370481e-01 0.0000000000000000e+00  -2.3248567855325850e-01 -3.4795635349599180e-01 0.0000000000000000e+00  -2.7338174779176194e-01 -2.7338267414028067e-01 0.0000000000000000e+00  -3.0377190977689122e-01 -1.8830305193222130e-01 0.0000000000000000e+00  -3.2248828762654647e-01 -9.5987049039982203e-02 0.0000000000000000e+00  -3.2881162143622977e-01 1.7682316707185597e-05 0.0000000000000000e+00  -3.2249890903380063e-01 9.6021734151882657e-02 0.0000000000000000e+00  -3.0379274441667548e-01 1.8833572459321132e-01 0.0000000000000000e+00  -2.7341199500055580e-01 2.7341207875831897e-01 0.0000000000000000e+00  -2.3252417594779248e-01 3.4798136006802088e-01 0.0000000000000000e+00  -1.8270058321444232e-01 4.0917791286053395e-01 0.0000000000000000e+00  -1.2585590952767298e-01 4.5464998793127337e-01 0.0000000000000000e+00  -6.4174663816099764e-02 4.8265011893384224e-01 0.0000000000000000e+00  -2.7221741702665729e-05 4.9210227651532373e-01 0.0000000000000000e+00  6.4121266614595218e-02 4.8264321940198812e-01 0.0000000000000000e+00  1.2580561181341660e-01 4.5463645274997760e-01 0.0000000000000000e+00  1.8265532562264969e-01 4.0915825362238006e-01 0.0000000000000000e+00  2.3248574712928066e-01 3.4795627753176855e-01 0.0000000000000000e+00  2.7338217911362428e-01 2.7338219477737430e-01 0.0000000000000000e+00  3.0377457343796271e-01 1.8830005062329841e-01 0.0000000000000000e+00  3.2250479887686839e-01 9.5967598854578701e-02 0.0000000000000000e+00  3.2891965974951809e-01 -1.6171356325212681e-04 0.0000000000000000e+00  4.1840634548464167e-01 9.9603312976069149e-05 0.0000000000000000e+00  4.1044539053105361e-01 -8.1648416002476992e-02 0.0000000000000000e+00  3.8664814134791975e-01 -1.6017050184053441e-01 0.0000000000000000e+00  3.4798123506327650e-01 -2.3252408708576253e-01 0.0000000000000000e+00  2.9593956417204226e-01 -2.9593957782381042e-01 0.0000000000000000e+00  2.3252471299154157e-01 -3.4798184137624488e-01 0.0000000000000000e+00  1.6017399445364289e-01 -3.8665127705389457e-01 0.0000000000000000e+00  8.1667866120541582e-02 -4.1046190627876394e-01 0.0000000000000000e+00  2.3285084720992139e-05 -4.1849871184661164e-01 0.0000000000000000e+00  -8.1622191165153374e-02 -4.1045284616463396e-01 0.0000000000000000e+00  -1.6013097242438679e-01 -3.8663350774589961e-01 0.0000000000000000e+00  -2.3248601022013313e-01 -3.4795606045148647e-01 0.0000000000000000e+00  -2.9590674102324843e-01 -2.9590685689172241e-01 0.0000000000000000e+00  -3.4795594171525918e-01 -2.3248611876874270e-01 0.0000000000000000e+00  -3.8663339070309033e-01 -1.6013106948134234e-01 0.0000000000000000e+00  -4.1045273531270715e-01 -8.1622272996334191e-02 0.0000000000000000e+00  -4.1849861148880330e-01 2.3221665622705300e-05 0.0000000000000000e+00  -4.1046182072211002e-01 8.1667823931992969e-02 0.0000000000000000e+00  -3.8665121237470923e-01 1.6017397752450188e-01 0.0000000000000000e+00  -3.4798181477225376e-01 2.3252473498735407e-01 0.0000000000000000e+00  -2.9593967117858438e-01 2.9593969728605296e-01 0.0000000000000000e+00  -2.3252473198653667e-01 3.4798186298309181e-01 0.0000000000000000e+00  -1.6017399774607816e-01 3.8665128083667127e-01 0.0000000000000000e+00  -8.1667866599786310e-02 4.1046190680524081e-01 0.0000000000000000e+00  -2.3285136151143279e-05 4.1849871188063875e-01 0.0000000000000000e+00  8.1622191232335675e-02 4.1045284607732307e-01 0.0000000000000000e+00  1.6013097321895592e-01 3.8663350686377379e-01 0.0000000000000000e+00  2.3248601672494881e-01 3.4795605327883133e-01 0.0000000000000000e+00  2.9590678817959826e-01 2.9590680481681592e-01 0.0000000000000000e+00  3.4795626204363783e-01 2.3248576329041054e-01 0.0000000000000000e+00  3.8663548839717726e-01 1.6012870873793209e-01 0.0000000000000000e+00  4.1046634317170227e-01 8.1606264299680417e-02 0.0000000000000000e+00  4.1859088883086348e-01 -1.4605456240823712e-04 0.0000000000000000e+00  4.9202986959248313e-01 6.9147029166404284e-05 0.0000000000000000e+00  4.8263687125911059e-01 -6.4159007479582156e-02 0.0000000000000000e+00  4.5464774641686767e-01 -1.2585338032254687e-01 0.0000000000000000e+00  4.0917788034335134e-01 -1.8270057775305074e-01 0.0000000000000000e+00  3.4798182548036521e-01 -2.3252472615917749e-01 0.0000000000000000e+00  2.7341268161163002e-01 -2.7341269659501588e-01 0.0000000000000000e+00  1.8833637500378542e-01 -3.0379349667823879e-01 0.0000000000000000e+00  9.6022394358005733e-02 -3.2249966906141442e-01 0.0000000000000000e+00  1.8324518537095643e-05 -3.2881235732026548e-01 0.0000000000000000e+00  -9.5986449944767085e-02 -3.2248897059013060e-01 0.0000000000000000e+00  -1.8830251904546075e-01 -3.0377251347664014e-01 0.0000000000000000e+00  -2.7338222795304928e-01 -2.7338224901221164e-01 0.0000000000000000e+00  -3.4795601115624297e-01 -2.3248605803147421e-01 0.0000000000000000e+00  -4.0915803998680522e-01 -1.8265555822035784e-01 0.0000000000000000e+00  -4.5463635479916231e-01 -1.2580570774132196e-01 0.0000000000000000e+00  -4.8264324945959386e-01 -6.4121214466463419e-02 0.0000000000000000e+00  -4.9210243471274601e-01 2.7421120745244045e-05 0.0000000000000000e+00  -4.8265039937411264e-01 6.4175002929661495e-02 0.0000000000000000e+00  -4.5465037986099632e-01 1.2585637536574940e-01 0.0000000000000000e+00  -4.0917840122070331e-01 1.8270115787761179e-01 0.0000000000000000e+00  -3.4798192609144096e-01 2.3252483735228369e-01 0.0000000000000000e+00  -2.7341270069323181e-01 2.7341271772919729e-01 0.0000000000000000e+00  -1.8833637854001642e-01 3.0379350069652600e-01 0.0000000000000000e+00  -9.6022394983870885e-02 3.2249966980596567e-01 0.0000000000000000e+00  -1.8324652372031944e-05 3.2881235747998050e-01 0.0000000000000000e+00  9.5986449857364570e-02 3.2248897068698118e-01 0.0000000000000000e+00  1.8830251904500006e-01 3.0377251347708473e-01 0.0000000000000000e+00  2.7338223014845303e-01 2.7338224659497595e-01 0.0000000000000000e+00  3.4795603521850049e-01 2.3248603148330385e-01 0.0000000000000000e+00  4.0915823757762798e-01 1.8265533917833504e-01 0.0000000000000000e+00  4.5463780212497640e-01 1.2580408038149923e-01 0.0000000000000000e+00  4.8265337552931953e-01 6.4109309763894784e-02 0.0000000000000000e+00  4.9217500795643471e-01 -1.2398969319127990e-04 0.0000000000000000e+00  5.4674495475209517e-01 3.6038099583464606e-05 0.0000000000000000e+00  5.3628086832114896e-01 -4.4203992101525230e-02 0.0000000000000000e+00  5.0517542831444706e-01 -8.6699737184010708e-02 0.0000000000000000e+00  4.5464996899975191e-01 -1.2585591456487988e-01 0.0000000000000000e+00  3.8665125709017872e-01 -1.6017400389348233e-01 0.0000000000000000e+00  3.0379347865369211e-01 -1.8833638577532991e-01 0.0000000000000000e+00  2.0926103037179000e-01 -2.0926104337044174e-01 0.0000000000000000e+00  1.0668678646504653e-01 -2.2214390380905621e-01 0.0000000000000000e+00  1.2627023664140335e-05 -2.2648989626437044e-01 0.0000000000000000e+00  -1.0666201809911489e-01 -2.2213200855253398e-01 0.0000000000000000e+00  -2.0923770176503625e-01 -2.0923771223061224e-01 0.0000000000000000e+00  -3.0377249790792732e-01 -1.8830252795202773e-01 0.0000000000000000e+00  -3.8663348731635083e-01 -1.6013098312214857e-01 0.0000000000000000e+00  -4.5463636863416973e-01 -1.2580569441285361e-01 0.0000000000000000e+00  -5.0516782926843351e-01 -8.6645763419880506e-02 0.0000000000000000e+00  -5.3628597352529772e-01 -4.4156084330190241e-02 0.0000000000000000e+00  -5.4679494857222388e-01 3.0488317289248989e-05 0.0000000000000000e+00  -5.3629090039166016e-01 4.4215889315833215e-02 0.0000000000000000e+00  -5.0517749366444942e-01 8.6702098484528797e-02 0.0000000000000000e+00  -4.5465039916252964e-01 1.2585639463157552e-01 0.0000000000000000e+00  -3.8665134479174151e-01 1.6017410011408342e-01 0.0000000000000000e+00  -3.0379349607750472e-01 1.8833640475623639e-01 0.0000000000000000e+00  -2.0926103367991733e-01 2.0926104698559128e-01 0.0000000000000000e+00  -1.0668678712008491e-01 2.2214390454210348e-01 0.0000000000000000e+00  -1.2627192977352285e-05 2.2648989646111611e-01 0.0000000000000000e+00  1.0666201786552115e-01 2.2213200881362247e-01 0.0000000000000000e+00  2.0923770097280631e-01 2.0923771310663319e-01 0.0000000000000000e+00  3.0377249573293719e-01 1.8830253036564798e-01 0.0000000000000000e+00  3.8663348740406184e-01 1.6013098311553800e-01 0.0000000000000000e+00  4.5463643569148710e-01 1.2580562044888807e-01 0.0000000000000000e+00  5.0516856854893777e-01 8.6644933762168336e-02 0.0000000000000000e+00  5.3629221606305300e-01 4.4148752230010684e-02 0.0000000000000000e+00  5.4684495326295190e-01 -9.7015756723654298e-05 0.0000000000000000e+00  5.8044893673670217e-01 1.5451821344766697e-06 0.0000000000000000e+00  5.6931589112016934e-01 -2.2550241194665640e-02 0.0000000000000000e+00  5.3628949341897014e-01 -4.4214266202191294e-02 0.0000000000000000e+00  4.8265010201668290e-01 -6.4174669857379907e-02 0.0000000000000000e+00  4.1046188333323652e-01 -8.1667872505656311e-02 0.0000000000000000e+00  3.2249964868668879e-01 -9.6022401874874166e-02 0.0000000000000000e+00  2.2214388894164055e-01 -1.0668679547159018e-01 0.0000000000000000e+00  1.1325125485376310e-01 -1.1325126524833475e-01 0.0000000000000000e+00  6.4366271236755949e-06 -1.1546355034175619e-01 0.0000000000000000e+00  -1.1323862934371361e-01 -1.1323863553884056e-01 0.0000000000000000e+00  -2.2213199836534642e-01 -1.0666202340139337e-01 0.0000000000000000e+00  -3.2248895927753241e-01 -9.5986449505198079e-02 0.0000000000000000e+00  -4.1045285034132539e-01 -8.1622170181018028e-02 0.0000000000000000e+00  -4.8264326855157380e-01 -6.4121196630403485e-02 0.0000000000000000e+00  -5.3628597662093058e-01 -4.4156081452748776e-02 0.0000000000000000e+00  -5.6931951536139869e-01 -2.2494072827863729e-02 0.0000000000000000e+00  -5.8047442440459240e-01 3.2370400975950865e-05 0.0000000000000000e+00  -5.6932202685172584e-01 2.2557569653460077e-02 0.0000000000000000e+00  -5.3629090308642113e-01 4.4215894154595654e-02 0.0000000000000000e+00  -4.8265042067092417e-01 6.4175026639946134e-02 0.0000000000000000e+00  -4.1046195326259710e-01 8.1667948841380580e-02 0.0000000000000000e+00  -3.2249966318050782e-01 9.6022417569199561e-02 0.0000000000000000e+00  -2.2214389190430597e-01 1.0668679864205365e-01 0.0000000000000000e+00  -1.1325125545183747e-01 1.1325126588464385e-01 0.0000000000000000e+00  -6.4368114860888143e-06 1.1546355054329484e-01 0.0000000000000000e+00  1.1323862897557627e-01 1.1323863594614896e-01 0.0000000000000000e+00  2.2213199681323167e-01 1.0666202511682513e-01 0.0000000000000000e+00  3.2248895281337614e-01 9.5986456659289773e-02 0.0000000000000000e+00  4.1045282643567788e-01 8.1622196722187124e-02 0.0000000000000000e+00  4.8264320244354009e-01 6.4121270610624836e-02 0.0000000000000000e+00  5.3628597914582787e-01 4.4156081632626062e-02 0.0000000000000000e+00  5.6932163233669719e-01 2.2491597100156923e-02 0.0000000000000000e+00  5.8049992576269616e-01 -6.6288136918646058e-05 0.0000000000000000e+00  5.9184659152173968e-01 -3.3007092742539740e-05 0.0000000000000000e+00  5.8047242313418979e-01 -2.9896852097438598e-05 0.0000000000000000e+00  5.4679425347605060e-01 -2.9665414539410554e-05 0.0000000000000000e+00  4.9210225980155142e-01 -2.7227278206561364e-05 0.0000000000000000e+00  4.1849868858845257e-01 -2.3290837453114761e-05 0.0000000000000000e+00  3.2881233610240745e-01 -1.8330954042333130e-05 0.0000000000000000e+00  2.2648988069498260e-01 -1.2634604260616282e-05 0.0000000000000000e+00  1.1546353940163269e-01 -6.4454131868937582e-06 0.0000000000000000e+00  -2.4930445953857141e-09 -6.8988710510899665e-09 0.0000000000000000e+00  -1.1546354460022748e-01 6.4322085764886556e-06 0.0000000000000000e+00  -2.2648988750781796e-01 1.2624197946988788e-05 0.0000000000000000e+00  -3.2881235106833634e-01 1.8331059622670365e-05 0.0000000000000000e+00  -4.1849874037978785e-01 2.3333471470367425e-05 0.0000000000000000e+00  -4.9210245779573664e-01 2.7439191656942727e-05 0.0000000000000000e+00  -5.4679495373292419e-01 3.0490439212730501e-05 0.0000000000000000e+00  -5.8047442624431422e-01 3.2369956310638657e-05 0.0000000000000000e+00  -5.9184659