<?xml version="1.0"?>
<VTKFile type="UnstructuredGrid"  version="0.1"  >
<UnstructuredGrid>
<Piece  NumberOfPoints="1089" NumberOfCells="2048">
<Points>
<DataArray  type="Float64"  NumberOfComponents="3"  format="ascii">0 0 0  0.03125 0 0  0.0625 0 0  0.09375 0 0  0.125 0 0  0.15625 0 0  0.1875 0 0  0.21875 0 0  0.25 0 0  0.28125 0 0  0.3125 0 0  0.34375 0 0  0.375 0 0  0.40625 0 0  0.4375 0 0  0.46875 0 0  0.5 0 0  0.53125 0 0  0.5625 0 0  0.59375 0 0  0.625 0 0  0.65625 0 0  0.6875 0 0  0.71875 0 0  0.75 0 0  0.78125 0 0  0.8125 0 0  0.84375 0 0  0.875 0 0  0.90625 0 0  0.9375 0 0  0.96875 0 0  1 0 0  0 0.03125 0  0.03125 0.03125 0  0.0625 0.03125 0  0.09375 0.03125 0  0.125 0.03125 0  0.15625 0.03125 0  0.1875 0.03125 0  0.21875 0.03125 0  0.25 0.03125 0  0.28125 0.03125 0  0.3125 0.03125 0  0.34375 0.03125 0  0.375 0.03125 0  0.40625 0.03125 0  0.4375 0.03125 0  0.46875 0.03125 0  0.5 0.03125 0  0.53125 0.03125 0  0.5625 0.03125 0  0.59375 0.03125 0  0.625 0.03125 0  0.65625 0.03125 0  0.6875 0.03125 0  0.71875 0.03125 0  0.75 0.03125 0  0.78125 0.03125 0  0.8125 0.03125 0  0.84375 0.03125 0  0.875 0.03125 0  0.90625 0.03125 0  0.9375 0.03125 0  0.96875 0.03125 0  1 0.03125 0  0 0.0625 0  0.03125 0.0625 0  0.0625 0.0625 0  0.09375 0.0625 0  0.125 0.0625 0  0.15625 0.0625 0  0.1875 0.0625 0  0.21875 0.0625 0  0.25 0.0625 0  0.28125 0.0625 0  0.3125 0.0625 0  0.34375 0.0625 0  0.375 0.0625 0  0.40625 0.0625 0  0.4375 0.0625 0  0.46875 0.0625 0  0.5 0.0625 0  0.53125 0.0625 0  0.5625 0.0625 0  0.59375 0.0625 0  0.625 0.0625 0  0.65625 0.0625 0  0.6875 0.0625 0  0.71875 0.0625 0  0.75 0.0625 0  0.78125 0.0625 0  0.8125 0.0625 0  0.84375 0.0625 0  0.875 0.0625 0  0.90625 0.0625 0  0.9375 0.0625 0  0.96875 0.0625 0  1 0.0625 0  0 0.09375 0  0.03125 0.09375 0  0.0625 0.09375 0  0.09375 0.09375 0  0.125 0.09375 0  0.15625 0.09375 0  0.1875 0.09375 0  0.21875 0.09375 0  0.25 0.09375 0  0.28125 0.09375 0  0.3125 0.09375 0  0.34375 0.09375 0  0.375 0.09375 0  0.40625 0.09375 0  0.4375 0.09375 0  0.46875 0.09375 0  0.5 0.09375 0  0.53125 0.09375 0  0.5625 0.09375 0  0.59375 0.09375 0  0.625 0.09375 0  0.65625 0.09375 0  0.6875 0.09375 0  0.71875 0.09375 0  0.75 0.09375 0  0.78125 0.09375 0  0.8125 0.09375 0  0.84375 0.09375 0  0.875 0.09375 0  0.90625 0.09375 0  0.9375 0.09375 0  0.96875 0.09375 0  1 0.09375 0  0 0.125 0  0.03125 0.125 0  0.0625 0.125 0  0.09375 0.125 0  0.125 0.125 0  0.15625 0.125 0  0.1875 0.125 0  0.21875 0.125 0  0.25 0.125 0  0.28125 0.125 0  0.3125 0.125 0  0.34375 0.125 0  0.375 0.125 0  0.40625 0.125 0  0.4375 0.125 0  0.46875 0.125 0  0.5 0.125 0  0.53125 0.125 0  0.5625 0.125 0  0.59375 0.125 0  0.625 0.125 0  0.65625 0.125 0  0.6875 0.125 0  0.71875 0.125 0  0.75 0.125 0  0.78125 0.125 0  0.8125 0.125 0  0.84375 0.125 0  0.875 0.125 0  0.90625 0.125 0  0.9375 0.125 0  0.96875 0.125 0  1 0.125 0  0 0.15625 0  0.03125 0.15625 0  0.0625 0.15625 0  0.09375 0.15625 0  0.125 0.15625 0  0.15625 0.15625 0  0.1875 0.15625 0  0.21875 0.15625 0  0.25 0.15625 0  0.28125 0.15625 0  0.3125 0.15625 0  0.34375 0.15625 0  0.375 0.15625 0  0.40625 0.15625 0  0.4375 0.15625 0  0.46875 0.15625 0  0.5 0.15625 0  0.53125 0.15625 0  0.5625 0.15625 0  0.59375 0.15625 0  0.625 0.15625 0  0.65625 0.15625 0  0.6875 0.15625 0  0.71875 0.15625 0  0.75 0.15625 0  0.78125 0.15625 0  0.8125 0.15625 0  0.84375 0.15625 0  0.875 0.15625 0  0.90625 0.15625 0  0.9375 0.15625 0  0.96875 0.15625 0  1 0.15625 0  0 0.1875 0  0.03125 0.1875 0  0.0625 0.1875 0  0.09375 0.1875 0  0.125 0.1875 0  0.15625 0.1875 0  0.1875 0.1875 0  0.21875 0.1875 0  0.25 0.1875 0  0.28125 0.1875 0  0.3125 0.1875 0  0.34375 0.1875 0  0.375 0.1875 0  0.40625 0.1875 0  0.4375 0.1875 0  0.46875 0.1875 0  0.5 0.1875 0  0.53125 0.1875 0  0.5625 0.1875 0  0.59375 0.1875 0  0.625 0.1875 0  0.65625 0.1875 0  0.6875 0.1875 0  0.71875 0.1875 0  0.75 0.1875 0  0.78125 0.1875 0  0.8125 0.1875 0  0.84375 0.1875 0  0.875 0.1875 0  0.90625 0.1875 0  0.9375 0.1875 0  0.96875 0.1875 0  1 0.1875 0  0 0.21875 0  0.03125 0.21875 0  0.0625 0.21875 0  0.09375 0.21875 0  0.125 0.21875 0  0.15625 0.21875 0  0.1875 0.21875 0  0.21875 0.21875 0  0.25 0.21875 0  0.28125 0.21875 0  0.3125 0.21875 0  0.34375 0.21875 0  0.375 0.21875 0  0.40625 0.21875 0  0.4375 0.21875 0  0.46875 0.21875 0  0.5 0.21875 0  0.53125 0.21875 0  0.5625 0.21875 0  0.59375 0.21875 0  0.625 0.21875 0  0.65625 0.21875 0  0.6875 0.21875 0  0.71875 0.21875 0  0.75 0.21875 0  0.78125 0.21875 0  0.8125 0.21875 0  0.84375 0.21875 0  0.875 0.21875 0  0.90625 0.21875 0  0.9375 0.21875 0  0.96875 0.21875 0  1 0.21875 0  0 0.25 0  0.03125 0.25 0  0.0625 0.25 0  0.09375 0.25 0  0.125 0.25 0  0.15625 0.25 0  0.1875 0.25 0  0.21875 0.25 0  0.25 0.25 0  0.28125 0.25 0  0.3125 0.25 0  0.34375 0.25 0  0.375 0.25 0  0.40625 0.25 0  0.4375 0.25 0  0.46875 0.25 0  0.5 0.25 0  0.53125 0.25 0  0.5625 0.25 0  0.59375 0.25 0  0.625 0.25 0  0.65625 0.25 0  0.6875 0.25 0  0.71875 0.25 0  0.75 0.25 0  0.78125 0.25 0  0.8125 0.25 0  0.84375 0.25 0  0.875 0.25 0  0.90625 0.25 0  0.9375 0.25 0  0.96875 0.25 0  1 0.25 0  0 0.28125 0  0.03125 0.28125 0  0.0625 0.28125 0  0.09375 0.28125 0  0.125 0.28125 0  0.15625 0.28125 0  0.1875 0.28125 0  0.21875 0.28125 0  0.25 0.28125 0  0.28125 0.28125 0  0.3125 0.28125 0  0.34375 0.28125 0  0.375 0.28125 0  0.40625 0.28125 0  0.4375 0.28125 0  0.46875 0.28125 0  0.5 0.28125 0  0.53125 0.28125 0  0.5625 0.28125 0  0.59375 0.28125 0  0.625 0.28125 0  0.65625 0.28125 0  0.6875 0.28125 0  0.71875 0.28125 0  0.75 0.28125 0  0.78125 0.28125 0  0.8125 0.28125 0  0.84375 0.28125 0  0.875 0.28125 0  0.90625 0.28125 0  0.9375 0.28125 0  0.96875 0.28125 0  1 0.28125 0  0 0.3125 0  0.03125 0.3125 0  0.0625 0.3125 0  0.09375 0.3125 0  0.125 0.3125 0  0.15625 0.3125 0  0.1875 0.3125 0  0.21875 0.3125 0  0.25 0.3125 0  0.28125 0.3125 0  0.3125 0.3125 0  0.34375 0.3125 0  0.375 0.3125 0  0.40625 0.3125 0  0.4375 0.3125 0  0.46875 0.3125 0  0.5 0.3125 0  0.53125 0.3125 0  0.5625 0.3125 0  0.59375 0.3125 0  0.625 0.3125 0  0.65625 0.3125 0  0.6875 0.3125 0  0.71875 0.3125 0  0.75 0.3125 0  0.78125 0.3125 0  0.8125 0.3125 0  0.84375 0.3125 0  0.875 0.3125 0  0.90625 0.3125 0  0.9375 0.3125 0  0.96875 0.3125 0  1 0.3125 0  0 0.34375 0  0.03125 0.34375 0  0.0625 0.34375 0  0.09375 0.34375 0  0.125 0.34375 0  0.15625 0.34375 0  0.1875 0.34375 0  0.21875 0.34375 0  0.25 0.34375 0  0.28125 0.34375 0  0.3125 0.34375 0  0.34375 0.34375 0  0.375 0.34375 0  0.40625 0.34375 0  0.4375 0.34375 0  0.46875 0.34375 0  0.5 0.34375 0  0.53125 0.34375 0  0.5625 0.34375 0  0.59375 0.34375 0  0.625 0.34375 0  0.65625 0.34375 0  0.6875 0.34375 0  0.71875 0.34375 0  0.75 0.34375 0  0.78125 0.34375 0  0.8125 0.34375 0  0.84375 0.34375 0  0.875 0.34375 0  0.90625 0.34375 0  0.9375 0.34375 0  0.96875 0.34375 0  1 0.34375 0  0 0.375 0  0.03125 0.375 0  0.0625 0.375 0  0.09375 0.375 0  0.125 0.375 0  0.15625 0.375 0  0.1875 0.375 0  0.21875 0.375 0  0.25 0.375 0  0.28125 0.375 0  0.3125 0.375 0  0.34375 0.375 0  0.375 0.375 0  0.40625 0.375 0  0.4375 0.375 0  0.46875 0.375 0  0.5 0.375 0  0.53125 0.375 0  0.5625 0.375 0  0.59375 0.375 0  0.625 0.375 0  0.65625 0.375 0  0.6875 0.375 0  0.71875 0.375 0  0.75 0.375 0  0.78125 0.375 0  0.8125 0.375 0  0.84375 0.375 0  0.875 0.375 0  0.90625 0.375 0  0.9375 0.375 0  0.96875 0.375 0  1 0.375 0  0 0.40625 0  0.03125 0.40625 0  0.0625 0.40625 0  0.09375 0.40625 0  0.125 0.40625 0  0.15625 0.40625 0  0.1875 0.40625 0  0.21875 0.40625 0  0.25 0.40625 0  0.28125 0.40625 0  0.3125 0.40625 0  0.34375 0.40625 0  0.375 0.40625 0  0.40625 0.40625 0  0.4375 0.40625 0  0.46875 0.40625 0  0.5 0.40625 0  0.53125 0.40625 0  0.5625 0.40625 0  0.59375 0.40625 0  0.625 0.40625 0  0.65625 0.40625 0  0.6875 0.40625 0  0.71875 0.40625 0  0.75 0.40625 0  0.78125 0.40625 0  0.8125 0.40625 0  0.84375 0.40625 0  0.875 0.40625 0  0.90625 0.40625 0  0.9375 0.40625 0  0.96875 0.40625 0  1 0.40625 0  0 0.4375 0  0.03125 0.4375 0  0.0625 0.4375 0  0.09375 0.4375 0  0.125 0.4375 0  0.15625 0.4375 0  0.1875 0.4375 0  0.21875 0.4375 0  0.25 0.4375 0  0.28125 0.4375 0  0.3125 0.4375 0  0.34375 0.4375 0  0.375 0.4375 0  0.40625 0.4375 0  0.4375 0.4375 0  0.46875 0.4375 0  0.5 0.4375 0  0.53125 0.4375 0  0.5625 0.4375 0  0.59375 0.4375 0  0.625 0.4375 0  0.65625 0.4375 0  0.6875 0.4375 0  0.71875 0.4375 0  0.75 0.4375 0  0.78125 0.4375 0  0.8125 0.4375 0  0.84375 0.4375 0  0.875 0.4375 0  0.90625 0.4375 0  0.9375 0.4375 0  0.96875 0.4375 0  1 0.4375 0  0 0.46875 0  0.03125 0.46875 0  0.0625 0.46875 0  0.09375 0.46875 0  0.125 0.46875 0  0.15625 0.46875 0  0.1875 0.46875 0  0.21875 0.46875 0  0.25 0.46875 0  0.28125 0.46875 0  0.3125 0.46875 0  0.34375 0.46875 0  0.375 0.46875 0  0.40625 0.46875 0  0.4375 0.46875 0  0.46875 0.46875 0  0.5 0.46875 0  0.53125 0.46875 0  0.5625 0.46875 0  0.59375 0.46875 0  0.625 0.46875 0  0.65625 0.46875 0  0.6875 0.46875 0  0.71875 0.46875 0  0.75 0.46875 0  0.78125 0.46875 0  0.8125 0.46875 0  0.84375 0.46875 0  0.875 0.46875 0  0.90625 0.46875 0  0.9375 0.46875 0  0.96875 0.46875 0  1 0.46875 0  0 0.5 0  0.03125 0.5 0  0.0625 0.5 0  0.09375 0.5 0  0.125 0.5 0  0.15625 0.5 0  0.1875 0.5 0  0.21875 0.5 0  0.25 0.5 0  0.28125 0.5 0  0.3125 0.5 0  0.34375 0.5 0  0.375 0.5 0  0.40625 0.5 0  0.4375 0.5 0  0.46875 0.5 0  0.5 0.5 0  0.53125 0.5 0  0.5625 0.5 0  0.59375 0.5 0  0.625 0.5 0  0.65625 0.5 0  0.6875 0.5 0  0.71875 0.5 0  0.75 0.5 0  0.78125 0.5 0  0.8125 0.5 0  0.84375 0.5 0  0.875 0.5 0  0.90625 0.5 0  0.9375 0.5 0  0.96875 0.5 0  1 0.5 0  0 0.53125 0  0.03125 0.53125 0  0.0625 0.53125 0  0.09375 0.53125 0  0.125 0.53125 0  0.15625 0.53125 0  0.1875 0.53125 0  0.21875 0.53125 0  0.25 0.53125 0  0.28125 0.53125 0  0.3125 0.53125 0  0.34375 0.53125 0  0.375 0.53125 0  0.40625 0.53125 0  0.4375 0.53125 0  0.46875 0.53125 0  0.5 0.53125 0  0.53125 0.53125 0  0.5625 0.53125 0  0.59375 0.53125 0  0.625 0.53125 0  0.65625 0.53125 0  0.6875 0.53125 0  0.71875 0.53125 0  0.75 0.53125 0  0.78125 0.531
[...]
<PointData  Vectors="f_22892"> 
<DataArray  type="Float64"  Name="f_22892"  NumberOfComponents="3" format="ascii">-3.8605228153288631e-04 3.8599086985257312e-04 0.0000000000000000e+00  -2.8436897247347313e-04 -1.9487299710379208e-01 0.0000000000000000e+00  -2.5073209709511275e-04 -3.8250527068629281e-01 0.0000000000000000e+00  -2.1331460418956756e-04 -5.5542557639641577e-01 0.0000000000000000e+00  -1.6828716042881380e-04 -7.0700027065339477e-01 0.0000000000000000e+00  -1.1683345725207381e-04 -8.3140529301686572e-01 0.0000000000000000e+00  -6.0893537727107729e-05 -9.2385986820069754e-01 0.0000000000000000e+00  -2.6151654566437722e-06 -9.8081101942023474e-01 0.0000000000000000e+00  5.5762914702272393e-05 -1.0000701491213648e+00 0.0000000000000000e+00  1.1199782951845194e-04 -9.8089714254040006e-01 0.0000000000000000e+00  1.6392871126965286e-04 -9.2402880863609715e-01 0.0000000000000000e+00  2.0955991085089799e-04 -8.3165056580155927e-01 0.0000000000000000e+00  2.4713784250039912e-04 -7.0731245812059695e-01 0.0000000000000000e+00  2.7521840560243888e-04 -5.5579272934016621e-01 0.0000000000000000e+00  2.9272247969607202e-04 -3.8291419766341683e-01 0.0000000000000000e+00  2.9897739304862161e-04 -1.9532048811121761e-01 0.0000000000000000e+00  2.9374277285430876e-04 -2.2072173789503913e-04 0.0000000000000000e+00  2.7721978263183455e-04 1.9488752684803298e-01 0.0000000000000000e+00  2.5004339162961364e-04 3.8250635707137109e-01 0.0000000000000000e+00  2.1325797331626565e-04 5.5542568250446966e-01 0.0000000000000000e+00  1.6827717071229840e-04 7.0700031044508282e-01 0.0000000000000000e+00  1.1682957113973933e-04 8.3140531294456554e-01 0.0000000000000000e+00  6.0892280585058733e-05 9.2385987551737003e-01 0.0000000000000000e+00  2.6149694256134533e-06 9.8081102113083241e-01 0.0000000000000000e+00  -5.5762581589970525e-05 1.0000701489606849e+00 0.0000000000000000e+00  -1.1199571664960836e-04 9.8089714025451358e-01 0.0000000000000000e+00  -1.6391682451893735e-04 9.2402879604157551e-01 0.0000000000000000e+00  -2.0949495112177572e-04 8.3165049584186490e-01 0.0000000000000000e+00  -2.4678120640981904e-04 7.0731206476037012e-01 0.0000000000000000e+00  -2.7325307416873631e-04 5.5579052341892532e-01 0.0000000000000000e+00  -2.8219884375734898e-04 3.8290209098640809e-01 0.0000000000000000e+00  -2.4905320187314516e-04 1.9525778137359626e-01 0.0000000000000000e+00  -1.0960588765626391e-04 -1.0952152803637809e-04 0.0000000000000000e+00  1.9487275019817243e-01 2.8470637006964487e-04 0.0000000000000000e+00  1.9129823058758394e-01 -1.9129830466031256e-01 0.0000000000000000e+00  1.8022997402994451e-01 -3.7532786051023026e-01 0.0000000000000000e+00  1.6221549404161723e-01 -5.4490990783374971e-01 0.0000000000000000e+00  1.3796501395248725e-01 -6.9354819156245018e-01 0.0000000000000000e+00  1.0841237775999753e-01 -8.1553339461494845e-01 0.0000000000000000e+00  7.4693482893198951e-02 -9.0617805998091605e-01 0.0000000000000000e+00  3.8104157153455241e-02 -9.6199881114870966e-01 0.0000000000000000e+00  5.0510318948341678e-05 -9.8085049062109020e-01 0.0000000000000000e+00  -3.8005077397066954e-02 -9.6200863714715468e-01 0.0000000000000000e+00  -7.4600151269142378e-02 -9.0619733154046755e-01 0.0000000000000000e+00  -1.0832838316975832e-01 -8.1556137070889756e-01 0.0000000000000000e+00  -1.3789361605926453e-01 -6.9358384376972493e-01 0.0000000000000000e+00  -1.6215967461557712e-01 -5.4495227867956042e-01 0.0000000000000000e+00  -1.8019402781657978e-01 -3.7537850313236582e-01 0.0000000000000000e+00  -1.9130362558255454e-01 -1.9137914222448615e-01 0.0000000000000000e+00  -1.9506153230169992e-01 -2.5188207581150904e-05 0.0000000000000000e+00  -1.9132333372625837e-01 1.9132973377801563e-01 0.0000000000000000e+00  -1.8023268673107742e-01 3.7533196139347352e-01 0.0000000000000000e+00  -1.6221579866046662e-01 5.4491039222116289e-01 0.0000000000000000e+00  -1.3796504841892127e-01 6.9354822226499868e-01 0.0000000000000000e+00  -1.0841237873775275e-01 8.1553338307305856e-01 0.0000000000000000e+00  -7.4693482136576714e-02 9.0617805332318824e-01 0.0000000000000000e+00  -3.8104156886635689e-02 9.6199880915772640e-01 0.0000000000000000e+00  -5.0510154557922852e-05 9.8085049014383141e-01 0.0000000000000000e+00  3.8005078261201031e-02 9.6200863615193799e-01 0.0000000000000000e+00  7.4600156679937787e-02 9.0619732527296737e-01 0.0000000000000000e+00  1.0832841677708950e-01 8.1556133232284411e-01 0.0000000000000000e+00  1.3789381688361374e-01 6.9358361825810666e-01 0.0000000000000000e+00  1.6216082525822606e-01 5.4495099177582496e-01 0.0000000000000000e+00  1.8020037809658290e-01 3.7537128736153536e-01 0.0000000000000000e+00  1.9133796007015361e-01 1.9133786365851771e-01 0.0000000000000000e+00  1.9525779049312722e-01 -2.4912072051268248e-04 0.0000000000000000e+00  3.8250516170420801e-01 2.5082693359033574e-04 0.0000000000000000e+00  3.7532785411375247e-01 -1.8022996581785647e-01 0.0000000000000000e+00  3.5358551376571140e-01 -3.5358553848986296e-01 0.0000000000000000e+00  3.1823316585150296e-01 -5.1332686027487284e-01 0.0000000000000000e+00  2.7064738159594859e-01 -6.5333694047597624e-01 0.0000000000000000e+00  2.1266017054800598e-01 -7.6823894758235667e-01 0.0000000000000000e+00  1.4650047851296374e-01 -8.5361786277665019e-01 0.0000000000000000e+00  7.4710846490175994e-02 -9.0619270733980217e-01 0.0000000000000000e+00  5.0117334004007972e-05 -9.2394307232088824e-01 0.0000000000000000e+00  -7.4612537887365327e-02 -9.0618682311128096e-01 0.0000000000000000e+00  -1.4640787511302863e-01 -8.5360632256194813e-01 0.0000000000000000e+00  -2.1257683979997258e-01 -7.6822220977898903e-01 0.0000000000000000e+00  -2.7057659574708975e-01 -6.5331574830618167e-01 0.0000000000000000e+00  -3.1817824486085283e-01 -5.1330272901053475e-01 0.0000000000000000e+00  -3.5355248246109633e-01 -3.5356377370245756e-01 0.0000000000000000e+00  -3.7533989643488641e-01 -1.8023756085181408e-01 0.0000000000000000e+00  -3.8270320868172270e-01 1.5080383980524075e-05 0.0000000000000000e+00  -3.7535945124135250e-01 1.8026714208907646e-01 0.0000000000000000e+00  -3.5359084059378332e-01 3.5359163861866788e-01 0.0000000000000000e+00  -3.1823393223822422e-01 5.1332780677261991e-01 0.0000000000000000e+00  -2.7064747233438824e-01 6.5333707518983930e-01 0.0000000000000000e+00  -2.1266018184947469e-01 7.6823896620301102e-01 0.0000000000000000e+00  -1.4650047983618023e-01 8.5361786457696232e-01 0.0000000000000000e+00  -7.4710846532083791e-02 9.0619270711848965e-01 0.0000000000000000e+00  -5.0117226051354469e-05 9.2394307204554860e-01 0.0000000000000000e+00  7.4612538519677266e-02 9.0618682235602366e-01 0.0000000000000000e+00  1.4640787917784998e-01 8.5360631809803234e-01 0.0000000000000000e+00  2.1257686489806751e-01 7.6822218230469597e-01 0.0000000000000000e+00  2.7057674702961076e-01 6.5331558151881586e-01 0.0000000000000000e+00  3.1817914390686447e-01 5.1330172908113769e-01 0.0000000000000000e+00  3.5355777464582883e-01 3.5355779168603219e-01 0.0000000000000000e+00  3.7537132501258924e-01 1.8020035147517383e-01 0.0000000000000000e+00  3.8290205001410033e-01 -2.8218496105440126e-04 0.0000000000000000e+00  5.5542553431495767e-01 2.1336476256011671e-04 0.0000000000000000e+00  5.4490999220179204e-01 -1.6221555248010949e-01 0.0000000000000000e+00  5.1332685849878434e-01 -3.1823316222132320e-01 0.0000000000000000e+00  4.6199571347931306e-01 -4.6199572865613375e-01 0.0000000000000000e+00  3.9290652337632043e-01 -5.8799976391241349e-01 0.0000000000000000e+00  3.0871747473932287e-01 -6.9140653313219869e-01 0.0000000000000000e+00  2.1266446190206423e-01 -7.6824279697779452e-01 0.0000000000000000e+00  1.0843885318187385e-01 -8.1555589717105859e-01 0.0000000000000000e+00  4.5997843742262994e-05 -8.3152763864200918e-01 0.0000000000000000e+00  -1.0834862541182388e-01 -8.1554423910756624e-01 0.0000000000000000e+00  -2.1257947177648556e-01 -7.6821993188654947e-01 0.0000000000000000e+00  -3.0864100825584379e-01 -6.9137336353489076e-01 0.0000000000000000e+00  -3.9284164387561132e-01 -5.8795770455604657e-01 0.0000000000000000e+00  -4.6194559542944508e-01 -4.6194716072274428e-01 0.0000000000000000e+00  -5.1329723681302131e-01 -3.1818424656597688e-01 0.0000000000000000e+00  -5.4492315324628382e-01 -1.6219369025347230e-01 0.0000000000000000e+00  -5.5560797849671784e-01 2.9878616205508590e-05 0.0000000000000000e+00  -5.4494110072206792e-01 1.6225229926742007e-01 0.0000000000000000e+00  -5.1333244205316042e-01 3.1823945504992729e-01 0.0000000000000000e+00  -4.6199670551630750e-01 4.6199684704561650e-01 0.0000000000000000e+00  -3.9290669467722539e-01 5.8799995930018722e-01 0.0000000000000000e+00  -3.0871749990635516e-01 6.9140656287307878e-01 0.0000000000000000e+00  -2.1266446474458889e-01 7.6824279997975387e-01 0.0000000000000000e+00  -1.0843885346213296e-01 8.1555589711430199e-01 0.0000000000000000e+00  -4.5997817268486258e-05 8.3152763845160660e-01 0.0000000000000000e+00  1.0834862577779579e-01 8.1554423866096259e-01 0.0000000000000000e+00  2.1257947440507802e-01 7.6821992896721036e-01 0.0000000000000000e+00  3.0864102609141580e-01 6.9137334376262916e-01 0.0000000000000000e+00  3.9284175975164048e-01 5.8795757619583722e-01 0.0000000000000000e+00  4.6194632425364823e-01 4.6194635072140033e-01 0.0000000000000000e+00  5.1330173772249910e-01 3.1817917511754024e-01 0.0000000000000000e+00  5.4495105305826008e-01 1.6216082438898047e-01 0.0000000000000000e+00  5.5579053575726767e-01 -2.7325477603728175e-04 0.0000000000000000e+00  7.0700026595625287e-01 1.6830425619537400e-04 0.0000000000000000e+00  6.9354827764347227e-01 -1.3796504869397799e-01 0.0000000000000000e+00  6.5333698141656016e-01 -2.7064739486309003e-01 0.0000000000000000e+00  5.8799974807397482e-01 -3.9290654452300461e-01 0.0000000000000000e+00  5.0006256557667705e-01 -5.0006258864469155e-01 0.0000000000000000e+00  3.9290760214451764e-01 -5.8800077258862327e-01 0.0000000000000000e+00  2.7065329649059450e-01 -6.5334227996181882e-01 0.0000000000000000e+00  1.3799791444468412e-01 -6.9357618505489160e-01 0.0000000000000000e+00  3.9345868599302791e-05 -7.0715634160659335e-01 0.0000000000000000e+00  -1.3792073539146116e-01 -6.9356087576723657e-01 0.0000000000000000e+00  -2.7058060020753300e-01 -6.5331225435247076e-01 0.0000000000000000e+00  -3.9284220430824129e-01 -5.8795720938539386e-01 0.0000000000000000e+00  -5.0000710280662775e-01 -5.0000729859486759e-01 0.0000000000000000e+00  -5.8795700875138046e-01 -3.9284238772777264e-01 0.0000000000000000e+00  -6.5331205657990288e-01 -2.7058076420909316e-01 0.0000000000000000e+00  -6.9356068845568519e-01 -1.3792087366533590e-01 0.0000000000000000e+00  -7.0715617202743164e-01 3.9238706459394123e-05 0.0000000000000000e+00  -6.9357604048591515e-01 1.3799784315677133e-01 0.0000000000000000e+00  -6.5334217067045219e-01 2.7065326788465349e-01 0.0000000000000000e+00  -5.8800072763464717e-01 3.9290763931184436e-01 0.0000000000000000e+00  -5.0006274639050663e-01 5.0006279050548585e-01 0.0000000000000000e+00  -3.9290763424122643e-01 5.8800080909869679e-01 0.0000000000000000e+00  -2.7065330205397231e-01 6.5334228635374902e-01 0.0000000000000000e+00  -1.3799791525448576e-01 6.9357618594450343e-01 0.0000000000000000e+00  -3.9345955503175378e-05 7.0715634166409069e-01 0.0000000000000000e+00  1.3792073550498216e-01 6.9356087561970325e-01 0.0000000000000000e+00  2.7058060155015290e-01 6.5331225286190231e-01 0.0000000000000000e+00  3.9284221529972496e-01 5.8795719726543205e-01 0.0000000000000000e+00  5.0000718248886078e-01 5.0000721060152520e-01 0.0000000000000000e+00  5.8795755002483707e-01 3.9284178705983824e-01 0.0000000000000000e+00  6.5331560114917953e-01 2.7057677515338951e-01 0.0000000000000000e+00  6.9358368227504885e-01 1.3789382304119027e-01 0.0000000000000000e+00  7.0731209725677502e-01 -2.4679504883500257e-04 0.0000000000000000e+00  8.3140528917498147e-01 1.1684088575214252e-04 0.0000000000000000e+00  8.1553351191469936e-01 -1.0841239823696414e-01 0.0000000000000000e+00  7.6823901239073156e-01 -2.1266019103144831e-01 0.0000000000000000e+00  6.9140650792731351e-01 -3.0871749067799281e-01 0.0000000000000000e+00  5.8800074572863092e-01 -3.9290762439447202e-01 0.0000000000000000e+00  4.6199786571432433e-01 -4.6199789103243405e-01 0.0000000000000000e+00  3.1824055407830909e-01 -5.1333371318379906e-01 0.0000000000000000e+00  1.6225341484778744e-01 -5.4494238497535596e-01 0.0000000000000000e+00  3.0963773898409910e-05 -5.5560922195350226e-01 0.0000000000000000e+00  -1.6219267793499051e-01 -5.4492430728096986e-01 0.0000000000000000e+00  -3.1818334612293747e-01 -5.1329825691199371e-01 0.0000000000000000e+00  -4.6194640677985005e-01 -4.6194644236447596e-01 0.0000000000000000e+00  -5.8795712608897477e-01 -3.9284228509724284e-01 0.0000000000000000e+00  -6.9137298277286441e-01 -3.0864141912236137e-01 0.0000000000000000e+00  -7.6821976345525445e-01 -2.1257963649883055e-01 0.0000000000000000e+00  -8.1554428945066770e-01 -1.0834853766072158e-01 0.0000000000000000e+00  -8.3152790576499935e-01 4.6334717121121641e-05 0.0000000000000000e+00  -8.1555637098700440e-01 1.0843942647776936e-01 0.0000000000000000e+00  -7.6824346224126427e-01 2.1266525189241181e-01 0.0000000000000000e+00  -6.9140738807750768e-01 3.0871847094089599e-01 0.0000000000000000e+00  -5.8800091573574964e-01 3.9290781228252986e-01 0.0000000000000000e+00  -4.6199789795737661e-01 4.6199792674382351e-01 0.0000000000000000e+00  -3.1824056005363988e-01 5.1333371997368227e-01 0.0000000000000000e+00  -1.6225341590534023e-01 5.4494238623345825e-01 0.0000000000000000e+00  -3.0964000045372584e-05 5.5560922222338038e-01 0.0000000000000000e+00  1.6219267778730259e-01 5.4492430744462239e-01 0.0000000000000000e+00  3.1818334612215909e-01 5.1329825691274489e-01 0.0000000000000000e+00  4.6194641048952384e-01 4.6194643827996279e-01 0.0000000000000000e+00  5.8795716674806708e-01 3.9284224023758968e-01 0.0000000000000000e+00  6.9137331665108059e-01 3.0864104899707506e-01 0.0000000000000000e+00  7.6822220906762784e-01 2.1257688667479002e-01 0.0000000000000000e+00  8.1556139993206112e-01 1.0832842174237324e-01 0.0000000000000000e+00  8.3165053608153938e-01 -2.0951103396993001e-04 0.0000000000000000e+00  9.2385986157124300e-01 6.0895218882380522e-05 0.0000000000000000e+00  9.0617821795013842e-01 -7.4693499535497809e-02 0.0000000000000000e+00  8.5361793870305436e-01 -1.4650049624948336e-01 0.0000000000000000e+00  7.6824276799029934e-01 -2.1266447325618687e-01 0.0000000000000000e+00  6.5334224622821802e-01 -2.7065331244152135e-01 0.0000000000000000e+00  5.1333368272690172e-01 -3.1824057227947866e-01 0.0000000000000000e+00  3.5359789765082722e-01 -3.5359791961524129e-01 0.0000000000000000e+00  1.8027352409638464e-01 -3.7536667588452716e-01 0.0000000000000000e+00  2.1336457214733132e-05 -3.8271029735420631e-01 0.0000000000000000e+00  -1.8023167185994049e-01 -3.7534657592759391e-01 0.0000000000000000e+00  -3.5355847824106623e-01 -3.5355849592522670e-01 0.0000000000000000e+00  -5.1329823060483004e-01 -3.1818336117276952e-01 0.0000000000000000e+00  -6.5331221983173138e-01 -2.7058061828402880e-01 0.0000000000000000e+00  -7.6821978683289704e-01 -2.1257961397711034e-01 0.0000000000000000e+00  -8.5360509824876718e-01 -1.4640929432100763e-01 0.0000000000000000e+00  -9.0618684444619846e-01 -7.4612547591434999e-02 0.0000000000000000e+00  -9.2394433840700019e-01 5.1517498873228285e-05 0.0000000000000000e+00  -9.0619516959677593e-01 7.4713602800590875e-02 0.0000000000000000e+00  -8.5362142861905832e-01 1.4650448624655749e-01 0.0000000000000000e+00  -7.6824349485594434e-01 2.1266528444675603e-01 0.0000000000000000e+00  -6.5334239442154518e-01 2.7065347502985537e-01 0.0000000000000000e+00  -5.1333371216871193e-01 3.1824060435238138e-01 0.0000000000000000e+00  -3.5359790324072060e-01 3.5359792572392429e-01 0.0000000000000000e+00  -1.8027352520323300e-01 3.7536667712319038e-01 0.0000000000000000e+00  -2.1336743310949508e-05 3.8271029768665654e-01 0.0000000000000000e+00  1.8023167146522656e-01 3.7534657636876684e-01 0.0000000000000000e+00  3.5355847690239905e-01 3.5355849740547929e-01 0.0000000000000000e+00  5.1329822692965010e-01 3.1818336525117336e-01 0.0000000000000000e+00  6.5331221997994116e-01 2.7058061827285862e-01 0.0000000000000000e+00  7.6821990014270158e-01 2.1257948899682746e-01 0.0000000000000000e+00  8.5360634744471897e-01 1.4640789241056937e-01 0.0000000000000000e+00  9.0619739274667477e-01 7.4600158207686632e-02 0.0000000000000000e+00  9.2402883361130395e-01 -1.6393194449795408e-04 0.0000000000000000e+00  9.8081101559664630e-01 2.6109646562843813e-06 0.0000000000000000e+00  9.6199900115963988e-01 -3.8104170010948062e-02 0.0000000000000000e+00  9.0619279217091497e-01 -7.4710860151515610e-02 0.0000000000000000e+00  8.1555586852860662e-01 -1.0843886367035928e-01 0.0000000000000000e+00  6.9357614628278830e-01 -1.3799792523390342e-01 0.0000000000000000e+00  5.4494235054725426e-01 -1.6225342754938246e-01 0.0000000000000000e+00  3.7536665076237746e-01 -1.8027353931515197e-01 0.0000000000000000e+00  1.9136580543190859e-01 -1.9136582299609001e-01 0.0000000000000000e+00  1.0876262125126423e-05 -1.9510402191754347e-01 0.0000000000000000e+00  -1.9134447153231746e-01 -1.9134448200050586e-01 0.0000000000000000e+00  -3.7534655871383887e-01 -1.8023168081944213e-01 0.0000000000000000e+00  -5.4492428816555727e-01 -1.6219267719223068e-01 0.0000000000000000e+00  -6.9356088282478234e-01 -1.3792069993361147e-01 0.0000000000000000e+00  -8.1554432171125613e-01 -1.0834850752231841e-01 0.0000000000000000e+00  -9.0618684967703100e-01 -7.4612542729291034e-02 0.0000000000000000e+00  -9.6200512520517856e-01 -3.8009259762344420e-02 0.0000000000000000e+00  -9.8085408327038315e-01 5.4697741432659857e-05 0.0000000000000000e+00  -9.6200936898481570e-01 3.8116553241682068e-02 0.0000000000000000e+00  -9.0619517415023620e-01 7.4713610976868253e-02 0.0000000000000000e+00  -8.1555640697319731e-01 1.0843946654211764e-01 0.0000000000000000e+00  -6.9357626444561515e-01 1.3799805422185488e-01 0.0000000000000000e+00  -5.4494237503812015e-01 1.6225345406879918e-01 0.0000000000000000e+00  -3.7536665576852835e-01 1.8027354467242854e-01 0.0000000000000000e+00  -1.9136580644250217e-01 1.9136582407129046e-01 0.0000000000000000e+00  -1.0876573650681353e-05 1.9510402225809248e-01 0.0000000000000000e+00  1.9134447091025916e-01 1.9134448268875340e-01 0.0000000000000000e+00  3.7534655609115991e-01 1.8023168371808540e-01 0.0000000000000000e+00  5.4492427724277770e-01 1.6219268928082539e-01 0.0000000000000000e+00  6.9356084243032068e-01 1.3792074478143412e-01 0.0000000000000000e+00  8.1554421000549948e-01 1.0834863253006921e-01 0.0000000000000000e+00  9.0618685394346443e-01 7.4612543033237916e-02 0.0000000000000000e+00  9.6200870235479685e-01 3.8005076412435827e-02 0.0000000000000000e+00  9.8089717407709776e-01 -1.1201008526039443e-04 0.0000000000000000e+00  1.0000701522021516e+00 -5.5773588520478623e-05 0.0000000000000000e+00  9.8085070163259969e-01 -5.0518073189495649e-05 0.0000000000000000e+00  9.2394316387132469e-01 -5.0127002602629778e-05 0.0000000000000000e+00  8.3152761020958432e-01 -4.6007172551366413e-05 0.0000000000000000e+00  7.0715630230622228e-01 -3.9355589252891989e-05 0.0000000000000000e+00  5.5560918610072119e-01 -3.0974648264829701e-05 0.0000000000000000e+00  3.8271027104590216e-01 -2.1349266493977369e-05 0.0000000000000000e+00  1.9510400343151835e-01 -1.0891108336467567e-05 0.0000000000000000e+00  -4.2126110730532279e-09 -1.1657336739556071e-08 0.0000000000000000e+00  -1.9510401221582080e-01 1.0868795904613417e-05 0.0000000000000000e+00  -3.8271028255786055e-01 2.1331682471654713e-05 0.0000000000000000e+00  -5.5560921138933284e-01 3.0974826668768783e-05 0.0000000000000000e+00  -7.0715638982040119e-01 3.9427629894426237e-05 0.0000000000000000e+00  -8.3152794476938063e-01 4.6365252363945958e-05 0.0000000000000000e+00  -9.2394434712727025e-01 5.1521084384034526e-05 0.0000000000000000e+00  -9.8085408637904459e-01 5.4696990061416117e-05 0.0000000000000000e+00  -1.0000701