<?xml version="1.0"?>
<VTKFile type="UnstructuredGrid"  version="0.1"  >
<UnstructuredGrid>
<Piece  NumberOfPoints="81" NumberOfCells="128">
<Points>
<DataArray  type="Float64"  NumberOfComponents="3"  format="ascii">0 0 0  0.125 0 0  0.25 0 0  0.375 0 0  0.5 0 0  0.625 0 0  0.75 0 0  0.875 0 0  1 0 0  0 0.125 0  0.125 0.125 0  0.25 0.125 0  0.375 0.125 0  0.5 0.125 0  0.625 0.125 0  0.75 0.125 0  0.875 0.125 0  1 0.125 0  0 0.25 0  0.125 0.25 0  0.25 0.25 0  0.375 0.25 0  0.5 0.25 0  0.625 0.25 0  0.75 0.25 0  0.875 0.25 0  1 0.25 0  0 0.375 0  0.125 0.375 0  0.25 0.375 0  0.375 0.375 0  0.5 0.375 0  0.625 0.375 0  0.75 0.375 0  0.875 0.375 0  1 0.375 0  0 0.5 0  0.125 0.5 0  0.25 0.5 0  0.375 0.5 0  0.5 0.5 0  0.625 0.5 0  0.75 0.5 0  0.875 0.5 0  1 0.5 0  0 0.625 0  0.125 0.625 0  0.25 0.625 0  0.375 0.625 0  0.5 0.625 0  0.625 0.625 0  0.75 0.625 0  0.875 0.625 0  1 0.625 0  0 0.75 0  0.125 0.75 0  0.25 0.75 0  0.375 0.75 0  0.5 0.75 0  0.625 0.75 0  0.75 0.75 0  0.875 0.75 0  1 0.75 0  0 0.875 0  0.125 0.875 0  0.25 0.875 0  0.375 0.875 0  0.5 0.875 0  0.625 0.875 0  0.75 0.875 0  0.875 0.875 0  1 0.875 0  0 1 0  0.125 1 0  0.25 1 0  0.375 1 0  0.5 1 0  0.625 1 0  0.75 1 0  0.875 1 0  1 1 0  </DataArray>
</Points>
<Cells>
<DataArray  type="UInt32"  Name="connectivity"  format="ascii">0 1 10  0 9 10  1 2 11  1 10 11  2 3 12  2 11 12  3 4 13  3 12 13  4 5 14  4 13 14  5 6 15  5 14 15  6 7 16  6 15 16  7 8 17  7 16 17  9 10 19  9 18 19  10 11 20  10 19 20  11 12 21  11 20 21  12 13 22  12 21 22  13 14 23  13 22 23  14 15 24  14 23 24  15 16 25  15 24 25  16 17 26  16 25 26  18 19 28  18 27 28  19 20 29  19 28 29  20 21 30  20 29 30  21 22 31  21 30 31  22 23 32  22 31 32  23 24 33  23 32 33  24 25 34  24 33 34  25 26 35  25 34 35  27 28 37  27 36 37  28 29 38  28 37 38  29 30 39  29 38 39  30 31 40  30 39 40  31 32 41  31 40 41  32 33 42  32 41 42  33 34 43  33 42 43  34 35 44  34 43 44  36 37 46  36 45 46  37 38 47  37 46 47  38 39 48  38 47 48  39 40 49  39 48 49  40 41 50  40 49 50  41 42 51  41 50 51  42 43 52  42 51 52  43 44 53  43 52 53  45 46 55  45 54 55  46 47 56  46 55 56  47 48 57  47 56 57  48 49 58  48 57 58  49 50 59  49 58 59  50 51 60  50 59 60  51 52 61  51 60 61  52 53 62  52 61 62  54 55 64  54 63 64  55 56 65  55 64 65  56 57 66  56 65 66  57 58 67  57 66 67  58 59 68  58 67 68  59 60 69  59 68 69  60 61 70  60 69 70  61 62 71  61 70 71  63 64 73  63 72 73  64 65 74  64 73 74  65 66 75  65 74 75  66 67 76  66 75 76  67 68 77  67 76 77  68 69 78  68 77 78  69 70 79  69 78 79  70 71 80  70 79 80  </DataArray>
<DataArray  type="UInt32"  Name="offsets"  format="ascii">3 6 9 12 15 18 21 24 27 30 33 36 39 42 45 48 51 54 57 60 63 66 69 72 75 78 81 84 87 90 93 96 99 102 105 108 111 114 117 120 123 126 129 132 135 138 141 144 147 150 153 156 159 162 165 168 171 174 177 180 183 186 189 192 195 198 201 204 207 210 213 216 219 222 225 228 231 234 237 240 243 246 249 252 255 258 261 264 267 270 273 276 279 282 285 288 291 294 297 300 303 306 309 312 315 318 321 324 327 330 333 336 339 342 345 348 351 354 357 360 363 366 369 372 375 378 381 384 </DataArray>
<DataArray  type="UInt8"  Name="types"  format="ascii">5 5 5 5 5 5 5 5 5 5 5 5 5 5 5 5 5 5 5 5 5 5 5 5 5 5 5 5 5 5 5 5 5 5 5 5 5 5 5 5 5 5 5 5 5 5 5 5 5 5 5 5 5 5 5 5 5 5 5 5 5 5 5 5 5 5 5 5 5 5 5 5 5 5 5 5 5 5 5 5 5 5 5 5 5 5 5 5 5 5 5 5 5 5 5 5 5 5 5 5 5 5 5 5 5 5 5 5 5 5 5 5 5 5 5 5 5 5 5 5 5 5 5 5 5 5 5 5 </DataArray>
</Cells>
<PointData  Vectors="f_14735"> 
<DataArray  type="Float64"  Name="f_14735"  NumberOfComponents="3" format="ascii">-1.2599741654243211e-02 1.2599779498802439e-02 0.0000000000000000e+00  -1.2864370571243928e-03 -6.3342628408524349e-01 0.0000000000000000e+00  8.3505391839646774e-03 -9.0319343256932083e-01 0.0000000000000000e+00  1.2973110586845044e-02 -6.4348707479680733e-01 0.0000000000000000e+00  9.9847677290113186e-03 -6.8128680222279909e-03 0.0000000000000000e+00  1.1652321480204435e-03 6.3383321322875885e-01 0.0000000000000000e+00  -8.1496132806361723e-03 9.0298303617395492e-01 0.0000000000000000e+00  -1.1606420265075018e-02 6.4186812395214843e-01 0.0000000000000000e+00  -4.7575366663079790e-03 -4.7575826565050784e-03 0.0000000000000000e+00  6.3342645742806214e-01 1.2867022904773484e-03 0.0000000000000000e+00  4.5401151874861378e-01 -4.5401175314873854e-01 0.0000000000000000e+00  5.3905897051130247e-03 -6.3815329062616122e-01 0.0000000000000000e+00  -4.4697976924419358e-01 -4.4781531196728136e-01 0.0000000000000000e+00  -6.3758124293865170e-01 4.9509172742371295e-03 0.0000000000000000e+00  -4.5470651260267092e-01 4.5483359117782979e-01 0.0000000000000000e+00  -5.4497222480703869e-03 6.3825737337949673e-01 0.0000000000000000e+00  4.4736740412089465e-01 4.4736730739652097e-01 0.0000000000000000e+00  6.4186823333172993e-01 -1.1606523951613079e-02 0.0000000000000000e+00  9.0319353576989436e-01 -8.3504494771007333e-03 0.0000000000000000e+00  6.3815317550366180e-01 -5.3906235854025829e-03 0.0000000000000000e+00  -2.4629183778618216e-04 2.4630342880961620e-04 0.0000000000000000e+00  -6.3869264322341668e-01 5.9398077506477333e-03 0.0000000000000000e+00  -9.0308863312325660e-01 8.2466956237895583e-03 0.0000000000000000e+00  -6.3850596764375733e-01 5.7656768681833889e-03 0.0000000000000000e+00  1.0239292729464693e-05 1.0194832786145236e-05 0.0000000000000000e+00  6.3825730410602532e-01 -5.4497120239449370e-03 0.0000000000000000e+00  9.0298297232249602e-01 -8.1496820864432121e-03 0.0000000000000000e+00  6.4348710791431540e-01 -1.2973037721696085e-02 0.0000000000000000e+00  4.4781552320796142e-01 4.4697957366981966e-01 0.0000000000000000e+00  -5.9397234964626297e-03 6.3869269869669743e-01 0.0000000000000000e+00  -4.5581585692027149e-01 4.5581579027704411e-01 0.0000000000000000e+00  -6.3866626917029712e-01 5.9103554534565847e-03 0.0000000000000000e+00  -4.4742477155504995e-01 -4.4742474057250031e-01 0.0000000000000000e+00  5.7657084946110384e-03 -6.3850604688516122e-01 0.0000000000000000e+00  4.5483364238952850e-01 -4.5470636779215362e-01 0.0000000000000000e+00  6.3383329822028034e-01 1.1652161118640893e-03 0.0000000000000000e+00  6.8128188570732101e-03 -9.9847416970334380e-03 0.0000000000000000e+00  -4.9506491244748528e-03 6.3758111512524951e-01 0.0000000000000000e+00  -8.2466144628072086e-03 9.0308877748768435e-01 0.0000000000000000e+00  -5.9104035503801545e-03 6.3866620917843209e-01 0.0000000000000000e+00  -8.0915566076929036e-08 -6.9929020453916225e-09 0.0000000000000000e+00  5.9102862312117145e-03 -6.3866621956285463e-01 0.0000000000000000e+00  8.2466690436187751e-03 -9.0308873386084110e-01 0.0000000000000000e+00  4.9510038829539650e-03 -6.3758108026326232e-01 0.0000000000000000e+00  -6.8127950972332769e-03 9.9847587829549403e-03 0.0000000000000000e+00  -6.3383324767582749e-01 -1.1652029724454342e-03 0.0000000000000000e+00  -4.5483344165076472e-01 4.5470650514793332e-01 0.0000000000000000e+00  -5.7657005811143133e-03 6.3850613631854880e-01 0.0000000000000000e+00  4.4742471112257320e-01 4.4742476834393075e-01 0.0000000000000000e+00  6.3866617230035116e-01 -5.9103657428696459e-03 0.0000000000000000e+00  4.5581577652228056e-01 -4.5581583261547043e-01 0.0000000000000000e+00  5.9397815656689395e-03 -6.3869271918957016e-01 0.0000000000000000e+00  -4.4781527513234332e-01 -4.4697964523399342e-01 0.0000000000000000e+00  -6.4348705982353471e-01 1.2973092499553947e-02 0.0000000000000000e+00  -9.0298294205256124e-01 8.1496829578809535e-03 0.0000000000000000e+00  -6.3825747269768041e-01 5.4497817940281253e-03 0.0000000000000000e+00  -1.0314851752973123e-05 -1.0092028634061116e-05 0.0000000000000000e+00  6.3850602119706468e-01 -5.7656208791042173e-03 0.0000000000000000e+00  9.0308872707252452e-01 -8.2466891162173619e-03 0.0000000000000000e+00  6.3869271631109004e-01 -5.9398525473163058e-03 0.0000000000000000e+00  2.4631935609546859e-04 -2.4636874958729432e-04 0.0000000000000000e+00  -6.3815323950814451e-01 5.3904462842135157e-03 0.0000000000000000e+00  -9.0319343687186149e-01 8.3504961407597084e-03 0.0000000000000000e+00  -6.4186812440247631e-01 1.1606604789826266e-02 0.0000000000000000e+00  -4.4736764001543905e-01 -4.4736730432216076e-01 0.0000000000000000e+00  5.4496326245335198e-03 -6.3825731258227025e-01 0.0000000000000000e+00  4.5470639505401345e-01 -4.5483360464169237e-01 0.0000000000000000e+00  6.3758111891520319e-01 -4.9509964396995719e-03 0.0000000000000000e+00  4.4697965928442063e-01 4.4781521651759187e-01 0.0000000000000000e+00  -5.3905291172874938e-03 6.3815312923956480e-01 0.0000000000000000e+00  -4.5401184968958153e-01 4.5401169932344643e-01 0.0000000000000000e+00  -6.3342625617474313e-01 -1.2866334476908299e-03 0.0000000000000000e+00  4.7573364611226921e-03 4.7575017334532208e-03 0.0000000000000000e+00  1.1606306334810522e-02 -6.4186822776858743e-01 0.0000000000000000e+00  8.1495822273550938e-03 -9.0298294112988575e-01 0.0000000000000000e+00  -1.1651024852116754e-03 -6.3383313727861723e-01 0.0000000000000000e+00  -9.9845847624241268e-03 6.8129543976545807e-03 0.0000000000000000e+00  -1.2972972521378051e-02 6.4348712638511463e-01 0.0000000000000000e+00  -8.3505007818632966e-03 9.0319341760576188e-01 0.0000000000000000e+00  1.2866051915608101e-03 6.3342629346911761e-01 0.0000000000000000e+00  1.2599481250486674e-02 -1.2599693915214590e-02 0.0000000000000000e+00  </DataArray> 
</PointData> 
</Piece>
</UnstructuredGrid>
</VTKFile>