<?xml version="1.0"?>
<VTKFile type="UnstructuredGrid"  version="0.1"  >
<UnstructuredGrid>
<Piece  NumberOfPoints="81" NumberOfCells="128">
<Points>
<DataArray  type="Float64"  NumberOfComponents="3"  format="ascii">0 0 0  0.125 0 0  0.25 0 0  0.375 0 0  0.5 0 0  0.625 0 0  0.75 0 0  0.875 0 0  1 0 0  0 0.125 0  0.125 0.125 0  0.25 0.125 0  0.375 0.125 0  0.5 0.125 0  0.625 0.125 0  0.75 0.125 0  0.875 0.125 0  1 0.125 0  0 0.25 0  0.125 0.25 0  0.25 0.25 0  0.375 0.25 0  0.5 0.25 0  0.625 0.25 0  0.75 0.25 0  0.875 0.25 0  1 0.25 0  0 0.375 0  0.125 0.375 0  0.25 0.375 0  0.375 0.375 0  0.5 0.375 0  0.625 0.375 0  0.75 0.375 0  0.875 0.375 0  1 0.375 0  0 0.5 0  0.125 0.5 0  0.25 0.5 0  0.375 0.5 0  0.5 0.5 0  0.625 0.5 0  0.75 0.5 0  0.875 0.5 0  1 0.5 0  0 0.625 0  0.125 0.625 0  0.25 0.625 0  0.375 0.625 0  0.5 0.625 0  0.625 0.625 0  0.75 0.625 0  0.875 0.625 0  1 0.625 0  0 0.75 0  0.125 0.75 0  0.25 0.75 0  0.375 0.75 0  0.5 0.75 0  0.625 0.75 0  0.75 0.75 0  0.875 0.75 0  1 0.75 0  0 0.875 0  0.125 0.875 0  0.25 0.875 0  0.375 0.875 0  0.5 0.875 0  0.625 0.875 0  0.75 0.875 0  0.875 0.875 0  1 0.875 0  0 1 0  0.125 1 0  0.25 1 0  0.375 1 0  0.5 1 0  0.625 1 0  0.75 1 0  0.875 1 0  1 1 0  </DataArray>
</Points>
<Cells>
<DataArray  type="UInt32"  Name="connectivity"  format="ascii">0 1 10  0 9 10  1 2 11  1 10 11  2 3 12  2 11 12  3 4 13  3 12 13  4 5 14  4 13 14  5 6 15  5 14 15  6 7 16  6 15 16  7 8 17  7 16 17  9 10 19  9 18 19  10 11 20  10 19 20  11 12 21  11 20 21  12 13 22  12 21 22  13 14 23  13 22 23  14 15 24  14 23 24  15 16 25  15 24 25  16 17 26  16 25 26  18 19 28  18 27 28  19 20 29  19 28 29  20 21 30  20 29 30  21 22 31  21 30 31  22 23 32  22 31 32  23 24 33  23 32 33  24 25 34  24 33 34  25 26 35  25 34 35  27 28 37  27 36 37  28 29 38  28 37 38  29 30 39  29 38 39  30 31 40  30 39 40  31 32 41  31 40 41  32 33 42  32 41 42  33 34 43  33 42 43  34 35 44  34 43 44  36 37 46  36 45 46  37 38 47  37 46 47  38 39 48  38 47 48  39 40 49  39 48 49  40 41 50  40 49 50  41 42 51  41 50 51  42 43 52  42 51 52  43 44 53  43 52 53  45 46 55  45 54 55  46 47 56  46 55 56  47 48 57  47 56 57  48 49 58  48 57 58  49 50 59  49 58 59  50 51 60  50 59 60  51 52 61  51 60 61  52 53 62  52 61 62  54 55 64  54 63 64  55 56 65  55 64 65  56 57 66  56 65 66  57 58 67  57 66 67  58 59 68  58 67 68  59 60 69  59 68 69  60 61 70  60 69 70  61 62 71  61 70 71  63 64 73  63 72 73  64 65 74  64 73 74  65 66 75  65 74 75  66 67 76  66 75 76  67 68 77  67 76 77  68 69 78  68 77 78  69 70 79  69 78 79  70 71 80  70 79 80  </DataArray>
<DataArray  type="UInt32"  Name="offsets"  format="ascii">3 6 9 12 15 18 21 24 27 30 33 36 39 42 45 48 51 54 57 60 63 66 69 72 75 78 81 84 87 90 93 96 99 102 105 108 111 114 117 120 123 126 129 132 135 138 141 144 147 150 153 156 159 162 165 168 171 174 177 180 183 186 189 192 195 198 201 204 207 210 213 216 219 222 225 228 231 234 237 240 243 246 249 252 255 258 261 264 267 270 273 276 279 282 285 288 291 294 297 300 303 306 309 312 315 318 321 324 327 330 333 336 339 342 345 348 351 354 357 360 363 366 369 372 375 378 381 384 </DataArray>
<DataArray  type="UInt8"  Name="types"  format="ascii">5 5 5 5 5 5 5 5 5 5 5 5 5 5 5 5 5 5 5 5 5 5 5 5 5 5 5 5 5 5 5 5 5 5 5 5 5 5 5 5 5 5 5 5 5 5 5 5 5 5 5 5 5 5 5 5 5 5 5 5 5 5 5 5 5 5 5 5 5 5 5 5 5 5 5 5 5 5 5 5 5 5 5 5 5 5 5 5 5 5 5 5 5 5 5 5 5 5 5 5 5 5 5 5 5 5 5 5 5 5 5 5 5 5 5 5 5 5 5 5 5 5 5 5 5 5 5 5 </DataArray>
</Cells>
<PointData  Vectors="f_16595"> 
<DataArray  type="Float64"  Name="f_16595"  NumberOfComponents="3" format="ascii">-9.3871764513005808e-03 9.3872046466051736e-03 0.0000000000000000e+00  -9.5843327427673052e-04 -4.7192112828736116e-01 0.0000000000000000e+00  6.2213961948159981e-03 -6.7290555265699725e-01 0.0000000000000000e+00  9.6653472382854273e-03 -4.7941671194619373e-01 0.0000000000000000e+00  7.4389443108871783e-03 -5.0757861564993982e-03 0.0000000000000000e+00  8.6813206812950440e-04 4.7222430241411595e-01 0.0000000000000000e+00  -6.0717005137506091e-03 6.7274880118206881e-01 0.0000000000000000e+00  -8.6471229320416801e-03 4.7821054616424102e-01 0.0000000000000000e+00  -3.5445041164892067e-03 -3.5445383805324596e-03 0.0000000000000000e+00  4.7192125743283697e-01 9.5863088089078851e-04 0.0000000000000000e+00  3.3825187486926384e-01 -3.3825204950421989e-01 0.0000000000000000e+00  4.0161471661141297e-03 -4.7544288656651656e-01 0.0000000000000000e+00  -3.3301301559970808e-01 -3.3363551939299685e-01 0.0000000000000000e+00  -4.7501669428983584e-01 3.6885783315568836e-03 0.0000000000000000e+00  -3.3876966563987110e-01 3.3886434289920953e-01 0.0000000000000000e+00  -4.0602026420109797e-03 4.7552043126528187e-01 0.0000000000000000e+00  3.3330181493275213e-01 3.3330174287026165e-01 0.0000000000000000e+00  4.7821062765523176e-01 -8.6472001815487663e-03 0.0000000000000000e+00  6.7290562954444655e-01 -6.2213293605757631e-03 0.0000000000000000e+00  4.7544280079688356e-01 -4.0161724079219334e-03 0.0000000000000000e+00  -1.8349463054555715e-04 1.8350326619739264e-04 0.0000000000000000e+00  -4.7584472004365008e-01 4.4253306910745074e-03 0.0000000000000000e+00  -6.7282747400116483e-01 6.1440297019589489e-03 0.0000000000000000e+00  -4.7570564127096548e-01 4.2955980851076695e-03 0.0000000000000000e+00  7.6285728887410776e-06 7.5954489290402816e-06 0.0000000000000000e+00  4.7552037965451732e-01 -4.0601950247381802e-03 0.0000000000000000e+00  6.7274875361086284e-01 -6.0717517760914179e-03 0.0000000000000000e+00  4.7941673661970652e-01 -9.6652929516159100e-03 0.0000000000000000e+00  3.3363567677348854e-01 3.3301286989107315e-01 0.0000000000000000e+00  -4.4252679192396281e-03 4.7584476137286824e-01 0.0000000000000000e+00  -3.3959615963794898e-01 3.3959610998679335e-01 0.0000000000000000e+00  -4.7582507060184664e-01 4.4033878673074133e-03 0.0000000000000000e+00  -3.3334455535090912e-01 -3.3334453226800231e-01 0.0000000000000000e+00  4.2956216477223188e-03 -4.7570570030813164e-01 0.0000000000000000e+00  3.3886438105342465e-01 -3.3876955775179562e-01 0.0000000000000000e+00  4.7222436573528814e-01 8.6812012072355203e-04 0.0000000000000000e+00  5.0757495270195149e-03 -7.4389249163013685e-03 0.0000000000000000e+00  -3.6883785521325298e-03 4.7501659906510912e-01 0.0000000000000000e+00  -6.1439692346508014e-03 6.7282758155689015e-01 0.0000000000000000e+00  -4.4034237009236699e-03 4.7582502590615056e-01 0.0000000000000000e+00  -6.0284465876535798e-08 -5.2099169150449537e-09 0.0000000000000000e+00  4.4033362947082664e-03 -4.7582503364284962e-01 0.0000000000000000e+00  6.1440098989534722e-03 -6.7282754905361464e-01 0.0000000000000000e+00  3.6886428575867479e-03 -4.7501657309190776e-01 0.0000000000000000e+00  -5.0757318252431741e-03 7.4389376458132272e-03 0.0000000000000000e+00  -4.7222432807819048e-01 -8.6811033147188071e-04 0.0000000000000000e+00  -3.3886423149716810e-01 3.3876966008587345e-01 0.0000000000000000e+00  -4.2956157519354965e-03 4.7570576693862393e-01 0.0000000000000000e+00  3.3334451032694468e-01 3.3334455295853127e-01 0.0000000000000000e+00  4.7582499843090076e-01 -4.4033955332214887e-03 0.0000000000000000e+00  3.3959609973909172e-01 -3.3959614153016049e-01 0.0000000000000000e+00  4.4253111824986277e-03 -4.7584477664065827e-01 0.0000000000000000e+00  -3.3363549194988956e-01 -3.3301292320847797e-01 0.0000000000000000e+00  -4.7941670079066745e-01 9.6653337627237781e-03 0.0000000000000000e+00  -6.7274873105887478e-01 6.0717524253381507e-03 0.0000000000000000e+00  -4.7552050526023648e-01 4.0602470054930005e-03 0.0000000000000000e+00  -7.6848665733830517e-06 -7.5188568257242721e-06 0.0000000000000000e+00  4.7570568116974776e-01 -4.2955563716043643e-03 0.0000000000000000e+00  6.7282754399611999e-01 -6.1440248536271409e-03 0.0000000000000000e+00  4.7584477449610635e-01 -4.4253640659042276e-03 0.0000000000000000e+00  1.8351513249168573e-04 -1.8355193208935926e-04 0.0000000000000000e+00  -4.7544284848209734e-01 4.0160403133446430e-03 0.0000000000000000e+00  -6.7290555586251621e-01 6.2213641263681643e-03 0.0000000000000000e+00  -4.7821054649974865e-01 8.6472604083843475e-03 0.0000000000000000e+00  -3.3330199068109478e-01 -3.3330174057977313e-01 0.0000000000000000e+00  4.0601358698517985e-03 -4.7552038596956792e-01 0.0000000000000000e+00  3.3876957806267965e-01 -3.3886435293018136e-01 0.0000000000000000e+00  4.7501660188873535e-01 -3.6886373121442755e-03 0.0000000000000000e+00  3.3301293367645773e-01 3.3363544828018343e-01 0.0000000000000000e+00  -4.0161020264101203e-03 4.7544276632877686e-01 0.0000000000000000e+00  -3.3825212142997457e-01 3.3825200940280120e-01 0.0000000000000000e+00  -4.7192110749322180e-01 -9.5857959099915693e-04 0.0000000000000000e+00  3.5443549577638222e-03 3.5444780904894915e-03 0.0000000000000000e+00  8.6470380506588739e-03 -4.7821062351052751e-01 0.0000000000000000e+00  6.0716773781469410e-03 -6.7274873037145466e-01 0.0000000000000000e+00  -8.6803546554044774e-04 -4.7222424582903666e-01 0.0000000000000000e+00  -7.4388079954224454e-03 5.0758505087213782e-03 0.0000000000000000e+00  -9.6652443754697333e-03 4.7941675038099335e-01 0.0000000000000000e+00  -6.2213675841262224e-03 6.7290554150870752e-01 0.0000000000000000e+00  9.5855853935487682e-04 4.7192113527862262e-01 0.0000000000000000e+00  9.3869824428775440e-03 -9.3871408843262567e-03 0.0000000000000000e+00  </DataArray> 
</PointData> 
</Piece>
</UnstructuredGrid>
</VTKFile>