<?xml version="1.0"?>
<VTKFile type="UnstructuredGrid"  version="0.1"  >
<UnstructuredGrid>
<Piece  NumberOfPoints="81" NumberOfCells="128">
<Points>
<DataArray  type="Float64"  NumberOfComponents="3"  format="ascii">0 0 0  0.125 0 0  0.25 0 0  0.375 0 0  0.5 0 0  0.625 0 0  0.75 0 0  0.875 0 0  1 0 0  0 0.125 0  0.125 0.125 0  0.25 0.125 0  0.375 0.125 0  0.5 0.125 0  0.625 0.125 0  0.75 0.125 0  0.875 0.125 0  1 0.125 0  0 0.25 0  0.125 0.25 0  0.25 0.25 0  0.375 0.25 0  0.5 0.25 0  0.625 0.25 0  0.75 0.25 0  0.875 0.25 0  1 0.25 0  0 0.375 0  0.125 0.375 0  0.25 0.375 0  0.375 0.375 0  0.5 0.375 0  0.625 0.375 0  0.75 0.375 0  0.875 0.375 0  1 0.375 0  0 0.5 0  0.125 0.5 0  0.25 0.5 0  0.375 0.5 0  0.5 0.5 0  0.625 0.5 0  0.75 0.5 0  0.875 0.5 0  1 0.5 0  0 0.625 0  0.125 0.625 0  0.25 0.625 0  0.375 0.625 0  0.5 0.625 0  0.625 0.625 0  0.75 0.625 0  0.875 0.625 0  1 0.625 0  0 0.75 0  0.125 0.75 0  0.25 0.75 0  0.375 0.75 0  0.5 0.75 0  0.625 0.75 0  0.75 0.75 0  0.875 0.75 0  1 0.75 0  0 0.875 0  0.125 0.875 0  0.25 0.875 0  0.375 0.875 0  0.5 0.875 0  0.625 0.875 0  0.75 0.875 0  0.875 0.875 0  1 0.875 0  0 1 0  0.125 1 0  0.25 1 0  0.375 1 0  0.5 1 0  0.625 1 0  0.75 1 0  0.875 1 0  1 1 0  </DataArray>
</Points>
<Cells>
<DataArray  type="UInt32"  Name="connectivity"  format="ascii">0 1 10  0 9 10  1 2 11  1 10 11  2 3 12  2 11 12  3 4 13  3 12 13  4 5 14  4 13 14  5 6 15  5 14 15  6 7 16  6 15 16  7 8 17  7 16 17  9 10 19  9 18 19  10 11 20  10 19 20  11 12 21  11 20 21  12 13 22  12 21 22  13 14 23  13 22 23  14 15 24  14 23 24  15 16 25  15 24 25  16 17 26  16 25 26  18 19 28  18 27 28  19 20 29  19 28 29  20 21 30  20 29 30  21 22 31  21 30 31  22 23 32  22 31 32  23 24 33  23 32 33  24 25 34  24 33 34  25 26 35  25 34 35  27 28 37  27 36 37  28 29 38  28 37 38  29 30 39  29 38 39  30 31 40  30 39 40  31 32 41  31 40 41  32 33 42  32 41 42  33 34 43  33 42 43  34 35 44  34 43 44  36 37 46  36 45 46  37 38 47  37 46 47  38 39 48  38 47 48  39 40 49  39 48 49  40 41 50  40 49 50  41 42 51  41 50 51  42 43 52  42 51 52  43 44 53  43 52 53  45 46 55  45 54 55  46 47 56  46 55 56  47 48 57  47 56 57  48 49 58  48 57 58  49 50 59  49 58 59  50 51 60  50 59 60  51 52 61  51 60 61  52 53 62  52 61 62  54 55 64  54 63 64  55 56 65  55 64 65  56 57 66  56 65 66  57 58 67  57 66 67  58 59 68  58 67 68  59 60 69  59 68 69  60 61 70  60 69 70  61 62 71  61 70 71  63 64 73  63 72 73  64 65 74  64 73 74  65 66 75  65 74 75  66 67 76  66 75 76  67 68 77  67 76 77  68 69 78  68 77 78  69 70 79  69 78 79  70 71 80  70 79 80  </DataArray>
<DataArray  type="UInt32"  Name="offsets"  format="ascii">3 6 9 12 15 18 21 24 27 30 33 36 39 42 45 48 51 54 57 60 63 66 69 72 75 78 81 84 87 90 93 96 99 102 105 108 111 114 117 120 123 126 129 132 135 138 141 144 147 150 153 156 159 162 165 168 171 174 177 180 183 186 189 192 195 198 201 204 207 210 213 216 219 222 225 228 231 234 237 240 243 246 249 252 255 258 261 264 267 270 273 276 279 282 285 288 291 294 297 300 303 306 309 312 315 318 321 324 327 330 333 336 339 342 345 348 351 354 357 360 363 366 369 372 375 378 381 384 </DataArray>
<DataArray  type="UInt8"  Name="types"  format="ascii">5 5 5 5 5 5 5 5 5 5 5 5 5 5 5 5 5 5 5 5 5 5 5 5 5 5 5 5 5 5 5 5 5 5 5 5 5 5 5 5 5 5 5 5 5 5 5 5 5 5 5 5 5 5 5 5 5 5 5 5 5 5 5 5 5 5 5 5 5 5 5 5 5 5 5 5 5 5 5 5 5 5 5 5 5 5 5 5 5 5 5 5 5 5 5 5 5 5 5 5 5 5 5 5 5 5 5 5 5 5 5 5 5 5 5 5 5 5 5 5 5 5 5 5 5 5 5 5 </DataArray>
</Cells>
<PointData  Vectors="f_6659"> 
<DataArray  type="Float64"  Name="f_6659"  NumberOfComponents="3" format="ascii">-8.3581542330773088e-03 8.3581793376127766e-03 0.0000000000000000e+00  -8.5336982532265959e-04 -4.2018913744049624e-01 0.0000000000000000e+00  5.5394067866008116e-03 -5.9914165058889646e-01 0.0000000000000000e+00  8.6058319403004256e-03 -4.2686305527004526e-01 0.0000000000000000e+00  6.6234872865370041e-03 -4.5193785128289470e-03 0.0000000000000000e+00  7.7296743677402683e-04 4.2045907762155488e-01 0.0000000000000000e+00  -5.4061207450672418e-03 5.9900208220957496e-01 0.0000000000000000e+00  -7.6992253755251974e-03 4.2578910937283915e-01 0.0000000000000000e+00  -3.1559555995445037e-03 -3.1559861075637539e-03 0.0000000000000000e+00  4.2018925242904565e-01 8.5354577030095544e-04 0.0000000000000000e+00  3.0117270666551099e-01 -3.0117286215698458e-01 0.0000000000000000e+00  3.5758971413037280e-03 -4.2332484060123948e-01 0.0000000000000000e+00  -2.9650813111316116e-01 -2.9706239604489815e-01 0.0000000000000000e+00  -4.2294536751900591e-01 3.2842364001444335e-03 0.0000000000000000e+00  -3.0163373721539505e-01 3.0171803595421387e-01 0.0000000000000000e+00  -3.6151232562348225e-03 4.2339388485065776e-01 0.0000000000000000e+00  2.9676527226529703e-01 2.9676520810229634e-01 0.0000000000000000e+00  4.2578918193078835e-01 -7.6992941569416096e-03 0.0000000000000000e+00  5.9914171904794400e-01 -5.5393472787295056e-03 0.0000000000000000e+00  4.2332476423367321e-01 -3.5759196161046832e-03 0.0000000000000000e+00  -1.6337995040337764e-04 1.6338763941509729e-04 0.0000000000000000e+00  -4.2368262509536470e-01 3.9402259710637384e-03 0.0000000000000000e+00  -5.9907213091478095e-01 5.4705212081601539e-03 0.0000000000000000e+00  -4.2355879213678826e-01 3.8247146524733942e-03 0.0000000000000000e+00  6.7923287809248422e-06 6.7628358695645554e-06 0.0000000000000000e+00  4.2339383889746474e-01 -3.6151164739673830e-03 0.0000000000000000e+00  5.9900203985312406e-01 -5.4061663880306332e-03 0.0000000000000000e+00  4.2686307723884792e-01 -8.6057836045353511e-03 0.0000000000000000e+00  2.9706253617334127e-01 2.9650800137710576e-01 0.0000000000000000e+00  -3.9401700802769732e-03 4.2368266189407439e-01 0.0000000000000000e+00  -3.0236963094707098e-01 3.0236958673867459e-01 0.0000000000000000e+00  -4.2366512962523717e-01 3.9206885194875609e-03 0.0000000000000000e+00  -2.9680332747910887e-01 -2.9680330692655016e-01 0.0000000000000000e+00  3.8247356321543784e-03 -4.2355884470230076e-01 0.0000000000000000e+00  3.0171806992596434e-01 -3.0163364115400970e-01 0.0000000000000000e+00  4.2045913400146051e-01 7.7295679904260074e-04 0.0000000000000000e+00  4.5193458986724369e-03 -6.6234700179855248e-03 0.0000000000000000e+00  -3.2840585205393025e-03 4.2294528273281323e-01 0.0000000000000000e+00  -5.4704673692778866e-03 5.9907222668024840e-01 0.0000000000000000e+00  -3.9207204250230566e-03 4.2366508982908302e-01 0.0000000000000000e+00  -5.3676083166284579e-08 -4.6388058020782908e-09 0.0000000000000000e+00  3.9206426002762074e-03 -4.2366509671768515e-01 0.0000000000000000e+00  5.4705035759601067e-03 -5.9907219773998166e-01 0.0000000000000000e+00  3.2842938528313726e-03 -4.2294525960679391e-01 0.0000000000000000e+00  -4.5193301373645228e-03 6.6234813520884110e-03 0.0000000000000000e+00  -4.2045910047233381e-01 -7.7294808288859711e-04 0.0000000000000000e+00  -3.0171793676406344e-01 3.0163373227022666e-01 0.0000000000000000e+00  -3.8247303826636752e-03 4.2355890402875895e-01 0.0000000000000000e+00  2.9680328739067113e-01 2.9680332534898324e-01 0.0000000000000000e+00  4.2366506536567006e-01 -3.9206953450641414e-03 0.0000000000000000e+00  3.0236957761432603e-01 -3.0236961482425823e-01 0.0000000000000000e+00  3.9402086010178299e-03 -4.2368267548820959e-01 0.0000000000000000e+00  -2.9706237161010401e-01 -2.9650804884985710e-01 0.0000000000000000e+00  -4.2686304533738767e-01 8.6058199419298039e-03 0.0000000000000000e+00  -5.9900201977328515e-01 5.4061669661068660e-03 0.0000000000000000e+00  -4.2339395073428598e-01 3.6151627565922141e-03 0.0000000000000000e+00  -6.8424515523387036e-06 -6.6946397920643946e-06 0.0000000000000000e+00  4.2355882766186626e-01 -3.8246775116040350e-03 0.0000000000000000e+00  5.9907219323688965e-01 -5.4705168913024762e-03 0.0000000000000000e+00  4.2368267357874351e-01 -3.9402556873448426e-03 0.0000000000000000e+00  1.6339820492632386e-04 -1.6343097055227274e-04 0.0000000000000000e+00  -4.2332480669163391e-01 3.5758020017341336e-03 0.0000000000000000e+00  -5.9914165344302606e-01 5.5393782334959797e-03 0.0000000000000000e+00  -4.2578910967156858e-01 7.6993477817121044e-03 0.0000000000000000e+00  -2.9676542874810763e-01 -2.9676520606289142e-01 0.0000000000000000e+00  3.6150638036392593e-03 -4.2339384452025958e-01 0.0000000000000000e+00  3.0163365923841456e-01 -3.0171804488559090e-01 0.0000000000000000e+00  4.2294528524691355e-01 -3.2842889152802741e-03 0.0000000000000000e+00  2.9650805817033693e-01 2.9706233272747090e-01 0.0000000000000000e+00  -3.5758569498138236e-03 4.2332473354395994e-01 0.0000000000000000e+00  -3.0117292619823854e-01 3.0117282645148308e-01 0.0000000000000000e+00  -4.2018911892580990e-01 -8.5350010280687400e-04 0.0000000000000000e+00  3.1558227915978033e-03 3.1559324265148518e-03 0.0000000000000000e+00  7.6991497988389028e-03 -4.2578917824042645e-01 0.0000000000000000e+00  5.4061001455883136e-03 -5.9900201916121987e-01 0.0000000000000000e+00  -7.7288142376011283e-04 -4.2045902723933176e-01 0.0000000000000000e+00  -6.6233659139725478e-03 4.5194358107607403e-03 0.0000000000000000e+00  -8.6057403533059997e-03 4.2686308949162233e-01 0.0000000000000000e+00  -5.5393813122146416e-03 5.9914164066268216e-01 0.0000000000000000e+00  8.5348135884369717e-04 4.2018914366537541e-01 0.0000000000000000e+00  8.3579814918563426e-03 -8.3581225649546134e-03 0.0000000000000000e+00  </DataArray> 
</PointData> 
</Piece>
</UnstructuredGrid>
</VTKFile>