<?xml version="1.0"?>
<VTKFile type="UnstructuredGrid"  version="0.1"  >
<UnstructuredGrid>
<Piece  NumberOfPoints="1089" NumberOfCells="2048">
<Points>
<DataArray  type="Float64"  NumberOfComponents="3"  format="ascii">0 0 0  0.03125 0 0  0.0625 0 0  0.09375 0 0  0.125 0 0  0.15625 0 0  0.1875 0 0  0.21875 0 0  0.25 0 0  0.28125 0 0  0.3125 0 0  0.34375 0 0  0.375 0 0  0.40625 0 0  0.4375 0 0  0.46875 0 0  0.5 0 0  0.53125 0 0  0.5625 0 0  0.59375 0 0  0.625 0 0  0.65625 0 0  0.6875 0 0  0.71875 0 0  0.75 0 0  0.78125 0 0  0.8125 0 0  0.84375 0 0  0.875 0 0  0.90625 0 0  0.9375 0 0  0.96875 0 0  1 0 0  0 0.03125 0  0.03125 0.03125 0  0.0625 0.03125 0  0.09375 0.03125 0  0.125 0.03125 0  0.15625 0.03125 0  0.1875 0.03125 0  0.21875 0.03125 0  0.25 0.03125 0  0.28125 0.03125 0  0.3125 0.03125 0  0.34375 0.03125 0  0.375 0.03125 0  0.40625 0.03125 0  0.4375 0.03125 0  0.46875 0.03125 0  0.5 0.03125 0  0.53125 0.03125 0  0.5625 0.03125 0  0.59375 0.03125 0  0.625 0.03125 0  0.65625 0.03125 0  0.6875 0.03125 0  0.71875 0.03125 0  0.75 0.03125 0  0.78125 0.03125 0  0.8125 0.03125 0  0.84375 0.03125 0  0.875 0.03125 0  0.90625 0.03125 0  0.9375 0.03125 0  0.96875 0.03125 0  1 0.03125 0  0 0.0625 0  0.03125 0.0625 0  0.0625 0.0625 0  0.09375 0.0625 0  0.125 0.0625 0  0.15625 0.0625 0  0.1875 0.0625 0  0.21875 0.0625 0  0.25 0.0625 0  0.28125 0.0625 0  0.3125 0.0625 0  0.34375 0.0625 0  0.375 0.0625 0  0.40625 0.0625 0  0.4375 0.0625 0  0.46875 0.0625 0  0.5 0.0625 0  0.53125 0.0625 0  0.5625 0.0625 0  0.59375 0.0625 0  0.625 0.0625 0  0.65625 0.0625 0  0.6875 0.0625 0  0.71875 0.0625 0  0.75 0.0625 0  0.78125 0.0625 0  0.8125 0.0625 0  0.84375 0.0625 0  0.875 0.0625 0  0.90625 0.0625 0  0.9375 0.0625 0  0.96875 0.0625 0  1 0.0625 0  0 0.09375 0  0.03125 0.09375 0  0.0625 0.09375 0  0.09375 0.09375 0  0.125 0.09375 0  0.15625 0.09375 0  0.1875 0.09375 0  0.21875 0.09375 0  0.25 0.09375 0  0.28125 0.09375 0  0.3125 0.09375 0  0.34375 0.09375 0  0.375 0.09375 0  0.40625 0.09375 0  0.4375 0.09375 0  0.46875 0.09375 0  0.5 0.09375 0  0.53125 0.09375 0  0.5625 0.09375 0  0.59375 0.09375 0  0.625 0.09375 0  0.65625 0.09375 0  0.6875 0.09375 0  0.71875 0.09375 0  0.75 0.09375 0  0.78125 0.09375 0  0.8125 0.09375 0  0.84375 0.09375 0  0.875 0.09375 0  0.90625 0.09375 0  0.9375 0.09375 0  0.96875 0.09375 0  1 0.09375 0  0 0.125 0  0.03125 0.125 0  0.0625 0.125 0  0.09375 0.125 0  0.125 0.125 0  0.15625 0.125 0  0.1875 0.125 0  0.21875 0.125 0  0.25 0.125 0  0.28125 0.125 0  0.3125 0.125 0  0.34375 0.125 0  0.375 0.125 0  0.40625 0.125 0  0.4375 0.125 0  0.46875 0.125 0  0.5 0.125 0  0.53125 0.125 0  0.5625 0.125 0  0.59375 0.125 0  0.625 0.125 0  0.65625 0.125 0  0.6875 0.125 0  0.71875 0.125 0  0.75 0.125 0  0.78125 0.125 0  0.8125 0.125 0  0.84375 0.125 0  0.875 0.125 0  0.90625 0.125 0  0.9375 0.125 0  0.96875 0.125 0  1 0.125 0  0 0.15625 0  0.03125 0.15625 0  0.0625 0.15625 0  0.09375 0.15625 0  0.125 0.15625 0  0.15625 0.15625 0  0.1875 0.15625 0  0.21875 0.15625 0  0.25 0.15625 0  0.28125 0.15625 0  0.3125 0.15625 0  0.34375 0.15625 0  0.375 0.15625 0  0.40625 0.15625 0  0.4375 0.15625 0  0.46875 0.15625 0  0.5 0.15625 0  0.53125 0.15625 0  0.5625 0.15625 0  0.59375 0.15625 0  0.625 0.15625 0  0.65625 0.15625 0  0.6875 0.15625 0  0.71875 0.15625 0  0.75 0.15625 0  0.78125 0.15625 0  0.8125 0.15625 0  0.84375 0.15625 0  0.875 0.15625 0  0.90625 0.15625 0  0.9375 0.15625 0  0.96875 0.15625 0  1 0.15625 0  0 0.1875 0  0.03125 0.1875 0  0.0625 0.1875 0  0.09375 0.1875 0  0.125 0.1875 0  0.15625 0.1875 0  0.1875 0.1875 0  0.21875 0.1875 0  0.25 0.1875 0  0.28125 0.1875 0  0.3125 0.1875 0  0.34375 0.1875 0  0.375 0.1875 0  0.40625 0.1875 0  0.4375 0.1875 0  0.46875 0.1875 0  0.5 0.1875 0  0.53125 0.1875 0  0.5625 0.1875 0  0.59375 0.1875 0  0.625 0.1875 0  0.65625 0.1875 0  0.6875 0.1875 0  0.71875 0.1875 0  0.75 0.1875 0  0.78125 0.1875 0  0.8125 0.1875 0  0.84375 0.1875 0  0.875 0.1875 0  0.90625 0.1875 0  0.9375 0.1875 0  0.96875 0.1875 0  1 0.1875 0  0 0.21875 0  0.03125 0.21875 0  0.0625 0.21875 0  0.09375 0.21875 0  0.125 0.21875 0  0.15625 0.21875 0  0.1875 0.21875 0  0.21875 0.21875 0  0.25 0.21875 0  0.28125 0.21875 0  0.3125 0.21875 0  0.34375 0.21875 0  0.375 0.21875 0  0.40625 0.21875 0  0.4375 0.21875 0  0.46875 0.21875 0  0.5 0.21875 0  0.53125 0.21875 0  0.5625 0.21875 0  0.59375 0.21875 0  0.625 0.21875 0  0.65625 0.21875 0  0.6875 0.21875 0  0.71875 0.21875 0  0.75 0.21875 0  0.78125 0.21875 0  0.8125 0.21875 0  0.84375 0.21875 0  0.875 0.21875 0  0.90625 0.21875 0  0.9375 0.21875 0  0.96875 0.21875 0  1 0.21875 0  0 0.25 0  0.03125 0.25 0  0.0625 0.25 0  0.09375 0.25 0  0.125 0.25 0  0.15625 0.25 0  0.1875 0.25 0  0.21875 0.25 0  0.25 0.25 0  0.28125 0.25 0  0.3125 0.25 0  0.34375 0.25 0  0.375 0.25 0  0.40625 0.25 0  0.4375 0.25 0  0.46875 0.25 0  0.5 0.25 0  0.53125 0.25 0  0.5625 0.25 0  0.59375 0.25 0  0.625 0.25 0  0.65625 0.25 0  0.6875 0.25 0  0.71875 0.25 0  0.75 0.25 0  0.78125 0.25 0  0.8125 0.25 0  0.84375 0.25 0  0.875 0.25 0  0.90625 0.25 0  0.9375 0.25 0  0.96875 0.25 0  1 0.25 0  0 0.28125 0  0.03125 0.28125 0  0.0625 0.28125 0  0.09375 0.28125 0  0.125 0.28125 0  0.15625 0.28125 0  0.1875 0.28125 0  0.21875 0.28125 0  0.25 0.28125 0  0.28125 0.28125 0  0.3125 0.28125 0  0.34375 0.28125 0  0.375 0.28125 0  0.40625 0.28125 0  0.4375 0.28125 0  0.46875 0.28125 0  0.5 0.28125 0  0.53125 0.28125 0  0.5625 0.28125 0  0.59375 0.28125 0  0.625 0.28125 0  0.65625 0.28125 0  0.6875 0.28125 0  0.71875 0.28125 0  0.75 0.28125 0  0.78125 0.28125 0  0.8125 0.28125 0  0.84375 0.28125 0  0.875 0.28125 0  0.90625 0.28125 0  0.9375 0.28125 0  0.96875 0.28125 0  1 0.28125 0  0 0.3125 0  0.03125 0.3125 0  0.0625 0.3125 0  0.09375 0.3125 0  0.125 0.3125 0  0.15625 0.3125 0  0.1875 0.3125 0  0.21875 0.3125 0  0.25 0.3125 0  0.28125 0.3125 0  0.3125 0.3125 0  0.34375 0.3125 0  0.375 0.3125 0  0.40625 0.3125 0  0.4375 0.3125 0  0.46875 0.3125 0  0.5 0.3125 0  0.53125 0.3125 0  0.5625 0.3125 0  0.59375 0.3125 0  0.625 0.3125 0  0.65625 0.3125 0  0.6875 0.3125 0  0.71875 0.3125 0  0.75 0.3125 0  0.78125 0.3125 0  0.8125 0.3125 0  0.84375 0.3125 0  0.875 0.3125 0  0.90625 0.3125 0  0.9375 0.3125 0  0.96875 0.3125 0  1 0.3125 0  0 0.34375 0  0.03125 0.34375 0  0.0625 0.34375 0  0.09375 0.34375 0  0.125 0.34375 0  0.15625 0.34375 0  0.1875 0.34375 0  0.21875 0.34375 0  0.25 0.34375 0  0.28125 0.34375 0  0.3125 0.34375 0  0.34375 0.34375 0  0.375 0.34375 0  0.40625 0.34375 0  0.4375 0.34375 0  0.46875 0.34375 0  0.5 0.34375 0  0.53125 0.34375 0  0.5625 0.34375 0  0.59375 0.34375 0  0.625 0.34375 0  0.65625 0.34375 0  0.6875 0.34375 0  0.71875 0.34375 0  0.75 0.34375 0  0.78125 0.34375 0  0.8125 0.34375 0  0.84375 0.34375 0  0.875 0.34375 0  0.90625 0.34375 0  0.9375 0.34375 0  0.96875 0.34375 0  1 0.34375 0  0 0.375 0  0.03125 0.375 0  0.0625 0.375 0  0.09375 0.375 0  0.125 0.375 0  0.15625 0.375 0  0.1875 0.375 0  0.21875 0.375 0  0.25 0.375 0  0.28125 0.375 0  0.3125 0.375 0  0.34375 0.375 0  0.375 0.375 0  0.40625 0.375 0  0.4375 0.375 0  0.46875 0.375 0  0.5 0.375 0  0.53125 0.375 0  0.5625 0.375 0  0.59375 0.375 0  0.625 0.375 0  0.65625 0.375 0  0.6875 0.375 0  0.71875 0.375 0  0.75 0.375 0  0.78125 0.375 0  0.8125 0.375 0  0.84375 0.375 0  0.875 0.375 0  0.90625 0.375 0  0.9375 0.375 0  0.96875 0.375 0  1 0.375 0  0 0.40625 0  0.03125 0.40625 0  0.0625 0.40625 0  0.09375 0.40625 0  0.125 0.40625 0  0.15625 0.40625 0  0.1875 0.40625 0  0.21875 0.40625 0  0.25 0.40625 0  0.28125 0.40625 0  0.3125 0.40625 0  0.34375 0.40625 0  0.375 0.40625 0  0.40625 0.40625 0  0.4375 0.40625 0  0.46875 0.40625 0  0.5 0.40625 0  0.53125 0.40625 0  0.5625 0.40625 0  0.59375 0.40625 0  0.625 0.40625 0  0.65625 0.40625 0  0.6875 0.40625 0  0.71875 0.40625 0  0.75 0.40625 0  0.78125 0.40625 0  0.8125 0.40625 0  0.84375 0.40625 0  0.875 0.40625 0  0.90625 0.40625 0  0.9375 0.40625 0  0.96875 0.40625 0  1 0.40625 0  0 0.4375 0  0.03125 0.4375 0  0.0625 0.4375 0  0.09375 0.4375 0  0.125 0.4375 0  0.15625 0.4375 0  0.1875 0.4375 0  0.21875 0.4375 0  0.25 0.4375 0  0.28125 0.4375 0  0.3125 0.4375 0  0.34375 0.4375 0  0.375 0.4375 0  0.40625 0.4375 0  0.4375 0.4375 0  0.46875 0.4375 0  0.5 0.4375 0  0.53125 0.4375 0  0.5625 0.4375 0  0.59375 0.4375 0  0.625 0.4375 0  0.65625 0.4375 0  0.6875 0.4375 0  0.71875 0.4375 0  0.75 0.4375 0  0.78125 0.4375 0  0.8125 0.4375 0  0.84375 0.4375 0  0.875 0.4375 0  0.90625 0.4375 0  0.9375 0.4375 0  0.96875 0.4375 0  1 0.4375 0  0 0.46875 0  0.03125 0.46875 0  0.0625 0.46875 0  0.09375 0.46875 0  0.125 0.46875 0  0.15625 0.46875 0  0.1875 0.46875 0  0.21875 0.46875 0  0.25 0.46875 0  0.28125 0.46875 0  0.3125 0.46875 0  0.34375 0.46875 0  0.375 0.46875 0  0.40625 0.46875 0  0.4375 0.46875 0  0.46875 0.46875 0  0.5 0.46875 0  0.53125 0.46875 0  0.5625 0.46875 0  0.59375 0.46875 0  0.625 0.46875 0  0.65625 0.46875 0  0.6875 0.46875 0  0.71875 0.46875 0  0.75 0.46875 0  0.78125 0.46875 0  0.8125 0.46875 0  0.84375 0.46875 0  0.875 0.46875 0  0.90625 0.46875 0  0.9375 0.46875 0  0.96875 0.46875 0  1 0.46875 0  0 0.5 0  0.03125 0.5 0  0.0625 0.5 0  0.09375 0.5 0  0.125 0.5 0  0.15625 0.5 0  0.1875 0.5 0  0.21875 0.5 0  0.25 0.5 0  0.28125 0.5 0  0.3125 0.5 0  0.34375 0.5 0  0.375 0.5 0  0.40625 0.5 0  0.4375 0.5 0  0.46875 0.5 0  0.5 0.5 0  0.53125 0.5 0  0.5625 0.5 0  0.59375 0.5 0  0.625 0.5 0  0.65625 0.5 0  0.6875 0.5 0  0.71875 0.5 0  0.75 0.5 0  0.78125 0.5 0  0.8125 0.5 0  0.84375 0.5 0  0.875 0.5 0  0.90625 0.5 0  0.9375 0.5 0  0.96875 0.5 0  1 0.5 0  0 0.53125 0  0.03125 0.53125 0  0.0625 0.53125 0  0.09375 0.53125 0  0.125 0.53125 0  0.15625 0.53125 0  0.1875 0.53125 0  0.21875 0.53125 0  0.25 0.53125 0  0.28125 0.53125 0  0.3125 0.53125 0  0.34375 0.53125 0  0.375 0.53125 0  0.40625 0.53125 0  0.4375 0.53125 0  0.46875 0.53125 0  0.5 0.53125 0  0.53125 0.53125 0  0.5625 0.53125 0  0.59375 0.53125 0  0.625 0.53125 0  0.65625 0.53125 0  0.6875 0.53125 0  0.71875 0.53125 0  0.75 0.53125 0  0.78125 0.531
[...]
<PointData  Vectors="f_25079"> 
<DataArray  type="Float64"  Name="f_25079"  NumberOfComponents="3" format="ascii">-3.4441025007308785e-04 3.4435546264351521e-04 0.0000000000000000e+00  -2.5369514339796528e-04 -1.7385276781293965e-01 0.0000000000000000e+00  -2.2368655333149587e-04 -3.4124584216473602e-01 0.0000000000000000e+00  -1.9030514696463376e-04 -4.9551387419357956e-01 0.0000000000000000e+00  -1.5013464698936967e-04 -6.3073876691147968e-01 0.0000000000000000e+00  -1.0423106442814674e-04 -7.4172467973243628e-01 0.0000000000000000e+00  -5.4325177080013568e-05 -8.2420652191459154e-01 0.0000000000000000e+00  -2.3330772332887684e-06 -8.7501456313528758e-01 0.0000000000000000e+00  4.9747975380823889e-05 -8.9219628176214516e-01 0.0000000000000000e+00  9.9917037969376882e-05 -8.7509139647307999e-01 0.0000000000000000e+00  1.4624632761743917e-04 -8.2435723937019778e-01 0.0000000000000000e+00  1.8695545850639568e-04 -7.4194349584919916e-01 0.0000000000000000e+00  2.2047999768344748e-04 -6.3101727987149026e-01 0.0000000000000000e+00  2.4553161432401815e-04 -4.9584142370752088e-01 0.0000000000000000e+00  2.6114758869909358e-04 -3.4161065970160870e-01 0.0000000000000000e+00  2.6672780768759288e-04 -1.7425198962082769e-01 0.0000000000000000e+00  2.6205782660877801e-04 -1.9691330055898160e-04 0.0000000000000000e+00  2.4731711021705119e-04 1.7386573028742003e-01 0.0000000000000000e+00  2.2307213597676755e-04 3.4124681136547458e-01 0.0000000000000000e+00  1.9025462465411123e-04 4.9551396885615040e-01 0.0000000000000000e+00  1.5012573482657963e-04 6.3073880241098512e-01 0.0000000000000000e+00  1.0422759749636685e-04 7.4172469751060832e-01 0.0000000000000000e+00  5.4324055541250286e-05 8.2420652844204256e-01 0.0000000000000000e+00  2.3329023474043222e-06 8.7501456466136940e-01 0.0000000000000000e+00  -4.9747678200098697e-05 8.9219628161879694e-01 0.0000000000000000e+00  -9.9915153007870217e-05 8.7509139443376427e-01 0.0000000000000000e+00  -1.4623572304656502e-04 8.2435722813420031e-01 0.0000000000000000e+00  -1.8689750574301945e-04 7.4194343343579805e-01 0.0000000000000000e+00  -2.2016183060865105e-04 6.3101692894157579e-01 0.0000000000000000e+00  -2.4377827592152201e-04 4.9583945573084415e-01 0.0000000000000000e+00  -2.5175909843824887e-04 3.4159985892706163e-01 0.0000000000000000e+00  -2.2218875432630734e-04 1.7419604682701820e-01 0.0000000000000000e+00  -9.7783106027199643e-05 -9.7707845967489831e-05 0.0000000000000000e+00  1.7385254754011575e-01 2.5399614716355048e-04 0.0000000000000000e+00  1.7066359813646162e-01 -1.7066366421923904e-01 0.0000000000000000e+00  1.6078923346815160e-01 -3.3484263267249081e-01 0.0000000000000000e+00  1.4471790879399249e-01 -4.8613249189745095e-01 0.0000000000000000e+00  1.2308323828065143e-01 -6.1873771382789766e-01 0.0000000000000000e+00  9.6718335628198676e-02 -7.2756482429515679e-01 0.0000000000000000e+00  6.6636573212114900e-02 -8.0843198493598067e-01 0.0000000000000000e+00  3.3994002682573347e-02 -8.5823155817674923e-01 0.0000000000000000e+00  4.5061957699598703e-05 -8.7504977672372397e-01 0.0000000000000000e+00  -3.3905610292974300e-02 -8.5824032428109165e-01 0.0000000000000000e+00  -6.6553308925077409e-02 -8.0844917774369662e-01 0.0000000000000000e+00  -9.6643401223681716e-02 -7.2758978271134533e-01 0.0000000000000000e+00  -1.2301954181404362e-01 -6.1876952036346400e-01 0.0000000000000000e+00  -1.4466811040294286e-01 -4.8617029235686937e-01 0.0000000000000000e+00  -1.6075716463984438e-01 -3.3488781266232232e-01 0.0000000000000000e+00  -1.7066841119328285e-01 -1.7073578213441301e-01 0.0000000000000000e+00  -1.7402096641650996e-01 -2.2471248809762190e-05 0.0000000000000000e+00  -1.7068599349243294e-01 1.7069170319428323e-01 0.0000000000000000e+00  -1.6079165356024872e-01 3.3484629120862947e-01 0.0000000000000000e+00  -1.4471818055473359e-01 4.8613292403578573e-01 0.0000000000000000e+00  -1.2308326902931878e-01 6.1873774121867586e-01 0.0000000000000000e+00  -9.6718336500487029e-02 7.2756481399824835e-01 0.0000000000000000e+00  -6.6636572537106697e-02 8.0843197899639729e-01 0.0000000000000000e+00  -3.3994002444534606e-02 8.5823155640052540e-01 0.0000000000000000e+00  -4.5061811041363085e-05 8.7504977629794556e-01 0.0000000000000000e+00  3.3905611063897403e-02 8.5824032339322531e-01 0.0000000000000000e+00  6.6553313752230281e-02 8.0844917215224810e-01 0.0000000000000000e+00  9.6643431205914468e-02 7.2758974846585356e-01 0.0000000000000000e+00  1.2301972097621329e-01 6.1876931917694988e-01 0.0000000000000000e+00  1.4466913693002592e-01 4.8616914426667923e-01 0.0000000000000000e+00  1.6076282993863555e-01 3.3488137522999767e-01 0.0000000000000000e+00  1.7069904214672049e-01 1.7069895613465108e-01 0.0000000000000000e+00  1.7419605496285914e-01 -2.2224898997995113e-04 0.0000000000000000e+00  3.4124574493814563e-01 2.2377116016484167e-04 0.0000000000000000e+00  3.3484262696597750e-01 -1.6078922614187127e-01 0.0000000000000000e+00  3.1544555243838357e-01 -3.1544557449563215e-01 0.0000000000000000e+00  2.8390653151237172e-01 -4.5795619084146644e-01 0.0000000000000000e+00  2.4145364976718417e-01 -5.8286390163994650e-01 0.0000000000000000e+00  1.8972130465900849e-01 -6.8537185430445446e-01 0.0000000000000000e+00  1.3069801385480523e-01 -7.6154126176468051e-01 0.0000000000000000e+00  6.6652063862120359e-02 -8.0844505233844977e-01 0.0000000000000000e+00  4.4711362587395437e-05 -8.2428075111414045e-01 0.0000000000000000e+00  -6.6564359444615279e-02 -8.0843980281989125e-01 0.0000000000000000e+00  -1.3061539924104715e-01 -7.6153096635024642e-01 0.0000000000000000e+00  -1.8964696249049448e-01 -6.8535692194601672e-01 0.0000000000000000e+00  -2.4139049932597889e-01 -5.8284499539110990e-01 0.0000000000000000e+00  -2.8385753464581004e-01 -4.5793466252734194e-01 0.0000000000000000e+00  -3.1541608409840233e-01 -3.1542615739532831e-01 0.0000000000000000e+00  -3.3485337032647977e-01 -1.6079600192761265e-01 0.0000000000000000e+00  -3.4142242932084416e-01 1.3453718748431767e-05 0.0000000000000000e+00  -3.3487081582831285e-01 1.6082239234624349e-01 0.0000000000000000e+00  -3.1545030468121699e-01 3.1545101662610930e-01 0.0000000000000000e+00  -2.8390721523179246e-01 4.5795703524400305e-01 0.0000000000000000e+00  -2.4145373071800416e-01 5.8286402182272345e-01 0.0000000000000000e+00  -1.8972131474142964e-01 6.8537187091656759e-01 0.0000000000000000e+00  -1.3069801503529127e-01 7.6154126337079975e-01 0.0000000000000000e+00  -6.6652063899507702e-02 8.0844505214100937e-01 0.0000000000000000e+00  -4.4711266279214986e-05 8.2428075086850072e-01 0.0000000000000000e+00  6.6564360008721984e-02 8.0843980214610101e-01 0.0000000000000000e+00  1.3061540286741130e-01 7.6153096236783713e-01 0.0000000000000000e+00  1.8964698488135076e-01 6.8535689743527362e-01 0.0000000000000000e+00  2.4139063429021407e-01 5.8284484659448066e-01 0.0000000000000000e+00  2.8385833671505417e-01 4.5793377045663020e-01 0.0000000000000000e+00  3.1542080543474527e-01 3.1542082063688509e-01 0.0000000000000000e+00  3.3488140881977163e-01 1.6076280618877950e-01 0.0000000000000000e+00  3.4159982237428527e-01 -2.5174671321116332e-04 0.0000000000000000e+00  4.9551383665129278e-01 1.9034989493730263e-04 0.0000000000000000e+00  4.8613256716502479e-01 -1.4471796092894088e-01 0.0000000000000000e+00  4.5795618925695813e-01 -2.8390652827376600e-01 0.0000000000000000e+00  4.1216194495799363e-01 -4.1216195849774678e-01 0.0000000000000000e+00  3.5052515020514113e-01 -5.2457440460610072e-01 0.0000000000000000e+00  2.7541726279842882e-01 -6.1682706816973698e-01 0.0000000000000000e+00  1.8972513312057990e-01 -6.8537528847984663e-01 0.0000000000000000e+00  9.6741955244259478e-02 -7.2758489958378436e-01 0.0000000000000000e+00  4.1036226500676164e-05 -7.4183382838759704e-01 0.0000000000000000e+00  -9.6661460009979230e-02 -7.2757449903247384e-01 0.0000000000000000e+00  -1.8964931056543766e-01 -6.8535488976140790e-01 0.0000000000000000e+00  -2.7534904447164477e-01 -6.1679747645418392e-01 0.0000000000000000e+00  -3.5046726901616038e-01 -5.2453688203691218e-01 0.0000000000000000e+00  -4.1211723295675978e-01 -4.1211862940766147e-01 0.0000000000000000e+00  -4.5792976275285685e-01 -2.8386288896920486e-01 0.0000000000000000e+00  -4.8614430857633484e-01 -1.4469845689981459e-01 0.0000000000000000e+00  -4.9567660125409457e-01 2.6655720407402693e-05 0.0000000000000000e+00  -4.8616032012430033e-01 1.4475074397624402e-01 0.0000000000000000e+00  -4.5796117053397939e-01 2.8391214231822792e-01 0.0000000000000000e+00  -4.1216282998762771e-01 4.1216295625069332e-01 0.0000000000000000e+00  -3.5052530302845125e-01 5.2457457891811798e-01 0.0000000000000000e+00  -2.7541728525078629e-01 6.1682709470257835e-01 0.0000000000000000e+00  -1.8972513565649179e-01 6.8537529115799567e-01 0.0000000000000000e+00  -9.6741955494288046e-02 7.2758489953315009e-01 0.0000000000000000e+00  -4.1036202882546278e-05 7.4183382821773247e-01 0.0000000000000000e+00  9.6661460336475061e-02 7.2757449863404355e-01 0.0000000000000000e+00  1.8964931291049358e-01 6.8535488715696724e-01 0.0000000000000000e+00  2.7534906038335971e-01 6.1679745881468295e-01 0.0000000000000000e+00  3.5046737239307107e-01 5.2453676752244383e-01 0.0000000000000000e+00  4.1211788316539227e-01 4.1211790677816584e-01 0.0000000000000000e+00  4.5793377816587982e-01 2.8385836455915003e-01 0.0000000000000000e+00  4.8616919893880473e-01 1.4466913615454266e-01 0.0000000000000000e+00  4.9583946673829504e-01 -2.4377979421582089e-04 0.0000000000000000e+00  6.3073876272100093e-01 1.5014989869877309e-04 0.0000000000000000e+00  6.1873779062367851e-01 -1.2308326927470613e-01 0.0000000000000000e+00  5.8286393816442084e-01 -2.4145366160324819e-01 0.0000000000000000e+00  5.2457439047609611e-01 -3.5052516907081066e-01 0.0000000000000000e+00  4.4612266654287103e-01 -4.4612268712262421e-01 0.0000000000000000e+00  3.5052611261060390e-01 -5.2457530448013956e-01 0.0000000000000000e+00  2.4145892664402607e-01 -5.8286866517520397e-01 0.0000000000000000e+00  1.2311258991846603e-01 -6.1876268776586740e-01 0.0000000000000000e+00  3.5101775308336813e-05 -6.3087800306832031e-01 0.0000000000000000e+00  -1.2304373588420055e-01 -6.1874902983443736e-01 0.0000000000000000e+00  -2.4139407184008815e-01 -5.8284187831725986e-01 0.0000000000000000e+00  -3.5046776899699605e-01 -5.2453644027848567e-01 0.0000000000000000e+00  -4.4607318633665000e-01 -4.4607336100593648e-01 0.0000000000000000e+00  -5.2453626128612130e-01 -3.5046793263174114e-01 0.0000000000000000e+00  -5.8284170187768791e-01 -2.4139421815140677e-01 0.0000000000000000e+00  -6.1874886272748997e-01 -1.2304385924298399e-01 0.0000000000000000e+00  -6.3087785178103561e-01 3.5006172351995404e-05 0.0000000000000000e+00  -6.1876255879101183e-01 1.2311252632011670e-01 0.0000000000000000e+00  -5.8286856767269291e-01 2.4145890112370214e-01 0.0000000000000000e+00  -5.2457526437518220e-01 3.5052614576882835e-01 0.0000000000000000e+00  -4.4612282785298196e-01 4.4612286720944166e-01 0.0000000000000000e+00  -3.5052614124515924e-01 5.2457533705200610e-01 0.0000000000000000e+00  -2.4145893160730292e-01 5.8286867087766037e-01 0.0000000000000000e+00  -1.2311259064091738e-01 6.1876268855951999e-01 0.0000000000000000e+00  -3.5101852838163989e-05 6.3087800311961573e-01 0.0000000000000000e+00  1.2304373598547656e-01 6.1874902970281798e-01 0.0000000000000000e+00  2.4139407303788446e-01 5.8284187698747392e-01 0.0000000000000000e+00  3.5046777880286895e-01 5.2453642946585932e-01 0.0000000000000000e+00  4.4607325742385517e-01 4.4607328250411049e-01 0.0000000000000000e+00  5.2453674417441232e-01 3.5046739675563465e-01 0.0000000000000000e+00  5.8284486410738945e-01 2.4139065938038470e-01 0.0000000000000000e+00  6.1876937628862105e-01 1.2301972646959472e-01 0.0000000000000000e+00  6.3101695793271395e-01 -2.2017417990259747e-04 0.0000000000000000e+00  7.4172467630496186e-01 1.0423769164335520e-04 0.0000000000000000e+00  7.2756492894221747e-01 -9.6718353896390649e-02 0.0000000000000000e+00  6.8537191212218995e-01 -1.8972132293297769e-01 0.0000000000000000e+00  6.1682704568360913e-01 -2.7541727701785340e-01 0.0000000000000000e+00  5.2457528051743496e-01 -3.5052613246053788e-01 0.0000000000000000e+00  4.1216386503937602e-01 -4.1216388762651490e-01 0.0000000000000000e+00  2.8391312279848385e-01 -4.5796230455245851e-01 0.0000000000000000e+00  1.4475173922308421e-01 -4.8616146584993725e-01 0.0000000000000000e+00  2.7623826154327047e-05 -4.9567771058379551e-01 0.0000000000000000e+00  -1.4469755377638263e-01 -4.8614533812956856e-01 0.0000000000000000e+00  -2.8386208565362497e-01 -4.5793067281752686e-01 0.0000000000000000e+00  -4.1211795678979812e-01 -4.1211798853604215e-01 0.0000000000000000e+00  -5.2453636596694342e-01 -3.5046784107158652e-01 0.0000000000000000e+00  -6.1679713676354875e-01 -2.7534941101951110e-01 0.0000000000000000e+00  -6.8535473949817383e-01 -1.8964945751979251e-01 0.0000000000000000e+00  -7.2757454394525156e-01 -9.6661381724263598e-02 0.0000000000000000e+00  -7.4183406669701835e-01 4.1336762594385668e-05 0.0000000000000000e+00  -7.2758532229095685e-01 9.6742466700847587e-02 0.0000000000000000e+00  -6.8537588198380694e-01 1.8972583789759095e-01 0.0000000000000000e+00  -6.1682783089525794e-01 2.7541815154342342e-01 0.0000000000000000e+00  -5.2457543218651481e-01 3.5052630008180591e-01 0.0000000000000000e+00  -4.1216389380448953e-01 4.1216391948584891e-01 0.0000000000000000e+00  -2.8391312812927777e-01 4.5796231060994214e-01 0.0000000000000000e+00  -1.4475174016656275e-01 4.8616146697233259e-01 0.0000000000000000e+00  -2.7624027907681891e-05 4.9567771082456263e-01 0.0000000000000000e+00  1.4469755364462508e-01 4.8614533827556844e-01 0.0000000000000000e+00  2.8386208565293075e-01 4.5793067281819710e-01 0.0000000000000000e+00  4.1211796009932294e-01 4.1211798489211021e-01 0.0000000000000000e+00  5.2453640224029030e-01 3.5046780105077852e-01 0.0000000000000000e+00  6.1679743462755698e-01 2.7534908081827031e-01 0.0000000000000000e+00  6.8535692131138737e-01 1.8964700430909875e-01 0.0000000000000000e+00  7.2758980878231450e-01 9.6643435635611410e-02 0.0000000000000000e+00  7.4194346933496780e-01 -1.8691185379379144e-04 0.0000000000000000e+00  8.2420651600023265e-01 5.4326676895291271e-05 0.0000000000000000e+00  8.0843212586564750e-01 -6.6636588059270543e-02 0.0000000000000000e+00  7.6154132950118436e-01 -1.3069802967815208e-01 0.0000000000000000e+00  6.8537526261912507e-01 -1.8972514324997533e-01 0.0000000000000000e+00  5.8286863508032216e-01 -2.4145894087438544e-01 0.0000000000000000e+00  4.5796227738083389e-01 -2.8391313903636073e-01 0.0000000000000000e+00  3.1545660051962437e-01 -3.1545662011481823e-01 0.0000000000000000e+00  1.6082808595003265e-01 -3.3487726117595468e-01 0.0000000000000000e+00  1.9034972506369418e-05 -3.4142875336445067e-01 0.0000000000000000e+00  -1.6079074815950697e-01 -3.3485932932701867e-01 0.0000000000000000e+00  -3.1542143313576737e-01 -3.1542144891240304e-01 0.0000000000000000e+00  -4.5793064934801969e-01 -2.8386209908008736e-01 0.0000000000000000e+00  -5.8284184752014512e-01 -2.4139408796673920e-01 0.0000000000000000e+00  -6.8535476035415643e-01 -1.8964943742740697e-01 0.0000000000000000e+00  -7.6152987409919959e-01 -1.3061666536431152e-01 0.0000000000000000e+00  -8.0843982185348984e-01 -6.6564368101942856e-02 0.0000000000000000e+00  -8.2428188063222718e-01 4.5960496851895015e-05 0.0000000000000000e+00  -8.0844724900087261e-01 6.6654522859527374e-02 0.0000000000000000e+00  -7.6154444297285895e-01 1.3070158928900225e-01 0.0000000000000000e+00  -6.8537591108046225e-01 1.8972586694041862e-01 0.0000000000000000e+00  -5.8286876728858283e-01 2.4145908592491722e-01 0.0000000000000000e+00  -4.5796230364686485e-01 2.8391316764967800e-01 0.0000000000000000e+00  -3.1545660550655685e-01 3.1545662556458032e-01 0.0000000000000000e+00  -1.6082808693748937e-01 3.3487726228100811e-01 0.0000000000000000e+00  -1.9035227742412900e-05 3.4142875366104047e-01 0.0000000000000000e+00  1.6079074780736941e-01 3.3485932972060400e-01 0.0000000000000000e+00  3.1542143194149741e-01 3.1542145023298618e-01 0.0000000000000000e+00  4.5793064606926787e-01 2.8386210271856899e-01 0.0000000000000000e+00  5.8284184765236835e-01 2.4139408795677383e-01 0.0000000000000000e+00  6.8535486144165136e-01 1.8964932592828496e-01 0.0000000000000000e+00  7.6153098854900536e-01 1.3061541467276613e-01 0.0000000000000000e+00  8.0844923234781596e-01 6.6553315115186529e-02 0.0000000000000000e+00  8.2435726165142131e-01 -1.4624921208939486e-04 0.0000000000000000e+00  8.7501455972413500e-01 2.3293295577350889e-06 0.0000000000000000e+00  8.5823172769190337e-01 -3.3994014153175961e-02 0.0000000000000000e+00  8.0844512801914425e-01 -6.6652076049861828e-02 0.0000000000000000e+00  7.2758487403088801e-01 -9.6741964601390826e-02 0.0000000000000000e+00  6.1876265317596757e-01 -1.2311259954389212e-01 0.0000000000000000e+00  4.8616143513546722e-01 -1.4475175055460518e-01 0.0000000000000000e+00  3.3487723876363851e-01 -1.6082809952720781e-01 0.0000000000000000e+00  1.7072388393231311e-01 -1.7072389960191128e-01 0.0000000000000000e+00  9.7030799649726099e-06 -1.7405887283467725e-01 0.0000000000000000e+00  -1.7070485124154894e-01 -1.7070486058057255e-01 0.0000000000000000e+00  -3.3485931397004781e-01 -1.6079075615258029e-01 0.0000000000000000e+00  -4.8614532107606473e-01 -1.4469755311374155e-01 0.0000000000000000e+00  -6.1874903613071175e-01 -1.2304370425105808e-01 0.0000000000000000e+00  -7.2757457272600923e-01 -9.6661354836778429e-02 0.0000000000000000e+00  -8.0843982652009139e-01 -6.6564363764260379e-02 0.0000000000000000e+00  -8.5823719115930452e-01 -3.3909341521981398e-02 0.0000000000000000e+00  -8.7505298184722902e-01 4.8797698411339003e-05 0.0000000000000000e+00  -8.5824097717813153e-01 3.4005061650620845e-02 0.0000000000000000e+00  -8.0844725306316778e-01 6.6654530153859928e-02 0.0000000000000000e+00  -7.2758535439545224e-01 9.6742502443602843e-02 0.0000000000000000e+00  -6.1876275859300711e-01 1.2311271461839048e-01 0.0000000000000000e+00  -4.8616145698459434e-01 1.4475177421347060e-01 0.0000000000000000e+00  -3.3487724322979423e-01 1.6082810430661473e-01 0.0000000000000000e+00  -1.7072388483389761e-01 1.7072390056113379e-01 0.0000000000000000e+00  -9.7033578874386313e-06 1.7405887313849241e-01 0.0000000000000000e+00  1.7070485068658975e-01 1.7070486119458139e-01 0.0000000000000000e+00  3.3485931163026744e-01 1.6079075873855764e-01 0.0000000000000000e+00  4.8614531133148514e-01 1.4469756389838417e-01 0.0000000000000000e+00  6.1874900009345091e-01 1.2304374426131190e-01 0.0000000000000000e+00  7.2757447306953926e-01 9.6661466360405707e-02 0.0000000000000000e+00  8.0843983032632116e-01 6.6564364035421611e-02 0.0000000000000000e+00  8.5824038245502698e-01 3.3905609414551667e-02 0.0000000000000000e+00  8.7509142460803224e-01 -9.9927971729746318e-05 0.0000000000000000e+00  8.9219628451061828e-01 -4.9757497853751549e-05 0.0000000000000000e+00  8.7504996497420284e-01 -4.5068875519442606e-05 0.0000000000000000e+00  8.2428083278936981e-01 -4.4719988270054737e-05 0.0000000000000000e+00  7.4183380302207291e-01 -4.1044549045664736e-05 0.0000000000000000e+00  6.3087796800713458e-01 -3.5110447430984997e-05 0.0000000000000000e+00  4.9567767859832101e-01 -2.7633527543047316e-05 0.0000000000000000e+00  3.4142872989392592e-01 -1.9046400096062414e-05 0.0000000000000000e+00  1.7405885634267132e-01 -9.7163247704521236e-06 0.0000000000000000e+00  -3.7582122488439542e-09 -1.0399902984358431e-08 0.0000000000000000e+00  -1.7405886417944350e-01 9.6964190980443477e-06 0.0000000000000000e+00  -3.4142874016413194e-01 1.9030712797205824e-05 0.0000000000000000e+00  -4.9567770115914395e-01 2.7633686703226561e-05 0.0000000000000000e+00  -6.3087804608148279e-01 3.5174717314972753e-05 0.0000000000000000e+00  -7.4183410149414097e-01 4.1364004113562327e-05 0.0000000000000000e+00  -8.2428188841187433e-01 4.5963695606933084e-05 0.0000000000000000e+00  -8.7505298462057102e-01 4.8797028087737689e-05 0.0000000000000000e+00  -8.9219628