<?xml version="1.0"?>
<VTKFile type="UnstructuredGrid"  version="0.1"  >
<UnstructuredGrid>
<Piece  NumberOfPoints="1369" NumberOfCells="2560">
<Points>
<DataArray  type="Float64"  NumberOfComponents="3"  format="ascii">0 0 0  0.75 0 0  1.5 0 0  2.25 0 0  3 0 0  3.75 0 0  4.5 0 0  5.25 0 0  6 0 0  6.75 0 0  7.5 0 0  8.25 0 0  9 0 0  9.75 0 0  10.5 0 0  11.25 0 0  12 0 0  12.75 0 0  13.5 0 0  14.25 0 0  15 0 0  15.75 0 0  16.5 0 0  17.25 0 0  18 0 0  18.75 0 0  19.5 0 0  20.25 0 0  21 0 0  21.75 0 0  22.5 0 0  23.25 0 0  24 0 0  24.75 0 0  25.5 0 0  26.25 0 0  27 0 0  27.75 0 0  28.5 0 0  29.25 0 0  30 0 0  30.75 0 0  31.5 0 0  32.25 0 0  33 0 0  33.75 0 0  34.5 0 0  35.25 0 0  36 0 0  36.75 0 0  37.5 0 0  38.25 0 0  39 0 0  39.75 0 0  40.5 0 0  41.25 0 0  42 0 0  42.75 0 0  43.5 0 0  44.25 0 0  45 0 0  45.75 0 0  46.5 0 0  47.25 0 0  48 0 0  48.75 0 0  49.5 0 0  50.25 0 0  51 0 0  51.75 0 0  52.5 0 0  53.25 0 0  54 0 0  54.75 0 0  55.5 0 0  56.25 0 0  57 0 0  57.75 0 0  58.5 0 0  59.25 0 0  60 0 0  0 0.5 0  0.75 0.500000435101391 0  1.5 0.5000007023012598 0  2.25 0.5000008549543843 0  3 0.5000009348233071 0  3.75 0.5000009707820993 0  4.5 0.5000009811573447 0  5.25 0.5000009769894354 0  6 0.5000009647460787 0  6.75 0.5000009481673962 0  7.5 0.5000009294059095 0  8.25 0.5000009096996424 0  9 0.5000008897615457 0  9.75 0.5000008700030107 0  10.5 0.5000008506619306 0  11.25 0.5000008318761416 0  12 0.5000008137256512 0  12.75 0.5000007962569691 0  13.5 0.5000007794971709 0  14.25 0.5000007634620429 0  15 0.5000007481608054 0  15.75 0.5000007335988589 0  16.5 0.5000007197793785 0  17.25 0.5000007067042421 0  18 0.5000006943745741 0  18.75 0.500000682791056 0  19.5 0.5000006719541107 0  20.25 0.5000006618640095 0  21 0.5000006525209352 0  21.75 0.5000006439250132 0  22.5 0.5000006360763378 0  23.25 0.5000006289749822 0  24 0.5000006226210034 0  24.75 0.5000006170144495 0  25.5 0.5000006121553598 0  26.25 0.5000006080437687 0  27 0.5000006046797026 0  27.75 0.5000006020631845 0  28.5 0.5000006001942305 0  29.25 0.500000599072854 0  30 0.5000005986990609 0  30.75 0.500000599072854 0  31.5 0.5000006001942305 0  32.25 0.5000006020631845 0  33 0.5000006046797026 0  33.75 0.5000006080437688 0  34.5 0.5000006121553598 0  35.25 0.5000006170144495 0  36 0.5000006226210034 0  36.75 0.5000006289749821 0  37.5 0.5000006360763378 0  38.25 0.5000006439250132 0  39 0.5000006525209352 0  39.75 0.5000006618640095 0  40.5 0.5000006719541108 0  41.25 0.500000682791056 0  42 0.5000006943745741 0  42.75 0.5000007067042421 0  43.5 0.5000007197793784 0  44.25 0.5000007335988589 0  45 0.5000007481608054 0  45.75 0.5000007634620429 0  46.5 0.5000007794971709 0  47.25 0.5000007962569691 0  48 0.5000008137256511 0  48.75 0.5000008318761416 0  49.5 0.5000008506619306 0  50.25 0.5000008700030107 0  51 0.5000008897615457 0  51.75 0.5000009096996424 0  52.5 0.5000009294059095 0  53.25 0.5000009481673962 0  54 0.5000009647460787 0  54.75 0.5000009769894354 0  55.5 0.5000009811573446 0  56.25 0.5000009707820993 0  57 0.5000009348233071 0  57.75 0.5000008549543843 0  58.5 0.5000007023012598 0  59.25 0.500000435101391 0  60 0.5 0  0 1 0  0.75 1.000000843474783 0  1.5 1.000001353687767 0  2.25 1.000001640823305 0  3 1.000001788877281 0  3.75 1.000001854285793 0  4.5 1.000001872033323 0  5.25 1.000001862862533 0  6 1.000001838811762 0  6.75 1.000001806806972 0  7.5 1.000001770823518 0  8.25 1.000001733144748 0  9 1.000001695084785 0  9.75 1.000001657401748 0  10.5 1.000001620534024 0  11.25 1.000001584735652 0  12 1.000001550154104 0  12.75 1.000001516875134 0  13.5 1.000001484948669 0  14.25 1.000001454403832 0  15 1.000001425257634 0  15.75 1.000001397520041 0  16.5 1.000001371196921 0  17.25 1.000001346291742 0  18 1.000001322806584 0  18.75 1.00000130074271 0  19.5 1.000001280100905 0  20.25 1.000001260881675 0  21 1.00000124308536 0  21.75 1.000001226712195 0  22.5 1.000001211762358 0  23.25 1.000001198235985 0  24 1.000001186133187 0  24.75 1.000001175454053 0  25.5 1.000001166198659 0  26.25 1.00000115836707 0  27 1.000001151959336 0  27.75 1.0000011469755 0  28.5 1.000001143415594 0  29.25 1.00000114127964 0  30 1.000001140567655 0  30.75 1.00000114127964 0  31.5 1.000001143415594 0  32.25 1.0000011469755 0  33 1.000001151959336 0  33.75 1.00000115836707 0  34.5 1.000001166198659 0  35.25 1.000001175454053 0  36 1.000001186133187 0  36.75 1.000001198235985 0  37.5 1.000001211762358 0  38.25 1.000001226712196 0  39 1.00000124308536 0  39.75 1.000001260881676 0  40.5 1.000001280100905 0  41.25 1.00000130074271 0  42 1.000001322806584 0  42.75 1.000001346291742 0  43.5 1.000001371196921 0  44.25 1.000001397520041 0  45 1.000001425257634 0  45.75 1.000001454403832 0  46.5 1.000001484948669 0  47.25 1.000001516875134 0  48 1.000001550154104 0  48.75 1.000001584735652 0  49.5 1.000001620534024 0  50.25 1.000001657401748 0  51 1.000001695084785 0  51.75 1.000001733144748 0  52.5 1.000001770823518 0  53.25 1.000001806806972 0  54 1.000001838811762 0  54.75 1.000001862862533 0  55.5 1.000001872033323 0  56.25 1.000001854285793 0  57 1.000001788877281 0  57.75 1.000001640823305 0  58.5 1.000001353687767 0  59.25 1.000000843474783 0  60 1 0  0 1.5 0  0.75 1.5000011956511 0  1.5 1.500001899080054 0  2.25 1.500002284543048 0  3 1.500002478388681 0  3.75 1.500002561231513 0  4.5 1.500002581090074 0  5.25 1.500002565729509 0  6 1.500002531037789 0  6.75 1.500002486086495 0  7.5 1.500002436061971 0  8.25 1.500002383937306 0  9 1.500002331422104 0  9.75 1.500002279502363 0  10.5 1.500002228748266 0  11.25 1.50000217949029 0  12 1.500002131920346 0  12.75 1.500002086150057 0  13.5 1.500002042244447 0  14.25 1.500002000241453 0  15 1.500001960163253 0  15.75 1.500001922022847 0  16.5 1.500001885827893 0  17.25 1.500001851582926 0  18 1.500001819290669 0  18.75 1.500001788952779 0  19.5 1.500001760570292 0  20.25 1.500001734143875 0  21 1.50000170967398 0  21.75 1.500001687160925 0  22.5 1.500001666604947 0  23.25 1.50000164800623 0  24 1.500001631364924 0  24.75 1.500001616681154 0  25.5 1.500001603955021 0  26.25 1.500001593186614 0  27 1.500001584376004 0  27.75 1.500001577523248 0  28.5 1.500001572628389 0  29.25 1.500001569691462 0  30 1.500001568712484 0  30.75 1.500001569691462 0  31.5 1.500001572628389 0  32.25 1.500001577523248 0  33 1.500001584376004 0  33.75 1.500001593186614 0  34.5 1.500001603955021 0  35.25 1.500001616681154 0  36 1.500001631364924 0  36.75 1.50000164800623 0  37.5 1.500001666604947 0  38.25 1.500001687160925 0  39 1.50000170967398 0  39.75 1.500001734143875 0  40.5 1.500001760570292 0  41.25 1.500001788952779 0  42 1.500001819290669 0  42.75 1.500001851582926 0  43.5 1.500001885827892 0  44.25 1.500001922022847 0  45 1.500001960163253 0  45.75 1.500002000241453 0  46.5 1.500002042244447 0  47.25 1.500002086150057 0  48 1.500002131920346 0  48.75 1.50000217949029 0  49.5 1.500002228748266 0  50.25 1.500002279502363 0  51 1.500002331422104 0  51.75 1.500002383937306 0  52.5 1.500002436061971 0  53.25 1.500002486086495 0  54 1.500002531037789 0  54.75 1.500002565729509 0  55.5 1.500002581090074 0  56.25 1.500002561231513 0  57 1.500002478388681 0  57.75 1.500002284543048 0  58.5 1.500001899080054 0  59.25 1.5000011956511 0  60 1.5 0  0 2 0  0.75 2.000001455772697 0  1.5 2.000002274190797 0  2.25 2.000002704793596 0  3 2.000002913668996 0  3.75 2.000002998525994 0  4.5 2.000003014434328 0  5.25 2.00000299225998 0  6 2.000002949373044 0  6.75 2.000002895604168 0  7.5 2.000002836548273 0  8.25 2.000002775405672 0  9 2.000002714014961 0  9.75 2.000002653436289 0  10.5 2.000002594282824 0  11.25 2.000002536910072 0  12 2.000002481524572 0  12.75 2.000002428246518 0  13.5 2.000002377145972 0  14.25 2.000002328263829 0  15 2.000002281624018 0  15.75 2.000002237240583 0  16.5 2.000002195121799 0  17.25 2.000002155272582 0  18 2.000002117695889 0  18.75 2.000002082393526 0  19.5 2.00000204936663 0  20.25 2.000002018615933 0  21 2.00000199014194 0  21.75 2.000001963945008 0  22.5 2.000001940025399 0  23.25 2.000001918383332 0  24 2.000001899018975 0  24.75 2.000001881932468 0  25.5 2.000001867123932 0  26.25 2.000001854593468 0  27 2.000001844341159 0  27.75 2.000001836367074 0  28.5 2.000001830671261 0  29.25 2.000001827253759 0  30 2.000001826114588 0  30.75 2.000001827253759 0  31.5 2.000001830671261 0  32.25 2.000001836367074 0  33 2.000001844341159 0  33.75 2.000001854593469 0  34.5 2.000001867123932 0  35.25 2.000001881932468 0  36 2.000001899018974 0  36.75 2.000001918383332 0  37.5 2.0000019400254 0  38.25 2.000001963945008 0  39 2.00000199014194 0  39.75 2.000002018615933 0  40.5 2.00000204936663 0  41.25 2.000002082393526 0  42 2.000002117695889 0  42.75 2.000002155272582 0  43.5 2.000002195121798 0  44.25 2.000002237240583 0  45 2.000002281624018 0  45.75 2.000002328263829 0  46.5 2.000002377145972 0  47.25 2.000002428246518 0  48 2.000002481524572 0  48.75 2.000002536910072 0  49.5 2.000002594282824 0  50.25 2.000002653436289 0  51 2.000002714014961 0  51.75 2.000002775405672 0  52.5 2.000002836548273 0  53.25 2.000002895604168 0  54 2.000002949373044 0  54.75 2.00000299225998 0  55.5 2.000003014434329 0  56.25 2.000002998525994 0  57 2.000002913668996 0  57.75 2.000002704793596 0  58.5 2.000002274190797 0  59.25 2.000001455772697 0  60 2 0  0 2.5 0  0.75 2.500001575468188 0  1.5 2.500002398501508 0  2.25 2.500002807331517 0  3 2.500002996557189 0  3.75 2.500003067875559 0  4.5 2.500003075034092 0  5.25 2.500003047219019 0  6 2.500003000584817 0  6.75 2.500002944196167 0  7.5 2.500002883189987 0  8.25 2.50000282049885 0  9 2.500002757806335 0  9.75 2.500002696083197 0  10.5 2.500002635891078 0  11.25 2.500002577555796 0  12 2.500002521266753 0  12.75 2.500002467134256 0  13.5 2.500002415222645 0  14.25 2.500002365569513 0  15 2.500002318196882 0  15.75 2.500002273117686 0  16.5 2.500002230339568 0  17.25 2.500002189867078 0  18 2.500002151702961 0  18.75 2.500002115848901 0  19.5 2.500002082305967 0  20.25 2.500002051074853 0  21 2
[...]
<PointData  Scalars="f_10-1"> 
<DataArray  type="Float64"  Name="f_10-1"  format="ascii">-3.4426192612358579e+00  -3.4015994904205114e+00  -3.3570610383878403e+00  -3.3142708320816019e+00  -3.2709050680571252e+00  -3.2277154355184883e+00  -3.1844180472216879e+00  -3.1411670189110326e+00  -3.0979122592493558e+00  -3.0546742770584299e+00  -3.0114479256628290e+00  -2.9682326347673960e+00  -2.9250302379481279e+00  -2.8818390748702338e+00  -2.8386602595575359e+00  -2.7954928937705024e+00  -2.7523372798042360e+00  -2.7091929135334496e+00  -2.6660596936471652e+00  -2.6229372268872946e+00  -2.5798252532538322e+00  -2.5367234195371133e+00  -2.4936314222251248e+00  -2.4505489313580666e+00  -2.4074756359489742e+00  -2.3644112163935342e+00  -2.3213553580421356e+00  -2.2783077413426565e+00  -2.2352680467546469e+00  -2.1922359522403130e+00  -2.1492111356971457e+00  -2.1061932745507073e+00  -2.0631820466663355e+00  -2.0201771300894236e+00  -1.9771782031804843e+00  -1.9341849444073747e+00  -1.8911970323507923e+00  -1.8482141456552479e+00  -1.8052359630759638e+00  -1.7622621635043478e+00  -1.7192924260115197e+00  -1.6763264298734488e+00  -1.6333638545996907e+00  -1.5904043799606649e+00  -1.5474476860227000e+00  -1.5044934531871685e+00  -1.4615413622322508e+00  -1.4185910943527003e+00  -1.3756423311957362e+00  -1.3326947548920107e+00  -1.2897480480828039e+00  -1.2468018939452821e+00  -1.2038559762170433e+00  -1.1609099792216473e+00  -1.1179635878944294e+00  -1.0750164878099482e+00  -1.0320683652070177e+00  -9.8911890701621730e-01  -9.4616780087642904e-01  -9.0321473516079054e-01  -8.6025939896798598e-01  -8.1730148214595844e-01  -7.7434067522805849e-01  -7.3137666943710644e-01  -6.8840915657017443e-01  -6.4543782883200673e-01  -6.0246237901118904e-01  -5.5948249947944650e-01  -5.1649788422655230e-01  -4.7350822576620294e-01  -4.3051322223481414e-01  -3.8751257554467206e-01  -3.4450601060628577e-01  -3.0149330064315805e-01  -2.5847435851344353e-01  -2.1544938914717893e-01  -1.7241939096702227e-01  -1.2938884607979226e-01  -8.6374374913299717e-02  -4.3344276543684675e-02  -2.1036437202319189e-03  -3.4445312525163696e+00  -3.4009044745381853e+00  -3.3574415709987568e+00  -3.3141728911678854e+00  -3.2709912505774752e+00  -3.2277145986635052e+00  -3.1844596238690861e+00  -3.1411885576818288e+00  -3.0979420821044021e+00  -3.0546998217666830e+00  -3.0114747813277836e+00  -2.9682588711233202e+00  -2.9250566983964874e+00  -2.8818656514260446e+00  -2.8386869613640004e+00  -2.7955198181602023e+00  -2.7523643507083082e+00  -2.7092202047089544e+00  -2.6660871569437941e+00  -2.6229649027787323e+00  -2.5798531196353371e+00  -2.5367514961892890e+00  -2.4936597000283252e+00  -2.4505774188810929e+00  -2.4075043293043414e+00  -2.3644401188982194e+00  -2.3213844681438376e+00  -2.2783370604875266e+00  -2.2352975746363266e+00  -2.1922656897479063e+00  -2.1492410830565118e+00  -2.1062234323935249e+00  -2.0632124153390117e+00  -2.0202077100531697e+00  -1.9772089947743570e+00  -1.9342159480015071e+00  -1.8912282482673524e+00  -1.8482455742246984e+00  -1.8052676046106131e+00  -1.7622940183197180e+00  -1.7193244944195218e+00  -1.6763587121917629e+00  -1.6333963511507046e+00  -1.5904370910744983e+00  -1.5474806120356528e+00  -1.5045265944409594e+00  -1.4615747190717485e+00  -1.4186246671244034e+00  -1.3756761202464058e+00  -1.3327287605680895e+00  -1.2897822707302893e+00  -1.2468363339100452e+00  -1.2038906338452759e+00  -1.1609448548602685e+00  -1.1179986818916630e+00  -1.0750518005151797e+00  -1.0321038969718117e+00  -9.8915465819266946e-01  -9.4620377182042303e-01  -9.0325092622570136e-01  -8.6029581051487258e-01  -8.1733811452491367e-01  -7.7437752880084143e-01  -7.3141374454190633e-01  -6.8844645352462819e-01  -6.4547534795632888e-01  -6.0250012035479728e-01  -5.5952046331303151e-01  -5.1653606962382759e-01  -4.7354663233731387e-01  -4.3055184666746460e-01  -3.8755141277880573e-01  -3.4454504768079375e-01  -3.0153251513406926e-01  -2.5851368459362745e-01  -2.1548872697713309e-01  -1.7245849511036501e-01  -1.2942641710125768e-01  -8.6400824880647611e-02  -4.3467243730196718e-02  4.9048545474201630e-05  -3.4439626526013227e+00  -3.4010474923176712e+00  -3.3574521479799762e+00  -3.3142903634230030e+00  -3.2709705987556608e+00  -3.2277492285874625e+00  -3.1844567818633314e+00  -3.1412079029081204e+00  -3.0979453525916676e+00  -3.0547103681081555e+00  -3.0114784114904691e+00  -2.9682651766488095e+00  -2.9250607042920604e+00  -2.8818707055612443e+00  -2.8386915393684653e+00  -2.7955248946408195e+00  -2.7523695465960252e+00  -2.7092257377948501e+00  -2.6660929661166506e+00  -2.6229710130447321e+00  -2.5798595409535303e+00  -2.5367582220036615e+00  -2.4936667475765040e+00  -2.4505847822746416e+00  -2.4075120195192325e+00  -2.3644481324159194e+00  -2.3213928097435481e+00  -2.2783457280072015e+00  -2.2353065698401586e+00  -2.1922750117138237e+00  -2.1492507327074573e+00  -2.1062334096803554e+00  -2.0632227209389282e+00  -2.0202183442127164e+00  -1.9772199579414851e+00  -1.9342272404005640e+00  -1.8912398701517881e+00  -1.8482575257365317e+00  -1.8052798858807182e+00  -1.7623066294214975e+00  -1.7193374354072539e+00  -1.6763719830880546e+00  -1.6334099519641445e+00  -1.5904510217996706e+00  -1.5474948726618067e+00  -1.5045411849523835e+00  -1.4615896394490315e+00  -1.4186399173417148e+00  -1.3756917002689693e+00  -1.3327446703489203e+00  -1.2897985102081222e+00  -1.2468529030079891e+00  -1.2039075324707440e+00  -1.1609620829056082e+00  -1.1180162392354738e+00  -1.0750696870242291e+00  -1.0321221125032340e+00  -9.8917320259798336e-01  -9.4622264494938702e-01  -9.0327012793688910e-01  -8.6031534068315574e-01  -8.1735797307101143e-01  -7.7439771570550842e-01  -7.3143425992212818e-01  -6.8846729766023562e-01  -6.4549652145531400e-01  -6.0252162419884514e-01  -5.5954229913480336e-01  -5.1655823958416403e-01  -4.7356913967069464e-01  -4.3057469316379438e-01  -3.8757460100757890e-01  -3.4456856189779644e-01  -3.0155631322054072e-01  -2.5853760142526477e-01  -2.1551226190766110e-01  -1.7248010423483665e-01  -1.2944091289129273e-01  -8.6394126456490000e-02  -4.3303579443568024e-02  -1.2845522962658440e-05  -3.4442779252031186e+00  -3.4007844860336447e+00  -3.3576251956883270e+00  -3.3142048802448385e+00  -3.2710180236872994e+00  -3.2276926895350724e+00  -3.1844553397669397e+00  -3.1411662782676673e+00  -3.0979221947808724e+00  -3.0546701588082747e+00  -3.0114443447669093e+00  -2.9682247272890945e+00  -2.9250225130106542e+00  -2.8818306135839609e+00  -2.8386524042959338e+00  -2.7954855251612667e+00  -2.7523307327832525e+00  -2.7091872081541180e+00  -2.6660548740848777e+00  -2.6229333316360082e+00  -2.5798222762560648e+00  -2.5367213979474612e+00  -2.4936303536977555e+00  -2.4505488423704862e+00  -2.4074765268694929e+00  -2.3644131001850073e+00  -2.3213582334409515e+00  -2.2783116126427481e+00  -2.2352729125450055e+00  -2.1922418143099391e+00  -2.1492179941525640e+00  -2.1062011311175581e+00  -2.0631909024257751e+00  -2.0201869865838891e+00  -1.9771890614904151e+00  -1.9341968055975431e+00  -1.8912098971807190e+00  -1.8482280147895449e+00  -1.8052508370050799e+00  -1.7622780426325069e+00  -1.7193093106361179e+00  -1.6763443202261545e+00  -1.6333827508521526e+00  -1.5904242822513626e+00  -1.5474685944670536e+00  -1.5045153678882690e+00  -1.4615642832797582e+00  -1.4186150218182880e+00  -1.3756672651239834e+00  -1.3327206952919501e+00  -1.2897749949210540e+00  -1.2468298471423973e+00  -1.2038849356468986e+00  -1.1609399447131670e+00  -1.1179945592355440e+00  -1.0750484647521754e+00  -1.0321013474734386e+00  -9.8915289430847131e-01  -9.4620279289328446e-01  -9.0325073161058500e-01  -8.6029639961841264e-01  -8.1733948684960722e-01  -7.7437968404778934e-01  -7.3141668271232041e-01  -6.8845017516517071e-01  -6.4547985437119970e-01  -6.0250541410646730e-01  -5.5952654853916173e-01  -5.1654295274236717e-01  -4.7355432173409279e-01  -4.3056035217310301e-01  -3.8756073905598026e-01  -3.4455517912669903e-01  -3.0154335277537259e-01  -2.5852489596972256e-01  -2.1549922411215208e-01  -1.7246505520950484e-01  -1.2941874751789620e-01  -8.6348967921934847e-02  -4.3221978640635261e-02  -7.6571209765887707e-06  -3.4440846907266485e+00  -3.4009208888245497e+00  -3.3575283811227208e+00  -3.3143060309358265e+00  -3.2709648646171705e+00  -3.2277303121762810e+00  -3.1844210709937966e+00  -3.1411666502063618e+00  -3.0978916629457958e+00  -3.0546516719737054e+00  -3.0114142424703725e+00  -2.9681988875441339e+00  -2.9249930054114732e+00  -2.8818027307875633e+00  -2.8386237769349125e+00  -2.7954577165771934e+00  -2.7523031586315052e+00  -2.7091602325415010e+00  -2.6660284055874537e+00  -2.6229074111969606e+00  -2.5797969244573244e+00  -2.5366965994213317e+00  -2.4936061411420005e+00  -2.4505252028167632e+00  -2.4074534824291289e+00  -2.3643906437101165e+00  -2.3213363754637957e+00  -2.2782903489576389e+00  -2.2352522472588929e+00  -2.1922217454598263e+00  -2.1491985237064575e+00  -2.1061822587976975e+00  -2.0631726295985873e+00  -2.0201693136752699e+00  -1.9771719894430384e+00  -1.9341803348798661e+00  -1.8911940283590729e+00  -1.8482127481851416e+00  -1.8052361729207793e+00  -1.7622639812364327e+00  -1.7192958520477171e+00  -1.6763314644798808e+00  -1.6333704979349508e+00  -1.5904126320977441e+00  -1.5474575469784004e+00  -1.5045049229340042e+00  -1.4615544407031138e+00  -1.4186057814331694e+00  -1.3756586267122164e+00  -1.3327126585979738e+00  -1.2897675596481839e+00  -1.2468230129498954e+00  -1.2038787021491426e+00  -1.1609343114802755e+00  -1.1179895257953139e+00  -1.0750440305935560e+00  -1.0320975120505260e+00  -9.8914965704838831e-01  -9.4620015320330009e-01  -9.0324868889910814e-01  -8.6029495330797778e-01  -8.1733863643661375e-01  -7.7437942912269520e-01  -7.3141702312279822e-01  -6.8845111103171985e-01  -6.4548138649429398e-01  -6.0250754390075267e-01  -5.5952927893102200e-01  -5.1654628760867383e-01  -4.7355826754783226e-01  -4.3056491499173899e-01  -3.8756592621005348e-01  -3.4456098642636285e-01  -3.0154975590896449e-01  -2.5853178573892815e-01  -2.1550630309163440e-01  -1.7247148000346924e-01  -1.2942216656935976e-01  -8.6343828592343339e-02  -4.3207617157039920e-02  -2.8292579398186016e-06  -3.4442776906039190e+00  -3.4008162451563360e+00  -3.3576654085671760e+00  -3.3142389201793860e+00  -3.2710428524598631e+00  -3.2277028370719867e+00  -3.1844471060842801e+00  -3.1411423223447947e+00  -3.0978862807650280e+00  -3.0546269883062833e+00  -3.0113968434090097e+00  -2.9681752142427382e+00  -2.9249721219550748e+00  -2.8817802755703186e+00  -2.8386025571234796e+00  -2.7954365530061049e+00  -2.7522827900584157e+00  -2.7091404226866000e+00  -2.6660092812246647e+00  -2.6228889685109067e+00  -2.5797791549684455e+00  -2.5366795395345796e+00  -2.4935897728567560e+00  -2.4505095566383650e+00  -2.4074385485775585e+00  -2.3643764393374544e+00  -2.3213228955223002e+00  -2.2782776010240000e+00  -2.2352402289106204e+00  -2.1922104601993597e+00  -2.1491879712248489e+00  -2.1061724414574385e+00  -2.0631635483027946e+00  -2.0201609703040622e+00  -1.9771643851909022e+00  -1.9341734711830083e+00  -1.8911879062936567e+00  -1.8482073688367548e+00  -1.8052315371808174e+00  -1.7622600899444718e+00  -1.7192927059228762e+00  -1.6763290641766508e+00  -1.6333688440260896e+00  -1.5904117251017502e+00  -1.5474573873597905e+00  -1.5045055111157184e+00  -1.4615557770657364e+00  -1.4186078663155510e+00  -1.3756614604064559e+00  -1.3327162413453304e+00  -1.2897718916344649e+00  -1.2468280943029333e+00  -1.2038845329376742e+00  -1.1609408917145938e+00  -1.1179968554293089e+00  -1.0750521095277277e+00  -1.0321063401371022e+00  -9.8915923409662310e-01  -9.4621047899213961e-01  -9.0325976318689194e-01  -8.6030677586793280e-01  -8.1735120707400788e-01  -7.7439274777464273e-01  -7.3143108988143779e-01  -6.8846592640606186e-01  -6.4549695141276509e-01  -6.0252386032858807e-01  -5.5954634969362704e-01  -5.1656411767856825e-01  -4.7357686288787171e-01  -4.3058428497364010e-01  -3.8758607874916878e-01  -3.4458193295107603e-01  -3.0157150203967026e-01  -2.5855435935971288e-01  -2.1552978917117219e-01  -1.7249629853800147e-01  -1.2944987638218081e-01  -8.6377758271108773e-02  -4.3242230231314363e-02  -1.1059904976583585e-05  -3.4439636320109588e+00  -3.4011220250695451e+00  -3.3575381325114426e+00  -3.3143581471391008e+00  -3.2710228080671491e+00  -3.2277680894947736e+00  -3.1844387867849027e+00  -3.1411568190229038e+00  -3.0978715510645225e+00  -3.0546221628819752e+00  -3.0113826053929729e+00  -2.9681654637613941e+00  -2.9249597389326234e+00  -2.8817698551431707e+00  -2.8385918962752759e+00  -2.7954270074497147e+00  -2.7522738244367573e+00  -2.7091323373433145e+00  -2.6660019982704166e+00  -2.6228825115277115e+00  -2.5797735472368837e+00  -2.5366747636609870e+00  -2.4935858615945077e+00  -2.4505064986551930e+00  -2.4074363656046729e+00  -2.3643751257873999e+00  -2.3213224616210204e+00  -2.2782780435962962e+00  -2.2352415521345548e+00  -2.1922126629762855e+00  -2.1491910559733913e+00  -2.1061764087122570e+00  -2.0631684000291166e+00  -2.0201667076375407e+00  -1.9771710096604416e+00  -1.9341809838623358e+00  -1.8911963082893273e+00  -1.8482166610048683e+00  -1.8052417203216666e+00  -1.7622711647068776e+00  -1.7193046728764168e+00  -1.6763419237820194e+00  -1.6333825966677356e+00  -1.5904263710859499e+00  -1.5474729269326732e+00  -1.5045219444653652e+00  -1.4615731043270059e+00  -1.4186260875664101e+00  -1.3756805756641592e+00  -1.3327362505603375e+00  -1.2897927946859318e+00  -1.2468498909954413e+00  -1.2039072230000181e+00  -1.1609644748002077e+00  -1.1180213311178890e+00  -1.0750774773282883e+00  -1.0321325994913770e+00  -9.8918638438601347e-01  -9.4623851954368632e-01  -9.0328869329215067e-01  -8.6033659479419022e-01  -8.1738191411821648e-01  -7.7442434228447599e-01  -7.3146357139792573e-01  -6.8849929470695925e-01  -6.4553120683847875e-01  -6.0255900388373651e-01  -5.5958238368348845e-01  -5.1660104577187338e-01  -4.7361469164773917e-01  -4.3062302204439368e-01  -3.8762574014243534e-01  -3.4462253234466222e-01  -3.0161309122225277e-01  -2.5859704604476036e-01  -2.1557398644372280e-01  -1.7254334562784504e-01  -1.2950439045350667e-01  -8.6454493906447313e-02  -4.3349081034630574e-02  -3.0640210295459708e-05  -3.4445336468869936e+00  -3.4010335416508179e+00  -3.3575572848942010e+00  -3.3142646372662679e+00  -3.2710492298291380e+00  -3.2277232555164082e+00  -3.1844150820362542e+00  -3.1411008107609346e+00  -3.0978249771413435e+00  -3.0545654896225947e+00  -3.0113313982364285e+00  -2.9681116153432359e+00  -2.9249085324649018e+00  -2.8817185307378494e+00  -2.8385420540471502e+00  -2.7953779191856416e+00  -2.7522258761208236e+00  -2.7090853963490056e+00  -2.6659561134322254e+00  -2.6228376868372378e+00  -2.5797297688207341e+00  -2.5366320541655778e+00  -2.4935442077093066e+00  -2.4504659165093048e+00  -2.4073968477059657e+00  -2.3643366794471974e+00  -2.3212850820809714e+00  -2.2782417327321181e+00  -2.2352063067437817e+00  -2.1921784828856881e+00  -2.1491579391426541e+00  -2.1061443543715090e+00  -2.0631374066453279e+00  -2.0201367740573803e+00  -1.9771421343218187e+00  -1.9341531652310238e+00  -1.8911695445881207e+00  -1.8481909503888785e+00  -1.8052170607903144e+00  -1.7622475541710758e+00  -1.7192821091305810e+00  -1.6763204045315938e+00  -1.6333621195243013e+00  -1.5904069335814754e+00  -1.5474545265208099e+00  -1.5045045785270221e+00  -1.4615567701692562e+00  -1.4186107824216745e+00  -1.3756662966869830e+00  -1.3327229948248800e+00  -1.2897805591838734e+00  -1.2468386726351572e+00  -1.2038970186067695e+00  -1.1609552811172270e+00  -1.1180131448082324e+00  -1.0750702949770035e+00  -1.0321264176087315e+00  -9.8918119941089699e-01  -9.4623432785043105e-01  -9.0328549119666712e-01  -8.6033437857228812e-01  -8.1738068001729436e-01  -7.7442408657300177e-01  -7.3146429038790184e-01  -6.8850098487345968e-01  -6.4553386486614062e-01  -6.0256262690614637e-01  -5.5958696935469765e-01  -5.1660659274846188e-01  -4.7362119920697759e-01  -4.3063049236246648e-01  -3.8763417430759617e-01  -3.4463194554921922e-01  -3.0162350860218867e-01  -2.5860857872653009e-01  -2.1558703134818147e-01  -1.7255924503524245e-01  -1.2952762741949098e-01  -8.6497256728442676e-02  -4.3541021011109481e-02  1.9631121579309627e-05  -3.4426436380228984e+00  -3.4017472400340663e+00  -3.3571665318252459e+00  -3.3143464611084990e+00  -3.2709329757209389e+00  -3.2276851050355821e+00  -3.1843306318458282e+00  -3.1410342764593278e+00  -3.0977504469747275e+00  -3.0544953997565263e+00  -3.0112611969589942e+00  -2.9680429285331988e+00  -2.9248410006760786e+00  -2.8816520930715748e+00  -2.8384768996886121e+00  -2.7953138685882100e+00  -2.7521630781052648e+00  -2.7090237451346111e+00  -2.6658956875034865e+00  -2.6227784385498585e+00  -2.5796717357069054e+00  -2.5365752174478020e+00  -2.4934885842191838e+00  -2.4504114991116435e+00  -2.4073436432947362e+00  -2.3642846852673611e+00  -2.3212343008925291e+00  -2.2781921636856026e+00  -2.2351579511409079e+00  -2.1921313406665437e+00  -2.1491120109689690e+00  -2.1060996402974284e+00  -2.0630939068706295e+00  -2.0200944884557908e+00  -1.9771010627246175e+00  -1.9341133072701058e+00  -1.8911308998026457e+00  -1.8481535181735171e+00  -1.8051808404346839e+00  -1.7622125448442314e+00  -1.7192483098975928e+00  -1.6762878143509274e+00  -1.6333307372553310e+00  -1.5903767579840655e+00  -1.5474255562573425e+00  -1.5044768121610756e+00  -1.4615302061651851e+00  -1.4185854191435299e+00  -1.3756421323983479e+00  -1.3327000276891403e+00  -1.2897587872651666e+00  -1.2468180938996216e+00  -1.2038776309240797e+00  -1.1609370822621121e+00  -1.1179961324618082e+00  -1.0750544667284525e+00  -1.0321117709557879e+00  -9.8916773176244821e-01  -9.4622203652468018e-01  -9.0327437342732786e-01  -8.6032443149988280e-01  -8.1737190070363441e-01  -7.7441647197947849e-01  -7.3145783738972980e-01  -6.8849569025064061e-01  -6.4552972519749074e-01  -6.0255963879146324e-01  -5.5958512864152710e-01  -5.1660589566836501e-01  -4.7362163984629724e-01  -4.3063206489802081e-01  -3.8763686986693746e-01  -3.4463575376081157e-01  -3.0162841279564295e-01  -2.5861458132585641e-01  -2.1559417126903960e-01  -1.7256765793998946e-01  -1.2953815826579565e-01  -8.6518122081755397e-02  -4.3463002207209618e-02  -2.1396098185155988e-03  -3.4233508799736470e+00  -3.3791630559187791e+00  -3.3358708990144423e+00  -3.2926559067854995e+00  -3.2494154482572992e+00  -3.2061585738947911e+00  -3.1628908838452170e+00  -3.1196353485871460e+00  -3.0763896248300591e+00  -3.0331573491623893e+00  -2.9899363026527723e+00  -2.9467277005296011e+00  -2.9035308242011970e+00  -2.8603460008678150e+00  -2.8171729252452087e+00  -2.7740115385383781e+00  -2.7308616053524295e+00  -2.6877228939083482e+00  -2.6445951223125981e+00  -2.6014779806397725e+00  -2.5583711551044668e+00  -2.5152743197912666e+00  -2.4721871568869149e+00  -2.4291093456043864e+00  -2.3860405707703025e+00  -2.3429805149135476e+00  -2.2999288612249753e+00  -2.2568852900260059e+00  -2.2138494807079327e+00  -2.1708211111304845e+00  -2.1277998590113465e+00  -2.0847854019418866e+00  -2.0417774178818715e+00  -1.9987755850025022e+00  -1.9557795817150172e+00  -1.9127890865302566e+00  -1.8698037780595074e+00  -1.8268233349980969e+00  -1.7838474361699386e+00  -1.7408757605566791e+00  -1.6979079873349119e+00  -1.6549437959007509e+00  -1.6119828658981608e+00  -1.5690248772487883e+00  -1.5260695101888873e+00  -1.4831164453094021e+00  -1.4401653635969720e+00  -1.3972159464719718e+00  -1.3542678758223510e+00  -1.3113208340329974e+00  -1.2683745040121650e+00  -1.2254285692164517e+00  -1.1824827136757980e+00  -1.1395366220191927e+00  -1.0965899795009579e+00  -1.0536424720273838e+00  -1.0106937861818783e+00  -9.6774360924880987e-01  -9.2479162923069214e-01  -8.8183753486325422e-01  -8.3888101561040229e-01  -7.9592176166079087e-01  -7.5295946387092083e-01  -7.0999381372770121e-01  -6.6702450319996631e-01  -6.2405122464513907e-01  -5.8107367062775361e-01  -5.3809153379