<?xml version="1.0"?>
<VTKFile type="UnstructuredGrid"  version="0.1"  >
<UnstructuredGrid>
<Piece  NumberOfPoints="1369" NumberOfCells="2560">
<Points>
<DataArray  type="Float64"  NumberOfComponents="3"  format="ascii">0 0 0  0.75 0 0  1.5 0 0  2.25 0 0  3 0 0  3.75 0 0  4.5 0 0  5.25 0 0  6 0 0  6.75 0 0  7.5 0 0  8.25 0 0  9 0 0  9.75 0 0  10.5 0 0  11.25 0 0  12 0 0  12.75 0 0  13.5 0 0  14.25 0 0  15 0 0  15.75 0 0  16.5 0 0  17.25 0 0  18 0 0  18.75 0 0  19.5 0 0  20.25 0 0  21 0 0  21.75 0 0  22.5 0 0  23.25 0 0  24 0 0  24.75 0 0  25.5 0 0  26.25 0 0  27 0 0  27.75 0 0  28.5 0 0  29.25 0 0  30 0 0  30.75 0 0  31.5 0 0  32.25 0 0  33 0 0  33.75 0 0  34.5 0 0  35.25 0 0  36 0 0  36.75 0 0  37.5 0 0  38.25 0 0  39 0 0  39.75 0 0  40.5 0 0  41.25 0 0  42 0 0  42.75 0 0  43.5 0 0  44.25 0 0  45 0 0  45.75 0 0  46.5 0 0  47.25 0 0  48 0 0  48.75 0 0  49.5 0 0  50.25 0 0  51 0 0  51.75 0 0  52.5 0 0  53.25 0 0  54 0 0  54.75 0 0  55.5 0 0  56.25 0 0  57 0 0  57.75 0 0  58.5 0 0  59.25 0 0  60 0 0  0 0.5 0  0.75 0.500086968893833 0  1.5 0.5001732858038361 0  2.25 0.5002583907708147 0  3 0.5003418658706491 0  3.75 0.5004234319973604 0  4.5 0.5005029169460823 0  5.25 0.5005802196710092 0  6 0.5006552825710155 0  6.75 0.5007280733227211 0  7.5 0.5007985739382868 0  8.25 0.5008667744514903 0  9 0.5009326693532852 0  9.75 0.5009962556021337 0  10.5 0.5010575315198822 0  11.25 0.5011164961809291 0  12 0.5011731490748415 0  12.75 0.5012274899201608 0  13.5 0.5012795185616964 0  14.25 0.501329234913882 0  15 0.5013766389295409 0  15.75 0.5014217305826625 0  16.5 0.5014645098589074 0  17.25 0.5015049767503705 0  18 0.5015431312526949 0  18.75 0.5015789733634793 0  19.5 0.5016125030814012 0  20.25 0.5016437204057318 0  21 0.5016726253360713 0  21.75 0.5016992178721995 0  22.5 0.501723498013996 0  23.25 0.5017454657613951 0  24 0.5017651211143617 0  24.75 0.5017824640728765 0  25.5 0.5017974946369297 0  26.25 0.5018102128065161 0  27 0.5018206185816334 0  27.75 0.5018287119622806 0  28.5 0.5018344929484572 0  29.25 0.5018379615401629 0  30 0.5018391177373985 0  30.75 0.5018379615401629 0  31.5 0.5018344929484572 0  32.25 0.5018287119622806 0  33 0.5018206185816334 0  33.75 0.5018102128065161 0  34.5 0.5017974946369297 0  35.25 0.5017824640728765 0  36 0.5017651211143617 0  36.75 0.5017454657613951 0  37.5 0.501723498013996 0  38.25 0.5016992178721995 0  39 0.5016726253360713 0  39.75 0.5016437204057318 0  40.5 0.5016125030814012 0  41.25 0.5015789733634793 0  42 0.5015431312526949 0  42.75 0.5015049767503705 0  43.5 0.5014645098589074 0  44.25 0.5014217305826625 0  45 0.5013766389295409 0  45.75 0.501329234913882 0  46.5 0.5012795185616964 0  47.25 0.5012274899201608 0  48 0.5011731490748415 0  48.75 0.5011164961809291 0  49.5 0.5010575315198822 0  50.25 0.5009962556021337 0  51 0.5009326693532852 0  51.75 0.5008667744514903 0  52.5 0.5007985739382868 0  53.25 0.5007280733227211 0  54 0.5006552825710155 0  54.75 0.5005802196710092 0  55.5 0.5005029169460823 0  56.25 0.5004234319973604 0  57 0.5003418658706491 0  57.75 0.5002583907708147 0  58.5 0.5001732858038361 0  59.25 0.500086968893833 0  60 0.5 0  0 1 0  0.75 1.000174236383959 0  1.5 1.000347123057044 0  2.25 1.00051751803844 0  3 1.000684589321615 0  3.75 1.000847795078582 0  4.5 1.001006807649385 0  5.25 1.001161437273388 0  6 1.001311576589309 0  6.75 1.001457165595933 0  7.5 1.001598170975269 0  8.25 1.001734574288567 0  9 1.001866365349575 0  9.75 1.001993538536276 0  10.5 1.00211609074727 0  11.25 1.002234020272105 0  12 1.002347326167572 0  12.75 1.002456007913596 0  13.5 1.002560065223415 0  14.25 1.002659497938925 0  15 1.002754305972953 0  15.75 1.002844489277438 0  16.5 1.002930047825885 0  17.25 1.003010981603687 0  18 1.003087290602795 0  18.75 1.003158974818771 0  19.5 1.003226034249171 0  20.25 1.00328846889265 0  21 1.003346278748468 0  21.75 1.00339946381622 0  22.5 1.003448024095681 0  23.25 1.003491959586733 0  24 1.003531270289308 0  24.75 1.003565956203373 0  25.5 1.003596017328908 0  26.25 1.003621453665905 0  27 1.003642265214359 0  27.75 1.003658451974268 0  28.5 1.003670013945632 0  29.25 1.00367695112845 0  30 1.003679263522723 0  30.75 1.00367695112845 0  31.5 1.003670013945632 0  32.25 1.003658451974268 0  33 1.003642265214359 0  33.75 1.003621453665905 0  34.5 1.003596017328908 0  35.25 1.003565956203373 0  36 1.003531270289308 0  36.75 1.003491959586733 0  37.5 1.003448024095681 0  38.25 1.00339946381622 0  39 1.003346278748468 0  39.75 1.00328846889265 0  40.5 1.003226034249171 0  41.25 1.003158974818771 0  42 1.003087290602795 0  42.75 1.003010981603687 0  43.5 1.002930047825885 0  44.25 1.002844489277438 0  45 1.002754305972953 0  45.75 1.002659497938925 0  46.5 1.002560065223415 0  47.25 1.002456007913596 0  48 1.002347326167572 0  48.75 1.002234020272105 0  49.5 1.00211609074727 0  50.25 1.001993538536276 0  51 1.001866365349575 0  51.75 1.001734574288567 0  52.5 1.001598170975269 0  53.25 1.001457165595933 0  54 1.001311576589309 0  54.75 1.001161437273388 0  55.5 1.001006807649385 0  56.25 1.000847795078582 0  57 1.000684589321615 0  57.75 1.00051751803844 0  58.5 1.000347123057044 0  59.25 1.000174236383959 0  60 1 0  0 1.5 0  0.75 1.500262123722408 0  1.5 1.50052209568294 0  2.25 1.500778147678728 0  3 1.501029048981217 0  3.75 1.501274033612028 0  4.5 1.501512653717002 0  5.25 1.501744655224418 0  6 1.501969896022179 0  6.75 1.502188297173331 0  7.5 1.502399814987442 0  8.25 1.502604425326976 0  9 1.502802114869544 0  9.75 1.502992876265735 0  10.5 1.503176705462253 0  11.25 1.503353600223959 0  12 1.503523559318405 0  12.75 1.503686582066048 0  13.5 1.503842668092216 0  14.25 1.503991817190329 0  15 1.504134029246493 0  15.75 1.504269304197915 0  16.5 1.504397642009977 0  17.25 1.504519042663595 0  18 1.50463350614825 0  18.75 1.504741032458146 0  19.5 1.504841621590092 0  20.25 1.504935273542329 0  21 1.50502198831389 0  21.75 1.505101765904246 0  22.5 1.505174606313107 0  23.25 1.505240509540314 0  24 1.505299475585782 0  24.75 1.505351504449465 0  25.5 1.50539659613134 0  26.25 1.505434750631395 0  27 1.505465967949625 0  27.75 1.505490248086026 0  28.5 1.505507591040598 0  29.25 1.505517996813341 0  30 1.505521465404256 0  30.75 1.505517996813341 0  31.5 1.505507591040598 0  32.25 1.505490248086026 0  33 1.505465967949625 0  33.75 1.505434750631395 0  34.5 1.50539659613134 0  35.25 1.505351504449465 0  36 1.505299475585782 0  36.75 1.505240509540314 0  37.5 1.505174606313107 0  38.25 1.505101765904246 0  39 1.50502198831389 0  39.75 1.504935273542329 0  40.5 1.504841621590092 0  41.25 1.504741032458146 0  42 1.50463350614825 0  42.75 1.504519042663595 0  43.5 1.504397642009977 0  44.25 1.504269304197915 0  45 1.504134029246493 0  45.75 1.503991817190329 0  46.5 1.503842668092216 0  47.25 1.503686582066048 0  48 1.503523559318405 0  48.75 1.503353600223959 0  49.5 1.503176705462253 0  50.25 1.502992876265735 0  51 1.502802114869544 0  51.75 1.502604425326976 0  52.5 1.502399814987442 0  53.25 1.502188297173331 0  54 1.501969896022179 0  54.75 1.501744655224418 0  55.5 1.501512653717002 0  56.25 1.501274033612028 0  57 1.501029048981217 0  57.75 1.500778147678728 0  58.5 1.50052209568294 0  59.25 1.500262123722408 0  60 1.5 0  0 2 0  0.75 2.000351004595083 0  1.5 2.000698858955031 0  2.25 2.001041106336954 0  3 2.001376164942891 0  3.75 2.001703117357558 0  4.5 2.002021451519043 0  5.25 2.002330884307181 0  6 2.00263125951593 0  6.75 2.002922491008038 0  7.5 2.003204531290453 0  8.25 2.00347735417791 0  9 2.003740945233239 0  9.75 2.003995296496532 0  10.5 2.004240403579102 0  11.25 2.004476264061244 0  12 2.004702876608849 0  12.75 2.004920240486354 0  13.5 2.005128355288208 0  14.25 2.005327220790812 0  15 2.005516836870887 0  15.75 2.005697203460467 0  16.5 2.005868320522082 0  17.25 2.006030188035077 0  18 2.006182805988068 0  18.75 2.006326174374782 0  19.5 2.006460293191764 0  20.25 2.006585162437112 0  21 2.00670078210978 0  21.75 2.006807152209196 0  22.5 2.006904272735044 0  23.25 2.006992143687156 0  24 2.007070765065437 0  24.75 2.007140136869842 0  25.5 2.007200259100342 0  26.25 2.007251131756926 0  27 2.007292754839589 0  27.75 2.007325128348327 0  28.5 2.007348252283139 0  29.25 2.007362126644027 0  30 2.00736675143099 0  30.75 2.007362126644027 0  31.5 2.007348252283139 0  32.25 2.007325128348327 0  33 2.007292754839589 0  33.75 2.007251131756926 0  34.5 2.007200259100342 0  35.25 2.007140136869842 0  36 2.007070765065437 0  36.75 2.006992143687156 0  37.5 2.006904272735044 0  38.25 2.006807152209196 0  39 2.00670078210978 0  39.75 2.006585162437112 0  40.5 2.006460293191764 0  41.25 2.006326174374782 0  42 2.006182805988068 0  42.75 2.006030188035077 0  43.5 2.005868320522082 0  44.25 2.005697203460468 0  45 2.005516836870887 0  45.75 2.005327220790812 0  46.5 2.005128355288208 0  47.25 2.004920240486354 0  48 2.004702876608849 0  48.75 2.004476264061244 0  49.5 2.004240403579102 0  50.25 2.003995296496532 0  51 2.003740945233239 0  51.75 2.00347735417791 0  52.5 2.003204531290453 0  53.25 2.002922491008038 0  54 2.00263125951593 0  54.75 2.002330884307181 0  55.5 2.002021451519043 0  56.25 2.001703117357558 0  57 2.001376164942891 0  57.75 2.001041106336954 0  58.5 2.000698858955031 0  59.25 2.000351004595083 0  60 2 0  0 2.5 0  0.75 2.50044135417169 0  1.5 2.500878192696131 0  2.25 2.501307315476823 0  3 2.501726916923028 0  3.75 2.502136050952998 0  4.5 2.502534217227155 0  5.25 2.502921146386568 0  6 2.503296691874683 0  6.75 2.503660773462516 0  7.5 2.504013347084174 0  8.25 2.504354388493083 0  9 2.504683884335224 0  9.75 2.505001827252033 0  10.5 2.505308213187574 0  11.25 2.505603039905955 0  12 2.505886306174517 0  12.75 2.506158011313661 0  13.5 2.5064181549487 0  14.25 2.506666736873054 0  15 2.506903756972831 0  15.75 2.507129215185238 0  16.5 2.507343111475659 0  17.25 2.507545445825013 0  18 2.507736218222783 0  18.75 2.507915428663174 0  19.5 2.508083077142995 0  20.25 2.508239163660489 0  2
[...]
<PointData  Scalars="f_10-1"> 
<DataArray  type="Float64"  Name="f_10-1"  format="ascii">6.3637074519984509e+00  6.2846991790604934e+00  6.2027291983457609e+00  6.1239160565418969e+00  6.0438498929884013e+00  5.9645824775146972e+00  5.8848700647852903e+00  5.8054132864491965e+00  5.7258453725962530e+00  5.6463668122858062e+00  5.5668732303784365e+00  5.4874169462521305e+00  5.4079686998277179e+00  5.3285417556967376e+00  5.2491274298461397e+00  5.1697288266953203e+00  5.0903428848264012e+00  5.0109699547655389e+00  4.9316085529507765e+00  4.8522582353413304e+00  4.7729179804705337e+00  4.6935871000099132e+00  4.6142647148667768e+00  4.5349500576252382e+00  4.4556422955088983e+00  4.3763406346263904e+00  4.2970442581313986e+00  4.2177523631487377e+00  4.1384641386193648e+00  4.0591787786299935e+00  3.9798954743168631e+00  3.9006134187316279e+00  3.8213318038294477e+00  3.7420498222483771e+00  3.6627666661634848e+00  3.5834815279274337e+00  3.5041935996166895e+00  3.4249020732481070e+00  3.3456061405840809e+00  3.2663049931900585e+00  3.1869978223369837e+00  3.1076838189989555e+00  3.0283621737923037e+00  2.9490320769507341e+00  2.8696927182780416e+00  2.7903432871146623e+00  2.7109829722957013e+00  2.6316109621140051e+00  2.5522264442802727e+00  2.4728286058849744e+00  2.3934166333590690e+00  2.3139897124359576e+00  2.2345470281129476e+00  2.1550877646140307e+00  2.0756111053534507e+00  1.9961162329017006e+00  1.9166023289550687e+00  1.8370685743118895e+00  1.7575141488596229e+00  1.6779382315813369e+00  1.5983400005944135e+00  1.5187186332442493e+00  1.4390733062916272e+00  1.3594031962573825e+00  1.2797074800326969e+00  1.1999853359363581e+00  1.1202359455233510e+00  1.0404584966603321e+00  9.6065218874875091e-01  8.8081624163845662e-01  8.0094991101536694e-01  7.2105251561372141e-01  6.4112348692381371e-01  5.6116246419983074e-01  4.8116949480557580e-01  4.0114539115314823e-01  3.2109299591605339e-01  2.4101810514697050e-01  1.6093443380746536e-01  8.0901529710386180e-02  1.3170665561189408e-03  6.3640500373237767e+00  6.2842602782242727e+00  6.2032792764616884e+00  6.1237594194664915e+00  6.0440429657099637e+00  5.9645143975603858e+00  5.8849560170772435e+00  5.8054048770438769e+00  5.7258940633790996e+00  5.6463828603171482e+00  5.5669085687092785e+00  5.4874411586220351e+00  5.4079992414106473e+00  5.3285684264633701e+00  5.2491561454036635e+00  5.1697561110282404e+00  5.0903707863525707e+00  5.0109972587253440e+00  4.9316359862268042e+00  4.8522853628576135e+00  4.7729450658689538e+00  4.6936139843692848e+00  4.6142914955126093e+00  4.5349766757213761e+00  4.4556687875023240e+00  4.3763669785889912e+00  4.2970704679026746e+00  4.2177784305745414e+00  4.1384900690550195e+00  4.0592045690991654e+00  3.9799211269641077e+00  3.9006389325322393e+00  3.8213571797021912e+00  3.7420750599012993e+00  3.6627917660407201e+00  3.5835064900073434e+00  3.5042184241540477e+00  3.4249267603156985e+00  3.3456306903558639e+00  3.2663294057662373e+00  3.1870220978520476e+00  3.1077079575549638e+00  3.0283861755000889e+00  2.9490559419044220e+00  2.8697164465707754e+00  2.7903668788289337e+00  2.7110064275092518e+00  2.6316342808962045e+00  2.5522496266943411e+00  2.4728516519865216e+00  2.3934395431970152e+00  2.3140124860518574e+00  2.2345696655413216e+00  2.1551102658819499e+00  2.0756334704804904e+00  1.9961384618994562e+00  1.9166244218265933e+00  1.8370905310506060e+00  1.7575359694475199e+00  1.6779599159860619e+00  1.5983615487642062e+00  1.5187400450998014e+00  1.4390945817122962e+00  1.3594243350586099e+00  1.2797284819287902e+00  1.2000062004790950e+00  1.1202566720007776e+00  1.0404790839277016e+00  9.6067263494020438e-01  8.8083654365272301e-01  8.0097006354661315e-01  7.2107250913572674e-01  6.4114330321060398e-01  5.6118206612292076e-01  4.8118879249109797e-01  4.0116422000833812e-01  3.2111065762470525e-01  2.4103347995460978e-01  1.6094478348547331e-01  8.0873150137561176e-02  1.2976864502922211e-04  6.3637224644533248e+00  6.2841724604834477e+00  6.2035717329728959e+00  6.1238947015773046e+00  6.0440992833760951e+00  5.9645602965289282e+00  5.8849595674796396e+00  5.8054435726719067e+00  5.7259058933605154e+00  5.6464199469435723e+00  5.5669300013789167e+00  5.4874754361684577e+00  5.4080258554706271e+00  5.3286008919725862e+00  5.2491853275384219e+00  5.1697878993486430e+00  5.0904013472677159e+00  5.0110290374337509e+00  4.9316674254650961e+00  4.8523174497779538e+00  4.7729771797589224e+00  4.6936465172075605e+00  4.6143242028170928e+00  4.5350097116196704e+00  4.4557020565282848e+00  4.3764005410415443e+00  4.2971042868113374e+00  4.2178125295305664e+00  4.1385244339096712e+00  4.0592392091623557e+00  3.9799560369500830e+00  3.9006741162151934e+00  3.8213926352250889e+00  3.7421107888973477e+00  3.6628277679741044e+00  3.5835427656835539e+00  3.5042549735436430e+00  3.4249635839031760e+00  3.3456677883039223e+00  3.2663667784334658e+00  3.1870597454723635e+00  3.1077458804360636e+00  3.0284243739005920e+00  2.9490944161099861e+00  2.8697551968469299e+00  2.7904059054502492e+00  2.7110457307412816e+00  2.6316738610066350e+00  2.5522894839459789e+00  2.4728917866415463e+00  2.3934799555140631e+00  2.3140531762874494e+00  2.2346106339481890e+00  2.1551515127088732e+00  2.0756749959701599e+00  1.9961802662860078e+00  1.9166665053306449e+00  1.8371328938710014e+00  1.7575786117472336e+00  1.6780028378676808e+00  1.5984047502284242e+00  1.5187835259740823e+00  1.4391383415295480e+00  1.3594683728502019e+00  1.2797727958722445e+00  1.2000507872976889e+00  1.1203015259368012e+00  1.0405241949733099e+00  9.6071798574276401e-01  8.8088210395897559e-01  8.0101577981062300e-01  7.2111828392080002e-01  6.4118895142120402e-01  5.6122721477202864e-01  4.8123263703240565e-01  4.0120490307297030e-01  3.2114359327113029e-01  2.4104694831626022e-01  1.6090582763800859e-01  8.0651006437266137e-02  2.6999824763891806e-05  6.3640864677764943e+00  6.2837888267861279e+00  6.2038670475643318e+00  6.1237853860675466e+00  6.0441961856391764e+00  5.9644782030451520e+00  5.8849815431164236e+00  5.8053959142704414e+00  5.7259142155387464e+00  5.6463953659875044e+00  5.5669332807490539e+00  5.4874625567590494e+00  5.4080261954879658e+00  5.3285938897281806e+00  5.2491845179663992e+00  5.1697841606577688e+00  5.0904006180580650e+00  5.0110274272450521e+00  4.9316674437673527e+00  4.8523174840797845e+00  4.7729782622618400e+00  4.6936479932086597e+00  4.6143264888996738e+00  4.5350125459636983e+00  4.4557056050732093e+00  4.3764047003232323e+00  4.2971091223856712e+00  4.2178180009550621e+00  4.1385305670080923e+00  4.0592459883393621e+00  3.9799634724386439e+00  3.9006822021482752e+00  3.8214013757578993e+00  3.7421201819523673e+00  3.6628378153499970e+00  3.5835534667742679e+00  3.5042663292389116e+00  3.4249755941679720e+00  3.3456804536799676e+00  3.2663800991082952e+00  3.1870737218563319e+00  3.1077605128048660e+00  3.0284396626167367e+00  2.9491103614855816e+00  2.8697717992286580e+00  2.7904231651668234e+00  2.7110636481359127e+00  2.6316924364168401e+00  2.5523087177160462e+00  2.4729116791145378e+00  2.3935005070364794e+00  2.3140743872055816e+00  2.2346325046093658e+00  2.1551740434586106e+00  2.0756981871505040e+00  1.9962041182305610e+00  1.9166910183573171e+00  1.8371580682686857e+00  1.7576044477534294e+00  1.6780293356299196e+00  1.5984319097380413e+00  1.5188113469534710e+00  1.4391668232394335e+00  1.3594975137617273e+00  1.2798025931089609e+00  1.2000812356867512e+00  1.1203326163933598e+00  1.0405559117376693e+00  9.6075030161166486e-01  8.8091497190964874e-01  8.0104911784926958e-01  7.2115194641623970e-01  6.4122267149542878e-01  5.6126048019031316e-01  4.8126440420075067e-01  4.0123290344303331e-01  3.2116260530773694e-01  2.4104470988549082e-01  1.6085481912004895e-01  8.0532036287410361e-02  2.3345477557660823e-05  6.3638765139010438e+00  6.2838791301577785e+00  6.2036613549695110e+00  6.1238688893463289e+00  6.0440346524697732e+00  5.9645069885664830e+00  5.8848804761348639e+00  5.8053996731009949e+00  5.7258552690202125e+00  5.6463877542794885e+00  5.5668960015858318e+00  5.4874492655586344e+00  5.4079995489147343e+00  5.3285783989136055e+00  5.2491635629025222e+00  5.1697685851730339e+00  5.0903832424423561e+00  5.0110129064486486e+00  4.9316527537530224e+00  4.8523045724722920e+00  4.7729658816992462e+00  4.6936369419139252e+00  4.6143162609863335e+00  4.5350034633849443e+00  4.4556974654579724e+00  4.3763976320042897e+00  4.2971030453517223e+00  4.2178129659768411e+00  4.1385265428188198e+00  4.0592429949897459e+00  3.9799614979034845e+00  3.9006812544185121e+00  3.8214014503526572e+00  3.7421212821632590e+00  3.6628399396415534e+00  3.5835566166202795e+00  3.5042705042531161e+00  3.4249807951280022e+00  3.3456866806507719e+00  3.2663873526061566e+00  3.1870820021271866e+00  3.1077698202716109e+00  3.0284499976021197e+00  2.9491217243837937e+00  2.8697841903991774e+00  2.7904365850000201e+00  2.7110780970124400e+00  2.6317079147327429e+00  2.5523252258670475e+00  2.4729292175055342e+00  2.3935190760752363e+00  2.3140939873058852e+00  2.2346531361876978e+00  2.1551957069338905e+00  2.0757208829402014e+00  1.9962278467461283e+00  1.9167157799948846e+00  1.8371838633940578e+00  1.7576312766756546e+00  1.6780571985562878e+00  1.5984608066971846e+00  1.5188412776638049e+00  1.4391977868853496e+00  1.3595295086130332e+00  1.2798356158754116e+00  1.2001152804255117e+00  1.1203676726621692e+00  1.0405919614751302e+00  9.6078731386094229e-01  8.8095289385656883e-01  8.0108785945220506e-01  7.2119135356359676e-01  6.4126247768631606e-01  5.6130021553808340e-01  4.8130321416335603e-01  4.0126916392831619e-01  3.2119309072964569e-01  2.4106287868293330e-01  1.6084974912432021e-01  8.0503538640956107e-02  2.4244084876921836e-05  6.3640969233915810e+00  6.2836445493580513e+00  6.2036828033188156e+00  6.1236001893616274e+00  6.0440500639685482e+00  5.9643579574773744e+00  5.8848908415026457e+00  5.8053206528555741e+00  5.7258530267285970e+00  5.6463412912876372e+00  5.5668855686440715e+00  5.4874185252905541e+00  5.4079856936705646e+00  5.3285560266623682e+00  5.2491493286345481e+00  5.1697513802035493e+00  5.0903702959953741e+00  5.0109994915143465e+00  4.9316419238587494e+00  4.8522943617237004e+00  4.7729575510688766e+00  4.6936296888238447e+00  4.6143105968840699e+00  4.5349990654156107e+00  4.4556945381989923e+00  4.3763960471014265e+00  4.2971028837911307e+00  4.2178141772273898e+00  4.1385291587189137e+00  4.0592469958313728e+00  3.9799668961737154e+00  3.9006880425257768e+00  3.8214096332268395e+00  3.7421308569526350e+00  3.6628509083480947e+00  3.5835689782443865e+00  3.5042842596742347e+00  3.4249959440745679e+00  3.3457032235803839e+00  3.2664052895396032e+00  3.1871013333712002e+00  3.1077905459709894e+00  3.0284721180172074e+00  2.9491452397185829e+00  2.8698091009077173e+00  2.7904628909205482e+00  2.7111057986080715e+00  2.6317370122662185e+00  2.5523557196161870e+00  2.4729611077534432e+00  2.3935523631158935e+00  2.3141286714399305e+00  2.2346892177236293e+00  2.1552331861850322e+00  2.0757597602224789e+00  1.9962681223724230e+00  1.9167574542664707e+00  1.8372269365850800e+00  1.7576757490069805e+00  1.6781030701504749e+00  1.5985080775015106e+00  1.5188899473190198e+00  1.4392478545021536e+00  1.3595809723927557e+00  1.2798884724679960e+00  1.2001695238469960e+00  1.1204232924778725e+00  1.0406489397688554e+00  9.6084562022313225e-01  8.8101247720442488e-01  8.0114863496133581e-01  7.2125318254949544e-01  6.4132513875396380e-01  5.6136336939567366e-01  4.8136637956608536e-01  4.0133177045650520e-01  3.2125478215976799e-01  2.4112444630262242e-01  1.6091347839189751e-01  8.0560238235514239e-02  1.9740220147710345e-05  6.3636992075988426e+00  6.2838715984521976e+00  6.2031572576392398e+00  6.1235411918310305e+00  6.0437973990929619e+00  5.9643349345173968e+00  5.8847769123058749e+00  5.8053003534762677e+00  5.7257832612241737e+00  5.6463146589749229e+00  5.5668344051332594e+00  5.4873883924177500e+00  5.4079447575368924e+00  5.3285255353541618e+00  5.2491149354783353e+00  5.1697225045604256e+00  5.0903407437839361e+00  5.0109732746335842e+00  4.9316164543534597e+00  4.8522712984527727e+00  4.7729358376226294e+00  4.6936099964467797e+00  4.6142925012145799e+00  4.5349828337073168e+00  4.4556800017586813e+00  4.3763833109201249e+00  4.2970918811455396e+00  4.2178049487858784e+00  4.1385216780195337e+00  4.0592412782914122e+00  3.9799629311159515e+00  3.9006858355315024e+00  3.8214091797811363e+00  3.7421321588342717e+00  3.6628539634467794e+00  3.5835737868839903e+00  3.5042908206890893e+00  3.4250042572431747e+00  3.3457132881166256e+00  3.2664171050277382e+00  3.1871148991866232e+00  3.1078058616389290e+00  3.0284891829905658e+00  2.9491640535154819e+00  2.8698296630263052e+00  2.7904852008916223e+00  2.7111298559625023e+00  2.6317628165549767e+00  2.5523832703978240e+00  2.4729904046015854e+00  2.3935834056141738e+00  2.3141614591844490e+00  2.2347237503202777e+00  2.1552694632490752e+00  2.0757977813753490e+00  1.9963078872376738e+00  1.9167989624619222e+00  1.8372701877098796e+00  1.7577207426190182e+00  1.6781498057278861e+00  1.5985565543767291e+00  1.5189401645662566e+00  1.4392998107458956e+00  1.3596346654826639e+00  1.2799438989295404e+00  1.2002266779574906e+00  1.1204821647245236e+00  1.0407095143045402e+00  9.6090787074684059e-01  8.8107636050779892e-01  8.0121408144196593e-01  7.2132008412777349e-01  6.4139333941430465e-01  5.6143267945439401e-01  4.8143668254797839e-01  4.0140342496837111e-01  3.2132987093241638e-01  2.4121005253653602e-01  1.6102835402565496e-01  8.0709048216332221e-02  7.4151913768510206e-06  6.3640875893232494e+00  6.2836625150724599e+00  6.2026852675963671e+00  6.1232254470995269e+00  6.0436301801999219e+00  5.9641883762795231e+00  5.8847018119672923e+00  5.8051948550718953e+00  5.7257165866830988e+00  5.6462251855599197e+00  5.5667659987531497e+00  5.4873091267354512e+00  5.4078763506033791e+00  5.3284533172432313e+00  5.2490485237365823e+00  5.1696556388672441e+00  5.0902774435072846e+00  5.0109109791506263e+00  4.9315567898414256e+00  4.8522132425563456e+00  4.7728800359583756e+00  4.6935560466523842e+00  4.6142406568221936e+00  4.5349329379032675e+00  4.4556321535843422e+00  4.3763374498203271e+00  4.2970480458527334e+00  4.2177631162450471e+00  4.1384818635705720e+00  4.0592034734350042e+00  3.9799271421661153e+00  3.9006520596315872e+00  3.8213774197836630e+00  3.7421024140758599e+00  3.6628262354663197e+00  3.5835480758799365e+00  3.5042671277137840e+00  3.4249825828441081e+00  3.3456936331774161e+00  3.2663994702475354e+00  3.1870992854021880e+00  3.1077922696251901e+00  3.0284776135839562e+00  2.9491545075375307e+00  2.8698221413306935e+00  2.7904797043350498e+00  2.7111263854225616e+00  2.6317613729188971e+00  2.5523838545692810e+00  2.4729930174962820e+00  2.3935880481621519e+00  2.3141681323282017e+00  2.2347324550150351e+00  2.1552802004612972e+00  2.0758105520813497e+00  1.9963226924205686e+00  1.9168158031069613e+00  1.8372890647959847e+00  1.7577416571046693e+00  1.6781727585267796e+00  1.5985815463162389e+00  1.5189671963166960e+00  1.4393288827001267e+00  1.3596657775522147e+00  1.2799770502006822e+00  1.2002618661148707e+00  1.1205193850950226e+00  1.0407487582961295e+00  9.6094912336979355e-01  8.8111959664042772e-01  8.0125926080514953e-01  7.2136714642478661e-01  6.4144220630357029e-01  5.6148328663397484e-01  4.8148911314897491e-01  4.0145835319264256e-01  3.2138994605217913e-01  2.4128375757585324e-01  1.6114271356152363e-01  8.0978606654546537e-02  6.8273864220827105e-05  6.3635420993525997e+00  6.2839126351960912e+00  6.2020088600964947e+00  6.1232954771264572e+00  6.0433576720379669e+00  5.9641965838659585e+00  5.8845552615674181e+00  5.8051510607416130e+00  5.7256157022912566e+00  5.6461608492538025e+00  5.5666833118757566e+00  5.4872399565115160e+00  5.4078022690288705e+00  5.3283850379342192e+00  5.2489798241948211e+00  5.1695901725036322e+00  5.0902130672283903e+00  5.0108489684234385e+00  4.9314963893688875e+00  4.8521549085493163e+00  4.7728234969856072e+00  4.6935014696258417e+00  4.6141879430991670e+00  4.5348821500345142e+00  4.4555832558686959e+00  4.3762904665419482e+00  4.2970029645922674e+00  4.2177199470965316e+00  4.1384406028301504e+00  4.0591641259023374e+00  3.9798897074362065e+00  3.9006165405297062e+00  3.8213438171718899e+00  3.7420707300526699e+00  3.6627964713941648e+00  3.5835202336012566e+00  3.5042412088006412e+00  3.4249585890609104e+00  3.3456715661950791e+00  3.2663793318196146e+00  3.1870810772558849e+00  3.1077759935283726e+00  3.0284632713034254e+00  2.9491421008646359e+00  2.8698116720651896e+00  2.7904711742947486e+00  2.7111197964372100e+00  2.6317567268335869e+00  2.5523811532420653e+00  2.4729922627994285e+00  2.3935892419810645e+00  2.3141712765617175e+00  2.2347375515749421e+00  2.1552872512721826e+00  2.0758195590801241e+00  1.9963336575560877e+00  1.9168287283391026e+00  1.8373039520945880e+00  1.7577585084476075e+00  1.6781915758968635e+00  1.5986023316962890e+00  1.5189899516812633e+00  1.4393536100021564e+00  1.3596924787010412e+00  1.2800057270267480e+00  1.2002925203132331e+00  1.1205520181373456e+00  1.0407833712982517e+00  9.6098571690618073e-01  8.8115817052417911e-01  8.0129981394226857e-01  7.2140967718251336e-01  6.4148671465682128e-01  5.6152978130252262e-01  4.8153764205716970e-01  4.0150902377689968e-01  3.2144338927726945e-01  2.4134104569832721e-01  1.6120661493198346e-01  8.1081951138055663e-02  1.3522468777298761e-03  6.3249319300414593e+00  6.2435937071495982e+00  6.1635930232028944e+00  6.0839141542307695e+00  6.0043451644327206e+00  5.9247965154153706e+00  5.8452422616827722e+00  5.7657148103572142e+00  5.6861990387126067e+00  5.6067096041581612e+00  5.5272358591700952e+00  5.4477829532076134e+00  5.3683452748615776e+00  5.2889244887016398e+00  5.2095177829879402e+00  5.1301253991387927e+00  5.0507457434167309e+00  4.9713784452343859e+00  4.8920223943067684e+00  4.8126769599870007e+00  4.7333412179243277e+00  4.6540144301715509e+00  4.5746957435762212e+00  4.4953843772451449e+00  4.4160795055544906e+00  4.3367803309219681e+00  4.2574860385587545e+00  4.1781958245927626e+00  4.0989088785893513e+00  4.0196243943741585e+00  3.9403415632765104e+00  3.8610595782710018e+00  3.7817776313546543e+00  3.7024949151144555e+00  3.6232106216959794e+00  3.5439239433811882e+00  3.4646340721688098e+00  3.3853401999720822e+00  3.3060415184341396e+00  3.2267372189799284e+00  3.1474264927216513e+00  3.0681085304547748e+00  2.9887825225980169e+00  2.9094476591678800e+00  2.8301031297316945e+00  2.7507481233740330e+00  2.6713818286547051e+00  2.5920034335718936e+00  2.5126121255221756e+00  2.4332070912625885e+00  2.3537875168713995e+00  2.2743525877101769e+00  2.1949014883857023e+00  2.1154334027133008e+00  2.0359475136815246e+00  1.9564430034200166e+00  1.8769190531724114e+00  1.7973748432781347e+00  1.7178095531694175e+00  1.6382223613941129e+00  1.5586124456827835e+00  1.4789789830904296e+00  1.3993211502649481e+00  1.3196381239293618e+00  1.2399290817239301e+00  1.1601932036550180e+00  1.0804296745663682e+00  1.0006376883430432e+00  9.2081645508195664e-01  8.4096521344209929e-01  7.6108325232967378e-01  6.8116995021011351e-01  6.0122484952425803e-01  5.2124780644715385e-01  4.4123930404910200e-01  3.6120115723151852e-01  2.8113820312591975e-01  2.0106108437052700e-01  1.2100023483386114e-01  4.1102317810546581e-02  6.3235673797536140e+00  6.2438394588319150e+00  6.1636897012311316e+00  6.0838793263350688e+00  6.0043179670585269e+00  5.9247139661791186e+00  5.8451807918371692e+00  5.7656396424531833e+00  5.6861344315765345e+00  5.6066396803033616e+00  5.5271707694799472e+00  5.4477151810477089e+00  5.3682797073907622e+00  5.2888576315583720e+00  5.2094519221876654e+00  5.1300589832068333e+00  5.0506797818298059e+00  4.9713122777058647e+00  4.8919564467028600e+00  4.8126109599132096e+00  4.7332753394668