<?xml version="1.0"?>
<VTKFile type="UnstructuredGrid"  version="0.1"  >
<UnstructuredGrid>
<Piece  NumberOfPoints="1369" NumberOfCells="2560">
<Points>
<DataArray  type="Float64"  NumberOfComponents="3"  format="ascii">0 0 0  0.75 0 0  1.5 0 0  2.25 0 0  3 0 0  3.75 0 0  4.5 0 0  5.25 0 0  6 0 0  6.75 0 0  7.5 0 0  8.25 0 0  9 0 0  9.75 0 0  10.5 0 0  11.25 0 0  12 0 0  12.75 0 0  13.5 0 0  14.25 0 0  15 0 0  15.75 0 0  16.5 0 0  17.25 0 0  18 0 0  18.75 0 0  19.5 0 0  20.25 0 0  21 0 0  21.75 0 0  22.5 0 0  23.25 0 0  24 0 0  24.75 0 0  25.5 0 0  26.25 0 0  27 0 0  27.75 0 0  28.5 0 0  29.25 0 0  30 0 0  30.75 0 0  31.5 0 0  32.25 0 0  33 0 0  33.75 0 0  34.5 0 0  35.25 0 0  36 0 0  36.75 0 0  37.5 0 0  38.25 0 0  39 0 0  39.75 0 0  40.5 0 0  41.25 0 0  42 0 0  42.75 0 0  43.5 0 0  44.25 0 0  45 0 0  45.75 0 0  46.5 0 0  47.25 0 0  48 0 0  48.75 0 0  49.5 0 0  50.25 0 0  51 0 0  51.75 0 0  52.5 0 0  53.25 0 0  54 0 0  54.75 0 0  55.5 0 0  56.25 0 0  57 0 0  57.75 0 0  58.5 0 0  59.25 0 0  60 0 0  0 0.5 0  0.75 0.4999695195616106 0  1.5 0.4999392453112932 0  2.25 0.4999093811116946 0  3 0.4998800793787567 0  3.75 0.4998514420352716 0  4.5 0.4998235320357758 0  5.25 0.4997963863594744 0  6 0.4997700261100185 0  6.75 0.4997444631449685 0  7.5 0.4997197040726989 0  8.25 0.49969575256079 0  9 0.499672610640477 0  9.75 0.4996502794356286 0  10.5 0.4996287595678243 0  11.25 0.4996080513808085 0  12 0.4995881550646918 0  12.75 0.4995690707246319 0  13.5 0.4995507984188087 0  14.25 0.4995333381794201 0  15 0.4995166900242914 0  15.75 0.4995008539632952 0  16.5 0.4994858300019038 0  17.25 0.4994716181431527 0  18 0.4994582183887292 0  18.75 0.4994456307395732 0  19.5 0.4994338551962103 0  20.25 0.4994228917589362 0  21 0.4994127404279203 0  21.75 0.4994034012032592 0  22.5 0.4993948740850108 0  23.25 0.4993871590732104 0  24 0.4993802561678808 0  24.75 0.4993741653690368 0  25.5 0.499368886676689 0  26.25 0.4993644200908453 0  27 0.4993607656115117 0  27.75 0.4993579232386925 0  28.5 0.4993558929723906 0  29.25 0.4993546748126085 0  30 0.4993542687593481 0  30.75 0.4993546748126085 0  31.5 0.4993558929723906 0  32.25 0.4993579232386925 0  33 0.4993607656115117 0  33.75 0.4993644200908454 0  34.5 0.499368886676689 0  35.25 0.4993741653690368 0  36 0.4993802561678808 0  36.75 0.4993871590732104 0  37.5 0.4993948740850108 0  38.25 0.4994034012032592 0  39 0.4994127404279203 0  39.75 0.4994228917589362 0  40.5 0.4994338551962103 0  41.25 0.4994456307395732 0  42 0.4994582183887292 0  42.75 0.4994716181431527 0  43.5 0.4994858300019038 0  44.25 0.4995008539632952 0  45 0.4995166900242914 0  45.75 0.4995333381794201 0  46.5 0.4995507984188087 0  47.25 0.4995690707246319 0  48 0.4995881550646918 0  48.75 0.4996080513808085 0  49.5 0.4996287595678243 0  50.25 0.4996502794356286 0  51 0.499672610640477 0  51.75 0.49969575256079 0  52.5 0.4997197040726989 0  53.25 0.4997444631449685 0  54 0.4997700261100185 0  54.75 0.4997963863594744 0  55.5 0.4998235320357758 0  56.25 0.4998514420352716 0  57 0.4998800793787567 0  57.75 0.4999093811116946 0  58.5 0.4999392453112932 0  59.25 0.4999695195616106 0  60 0.5 0  0 1 0  0.75 0.999938930649129 0  1.5 0.9998782900802933 0  2.25 0.9998184942378125 0  3 0.9997598466689407 0  3.75 0.9997025452884112 0  4.5 0.9996467098974383 0  5.25 0.9995924099429624 0  6 0.9995396847572614 0  6.75 0.9994885563489819 0  7.5 0.9994390369568981 0  8.25 0.9993911333655103 0  9 0.9993448493300152 0  9.75 0.9993001869274728 0  10.5 0.999257147306451 0  11.25 0.9992157311020782 0  12 0.9991759386655981 0  12.75 0.9991377701912973 0  13.5 0.9991012257866657 0  14.25 0.9990663055111915 0  15 0.9990330093978075 0  15.75 0.9990013374647548 0  16.5 0.9989712897221456 0  17.25 0.9989428661755876 0  18 0.9989160668282006 0  18.75 0.9988908916817203 0  19.5 0.9988673407371194 0  20.25 0.9988454139949458 0  21 0.998825111455511 0  21.75 0.9988064331189954 0  22.5 0.9987893789855062 0  23.25 0.9987739490551094 0  24 0.9987601433278473 0  24.75 0.9987479618037476 0  25.5 0.9987374044828308 0  26.25 0.9987284713651109 0  27 0.9987211624505994 0  27.75 0.9987154777393045 0  28.5 0.9987114172312327 0  29.25 0.9987089809263874 0  30 0.9987081688247726 0  30.75 0.9987089809263874 0  31.5 0.9987114172312327 0  32.25 0.9987154777393045 0  33 0.9987211624505994 0  33.75 0.9987284713651109 0  34.5 0.9987374044828308 0  35.25 0.9987479618037476 0  36 0.9987601433278473 0  36.75 0.9987739490551094 0  37.5 0.9987893789855062 0  38.25 0.9988064331189954 0  39 0.998825111455511 0  39.75 0.9988454139949458 0  40.5 0.9988673407371194 0  41.25 0.9988908916817203 0  42 0.9989160668282006 0  42.75 0.9989428661755876 0  43.5 0.9989712897221456 0  44.25 0.9990013374647548 0  45 0.9990330093978075 0  45.75 0.9990663055111915 0  46.5 0.9991012257866657 0  47.25 0.9991377701912975 0  48 0.9991759386655981 0  48.75 0.9992157311020782 0  49.5 0.999257147306451 0  50.25 0.9993001869274728 0  51 0.9993448493300152 0  51.75 0.9993911333655103 0  52.5 0.9994390369568981 0  53.25 0.9994885563489819 0  54 0.9995396847572614 0  54.75 0.9995924099429624 0  55.5 0.9996467098974383 0  56.25 0.9997025452884112 0  57 0.9997598466689407 0  57.75 0.9998184942378125 0  58.5 0.9998782900802933 0  59.25 0.999938930649129 0  60 1 0  0 1.5 0  0.75 1.499908116461064 0  1.5 1.499816921796352 0  2.25 1.49972706053638 0  3 1.499638981983219 0  3.75 1.499552966040799 0  4.5 1.499469176483866 0  5.25 1.499387706294328 0  6 1.499308607529138 0  6.75 1.499231909137142 0  7.5 1.499157627163604 0  8.25 1.499085770487696 0  9 1.499016344019517 0  9.75 1.49894935047362 0  10.5 1.498884791350723 0  11.25 1.498822667480575 0  12 1.498762979322026 0  12.75 1.498705727128876 0  13.5 1.498650911041542 0  14.25 1.498598531137734 0  15 1.498548587460474 0  15.75 1.498501080033594 0  16.5 1.498456008870304 0  17.25 1.498413373977934 0  18 1.498373175360557 0  18.75 1.498335413020447 0  19.5 1.498300086958873 0  20.25 1.498267197176554 0  21 1.498236743673898 0  21.75 1.498208726451142 0  22.5 1.498183145508427 0  23.25 1.49816000084584 0  24 1.498139292463438 0  24.75 1.498121020361258 0  25.5 1.498105184539327 0  26.25 1.498091784997664 0  27 1.498080821736286 0  27.75 1.498072294755203 0  28.5 1.498066204054423 0  29.25 1.498062549633953 0  30 1.498061331493796 0  30.75 1.498062549633953 0  31.5 1.498066204054423 0  32.25 1.498072294755203 0  33 1.498080821736286 0  33.75 1.498091784997664 0  34.5 1.498105184539327 0  35.25 1.498121020361258 0  36 1.498139292463438 0  36.75 1.49816000084584 0  37.5 1.498183145508427 0  38.25 1.498208726451142 0  39 1.498236743673898 0  39.75 1.498267197176554 0  40.5 1.498300086958873 0  41.25 1.498335413020447 0  42 1.498373175360557 0  42.75 1.498413373977934 0  43.5 1.498456008870304 0  44.25 1.498501080033594 0  45 1.498548587460474 0  45.75 1.498598531137734 0  46.5 1.498650911041542 0  47.25 1.498705727128876 0  48 1.498762979322026 0  48.75 1.498822667480575 0  49.5 1.498884791350723 0  50.25 1.49894935047362 0  51 1.499016344019517 0  51.75 1.499085770487696 0  52.5 1.499157627163604 0  53.25 1.499231909137142 0  54 1.499308607529138 0  54.75 1.499387706294328 0  55.5 1.499469176483866 0  56.25 1.499552966040799 0  57 1.499638981983219 0  57.75 1.49972706053638 0  58.5 1.499816921796352 0  59.25 1.499908116461064 0  60 1.5 0  0 2 0  0.75 1.999876940917075 0  1.5 1.999754901644672 0  2.25 1.999634778705635 0  3 1.999517150070866 0  3.75 1.999402351139961 0  4.5 1.999290569190285 0  5.25 1.999181907824395 0  6 1.99907642424917 0  6.75 1.998974150044685 0  7.5 1.998875102646851 0  8.25 1.998779291684691 0  9 1.998686722477246 0  9.75 1.998597397963495 0  10.5 1.998511319767761 0  11.25 1.998428488788004 0  12 1.998348905520756 0  12.75 1.998272570240655 0  13.5 1.998199483099648 0  14.25 1.998129644181824 0  15 1.998063053533744 0  15.75 1.997999711181196 0  16.5 1.99793961713848 0  17.25 1.997882771413529 0  18 1.997829174010758 0  18.75 1.997778824932626 0  19.5 1.997731724180513 0  20.25 1.997687871755196 0  21 1.99764726765712 0  21.75 1.997609911886545 0  22.5 1.997575804443624 0  23.25 1.997544945328454 0  24 1.997517334541097 0  24.75 1.997492972081595 0  25.5 1.997471857949979 0  26.25 1.997453992146272 0  27 1.99743937467049 0  27.75 1.997428005522647 0  28.5 1.997419884702753 0  29.25 1.997415012210814 0  30 1.997413388046833 0  30.75 1.997415012210814 0  31.5 1.997419884702753 0  32.25 1.997428005522647 0  33 1.99743937467049 0  33.75 1.997453992146272 0  34.5 1.997471857949979 0  35.25 1.997492972081595 0  36 1.997517334541097 0  36.75 1.997544945328454 0  37.5 1.997575804443624 0  38.25 1.997609911886545 0  39 1.99764726765712 0  39.75 1.997687871755196 0  40.5 1.997731724180513 0  41.25 1.997778824932626 0  42 1.997829174010758 0  42.75 1.997882771413529 0  43.5 1.99793961713848 0  44.25 1.997999711181197 0  45 1.998063053533744 0  45.75 1.998129644181824 0  46.5 1.998199483099648 0  47.25 1.998272570240655 0  48 1.998348905520756 0  48.75 1.998428488788004 0  49.5 1.998511319767761 0  50.25 1.998597397963495 0  51 1.998686722477246 0  51.75 1.998779291684691 0  52.5 1.998875102646851 0  53.25 1.998974150044685 0  54 1.99907642424917 0  54.75 1.999181907824395 0  55.5 1.999290569190285 0  56.25 1.999402351139961 0  57 1.999517150070866 0  57.75 1.999634778705635 0  58.5 1.999754901644672 0  59.25 1.999876940917075 0  60 2 0  0 2.5 0  0.75 2.499845230602933 0  1.5 2.499691944872155 0  2.25 2.499541312394239 0  3 2.49939399359463 0  3.75 2.499250334480322 0  4.5 2.49911051803282 0  5.25 2.498974642794406 0  6 2.498842762418531 0  6.75 2.498714906306609 0  7.5 2.498591090628929 0  8.25 2.498471324297388 0  9 2.498355612229631 0  9.75 2.498243957141336 0  10.5 2.49813636053298 0  11.25 2.49803282323394 0  12 2.497933345702801 0  12.75 2.497837928193204 0  13.5 2.497746570845477 0  14.25 2.497659273737287 0  15 2.497576036911638 0  15.75 2.497496860392352 0  16.5 2.49742174419264 0  17.25 2.497350688319834 0  18 2.497283692778014 0  1
[...]
<PointData  Scalars="f_10-1"> 
<DataArray  type="Float64"  Name="f_10-1"  format="ascii">-6.3622072191221415e+00  -6.2846617182062277e+00  -6.2027682988307395e+00  -6.1236812601878139e+00  -6.0437927711932193e+00  -5.9641908128527250e+00  -5.8843597046377569e+00  -5.8045651962394595e+00  -5.7246890727619002e+00  -5.6448288104964091e+00  -5.5649562730102309e+00  -5.4851107019070842e+00  -5.4052829694749347e+00  -5.3254841879576249e+00  -5.2457101364722938e+00  -5.1659613216935822e+00  -5.0862356943347855e+00  -5.0065310993620065e+00  -4.9268465792635601e+00  -4.8471799401807285e+00  -4.7675307266245568e+00  -4.6878972683379532e+00  -4.6082792950168630e+00  -4.5286756139107220e+00  -4.4490859859113154e+00  -4.3695095417473278e+00  -4.2899460122601045e+00  -4.2103947237495190e+00  -4.1308553627551765e+00  -4.0513273674347081e+00  -3.9718103853564544e+00  -3.8923039168958686e+00  -3.8128075813193063e+00  -3.7333209132194476e+00  -3.6538435134818728e+00  -3.5743749355268699e+00  -3.4949147692394855e+00  -3.4154625785239254e+00  -3.3360179471643594e+00  -3.2565804450713016e+00  -3.1771496529734042e+00  -3.0977251444209162e+00  -3.0183064989146828e+00  -2.9388932924308642e+00  -2.8594851043303060e+00  -2.7800815124299554e+00  -2.7006820966108798e+00  -2.6212864362870523e+00  -2.5418941122809420e+00  -2.4625047055430129e+00  -2.3831177981270915e+00  -2.3037329725557885e+00  -2.2243498123317300e+00  -2.1449679016327829e+00  -2.0655868255846910e+00  -1.9862061701217828e+00  -1.9068255221354473e+00  -1.8274444694146852e+00  -1.7480626007273956e+00  -1.6686795057961279e+00  -1.5892947753419460e+00  -1.5099080010779744e+00  -1.4305187757449609e+00  -1.3511266931446559e+00  -1.2717313482437660e+00  -1.1923323373772867e+00  -1.1129292586787851e+00  -1.0335217129171699e+00  -9.5410930510219982e-01  -8.7469164749967110e-01  -7.9526836531532696e-01  -7.1583910762015523e-01  -6.3640356878211446e-01  -5.5696153729861053e-01  -4.7751298498088163e-01  -3.9805839247138763e-01  -3.1859932141586317e-01  -2.3913924436568190e-01  -1.5970336095210780e-01  -8.0200201674021240e-02  -3.0036828150167547e-03  -6.3643213822738325e+00  -6.2839550106548057e+00  -6.2032548478488261e+00  -6.1236319233917094e+00  -6.0439247497828452e+00  -5.9642072431973343e+00  -5.8844393554023293e+00  -5.8046049140771796e+00  -5.7247592068807522e+00  -5.6448789802846573e+00  -5.5650199777516587e+00  -5.4851639134794787e+00  -5.4053414855364705e+00  -5.3255378068642818e+00  -5.2457657377578402e+00  -5.1660149342603940e+00  -5.0862900764453904e+00  -5.0065848246229283e+00  -4.9269006365623023e+00  -4.8472339052716720e+00  -4.7675848672558185e+00  -4.6879515409066519e+00  -4.6083336955932328e+00  -4.5287302252442565e+00  -4.4491407213333378e+00  -4.3695645072156033e+00  -4.2900011134545739e+00  -4.2104500522702164e+00  -4.1309108418057878e+00  -4.0513830650702358e+00  -3.9718662465981107e+00  -3.8923599881810333e+00  -3.8128638262323893e+00  -3.7333773617269945e+00  -3.6539001427628350e+00  -3.5744317641817527e+00  -3.4949717835916911e+00  -3.4155197898184206e+00  -3.3360753475371863e+00  -3.2566380412237135e+00  -3.1772074405877615e+00  -3.0977831274919074e+00  -3.0183646752222750e+00  -2.9389516644056810e+00  -2.8595436709642872e+00  -2.7801402752741584e+00  -2.7007410553459370e+00  -2.6213455919826556e+00  -2.5419534650055224e+00  -2.4625642561110022e+00  -2.3831775468255016e+00  -2.3037929200695424e+00  -2.2244099590729265e+00  -2.1450282482254175e+00  -2.0656473725148015e+00  -1.9862669179887289e+00  -1.9068864714706637e+00  -1.8275056208101226e+00  -1.7481239547412353e+00  -1.6687410630159292e+00  -1.5893565363326743e+00  -1.5099699664072961e+00  -1.4305809459460319e+00  -1.3511890687110188e+00  -1.2717939295818688e+00  -1.1923951247578530e+00  -1.1129922521397175e+00  -1.0335849121223306e+00  -9.5417270910496155e-01  -8.7475525436370338e-01  -7.9533217146173063e-01  -7.1590310660715517e-01  -6.3646774920907612e-01  -5.5702587504421108e-01  -4.7757744207270603e-01  -3.9812283160462592e-01  -3.1866341808262505e-01  -2.3920336755317007e-01  -1.5974983966485276e-01  -8.0409569148177332e-02  4.4750123399957533e-05  -6.3637118228846754e+00  -6.2841282665414235e+00  -6.2035491986183464e+00  -6.1238409076192761e+00  -6.0439824351830698e+00  -5.9642902659119583e+00  -5.8844467728302012e+00  -5.8046659767560129e+00  -5.7247736847869826e+00  -5.6449352386790022e+00  -5.5650455050909819e+00  -5.4852131212878090e+00  -5.4053715308251808e+00  -5.3255797695174429e+00  -5.2457969754342431e+00  -5.1660522019797428e+00  -5.0863219002126536e+00  -5.0066198437936631e+00  -4.9269331408230954e+00  -4.8472681792848293e+00  -4.7676181463320830e+00  -4.6879858523478566e+00  -4.6083677713677167e+00  -4.5287649586153202e+00  -4.4491755849521528e+00  -4.3695998486149774e+00  -4.2900367523956806e+00  -4.2104860907229176e+00  -4.1309472477472360e+00  -4.0514198418233596e+00  -3.9719034154070041e+00  -3.8923975210850608e+00  -3.8129017563135901e+00  -3.7334156575251365e+00  -3.6539388337106331e+00  -3.5744708246517374e+00  -3.4950112353968970e+00  -3.4155596147180924e+00  -3.3361155601939334e+00  -3.2566786296064869e+00  -3.1772484139320376e+00  -3.0978244782340769e+00  -3.0184064088896392e+00  -2.9389937763814493e+00  -2.8595861644009490e+00  -2.7801831473896423e+00  -2.7007843078379636e+00  -2.6213892231634208e+00  -2.5419974757096830e+00  -2.4626086452812368e+00  -2.3832223147966660e+00  -2.3038380661374114e+00  -2.2244554832892951e+00  -2.1450741500811978e+00  -2.0656936519080475e+00  -1.9863135745231306e+00  -1.9069335049735439e+00  -1.8275530309668662e+00  -1.7481717413741975e+00  -1.6687892259020070e+00  -1.5894050753587954e+00  -1.5100188814872990e+00  -1.4306302371102066e+00  -1.3512387360650953e+00  -1.2718439733337195e+00  -1.1924455451317579e+00  -1.1130430492287253e+00  -1.0336360854853854e+00  -9.5422425691814605e-01  -8.7480717154052201e-01  -7.9538444546003062e-01  -7.1595570756089200e-01  -6.3652060535646171e-01  -5.5707880804766718e-01  -4.7762999062371692e-01  -3.9817374330734728e-01  -3.1870920269752379e-01  -2.3923363128429331e-01  -1.5973753334292659e-01  -8.0124957696621993e-02  -9.2924679182280021e-06  -6.3642982124505956e+00  -6.2836456184542193e+00  -6.2040082236908445e+00  -6.1236562275476674e+00  -6.0441770689447640e+00  -5.9641311346588104e+00  -5.8845145732558199e+00  -5.8045467101706558e+00  -5.7247916344368113e+00  -5.6448535917431570e+00  -5.5650410522214520e+00  -5.4851537264445209e+00  -5.4053518883270408e+00  -5.3255295814465757e+00  -5.2457663968101889e+00  -5.1660051580928599e+00  -5.0862845886397796e+00  -5.0065740863159984e+00  -4.9268923958806914e+00  -4.8472233948605146e+00  -4.7675760884144465e+00  -4.6879420957088715e+00  -4.6083256105791559e+00  -4.5287223047607172e+00  -4.4491339653116775e+00  -4.3695583360932035e+00  -4.2899960014238223e+00  -4.2104457324867210e+00  -4.1309075256164265e+00  -4.0513806396046173e+00  -3.9718647968038456e+00  -3.8923594731159530e+00  -3.8128642736056224e+00  -3.7333787615086873e+00  -3.6539024990978941e+00  -3.5744350785099703e+00  -3.4949760519202218e+00  -3.4155250165460829e+00  -3.3360815269710131e+00  -3.2566451774585139e+00  -3.1772155285082806e+00  -3.0977921699574993e+00  -3.0183746682161532e+00  -2.9389626095364028e+00  -2.8595555651979661e+00  -2.7801531192324367e+00  -2.7007548467043030e+00  -2.6213603306636979e+00  -2.5419691491393297e+00  -2.4625808851523914e+00  -2.3831951191713467e+00  -2.3038114348724572e+00  -2.2244294148770911e+00  -2.1450486439981749e+00  -2.0656687068875010e+00  -1.9862891898372319e+00  -1.9069096795094724e+00  -1.8275297639251036e+00  -1.7481490317922723e+00  -1.6687670730452626e+00  -1.5893834784973560e+00  -1.5099978401346568e+00  -1.4306097509453255e+00  -1.3512188050915666e+00  -1.2718245978557707e+00  -1.1924267257965708e+00  -1.1130247868448486e+00  -1.0336183805924528e+00  -9.5420710863811520e-01  -8.7479057498753743e-01  -7.9536838579266345e-01  -7.1594014607896905e-01  -6.3650544538544829e-01  -5.5706380697685054e-01  -4.7761452304052338e-01  -3.9815614099216690e-01  -3.1868490432851493e-01  -2.3919009014901241e-01  -1.5963954733633065e-01  -7.9943844534633657e-02  -1.1241260077400176e-05  -6.3634975937782432e+00  -6.2842704528813007e+00  -6.2034990634300540e+00  -6.1241596234051014e+00  -6.0438429460093337e+00  -5.9643976810949031e+00  -5.8843138261334662e+00  -5.8046644460257557e+00  -5.7246682087455598e+00  -5.6448940308898052e+00  -5.5649599938704384e+00  -5.4851559198993165e+00  -5.4052923689673147e+00  -5.3255117967770724e+00  -5.2457169204061218e+00  -5.1659765421902568e+00  -5.0862397978637484e+00  -5.0065398865780715e+00  -4.9268501976752948e+00  -4.8471867698964557e+00  -4.7675357814827901e+00  -4.6879048923170412e+00  -4.6082869795846229e+00  -4.5286855502398637e+00  -4.4490969382051651e+00  -4.3695225771925967e+00  -4.2899605454770651e+00  -4.2104112499035331e+00  -4.1308736214810970e+00  -4.0513475725281944e+00  -3.9718324324089864e+00  -3.8923278877468372e+00  -3.8128334418616188e+00  -3.7333486875621533e+00  -3.6538731962024684e+00  -3.5744065281278825e+00  -3.4949482759597075e+00  -3.4154979937591654e+00  -3.3360552768889620e+00  -3.2566196827104550e+00  -3.1771908034436409e+00  -3.0977682021479946e+00  -3.0183514671370317e+00  -2.9389401668784516e+00  -2.8595338867331184e+00  -2.7801321995761024e+00  -2.7007346890880517e+00  -2.6213409315976794e+00  -2.5419505102126227e+00  -2.4625630040248421e+00  -2.3831779964078370e+00  -2.3037950687937707e+00  -2.2244138054248137e+00  -2.1450337898579059e+00  -2.0656546076345212e+00  -1.9862758443637518e+00  -1.9068970872030930e+00  -1.8275179238326857e+00  -1.7481379432719577e+00  -1.6687567353470716e+00  -1.5893738911433972e+00  -1.5099890027412792e+00  -1.4306016634719056e+00  -1.3512114677961571e+00  -1.2718180114529842e+00  -1.1924208914050110e+00  -1.1130197059018641e+00  -1.0336140543727850e+00  -9.5420353717673934e-01  -8.7478775464998904e-01  -7.9536630422126342e-01  -7.1593877157219310e-01  -6.3650470403032877e-01  -5.5706353080999194e-01  -4.7761432500370243e-01  -3.9815509780923114e-01  -3.1868072234104622e-01  -2.3917699230774556e-01  -1.5960582419784464e-01  -7.9893197404054719e-02  -1.8173346401682529e-05  -6.3643449067608984e+00  -6.2836557171524889e+00  -6.2041045661730365e+00  -6.1236954883582913e+00  -6.0442483833507064e+00  -5.9641527947064406e+00  -5.8845381423723921e+00  -5.8045340066137801e+00  -5.7247721300728545e+00  -5.6448136031448941e+00  -5.5649964596327370e+00  -5.4850996916919463e+00  -5.4052957004625632e+00  -5.3254692452164107e+00  -5.2457050790677986e+00  -5.1659421215802066e+00  -5.0862213529113651e+00  -5.0065105105630714e+00  -4.9268292984572790e+00  -4.8471608382971283e+00  -4.7675145250664688e+00  -4.6878816135085088e+00  -4.6082664521466148e+00  -4.5286645339019751e+00  -4.4490777072909351e+00  -4.3695036290608629e+00  -4.2899429080709695e+00  -4.2103942736649485e+00  -4.1308577318481117e+00  -4.0513325216578000e+00  -3.9718183691135200e+00  -3.8923147410026444e+00  -3.8128212436875448e+00  -3.7333374363274192e+00  -3.6538628815896428e+00  -3.5743971698512844e+00  -3.4949398533477507e+00  -3.4154905285564876e+00  -3.3360487499997227e+00  -3.2566141116233975e+00  -3.1771861738243476e+00  -3.0977645262834059e+00  -3.0183487352965050e+00  -2.9389383870138328e+00  -2.8595330526014706e+00  -2.7801323160035594e+00  -2.7007357521753894e+00  -2.6213429440816984e+00  -2.5419534696478210e+00  -2.4625669118097733e+00  -2.3831828509401412e+00  -2.3038008706336295e+00  -2.2244205534274886e+00  -2.1450414840652328e+00  -2.0656632471368614e+00  -1.9862854288946497e+00  -1.9069076159845466e+00  -1.8275293964510870e+00  -1.7481503590777594e+00  -1.6687700939482253e+00  -1.5893881921218664e+00  -1.5100042459562244e+00  -1.4306178489608945e+00  -1.3512285959823913e+00  -1.2718360831255666e+00  -1.1924399078043979e+00  -1.1130396685684740e+00  -1.0336349648131460e+00  -9.5422539598576794e-01  -8.7481055986197442e-01  -7.9539004848337480e-01  -7.1596343829941522e-01  -6.3653026474628382e-01  -5.5708995351363455e-01  -4.7764162803845173e-01  -3.9818355700318109e-01  -3.1871155483296260e-01  -2.3921434070446326e-01  -1.5965947641806724e-01  -7.9958468554003362e-02  -3.2692985203323109e-05  -6.3636565904354629e+00  -6.2842587736296931e+00  -6.2036326862051228e+00  -6.1239892187703902e+00  -6.0440530598601443e+00  -5.9643653868632942e+00  -5.8844534897937582e+00  -5.8046539905278145e+00  -5.7247157338368346e+00  -5.6448619362018659e+00  -5.5649487405167468e+00  -5.4851087749779168e+00  -5.4052567922032964e+00  -5.3254618775141607e+00  -5.2456748679214611e+00  -5.1659292782892194e+00  -5.0861979621063815e+00  -5.0064966650419915e+00  -4.9268108616993249e+00  -4.8471477696510981e+00  -4.7674997923165812e+00  -4.6878700748035591e+00  -4.6082547077109011e+00  -4.5286548791860755e+00  -4.4490685738203499e+00  -4.3694960421632700e+00  -4.2899361976817882e+00  -4.2103888547238988e+00  -4.1308533551383597e+00  -4.0513293242884476e+00  -3.9718162849423546e+00  -3.8923137917897472e+00  -3.8128214333779464e+00  -3.7333387465330214e+00  -3.6538653363657949e+00  -3.5744007425241677e+00  -3.4949445684281111e+00  -3.4154963625819170e+00  -3.3360557218820044e+00  -3.2566222038253900e+00  -3.1771953990690092e+00  -3.0977748724041745e+00  -3.0183602100086384e+00  -2.9389509821113791e+00  -2.8595467722332724e+00  -2.7801471545793035e+00  -2.7007517114691790e+00  -2.6213600200986535e+00  -2.5419716626356248e+00  -2.4625862186764342e+00  -2.3832032709636017e+00  -2.3038224011873178e+00  -2.2244431931684536e+00  -2.1450652305732985e+00  -2.0656880986656962e+00  -1.9863113830934322e+00  -1.9069346708508572e+00  -1.8275575496568950e+00  -1.7481796084923626e+00  -1.6688004373026268e+00  -1.5894196273114845e+00  -1.5100367708994056e+00  -1.4306514617954080e+00  -1.3512632950296419e+00  -1.2718718670143527e+00  -1.1924767754322643e+00  -1.1130776190540643e+00  -1.0336739972021214e+00  -9.5426550870888893e-01  -8.7485174984229985e-01  -7.9543231039809636e-01  -7.1600676624111492e-01  -6.3657466470307689e-01  -5.5713549419830966e-01  -4.7768861570795840e-01  -3.9823309455147715e-01  -3.1876723262960716e-01  -2.3928708167487089e-01  -1.5978185601953476e-01  -8.0157012619299986e-02  -5.2970930420611205e-05  -6.3643607290485580e+00  -6.2840660011956944e+00  -6.2034309671322392e+00  -6.1237621108901861e+00  -6.0440370786889961e+00  -5.9642523889093271e+00  -5.8844432037403847e+00  -5.8045513137396503e+00  -5.7246709599477628e+00  -5.6447563197437605e+00  -5.5648786835789341e+00  -5.4850067223694685e+00  -5.4051766626813480e+00  -5.3253669968625692e+00  -5.2455928812441615e+00  -5.1658409902825735e+00  -5.0861170625486452e+00  -5.0064134125456166e+00  -4.9267319408210932e+00  -4.8470683886444412e+00  -4.7674231468951422e+00  -4.6877939056503184e+00  -4.6081804764141374e+00  -4.5285815888185432e+00  -4.4489968396136099e+00  -4.3694254714762817e+00  -4.2898670101648841e+00  -4.2103209288306207e+00  -4.1307867394432414e+00  -4.0512640063847112e+00  -3.9717522492365278e+00  -3.8922510611650156e+00  -3.8127599752487851e+00  -3.7332785886423219e+00  -3.6538064473820371e+00  -3.5743431446878362e+00  -3.4948882369149326e+00  -3.4154413121901355e+00  -3.3360019343888885e+00  -3.2565696876259915e+00  -3.1771441410475343e+00  -3.0977248762509206e+00  -3.0183114660787331e+00  -2.9389034909025122e+00  -2.8595005262631084e+00  -2.7801021522690679e+00  -2.7007079465840698e+00  -2.6213174897316005e+00  -2.5419303612078621e+00  -2.4625461424251434e+00  -2.3831644146041220e+00  -2.3037847603884560e+00  -2.2244067627286848e+00  -2.1450300057651330e+00  -2.0656540742556282e+00  -1.9862785540639567e+00  -1.9069030318836249e+00  -1.8275270955195315e+00  -1.7481503337742117e+00  -1.6687723366259553e+00  -1.5893926952051463e+00  -1.5100110019201900e+00  -1.4306268504736366e+00  -1.3512398359353825e+00  -1.2718495547164990e+00  -1.1924556044834889e+00  -1.1130575838561869e+00  -1.0336550917798721e+00  -9.5424772629124788e-01  -8.7483508234164120e-01  -7.9541674823895525e-01  -7.1599230053081708e-01  -6.3656129853094945e-01  -5.5712328478879347e-01  -4.7767781277016486e-01  -3.9822458317507070e-01  -3.1876385955502218e-01  -2.3929805960926587e-01  -1.5983167732459527e-01  -8.0467739292740731e-02  9.8936153542843075e-06  -6.3621857458987607e+00  -6.2848241444818829e+00  -6.2029031474012806e+00  -6.1238205805108352e+00  -6.0438598014860698e+00  -5.9642156935585460e+00  -5.8843159303782517e+00  -5.8044768468685222e+00  -5.7245537654187260e+00  -5.6446655541296140e+00  -5.5647695575864802e+00  -5.4849116740627544e+00  -5.4050751136024493e+00  -5.3252727645336870e+00  -5.2454970978561457e+00  -5.1657491128932325e+00  -5.0860255022500791e+00  -5.0063241847563980e+00  -4.9266437121273059e+00  -4.8469818125174262e+00  -4.7673378186924902e+00  -4.6877099576408794e+00  -4.6080978631542919e+00  -4.5285002614310219e+00  -4.4489168703945721e+00  -4.3693467668396240e+00  -4.2897896627334999e+00  -4.2102448510379977e+00  -4.1307120101511750e+00  -4.0511905585211485e+00  -3.9716801403801942e+00  -3.8921802448909468e+00  -3.8126904901202741e+00  -3.7332104044781915e+00  -3.6537395885119972e+00  -3.5742775922714372e+00  -3.4948240055534381e+00  -3.4153783903770685e+00  -3.3359403304295712e+00  -3.2565093944852084e+00  -3.1770851630889299e+00  -3.0976672090211177e+00  -3.0182551115125795e+00  -2.9388484459474191e+00  -2.8594467913543058e+00  -2.7800497250461422e+00  -2.7006568265347028e+00  -2.6212676747762820e+00  -2.5418818502067908e+00  -2.4624989333478871e+00  -2.3831185058656188e+00  -2.3037401498804875e+00  -2.2243634485237065e+00  -2.1449879856096850e+00  -2.0656133459374715e+00  -1.9862391151497589e+00  -1.9068648799085268e+00  -1.8274902278521914e+00  -1.7481147477129504e+00  -1.6687380293281990e+00  -1.5893596637328478e+00  -1.5099792431980330e+00  -1.4305963613016672e+00  -1.3512106129509469e+00  -1.2718215943729223e+00  -1.1924289029871946e+00  -1.1130321370879661e+00  -1.0336308951606512e+00  -9.5422477459441113e-01  -8.7481336942723686e-01  -7.9539626674158903e-01  -7.1597304166042475e-01  -6.3654325211226037e-01  -5.5710644412139398e-01  -4.7766217147738704e-01  -3.9821021470617396e-01  -3.1875099230729287e-01  -2.3928616524786722e-01  -1.5983803078457473e-01  -8.0311167521446278e-02  -3.0445223872235016e-03  -6.3252428903330173e+00  -6.2435648820607383e+00  -6.1636260000265235e+00  -6.0839172669916781e+00  -6.0042268395170515e+00  -5.9244879030602968e+00  -5.8446837747234621e+00  -5.7648482720963266e+00  -5.6849801987982920e+00  -5.6051147397550372e+00  -5.5252543197661206e+00  -5.4454179038993527e+00  -5.3656034932569741e+00  -5.2858171223302888e+00  -5.2060549880738050e+00  -5.1263178193691781e+00  -5.0466023432349552e+00  -4.9669078469587609e+00  -4.8872321000934749e+00  -4.8075742278774234e+00  -4.7279328306084194e+00  -4.6483071589864142e+00  -4.5686963245160763e+00  -4.4890997078899986e+00  -4.4095166912624526e+00  -4.3299467401900227e+00  -4.2503893635842980e+00  -4.1708440751299829e+00  -4.0913104357687642e+00  -4.0117879853420826e+00  -3.9322763024134737e+00  -3.8527749412513730e+00  -3.7732834841999878e+00  -3.6938014939009505e+00  -3.6143285519644914e+00  -3.5348642262176209e+00  -3.4554080967283611e+00  -3.3759597347501478e+00  -3.2965187192112126e+00  -3.2170846237867421e+00  -3.1376570269083310e+00  -3.0582355041045322e+00  -2.9788196338852599e+00  -2.8994089933352329e+00  -2.8200031614903507e+00  -2.7406017168671926e+00  -2.6612042393662230e+00  -2.5818103089207765e+00  -2.5024195065577302e+00  -2.4230314136784079e+00  -2.3436456126477010e+00  -2.2642616864240748e+00  -2.1848792188888861e+00  -2.1054977946649300e+00  -2.0261169993034316e+00  -1.9467364192009446e+00  -1.8673556417069215e+00  -1.7879742550883473e+00  -1.7085918485904523e+00  -1.6292080124216197e+00  -1.5498223377871867e+00  -1.4704344168889887e+00  -1.3910438429642389e+00  -1.3116502103415693e+00  -1.2322531145898259e+00  -1.1528521528184696e+00  -1.0734469242952223e+00  -9.9403703164