<?xml version="1.0"?>
<VTKFile type="UnstructuredGrid"  version="0.1"  >
<UnstructuredGrid>
<Piece  NumberOfPoints="1369" NumberOfCells="2560">
<Points>
<DataArray  type="Float64"  NumberOfComponents="3"  format="ascii">0 0 0  0.75 0 0  1.5 0 0  2.25 0 0  3 0 0  3.75 0 0  4.5 0 0  5.25 0 0  6 0 0  6.75 0 0  7.5 0 0  8.25 0 0  9 0 0  9.75 0 0  10.5 0 0  11.25 0 0  12 0 0  12.75 0 0  13.5 0 0  14.25 0 0  15 0 0  15.75 0 0  16.5 0 0  17.25 0 0  18 0 0  18.75 0 0  19.5 0 0  20.25 0 0  21 0 0  21.75 0 0  22.5 0 0  23.25 0 0  24 0 0  24.75 0 0  25.5 0 0  26.25 0 0  27 0 0  27.75 0 0  28.5 0 0  29.25 0 0  30 0 0  30.75 0 0  31.5 0 0  32.25 0 0  33 0 0  33.75 0 0  34.5 0 0  35.25 0 0  36 0 0  36.75 0 0  37.5 0 0  38.25 0 0  39 0 0  39.75 0 0  40.5 0 0  41.25 0 0  42 0 0  42.75 0 0  43.5 0 0  44.25 0 0  45 0 0  45.75 0 0  46.5 0 0  47.25 0 0  48 0 0  48.75 0 0  49.5 0 0  50.25 0 0  51 0 0  51.75 0 0  52.5 0 0  53.25 0 0  54 0 0  54.75 0 0  55.5 0 0  56.25 0 0  57 0 0  57.75 0 0  58.5 0 0  59.25 0 0  60 0 0  0 0.5 0  0.75 0.4999334918787211 0  1.5 0.4998674615391547 0  2.25 0.4998023443008391 0  3 0.4997384653086183 0  3.75 0.4996760418310164 0  4.5 0.4996152079845536 0  5.25 0.4995560425018952 0  6 0.4994985902865806 0  6.75 0.4994428765506355 0  7.5 0.4993889153334662 0  8.25 0.4993367144194062 0  9 0.4992862781150385 0  9.75 0.4992376088002721 0  10.5 0.4991907077895892 0  11.25 0.499145575808839 0  12 0.4991022132588013 0  12.75 0.4990606203607671 0  13.5 0.4990207972369275 0  14.25 0.4989827439547567 0  15 0.4989464605515165 0  15.75 0.4989119470477846 0  16.5 0.4988792034549252 0  17.25 0.4988482297792137 0  18 0.4988190260241154 0  18.75 0.4987915921915429 0  19.5 0.4987659282825513 0  20.25 0.4987420342977219 0  21 0.4987199102373754 0  21.75 0.4986995561016869 0  22.5 0.4986809718907522 0  23.25 0.4986641576046233 0  24 0.4986491132433283 0  24.75 0.4986358388068814 0  25.5 0.4986243342952898 0  26.25 0.498614599708557 0  27 0.4986066350466848 0  27.75 0.4986004403096735 0  28.5 0.4985960154975223 0  29.25 0.4985933606102317 0  30 0.4985924756478021 0  30.75 0.4985933606102317 0  31.5 0.4985960154975223 0  32.25 0.4986004403096735 0  33 0.4986066350466848 0  33.75 0.4986145997085571 0  34.5 0.4986243342952899 0  35.25 0.4986358388068814 0  36 0.4986491132433283 0  36.75 0.4986641576046233 0  37.5 0.4986809718907522 0  38.25 0.4986995561016869 0  39 0.4987199102373754 0  39.75 0.4987420342977219 0  40.5 0.4987659282825513 0  41.25 0.4987915921915429 0  42 0.4988190260241154 0  42.75 0.4988482297792137 0  43.5 0.4988792034549252 0  44.25 0.4989119470477846 0  45 0.4989464605515165 0  45.75 0.4989827439547567 0  46.5 0.4990207972369275 0  47.25 0.4990606203607671 0  48 0.4991022132588013 0  48.75 0.499145575808839 0  49.5 0.4991907077895892 0  50.25 0.4992376088002721 0  51 0.4992862781150385 0  51.75 0.4993367144194062 0  52.5 0.4993889153334662 0  53.25 0.4994428765506355 0  54 0.4994985902865806 0  54.75 0.4995560425018952 0  55.5 0.4996152079845536 0  56.25 0.4996760418310164 0  57 0.4997384653086183 0  57.75 0.4998023443008391 0  58.5 0.4998674615391547 0  59.25 0.4999334918787211 0  60 0.5 0  0 1 0  0.75 0.9998667518458872 0  1.5 0.9997344945854351 0  2.25 0.9996041161834754 0  3 0.9994762640493979 0  3.75 0.9993513600148798 0  4.5 0.9992296592823556 0  5.25 0.9991113097102627 0  6 0.9989963949910312 0  6.75 0.9988849619230684 0  7.5 0.9987770365093848 0  8.25 0.9986726331510493 0  9 0.9985717598104203 0  9.75 0.9984744208862593 0  10.5 0.9983806188076984 0  11.25 0.9982903549159764 0  12 0.9982036299516247 0  12.75 0.9981204443235218 0  13.5 0.9980407982574355 0  14.25 0.997964691878036 0  15 0.9978921252541694 0  15.75 0.9978230984238555 0  16.5 0.9977576114080927 0  17.25 0.9976956642184739 0  18 0.9976372568614033 0  18.75 0.997582389340413 0  19.5 0.9975310616574531 0  20.25 0.997483273813598 0  21 0.9974390258094387 0  21.75 0.9973983176452992 0  22.5 0.9973611493213563 0  23.25 0.9973275208377061 0  24 0.9972974321944004 0  24.75 0.9972708833914649 0  25.5 0.9972478744289136 0  26.25 0.9972284053067522 0  27 0.9972124760249836 0  27.75 0.9972000865836086 0  28.5 0.9971912369826269 0  29.25 0.9971859272220376 0  30 0.9971841573018418 0  30.75 0.9971859272220376 0  31.5 0.9971912369826269 0  32.25 0.9972000865836086 0  33 0.9972124760249836 0  33.75 0.9972284053067522 0  34.5 0.9972478744289136 0  35.25 0.9972708833914649 0  36 0.9972974321944004 0  36.75 0.9973275208377061 0  37.5 0.9973611493213563 0  38.25 0.9973983176452992 0  39 0.9974390258094387 0  39.75 0.997483273813598 0  40.5 0.9975310616574531 0  41.25 0.997582389340413 0  42 0.9976372568614033 0  42.75 0.9976956642184739 0  43.5 0.9977576114080927 0  44.25 0.9978230984238555 0  45 0.9978921252541694 0  45.75 0.997964691878036 0  46.5 0.9980407982574355 0  47.25 0.9981204443235219 0  48 0.9982036299516247 0  48.75 0.9982903549159764 0  49.5 0.9983806188076984 0  50.25 0.9984744208862593 0  51 0.9985717598104203 0  51.75 0.9986726331510493 0  52.5 0.9987770365093848 0  53.25 0.9988849619230684 0  54 0.9989963949910312 0  54.75 0.9991113097102627 0  55.5 0.9992296592823556 0  56.25 0.9993513600148798 0  57 0.9994762640493979 0  57.75 0.9996041161834754 0  58.5 0.9997344945854351 0  59.25 0.9998667518458872 0  60 1 0  0 1.5 0  0.75 1.499799530303325 0  1.5 1.499600645264611 0  2.25 1.499404720240588 0  3 1.499212713164961 0  3.75 1.499025220483759 0  4.5 1.498842591039742 0  5.25 1.4986650228005 0  6 1.498492626542083 0  6.75 1.498325463826829 0  7.5 1.498163568749507 0  8.25 1.498006960160016 0  9 1.497855648470993 0  9.75 1.497709639432088 0  10.5 1.497568936217642 0  11.25 1.497433540580126 0  12 1.49730345348706 0  12.75 1.497178675472632 0  13.5 1.497059206831799 0  14.25 1.496945047727434 0  15 1.496836198249479 0  15.75 1.496732658447607 0  16.5 1.496634428349248 0  17.25 1.496541507969549 0  18 1.496453897316874 0  18.75 1.49637159639584 0  19.5 1.496294605208992 0  20.25 1.496222923757733 0  21 1.496156552042836 0  21.75 1.496095490064724 0  22.5 1.496039737823627 0  23.25 1.49598929531967 0  24 1.49594416255292 0  24.75 1.495904339523412 0  25.5 1.495869826231161 0  26.25 1.495840622676178 0  27 1.495816728858465 0  27.75 1.495798144778021 0  28.5 1.495784870434847 0  29.25 1.495776905828944 0  30 1.495774250960309 0  30.75 1.495776905828944 0  31.5 1.495784870434848 0  32.25 1.495798144778021 0  33 1.495816728858465 0  33.75 1.495840622676178 0  34.5 1.495869826231161 0  35.25 1.495904339523412 0  36 1.49594416255292 0  36.75 1.49598929531967 0  37.5 1.496039737823627 0  38.25 1.496095490064724 0  39 1.496156552042836 0  39.75 1.496222923757733 0  40.5 1.496294605208992 0  41.25 1.49637159639584 0  42 1.496453897316874 0  42.75 1.496541507969549 0  43.5 1.496634428349248 0  44.25 1.496732658447607 0  45 1.496836198249479 0  45.75 1.496945047727434 0  46.5 1.497059206831799 0  47.25 1.497178675472632 0  48 1.49730345348706 0  48.75 1.497433540580126 0  49.5 1.497568936217642 0  50.25 1.497709639432088 0  51 1.497855648470993 0  51.75 1.498006960160016 0  52.5 1.498163568749507 0  53.25 1.498325463826829 0  54 1.498492626542083 0  54.75 1.4986650228005 0  55.5 1.498842591039742 0  56.25 1.499025220483759 0  57 1.499212713164961 0  57.75 1.499404720240588 0  58.5 1.499600645264611 0  59.25 1.499799530303325 0  60 1.5 0  0 2 0  0.75 1.999731536713671 0  1.5 1.999465403928425 0  2.25 1.99920351350926 0  3 1.998947097113468 0  3.75 1.998696869253606 0  4.5 1.998453228806162 0  5.25 1.998216396363169 0  6 1.997986493674874 0  6.75 1.997763587910312 0  7.5 1.997547716126222 0  8.25 1.997338898768445 0  9 1.997137147119119 0  9.75 1.9969424674045 0  10.5 1.996754863061051 0  11.25 1.99657433598566 0  12 1.996400887225497 0  12.75 1.996234517358701 0  13.5 1.996075226704494 0  14.25 1.995923015439142 0  15 1.995777883659988 0  15.75 1.995639831420786 0  16.5 1.995508858751223 0  17.25 1.995384965667691 0  18 1.995268152179241 0  18.75 1.99515841829087 0  19.5 1.99505576400533 0  20.25 1.994960189324141 0  21 1.994871694248137 0  21.75 1.994790278777775 0  22.5 1.994715942913305 0  23.25 1.99464868665486 0  24 1.994588510002512 0  24.75 1.994535412956299 0  25.5 1.994489395516238 0  26.25 1.994450457682339 0  27 1.994418599454603 0  27.75 1.994393820833032 0  28.5 1.994376121817625 0  29.25 1.994365502408381 0  30 1.9943619626053 0  30.75 1.994365502408381 0  31.5 1.994376121817625 0  32.25 1.994393820833032 0  33 1.994418599454603 0  33.75 1.994450457682339 0  34.5 1.994489395516238 0  35.25 1.994535412956299 0  36 1.994588510002512 0  36.75 1.99464868665486 0  37.5 1.994715942913305 0  38.25 1.994790278777775 0  39 1.994871694248137 0  39.75 1.994960189324141 0  40.5 1.99505576400533 0  41.25 1.99515841829087 0  42 1.995268152179241 0  42.75 1.995384965667691 0  43.5 1.995508858751223 0  44.25 1.995639831420786 0  45 1.995777883659988 0  45.75 1.995923015439142 0  46.5 1.996075226704494 0  47.25 1.996234517358701 0  48 1.996400887225497 0  48.75 1.99657433598566 0  49.5 1.996754863061051 0  50.25 1.9969424674045 0  51 1.997137147119119 0  51.75 1.997338898768445 0  52.5 1.997547716126222 0  53.25 1.997763587910312 0  54 1.997986493674874 0  54.75 1.998216396363169 0  55.5 1.998453228806162 0  56.25 1.998696869253606 0  57 1.998947097113468 0  57.75 1.99920351350926 0  58.5 1.999465403928425 0  59.25 1.999731536713671 0  60 2 0  0 2.5 0  0.75 2.499662401284222 0  1.5 2.499328163548956 0  2.25 2.498999778820448 0  3 2.498678653647814 0  3.75 2.498365524988329 0  4.5 2.498060782579009 0  5.25 2.49776463626682 0  6 2.497477200262724 0  6.75 2.497198537116808 0  7.5 2.496928681204799 0  8.25 2.496667651454834 0  9 2.496415458300411 0  9.75 2.496172107496224 0  10.5 2.495937602217527 0  11.25 2.495711944216763 0  12 2.495495134461283 0  12.75 2.49528717348514 0  13.5 2.495088061583206 0  14.25 2.494897798918303 0  15 2.494716385580346 0  15.75 2.494543821618988 0  16.5 2.494380107061653 0  17.25 2.494225241923479 0  18 2.494079226212827 0  18.75 2
[...]
<PointData  Scalars="f_10-1"> 
<DataArray  type="Float64"  Name="f_10-1"  format="ascii">-8.9983818689102257e+00  -8.8871952061082311e+00  -8.7743997017990303e+00  -8.6622711559502008e+00  -8.5500678668238965e+00  -8.4378035139165988e+00  -8.3254267233585857e+00  -8.2129646227797473e+00  -8.1004437909149143e+00  -7.9878866657138721e+00  -7.8753045829232740e+00  -7.7627064701073794e+00  -7.6500967666032356e+00  -7.5374811538247881e+00  -7.4248629292429120e+00  -7.3122460545429169e+00  -7.1996325575128006e+00  -7.0870243874781274e+00  -6.9744221050839270e+00  -6.8618261055436749e+00  -6.7492360567896359e+00  -6.6366516435281220e+00  -6.5240722985356587e+00  -6.4114975899280502e+00  -6.2989270558920403e+00  -6.1863603787051638e+00  -6.0737972742252060e+00  -5.9612375620438289e+00  -5.8486810961680495e+00  -5.7361277916182507e+00  -5.6235775850417031e+00  -5.5110304446565133e+00  -5.3984863498802138e+00  -5.2859452950960817e+00  -5.1734072799859403e+00  -5.0608723109313329e+00  -4.9483403968122284e+00  -4.8358115494478353e+00  -4.7232857819646350e+00  -4.6107631088435577e+00  -4.4982435454023655e+00  -4.3857271077017410e+00  -4.2732138124660111e+00  -4.1607036769624246e+00  -4.0481967190685246e+00  -3.9356929571706716e+00  -3.8231924102625472e+00  -3.7106950978756026e+00  -3.5982010401694127e+00  -3.4857102578917196e+00  -3.3732227724516450e+00  -3.2607386059028811e+00  -3.1482577810010093e+00  -3.0357803212029886e+00  -2.9233062507134613e+00  -2.8108355944956558e+00  -2.6983683783117556e+00  -2.5859046287441219e+00  -2.4734443732367568e+00  -2.3609876401311789e+00  -2.2485344587223381e+00  -2.1360848593245034e+00  -2.0236388733686907e+00  -1.9111965335352077e+00  -1.7987578739450434e+00  -1.6863229304257215e+00  -1.5738917408750011e+00  -1.4614643457281082e+00  -1.3490407884990814e+00  -1.2366211162466594e+00  -1.1242053795860789e+00  -1.0117936308306692e+00  -8.9938591921265820e-01  -7.8698226315582132e-01  -6.7458265871086631e-01  -5.6218654271762158e-01  -4.4979506986874890e-01  -3.3739228826781370e-01  -2.2505793107747579e-01  -1.1226912801668974e-01  -2.0375746578714152e-03  -9.0002439730515889e+00  -8.8870615994079998e+00  -8.7745184260087186e+00  -8.6622878466495425e+00  -8.5500959705855504e+00  -8.4378267497823991e+00  -8.3254613987044603e+00  -8.2129962907270571e+00  -8.1004821274077852e+00  -7.9879230412672868e+00  -7.8753455488204978e+00  -7.7627462526850364e+00  -7.6501389485661626e+00  -7.5375220659897071e+00  -7.4249046874285680e+00  -7.3122866284478558e+00  -7.1996732891575856e+00  -7.0870642674148714e+00  -6.9744619668761816e+00  -6.8618654701443687e+00  -6.7492754114402649e+00  -6.6366907573761864e+00  -6.5241114407461493e+00  -6.4115366433533856e+00  -6.2989661637898706e+00  -6.1863994785355771e+00  -6.0738364408127969e+00  -5.9612767611269790e+00  -5.8487203665793075e+00  -5.7361671146773832e+00  -5.6236169809248997e+00  -5.5110699035349322e+00  -5.3985258823257993e+00  -5.2859848963155551e+00  -5.1734469556456864e+00  -5.0609120590509233e+00  -4.9483802205896223e+00  -4.8358514484280919e+00  -4.7233257581369639e+00  -4.6108031625522807e+00  -4.4982836780718465e+00  -4.3857673200814027e+00  -4.2732541057378590e+00  -4.1607440520768160e+00  -4.0482371771215666e+00  -3.9357334992136699e+00  -3.8232330373783023e+00  -3.7107358111707214e+00  -3.5982418407448460e+00  -3.4857511468904949e+00  -3.3732637510051640e+00  -3.2607796751837914e+00  -3.1482989421748155e+00  -3.0358215754701283e+00  -2.9233475992732822e+00  -2.8108770385755126e+00  -2.6984099191424114e+00  -2.5859462675778566e+00  -2.4734861113309234e+00  -2.3610294787581227e+00  -2.2485763991579550e+00  -2.1361269028525189e+00  -2.0236810212727145e+00  -1.9112387871012109e+00  -1.7988002344602658e+00  -1.6863653991907477e+00  -1.5739343192288682e+00  -1.4615070351108108e+00  -1.3490835905801228e+00  -1.2366640332027994e+00  -1.1242484146372178e+00  -1.0118367897485787e+00  -8.9942921163561595e-01  -7.8702572036329554e-01  -6.7462628407832470e-01  -5.6223082231577892e-01  -4.4983801982775673e-01  -3.3745073486503935e-01  -2.2503351327641383e-01  -1.1277502102521290e-01  4.1496367009493865e-04  -8.9999420929785749e+00  -8.8873510741006054e+00  -8.7746458996248222e+00  -8.6624076933901275e+00  -8.5501365222709236e+00  -8.4378764726271900e+00  -8.3254869683301678e+00  -8.2130408735795903e+00  -8.1005127403279946e+00  -7.9879681348230154e+00  -7.8753825337181773e+00  -7.7627927209440148e+00  -7.6501804887275258e+00  -7.5375686218765816e+00  -7.4249476735468534e+00  -7.3123318277656821e+00  -7.1997159957330163e+00  -7.0871079093575418e+00  -6.9745040861831660e+00  -6.8619080403934172e+00  -6.7493171628396160e+00  -6.6367327805564704e+00  -6.5241530747464740e+00  -6.4115784743144566e+00  -6.2990078432533574e+00  -6.1864413178864588e+00  -6.0738782540334055e+00  -5.9613187133594181e+00  -5.8487623576286714e+00  -5.7362092321683980e+00  -5.6236591708111439e+00  -5.5111122121955542e+00  -5.3985682808970017e+00  -5.2860274091762793e+00  -5.1734895677626556e+00  -5.0609547831183397e+00  -4.9484230491301382e+00  -4.8358943880094927e+00  -4.7233688053383789e+00  -4.6108463207984993e+00  -4.4983269460585751e+00  -4.3858106996702677e+00  -4.2732975966874625e+00  -4.1607876555038645e+00  -4.0482808932934251e+00  -3.9357773289132729e+00  -3.8232769811024814e+00  -3.7107798695672707e+00  -3.5982860144067454e+00  -3.4857954364215011e+00  -3.3733081570353107e+00  -3.2608241983117940e+00  -3.1483435830442383e+00  -3.0358663346894676e+00  -2.9233924774919156e+00  -2.8109220364153482e+00  -2.6984550372554961e+00  -2.5859915065955938e+00  -2.4735314719004897e+00  -2.3610749615037818e+00  -2.2486220046954157e+00  -2.1361726317503105e+00  -2.0237268740378394e+00  -1.9112847641204060e+00  -1.7988463359381959e+00  -1.6864116250388905e+00  -1.5739806689234326e+00  -1.4615535074898398e+00  -1.3491301835933034e+00  -1.2367107436089730e+00  -1.1242952376946718e+00  -1.0118837188165657e+00  -8.9947623814419175e-01  -7.8707282969488535e-01  -6.7467346942064144e-01  -5.6227793652959823e-01  -4.4988559365919001e-01  -3.3749361767522396e-01  -2.2509943166672894e-01  -1.1265469975928318e-01  5.7051297680037162e-06  -9.0000338479000419e+00  -8.8873137041956198e+00  -8.7748322528434208e+00  -8.6624024192346472e+00  -8.5501747515367921e+00  -8.4378195880275637e+00  -8.3254809849069602e+00  -8.2129995254299111e+00  -8.1005110251013601e+00  -7.9879441517272856e+00  -7.8753808467713666e+00  -7.7627771050654788e+00  -7.6501777695929185e+00  -7.5375582139908239e+00  -7.4249446626830595e+00  -7.3123244007924715e+00  -7.1997124017957601e+00  -7.0871014681386910e+00  -6.9744993337962908e+00  -6.8619013594642739e+00  -6.7493110979624342e+00  -6.6367254740273776e+00  -6.5241459734644609e+00  -6.4115706596627451e+00  -6.2990001359408572e+00  -6.1864332661760084e+00  -6.0738703169042267e+00  -5.9613106621096774e+00  -5.8487544443624291e+00  -5.7362013353603780e+00  -5.6236514265287436e+00  -5.5111045529855893e+00  -5.3985607789599932e+00  -5.2860200261964385e+00  -5.1734823413168449e+00  -5.0609476913953761e+00  -4.9484161111685108e+00  -4.8358875915132522e+00  -4.7233621595409909e+00  -4.6108398188272002e+00  -4.4983205920364222e+00  -4.3858044897213242e+00  -4.2732915323213430e+00  -4.1607817344304374e+00  -4.0482751157181722e+00  -3.9357716933409872e+00  -3.8232714871073483e+00  -3.7107745160256616e+00  -3.5982808005980593e+00  -3.4857903613787622e+00  -3.3733032199057886e+00  -3.2608193981831084e+00  -3.1483389190072621e+00  -3.0358618058426292e+00  -2.9233880829039154e+00  -2.8109177751797056e+00  -2.6984509084326027e+00  -2.5859875092673410e+00  -2.4735276051161184e+00  -2.3610712243144176e+00  -2.2486183960997970e+00  -2.1361691506917593e+00  -2.0237235193222056e+00  -1.9112815343371290e+00  -1.7988432292849530e+00  -1.6864086390777575e+00  -1.5739778001752116e+00  -1.4615507508361880e+00  -1.3491275313591198e+00  -1.2367081841717000e+00  -1.1242927532278115e+00  -1.0118812812060036e+00  -8.9947380014655598e-01  -7.8707030321154758e-01  -6.7467066196181591e-01  -5.6227438981329725e-01  -4.4987994389057201e-01  -3.3748280011870407e-01  -2.2506902813663904e-01  -1.1259621302457788e-01  3.5289389874816224e-06  -8.9999690437148452e+00  -8.8873952275162900e+00  -8.7748061833391535e+00  -8.6624918350823492e+00  -8.5501214700459158e+00  -8.4378596611199903e+00  -8.3254348923524120e+00  -8.2130192038569767e+00  -8.1004832178768300e+00  -7.9879524578940639e+00  -7.8753599990797385e+00  -7.7627745258236311e+00  -7.6501585825913923e+00  -7.5375495168048499e+00  -7.4249274968300076e+00  -7.3123136003172249e+00  -7.1996971547167616e+00  -7.0870896433361521e+00  -6.9744847743567577e+00  -6.8618882907892091e+00  -6.7492961934143390e+00  -6.6367110861751151e+00  -6.5241304135117737e+00  -6.4115552690613704e+00  -6.2989840893511904e+00  -6.1864173284163702e+00  -6.0738540829494703e+00  -5.9612945618872875e+00  -5.8487382700318173e+00  -5.7361853245825145e+00  -5.6236354658703274e+00  -5.5110887719414867e+00  -5.3985451125598347e+00  -5.2860045440999546e+00  -5.1734670055442864e+00  -5.0609325388628426e+00  -4.9484011197450899e+00  -4.8358727803247472e+00  -4.7233475158766982e+00  -4.6108253522174438e+00  -4.4983062952665014e+00  -4.3857903671996192e+00  -4.2732775799245326e+00  -4.1607679538731652e+00  -4.0482615045349748e+00  -3.9357582518557184e+00  -3.8232582136929452e+00  -3.7107614103016799e+00  -3.5982678613288264e+00  -3.4857775878322270e+00  -3.3732906110067979e+00  -3.2608069530240700e+00  -3.1483266365618952e+00  -3.0358496851138761e+00  -2.9233761228659638e+00  -2.8109059747877505e+00  -2.6984392666432924e+00  -2.5859760250051669e+00  -2.4735162773071884e+00  -2.3610600518395950e+00  -2.2486073778075344e+00  -2.1361582853284076e+00  -2.0237128054842399e+00  -1.9112709703259183e+00  -1.7988328129156235e+00  -1.6863983673321199e+00  -1.5739676686891690e+00  -1.4615407530953728e+00  -1.3491176575206452e+00  -1.2366984193311794e+00  -1.1242830749030361e+00  -1.0118716555131435e+00  -8.9946417531582357e-01  -7.8706059623570446e-01  -6.7466072560348511e-01  -5.6226391835651424e-01  -4.4986821000245703e-01  -3.3746781294318551e-01  -2.2504613361441220e-01  -1.1256663394286115e-01  -9.9278815045077023e-06  -9.0000422551495447e+00  -8.8873227920515721e+00  -8.7748631176065253e+00  -8.6624252231856644e+00  -8.5502082070492857e+00  -8.4378462514354418e+00  -8.3255098805347760e+00  -8.2130222522252723e+00  -8.1005308888813214e+00  -7.9879562065823615e+00  -7.8753862580084535e+00  -7.7627751669682654e+00  -7.6501709064713079e+00  -7.5375478725790641e+00  -7.4249327306033548e+00  -7.3123116555696459e+00  -7.1996993351599183e+00  -7.0870880055926433e+00  -6.9744853528502855e+00  -6.8618866666049287e+00  -6.7492956217261266e+00  -6.6367092160555741e+00  -6.5241290314380889e+00  -6.4115531720212537e+00  -6.2989822657696664e+00  -6.1864151699057706e+00  -6.0738521355987389e+00  -5.9612925118137001e+00  -5.8487364174435124e+00  -5.7361835008827207e+00  -5.6236338352952018e+00  -5.5110872402363222e+00  -5.3985437690974010e+00  -5.2860033349120581e+00  -5.1734659788319552e+00  -5.0609316635820587e+00  -4.9484004214543127e+00  -4.8358722413125417e+00  -4.7233471492773651e+00  -4.6108251480268141e+00  -4.4983062598480617e+00  -4.3857904948875657e+00  -4.2732778734354033e+00  -4.1607684098841737e+00  -4.0482621238272216e+00  -3.9357590323029812e+00  -3.8232591550625590e+00  -3.7107625110305920e+00  -3.5982691206551247e+00  -3.4857790044217780e+00  -3.3732921838150869e+00  -3.2608086807790233e+00  -3.1483285180584586e+00  -3.0358517190647198e+00  -2.9233783079648461e+00  -2.8109083097006300e+00  -2.6984417499905327e+00  -2.5859786553929056e+00  -2.4735190532863833e+00  -2.3610629719326508e+00  -2.2486104404535721e+00  -2.1361614888720877e+00  -2.0237161480785226e+00  -1.9112744498275553e+00  -1.7988364266624979e+00  -1.6864021118261883e+00  -1.5739715390762921e+00  -1.4615447424157038e+00  -1.3491217556344937e+00  -1.2367026115373867e+00  -1.1242873404196270e+00  -1.0118759665943962e+00  -8.9946849931748840e-01  -7.8706490725137868e-01  -6.7466504369724156e-01  -5.6226842866987703e-01  -4.4987359306003488e-01  -3.3747626572579309e-01  -2.2506335787896226e-01  -1.1259567065148211e-01  -1.2015457218797097e-05  -8.9999362148592770e+00  -8.8873933265021776e+00  -8.7746888339188054e+00  -8.6624652396755462e+00  -8.5501884376810136e+00  -8.4379328724356988e+00  -8.3255350681589189e+00  -8.2130862728161809e+00  -8.1005469355325559e+00  -7.9879919243014754e+00  -7.8753921619892848e+00  -7.7627911832664616e+00  -7.6501695004718586e+00  -7.5375522126616961e+00  -7.4249279275283335e+00  -7.3123106809824598e+00  -7.1996938712166116e+00  -7.0870850282611810e+00  -6.9744801552997986e+00  -6.8618829366173228e+00  -6.7492907586887076e+00  -6.6367051706471125e+00  -6.5241244128309441e+00  -6.4115490189559718e+00  -6.2989778489118473e+00  -6.1864110462111990e+00  -6.0738479225454540e+00  -5.9612885095976713e+00  -5.8487324221800474e+00  -5.7361796746693878e+00  -5.6236300670210904e+00  -5.5110836170288335e+00  -5.3985402292461213e+00  -5.2859999245380296e+00  -5.1734626632337326e+00  -5.0609284663802558e+00  -4.9483973229274314e+00  -4.8358692527678491e+00  -4.7233442592686705e+00  -4.6108223611783572e+00  -4.4983035691825792e+00  -4.3857879014449308e+00  -4.2732753725539485e+00  -4.1607660007033678e+00  -4.0482598028080670e+00  -3.9357567975807290e+00  -3.8232570035812987e+00  -3.7107604403849352e+00  -3.5982671279430889e+00  -3.4857770869286262e+00  -3.3732903386319011e+00  -3.2608069049921102e+00  -3.1483268086786733e+00  -3.0358500730301268e+00  -2.9233767221762275e+00  -2.8109067809698094e+00  -2.6984402750973540e+00  -2.5859772310284264e+00  -2.4735176760988460e+00  -2.3610616384748448e+00  -2.2486091472012171e+00  -2.1361602321606163e+00  -2.0237149240689858e+00  -1.9112732543896627e+00  -1.7988352552308640e+00  -1.6864009591401548e+00  -1.5739703988146800e+00  -1.4615436066556153e+00  -1.3491206141550829e+00  -1.2367014510459406e+00  -1.1242861441362859e+00  -1.0118747155002470e+00  -8.9946717899284145e-01  -7.8706353075937296e-01  -6.7466372409039532e-01  -5.6226756648558118e-01  -4.4987456970625683e-01  -3.3748234006495142e-01  -2.2508931940883176e-01  -1.1265143769953997e-01  -2.2962611260784334e-05  -9.0002480819675110e+00  -8.8871211168408468e+00  -8.7745915053177281e+00  -8.6623621022205182e+00  -8.5501723864966248e+00  -8.4378971692401112e+00  -8.3255275436869489e+00  -8.2130526503997530e+00  -8.1005274283542388e+00  -7.9879529728342478e+00  -7.8753603522144928e+00  -7.7627468995427655e+00  -7.6501291579564938e+00  -7.5375050591942578e+00  -7.4248835468809791e+00  -7.3122630150129702e+00  -7.1996481399102006e+00  -7.0870377219018277e+00  -6.9744339844001786e+00  -6.8618359023823787e+00  -6.7492442546852311e+00  -6.6366581051485367e+00  -6.5240775172872505e+00  -6.4115017202542068e+00  -6.2989305429011022e+00  -6.1863634390745039e+00  -6.0738002333490337e+00  -5.9612405886642774e+00  -5.8486843917442419e+00  -5.7361314582890754e+00  -5.6235817327552633e+00  -5.5110351259519570e+00  -5.3984916190464975e+00  -5.2859511758779147e+00  -5.1734137969569920e+00  -5.0608794735150608e+00  -4.9483482151301379e+00  -4.8358200265290394e+00  -4.7232949213210471e+00  -4.6107729108085884e+00  -4.4982540105202551e+00  -4.3857382351201339e+00  -4.2732256013226220e+00  -4.1607161257619181e+00  -4.0482098261708925e+00  -3.9357067206091236e+00  -3.8232068278621947e+00  -3.7107101672472260e+00  -3.5982167586961888e+00  -3.4857266227786727e+00  -3.3732397806792100e+00  -3.2607562542831028e+00  -3.1482760661341742e+00  -3.0357992395247191e+00  -2.9233257984631478e+00  -2.8108557677495885e+00  -2.6983891729584677e+00  -2.5859260404955560e+00  -2.4734663975892031e+00  -2.3610102723249238e+00  -2.2485576936300236e+00  -2.1361086912718394e+00  -2.0236632958053491e+00  -1.9112215384984124e+00  -1.7987834511834129e+00  -1.6863490660355469e+00  -1.5739184152302603e+00  -1.4614915304647451e+00  -1.3490684423120078e+00  -1.2366491794159260e+00  -1.1242337675281395e+00  -1.0118222284385474e+00  -8.9941457776771794e-01  -7.8701082297733649e-01  -6.7461092835861947e-01  -5.6221488416051790e-01  -4.4982164103489419e-01  -3.3743458670242432e-01  -2.2501996976884084e-01  -1.1276678184471009e-01  3.9505435144082917e-04  -8.9984112243498888e+00  -8.8872894698519218e+00  -8.7744966578588350e+00  -8.6623723665315406e+00  -8.5501642815286569e+00  -8.4378946144040370e+00  -8.3255088675472066e+00  -8.2130360390532715e+00  -8.1005006412263807e+00  -7.9879271567792181e+00  -7.8753280694021122e+00  -7.7627152339718810e+00  -7.6500939947152506e+00  -7.5374705780777518e+00  -7.4248473269540280e+00  -7.3122273346292239e+00  -7.1996115569342622e+00  -7.0870014079819761e+00  -6.9743970981204635e+00  -6.8617990240980173e+00  -6.7492069088603328e+00  -6.6366205794035578e+00  -6.5240395530993993e+00  -6.4114634661536813e+00  -6.2988918639002023e+00  -6.1863244165724067e+00  -6.0737607996591114e+00  -5.9612007907850888e+00  -5.8486441974377064e+00  -5.7360908957789585e+00  -5.6235407881183423e+00  -5.5109938168010837e+00  -5.3984499408270086e+00  -5.2859091401731577e+00  -5.1733714039481358e+00  -5.0608367313947040e+00  -4.9483051264080959e+00  -4.8357765975127860e+00  -4.7232511555950634e+00  -4.6107288136306739e+00  -4.4982095859011979e+00  -4.3856934877149465e+00  -4.2731805352401508e+00  -4.1606707452838663e+00  -4.0481641353439315e+00  -3.9356607234540895e+00  -3.8231605282897458e+00  -3.7106635690694820e+00  -3.5981698656565988e+00  -3.4856794385032317e+00  -3.3731923087329068e+00  -3.2607084981146990e+00  -3.1482280291273517e+00  -3.0357509249536676e+00  -2.9232772095302360e+00  -2.8108069075540221e+00  -2.6983400445210410e+00  -2.5858766467377388e+00  -2.4734167413477457e+00  -2.3609603563377801e+00  -2.2485075205436296e+00  -2.1360582636310967e+00  -2.0236126160564498e+00  -1.9111706089828031e+00  -1.7987322741419740e+00  -1.6862976436139194e+00  -1.5738667495013734e+00  -1.4614396234715417e+00  -1.3490162961499823e+00  -1.2365967963545745e+00  -1.1241811501949093e+00  -1.0117693795903144e+00  -8.9936150105213863e-01  -7.8695750923422858e-01  -6.7455740841230727e-01  -5.6216074224662527e-01  -4.4976890891057320e-01  -3.3736689636529354e-01  -2.2503467541512776e-01  -1.1225868158321735e-01  -2.0197934778044355e-03  -8.9439447432821897e+00  -8.8308881468530522e+00  -8.7185548561567785e+00  -8.6063382049097630e+00  -8.4941082417037848e+00  -8.3817889072748137e+00  -8.2693690933452366e+00  -8.1568807004573856e+00  -8.0443414295436906e+00  -7.9317740476520644e+00  -7.8191839163610322e+00  -7.7065811408016884e+00  -7.5939681718116292e+00  -7.4813515492875364e+00  -7.3687335235695999e+00  -7.2561182647535531e+00  -7.1435070122213382e+00  -7.0309016435136957e+00  -6.9183022207657583e+00  -6.8057090887264007e+00  -6.6931216944507801e+00  -6.5805397523668194e+00  -6.4679626392042842e+00  -6.3553899865628036e+00  -6.2428213393641450e+00  -6.1302564369059942e+00  -6.0176950130805871e+00  -5.9051369254577608e+00  -5.7925820413649491e+00  -5.6800302972564083e+00  -5.5674816370556979e+00  -5.4549360398676408e+00  -5.3423934885319708e+00  -5.2298539825982191e+00  -5.1173175232631198e+00  -5.0047841192771925e+00  -4.8922537802295230e+00  -4.7797265190401736e+00  -4.6672023492449126e+00  -4.5546812858882255e+00  -4.4421633446003552e+00  -4.3296485417974448e+00  -4.2171368944940317e+00  -4.1046284202469305e+00  -3.9921231372282686e+00  -3.8796210641071669e+00  -3.7671222201865500e+00  -3.6546266252972202e+00  -3.5421342999273184e+00  -3.4296452651490381e+00  -3.3171595427221114e+00  -3.2046771550522548e+00  -3.0921981252694066e+00  -2.9797224772108533e+00  -2.8672502354809346e+00  -2.7547814254523324e+00  -2.6423160733153543e+00  -2.5298542060947851e+00  -2.4173958516991476e+00  -2.3049410389580935e+00  -2.1924897976892197e+00  -2.0800421587750040e+00  -1.9675981542815681e+00  -1.8551578176194810e+00  -1.7427211837776393e+00  -1.6302882896442070e+00  -1.5178591744385388e+00  -1.405433880245