<?xml version="1.0"?>
<VTKFile type="UnstructuredGrid"  version="0.1"  >
<UnstructuredGrid>
<Piece  NumberOfPoints="1369" NumberOfCells="2560">
<Points>
<DataArray  type="Float64"  NumberOfComponents="3"  format="ascii">0 0 0  0.75 0 0  1.5 0 0  2.25 0 0  3 0 0  3.75 0 0  4.5 0 0  5.25 0 0  6 0 0  6.75 0 0  7.5 0 0  8.25 0 0  9 0 0  9.75 0 0  10.5 0 0  11.25 0 0  12 0 0  12.75 0 0  13.5 0 0  14.25 0 0  15 0 0  15.75 0 0  16.5 0 0  17.25 0 0  18 0 0  18.75 0 0  19.5 0 0  20.25 0 0  21 0 0  21.75 0 0  22.5 0 0  23.25 0 0  24 0 0  24.75 0 0  25.5 0 0  26.25 0 0  27 0 0  27.75 0 0  28.5 0 0  29.25 0 0  30 0 0  30.75 0 0  31.5 0 0  32.25 0 0  33 0 0  33.75 0 0  34.5 0 0  35.25 0 0  36 0 0  36.75 0 0  37.5 0 0  38.25 0 0  39 0 0  39.75 0 0  40.5 0 0  41.25 0 0  42 0 0  42.75 0 0  43.5 0 0  44.25 0 0  45 0 0  45.75 0 0  46.5 0 0  47.25 0 0  48 0 0  48.75 0 0  49.5 0 0  50.25 0 0  51 0 0  51.75 0 0  52.5 0 0  53.25 0 0  54 0 0  54.75 0 0  55.5 0 0  56.25 0 0  57 0 0  57.75 0 0  58.5 0 0  59.25 0 0  60 0 0  0 0.5 0  0.75 0.5000998967271669 0  1.5 0.5001989394507675 0  2.25 0.5002965208030464 0  3 0.5003921887263328 0  3.75 0.5004856419526762 0  4.5 0.5005766949335103 0  5.25 0.5006652389782275 0  6 0.5007512122400735 0  6.75 0.500834580084581 0  7.5 0.5009153232837069 0  8.25 0.5009934312134331 0  9 0.501068898019644 0  9.75 0.5011417204818671 0  10.5 0.5012118968303936 0  11.25 0.5012794260935373 0  12 0.5013443077381734 0  12.75 0.5014065414720208 0  13.5 0.501466127134985 0  14.25 0.5015230646394878 0  15 0.5015773539377079 0  15.75 0.5016289950036119 0  16.5 0.5016779878230949 0  17.25 0.5017243323885784 0  18 0.5017680286960505 0  18.75 0.5018090767434417 0  19.5 0.5018474765297375 0  20.25 0.501883228054492 0  21 0.5019163313175639 0  21.75 0.5019467863189672 0  22.5 0.5019745930587945 0  23.25 0.5019997515371734 0  24 0.5020222617542411 0  24.75 0.502042123710132 0  25.5 0.5020593374049718 0  26.25 0.5020739028388728 0  27 0.502085820011931 0  27.75 0.5020950889242267 0  28.5 0.5021017095758211 0  29.25 0.5021056819667602 0  30 0.5021070060970705 0  30.75 0.5021056819667602 0  31.5 0.5021017095758211 0  32.25 0.5020950889242267 0  33 0.502085820011931 0  33.75 0.5020739028388729 0  34.5 0.5020593374049718 0  35.25 0.502042123710132 0  36 0.5020222617542411 0  36.75 0.5019997515371734 0  37.5 0.5019745930587945 0  38.25 0.5019467863189672 0  39 0.5019163313175639 0  39.75 0.501883228054492 0  40.5 0.5018474765297376 0  41.25 0.5018090767434417 0  42 0.5017680286960505 0  42.75 0.5017243323885784 0  43.5 0.5016779878230948 0  44.25 0.5016289950036119 0  45 0.5015773539377079 0  45.75 0.5015230646394878 0  46.5 0.501466127134985 0  47.25 0.5014065414720208 0  48 0.5013443077381734 0  48.75 0.5012794260935373 0  49.5 0.5012118968303936 0  50.25 0.5011417204818671 0  51 0.501068898019644 0  51.75 0.5009934312134331 0  52.5 0.5009153232837069 0  53.25 0.500834580084581 0  54 0.5007512122400735 0  54.75 0.5006652389782275 0  55.5 0.5005766949335103 0  56.25 0.5004856419526762 0  57 0.5003921887263328 0  57.75 0.5002965208030464 0  58.5 0.5001989394507675 0  59.25 0.5000998967271669 0  60 0.5 0  0 1 0  0.75 1.000200118404009 0  1.5 1.000398478023427 0  2.25 1.000593841071978 0  3 1.000785308137351 0  3.75 1.000972294614009 0  4.5 1.001154447525688 0  5.25 1.001331562761186 0  6 1.001503525035396 0  6.75 1.001670270046472 0  7.5 1.001831762171869 0  8.25 1.001987981751302 0  9 1.002138917957887 0  9.75 1.002284564837418 0  10.5 1.00242491911851 0  11.25 1.002559979005141 0  12 1.002689743511962 0  12.75 1.002814212098796 0  13.5 1.002933384469779 0  14.25 1.003047260463073 0  15 1.00315583999032 0  15.75 1.003259123003426 0  16.5 1.003357109476345 0  17.25 1.00344979939509 0  18 1.003537192752264 0  18.75 1.003619289544058 0  19.5 1.003696089768614 0  20.25 1.003767593425125 0  21 1.003833800513341 0  21.75 1.003894711033301 0  22.5 1.003950324985189 0  23.25 1.00400064236925 0  24 1.004045663185749 0  24.75 1.004085387434943 0  25.5 1.004119815117071 0  26.25 1.004148946232347 0  27 1.004172780780956 0  27.75 1.004191318763048 0  28.5 1.004204560178743 0  29.25 1.004212505028124 0  30 1.004215153311246 0  30.75 1.004212505028124 0  31.5 1.004204560178743 0  32.25 1.004191318763048 0  33 1.004172780780956 0  33.75 1.004148946232347 0  34.5 1.004119815117071 0  35.25 1.004085387434943 0  36 1.004045663185749 0  36.75 1.00400064236925 0  37.5 1.003950324985189 0  38.25 1.003894711033301 0  39 1.003833800513341 0  39.75 1.003767593425125 0  40.5 1.003696089768614 0  41.25 1.003619289544058 0  42 1.003537192752264 0  42.75 1.00344979939509 0  43.5 1.003357109476345 0  44.25 1.003259123003426 0  45 1.00315583999032 0  45.75 1.003047260463073 0  46.5 1.002933384469779 0  47.25 1.002814212098796 0  48 1.002689743511962 0  48.75 1.002559979005141 0  49.5 1.00242491911851 0  50.25 1.002284564837418 0  51 1.002138917957887 0  51.75 1.001987981751302 0  52.5 1.001831762171869 0  53.25 1.001670270046472 0  54 1.001503525035396 0  54.75 1.001331562761186 0  55.5 1.001154447525688 0  56.25 1.000972294614009 0  57 1.000785308137351 0  57.75 1.000593841071978 0  58.5 1.000398478023427 0  59.25 1.000200118404009 0  60 1 0  0 1.5 0  0.75 1.500301014180105 0  1.5 1.500599249376023 0  2.25 1.500892791382193 0  3 1.501180311106434 0  3.75 1.501460982629045 0  4.5 1.501734323622211 0  5.25 1.502000060796011 0  6 1.502258041520069 0  6.75 1.50250818117411 0  7.5 1.502750433028832 0  8.25 1.502984771337533 0  9 1.503211181934203 0  9.75 1.503429657032015 0  10.5 1.503640192353809 0  11.25 1.503842785551735 0  12 1.504037435337827 0  12.75 1.504224141006058 0  13.5 1.504402902169769 0  14.25 1.504573718617481 0  15 1.504736590233757 0  15.75 1.504891516955787 0  16.5 1.505038498749573 0  17.25 1.505177535596877 0  18 1.505308627488074 0  18.75 1.505431774418224 0  19.5 1.505546976384937 0  20.25 1.505654233387187 0  21 1.505753545424683 0  21.75 1.505844912497508 0  22.5 1.505928334605924 0  23.25 1.506003811750278 0  24 1.506071343930938 0  24.75 1.506130931148261 0  25.5 1.506182573402576 0  26.25 1.506226270694178 0  27 1.506262023023322 0  27.75 1.506289830390216 0  28.5 1.506309692795022 0  29.25 1.506321610237858 0  30 1.506325582718796 0  30.75 1.506321610237858 0  31.5 1.506309692795022 0  32.25 1.506289830390216 0  33 1.506262023023322 0  33.75 1.506226270694178 0  34.5 1.506182573402576 0  35.25 1.50613093114826 0  36 1.506071343930938 0  36.75 1.506003811750278 0  37.5 1.505928334605924 0  38.25 1.505844912497508 0  39 1.505753545424683 0  39.75 1.505654233387187 0  40.5 1.505546976384937 0  41.25 1.505431774418224 0  42 1.505308627488074 0  42.75 1.505177535596877 0  43.5 1.505038498749573 0  44.25 1.504891516955787 0  45 1.504736590233757 0  45.75 1.504573718617481 0  46.5 1.504402902169769 0  47.25 1.504224141006058 0  48 1.504037435337827 0  48.75 1.503842785551735 0  49.5 1.503640192353809 0  50.25 1.503429657032015 0  51 1.503211181934203 0  51.75 1.502984771337533 0  52.5 1.502750433028832 0  53.25 1.50250818117411 0  54 1.502258041520069 0  54.75 1.502000060796011 0  55.5 1.501734323622211 0  56.25 1.501460982629045 0  57 1.501180311106434 0  57.75 1.500892791382193 0  58.5 1.500599249376023 0  59.25 1.500301014180105 0  60 1.5 0  0 2 0  0.75 2.000402989184178 0  1.5 2.000801963011118 0  2.25 2.001194266640255 0  3 2.001578194220635 0  3.75 2.00195275728724 0  4.5 2.002317404470408 0  5.25 2.002671831188393 0  6 2.00301586961444 0  6.75 2.003349427366172 0  7.5 2.003672453620023 0  8.25 2.003984920429223 0  9 2.004286812433528 0  9.75 2.004578121194428 0  10.5 2.004858842078266 0  11.25 2.00512897254196 0  12 2.005388511190618 0  12.75 2.005637457259686 0  13.5 2.005875810330511 0  14.25 2.006103570174151 0  15 2.006320736665678 0  15.75 2.006527309737155 0  16.5 2.006723289351837 0  17.25 2.006908675490048 0  18 2.007083468141429 0  18.75 2.0072476673007 0  19.5 2.007401272965326 0  20.25 2.007544285134256 0  21 2.007676703807225 0  21.75 2.007798528984369 0  22.5 2.007909760666017 0  23.25 2.008010398852589 0  24 2.008100443544514 0  24.75 2.008179894742212 0  25.5 2.008248752446071 0  26.25 2.008307016656434 0  27 2.008354687373595 0  27.75 2.008391764597802 0  28.5 2.008418248329239 0  29.25 2.008434138568049 0  30 2.008439435314308 0  30.75 2.008434138568049 0  31.5 2.008418248329239 0  32.25 2.008391764597802 0  33 2.008354687373595 0  33.75 2.008307016656434 0  34.5 2.008248752446071 0  35.25 2.008179894742212 0  36 2.008100443544513 0  36.75 2.008010398852589 0  37.5 2.007909760666018 0  38.25 2.007798528984369 0  39 2.007676703807225 0  39.75 2.007544285134256 0  40.5 2.007401272965326 0  41.25 2.0072476673007 0  42 2.007083468141429 0  42.75 2.006908675490048 0  43.5 2.006723289351837 0  44.25 2.006527309737155 0  45 2.006320736665678 0  45.75 2.006103570174151 0  46.5 2.005875810330511 0  47.25 2.005637457259686 0  48 2.005388511190618 0  48.75 2.00512897254196 0  49.5 2.004858842078266 0  50.25 2.004578121194428 0  51 2.004286812433528 0  51.75 2.003984920429223 0  52.5 2.003672453620023 0  53.25 2.003349427366172 0  54 2.00301586961444 0  54.75 2.002671831188393 0  55.5 2.002317404470408 0  56.25 2.00195275728724 0  57 2.001578194220635 0  57.75 2.001194266640255 0  58.5 2.000801963011118 0  59.25 2.000402989184178 0  60 2 0  0 2.5 0  0.75 2.500506556795516 0  1.5 2.501007460724983 0  2.25 2.501499262101799 0  3 2.501980016943625 0  3.75 2.502448706500653 0  4.5 2.502904791988201 0  5.25 2.503347983515325 0  6 2.503778123532124 0  6.75 2.50419512593465 0  7.5 2.504598943532411 0  8.25 2.504989550428258 0  9 2.505366932403597 0  9.75 2.505731081651611 0  10.5 2.506081993886874 0  11.25 2.506419666757888 0  12 2.506744098975031 0  12.75 2.507055289831546 0  13.5 2.507353238940488 0  14.25 2.507637946090318 0  15 2.507909411165651 0  15.75 2.508167634103781 0  16.5 2.508412614870844 0  17.25 2.508644353448743 0  18 2.50886284982799 0  18.75 2.509068104003785 0  19.5 2.509260115973865 0  20.25 2.50943888573733 0  21 
[...]
<PointData  Scalars="f_10-1"> 
<DataArray  type="Float64"  Name="f_10-1"  format="ascii">8.9982966258618902e+00  8.8880876074057014e+00  8.7744311498757384e+00  8.6619356599094885e+00  8.5491483249362599e+00  8.4364610926014851e+00  8.3237719873486338e+00  8.2111054075369392e+00  8.0984554843094347e+00  7.9858233261749305e+00  7.8732082078082142e+00  7.7606097025248806e+00  7.6480272572703711e+00  7.5354603194366927e+00  7.4229083280778614e+00  7.3103707276997456e+00  7.1978469723802911e+00  7.0853365216888404e+00  6.9728388362120803e+00  6.8603533732061237e+00  6.7478795867095647e+00  6.6354169283522939e+00  6.5229648492469368e+00  6.4105228006287378e+00  6.2980902342551683e+00  6.1856666021167426e+00  6.0732513562797310e+00  5.9608439486938565e+00  5.8484438312136806e+00  5.7360504556432756e+00  5.6236632738141932e+00  5.5112817375945315e+00  5.3989052988500221e+00  5.2865334093640328e+00  5.1741655207620472e+00  5.0618010844629469e+00  4.9494395516688288e+00  4.8370803733846177e+00  4.7247230004524345e+00  4.6123668835852607e+00  4.5000114733906758e+00  4.3876562203818397e+00  4.2753005749776731e+00  4.1629439874969956e+00  4.0505859081502038e+00  3.9382257870321373e+00  3.8258630741161110e+00  3.7134972192513849e+00  3.6011276721615775e+00  3.4887538824445024e+00  3.3763752995724512e+00  3.2639913728924905e+00  3.1516015516263725e+00  3.0392052848698858e+00  2.9268020215907802e+00  2.8143912106250033e+00  2.7019723006679830e+00  2.5895447402610214e+00  2.4771079777596317e+00  2.3646614612892374e+00  2.2522046386384020e+00  2.1397369571271678e+00  2.0272578632751261e+00  1.9147668024363835e+00  1.8022632178782765e+00  1.6897465497532700e+00  1.5772162329351767e+00  1.4646716932011505e+00  1.3521123426628272e+00  1.2395375589466779e+00  1.1269466749684818e+00  1.0143388833397591e+00  9.0171328825575592e-01  7.8906876539648063e-01  6.7640480059366748e-01  5.6372201741015648e-01  4.5102490460952416e-01  3.3832003164913110e-01  2.2561213289838308e-01  1.1292329491033357e-01  1.9964326345729018e-03  9.0004288199037923e+00  8.8873858322194561e+00  8.7746861275207042e+00  8.6618930399385796e+00  8.5491879820442058e+00  8.4364794518221018e+00  8.3237954546810933e+00  8.2111276524299619e+00  8.0984781250138642e+00  7.9858459989114845e+00  7.8732309647172327e+00  7.7606324864499552e+00  7.6480500389949011e+00  7.5354830728065858e+00  7.4229310382167704e+00  7.3103933896959505e+00  7.1978695876351937e+00  7.0853590935136062e+00  6.9728613663282992e+00  6.8603758611414722e+00  6.7479020303231465e+00  6.6354393251506156e+00  6.5229871970611484e+00  6.4105450979889360e+00  6.2981124802646002e+00  6.1856887963049942e+00  6.0732734984148573e+00  5.9608660387137187e+00  5.8484658691886624e+00  5.7360724417728344e+00  5.6236852083983999e+00  5.5113036209883353e+00  5.3989271314033331e+00  5.2865551913731714e+00  5.1741872524447672e+00  5.0618227659618995e+00  4.9494611830753703e+00  4.8371019547710228e+00  4.7247445319008436e+00  4.6123883652068853e+00  4.5000329053334944e+00  4.3876776028290783e+00  4.2753219081410574e+00  4.1629652716082415e+00  4.0506071434534467e+00  3.9382469737782753e+00  3.8258842125596639e+00  3.7135183096487978e+00  3.6011487147708947e+00  3.4887748775255556e+00  3.3763962473872970e+00  3.2640122737058044e+00  3.1516224057058180e+00  3.0392260924863193e+00  2.9268227830185110e+00  2.8144119261418989e+00  2.7019929705560437e+00  2.5895653648064143e+00  2.4771285572548822e+00  2.3646819960333154e+00  2.2522251289453643e+00  2.1397574033284084e+00  2.0272782657496986e+00  1.9147871616365606e+00  1.8022835344096737e+00  1.6897668245875026e+00  1.5772364674175801e+00  1.4646918903051136e+00  1.3521325046996893e+00  1.2395576916566102e+00  1.1269667667392962e+00  1.0143589159019624e+00  9.0173318515416467e-01  7.8908858505519974e-01  6.7642497847229055e-01  5.6374375148268807e-01  4.5104834111725128e-01  3.3834325057144982e-01  2.2563073529794367e-01  1.1300016072395212e-01  -4.6999770274016610e-05  8.9999817849490231e+00  8.8874099358329968e+00  8.7746415767467241e+00  8.6619132371942342e+00  8.5491893163045418e+00  8.4364872128922013e+00  8.3238014689921034e+00  8.2111342318543858e+00  8.0984848020533011e+00  7.9858529434633088e+00  7.8732381346890570e+00  7.7606398727468875e+00  7.6480576223081975e+00  7.5354908404725709e+00  7.4229389827303462e+00  7.3104015099181572e+00  7.1978778859976602e+00  7.0853675730133592e+00  6.9728700282722915e+00  6.8603847049303281e+00  6.7479110541734535e+00  6.6354485271441757e+00  6.5229965757136457e+00  6.4105546524481376e+00  6.2981222101806109e+00  6.1856987016627381e+00  6.0732835793782467e+00  5.9608762955574024e+00  5.8484763022660919e+00  5.7360830515073387e+00  5.6236959952592187e+00  5.5113145854559278e+00  5.3989382739280529e+00  5.2865665123457246e+00  5.1741987521855997e+00  5.0618344447314474e+00  4.9494730410971481e+00  4.8371139922581792e+00  4.7247567490777049e+00  4.6124007623213794e+00  4.5000454826602754e+00  4.3876903606658848e+00  4.2753348468017185e+00  4.1629783914151215e+00  4.0506204447312673e+00  3.9382604568498305e+00  3.8258978777435928e+00  3.7135321572586277e+00  3.6011627451150456e+00  3.4887890909077259e+00  3.3764106441069672e+00  3.2640268540587636e+00  3.1516371699847179e+00  3.0392410409813482e+00  2.9268379160184037e+00  2.8144272439358433e+00  2.7020084734367567e+00  2.5895810530768384e+00  2.4771444312378641e+00  2.3646980560952735e+00  2.2522413755250854e+00  2.1397738370163535e+00  2.0272948873703953e+00  1.9148039724894115e+00  1.8023005365207798e+00  1.6897840213105959e+00  1.5772538643701868e+00  1.4647094963149994e+00  1.3521503355426536e+00  1.2395757696709586e+00  1.1269851293900151e+00  1.0143776116101193e+00  9.0175225505866008e-01  7.8910815519344768e-01  6.7644513544528084e-01  5.6376483611223027e-01  4.5106921467976868e-01  3.3836119793858827e-01  2.2563944845704659e-01  1.1287561991973445e-01  -2.6334631558273339e-05  9.0000060346589592e+00  8.8873248721593221e+00  8.7746167761817855e+00  8.6618841922676371e+00  8.5491657216821650e+00  8.4364624125107444e+00  8.3237772995161610e+00  8.2111102202564261e+00  8.0984611268330529e+00  7.9858295863447291e+00  7.8732151263383212e+00  7.7606172270844160e+00  7.6480353556285401e+00  7.5354689697711770e+00  7.4229175244507877e+00  7.3103804752078076e+00  7.1978572786532249e+00  7.0853473911677041e+00  6.9728502678035369e+00  6.8603653621444209e+00  6.7478921269492762e+00  6.6354300147754195e+00  6.5229784783233313e+00  6.4105369704318385e+00  6.2981049439340859e+00  6.1856818515118848e+00  6.0732671456237108e+00  5.9608602785121718e+00  5.8484607022503390e+00  5.7360678687959892e+00  5.6236812300213312e+00  5.5113002377171458e+00  5.3989243435751160e+00  5.2865529991657843e+00  5.1741856559219723e+00  5.0618217651339492e+00  4.9494607779540676e+00  4.8371021454063579e+00  4.7247453183956498e+00  4.6123897477134195e+00  4.5000348840393016e+00  4.3876801779394805e+00  4.2753250798634612e+00  4.1629690401407009e+00  4.0506115089779682e+00  3.9382519364577799e+00  3.8258897725376411e+00  3.7135244670500422e+00  3.6011554697027628e+00  3.4887822300792353e+00  3.3764041976388830e+00  3.2640208217173412e+00  3.1516315515264535e+00  3.0392358361540261e+00  2.9268331245629722e+00  2.8144228655895982e+00  2.7020045079404085e+00  2.5895775001847015e+00  2.4771412907448567e+00  2.3646953278674636e+00  2.2522390595998956e+00  2.1397719336849357e+00  2.0272933975260576e+00  1.9148028978254148e+00  1.8022998806130188e+00  1.6897837900343118e+00  1.5772540685799590e+00  1.4647101525654802e+00  1.3521514707752427e+00  1.2395774256067660e+00  1.1269873815460656e+00  1.0143806197035166e+00  9.0175638329535934e-01  7.8911398592282422e-01  6.7645324604947399e-01  5.6377450271720764e-01  4.5107839546061451e-01  3.3836420020126545e-01  2.2562450896489619e-01  1.1284407882225908e-01  5.7036270579208130e-06  8.9999887943573498e+00  8.8873107853680224e+00  8.7745911003832369e+00  8.6618624840115483e+00  8.5491418556302179e+00  8.4364385371471595e+00  8.3237534221500784e+00  8.2110867633047224e+00  8.0984381590088432e+00  7.9858071689399095e+00  7.8731932857910953e+00  7.7605959867217420e+00  7.6480147354091192e+00  7.5354489886601748e+00  7.4228981989307599e+00  7.3103618166119189e+00  7.1978392916604959e+00  7.0853300751490105e+00  6.9728336194813405e+00  6.8603493781632157e+00  6.7478768051399145e+00  6.6354153543252874e+00  6.5229644793310246e+00  6.4105236333995048e+00  6.2980922694396257e+00  6.1856698400826495e+00  6.0732557977358583e+00  5.9608495946128111e+00  5.8484506827568241e+00  5.7360585140584659e+00  5.6236725402765817e+00  5.5112922130585247e+00  5.3989169839569371e+00  5.2865463044378327e+00  5.1741796258799226e+00  5.0618163995666068e+00  4.9494560766751352e+00  4.8370981082663329e+00  4.7247419452773585e+00  4.6123870385180394e+00  4.5000328386699904e+00  4.3876787962874859e+00  4.2753243617988526e+00  4.1629689855077725e+00  4.0506121175940795e+00  3.9382532081142245e+00  3.8258917070012721e+00  3.7135270640649205e+00  3.6011587289914266e+00  3.4887861513436271e+00  3.3764087805609662e+00  3.2640260659596643e+00  3.1516374567329057e+00  3.0392424019509887e+00  2.9268403505615930e+00  2.8144307513898941e+00  2.7020130531388475e+00  2.5895867043895375e+00  2.4771511536003681e+00  2.3647058491104826e+00  2.2522502391305319e+00  2.1397837717669268e+00  2.0273058949659570e+00  1.9148160566503016e+00  1.8023137044305937e+00  1.6897982862054235e+00  1.5772692486270201e+00  1.4647260388307528e+00  1.3521680962899778e+00  1.2395948557686780e+00  1.1270057183748168e+00  1.0144000744377144e+00  9.0177727826066834e-01  7.8913678061880876e-01  6.7647807554837125e-01  5.6380075643465355e-01  4.5110416932840153e-01  3.3838575238923907e-01  2.2563883857420325e-01  1.1284471782810730e-01  1.0259227333534843e-05  9.0000054410154018e+00  8.8873037389096812e+00  8.7745783608289152e+00  8.6618359906073561e+00  8.5491132435096873e+00  8.4364085966848403e+00  8.3237237181957457e+00  8.2110575686536187e+00  8.0984096817090148e+00  7.9857794638861277e+00  7.8731663937466463e+00  7.7605699341278598e+00  7.6479895446389676e+00  7.5354246795128814e+00  7.4228747881547683e+00  7.3103393154674610e+00  7.1978177048987062e+00  7.0853094021398118e+00  6.9728138570328699e+00  6.8603305229672245e+00  6.7478588551307261e+00  6.6353983088292479e+00  6.5229483386342091e+00  6.4105083982180284e+00  6.2980779405662783e+00  6.1856564182474996e+00  6.0732432835919568e+00  5.9608379887622887e+00  5.8484399857511349e+00  5.7360487263689963e+00  5.6236636622506415e+00  5.5112842448920842e+00  5.3989099256976933e+00  5.2865401560189751e+00  5.1741743871690362e+00  5.0618120704127589e+00  4.9494526569408039e+00  4.8370955978401726e+00  4.7247403440704385e+00  4.6123863464504833e+00  4.5000330556548347e+00  4.3876799222168028e+00  4.2753263965342798e+00  4.1629719288756890e+00  4.0506159693842481e+00  3.9382579680804763e+00  3.8258973748630400e+00  3.7135336395088467e+00  3.6011662116726240e+00  3.4887945408866083e+00  3.3764180765603089e+00  3.2640362679806012e+00  3.1516485643120884e+00  3.0392544145977496e+00  2.9268532677601420e+00  2.8144445726034686e+00  2.7020277778176860e+00  2.5896023319844410e+00  2.4771676835922749e+00  2.3647232810521048e+00  2.2522685727530374e+00  2.1398030070934548e+00  2.0273260326802061e+00  1.9148370983584428e+00  1.8023356538900124e+00  1.6898211498408566e+00  1.5772930396253266e+00  1.4647507783527594e+00  1.3521938272574834e+00  1.2396216466554424e+00  1.1270337032713305e+00  1.0144294529123570e+00  9.0180838444636535e-01  7.8916998152847606e-01  6.7651364280198689e-01  5.6383796049818369e-01  4.5114122751132357e-01  3.3842268923618407e-01  2.2567446978076725e-01  1.1287542658960835e-01  5.7445903770576450e-06  8.9999836594466309e+00  8.8873664982304952e+00  8.7745603582325682e+00  8.6618148369988877e+00  8.5490831676113199e+00  8.4363791044356713e+00  8.3236941993970781e+00  8.2110290052890313e+00  8.0983820586800874e+00  7.9857528845444845e+00  7.8731408861899714e+00  7.7605455282468636e+00  7.6479662608930123e+00  7.5354025376310618e+00  7.4228538051260671e+00  7.3103195023015450e+00  7.1977990652065307e+00  7.0852919339439211e+00  6.9727975560733890e+00  6.8603153854113010e+00  6.7478448786928045e+00  6.6353854927287950e+00  6.5229366829912854e+00  6.4104979035040808e+00  6.2980686072646126e+00  6.1856482467508460e+00  6.0732362742103909e+00  5.9608321417582042e+00  5.8484353013376795e+00  5.7360452046726289e+00  5.6236613032599987e+00  5.5112830484263000e+00  5.3989098914093194e+00  5.2865412834295391e+00  5.1741766757202585e+00  5.0618155195147860e+00  4.9494572660042708e+00  4.8371013662882207e+00  4.7247472713342873e+00  4.6123944319556696e+00  4.5000422988050692e+00  4.3876903223803181e+00  4.2753379530346676e+00  4.1629846409872142e+00  4.0506298363304660e+00  3.9382729890347359e+00  3.8259135489497811e+00  3.7135509658048793e+00  3.6011846892081354e+00  3.4888141686458334e+00  3.3764388534819822e+00  3.2640581929583479e+00  3.1516716361949420e+00  3.0392786321911012e+00  2.9268786298273834e+00  2.8144710778695035e+00  2.7020554249744584e+00  2.5896311197044639e+00  2.4771976105460189e+00  2.3647543459593785e+00  2.2523007744322698e+00  2.1398363446459010e+00  2.0273605056126160e+00  1.9148727071921856e+00  1.8023724004654549e+00  1.6898590391864639e+00  1.5773320811973892e+00  1.4647909916722377e+00  1.3522352488592693e+00  1.2396643455650906e+00  1.1270778025821862e+00  1.0144751514571844e+00  9.0185595807101859e-01  7.8921985823095964e-01  6.7656625215871602e-01  5.6389333598257974e-01  4.5119658408571872e-01  3.3847922702059968e-01  2.2574429342178257e-01  1.1294464975056326e-01  -2.4000634143634204e-05  9.0004412959083773e+00  8.8872926687430382e+00  8.7745514208969517e+00  8.6617374426094162e+00  8.5490240153663191e+00  8.4363136030892978e+00  8.3236314643959819e+00  8.2109671482143369e+00  8.0983217844525157e+00  7.9856940574815010e+00  7.8730835210472589e+00  7.7604895959637314e+00  7.6479117518845001e+00  7.5353494463523765e+00  7.4228021329119729e+00  7.3102692550772499e+00  7.1977502511786193e+00  7.0852445600992224e+00  6.9727516264276561e+00  6.8602709009339122e+00  6.7478018386508891e+00  6.6353438960022588e+00  6.5228965289823959e+00  6.4104591923669787e+00  6.2980313398108576e+00  6.1856124241884656e+00  6.0732018979411428e+00  5.9607992132434049e+00  5.8484038220482129e+00  5.7360151760651128e+00  5.6236327267588759e+00  5.5112559253912803e+00  5.3988842230992029e+00  5.2865170709731109e+00  5.1741539201068498e+00  5.0617942216053233e+00  4.9494374265569272e+00  4.8370829859882196e+00  4.7247303508190370e+00  4.6123789718302737e+00  4.5000282996476004e+00  4.3876777847393216e+00  4.2753268774225042e+00  4.1629750278722994e+00  4.0506216861306799e+00  3.9382663021126656e+00  3.8259083256099853e+00  3.7135472062927000e+00  3.6011823937094163e+00  3.4888133372871950e+00  3.3764394863312823e+00  3.2640602900252302e+00  3.1516751974314281e+00  3.0392836574923492e+00  2.9268851190329213e+00  2.8144790307650442e+00  2.7020648412956096e+00  2.5896419991422426e+00  2.4772099527594587e+00  2.3647681505919129e+00  2.2523160411546992e+00  2.1398530732030467e+00  2.0273786959609432e+00  1.9148923596375729e+00  1.8023935160575728e+00  1.6898816202246039e+00  1.5773561321496721e+00  1.4648165214422808e+00  1.3522622721385285e+00  1.2396928915185519e+00  1.1271079155490893e+00  1.0145069013626669e+00  9.0188944093285439e-01  7.8925505800250606e-01  6.7660321168850523e-01  5.6393225827025550e-01  4.5123981786006384e-01  3.3852739006006827e-01  2.2579636058717223e-01  1.1311833426223215e-01  -4.5880241215745709e-05  8.9982197757525455e+00  8.8879259935393478e+00  8.7742315609648660e+00  8.6617190542245410e+00  8.5489239610622505e+00  8.4362366943247196e+00  8.3235510181453449e+00  8.2108898212871111e+00  8.0982459709359471e+00  7.9856200794665053e+00  7.8730112347411456e+00  7.7604189823221841e+00  7.6478427830078175e+00  7.5352821114934043e+00  7.4227364299600129e+00  7.3102051893468509e+00  7.1976878314336865e+00  7.0851837940273494e+00  6.9726925185184436e+00  6.8602134521716520e+00  6.7477460481206393e+00  6.6352897622676936e+00  6.5228440511959622e+00  6.4104083704965502e+00  6.2979821745865090e+00  6.1855649167980404e+00  6.0731560498214492e+00  5.9607550259250370e+00  5.8483612971055576e+00  5.7359743150876188e+00  5.6235935313288739e+00  5.5112183970416719e+00  5.3988483632657118e+00  5.2864828809548756e+00  5.1741214010503951e+00  5.0617633745140553e+00  4.9494082523190235e+00  4.8370554854113257e+00  4.7247045246606874e+00  4.6123548208179965e+00  4.5000058244872889e+00  4.3876569861144086e+00  4.2753077559876251e+00  4.1629575842452891e+00  4.0506059208851974e+00  3.9382522157727804e+00  3.8258959186469674e+00  3.7135364791233969e+00  3.6011733466958491e+00  3.4888059707368551e+00  3.3764338004976016e+00  3.2640562851082109e+00  3.1516728735782000e+00  3.0392830147977197e+00  2.9268861575399026e+00  2.8144817504655677e+00  2.7020692421310066e+00  2.5896480810046834e+00  2.4772177154925679e+00  2.3647775939949982e+00  2.2523271649848469e+00  2.1398658771889019e+00  2.0273931798160709e+00  1.9149085230943543e+00  1.8024113589513777e+00  1.6899011424789039e+00  1.5773773342894855e+00  1.4648394038377714e+00  1.3522868383181323e+00  1.2397191440602982e+00  1.1271358749593849e+00  1.0145365882371244e+00  9.0192092130170609e-01  7.8928831346279038e-01  6.7663824389662153e-01  5.6396952703639947e-01  4.5128179808586266e-01  3.3857415833502130e-01  2.2584751480700141e-01  1.1311198620257963e-01  2.0679696720780905e-03  8.9443929572683061e+00  8.8310742050776447e+00  8.7183477293686966e+00  8.6056039480086230e+00  8.4928920409020066e+00  8.3801975473338999e+00  8.2675211105197057e+00  8.1548625447740850e+00  8.0422216191861668e+00  7.9295979880518850e+00  7.8169911847902629e+00  7.7044006947734562e+00  7.5918259744957117e+00  7.4792664713731565e+00  7.3667216324124647e+00  7.2541909115831338e+00  7.1416737675481761e+00  7.0291696605321157e+00  6.9166780482591514e+00  6.8041983854590811e+00  6.6917301244423406e+00  6.5792727166807827e+00  6.4668256136394442e+00  6.3543882671843583e+00  6.2419601294484544e+00  6.1295406526404292e+00  6.0171292888732744e+00  5.9047254901319493e+00  5.7923287083156536e+00  5.6799383953039255e+00  5.5675540029871513e+00  5.4551749832446079e+00  5.3428007878851673e+00  5.2304308685795071e+00  5.1180646768121623e+00  5.0057016638644143e+00  4.8933412808260428e+00  4.7809829786227036e+00  4.6686262080461276e+00  4.5562704197768635e+00  4.4439150643962781e+00  4.3315595923884800e+00  4.2192034541359620e+00  4.1068460999124428e+00  3.9944869798759748e+00  3.8821255440638378e+00  3.7697612423891536e+00  3.6573935246395770e+00  3.5450218404769482e+00  3.4326456394374927e+00  3.3202643709321591e+00  3.2078774842466742e+00  3.0954844285411305e+00  2.9830846528486115e+00  2.8706776060721029e+00  2.7582627369787640e+00  2.6458394941875705e+00  2.5334073261499763e+00  2.4209656811051978e+00  2.3085140070215844e+00  2.1960517514454723e+00  2.0835783613417407e+00  1.9710932826250078e+00  1.8585959597539179e+00  1.7460858344515786e+00  1.6335623445190297e+00  1.5210249207641855e+00  1.4084729814186261e+00  1.2959059232503143e+00  1.1833230925369576e+00  1.0707237531237168e+00  9.5810704255293999e-01  8.4547197271564356e-01  7.3281795013137263e-01  6.2014504584788688e-01  5.0745602729355221e-01  3.9475472927520056e-01  2.8204852613271847e-01  1.6934895977838446e-01  5.6788270479543511e-02  8.9435551458949405e+00  8.8310378605559414e+00  8.7182236776875968e+00  8.6055067473414955e+00  8.4927906052117557e+00  8.3800970361913567e+00  8.2674203706553708e+00  8.1547619544112617e+00  8.0421212074046373e+00  7.9294977731896168e+00  7.8168911421317357e+00  7.7043007941818695e+00  7.5917261882895097e+00  7.4791667778863795e+00  7.3666220193164778e+00  7.2540913753200025e+00  7.1415743101839348e+00  7.0290702850855773e+00  6.9165787560716563e+00  6.8040991754738407e+00  6.691630994