<?xml version="1.0"?>
<VTKFile type="UnstructuredGrid"  version="0.1"  >
<UnstructuredGrid>
<Piece  NumberOfPoints="1369" NumberOfCells="2560">
<Points>
<DataArray  type="Float64"  NumberOfComponents="3"  format="ascii">0 0 0  0.75 0 0  1.5 0 0  2.25 0 0  3 0 0  3.75 0 0  4.5 0 0  5.25 0 0  6 0 0  6.75 0 0  7.5 0 0  8.25 0 0  9 0 0  9.75 0 0  10.5 0 0  11.25 0 0  12 0 0  12.75 0 0  13.5 0 0  14.25 0 0  15 0 0  15.75 0 0  16.5 0 0  17.25 0 0  18 0 0  18.75 0 0  19.5 0 0  20.25 0 0  21 0 0  21.75 0 0  22.5 0 0  23.25 0 0  24 0 0  24.75 0 0  25.5 0 0  26.25 0 0  27 0 0  27.75 0 0  28.5 0 0  29.25 0 0  30 0 0  30.75 0 0  31.5 0 0  32.25 0 0  33 0 0  33.75 0 0  34.5 0 0  35.25 0 0  36 0 0  36.75 0 0  37.5 0 0  38.25 0 0  39 0 0  39.75 0 0  40.5 0 0  41.25 0 0  42 0 0  42.75 0 0  43.5 0 0  44.25 0 0  45 0 0  45.75 0 0  46.5 0 0  47.25 0 0  48 0 0  48.75 0 0  49.5 0 0  50.25 0 0  51 0 0  51.75 0 0  52.5 0 0  53.25 0 0  54 0 0  54.75 0 0  55.5 0 0  56.25 0 0  57 0 0  57.75 0 0  58.5 0 0  59.25 0 0  60 0 0  0 0.5 0  0.75 0.5000636925926315 0  1.5 0.5001268708018867 0  2.25 0.5001891371164394 0  3 0.5002501952918148 0  3.75 0.5003098477059916 0  4.5 0.500367972543998 0  5.25 0.5004244983922855 0  6 0.5004793845808291 0  6.75 0.5005326083122316 0  7.5 0.5005841569158642 0  8.25 0.5006340233817674 0  9 0.5006822038414972 0  9.75 0.5007286961633173 0  10.5 0.5007734991735382 0  11.25 0.5008166122263206 0  12 0.500858034966439 0  12.75 0.5008977671985867 0  13.5 0.5009358088154263 0  14.25 0.5009721597579965 0  15 0.5010068199939323 0  15.75 0.501039789505487 0  16.5 0.5010710682829453 0  17.25 0.5011006563210034 0  18 0.5011285536167797 0  18.75 0.5011547601687204 0  19.5 0.5011792759759995 0  20.25 0.5012021010381887 0  21 0.5012232353550767 0  21.75 0.5012426789265684 0  22.5 0.5012604317526307 0  23.25 0.5012764938332634 0  24 0.5012908651684826 0  24.75 0.50130354575831 0  25.5 0.5013145356027697 0  26.25 0.501323834701885 0  27 0.5013314430556769 0  27.75 0.5013373606641632 0  28.5 0.5013415875273572 0  29.25 0.5013441236452695 0  30 0.5013449690179066 0  30.75 0.5013441236452695 0  31.5 0.5013415875273572 0  32.25 0.5013373606641632 0  33 0.5013314430556769 0  33.75 0.5013238347018851 0  34.5 0.5013145356027698 0  35.25 0.50130354575831 0  36 0.5012908651684826 0  36.75 0.5012764938332634 0  37.5 0.5012604317526307 0  38.25 0.5012426789265684 0  39 0.5012232353550767 0  39.75 0.5012021010381887 0  40.5 0.5011792759759996 0  41.25 0.5011547601687204 0  42 0.5011285536167797 0  42.75 0.5011006563210034 0  43.5 0.5010710682829453 0  44.25 0.501039789505487 0  45 0.5010068199939323 0  45.75 0.5009721597579965 0  46.5 0.5009358088154263 0  47.25 0.5008977671985867 0  48 0.500858034966439 0  48.75 0.5008166122263206 0  49.5 0.5007734991735382 0  50.25 0.5007286961633173 0  51 0.5006822038414972 0  51.75 0.5006340233817674 0  52.5 0.5005841569158642 0  53.25 0.5005326083122316 0  54 0.5004793845808291 0  54.75 0.5004244983922855 0  55.5 0.500367972543998 0  56.25 0.5003098477059916 0  57 0.5002501952918148 0  57.75 0.5001891371164394 0  58.5 0.5001268708018867 0  59.25 0.5000636925926315 0  60 0.5 0  0 1 0  0.75 1.000127597537228 0  1.5 1.000254133427605 0  2.25 1.000378797294653 0  3 1.000500999564438 0  3.75 1.000620356679621 0  4.5 1.000736636884389 0  5.25 1.000849706068607 0  6 1.000959488424741 0  6.75 1.001065941630724 0  7.5 1.001169042214779 0  8.25 1.001268777206012 0  9 1.001365139450739 0  9.75 1.00145812500812 0  10.5 1.001547731708779 0  11.25 1.0016339583591 0  12 1.0017168043026 0  12.75 1.001796269178353 0  13.5 1.001872352788003 0  14.25 1.001945055022598 0  15 1.002014375822333 0  15.75 1.002080315154417 0  16.5 1.002142873000903 0  17.25 1.002202049351991 0  18 1.002257844202363 0  18.75 1.002310257549151 0  19.5 1.002359289390832 0  20.25 1.002404939726618 0  21 1.002447208556122 0  21.75 1.002486095879171 0  22.5 1.002521601695706 0  23.25 1.002553726005731 0  24 1.002582468809276 0  24.75 1.002607830106385 0  25.5 1.002629809897102 0  26.25 1.002648408181473 0  27 1.002663624959539 0  27.75 1.002675460231331 0  28.5 1.002683913996879 0  29.25 1.002688986256199 0  30 1.002690677009304 0  30.75 1.002688986256199 0  31.5 1.002683913996879 0  32.25 1.002675460231331 0  33 1.002663624959539 0  33.75 1.002648408181473 0  34.5 1.002629809897102 0  35.25 1.002607830106385 0  36 1.002582468809276 0  36.75 1.002553726005731 0  37.5 1.002521601695706 0  38.25 1.002486095879171 0  39 1.002447208556122 0  39.75 1.002404939726619 0  40.5 1.002359289390832 0  41.25 1.002310257549151 0  42 1.002257844202363 0  42.75 1.002202049351991 0  43.5 1.002142873000903 0  44.25 1.002080315154417 0  45 1.002014375822333 0  45.75 1.001945055022598 0  46.5 1.001872352788003 0  47.25 1.001796269178353 0  48 1.0017168043026 0  48.75 1.0016339583591 0  49.5 1.001547731708779 0  50.25 1.00145812500812 0  51 1.001365139450739 0  51.75 1.001268777206012 0  52.5 1.001169042214779 0  53.25 1.001065941630724 0  54 1.000959488424741 0  54.75 1.000849706068607 0  55.5 1.000736636884389 0  56.25 1.000620356679621 0  57 1.000500999564438 0  57.75 1.000378797294653 0  58.5 1.000254133427605 0  59.25 1.000127597537228 0  60 1 0  0 1.5 0  0.75 1.500191943138 0  1.5 1.500382202513446 0  2.25 1.500569524187435 0  3 1.500753036516052 0  3.75 1.500932197453666 0  4.5 1.501106690275624 0  5.25 1.501276335419488 0  6 1.501441032529815 0  6.75 1.5016007259192 0  7.5 1.501755384802778 0  8.25 1.501904992197245 0  9 1.502049538744414 0  9.75 1.502189019291487 0  10.5 1.502323431002646 0  11.25 1.502452772317808 0  12 1.502577042379008 0  12.75 1.502696240714571 0  13.5 1.50281036706529 0  14.25 1.502919421288794 0  15 1.503023403306943 0  15.75 1.503122313076896 0  16.5 1.50321615057521 0  17.25 1.503304915789092 0  18 1.503388608711598 0  18.75 1.503467229338991 0  19.5 1.50354077766929 0  20.25 1.503609253701473 0  21 1.50367265743504 0  21.75 1.503730988869773 0  22.5 1.503784248005601 0  23.25 1.503832434842535 0  24 1.50387554938062 0  24.75 1.503913591619916 0  25.5 1.503946561560487 0  26.25 1.503974459202396 0  27 1.503997284545698 0  27.75 1.504015037590439 0  28.5 1.504027718336655 0  29.25 1.504035326784375 0  30 1.504037862933613 0  30.75 1.504035326784375 0  31.5 1.504027718336656 0  32.25 1.504015037590439 0  33 1.503997284545698 0  33.75 1.503974459202396 0  34.5 1.503946561560487 0  35.25 1.503913591619916 0  36 1.50387554938062 0  36.75 1.503832434842535 0  37.5 1.503784248005601 0  38.25 1.503730988869773 0  39 1.50367265743504 0  39.75 1.503609253701473 0  40.5 1.50354077766929 0  41.25 1.503467229338991 0  42 1.503388608711598 0  42.75 1.503304915789092 0  43.5 1.50321615057521 0  44.25 1.503122313076896 0  45 1.503023403306943 0  45.75 1.502919421288794 0  46.5 1.50281036706529 0  47.25 1.502696240714571 0  48 1.502577042379008 0  48.75 1.502452772317808 0  49.5 1.502323431002646 0  50.25 1.502189019291487 0  51 1.502049538744414 0  51.75 1.501904992197245 0  52.5 1.501755384802778 0  53.25 1.5016007259192 0  54 1.501441032529815 0  54.75 1.501276335419488 0  55.5 1.501106690275624 0  56.25 1.500932197453666 0  57 1.500753036516052 0  57.75 1.500569524187435 0  58.5 1.500382202513446 0  59.25 1.500191943138 0  60 1.5 0  0 2 0  0.75 2.000256994608634 0  1.5 2.000511542805291 0  2.25 2.000761904033146 0  3 2.001006958838951 0  3.75 2.001246058272409 0  4.5 2.001478840238592 0  5.25 2.001705104629097 0  6 2.001924741114893 0  6.75 2.002137688913746 0  7.5 2.002343914551865 0  8.25 2.002543399599583 0  9 2.002736133912522 0  9.75 2.002922111908137 0  10.5 2.003101330515041 0  11.25 2.003273788043837 0  12 2.003439483565539 0  12.75 2.00359841656946 0  13.5 2.003750586774977 0  14.25 2.003895994027964 0  15 2.004034638243839 0  15.75 2.004166519376239 0  16.5 2.004291637399799 0  17.25 2.004409992300687 0  18 2.004521584071401 0  18.75 2.004626412707908 0  19.5 2.004724478208079 0  20.25 2.00481578057082 0  21 2.004900319795601 0  21.75 2.004978095882199 0  22.5 2.005049108830546 0  23.25 2.005113358640663 0  24 2.005170845312605 0  24.75 2.005221568846448 0  25.5 2.005265529242269 0  26.25 2.005302726500139 0  27 2.005333160620122 0  27.75 2.005356831602274 0  28.5 2.005373739446638 0  29.25 2.005383884153244 0  30 2.005387265722109 0  30.75 2.005383884153244 0  31.5 2.005373739446638 0  32.25 2.005356831602274 0  33 2.005333160620122 0  33.75 2.005302726500139 0  34.5 2.005265529242269 0  35.25 2.005221568846448 0  36 2.005170845312605 0  36.75 2.005113358640663 0  37.5 2.005049108830546 0  38.25 2.004978095882199 0  39 2.004900319795601 0  39.75 2.00481578057082 0  40.5 2.004724478208079 0  41.25 2.004626412707908 0  42 2.004521584071401 0  42.75 2.004409992300687 0  43.5 2.004291637399799 0  44.25 2.004166519376239 0  45 2.004034638243839 0  45.75 2.003895994027964 0  46.5 2.003750586774977 0  47.25 2.00359841656946 0  48 2.003439483565539 0  48.75 2.003273788043837 0  49.5 2.003101330515041 0  50.25 2.002922111908137 0  51 2.002736133912522 0  51.75 2.002543399599583 0  52.5 2.002343914551865 0  53.25 2.002137688913746 0  54 2.001924741114893 0  54.75 2.001705104629097 0  55.5 2.001478840238592 0  56.25 2.001246058272409 0  57 2.001006958838951 0  57.75 2.000761904033146 0  58.5 2.000511542805291 0  59.25 2.000256994608634 0  60 2 0  0 2.5 0  0.75 2.500323088566413 0  1.5 2.500642706485239 0  2.25 2.500956589507007 0  3 2.501263460923511 0  3.75 2.50156265171716 0  4.5 2.501853808068939 0  5.25 2.502136739556869 0  6 2.502411342635584 0  6.75 2.502677560671528 0  7.5 2.502935362594318 0  8.25 2.50318473133191 0  9 2.503425657497221 0  9.75 2.50365813592739 0  10.5 2.503882163782801 0  11.25 2.504097739501816 0  12 2.504304862225791 0  12.75 2.504503531482749 0  13.5 2.504693747013355 0  14.25 2.504875508675193 0  15 2.505048816390118 0  15.75 2.505213670115306 0  16.5 2.505370069827341 0  17.25 2.505518015513458 0  18 2.505657507166746 0  18.75 2.505788544783497 0  19.5 2.505911128361763 0  20.25 2.506025257900547 0  21 2.5061309333
[...]
<PointData  Scalars="f_10-1"> 
<DataArray  type="Float64"  Name="f_10-1"  format="ascii">6.3619162011362755e+00  6.2845883504623403e+00  6.2047983630066881e+00  6.1252881876652463e+00  6.0457437833315693e+00  5.9662076014814547e+00  5.8866732218281621e+00  5.8071402643974981e+00  5.7276078073806698e+00  5.6480752973658754e+00  5.5685423771369624e+00  5.4890088341401047e+00  5.4094745411874774e+00  5.3299393835911024e+00  5.2504032638826246e+00  5.1708660988593262e+00  5.0913278456975357e+00  5.0117884989761627e+00  4.9322480899044185e+00  4.8527066705508810e+00  4.7731643048844248e+00  4.6936210582051103e+00  4.6140769936502650e+00  4.5345321689066855e+00  4.4549866365239357e+00  4.3754404435061192e+00  4.2958936324019001e+00  4.2163462414886350e+00  4.1367983057165532e+00  4.0572498569762701e+00  3.9777009248213080e+00  3.8981515367338377e+00  3.8186017186477148e+00  3.7390514951678129e+00  3.6595008899184434e+00  3.5799499256987426e+00  3.5003986246971031e+00  3.4208470085918878e+00  3.3412950986778802e+00  3.2617429159310873e+00  3.1821904810846497e+00  3.1026378146738942e+00  3.0230849370861934e+00  2.9435318685965672e+00  2.8639786294052425e+00  2.7844252396691784e+00  2.7048717195342968e+00  2.6253180891654191e+00  2.5457643687763483e+00  2.4662105786592270e+00  2.3866567392138709e+00  2.3071028709770189e+00  2.2275489946515505e+00  2.1479951311359522e+00  2.0684413015539524e+00  1.9888875272848821e+00  1.9093338299945570e+00  1.8297802316684182e+00  1.7502267546448640e+00  1.6706734216577825e+00  1.5911202558698290e+00  1.5115672809523892e+00  1.4320145210801252e+00  1.3524620011852184e+00  1.2729097466511314e+00  1.1933577843970344e+00  1.1138061409839555e+00  1.0342548470323480e+00  9.5470393002341014e-01  8.7515342517379802e-01  7.9560337508453793e-01  7.1605378280468290e-01  6.3650491599571257e-01  5.5695626503326690e-01  4.7740986139783459e-01  3.9785919502427436e-01  3.1831967042020459e-01  2.3874919152509702e-01  1.5934750882945534e-01  7.9363257702852935e-02  1.7331340431128838e-03  6.3642278703344966e+00  6.2842607370234482e+00  6.2048153848752658e+00  6.1252604344808441e+00  6.0457205569975834e+00  5.9661821949516893e+00  5.8866466702712472e+00  5.8071127722924611e+00  5.7275796953850380e+00  5.6480467732597459e+00  5.5685135769606982e+00  5.4889798330130013e+00  5.4094453745463307e+00  5.3299100796220955e+00  5.2503738511470042e+00  5.1708366131314083e+00  5.0912983216628271e+00  5.0117589654428008e+00  4.9322185647467673e+00  4.8526771609897308e+00  4.7731348090583303e+00  4.6935915686483618e+00  4.6140474999268024e+00  4.5345026601142395e+00  4.4549571024636974e+00  4.3754108755718999e+00  4.2958640236230021e+00  4.2163165865807342e+00  4.1367686007511093e+00  4.0572200992020795e+00  3.9776711123414086e+00  3.8981216683378772e+00  3.8185717935930614e+00  3.7390215130719211e+00  3.6594708506324269e+00  3.5799198292486984e+00  3.5003684712175649e+00  3.4208167982968152e+00  3.3412648318277607e+00  3.2617125928195714e+00  3.1821601020230221e+00  3.1026073799852960e+00  3.0230544470985823e+00  2.9435013236403562e+00  2.8639480298102504e+00  2.7843945857637276e+00  2.7048410116439743e+00  2.6252873276127664e+00  2.5457335538804018e+00  2.4661797107354677e+00  2.3866258185741089e+00  2.3070718979294469e+00  2.2275179695008100e+00  2.1479640541832792e+00  2.0684101730974236e+00  1.9888563476196799e+00  1.9093025994137747e+00  1.8297489504633986e+00  1.7501954231086156e+00  1.6706420400837854e+00  1.5910888245687667e+00  1.5115358002350650e+00  1.4319829913414073e+00  1.3524304227842414e+00  1.2728781202984820e+00  1.1933261105743578e+00  1.1137744212999894e+00  1.0342230828589927e+00  9.5467212325625961e-01  8.7512158726268174e-01  7.9557148549334045e-01  7.1602194048853240e-01  6.3647286901768296e-01  5.5692471603976856e-01  4.7737680877197214e-01  3.9782998441990974e-01  3.1827926855749483e-01  2.3874888939116759e-01  1.5919913132939911e-01  7.9702335219654197e-02  -3.8305814843787568e-04  6.3639524510362193e+00  6.2843645288768863e+00  6.2047947608727325e+00  6.1252474056738677e+00  6.0457027594884538e+00  5.9661634921454771e+00  5.8866275697058761e+00  5.8070936276663963e+00  5.7275605950902566e+00  5.6480277205009140e+00  5.5684945209353005e+00  5.4889607258882256e+00  5.4094262004952345e+00  5.3298908572754673e+00  5.2503546119215718e+00  5.1708173851672905e+00  5.0912791178706129e+00  5.0117397855424093e+00  4.9321993981117682e+00  4.8526579929472300e+00  4.7731156239683319e+00  4.6935723526473154e+00  4.6140282415548333e+00  4.5344833506866902e+00  4.4549377356785822e+00  4.3753914471841364e+00  4.2958445309116131e+00  4.2162970279868359e+00  4.1367489754769275e+00  4.0572004069792644e+00  3.9776513531971442e+00  3.8981018424865437e+00  3.8185519013242972e+00  3.7390015547147395e+00  3.6594508265105059e+00  3.5798997396750409e+00  3.5003483164797462e+00  3.4207965786602053e+00  3.3412445475319146e+00  3.2616922440818281e+00  3.1821396890382947e+00  3.1025869029282660e+00  3.0230339061242608e+00  2.9434807188850733e+00  2.8639273613922107e+00  2.7843738537833831e+00  2.7048202161844253e+00  2.6252664687398957e+00  2.5457126316431284e+00  2.4661587251658119e+00  2.3866047696874069e+00  2.3070507857243934e+00  2.2274967939596531e+00  2.1479428152718936e+00  2.0683888707654816e+00  1.9888349818009186e+00  1.9092811700261747e+00  1.8297274574104756e+00  1.7501738662796431e+00  1.6706204193604706e+00  1.5910671398236798e+00  1.5115140513636489e+00  1.4319611782445105e+00  1.3524085454979300e+00  1.2728561789267498e+00  1.1933041056069431e+00  1.1137523539446303e+00  1.0342009538256922e+00  9.5464994067864462e-01  8.7509934235398923e-01  7.9554922696771502e-01  7.1599957221118604e-01  6.3645061495518385e-01  5.5690200251407029e-01  4.7735477311624569e-01  3.9780659725581408e-01  3.1826343327840328e-01  2.3870884786323851e-01  1.5918599051437277e-01  7.9548529668578657e-02  5.6448904968212827e-05  6.3639590567650695e+00  6.2843809499054757e+00  6.2048156422437080e+00  6.1252606507635026e+00  6.0457144925329267e+00  5.9661744039949882e+00  5.8866382877715377e+00  5.8071043710846091e+00  5.7275714441610042e+00  5.6480386592606209e+00  5.5685054895450161e+00  5.4889716640476305e+00  5.4094370766932780e+00  5.3299016665677863e+00  5.2503653701860813e+00  5.1708281128515265e+00  5.0912898342939386e+00  5.0117505020758770e+00  4.9322101184303397e+00  4.8526687131193080e+00  4.7731263352940045e+00  4.6935830437574975e+00  4.6140389008253049e+00  4.5344939675256617e+00  4.4549483014367413e+00  4.3754019552511787e+00  4.2958549766318175e+00  4.2163074082444494e+00  4.1367592883558286e+00  4.0572106513631345e+00  3.9776615285172712e+00  3.8981119484850333e+00  3.8185619379320159e+00  3.7390115219430036e+00  3.6594607244078285e+00  3.5799095682857258e+00  3.5003580758337414e+00  3.4208062687592893e+00  3.3412541683495256e+00  3.2617017955588876e+00  3.1821491710846881e+00  3.1025963154215987e+00  3.0230432489108967e+00  2.9434899917797623e+00  2.8639365641785641e+00  2.7843829862137617e+00  2.7048292779800889e+00  2.6252754595909571e+00  2.5457215512086275e+00  2.4661675730736525e+00  2.3866135455343440e+00  2.3070594890759959e+00  2.2275054243501651e+00  2.1479513722040480e+00  2.0683973537101017e+00  1.9888433901961573e+00  1.9092895032764259e+00  1.8297357148837368e+00  1.7501820473051453e+00  1.6706285232196900e+00  1.5910751657487390e+00  1.5115219985045829e+00  1.4319690456893956e+00  1.3524163321522356e+00  1.2728638836415147e+00  1.1933117268415663e+00  1.1137598899506165e+00  1.0342084030461927e+00  9.5465729755885809e-01  8.7510661312256699e-01  7.9555637596872386e-01  7.1600666569274329e-01  6.3645742932303739e-01  5.5690896513939669e-01  4.7736084645356197e-01  3.9781455948082356e-01  3.1826610198352678e-01  2.3871868915926894e-01  1.5915770936201426e-01  7.9599830277565606e-02  5.5708743600629342e-06  6.3639521376681705e+00  6.2843839387657896e+00  6.2048188566076981e+00  6.1252636073124087e+00  6.0457165800462223e+00  5.9661760522438625e+00  5.8866398737104459e+00  5.8071061369993506e+00  5.7275734196822272e+00  5.6480407872059084e+00  5.5685076797738002e+00  5.4889738179327026e+00  5.4094390959817682e+00  5.3299034902421969e+00  5.2503669915017035e+00  5.1708295754813838e+00  5.0912912058000011e+00  5.0117518479447192e+00  4.9322114837617530e+00  4.8526701184372332e+00  4.7731277798260283e+00  4.6935845136196717e+00  4.6140403761023796e+00  4.5344954280215042e+00  4.4549497294763230e+00  4.3754033370151939e+00  4.2958563020058422e+00  4.2163086703232606e+00  4.1367604826257285e+00  4.0572117750476799e+00  3.9776625799826859e+00  3.8981129268497638e+00  3.8185628427659033e+00  3.7390123530909443e+00  3.6594614818618800e+00  3.5799102521168118e+00  3.5003586861415035e+00  3.4208068056476959e+00  3.3412546319072116e+00  3.2617021858505142e+00  3.1821494881426835e+00  3.1025965592428992e+00  3.0230434194531677e+00  2.9434900889600555e+00  2.8639365878715104e+00  2.7843829362509727e+00  2.7048291541492673e+00  2.6252752616356032e+00  2.5457212788275738e+00  2.4661672259208620e+00  2.3866131232185634e+00  2.3070589911604995e+00  2.2275048503522923e+00  2.1479507215945461e+00  2.0683966259119533e+00  1.9888425845825268e+00  1.9092886191667060e+00  1.8297347515368174e+00  1.7501810039059766e+00  1.6706273988584193e+00  1.5910739593764180e+00  1.5115207088754252e+00  1.4319676712195601e+00  1.3524148707816366e+00  1.2728623324077859e+00  1.1933100815707742e+00  1.1137581442120104e+00  1.0342065469285788e+00  9.5465531739404375e-01  8.7510448115580297e-01  7.9555407249860399e-01  7.1600409605624826e-01  6.3645463148312209e-01  5.5690558868392526e-01  4.7735738688237978e-01  3.9780917368238300e-01  3.1826060053244420e-01  2.3870528826304402e-01  1.5915236039010588e-01  7.9579813991651843e-02  1.3155554356412530e-05  6.3639535293961735e+00  6.2843803992650642e+00  6.2048178776089991e+00  6.1252628413852523e+00  6.0457161504819528e+00  5.9661760342573285e+00  5.8866405323987756e+00  5.8071074770612761e+00  5.7275752867607936e+00  5.6480429772314711e+00  5.5685100118852144e+00  5.4889761298564022e+00  5.4094412656783364e+00  5.3299054511048531e+00  5.2503687425656853e+00  5.1708311632508677e+00  5.0912926967144587e+00  5.0117533008133446e+00  4.9322129359278852e+00  4.8526715825592213e+00  4.7731292499644713e+00  4.6935859728123210e+00  4.6140418039930617e+00  4.5344968053399848e+00  4.4549510406532882e+00  4.3754045706057560e+00  4.2958574504060341e+00  4.2163097288662685e+00  4.1367614487854940e+00  4.0572126476740706e+00  3.9776633587913759e+00  3.8981136120339475e+00  3.8185634347757342e+00  3.7390128524820616e+00  3.6594618892226087e+00  3.5799105680190628e+00  3.5003589111228632e+00  3.4208069401972665e+00  3.3412546764630862e+00  3.2617021407955193e+00  3.1821493538047152e+00  3.1025963358931334e+00  3.0230431073064516e+00  2.9434896881738877e+00  2.8639360985461684e+00  2.7843823584289069e+00  2.7048284878151159e+00  2.6252745067158130e+00  2.5457204351903155e+00  2.4661662933757653e+00  2.3866121015165778e+00  2.3070578799935322e+00  2.2275036493528626e+00  2.1479494303350712e+00  2.0683952439036295e+00  1.9888411112731585e+00  1.9092870539369780e+00  1.8297330936929774e+00  1.7501792526678155e+00  1.6706255533348222e+00  1.5910720185299740e+00  1.5115186714434508e+00  1.4319655356224721e+00  1.3524126348768160e+00  1.2728599932830014e+00  1.1933076348501179e+00  1.1137555835104014e+00  1.0342038626657291e+00  9.5465249338966651e-01  8.7510149981375285e-01  7.9555088474730506e-01  7.1600069617354201e-01  6.3645083450515794e-01  5.5690155776962635e-01  4.7735237966190180e-01  3.9780467780324663e-01  3.1825364224383351e-01  2.3870082776308915e-01  1.5913612272733452e-01  7.9592594216406354e-02  5.5504601772415089e-06  6.3639493012483594e+00  6.2843664740705263e+00  6.2047992778151588e+00  6.1252524438036362e+00  6.0457076883483269e+00  5.9661686733264707e+00  5.8866335166551460e+00  5.8071005350044711e+00  5.7275683076154209e+00  5.6480359165571343e+00  5.5685028502366585e+00  5.4889688683834272e+00  5.4094339107048190e+00  5.3298980084495877e+00  5.2503612091899443e+00  5.1708235342054500e+00  5.0912849663045359e+00  5.0117454668606003e+00  4.9322049981077711e+00  4.8526635418770070e+00  4.7731211068587589e+00  4.6935777269086811e+00  4.6140334538669796e+00  4.5344883490745387e+00  4.4549424761438869e+00  4.3753958959936732e+00  4.2958486641787772e+00  4.2163008299642177e+00  4.1367524365140307e+00  4.0572035216629780e+00  3.9776541188766226e+00  3.8981042582034191e+00  3.8185539670870541e+00  3.7390032710304371e+00  3.6594521940959694e+00  3.5799007592838428e+00  3.5003489888020125e+00  3.4207969042648512e+00  3.3412445268339308e+00  3.2616918773231913e+00  3.1821389762767085e+00  3.1025858440300742e+00  3.0230325007598497e+00  2.9434789665257814e+00  2.8639252613081512e+00  2.7843714050419410e+00  2.7048174176491524e+00  2.6252633190697048e+00  2.5457091292916889e+00  2.4661548683810035e+00  2.3866005565107495e+00  2.3070462139903660e+00  2.2274918612946406e+00  2.1479375190924448e+00  2.0683832082752027e+00  1.9888289499848493e+00  1.9092747656405804e+00  1.8297206769644077e+00  1.7501667060023116e+00  1.6706128751438627e+00  1.5910592071247232e+00  1.5115057250372075e+00  1.4319524522696845e+00  1.3523994125247505e+00  1.2728466295628051e+00  1.1932941272753612e+00  1.1137419291552018e+00  1.0341900575271386e+00  9.5463853641764440e-01  8.7508737656952784e-01  7.9553662175982931e-01  7.1598621240084370e-01  6.3643634107494251e-01  5.5688657683807519e-01  4.7733792026992111e-01  3.9778801588886975e-01  3.1824306889119047e-01  2.3868714658692086e-01  1.5916676166361787e-01  7.9542452344220846e-02  5.5870394883141708e-05  6.3642305331410673e+00  6.2842659763916986e+00  6.2048223996074086e+00  6.1252679274324473e+00  6.0457284667769038e+00  5.9661907161917185e+00  5.8866560477381995e+00  5.8071230094229778e+00  5.7275905588666305e+00  5.6480579064902177e+00  5.5685246094758067e+00  5.4889904557253582e+00  5.4094553880086584e+00  5.3299194140083905e+00  5.2503825519095217e+00  5.1708447969416111e+00  5.0913061224135285e+00  5.0117664904550088e+00  4.9322258723999708e+00  4.8526842592628512e+00  4.7731416675343068e+00  4.6935981352653249e+00  4.6140537161072297e+00  4.5345084712733668e+00  4.4549624635480036e+00  4.3754157527044857e+00  4.2958683933357245e+00  4.2163204339133618e+00  4.1367719170885087e+00  4.0572228803266901e+00  3.9776733568864104e+00  3.8981233766613843e+00  3.8185729670072575e+00  3.7390221533434231e+00  3.6594709596700845e+00  3.5799194089163930e+00  3.5003675232239146e+00  3.4208153241319970e+00  3.3412628327270011e+00  3.2617100697421781e+00  3.1821570556397578e+00  3.1026038106706149e+00  3.0230503549255481e+00  2.9434967083771562e+00  2.8639428909177993e+00  2.7843889223938860e+00  2.7048348226382783e+00  2.6252806115014202e+00  2.5457263088814774e+00  2.4661719347542137e+00  2.3866175092022197e+00  2.3070630524442310e+00  2.2275085848639957e+00  2.1479541270391285e+00  2.0683996997695400e+00  1.9888453241053825e+00  1.9092910213741707e+00  1.8297368132060079e+00  1.7501827215571746e+00  1.6706287687271102e+00  1.5910749773744539e+00  1.5115213705089021e+00  1.4319679714975087e+00  1.3524148039852613e+00  1.2728618918878927e+00  1.1933092592176162e+00  1.1137569297016396e+00  1.0342049278352865e+00  9.5465327314076909e-01  8.7510199782676690e-01  7.9555109505633448e-01  7.1600066174726373e-01  6.3645057274649597e-01  5.5690120115518704e-01  4.7735171256869668e-01  3.9780292841017845e-01  3.1825162076337588e-01  2.3872836891816071e-01  1.5919312861383197e-01  7.9704824338864624e-02  -3.8243818424749798e-04  6.3619167014219435e+00  6.2845965689964274e+00  6.2048059848370940e+00  6.1252967322361229e+00  6.0457526223239935e+00  5.9662171969236431e+00  5.8866838561067620e+00  5.8071519023803004e+00  5.7276201181642481e+00  5.6480878210248058e+00  5.5685546568100923e+00  5.4890205017077980e+00  5.4094853736686526e+00  5.3299493229765966e+00  5.2504123917718371e+00  5.1708745750774332e+00  5.0913358387808323e+00  5.0117961342362012e+00  4.9322554267025795e+00  4.8527137055738967e+00  4.7731709904265927e+00  4.6936273242705582e+00  4.6140827664649207e+00  4.5345373828602833e+00  4.4549912397823048e+00  4.3754443989777814e+00  4.2958969160587843e+00  4.2163488395924320e+00  4.1368002119653084e+00  4.0572510700625850e+00  3.9777014465646041e+00  3.8981513707617266e+00  3.8186008695169829e+00  3.7390499678112010e+00  3.6594986893070565e+00  3.5799470566470819e+00  3.5003950917504674e+00  3.4208428159653237e+00  3.3412902502210957e+00  3.2617374151097787e+00  3.1821843309687985e+00  3.1026310179311998e+00  3.0230774959772804e+00  2.9435237849720033e+00  2.8639699047031706e+00  2.7844158749137384e+00  2.7048617153343502e+00  2.6253074457136294e+00  2.5457530858483781e+00  2.4661986556131108e+00  2.3866441749892982e+00  2.3070896640945815e+00  2.2275351432116284e+00  2.1479806328169646e+00  2.0684261536094271e+00  1.9888717265382725e+00  1.9093173728302184e+00  1.8297631140157375e+00  1.7502089719514462e+00  1.6706549688435162e+00  1.5911011272529112e+00  1.5115474701251344e+00  1.4319940207223580e+00  1.3524408027500279e+00  1.2728878399400920e+00  1.1933351568120729e+00  1.1137827766750668e+00  1.0342307252243104e+00  9.5467902351729161e-01  8.7512769699486781e-01  7.9557677552306205e-01  7.1602624424580574e-01  6.3647633527543479e-01  5.5692648339254136e-01  4.7737850734966952e-01  3.9782584104134394e-01  3.1828536826637982e-01  2.3872297772365739e-01  1.5934325817769510e-01  7.9374617196856137e-02  1.7425901541406465e-03  6.3240532821838338e+00  6.2445003812655377e+00  6.1649502542709600e+00  6.0854098796411105e+00  6.0058706088711755e+00  5.9263342820813962e+00  5.8467999457993818e+00  5.7672667068340795e+00  5.6877338677414420e+00  5.6082009067932024e+00  5.5286675049838676e+00  5.4491334568421603e+00  5.3695986251198322e+00  5.2900628974658783e+00  5.2105261853734985e+00  5.1309884265583756e+00  5.0514495966544608e+00  4.9719097036098692e+00  4.8923687837773331e+00  4.8128268889686723e+00  4.7332840795940827e+00  4.6537404168840864e+00  4.5741959601362723e+00  4.4946507643177318e+00  4.4151048798796779e+00  4.3355583525125425e+00  4.2560112236787777e+00  4.1764635309130425e+00  4.0969153084605390e+00  4.0173665876680555e+00  3.9378173975667772e+00  3.8582677652194843e+00  3.7787177161777925e+00  3.6991672747372371e+00  3.6196164642528426e+00  3.5400653073037631e+00  3.4605138258919195e+00  3.3809620415415398e+00  3.3014099754191149e+00  3.2218576483946388e+00  3.1423050811156230e+00  3.0627522940490959e+00  2.9831993075314460e+00  2.9036461418019588e+00  2.8240928170409343e+00  2.7445393533999667e+00  2.6649857710347522e+00  2.5854320901342822e+00  2.5058783309513935e+00  2.4263245138317133e+00  2.3467706592433140e+00  2.2672167878057987e+00  2.1876629203197941e+00  2.1081090777964784e+00  2.0285552814876460e+00  1.9490015529164533e+00  1.8694479139094689e+00  1.7898943866305279e+00  1.7103409936183129e+00  1.6307877578275349e+00  1.5512347026810536e+00  1.4716818521262018e+00  1.3921292307224093e+00  1.3125768637295063e+00  1.2330247772465879e+00  1.1534729984717993e+00  1.0739215554896870e+00  9.9437047935286760e-01  9.1481979889558962e-01  8.3526955917860402e-01  7.5571978111572136e-01  6.7617057748505538e-01  5.9662195515060268e-01  5.1707407313472165e-01  4.3752670010366518e-01  3.5797881785812097e-01  2.7843439993178609e-01  1.9890016924217485e-01  1.1937084040640332e-01  3.9426859115851393e-02  6.3241355299859148e+00  6.2445778451918184e+00  6.1650362349250942e+00  6.0854913472606018e+00  6.0059506176579056e+00  5.9264132801753222e+00  5.8468783781292464e+00  5.7673448308957758e+00  5.6878118142126191e+00  5.6082787418453623e+00  5.5287452445363208e+00  5.4492111051192529e+00  5.3696761922945448e+00  5.2901404068250342e+00  5.2106036652466905e+00  5.1310659043199038e+00  5.0515270903628338e+00  4.9719872221230057e+00  4.8924463262443494e+00  4.8129044486307313e+00  4.73336164577