<?xml version="1.0"?>
<VTKFile type="UnstructuredGrid"  version="0.1"  >
<UnstructuredGrid>
<Piece  NumberOfPoints="1369" NumberOfCells="2560">
<Points>
<DataArray  type="Float64"  NumberOfComponents="3"  format="ascii">0 0 0  0.75 0 0  1.5 0 0  2.25 0 0  3 0 0  3.75 0 0  4.5 0 0  5.25 0 0  6 0 0  6.75 0 0  7.5 0 0  8.25 0 0  9 0 0  9.75 0 0  10.5 0 0  11.25 0 0  12 0 0  12.75 0 0  13.5 0 0  14.25 0 0  15 0 0  15.75 0 0  16.5 0 0  17.25 0 0  18 0 0  18.75 0 0  19.5 0 0  20.25 0 0  21 0 0  21.75 0 0  22.5 0 0  23.25 0 0  24 0 0  24.75 0 0  25.5 0 0  26.25 0 0  27 0 0  27.75 0 0  28.5 0 0  29.25 0 0  30 0 0  30.75 0 0  31.5 0 0  32.25 0 0  33 0 0  33.75 0 0  34.5 0 0  35.25 0 0  36 0 0  36.75 0 0  37.5 0 0  38.25 0 0  39 0 0  39.75 0 0  40.5 0 0  41.25 0 0  42 0 0  42.75 0 0  43.5 0 0  44.25 0 0  45 0 0  45.75 0 0  46.5 0 0  47.25 0 0  48 0 0  48.75 0 0  49.5 0 0  50.25 0 0  51 0 0  51.75 0 0  52.5 0 0  53.25 0 0  54 0 0  54.75 0 0  55.5 0 0  56.25 0 0  57 0 0  57.75 0 0  58.5 0 0  59.25 0 0  60 0 0  0 0.5 0  0.75 0.4999462407956825 0  1.5 0.4998928262920159 0  2.25 0.4998401225198066 0  3 0.499788403350628 0  3.75 0.4997378520336045 0  4.5 0.4996885818116339 0  5.25 0.4996406592341862 0  6 0.4995941222992155 0  6.75 0.4995489923686876 0  7.5 0.49950528135557 0  8.25 0.4994629958763026 0  9 0.4994221395983472 0  9.75 0.4993827145527533 0  10.5 0.4993447218639661 0  11.25 0.4993081621544899 0  12 0.4992730357689911 0  12.75 0.4992393428983339 0  13.5 0.4992070836482309 0  14.25 0.4991762580772386 0  15 0.4991468662177948 0  15.75 0.4991189080878668 0  16.5 0.4990923836974019 0  17.25 0.4990672930519027 0  18 0.4990436361544091 0  18.75 0.4990214130065947 0  19.5 0.4990006236093767 0  20.25 0.4989812679632531 0  21 0.4989633460684911 0  21.75 0.4989468579252293 0  22.5 0.4989318035335356 0  23.25 0.4989181828934415 0  24 0.4989059960049569 0  24.75 0.4988952428680817 0  25.5 0.4988859234828097 0  26.25 0.4988780378491348 0  27 0.4988715859670491 0  27.75 0.4988665678365459 0  28.5 0.4988629834576188 0  29.25 0.4988608328302644 0  30 0.4988601159544801 0  30.75 0.4988608328302644 0  31.5 0.4988629834576188 0  32.25 0.4988665678365459 0  33 0.4988715859670491 0  33.75 0.4988780378491349 0  34.5 0.4988859234828099 0  35.25 0.4988952428680817 0  36 0.4989059960049569 0  36.75 0.4989181828934415 0  37.5 0.4989318035335356 0  38.25 0.4989468579252293 0  39 0.4989633460684911 0  39.75 0.4989812679632531 0  40.5 0.4990006236093769 0  41.25 0.4990214130065947 0  42 0.4990436361544091 0  42.75 0.4990672930519027 0  43.5 0.4990923836974018 0  44.25 0.4991189080878668 0  45 0.4991468662177948 0  45.75 0.4991762580772386 0  46.5 0.4992070836482309 0  47.25 0.4992393428983339 0  48 0.4992730357689911 0  48.75 0.4993081621544899 0  49.5 0.4993447218639661 0  50.25 0.4993827145527533 0  51 0.4994221395983472 0  51.75 0.4994629958763026 0  52.5 0.49950528135557 0  53.25 0.4995489923686876 0  54 0.4995941222992155 0  54.75 0.4996406592341862 0  55.5 0.4996885818116339 0  56.25 0.4997378520336045 0  57 0.499788403350628 0  57.75 0.4998401225198066 0  58.5 0.4998928262920159 0  59.25 0.4999462407956825 0  60 0.5 0  0 1 0  0.75 0.999892287024419 0  1.5 0.9997852927070809 0  2.25 0.9996797640170899 0  3 0.9995762464826861 0  3.75 0.9994750959806546 0  4.5 0.999376528022309 0  5.25 0.9992806675885066 0  6 0.9991875854967273 0  6.75 0.9990973213947756 0  7.5 0.9990098973443078 0  8.25 0.9989253255840146 0  9 0.9988436128935732 0  9.75 0.998764763026381 0  10.5 0.9986887780600713 0  11.25 0.9986156591447499 0  12 0.9985454069171728 0  12.75 0.9984780217299475 0  13.5 0.9984135037783665 0  14.25 0.9983518531706083 0  15 0.9982930699665974 0  15.75 0.9982371541995233 0  16.5 0.9981841058877632 0  17.25 0.9981339250414797 0  18 0.9980866116662881 0  18.75 0.9980421657652777 0  19.5 0.9980005873401421 0  20.25 0.9979618763918002 0  21 0.9979260329207434 0  21.75 0.9978930569272262 0  22.5 0.9978629484113742 0  23.25 0.9978357073732433 0  24 0.9978113338128517 0  24.75 0.9977898277301971 0  25.5 0.997771189125269 0  26.25 0.9977554179980537 0  27 0.9977425143485367 0  27.75 0.9977324781767047 0  28.5 0.9977253094825475 0  29.25 0.9977210082660555 0  30 0.9977195745272259 0  30.75 0.9977210082660555 0  31.5 0.9977253094825475 0  32.25 0.9977324781767047 0  33 0.9977425143485367 0  33.75 0.9977554179980537 0  34.5 0.997771189125269 0  35.25 0.9977898277301971 0  36 0.9978113338128517 0  36.75 0.9978357073732433 0  37.5 0.9978629484113742 0  38.25 0.9978930569272262 0  39 0.9979260329207434 0  39.75 0.9979618763918005 0  40.5 0.9980005873401421 0  41.25 0.9980421657652777 0  42 0.9980866116662881 0  42.75 0.9981339250414797 0  43.5 0.9981841058877632 0  44.25 0.9982371541995233 0  45 0.9982930699665973 0  45.75 0.9983518531706083 0  46.5 0.9984135037783665 0  47.25 0.9984780217299475 0  48 0.9985454069171728 0  48.75 0.9986156591447499 0  49.5 0.9986887780600713 0  50.25 0.998764763026381 0  51 0.9988436128935732 0  51.75 0.9989253255840146 0  52.5 0.9990098973443078 0  53.25 0.9990973213947756 0  54 0.9991875854967273 0  54.75 0.9992806675885066 0  55.5 0.999376528022309 0  56.25 0.9994750959806546 0  57 0.9995762464826863 0  57.75 0.9996797640170899 0  58.5 0.9997852927070809 0  59.25 0.999892287024419 0  60 1 0  0 1.5 0  0.75 1.499837929103887 0  1.5 1.499677017762259 0  2.25 1.499518423848047 0  3 1.499362955066043 0  3.75 1.499211114810965 0  4.5 1.49906319772022 0  5.25 1.498919371128719 0  6 1.498779728759476 0  6.75 1.498644322758425 0  7.5 1.498513182045912 0  8.25 1.498386322637497 0  9 1.498263753396933 0  9.75 1.498145479229054 0  10.5 1.498031502848182 0  11.25 1.497921825756679 0  12 1.497816448786276 0  12.75 1.497715372397534 0  13.5 1.497618596845534 0  14.25 1.497526122271568 0  15 1.497437948753903 0  15.75 1.497354076335889 0  16.5 1.497274505041523 0  17.25 1.497199234884076 0  18 1.497128265870878 0  18.75 1.497061598005963 0  19.5 1.496999231291536 0  20.25 1.496941165728797 0  21 1.496887401318382 0  21.75 1.496837938060624 0  22.5 1.496792775955681 0  23.25 1.496751915003625 0  24 1.496715355204476 0  24.75 1.496683096558231 0  25.5 1.496655139064873 0  26.25 1.496631482724383 0  27 1.496612127536742 0  27.75 1.49659707350193 0  28.5 1.496586320619932 0  29.25 1.496579868890738 0  30 1.496577718314341 0  30.75 1.496579868890738 0  31.5 1.496586320619932 0  32.25 1.49659707350193 0  33 1.496612127536742 0  33.75 1.496631482724383 0  34.5 1.496655139064873 0  35.25 1.496683096558231 0  36 1.496715355204476 0  36.75 1.496751915003625 0  37.5 1.496792775955681 0  38.25 1.496837938060624 0  39 1.496887401318382 0  39.75 1.496941165728797 0  40.5 1.496999231291536 0  41.25 1.497061598005963 0  42 1.497128265870878 0  42.75 1.497199234884076 0  43.5 1.497274505041523 0  44.25 1.497354076335889 0  45 1.497437948753903 0  45.75 1.497526122271568 0  46.5 1.497618596845534 0  47.25 1.497715372397534 0  48 1.497816448786276 0  48.75 1.497921825756679 0  49.5 1.498031502848182 0  50.25 1.498145479229054 0  51 1.498263753396933 0  51.75 1.498386322637497 0  52.5 1.498513182045912 0  53.25 1.498644322758425 0  54 1.498779728759476 0  54.75 1.498919371128719 0  55.5 1.49906319772022 0  56.25 1.499211114810965 0  57 1.499362955066043 0  57.75 1.499518423848047 0  58.5 1.499677017762259 0  59.25 1.499837929103887 0  60 1.5 0  0 2 0  0.75 1.999782922684679 0  1.5 1.999567572482633 0  2.25 1.999355560773311 0  3 1.999147926971376 0  3.75 1.998945274403889 0  4.5 1.998747940008412 0  5.25 1.99855611022518 0  6 1.99836988803885 0  6.75 1.998189330327545 0  7.5 1.998014468513466 0  8.25 1.997845319961957 0  9 1.997681894273453 0  9.75 1.997524196757441 0  10.5 1.997372230351327 0  11.25 1.997225996680711 0  12 1.997085496645483 0  12.75 1.996950730743932 0  13.5 1.996821699252027 0  14.25 1.99669840232263 0  15 1.99658084004041 0  15.75 1.996469012452263 0  16.5 1.996362919584147 0  17.25 1.996262561450413 0  18 1.996167938058985 0  18.75 1.996079049414223 0  19.5 1.995995895518506 0  20.25 1.995918476373126 0  21 1.995846791978767 0  21.75 1.995780842335785 0  22.5 1.995720627444344 0  23.25 1.995666147304521 0  24 1.995617401916331 0  24.75 1.995574391279768 0  25.5 1.995537115394814 0  26.25 1.995505574261442 0  27 1.995479767879629 0  27.75 1.995459696249356 0  28.5 1.9954453593706 0  29.25 1.995436757243353 0  30 1.995433889867604 0  30.75 1.995436757243353 0  31.5 1.9954453593706 0  32.25 1.995459696249356 0  33 1.995479767879629 0  33.75 1.995505574261442 0  34.5 1.995537115394814 0  35.25 1.995574391279768 0  36 1.99561740191633 0  36.75 1.995666147304521 0  37.5 1.995720627444344 0  38.25 1.995780842335785 0  39 1.995846791978767 0  39.75 1.995918476373126 0  40.5 1.995995895518506 0  41.25 1.996079049414223 0  42 1.996167938058985 0  42.75 1.996262561450413 0  43.5 1.996362919584147 0  44.25 1.996469012452263 0  45 1.99658084004041 0  45.75 1.99669840232263 0  46.5 1.996821699252027 0  47.25 1.996950730743932 0  48 1.997085496645483 0  48.75 1.997225996680711 0  49.5 1.997372230351327 0  50.25 1.997524196757441 0  51 1.997681894273453 0  51.75 1.997845319961957 0  52.5 1.998014468513466 0  53.25 1.998189330327545 0  54 1.99836988803885 0  54.75 1.99855611022518 0  55.5 1.998747940008412 0  56.25 1.998945274403889 0  57 1.999147926971376 0  57.75 1.999355560773311 0  58.5 1.999567572482633 0  59.25 1.999782922684679 0  60 2 0  0 2.5 0  0.75 2.499726956074106 0  1.5 2.499456444934975 0  2.25 2.499190570197838 0  3 2.498930520108666 0  3.75 2.498676917176936 0  4.5 2.498430090604422 0  5.25 2.498190217705342 0  6 2.497957395051817 0  6.75 2.497731675588015 0  7.5 2.497513088449354 0  8.25 2.497301649704521 0  9 2.497097368227578 0  9.75 2.496900248923569 0  10.5 2.49671029450537 0  11.25 2.496527506474108 0  12 2.496351885660717 0  12.75 2.496183432525283 0  13.5 2.496022147322612 0  14.25 2.49586803019384 0  15 2.495721081217143 0  15.75 2.495581300435812 0  16.5 2.495448687873807 0  17.25 2.495323243544373 0  18 2.495204967454817 0  1
[...]
<PointData  Scalars="f_10-1"> 
<DataArray  type="Float64"  Name="f_10-1"  format="ascii">-8.3131754019070652e+00  -8.2108106998152195e+00  -8.1059279843188694e+00  -8.0022813604150045e+00  -7.8983625554942272e+00  -7.7944816020851668e+00  -7.6905133568976458e+00  -7.5865146112955664e+00  -7.4824645578838593e+00  -7.3783927849706608e+00  -7.2743088361484736e+00  -7.1702313401125704e+00  -7.0661641128441124e+00  -6.9621115185425522e+00  -6.8580712885833774e+00  -6.7540426476214899e+00  -6.6500230916475820e+00  -6.5460116312384313e+00  -6.4420069933940880e+00  -6.3380087860292971e+00  -6.2340165695599401e+00  -6.1300302662982560e+00  -6.0260497523008860e+00  -5.9220750187089415e+00  -5.8181060231294479e+00  -5.7141427466639731e+00  -5.6101851400334084e+00  -5.5062331345537752e+00  -5.4022866282268742e+00  -5.2983454901007665e+00  -5.1944095668944037e+00  -5.0904786886206947e+00  -4.9865526783779757e+00  -4.8826313546351443e+00  -4.7787145362927079e+00  -4.6748020415143676e+00  -4.5708936892442518e+00  -4.4669892974828880e+00  -4.3630886839683738e+00  -4.2591916653803734e+00  -4.1552980581051662e+00  -4.0514076781693209e+00  -3.9475203419201090e+00  -3.8436358661380758e+00  -3.7397540684354214e+00  -3.6358747672923535e+00  -3.5319977822038777e+00  -3.4281229336359473e+00  -3.3242500430433748e+00  -3.2203789328082242e+00  -3.1165094262237161e+00  -3.0126413474537390e+00  -2.9087745215249270e+00  -2.8049087743150340e+00  -2.7010439325619973e+00  -2.5971798238744834e+00  -2.4933162767544230e+00  -2.3894531206220848e+00  -2.2855901858489389e+00  -2.1817273037953506e+00  -2.0778643068586322e+00  -1.9740010285355176e+00  -1.8701373035107460e+00  -1.7662729677873641e+00  -1.6624078588969264e+00  -1.5585418162067213e+00  -1.4546746814939839e+00  -1.3508062996283379e+00  -1.2469365202587526e+00  -1.1430651989962983e+00  -1.0391922023938909e+00  -9.3531740915416894e-01  -8.3144072372465350e-01  -7.2756207180385113e-01  -6.2368145891028848e-01  -5.1979883111552738e-01  -4.1591485937817718e-01  -3.1202575636255153e-01  -2.0816670463865825e-01  -1.0404864383441162e-01  -2.4644047111306139e-03  -8.3153207740649346e+00  -8.2104628643148523e+00  -8.1061906307416596e+00  -8.0022966097074644e+00  -7.8984403445981339e+00  -7.7945209463820930e+00  -7.6905727387639828e+00  -7.5865665076679898e+00  -7.4825271096540718e+00  -7.3784501996756351e+00  -7.2743696586633373e+00  -7.1702879672410074e+00  -7.0662217588775471e+00  -6.9621669851797838e+00  -6.8581273903807762e+00  -6.7540979195027546e+00  -6.6500788906167720e+00  -6.5460672129387643e+00  -6.4420629751337168e+00  -6.3380647780916490e+00  -6.2340728458291910e+00  -6.1300866313568561e+00  -6.0261063235235630e+00  -5.9221317000109623e+00  -5.8181628580803233e+00  -5.7141996880809387e+00  -5.6102422016309887e+00  -5.5062902964516542e+00  -5.4023438961493282e+00  -5.2984028591933150e+00  -5.1944670414824268e+00  -5.0905362701003636e+00  -4.9866103702290419e+00  -4.8826891596967474e+00  -4.7787724571124315e+00  -4.6748600807005838e+00  -4.5709518486836798e+00  -4.4670475792940927e+00  -4.3631470896734426e+00  -4.2592501967020784e+00  -4.1553567163616609e+00  -4.0514664648014573e+00  -3.9475792581150522e+00  -3.8436949131458569e+00  -3.7398132473572705e+00  -3.6359340792606960e+00  -3.5320572282709928e+00  -3.4281825148722511e+00  -3.3243097604813445e+00  -3.2204387874941274e+00  -3.1165694191900699e+00  -3.0127014797455778e+00  -2.9088347941863910e+00  -2.8049691884022496e+00  -2.7011044891363478e+00  -2.5972405240084631e+00  -2.4933771215278284e+00  -2.3895141111238978e+00  -2.2856513231740654e+00  -2.1817885890434119e+00  -2.0779257411292349e+00  -1.9740626129230656e+00  -1.8701990390950936e+00  -1.7663348556232776e+00  -1.6624698999923873e+00  -1.5586040115141995e+00  -1.4547370318467296e+00  -1.3508688058015790e+00  -1.2469991827512981e+00  -1.1431280184359585e+00  -1.0392551790981284e+00  -9.3538054413615157e-01  -8.3150402031074666e-01  -7.2762553936794538e-01  -6.2374510994819765e-01  -5.1986280988476552e-01  -4.1597884770368559e-01  -3.1209507013304522e-01  -2.0819949001951296e-01  -1.0444083276608952e-01  2.9878606675419163e-04  -8.3147466784487438e+00  -8.2108129384583659e+00  -8.1063169925566143e+00  -8.0024737501906849e+00  -7.8984834176176397e+00  -7.7945964467009361e+00  -7.6906044274468766e+00  -7.5866260549524691e+00  -7.4825689760076362e+00  -7.3785095665897957e+00  -7.2744177447933671e+00  -7.1703439047984325e+00  -7.0662702677347085e+00  -6.9622187790912777e+00  -6.8581751440142407e+00  -6.7541473634698788e+00  -6.6501264955246091e+00  -6.5461158926720238e+00  -6.4421109519534232e+00  -6.3381134794893397e+00  -6.2341213636406376e+00  -6.1301356534552056e+00  -6.0261554001394400e+00  -5.9221811552790973e+00  -5.8182124749672610e+00  -5.7142496080451952e+00  -5.6102923191704894e+00  -5.5063406654164604e+00  -5.4023944662144734e+00  -5.2984536488459897e+00  -5.1945180303280187e+00  -5.0905874661054034e+00  -4.9866617689766031e+00  -4.8827407669398992e+00  -4.7788242752556664e+00  -4.6749121144639254e+00  -4.5710041019550953e+00  -4.4671000554465259e+00  -4.3631997918731527e+00  -4.2593031270342072e+00  -4.1554098769025023e+00  -4.0515198567633055e+00  -3.9476328827833194e+00  -3.8437487712738623e+00  -3.7398673397883715e+00  -3.6359884065472374e+00  -3.5321117910369138e+00  -3.4282373135894573e+00  -3.3243647956662969e+00  -3.2204940595839724e+00  -3.1166249286450327e+00  -3.0127572269838585e+00  -2.9088907796363439e+00  -2.8050254124697349e+00  -2.7011609522310835e+00  -2.5972972265284144e+00  -2.4934340638723484e+00  -2.3895712936860969e+00  -2.2857087463464270e+00  -2.1818462532118197e+00  -2.0779836466702717e+00  -1.9741207601903565e+00  -1.8702574283974231e+00  -1.7663934871804068e+00  -1.6625287738582224e+00  -1.5586631274405707e+00  -1.4547963890500022e+00  -1.3509284025688881e+00  -1.2470590157364181e+00  -1.1431880815368443e+00  -1.0393154609419777e+00  -9.3544102434325016e-01  -8.3156465722323658e-01  -7.2768624892694822e-01  -6.2380569403492803e-01  -5.1992274912444925e-01  -4.1603692922992674e-01  -3.1214568632303963e-01  -2.0824558923958500e-01  -1.0427224582122477e-01  -2.5912437860379967e-06  -8.3150202173118295e+00  -8.2106044950802364e+00  -8.1065710927502348e+00  -8.0024031249384517e+00  -7.8985606537538882e+00  -7.7945280261608252e+00  -7.6906176480382564e+00  -7.5865717657993699e+00  -7.4825636923169556e+00  -7.3784753932194498e+00  -7.2744116668930312e+00  -7.1703219899690316e+00  -7.0662604244550806e+00  -6.9621983707231996e+00  -6.8581591003960609e+00  -6.7541250898941030e+00  -6.6501061285543814e+00  -6.5460924745928102e+00  -6.4420887330544661e+00  -6.3380900126541562e+00  -6.2340987763192661e+00  -6.1301127078154209e+00  -6.0261331461154715e+00  -5.9221589844229703e+00  -5.8181908931567081e+00  -5.7142283123502695e+00  -5.6102715229565225e+00  -5.5063202016909853e+00  -5.4023744029198619e+00  -5.2984338930523203e+00  -5.1944985987886767e+00  -5.0905683178281764e+00  -4.9866429130675325e+00  -4.8827221944932280e+00  -4.7788059966749632e+00  -4.6748941341304384e+00  -4.5709864288616755e+00  -4.4670826958397374e+00  -4.3631827512835493e+00  -4.2592864096153891e+00  -4.1553934851428105e+00  -4.0515037926243664e+00  -3.9476171469739123e+00  -3.8437333644223965e+00  -3.7398522617895340e+00  -3.6359736573625190e+00  -3.5320973702272878e+00  -3.4282232207858812e+00  -3.3243510302770103e+00  -3.2204806210535484e+00  -3.1166118162881689e+00  -3.0127444401240857e+00  -2.9088783175190014e+00  -2.8050132743353431e+00  -2.7011491372729517e+00  -2.5972857339316580e+00  -2.4934228927952229e+00  -2.3895604432813324e+00  -2.2856982157536727e+00  -2.1818360415678577e+00  -2.0779737531016074e+00  -1.9741111838060177e+00  -1.8702481682583214e+00  -1.7663845422399251e+00  -1.6625201428407801e+00  -1.5586548086177292e+00  -1.4547883798263315e+00  -1.3509206987701496e+00  -1.2470516102577536e+00  -1.1431809621530074e+00  -1.0393086054688605e+00  -9.3543439271187279e-01  -8.3155816930446602e-01  -7.2767974258508505e-01  -6.2379878586323434e-01  -5.1991452480973332e-01  -4.1602484779664417e-01  -3.1212349291205105e-01  -2.0819181702644496e-01  -1.0417446498103033e-01  -2.5794309371550504e-06  -8.3148408792853985e+00  -8.2107523135707883e+00  -8.1064644149438649e+00  -8.0025421798339806e+00  -7.8984701541362510e+00  -7.7946010830622416e+00  -7.6905586731973816e+00  -7.5865981864889696e+00  -7.4825207381419272e+00  -7.3784797743210113e+00  -7.2743834800354730e+00  -7.1703180642196074e+00  -7.0662386429850219e+00  -6.9621867146827672e+00  -6.8581368606234117e+00  -6.7541069807840142e+00  -6.6500823410629879e+00  -6.5460707729089966e+00  -6.4420643412938041e+00  -6.3380669157280103e+00  -6.2340745721164206e+00  -6.1300894177262162e+00  -6.0261095839986636e+00  -5.9221361831105748e+00  -5.8181682833292339e+00  -5.7142063905979628e+00  -5.6102499911098302e+00  -5.5062992535731956e+00  -5.4023538620951150e+00  -5.2984138145113038e+00  -5.1944788871274774e+00  -5.0905489901377470e+00  -4.9866239342446717e+00  -4.8827035803894923e+00  -4.7787877456292787e+00  -4.6748762625291427e+00  -4.5709689455998088e+00  -4.4670656129669490e+00  -4.3631660767979179e+00  -4.2592701500026422e+00  -4.1553776448641635e+00  -4.0514883742349532e+00  -3.9476021522902416e+00  -3.8437187940105044e+00  -3.7398381160966472e+00  -3.6359599361568877e+00  -3.5320840733472174e+00  -3.4282103477107793e+00  -3.3243385805599730e+00  -3.2204685940449527e+00  -3.1166002113724236e+00  -3.0127332565609937e+00  -2.9088675545704570e+00  -2.8050029311823721e+00  -2.7011392130834322e+00  -2.5972762278206236e+00  -2.4934138038619409e+00  -2.3895517705927678e+00  -2.2856899583653996e+00  -2.1818281985169503e+00  -2.0779663234133641e+00  -1.9741041664780667e+00  -1.8702415622329756e+00  -1.7663783463317648e+00  -1.6625143555971851e+00  -1.5586494280502710e+00  -1.4547834029280362e+00  -1.3509161206523677e+00  -1.2470474226815158e+00  -1.1431771509227335e+00  -1.0393051460850267e+00  -9.3543124219027629e-01  -8.3155525155411436e-01  -7.2767691697615777e-01  -6.2379577463646207e-01  -5.1991073816217181e-01  -4.1601890042846984e-01  -3.1211204826583910e-01  -2.0816776688731550e-01  -1.0414010571629621e-01  -1.0910769852063870e-05  -8.3150237743168507e+00  -8.2106097487549050e+00  -8.1065919045918715e+00  -8.0024221884356344e+00  -7.8985864353426845e+00  -7.7945551176263335e+00  -7.6906386733289853e+00  -7.5865790885356610e+00  -7.4825610137123224e+00  -7.3784666947947795e+00  -7.2744003786272247e+00  -7.1703079115701387e+00  -7.0662429532290183e+00  -6.9621767985748102e+00  -6.8581337524758617e+00  -6.7540966302562486e+00  -6.6500755139981900e+00  -6.5460604843768468e+00  -6.4420560316602771e+00  -6.3380570369634768e+00  -6.2340658770716795e+00  -6.1300801409121508e+00  -6.0261011577776413e+00  -5.9221277769436185e+00  -5.8181606359006359e+00  -5.7141991017247635e+00  -5.6102433913734364e+00  -5.5062931176680712e+00  -5.4023483022566889e+00  -5.2984086994717341e+00  -5.1944742487210531e+00  -5.0905447693244898e+00  -4.9866201499873766e+00  -4.8827002211604755e+00  -4.7787848315420778e+00  -4.6748738019307545e+00  -4.5709669551767869e+00  -4.4670641032365808e+00  -4.3631650577666923e+00  -4.2592696282880826e+00  -4.1553776248294474e+00  -4.0514888587605808e+00  -3.9476031425615119e+00  -3.8437202908182662e+00  -3.7398401193044442e+00  -3.6359624456658968e+00  -3.5320870886000528e+00  -3.4282138682675223e+00  -3.3243426057419372e+00  -3.2204731232496555e+00  -3.1166052438530483e+00  -3.0127387915931823e+00  -2.9088735913294466e+00  -2.8050094688307445e+00  -2.7011462507083732e+00  -2.5972837644809599e+00  -2.4934218385591658e+00  -2.3895603022974661e+00  -2.2856989860055235e+00  -2.1818377209916018e+00  -2.0779763395837882e+00  -1.9741146751616863e+00  -1.8702525621685391e+00  -1.7663898361119859e+00  -1.6625263335274727e+00  -1.5586618918881057e+00  -1.4547963494109055e+00  -1.3509295446956346e+00  -1.2470613160191968e+00  -1.1431915000353667e+00  -1.0393199289604544e+00  -9.3544642452977056e-01  -8.3157078286375530e-01  -7.2769273436308723e-01  -6.2381183524727535e-01  -5.1992713692372960e-01  -4.1603628543860394e-01  -3.1213276174390986e-01  -2.0819808556025099e-01  -1.0417947958170327e-01  -1.6437381037654356e-05  -8.3147443089708890e+00  -8.2108308685552913e+00  -8.1063494019846143e+00  -8.0025123898168129e+00  -7.8985286173925244e+00  -7.7946462005286996e+00  -7.6906379942812535e+00  -7.5866373830596405e+00  -7.4825612488757551e+00  -7.3784918640317150e+00  -7.2743936836402217e+00  -7.1703143232393023e+00  -7.0662336952999141e+00  -6.9621750249503300e+00  -6.8581247902568334e+00  -6.7540920444899530e+00  -6.6500677789519962e+00  -6.5460552754747905e+00  -6.4420494640931780e+00  -6.3380519204206367e+00  -6.2340602591604970e+00  -6.1300754658234871e+00  -6.0260965049961834e+00  -5.9221239026315153e+00  -5.8181571174255051e+00  -5.7141963005706851e+00  -5.6102410906168139e+00  -5.5062914551973270e+00  -5.4023471546386581e+00  -5.2984081080470506e+00  -5.1944741531999483e+00  -5.0905451871391003e+00  -4.9866210644671414e+00  -4.8827016482869254e+00  -4.7787867755106239e+00  -4.6748762764680878e+00  -4.5709699684769989e+00  -4.4670676635407043e+00  -4.3631691702412310e+00  -4.2592742958922098e+00  -4.1553828490886291e+00  -4.0514946393899196e+00  -3.9476094788672458e+00  -3.8437271810863503e+00  -3.7398475618605729e+00  -3.6359704383355891e+00  -3.5320956293423795e+00  -3.4282229547879806e+00  -3.3243522358343505e+00  -3.2204832945531563e+00  -3.1166159540288914e+00  -3.0127500381865637e+00  -2.9088853718601198e+00  -2.8050217807204247e+00  -2.7011590913275967e+00  -2.5972971311138697e+00  -2.4934357284286928e+00  -2.3895747125497957e+00  -2.2857139137239195e+00  -2.1818531631887645e+00  -2.0779922932045305e+00  -1.9741311370676653e+00  -1.8702695291124121e+00  -1.7664073046756827e+00  -1.6625443000062650e+00  -1.5586803520744748e+00  -1.4548152982241358e+00  -1.3509489755385578e+00  -1.2470812198489205e+00  -1.1432118638066444e+00  -1.0393407344532186e+00  -9.3546764684820294e-01  -8.3159239820850639e-01  -7.2771474053479479e-01  -6.2383435976591861e-01  -5.1995070695447765e-01  -4.1606286196572206e-01  -3.1216771920288011e-01  -2.0826147370848558e-01  -1.0428305867428862e-01  -2.8885839691481801e-05  -8.3153264705120211e+00  -8.2104874667689689e+00  -8.1062292733778882e+00  -8.0023415833654106e+00  -7.8984947838193893e+00  -7.7945725189467083e+00  -7.6906047172042333e+00  -7.5865712366308502e+00  -7.4825103614683979e+00  -7.3784195358489812e+00  -7.2743300217848095e+00  -7.1702400199926384e+00  -7.0661652405758479e+00  -6.9621019755741429e+00  -6.8580552441052669e+00  -6.7540204749603445e+00  -6.6499981413494975e+00  -6.5459847626425969e+00  -6.4419800734759685e+00  -6.3379822749261701e+00  -6.2339913872351840e+00  -6.1300067139332404e+00  -6.0260283925770413e+00  -5.9220561224976018e+00  -5.8180899128741874e+00  -5.7141295236067720e+00  -5.6101748431269893e+00  -5.5062256663882518e+00  -5.4022818643923038e+00  -5.2983432872151770e+00  -5.1944098196288913e+00  -5.0904813339017059e+00  -4.9865577023720498e+00  -4.8826387798613213e+00  -4.7787244080774043e+00  -4.6748144145098118e+00  -4.5709086163773778e+00  -4.4670068246437324e+00  -4.3631088466065631e+00  -4.2592144892612840e+00  -4.1553235600810234e+00  -4.0514358686232388e+00  -3.9475512262481405e+00  -3.8436694466136907e+00  -3.7397903451247050e+00  -3.6359137389986098e+00  -3.5320394468203107e+00  -3.4281672885125456e+00  -3.3242970850665530e+00  -3.2204286585195474e+00  -3.1165618318195163e+00  -3.0126964288246700e+00  -2.9088322742497064e+00  -2.8049691936819476e+00  -2.7011070135726656e+00  -2.5972455612638456e+00  -2.4933846650032199e+00  -2.3895241539764700e+00  -2.2856638583325695e+00  -2.1818036092144211e+00  -2.0779432387800436e+00  -1.9740825802149036e+00  -1.8702214677189424e+00  -1.7663597364541332e+00  -1.6624972224189685e+00  -1.5586337622056752e+00  -1.4547691925671371e+00  -1.3509033496554856e+00  -1.2470360678887369e+00  -1.1431671777746408e+00  -1.0392965038639332e+00  -9.3542385825860541e-01  -8.3154904145667863e-01  -7.2767182135910757e-01  -6.2379196210109877e-01  -5.1990918712686529e-01  -4.1602321620347105e-01  -3.1213519846928167e-01  -2.0823263660357558e-01  -1.0446233815004226e-01  2.8158133292703749e-04  -8.3131814108570357e+00  -8.2108534106425939e+00  -8.1059670723920743e+00  -8.0023330394073824e+00  -7.8984164376053538e+00  -7.7945285535317277e+00  -7.6905364347605136e+00  -7.5865099647301291e+00  -7.4824367184981257e+00  -7.3783498586629754e+00  -7.2742551369805923e+00  -7.1701684279854137e+00  -7.0660919773363320e+00  -6.9620308873284351e+00  -6.8579836132937535e+00  -6.7539499921324788e+00  -6.6499274281422913e+00  -6.5459146440994305e+00  -6.4419099168757592e+00  -6.3379125194818391e+00  -6.2339217645533394e+00  -6.1299374516185905e+00  -6.0259593745748035e+00  -5.9219874505132797e+00  -5.8180215317506043e+00  -5.7140614737173552e+00  -5.6101071027579232e+00  -5.5061582560968318e+00  -5.4022147835651015e+00  -5.2982765515490966e+00  -5.1943434375238811e+00  -5.0904153175284748e+00  -4.9864920607692049e+00  -4.8825735212211292e+00  -4.7786595391650506e+00  -4.6747499405024495e+00  -4.5708445420012920e+00  -4.4669431534967883e+00  -4.3630455823127443e+00  -4.2591516348207108e+00  -4.1552611186479815e+00  -4.0513738430212749e+00  -3.9474896194175351e+00  -3.8436082612949258e+00  -3.7397295840968705e+00  -3.6358534048913125e+00  -3.5319795422358702e+00  -3.4281078159219769e+00  -3.3242380468710579e+00  -3.2203700569961282e+00  -3.1165036691516863e+00  -3.0126387070753018e+00  -2.9087749953763247e+00  -2.8049123595236569e+00  -2.7010506258577087e+00  -2.5971896216033321e+00  -2.4933291748945416e+00  -2.3894691147998293e+00  -2.2856092713515443e+00  -2.1817494755725635e+00  -2.0778895594983409e+00  -1.9740293561857216e+00  -1.8701686996987250e+00  -1.7663074250497799e+00  -1.6624453680762166e+00  -1.5585823651719111e+00  -1.4547182529015898e+00  -1.3508528670969069e+00  -1.2469860420355106e+00  -1.1431176076242295e+00  -1.0392473884334099e+00  -9.3537519579605921e-01  -8.3150082893698563e-01  -7.2762405249134099e-01  -6.2374463571976113e-01  -5.1986218580367494e-01  -4.1597690067384391e-01  -3.1208448999650829e-01  -2.0821921997369852e-01  -1.0409425574286048e-01  -2.4747857162674193e-03  -8.2634907226880685e+00  -8.1584541808054585e+00  -8.0544458923349573e+00  -7.9505705426233897e+00  -7.8466814696751950e+00  -7.7427516392449132e+00  -7.6387714380583409e+00  -7.5347492020342948e+00  -7.4306882601511024e+00  -7.3266110162069751e+00  -7.2225291391486088e+00  -7.1184565785107266e+00  -7.0143958803002215e+00  -6.9103493466907437e+00  -6.8063145831488550e+00  -6.7022905007610714e+00  -6.5982748956872239e+00  -6.4942669019745001e+00  -6.3902654617503778e+00  -6.2862702954087775e+00  -6.1822810393878740e+00  -6.0782976603731687e+00  -5.9743200438973467e+00  -5.8703481952849330e+00  -5.7663820636489271e+00  -5.6624216293877510e+00  -5.5584668269043531e+00  -5.4545175778233235e+00  -5.3505737642011724e+00  -5.2466352467339910e+00  -5.1427018635096591e+00  -5.0387734417524301e+00  -4.9348498021163936e+00  -4.8309307631836953e+00  -4.7270161434253373e+00  -4.6231057611745179e+00  -4.5191994349055218e+00  -4.4152969823236692e+00  -4.3113982206597257e+00  -4.2075029663411065e+00  -4.1036110355874511e+00  -3.9997222445168670e+00  -3.8958364096947111e+00  -3.7919533482730343e+00  -3.6880728782947134e+00  -3.5841948187213255e+00  -3.4803189895309430e+00  -3.3764452116713106e+00  -3.2725733070615091e+00  -3.1687030985354592e+00  -3.0648344098251563e+00  -2.9609670655275298e+00  -2.8571008911000790e+00  -2.7532357128551093e+00  -2.6493713579720670e+00  -2.5455076545117663e+00  -2.4416444314412034e+00  -2.3377815186611350e+00  -2.2339187470415203e+00  -2.1300559484631787e+00  -2.0261929558724354e+00  -1.9223296033547708e+00  -1.8184657262435302e+00  -1.7146011612854346e+00  -1.6107357469034285e+00  -1.5068693236195796e+00  -1.4030017347205990e+00  -1.2991328273