<?xml version="1.0"?>
<VTKFile type="UnstructuredGrid"  version="0.1"  >
<UnstructuredGrid>
<Piece  NumberOfPoints="1369" NumberOfCells="2560">
<Points>
<DataArray  type="Float64"  NumberOfComponents="3"  format="ascii">0 0 0  0.75 0 0  1.5 0 0  2.25 0 0  3 0 0  3.75 0 0  4.5 0 0  5.25 0 0  6 0 0  6.75 0 0  7.5 0 0  8.25 0 0  9 0 0  9.75 0 0  10.5 0 0  11.25 0 0  12 0 0  12.75 0 0  13.5 0 0  14.25 0 0  15 0 0  15.75 0 0  16.5 0 0  17.25 0 0  18 0 0  18.75 0 0  19.5 0 0  20.25 0 0  21 0 0  21.75 0 0  22.5 0 0  23.25 0 0  24 0 0  24.75 0 0  25.5 0 0  26.25 0 0  27 0 0  27.75 0 0  28.5 0 0  29.25 0 0  30 0 0  30.75 0 0  31.5 0 0  32.25 0 0  33 0 0  33.75 0 0  34.5 0 0  35.25 0 0  36 0 0  36.75 0 0  37.5 0 0  38.25 0 0  39 0 0  39.75 0 0  40.5 0 0  41.25 0 0  42 0 0  42.75 0 0  43.5 0 0  44.25 0 0  45 0 0  45.75 0 0  46.5 0 0  47.25 0 0  48 0 0  48.75 0 0  49.5 0 0  50.25 0 0  51 0 0  51.75 0 0  52.5 0 0  53.25 0 0  54 0 0  54.75 0 0  55.5 0 0  56.25 0 0  57 0 0  57.75 0 0  58.5 0 0  59.25 0 0  60 0 0  0 0.5 0  0.75 0.5000870646685446 0  1.5 0.500173440420589 0  2.25 0.5002585790265823 0  3 0.5003420717468802 0  3.75 0.5004236458273196 0  4.5 0.5005031330955502 0  5.25 0.5005804349355928 0  6 0.5006554951700801 0  6.75 0.5007282822991492 0  7.5 0.5007987788090396 0  8.25 0.5008669750062885 0  9 0.5009328655389986 0  9.75 0.5009964474563717 0  10.5 0.5010577191327811 0  11.25 0.5011166796731074 0  12 0.5011733285846577 0  12.75 0.5012276655963297 0  13.5 0.5012796905590026 0  14.25 0.5013294033906865 0  15 0.5013768040463311 0  15.75 0.5014218925012063 0  16.5 0.5014646687417573 0  17.25 0.501505132760574 0  18 0.5015432845536236 0  18.75 0.5015791241187274 0  19.5 0.5016126514547233 0  20.25 0.5016438665610066 0  21 0.501672769437276 0  21.75 0.5016993600833942 0  22.5 0.5017236384993112 0  23.25 0.5017456046850237 0  24 0.5017652586405508 0  24.75 0.5017826003659209 0  25.5 0.5017976298611653 0  26.25 0.5018103471263152 0  27 0.5018207521613981 0  27.75 0.5018288449664379 0  28.5 0.5018346255414523 0  29.25 0.5018380938864556 0  30 0.5018392500014561 0  30.75 0.5018380938864556 0  31.5 0.5018346255414523 0  32.25 0.5018288449664379 0  33 0.5018207521613981 0  33.75 0.5018103471263153 0  34.5 0.5017976298611654 0  35.25 0.5017826003659209 0  36 0.5017652586405508 0  36.75 0.5017456046850237 0  37.5 0.5017236384993112 0  38.25 0.5016993600833942 0  39 0.501672769437276 0  39.75 0.5016438665610066 0  40.5 0.5016126514547234 0  41.25 0.5015791241187274 0  42 0.5015432845536236 0  42.75 0.501505132760574 0  43.5 0.5014646687417573 0  44.25 0.5014218925012063 0  45 0.5013768040463311 0  45.75 0.5013294033906865 0  46.5 0.5012796905590026 0  47.25 0.5012276655963297 0  48 0.5011733285846577 0  48.75 0.5011166796731074 0  49.5 0.5010577191327811 0  50.25 0.5009964474563717 0  51 0.5009328655389986 0  51.75 0.5008669750062885 0  52.5 0.5007987788090396 0  53.25 0.5007282822991492 0  54 0.5006554951700801 0  54.75 0.5005804349355928 0  55.5 0.5005031330955502 0  56.25 0.5004236458273196 0  57 0.5003420717468802 0  57.75 0.5002585790265823 0  58.5 0.500173440420589 0  59.25 0.5000870646685446 0  60 0.5 0  0 1 0  0.75 1.000174422049717 0  1.5 1.000347421081251 0  2.25 1.000517879338143 0  3 1.000684983286973 0  3.75 1.000848203515056 0  4.5 1.001007220060435 0  5.25 1.001161847727706 0  6 1.001311981805663 0  6.75 1.00145756381811 0  7.5 1.001598561322621 0  8.25 1.001734956383523 0  9 1.001866739104234 0  9.75 1.001993904029966 0  10.5 1.002116448156119 0  11.25 1.002234369828431 0  12 1.002347668136402 0  12.75 1.002456342579052 0  13.5 1.002560392880824 0  14.25 1.002659818890213 0  15 1.002754620523978 0  15.75 1.002844797736426 0  16.5 1.002930350502516 0  17.25 1.00301127880856 0  18 1.003087582647113 0  18.75 1.003159262014153 0  19.5 1.003226316907537 0  20.25 1.003288747326154 0  21 1.003346553269451 0  21.75 1.003399734737177 0  22.5 1.003448291729244 0  23.25 1.00349222424565 0  24 1.003531532286432 0  24.75 1.003566215851647 0  25.5 1.003596274941354 0  26.25 1.003621709555612 0  27 1.003642519694475 0  27.75 1.003658705357987 0  28.5 1.003670266546185 0  29.25 1.003677203259092 0  30 1.003679515496727 0  30.75 1.003677203259092 0  31.5 1.003670266546185 0  32.25 1.003658705357987 0  33 1.003642519694475 0  33.75 1.003621709555612 0  34.5 1.003596274941354 0  35.25 1.003566215851647 0  36 1.003531532286432 0  36.75 1.00349222424565 0  37.5 1.003448291729244 0  38.25 1.003399734737177 0  39 1.003346553269451 0  39.75 1.003288747326154 0  40.5 1.003226316907537 0  41.25 1.003159262014153 0  42 1.003087582647113 0  42.75 1.00301127880856 0  43.5 1.002930350502516 0  44.25 1.002844797736426 0  45 1.002754620523978 0  45.75 1.002659818890213 0  46.5 1.002560392880824 0  47.25 1.002456342579052 0  48 1.002347668136402 0  48.75 1.002234369828431 0  49.5 1.002116448156119 0  50.25 1.001993904029966 0  51 1.001866739104234 0  51.75 1.001734956383523 0  52.5 1.001598561322621 0  53.25 1.00145756381811 0  54 1.001311981805663 0  54.75 1.001161847727706 0  55.5 1.001007220060435 0  56.25 1.000848203515056 0  57 1.000684983286973 0  57.75 1.000517879338143 0  58.5 1.000347421081251 0  59.25 1.000174422049717 0  60 1 0  0 1.5 0  0.75 1.500262386908551 0  1.5 1.500522513779157 0  2.25 1.500778650722687 0  3 1.501029594799795 0  3.75 1.501274597767081 0  4.5 1.501513222336727 0  5.25 1.50174522054797 0  6 1.501970453786338 0  6.75 1.502188845112389 0  7.5 1.502400351978018 0  8.25 1.502604950900762 0  9 1.502802628935103 0  9.75 1.502993378949145 0  10.5 1.503177197015516 0  11.25 1.503354080972191 0  12 1.503524029629299 0  12.75 1.503687042332177 0  13.5 1.503843118720749 0  14.25 1.503992258597056 0  15 1.504134461852337 0  15.75 1.504269728426899 0  16.5 1.504398058288035 0  17.25 1.504519451417872 0  18 1.504633907806693 0  18.75 1.504741427449257 0  19.5 1.504842010342775 0  20.25 1.504935656485804 0  21 1.50502236587763 0  21.75 1.505102138517938 0  22.5 1.50517497440662 0  23.25 1.50524087354368 0  24 1.505299835929174 0  24.75 1.505351861563181 0  25.5 1.505396950445786 0  26.25 1.505435102577071 0  27 1.505466317957109 0  27.75 1.505490596585962 0  28.5 1.505507938463676 0  29.25 1.505518343590292 0  30 1.505521811965828 0  30.75 1.505518343590292 0  31.5 1.505507938463677 0  32.25 1.505490596585962 0  33 1.505466317957109 0  33.75 1.505435102577071 0  34.5 1.505396950445786 0  35.25 1.505351861563181 0  36 1.505299835929174 0  36.75 1.50524087354368 0  37.5 1.50517497440662 0  38.25 1.505102138517938 0  39 1.50502236587763 0  39.75 1.504935656485804 0  40.5 1.504842010342775 0  41.25 1.504741427449257 0  42 1.504633907806693 0  42.75 1.504519451417872 0  43.5 1.504398058288035 0  44.25 1.504269728426899 0  45 1.504134461852337 0  45.75 1.503992258597056 0  46.5 1.503843118720749 0  47.25 1.503687042332177 0  48 1.503524029629299 0  48.75 1.503354080972191 0  49.5 1.503177197015516 0  50.25 1.502993378949145 0  51 1.502802628935103 0  51.75 1.502604950900762 0  52.5 1.502400351978018 0  53.25 1.502188845112389 0  54 1.501970453786338 0  54.75 1.50174522054797 0  55.5 1.501513222336727 0  56.25 1.501274597767081 0  57 1.501029594799795 0  57.75 1.500778650722687 0  58.5 1.500522513779157 0  59.25 1.500262386908551 0  60 1.5 0  0 2 0  0.75 2.000351325037799 0  1.5 2.000699359634586 0  2.25 2.001041701919551 0  3 2.001376806626896 0  3.75 2.001703777838169 0  4.5 2.002022115609901 0  5.25 2.002331543615624 0  6 2.00263190947334 0  6.75 2.002923129210547 0  7.5 2.003205156566576 0  8.25 2.003477966061347 0  9 2.003741543663038 0  9.75 2.003995881645649 0  10.5 2.004240975755939 0  11.25 2.004476823652884 0  12 2.004703424048223 0  12.75 2.004920776233209 0  13.5 2.005128879818042 0  14.25 2.005327734588437 0  15 2.005517340426673 0  15.75 2.005697697268155 0  16.5 2.005868805077496 0  17.25 2.006030663835372 0  18 2.006183273531281 0  18.75 2.006326634159572 0  19.5 2.006460745717243 0  20.25 2.006585608202748 0  21 2.006701221615334 0  21.75 2.006807585954672 0  22.5 2.006904701220658 0  23.25 2.006992567413311 0  24 2.007071184532701 0  24.75 2.007140552578924 0  25.5 2.007200671552082 0  26.25 2.007251541452272 0  27 2.007293162279577 0  27.75 2.007325534034071 0  28.5 2.007348656715811 0  29.25 2.007362530324839 0  30 2.007367154861178 0  30.75 2.007362530324839 0  31.5 2.007348656715811 0  32.25 2.007325534034071 0  33 2.007293162279577 0  33.75 2.007251541452272 0  34.5 2.007200671552082 0  35.25 2.007140552578924 0  36 2.007071184532701 0  36.75 2.006992567413311 0  37.5 2.006904701220658 0  38.25 2.006807585954672 0  39 2.006701221615334 0  39.75 2.006585608202748 0  40.5 2.006460745717243 0  41.25 2.006326634159572 0  42 2.006183273531281 0  42.75 2.006030663835372 0  43.5 2.005868805077496 0  44.25 2.005697697268155 0  45 2.005517340426673 0  45.75 2.005327734588437 0  46.5 2.005128879818042 0  47.25 2.004920776233209 0  48 2.004703424048223 0  48.75 2.004476823652884 0  49.5 2.004240975755939 0  50.25 2.003995881645649 0  51 2.003741543663038 0  51.75 2.003477966061347 0  52.5 2.003205156566576 0  53.25 2.002923129210547 0  54 2.00263190947334 0  54.75 2.002331543615624 0  55.5 2.002022115609901 0  56.25 2.001703777838169 0  57 2.001376806626896 0  57.75 2.001041701919551 0  58.5 2.000699359634586 0  59.25 2.000351325037799 0  60 2 0  0 2.5 0  0.75 2.500441700959708 0  1.5 2.500878720743862 0  2.25 2.501307933640545 0  3 2.501727576866147 0  3.75 2.502136726714577 0  4.5 2.502534894674352 0  5.25 2.502921817810827 0  6 2.503297353124053 0  6.75 2.503661422381243 0  7.5 2.504013982648081 0  8.25 2.504355010324243 0  9 2.504684492426934 0  9.75 2.505002421811819 0  10.5 2.505308794547067 0  11.25 2.505603608468931 0  12 2.505886862386835 0  12.75 2.506158555645816 0  13.5 2.506418687885686 0  14.25 2.506667258908456 0  15 2.506904268605377 0  15.75 2.507129716916785 0  16.5 2.507343603810014 0  17.25 2.507545929267232 0  18 2.507736693278769 0  18.75 2.50791589583942 0  19.5 2.508083536946441 0  20.25 2.508239616
[...]
<PointData  Scalars="f_10-1"> 
<DataArray  type="Float64"  Name="f_10-1"  format="ascii">6.3635772085941049e+00  6.2846511732146801e+00  6.2030719489205222e+00  6.1242374903771060e+00  6.0442023351579817e+00  5.9647776014437657e+00  5.8850604256401775e+00  5.8055087484728567e+00  5.7259179658763086e+00  5.6463783674603762e+00  5.5668470422709246e+00  5.4873398077641617e+00  5.4078471491873126e+00  5.3283713052880257e+00  5.2489096277048795e+00  5.1694619270267044e+00  5.0900269923878998e+00  5.0106041510248396e+00  4.9311925189111241e+00  4.8517913685792387e+00  4.7723999507332708e+00  4.6930175730415105e+00  4.6136435434062975e+00  4.5342771826950381e+00  4.4549178069798065e+00  4.3755647314441513e+00  4.2962172670689442e+00  4.2168747231144348e+00  4.1375364069514173e+00  4.0582016249948181e+00  3.9788696825932917e+00  3.8995398841703546e+00  3.8202115331076056e+00  3.7408839317862248e+00  3.6615563816108687e+00  3.5822281831180605e+00  3.5028986360790562e+00  3.4235670396194773e+00  3.3442326923125778e+00  3.2648948922591838e+00  3.1855529371380382e+00  3.1062061242390970e+00  3.0268537504754591e+00  2.9474951123838005e+00  2.8681295061125089e+00  2.7887562274036570e+00  2.7093745715692346e+00  2.6299838334646357e+00  2.5505833074593327e+00  2.4711722874069260e+00  2.3917500666139455e+00  2.3123159378086879e+00  2.2328691931098854e+00  2.1534091239961710e+00  2.0739350212763474e+00  1.9944461750618936e+00  1.9149418747429849e+00  1.8354214089705727e+00  1.7558840656486649e+00  1.6763291319441140e+00  1.5967558943244138e+00  1.5171636386445229e+00  1.4375516503104679e+00  1.3579192145746513e+00  1.2782656170556119e+00  1.1985901445568676e+00  1.1188920866953416e+00  1.0391707377653936e+00  9.5942540242147523e-01  8.7965539828351536e-01  7.9986007794115721e-01  7.2003882713428324e-01  6.4019114941695343e-01  5.6031663982372959e-01  4.8041537804752538e-01  4.0048764205621312e-01  3.2053722286417796e-01  2.4056956354619369e-01  1.6059791054187603e-01  8.0661414971987325e-02  1.3298488459418914e-03  6.3640949249997307e+00  6.2842253936249657e+00  6.2035847125958936e+00  6.1240719845172595e+00  6.0443697576944677e+00  5.9647394282551884e+00  5.8851303553817056e+00  5.8055227542753194e+00  5.7259599005086530e+00  5.6464061189306589e+00  5.5668813122980225e+00  5.4873704310253899e+00  5.4078791703272442e+00  5.3284022731935714e+00  5.2489407995027815e+00  5.1694927008371154e+00  5.0900577046323914e+00  5.0106346602017222e+00  4.9312229280671032e+00  4.8518216475511435e+00  4.7724301308871562e+00  4.6930476441547357e+00  4.6136735100339878e+00  4.5343070364508904e+00  4.4549475439519810e+00  4.3755943446894756e+00  4.2962467519096030e+00  4.2169040748422812e+00  4.1375656222455923e+00  4.0582307010634278e+00  3.9788986174534346e+00  3.8995686762804405e+00  3.8202401813706910e+00  3.7409124353828256e+00  3.6615847399581427e+00  3.5822563957901536e+00  3.5029267027725561e+00  3.4235949601136828e+00  3.3442604664472135e+00  3.2649225199142089e+00  3.1855804182208662e+00  3.1062334586744975e+00  3.0268809381988260e+00  2.9475221533362648e+00  2.8681564002376856e+00  2.7887829746454100e+00  2.7094011718702329e+00  2.6300102867653274e+00  2.5506096136973997e+00  2.4711984465168650e+00  2.3917760785267865e+00  2.3123418024519511e+00  2.2328949104073770e+00  2.1534346938679283e+00  2.0739604436385628e+00  1.9944714498267149e+00  1.9149670018182730e+00  1.8354463882593941e+00  1.7559088970486365e+00  1.6763538153459561e+00  1.5967804296104553e+00  1.5171880256850563e+00  1.4375758889599231e+00  1.3579433046659737e+00  1.2782895583806440e+00  1.1986139368949273e+00  1.1189157296408838e+00  1.0391942311590570e+00  9.5944874499016997e-01  8.7967859083206124e-01  7.9988311529366196e-01  7.2006171389979112e-01  6.4021386478089715e-01  5.6033919848809244e-01  4.8043764576094283e-01  4.0050974762306901e-01  3.2055791860467286e-01  2.4058839652955213e-01  1.6061105655718702e-01  8.0655472490872446e-02  1.0305284672740919e-04  6.3637726294340222e+00  6.2842178112323035e+00  6.2038193632408198e+00  6.1241628016724006e+00  6.0443991975910611e+00  5.9647830057665656e+00  5.8851433656363428e+00  5.8055606305106719e+00  5.7259823818533206e+00  5.6464397748389699e+00  5.5669089138605177e+00  5.4874019691992846e+00  5.4079087245490465e+00  5.3284331684197834e+00  5.2489711565857897e+00  5.1695235633596957e+00  5.0900885007000962e+00  5.0106657282524152e+00  4.9312541172368745e+00  4.8518530842016458e+00  4.7724617847886250e+00  4.6930795609363587e+00  4.6137056795250864e+00  4.5343394668699259e+00  4.4549802243073691e+00  4.3756272697416758e+00  4.2962799116722374e+00  4.2169374626549994e+00  4.1375992314148622e+00  4.0582645270766502e+00  3.9789326566195089e+00  3.8996029261538121e+00  3.8202746401356289e+00  3.7409471018540330e+00  3.6616196133055072e+00  3.5822914754851194e+00  3.5029619884689711e+00  3.4236304516086040e+00  3.3442961636292332e+00  3.2649584227405755e+00  3.1856165266942056e+00  3.1062697728302391e+00  3.0269174580943146e+00  2.9475588790441147e+00  2.8681933318405179e+00  2.7888201122326506e+00  2.7094385155355316e+00  2.6300478366050486e+00  2.5506473698094365e+00  2.4712364089998866e+00  2.3918142474795476e+00  2.3123801779726847e+00  2.2329334925931321e+00  2.1534734828134825e+00  2.0739994394347616e+00  1.9945106525577347e+00  1.9150064115569352e+00  1.8354860050593365e+00  1.7559487209309674e+00  1.6763938462769956e+00  1.5968206674638958e+00  1.5172284701793333e+00  1.4376165395527392e+00  1.3579841603796945e+00  1.2783306175113942e+00  1.1986551965239514e+00  1.1189571848463300e+00  1.0392358735907108e+00  9.5949056077048678e-01  8.7972055593448517e-01  7.9992518954819847e-01  7.2010382336364076e-01  6.4025587679022755e-01  5.6038084239513974e-01  4.8047834620527391e-01  4.0054812890556868e-01  3.2059026512473598e-01  2.4060419159359056e-01  1.6058146233208132e-01  8.0459722446477783e-02  1.4304158542938229e-05  6.3640026421912035e+00  6.2839547042556783e+00  6.2040113373580938e+00  6.1240950618731649e+00  6.0444308847138988e+00  5.9647330840625470e+00  5.8851394231499805e+00  5.8055311203079683e+00  5.7259733302916338e+00  5.6464207296661089e+00  5.5668981113257860e+00  5.4873875314290048e+00  5.4078975484139722e+00  5.3284209647283367e+00  5.2489603550410120e+00  5.1695126900194524e+00  5.0900783829613641e+00  5.0106559022937889e+00  4.9312448880505917e+00  4.8518443340481809e+00  4.7724536351188043e+00  4.6930719844959219e+00  4.6136987144141246e+00  4.5343330966471420e+00  4.4549744503130979e+00  4.3756220761160156e+00  4.2962752899176735e+00  4.2169334010934705e+00  4.1375957227768083e+00  4.0582615647220397e+00  3.9789302364422987e+00  3.8996010449882443e+00  3.8202732960686130e+00  3.7409462935375126e+00  3.6616193399439791e+00  3.5822917365556353e+00  3.5029627836824901e+00  3.4236317808019878e+00  3.3442980267416424e+00  3.2649608197718054e+00  3.1856194576921188e+00  3.1062732378736082e+00  3.0269214572859493e+00  2.9475634125031505e+00  2.8681983996986213e+00  2.7888257146303279e+00  2.7094446526201708e+00  2.6300545085291307e+00  2.5506545767294084e+00  2.4712441510751804e+00  2.3918225248720923e+00  2.3123889908457484e+00  2.2329428411104377e+00  2.1534833671374587e+00  2.0740098597238852e+00  1.9945216089620319e+00  1.9150179042103337e+00  1.8354980340668119e+00  1.7559612863467469e+00  1.6764069480677661e+00  1.5968343054469762e+00  1.5172426439187061e+00  1.4376312481861044e+00  1.3579994023277158e+00  1.2783463899975518e+00  1.1986714947722752e+00  1.1189740007397684e+00  1.0392531934874731e+00  9.5950836159780817e-01  8.7973879923917642e-01  7.9994380886585115e-01  7.2012270629659636e-01  6.4027481637551731e-01  5.6039946290839371e-01  4.8049586395272331e-01  4.0056288130462886e-01  3.2059805374093608e-01  2.4059443521290866e-01  1.6053074807844658e-01  8.0353559053797749e-02  1.4348522668831532e-05  6.3639399365059255e+00  6.2839409196434977e+00  6.2039173589454597e+00  6.1240930489607752e+00  6.0443431035019541e+00  5.9647145903595202e+00  5.8850816437502420e+00  5.8055083955034554e+00  5.7259345149758518e+00  5.6463967766526704e+00  5.5668682172230426e+00  5.4873637906923181e+00  5.4078720642155398e+00  5.3283981923988524e+00  5.2489374235829889e+00  5.1694911693989898e+00  5.0900572899145216e+00  5.0106358099708794e+00  4.9312255093191153e+00  4.8518259004721775e+00  4.7724360776573924e+00  4.6930553883291761e+00  4.6136830529047801e+00  4.5343183853971070e+00  4.4549606662608854e+00  4.3756092108516933e+00  4.2962633254612452e+00  4.2169223272810274e+00  4.1375855290958015e+00  4.0582522451181244e+00  3.9789217860422634e+00  3.8995934610884242e+00  3.8202665767456234e+00  3.7409404377475437e+00  3.6616143469739657e+00  3.5822876060007554e+00  3.5029595152536452e+00  3.4236293743118105e+00  3.3442964820442453e+00  3.2649601367587033e+00  3.1856196362742693e+00  3.1062742779798400e+00  3.0269233588571081e+00  2.9475661754906852e+00  2.8682020240621968e+00  2.7888302003365952e+00  2.7094499996416452e+00  2.6300607168431438e+00  2.5506616463176077e+00  2.4712520819228154e+00  2.3918313169672309e+00  2.3123986441786508e+00  2.2329533556721701e+00  2.1534947429180038e+00  2.0740220967088892e+00  1.9945347071273145e+00  1.9150318635126611e+00  1.8355128544281527e+00  1.7559769676277208e+00  1.6764234900226611e+00  1.5968517076482172e+00  1.5172609056299220e+00  1.4376503681493706e+00  1.3580193784097665e+00  1.2783672185985577e+00  1.1986931698474479e+00  1.1189965121773231e+00  1.0392765244004329e+00  9.5953248392587553e-01  8.7976366607766576e-01  7.9996934254589314e-01  7.2014877521379950e-01  6.4030120084686715e-01  5.6042577518769376e-01  4.8052142377336998e-01  4.0058638514936440e-01  3.2061686066805450e-01  2.4060280402279852e-01  1.6051906297990609e-01  8.0322789554388346e-02  1.6628709528716692e-05  6.3640088042463994e+00  6.2838458181579808e+00  6.2038661952488035e+00  6.1239545241055593e+00  6.0443192356326714e+00  5.9646414013234148e+00  5.8850665308523968e+00  5.8054683230783608e+00  5.7259190407236611e+00  5.6463715465899904e+00  5.5668533853107274e+00  5.4873460112917849e+00  5.4078588867681558e+00  5.3283846469469607e+00  5.2489261842849615e+00  5.1694804712983329e+00  5.0900480791730009e+00  5.0106275260618158e+00  4.9312185194415568e+00  4.8518200573959671e+00  4.7724315247265050e+00  4.6930520816294639e+00  4.6136810301963092e+00  4.5343176170387727e+00  4.4549611478623463e+00  4.3756109187234387e+00  4.2962662477075009e+00  4.2169264495251237e+00  4.1375908436278896e+00  4.0582587454352552e+00  3.9789294689386869e+00  3.8996023243482987e+00  3.8202766194393192e+00  3.7409516593103733e+00  3.6616267472117339e+00  3.5823011847751944e+00  3.5029742724864912e+00  3.4236453099001429e+00  3.3443135958754948e+00  3.2649784286963226e+00  3.1856391061702136e+00  3.1062949256755692e+00  3.0269451841902661e+00  2.9475891782971497e+00  2.8682262041787303e+00  2.7888555576018499e+00  2.7094765338969462e+00  2.6300884279327907e+00  2.5506905340888908e+00  2.4712821462258927e+00  2.3918625576547585e+00  2.3124310611051184e+00  2.2329869486928171e+00  2.1535295118868936e+00  2.0740580414757144e+00  1.9945718275319504e+00  1.9150701593758679e+00  1.8355523255359187e+00  1.7560176137045631e+00  1.6764653106868643e+00  1.5968947023361642e+00  1.5173050734691005e+00  1.4376957077465442e+00  1.3580658874963714e+00  1.2784148934438120e+00  1.1987420042829859e+00  1.1190464959868611e+00  1.0393276406941010e+00  9.5958470475274393e-01  8.7981694566642388e-01  8.0002360553677532e-01  7.2020390114482113e-01  6.4035699505812571e-01  5.6048194643804605e-01  4.8057754317475093e-01  4.0064195374213146e-01  3.2067161934028088e-01  2.4065771931128227e-01  1.6057581626381387e-01  8.0371899222995480e-02  8.8891542660162371e-06  6.3637563208685988e+00  6.2839914954334439e+00  6.2035059531357204e+00  6.1238991455738692e+00  6.0441756263029021e+00  5.9646106260526048e+00  5.8849986013694666e+00  5.8054391381693993e+00  5.7258741412928895e+00  5.6463425939464393e+00  5.5668193377324151e+00  5.4873190088618120e+00  5.4078310428826200e+00  5.3283602304539652e+00  5.2489023945749009e+00  5.1694587490553072e+00  5.0900275072582017e+00  5.0106086170644408e+00  4.9312010147166507e+00  4.8518041519617805e+00  4.7724171487298310e+00  4.6930392952669244e+00  4.6136697992438132e+00  4.5343079445247643e+00  4.4549530074937342e+00  4.3756042990963300e+00  4.2962611320187714e+00  4.2169228291015903e+00  4.1375887106361100e+00  4.0582580962007748e+00  3.9789303008992829e+00  3.8996046365901562e+00  3.8202804114465141e+00  3.7409569309959778e+00  3.6616334984805610e+00  3.5823094155390636e+00  3.5029839825510392e+00  3.4236564989979810e+00  3.3443262636550313e+00  3.2649925747508215e+00  3.1856547300472782e+00  3.1063120268946882e+00  3.0269637622510239e+00  2.9476092326878400e+00  2.8682477343806920e+00  2.7888785630931001e+00  2.7095010141540059e+00  2.6301143824321298e+00  2.5507179623074880e+00  2.4713110476416582e+00  2.3918929317464781e+00  2.3124629073521388e+00  2.2330202665743242e+00  2.1535643008803662e+00  2.0740943010544517e+00  1.9946095571606126e+00  1.9151093585029670e+00  1.8355929935809308e+00  1.7560597500362218e+00  1.6765089145863556e+00  1.5969397729353008e+00  1.5173516096469539e+00  1.4377437079556654e+00  1.3581153494758593e+00  1.2784658137396383e+00  1.1987943774587801e+00  1.1191003133350821e+00  1.0393828880761793e+00  9.5964135936031481e-01  8.7987497020162464e-01  8.0008294160272364e-01  7.2026445544321904e-01  6.4041863654199460e-01  5.6054449577636989e-01  4.8064087634819480e-01  4.0070626570928997e-01  3.2073873302591205e-01  2.4073428043710038e-01  1.6067783485409354e-01  8.0501299427749917e-02  3.6713136553008143e-07  6.3641296056977863e+00  6.2837708803466699e+00  6.2031397575239628e+00  6.1236779375844144e+00  6.0440622647295497e+00  5.9644893229883689e+00  5.8849245350141608e+00  5.8053437611487011e+00  5.7258008760310135e+00  5.6462607572483030e+00  5.5667471127082822e+00  5.4872450654074001e+00  5.4077615139259887e+00  5.3282913271724182e+00  5.2488360211995735e+00  5.1693937183365888e+00  5.0899644226536651e+00  5.0105471442859733e+00  4.9311413644397444e+00  4.8517462386727033e+00  4.7723610402752614e+00  4.6929849590358872e+00  4.6136172440747751e+00  4.5342571475472573e+00  4.4549039605777914e+00  4.3755569876396700e+00  4.2962155492367318e+00  4.2168789687974373e+00  4.1375465707446759e+00  4.0582176757808455e+00  3.9788916006773554e+00  3.8995676576914842e+00  3.8202451553958192e+00  3.7409233992660509e+00  3.6616016924941710e+00  3.5822793365581456e+00  3.5029556317119734e+00  3.4236298773098515e+00  3.3443013720355230e+00  3.2649694140446202e+00  3.1856333010492990e+00  3.1062923303643903e+00  3.0269457989244870e+00  2.9475930032854252e+00  2.8682332396125321e+00  2.7888658036625591e+00  2.7094899907599856e+00  2.6301050957704328e+00  2.5507104130716969e+00  2.4713052365236274e+00  2.3918888594364276e+00  2.3124605745386573e+00  2.2330196739438715e+00  2.1535654491165768e+00  2.0740971908365045e+00  1.9946141891606028e+00  1.9151157333813258e+00  1.8356011119785880e+00  1.7560696125613613e+00  1.6765205217920451e+00  1.5969531252820275e+00  1.5173667074396078e+00  1.4377605512392724e+00  1.3581339378612514e+00  1.2784861461158159e+00  1.1988164515234552e+00  1.1191241248021917e+00  1.0394084294916908e+00  9.5966861791143021e-01  8.7990392529021189e-01  8.0011355923549776e-01  7.2029668699460037e-01  6.4045241215536242e-01  5.6057975307437324e-01  4.8067764555640313e-01  4.0074504101881614e-01  3.2078184683173705e-01  2.4078989938672593e-01  1.6076953203947425e-01  8.0736772619459843e-02  5.6997122853871861e-05  6.3634245654610853e+00  6.2840440919465532e+00  6.2025249555577764e+00  6.1237734309663523e+00  6.0438287623077365e+00  5.9644743760031353e+00  5.8848015440861818e+00  5.8052819218878602e+00  5.7257120503006984e+00  5.6461887785041753e+00  5.5666699794208601e+00  5.4871734076037670e+00  5.4076898986229205e+00  5.3282223257634636e+00  5.2487682790567876e+00  5.1693278937945717e+00  5.0899001829723067e+00  5.0104846737568227e+00  4.9310805781314917e+00  4.8516871831019506e+00  4.7723036832807182e+00  4.6929293036647959e+00  4.6135632723502198e+00  4.5342048542540923e+00  4.4548533372971226e+00  4.3755080321098818e+00  4.2961682599059250e+00  4.2168333468694446e+00  4.1375026180072290e+00  4.0581753948704513e+00  3.9788509942509136e+00  3.8995287284433084e+00  3.8202079058127278e+00  3.7408878316660510e+00  3.6615678089952790e+00  3.5822471391287820e+00  3.5029251221934432e+00  3.4236010574548805e+00  3.3442742435316828e+00  3.2649439785367624e+00  3.1856095601540604e+00  3.1062702856812878e+00  3.0269254520430695e+00  2.9475743557902896e+00  2.8682162930864008e+00  2.7888505596884134e+00  2.7094764509222649e+00  2.6300932616558148e+00  2.5507002862695605e+00  2.4712968186262261e+00  2.3918821520391673e+00  2.3124555792399555e+00  2.2330163923452395e+00  2.1535638828225312e+00  2.0740973414544404e+00  1.9946160583005828e+00  1.9151193226557566e+00  1.8356064230017264e+00  1.7560766469484603e+00  1.6765292811582644e+00  1.5969636112401806e+00  1.5173789215977795e+00  1.4377744951960223e+00  1.3581496131980018e+00  1.2785035543980201e+00  1.1988355942454316e+00  1.1191450035218544e+00  1.0394310453563875e+00  9.5969297294194122e-01  8.7993001915959734e-01  8.0014139719363153e-01  7.2032626424128621e-01  6.4048374892589122e-01  5.6061283522668148e-01  4.8071261143215066e-01  4.0078177965677775e-01  3.2082166007007379e-01  2.4083321963559859e-01  1.6081978933430885e-01  8.0807905571536567e-02  1.3708499822317460e-03  6.3249008863840714e+00  6.2437229942073236e+00  6.1639197200671418e+00  6.0842519353807054e+00  6.0046238386139397e+00  5.9249987988617105e+00  5.8453893922608922e+00  5.7658072398397522e+00  5.6862461561745326e+00  5.6067086882959822e+00  5.5271897574078404e+00  5.4476893447050010e+00  5.3682049392638138e+00  5.2887359631601250e+00  5.2092810908428611e+00  5.1298396096379486e+00  5.0504105644728785e+00  4.9709931885959282e+00  4.8915866627440003e+00  4.8121902522729663e+00  4.7328032288068327e+00  4.6534249004184476e+00  4.5740545784583206e+00  4.4946915816655055e+00  4.4153352251110443e+00  4.3359848224672772e+00  4.2566396841328373e+00  4.1772991189684623e+00  4.0979624342246863e+00  4.0186289361479286e+00  3.9392979298785731e+00  3.8599687195364059e+00  3.7806406081600499e+00  3.7013128977675116e+00  3.6219848894212969e+00  3.5426558833451325e+00  3.4633251790380495e+00  3.3839920753862009e+00  3.3046558707522533e+00  3.2253158630434755e+00  3.1459713497556874e+00  3.0666216279975504e+00  2.9872659944980118e+00  2.9079037456014962e+00  2.8285341772537396e+00  2.7491565849813129e+00  2.6697702638667606e+00  2.5903745085210144e+00  2.5109686130538180e+00  2.4315518710433315e+00  2.3521235755049381e+00  2.2726830188601364e+00  2.1932294929055454e+00  2.1137622887829068e+00  2.0342806969504963e+00  1.9547840071574720e+00  1.8752715084230653e+00  1.7957424890240956e+00  1.7161962364963166e+00  1.6366320376593311e+00  1.5570491786798069e+00  1.4774469452000114e+00  1.3978246225714439e+00  1.3181814962664022e+00  1.2385168525813690e+00  1.1588299798033339e+00  1.0791201702572100e+00  9.9938672337932188e-01  9.1962895201075001e-01  8.3984618992039617e-01  7.6003781334608611e-01  6.8020326000963427e-01  6.0034210749843708e-01  5.2045414801372458e-01  4.4053974866814383e-01  3.6060039280930217e-01  2.8064176208130642e-01  2.0067355884509799e-01  1.2072295700782451e-01  4.0949978412470077e-02  6.3237201108079306e+00  6.2439365521105996e+00  6.1639532387240017e+00  6.0841987031820777e+00  6.0045559917257370e+00  5.9249228528911164e+00  5.8453134186803242e+00  5.7657312760926507e+00  5.6861711363808514e+00  5.6066330388825891e+00  5.5271146636669535e+00  5.4476137696494398e+00  5.3681295952741275e+00  5.2886603927047879e+00  5.2092055985428800e+00  5.1297640299921001e+00  5.0503350208599711e+00  4.9709176391281273e+00  4.8915111639155002e+00  4.8121148003134300e+00  4.7327278464054