<?xml version="1.0"?>
<VTKFile type="UnstructuredGrid"  version="0.1"  >
<UnstructuredGrid>
<Piece  NumberOfPoints="1369" NumberOfCells="2560">
<Points>
<DataArray  type="Float64"  NumberOfComponents="3"  format="ascii">0 0 0  0.75 0 0  1.5 0 0  2.25 0 0  3 0 0  3.75 0 0  4.5 0 0  5.25 0 0  6 0 0  6.75 0 0  7.5 0 0  8.25 0 0  9 0 0  9.75 0 0  10.5 0 0  11.25 0 0  12 0 0  12.75 0 0  13.5 0 0  14.25 0 0  15 0 0  15.75 0 0  16.5 0 0  17.25 0 0  18 0 0  18.75 0 0  19.5 0 0  20.25 0 0  21 0 0  21.75 0 0  22.5 0 0  23.25 0 0  24 0 0  24.75 0 0  25.5 0 0  26.25 0 0  27 0 0  27.75 0 0  28.5 0 0  29.25 0 0  30 0 0  30.75 0 0  31.5 0 0  32.25 0 0  33 0 0  33.75 0 0  34.5 0 0  35.25 0 0  36 0 0  36.75 0 0  37.5 0 0  38.25 0 0  39 0 0  39.75 0 0  40.5 0 0  41.25 0 0  42 0 0  42.75 0 0  43.5 0 0  44.25 0 0  45 0 0  45.75 0 0  46.5 0 0  47.25 0 0  48 0 0  48.75 0 0  49.5 0 0  50.25 0 0  51 0 0  51.75 0 0  52.5 0 0  53.25 0 0  54 0 0  54.75 0 0  55.5 0 0  56.25 0 0  57 0 0  57.75 0 0  58.5 0 0  59.25 0 0  60 0 0  0 0.5 0  0.75 0.5000330565512413 0  1.5 0.5000658649345386 0  2.25 0.5000982124314761 0  3 0.500129940284273 0  3.75 0.5001609424703685 0  4.5 0.5001911535762501 0  5.25 0.5002205352193909 0  6 0.5002490655202072 0  6.75 0.500276732201007 0  7.5 0.500303528429448 0  8.25 0.5003294504201417 0  9 0.5003544960806898 0  9.75 0.5003786642559183 0  10.5 0.5004019543084867 0  11.25 0.5004243658868766 0  12 0.5004458987972468 0  12.75 0.5004665529327152 0  13.5 0.5004863282343512 0  14.25 0.5005052246696637 0  15 0.5005232422207391 0  15.75 0.5005403808777007 0  16.5 0.5005566406351035 0  17.25 0.5005720214899454 0  18 0.5005865234405711 0  18.75 0.5006001464860682 0  19.5 0.5006128906259335 0  20.25 0.5006247558598896 0  21 0.5006357421877837 0  21.75 0.5006458496095314 0  22.5 0.5006550781250863 0  23.25 0.5006634277344225 0  24 0.5006708984375262 0  24.75 0.5006774902343895 0  25.5 0.500683203125008 0  26.25 0.5006880371093794 0  27 0.5006919921875025 0  27.75 0.5006950683593764 0  28.5 0.5006972656250008 0  29.25 0.5006985839843755 0  30 0.5006990234375005 0  30.75 0.5006985839843755 0  31.5 0.5006972656250008 0  32.25 0.5006950683593764 0  33 0.5006919921875025 0  33.75 0.5006880371093794 0  34.5 0.500683203125008 0  35.25 0.5006774902343895 0  36 0.5006708984375262 0  36.75 0.5006634277344225 0  37.5 0.5006550781250863 0  38.25 0.5006458496095314 0  39 0.5006357421877837 0  39.75 0.5006247558598896 0  40.5 0.5006128906259335 0  41.25 0.5006001464860682 0  42 0.5005865234405711 0  42.75 0.5005720214899454 0  43.5 0.5005566406351035 0  44.25 0.5005403808777007 0  45 0.5005232422207391 0  45.75 0.5005052246696637 0  46.5 0.5004863282343512 0  47.25 0.5004665529327152 0  48 0.5004458987972468 0  48.75 0.5004243658868766 0  49.5 0.5004019543084867 0  50.25 0.5003786642559183 0  51 0.5003544960806898 0  51.75 0.5003294504201417 0  52.5 0.500303528429448 0  53.25 0.500276732201007 0  54 0.5002490655202072 0  54.75 0.5002205352193909 0  55.5 0.5001911535762501 0  56.25 0.5001609424703685 0  57 0.500129940284273 0  57.75 0.5000982124314761 0  58.5 0.5000658649345386 0  59.25 0.5000330565512413 0  60 0.5 0  0 1 0  0.75 1.000066226537548 0  1.5 1.000131939358401 0  2.25 1.000196704647474 0  3 1.000260206350339 0  3.75 1.000322238646366 0  4.5 1.000382677071313 0  5.25 1.0004414495441 0  6 1.00049851528389 0  6.75 1.000553851499824 0  7.5 1.000607445536668 0  8.25 1.000659290390966 0  9 1.000709382193857 0  9.75 1.000757718810097 0  10.5 1.000804299061813 0  11.25 1.00084912229942 0  12 1.000892188164727 0  12.75 1.000933496460235 0  13.5 1.000973047077055 0  14.25 1.001010839955149 0  15 1.001046875061418 0  15.75 1.001081152377612 0  16.5 1.001113671893669 0  17.25 1.001144433604043 0  18 1.001173437505675 0  18.75 1.001200683596879 0  19.5 1.001226171876725 0  20.25 1.001249902344701 0  21 1.001271875000524 0  21.75 1.001292089844039 0  22.5 1.001310546875159 0  23.25 1.001327246093838 0  24 1.001342187500049 0  24.75 1.001355371093777 0  25.5 1.001366796875015 0  26.25 1.001376464843758 0  27 1.001384375000004 0  27.75 1.001390527343752 0  28.5 1.001394921875002 0  29.25 1.001397558593751 0  30 1.001398437500001 0  30.75 1.001397558593751 0  31.5 1.001394921875002 0  32.25 1.001390527343752 0  33 1.001384375000004 0  33.75 1.001376464843758 0  34.5 1.001366796875015 0  35.25 1.001355371093777 0  36 1.001342187500049 0  36.75 1.001327246093838 0  37.5 1.001310546875159 0  38.25 1.001292089844039 0  39 1.001271875000524 0  39.75 1.001249902344701 0  40.5 1.001226171876725 0  41.25 1.001200683596879 0  42 1.001173437505675 0  42.75 1.001144433604043 0  43.5 1.001113671893669 0  44.25 1.001081152377612 0  45 1.001046875061418 0  45.75 1.001010839955149 0  46.5 1.000973047077055 0  47.25 1.000933496460235 0  48 1.000892188164727 0  48.75 1.00084912229942 0  49.5 1.000804299061813 0  50.25 1.000757718810097 0  51 1.000709382193857 0  51.75 1.000659290390966 0  52.5 1.000607445536668 0  53.25 1.000553851499824 0  54 1.00049851528389 0  54.75 1.0004414495441 0  55.5 1.000382677071313 0  56.25 1.000322238646366 0  57 1.000260206350339 0  57.75 1.000196704647474 0  58.5 1.000131939358401 0  59.25 1.000066226537548 0  60 1 0  0 1.5 0  0.75 1.500099631999275 0  1.5 1.500198445094947 0  2.25 1.500295767590629 0  3 1.500391131973672 0  3.75 1.500484247278635 0  4.5 1.500574943384967 0  5.25 1.500663123782839 0  6 1.500748734491331 0  6.75 1.500831745526954 0  7.5 1.500912140294631 0  8.25 1.500989909626347 0  9 1.50106504846208 0  9.75 1.50113755401051 0  10.5 1.501207424732239 0  11.25 1.501274659778418 0  12 1.50133925868101 0  12.75 1.501401221181962 0  13.5 1.501460547138998 0  14.25 1.501517236473675 0  15 1.501571289142746 0  15.75 1.501622705122367 0  16.5 1.501671484399392 0  17.25 1.501717626966573 0  18 1.501761132819914 0  18.75 1.501802001957213 0  19.5 1.501840234377254 0  20.25 1.501875830079368 0  21 1.501908789063185 0  21.75 1.501939111328503 0  22.5 1.501966796875208 0  23.25 1.50199184570324 0  24 1.502014257812563 0  24.75 1.50203403320316 0  25.5 1.502051171875019 0  26.25 1.502065673828136 0  27 1.502077539062506 0  27.75 1.502086767578128 0  28.5 1.502093359375002 0  29.25 1.502097314453126 0  30 1.502098632812501 0  30.75 1.502097314453126 0  31.5 1.502093359375002 0  32.25 1.502086767578128 0  33 1.502077539062506 0  33.75 1.502065673828136 0  34.5 1.502051171875019 0  35.25 1.50203403320316 0  36 1.502014257812563 0  36.75 1.50199184570324 0  37.5 1.501966796875208 0  38.25 1.501939111328503 0  39 1.501908789063185 0  39.75 1.501875830079368 0  40.5 1.501840234377254 0  41.25 1.501802001957213 0  42 1.501761132819914 0  42.75 1.501717626966573 0  43.5 1.501671484399392 0  44.25 1.501622705122367 0  45 1.501571289142746 0  45.75 1.501517236473675 0  46.5 1.501460547138998 0  47.25 1.501401221181962 0  48 1.50133925868101 0  48.75 1.501274659778418 0  49.5 1.501207424732239 0  50.25 1.50113755401051 0  51 1.50106504846208 0  51.75 1.500989909626347 0  52.5 1.500912140294631 0  53.25 1.500831745526954 0  54 1.500748734491331 0  54.75 1.500663123782839 0  55.5 1.500574943384967 0  56.25 1.500484247278635 0  57 1.500391131973672 0  57.75 1.500295767590629 0  58.5 1.500198445094947 0  59.25 1.500099631999275 0  60 1.5 0  0 2 0  0.75 2.000133414892555 0  1.5 2.00026563106717 0  2.25 2.000395715283656 0  3 2.000523066677508 0  3.75 2.000647336760683 0  4.5 2.000768331023214 0  5.25 2.00088594192099 0  6 2.001000110119349 0  6.75 2.001110802899692 0  7.5 2.001218002222495 0  8.25 2.001321698141912 0  9 2.001421885174483 0  9.75 2.001518560297004 0  10.5 2.001611721842691 0  11.25 2.001701368892596 0  12 2.001787500940071 0  12.75 2.00187011770579 0  13.5 2.001949219035749 0  14.25 2.002024804845042 0  15 2.002096875086858 0  15.75 2.002165429735387 0  16.5 2.002230468776402 0  17.25 2.002291992202056 0  18 2.002350000008025 0  18.75 2.002404492191924 0  19.5 2.002455468752439 0  20.25 2.002502929688845 0  21 2.002546875000741 0  21.75 2.002587304687909 0  22.5 2.002624218750225 0  23.25 2.002657617187624 0  24 2.002687500000068 0  24.75 2.002713867187538 0  25.5 2.002736718750021 0  26.25 2.002756054687512 0  27 2.002771875000006 0  27.75 2.002784179687504 0  28.5 2.002792968750002 0  29.25 2.002798242187501 0  30 2.002800000000001 0  30.75 2.002798242187501 0  31.5 2.002792968750002 0  32.25 2.002784179687504 0  33 2.002771875000006 0  33.75 2.002756054687512 0  34.5 2.002736718750021 0  35.25 2.002713867187538 0  36 2.002687500000068 0  36.75 2.002657617187624 0  37.5 2.002624218750225 0  38.25 2.002587304687909 0  39 2.002546875000741 0  39.75 2.002502929688845 0  40.5 2.002455468752439 0  41.25 2.002404492191924 0  42 2.002350000008025 0  42.75 2.002291992202056 0  43.5 2.002230468776402 0  44.25 2.002165429735387 0  45 2.002096875086858 0  45.75 2.002024804845042 0  46.5 2.001949219035749 0  47.25 2.00187011770579 0  48 2.001787500940071 0  48.75 2.001701368892596 0  49.5 2.001611721842691 0  50.25 2.001518560297004 0  51 2.001421885174483 0  51.75 2.001321698141912 0  52.5 2.001218002222495 0  53.25 2.001110802899692 0  54 2.001000110119349 0  54.75 2.00088594192099 0  55.5 2.000768331023214 0  56.25 2.000647336760683 0  57 2.000523066677508 0  57.75 2.000395715283656 0  58.5 2.00026563106717 0  59.25 2.000133414892555 0  60 2 0  0 2.5 0  0.75 2.500167755719464 0  1.5 2.500333793503022 0  2.25 2.500496897760992 0  3 2.500656382628957 0  3.75 2.500811888731616 0  4.5 2.500963226011686 0  5.25 2.501110292151933 0  6 2.501253031482749 0  6.75 2.501391413529558 0  7.5 2.501525421554476 0  8.25 2.50165504634796 0  9 2.501780282837913 0  9.75 2.501901128229502 0  10.5 2.50201758098231 0  11.25 2.502129640247188 0  12 2.502237305556016 0  12.75 2.502340576650714 0  13.5 2.502439453388998 0  14.25 2.502533935692425 0  15 2.502624023517746 0  15.75 2.502709716841117 0  16.5 2.502791015649392 0  17.25 2.502867919935323 0  18 2.502940429694914 0  18.75 2.503008544925963 0  19.5 2.503072265627253 0  20.25 2.503131591798117 0  2
[...]
<PointData  Scalars="f_10-1"> 
<DataArray  type="Float64"  Name="f_10-1"  format="ascii">3.4430810233716778e+00  3.4012331910321674e+00  3.3580404641110873e+00  3.3150173460359116e+00  3.2719695361070955e+00  3.2289248001095729e+00  3.1858789642276975e+00  3.1428326249330896e+00  3.0997856913929218e+00  3.0567381862379706e+00  3.0136901206682638e+00  2.9706415105188695e+00  2.9275923724766293e+00  2.8845427239277837e+00  2.8414925826004103e+00  2.7984419664168798e+00  2.7553908934090985e+00  2.7123393816743007e+00  2.6692874493511751e+00  2.6262351146069340e+00  2.5831823956301636e+00  2.5401293106267109e+00  2.4970758778172342e+00  2.4540221154355684e+00  2.4109680417276018e+00  2.3679136749503464e+00  2.3248590333711503e+00  2.2818041352670093e+00  2.2387489989238656e+00  2.1956936426359630e+00  2.1526380847051896e+00  2.1095823434404344e+00  2.0665264371569636e+00  2.0234703841757709e+00  1.9804142028229335e+00  1.9373579114289869e+00  1.8943015283282836e+00  1.8512450718583551e+00  1.8081885603592820e+00  1.7651320121730503e+00  1.7220754456429259e+00  1.6790188791127982e+00  1.6359623309265634e+00  1.5929058194274881e+00  1.5498493629575567e+00  1.5067929798568491e+00  1.4637366884628993e+00  1.4206805071100579e+00  1.3776244541288640e+00  1.3345685478453955e+00  1.2915128065806423e+00  1.2484572486498640e+00  1.2054018923619616e+00  1.1623467560188210e+00  1.1192918579146780e+00  1.0762372163354843e+00  1.0331828495582258e+00  9.9012877585025894e-01  9.4707501346859491e-01  9.0402158065911564e-01  8.6096849565566513e-01  8.1791577667889614e-01  7.7486344193466072e-01  7.3181150961153496e-01  6.8875999787673603e-01  6.4570892486895171e-01  6.0265830868541836e-01  5.5960816735804497e-01  5.1655851880919090e-01  4.7350938076695404e-01  4.3046077061755339e-01  3.8741270504784980e-01  3.4436519989289260e-01  3.0131826635272713e-01  2.5827192705811775e-01  2.1522609117623570e-01  1.7218135517871261e-01  1.2913354524989729e-01  8.6110427174719381e-02  4.2917700253638023e-02  1.0698679141344731e-03  3.4443295292312168e+00  3.4010557780908424e+00  3.3580661113225307e+00  3.3150136136575430e+00  3.2719701932913305e+00  3.2289248072296979e+00  3.1858790692357188e+00  3.1428327140000536e+00  3.0997857806615956e+00  3.0567382728005743e+00  3.0136902047072294e+00  2.9706415918715421e+00  2.9275924510952231e+00  2.8845427997804984e+00  2.8414926556706974e+00  2.7984420366952727e+00  2.7553909608900664e+00  2.7123394463544011e+00  2.6692875112280952e+00  2.6262351736789924e+00  2.5831824518960254e+00  2.5401293640852547e+00  2.4970759284674697e+00  2.4540221632765982e+00  2.4109680867586039e+00  2.3679137171705560e+00  2.3248590727798564e+00  2.2818041718635511e+00  2.2387490327076311e+00  2.1956936736063928e+00  2.1526381128617635e+00  2.1095823687826858e+00  2.0665264596844710e+00  2.0234704038881595e+00  1.9804142197198744e+00  1.9373579255102016e+00  1.8943015395935365e+00  1.8512450803074583e+00  1.8081885659920951e+00  1.7651320149894814e+00  1.7220754456429255e+00  1.6790188762963683e+00  1.6359623252937505e+00  1.5929058109783849e+00  1.5498493516923044e+00  1.5067929657756360e+00  1.4637366715659574e+00  1.4206804873976704e+00  1.3776244316013568e+00  1.3345685225031432e+00  1.2915127784240676e+00  1.2484572176794364e+00  1.2054018585781949e+00  1.1623467194222790e+00  1.1192918185059728e+00  1.0762371741152752e+00  1.0331828045272247e+00  9.9012872800922891e-01  9.4707496281836034e-01  9.0402152720057316e-01  8.6096843938980450e-01  8.1791571760683890e-01  7.7486338005773880e-01  7.3181144493143491e-01  6.8875993039576711e-01  6.4570885459055782e-01  6.0265823561513021e-01  5.5960809150532875e-01  5.1655844019059893e-01  4.7350929941428133e-01  4.3046068657858944e-01  3.8741261848524461e-01  3.4436511062422004e-01  3.0131817728576232e-01  2.5827182205009636e-01  2.1522608405611141e-01  1.7218069799447897e-01  1.2913727762826632e-01  8.6084779963274821e-02  4.3095113194963564e-02  -1.7863794541183372e-04  3.4441275014695782e+00  3.4011092313862115e+00  3.3580567931497214e+00  3.3150154532336074e+00  3.2719703704510459e+00  3.2289252713021392e+00  3.1858794959347652e+00  3.1428331423725422e+00  3.0997861994571814e+00  3.0567386809670536e+00  3.0136906009496873e+00  2.9706419756140310e+00  2.9275928220120244e+00  2.8845431576978346e+00  2.8414930004924055e+00  2.7984423683669006e+00  2.7553912793793489e+00  2.7123397516409877e+00  2.6692878032981024e+00  2.6262354525221037e+00  2.5831827175039646e+00  2.5401296164509639e+00  2.4970761675846838e+00  2.4540223891396140e+00  2.4109682993621546e+00  2.3679139165097500e+00  2.3248592588501413e+00  2.2818043446606979e+00  2.2387491922277225e+00  2.1956938198458129e+00  2.1526382458172071e+00  2.1095824884511476e+00  2.0665265660632479e+00  2.0234704969748445e+00  1.9804142995123666e+00  1.9373579920066981e+00  1.8943015927925357e+00  1.8512451202077584e+00  1.8081885925927963e+00  1.7651320282899829e+00  1.7220754456429259e+00  1.6790188629958676e+00  1.6359622986930487e+00  1.5929057710780843e+00  1.5498492984933061e+00  1.5067928992791400e+00  1.4637365917734664e+00  1.4206803943109867e+00  1.3776243252225824e+00  1.3345684028346814e+00  1.2915126454686232e+00  1.2484570714400152e+00  1.2054016990581053e+00  1.1623465466251330e+00  1.1192916324356881e+00  1.0762369747760829e+00  1.0331825919236752e+00  9.9012850214621340e-01  9.4707472370114554e-01  9.0402127483486394e-01  8.6096817378186585e-01  8.1791543876372719e-01  7.7486308798773185e-01  7.3181113964484812e-01  6.8875961190648594e-01  6.4570852291892988e-01  6.0265789079342214e-01  5.5960773358799354e-01  5.1655806927380021e-01  4.7350891567179498e-01  4.3046029033613226e-01  3.8741221031876588e-01  3.4436469182863583e-01  3.0131774891327429e-01  2.5827139535105076e-01  2.1522561998367268e-01  1.7218052083476343e-01  1.2913543805220282e-01  8.6094098136083999e-02  4.3041659899595096e-02  2.3389816225863336e-05  3.4441539969624153e+00  3.4011026754803240e+00  3.3580599285337032e+00  3.3150155304550961e+00  3.2719711281396271e+00  3.2289259538405850e+00  3.1858802011361282e+00  3.1428338374525708e+00  3.0997868809926041e+00  3.0567393449554321e+00  3.0136912456191327e+00  2.9706425999662400e+00  2.9275934255196074e+00  2.8845437400730667e+00  2.8414935615761987e+00  2.7984429080683544e+00  2.7553917976439992e+00  2.7123402484339492e+00  2.6692882785951344e+00  2.6262359063048772e+00  2.5831831497575495e+00  2.5401300271624905e+00  2.4970765567426429e+00  2.4540227567334822e+00  2.4109686453821930e+00  2.3679142409468938e+00  2.3248595616959529e+00  2.2818046259073261e+00  2.2387494518678990e+00  2.1956940578728315e+00  2.1526384622249282e+00  2.1095826832339921e+00  2.0665267392161946e+00  2.0234706484934324e+00  1.9804144293926915e+00  1.9373581002454128e+00  1.8943016793868521e+00  1.8512451851554477e+00  1.8081886358921864e+00  1.7651320499399572e+00  1.7220754456429257e+00  1.6790188413458942e+00  1.6359622553936610e+00  1.5929057061303948e+00  1.5498492118989888e+00  1.5067927910404264e+00  1.4637364618931430e+00  1.4206802427923997e+00  1.3776241520696357e+00  1.3345682080518377e+00  1.2915124290609012e+00  1.2484568334129964e+00  1.2054014394179302e+00  1.1623462653785037e+00  1.1192913295898788e+00  1.0762366503389404e+00  1.0331822459036386e+00  9.9012813455234505e-01  9.4707433454318646e-01  9.0402086412333915e-01  8.6096774152828304e-01  8.1791498498095316e-01  7.7486261269069889e-01  7.3181064285188724e-01  6.8875909364183652e-01  6.4570798321747791e-01  6.0265732970962993e-01  5.5960715121276261e-01  5.1655746576621897e-01  4.7350829131958688e-01  4.3045964566668860e-01  3.8741154633038483e-01  3.4436401029321401e-01  3.0131705383324575e-01  2.5827069014968768e-01  2.1522493744522739e-01  1.7217976314618252e-01  1.2913536083071453e-01  8.6090962752103067e-02  4.3048215805483334e-02  -3.1056766067885108e-06  3.4441500302033785e+00  3.4011051142064010e+00  3.3580603466299883e+00  3.3150165289672842e+00  3.2719720337514699e+00  3.2289269301908403e+00  3.1858811721116607e+00  3.1428347973426147e+00  3.0997878201770765e+00  3.0567402594966917e+00  3.0136921332285085e+00  2.9706434594525764e+00  2.9275942562361346e+00  2.8845445416674882e+00  2.8414943338516898e+00  2.7984436509110036e+00  2.7553925109842115e+00  2.7123409322260126e+00  2.6692889328063840e+00  2.6262365309099636e+00  2.5831837447353792e+00  2.5401305924946191e+00  2.4970770924124142e+00  2.4540232627255754e+00  2.4109691216823799e+00  2.3679146875419081e+00  2.3248599785734299e+00  2.2818050130557594e+00  2.2387498092766274e+00  2.1956943855320179e+00  2.1526387601255612e+00  2.1095829513678859e+00  2.0665269775759838e+00  2.0234708570725655e+00  1.9804146081854439e+00  1.9373582492468742e+00  1.8943017985929300e+00  1.8512452745628702e+00  1.8081886954984980e+00  1.7651320797435222e+00  1.7220754456429257e+00  1.6790188115423286e+00  1.6359621957873496e+00  1.5929056167229734e+00  1.5498490926929116e+00  1.5067926420389663e+00  1.4637362831003911e+00  1.4206800342132659e+00  1.3776239137098480e+00  1.3345679399179453e+00  1.2915121311602684e+00  1.2484565057538124e+00  1.2054010820092036e+00  1.1623458782300677e+00  1.1192909127124004e+00  1.0762362037439259e+00  1.0331817696034535e+00  9.9012762856025360e-01  9.4707379887341647e-01  9.0402029879121126e-01  8.6096714655045337e-01  8.1791436037586707e-01  7.7486195847944805e-01  7.3180995905982560e-01  6.8875838030162562e-01  6.4570724037482874e-01  6.0265655743413993e-01  5.5960634961834266e-01  5.1655663504969496e-01  4.7350743183325172e-01  4.3045875805731232e-01  3.8741063178912505e-01  3.4436307110874248e-01  3.0131609394320114e-01  2.5826971917415564e-01  2.1522396109497210e-01  1.7217885753433901e-01  1.2913436231852621e-01  8.6090544655818627e-02  4.3045777079405198e-02  8.6108243081735408e-07  3.4441540031193769e+00  3.4011036702474717e+00  3.3580615910639668e+00  3.3150175429458013e+00  3.2719732987445713e+00  3.2289281771492471e+00  3.1858824211353709e+00  3.1428360242996076e+00  3.0997890188587887e+00  3.0567414254238185e+00  3.0136932642040741e+00  2.9706445542649593e+00  2.9275953142338333e+00  2.8845455624906418e+00  2.8414953172964763e+00  2.7984445968566929e+00  2.7553934193546552e+00  2.7123418029692101e+00  2.6692897658836499e+00  2.6262373262901804e+00  2.5831845023919553e+00  2.5401313124038758e+00  2.4970777745527184e+00  2.4540239070768983e+00  2.4109697282260449e+00  2.3679152562604591e+00  2.3248605094505796e+00  2.2818055060763358e+00  2.2387502644265669e+00  2.1956948027983447e+00  2.1526391394963857e+00  2.1095832928324056e+00  2.0665272811244795e+00  2.0234711226963977e+00  1.9804148358770537e+00  1.9373584389997793e+00  1.8943019504017338e+00  1.8512453884232503e+00  1.8081887714072189e+00  1.7651321176984234e+00  1.7220754456429259e+00  1.6790187735874271e+00  1.6359621198786296e+00  1.5929055028625938e+00  1.5498489408841105e+00  1.5067924522860625e+00  1.4637360554087848e+00  1.4206797685894355e+00  1.3776236101613526e+00  1.3345675984534244e+00  1.2915117517894441e+00  1.2484560884874885e+00  1.2054006268592670e+00  1.1623453852094905e+00  1.1192903818352524e+00  1.0762356350253750e+00  1.0331811630597909e+00  9.9012698420892986e-01  9.4707311673311023e-01  9.0401957888195539e-01  8.6096638889387644e-01  8.1791356499565115e-01  7.7486112540218355e-01  7.3180908831662839e-01  6.8875747193118220e-01  6.4570629442913996e-01  6.0265557398935354e-01  5.5960532879518998e-01  5.1655557705199617e-01  4.7350633702086958e-01  4.3045762708175028e-01  3.8740946586200070e-01  3.4436187242703126e-01  3.0131486698620819e-01  2.5826847015044613e-01  2.1522271413656813e-01  1.7217759254123682e-01  1.2913334834001000e-01  8.6089300221842552e-02  4.3047221038334908e-02  -3.1118335717473129e-06  3.4441275283816788e+00  3.4011114004604064e+00  3.3580602605236050e+00  3.3150195620442138e+00  3.2719747564500978e+00  3.2289297423208572e+00  3.1858839491486566e+00  3.1428375233853640e+00  3.0997904793636173e+00  3.0567428444042162e+00  3.0136946397234992e+00  2.9706458853309372e+00  2.9275966002936591e+00  2.8845468032354629e+00  2.8414965125459646e+00  2.7984457464995445e+00  2.7553945233167760e+00  2.7123428611968681e+00  2.6692907783345539e+00  2.6262382929287433e+00  2.5831854231867690e+00  2.5401321873263845e+00  2.4970786035765129e+00  2.4540246901773406e+00  2.4109704653800668e+00  2.3679159474464497e+00  2.3248611546483442e+00  2.2818061052670502e+00  2.2387508175927762e+00  2.1956953099239347e+00  2.1526396005665949e+00  2.1095837078338198e+00  2.0665276500450274e+00  2.0234714455253453e+00  1.9804151126050178e+00  1.9373586696187075e+00  1.8943021349049243e+00  1.8512455268053361e+00  1.8081888636641765e+00  1.7651321638275732e+00  1.7220754456429266e+00  1.6790187274582764e+00  1.6359620276216709e+00  1.5929053644805089e+00  1.5498487563809227e+00  1.5067922216671343e+00  1.4637357786808243e+00  1.4206794457604879e+00  1.3776232412408065e+00  1.3345671834520105e+00  1.2915112907192339e+00  1.2484555813618987e+00  1.2054000736930601e+00  1.1623447860187739e+00  1.1192897366374885e+00  1.0762349438393841e+00  1.0331804259057711e+00  9.9012620110848648e-01  9.4707228770931584e-01  9.0401870395944817e-01  8.6096546809906471e-01  8.1791259835708907e-01  7.7486011295127710e-01  7.3180803008897044e-01  6.8875636796906425e-01  6.4570514478628738e-01  6.0265437873986605e-01  5.5960408805036954e-01  5.1655429099217220e-01  4.7350500595489248e-01  4.3045625156232969e-01  3.8740804688160324e-01  3.4436041192220412e-01  3.0131336790044938e-01  2.5826694213716034e-01  2.1522114896495717e-01  1.7217613483571145e-01  1.2913132924159562e-01  8.6090630762206702e-02  4.3039490825401906e-02  2.3362904127601187e-05  3.4443295425386458e+00  3.4010595690245196e+00  3.3580716427519488e+00  3.3150199411196524e+00  3.2719768490911250e+00  3.2289315421691125e+00  3.1858857523847650e+00  3.1428392758326416e+00  3.0997921842979568e+00  3.0567444986173422e+00  3.0136962422285434e+00  2.9706474354692065e+00  2.9275980977123965e+00  2.8845482477255726e+00  2.8414979039783423e+00  2.7984470847878073e+00  2.7553958083979917e+00  2.7123440930212550e+00  2.6692919568600373e+00  2.6262394181180682e+00  2.5831864950059287e+00  2.5401332057438375e+00  2.4970795685627221e+00  2.4540256017045805e+00  2.4109713234222747e+00  2.3679167519791422e+00  2.3248619056486266e+00  2.2818068027135698e+00  2.2387514614657271e+00  2.1956959002050174e+00  2.1526401372390516e+00  2.1095841908824262e+00  2.0665280794560834e+00  2.0234718212866589e+00  1.9804154347059399e+00  1.9373589380500933e+00  1.8943023496591689e+00  1.8512456878763450e+00  1.8081889710473884e+00  1.7651322175199398e+00  1.7220754456429255e+00  1.6790186737659061e+00  1.6359619202384599e+00  1.5929052034094988e+00  1.5498485416266843e+00  1.5067919532357519e+00  1.4637354565799090e+00  1.4206790699991751e+00  1.3776228118297558e+00  1.3345667004034030e+00  1.2915107540467747e+00  1.2484549910808200e+00  1.2053994298201196e+00  1.1623440885722505e+00  1.1192889856372059e+00  1.0762341393066925e+00  1.0331795678635689e+00  9.9012528958124624e-01  9.4707132272310413e-01  9.0401768554200124e-01  8.6096439627990584e-01  8.1791147316776380e-01  7.7485893442578535e-01  7.3180679826458073e-01  6.8875508288785137e-01  6.4570380649802461e-01  6.0265298730748795e-01  5.5960264356026168e-01  5.1655279357343786e-01  4.7350345581662279e-01  4.3045464905729053e-01  3.8740639266847882e-01  3.4435870698787119e-01  3.0131161545317298e-01  2.5826513890105740e-01  2.1521934911670595e-01  1.7217404219467936e-01  1.2913095016615692e-01  8.6079248533869099e-02  4.3091322261290803e-02  -1.7865125283728054e-04  3.4430816696555340e+00  3.4012381851604827e+00  3.3580472210799015e+00  3.3150249092940838e+00  3.2719774133041275e+00  3.2289327328244073e+00  3.1858868164741487e+00  3.1428403245298004e+00  3.0997932000454678e+00  3.0567454835611936e+00  3.0136971957719552e+00  2.9706483575447535e+00  2.9275989882359315e+00  2.8845491066494069e+00  2.8414987312677056e+00  2.7984478804161768e+00  2.7553965723433689e+00  2.7123448252644331e+00  2.6692926573836084e+00  2.6262400869059066e+00  2.5831871320429309e+00  2.5401338110157816e+00  2.4970801420561566e+00  2.4540261434068222e+00  2.4109718333213772e+00  2.3679172300638602e+00  2.3248623519084428e+00  2.2818072171386561e+00  2.2387518440469809e+00  2.1956962509340330e+00  2.1526404561081138e+00  2.1095844778845301e+00  2.0665283345849343e+00  2.0234720445366534e+00  1.9804156260721719e+00  1.9373590975283765e+00  1.8943024772459887e+00  1.8512457835689109e+00  1.8081890348435952e+00  1.7651322494183972e+00  1.7220754456429259e+00  1.6790186418674438e+00  1.6359618564422502e+00  1.5929051077169309e+00  1.5498484140398654e+00  1.5067917937574726e+00  1.4637352652136748e+00  1.4206788467491811e+00  1.3776225567009046e+00  1.3345664134012942e+00  1.2915104351777134e+00  1.2484546403518064e+00  1.2053990472388627e+00  1.1623436741471544e+00  1.1192885393773886e+00  1.0762336612219752e+00  1.0331790579644669e+00  9.9012474787900040e-01  9.4707074922967238e-01  9.0401708027006333e-01  8.6096375924290136e-01  8.1791080437992403e-01  7.7485823390221664e-01  7.3180606602139942e-01  6.8875431894247252e-01  6.4570301086965831e-01  6.0265216001811983e-01  5.5960178463643129e-01  5.1655190304990173e-01  4.7350253374108126e-01  4.3045369551387791e-01  3.8740540772462917e-01  3.4435769124035631e-01  3.0131056675601142e-01  2.5826407481167313e-01  2.1521815846141709e-01  1.7217347798167554e-01  1.2912598199172859e-01  8.6103670205914973e-02  4.2912706125319583e-02  1.0692216302760741e-03  3.4226692667819383e+00  3.3795883090791450e+00  3.3365363022445442e+00  3.2934924079858137e+00  3.2504473565023004e+00  3.2074018903339367e+00  3.1643558298992631e+00  3.1213091890574391e+00  3.0782619696524982e+00  3.0352141833881903e+00  2.9921658446524320e+00  2.9491169696225383e+00  2.9060675753724814e+00  2.8630176794669797e+00  2.8199672997371201e+00  2.7769164541628850e+00  2.7338651608104128e+00  2.6908134377985014e+00  2.6477613032805665e+00  2.6047087754347769e+00  2.5616558724584930e+00  2.5186026125650791e+00  2.4755490139818499e+00  2.4324950949487101e+00  2.3894408737171702e+00  2.3463863685494450e+00  2.3033315977177504e+00  2.2602765795035822e+00  2.2172213321970822e+00  2.1741658740963432e+00  2.1311102235067976e+00  2.0880543987405638e+00  2.0449984181158003e+00  2.0019422999560752e+00  1.9588860625897406e+00  1.9158297243492699e+00  1.8727733035706473e+00  1.8297168185927135e+00  1.7866602877565354e+00  1.7436037294047777e+00  1.7005471618810530e+00  1.6574906035292924e+00  1.6144340726931097e+00  1.5713775877151734e+00  1.5283211669365473e+00  1.4852648286960755e+00  1.4422085913297360e+00  1.3991524731700129e+00  1.3560964925452472e+00  1.3130406677790105e+00  1.2699850171894651e+00  1.2269295590887270e+00  1.1838743117822277e+00  1.1408192935680648e+00  1.0977645227363639e+00  1.0547100175686392e+00  1.0116557963370971e+00  9.6860187730396130e-01  9.2554827872072798e-01  8.8249501882731285e-01  8.3944211585103412e-01  7.9638958800524362e-01  7.5333745348731251e-01  7.1028573047540311e-01  6.6723443712292618e-01  6.2418359154868963e-01  5.8113321181882815e-01  5.3808331591332403e-01  4.9503392166326754e-01  4.5198504663336581e-01  4.0893670789760850e-01  3.6588892163330050e-01  3.2284170222835767e-01  2.7979506138653348e-01  2.3674900095185664e-01  1.9370353478348593e-01  1.5065848329997644e-01  1.0761458904124063e-01  6.4562582206641461e-02  2.1481624503847569e-02  3.4225947604150662e+00  3.3795823298981902e+00  3.3365366284836471e+00  3.2934926092023851e+00  3.2504476441766870e+00  3.2074021758312630e+00  3.1643561155307212e+00  3.1213094696944803e+00  3.0782622436639588e+00  3.0352144497643812e+00  2.9921661028824138e+00  2.9491172194302799e+00  2.9060678166100713e+00  2.8630179120537269e+00  2.8199675236281267e+00  2.7769166693322873e+00  2.7338653672425322e+00  2.6908136354831500e+00  2.6477614922105470e+00  2.6047089556045657e+00  2.561656043