<?xml version="1.0"?>
<VTKFile type="UnstructuredGrid"  version="0.1"  >
<UnstructuredGrid>
<Piece  NumberOfPoints="1369" NumberOfCells="2560">
<Points>
<DataArray  type="Float64"  NumberOfComponents="3"  format="ascii">0 0 0  0.75 0 0  1.5 0 0  2.25 0 0  3 0 0  3.75 0 0  4.5 0 0  5.25 0 0  6 0 0  6.75 0 0  7.5 0 0  8.25 0 0  9 0 0  9.75 0 0  10.5 0 0  11.25 0 0  12 0 0  12.75 0 0  13.5 0 0  14.25 0 0  15 0 0  15.75 0 0  16.5 0 0  17.25 0 0  18 0 0  18.75 0 0  19.5 0 0  20.25 0 0  21 0 0  21.75 0 0  22.5 0 0  23.25 0 0  24 0 0  24.75 0 0  25.5 0 0  26.25 0 0  27 0 0  27.75 0 0  28.5 0 0  29.25 0 0  30 0 0  30.75 0 0  31.5 0 0  32.25 0 0  33 0 0  33.75 0 0  34.5 0 0  35.25 0 0  36 0 0  36.75 0 0  37.5 0 0  38.25 0 0  39 0 0  39.75 0 0  40.5 0 0  41.25 0 0  42 0 0  42.75 0 0  43.5 0 0  44.25 0 0  45 0 0  45.75 0 0  46.5 0 0  47.25 0 0  48 0 0  48.75 0 0  49.5 0 0  50.25 0 0  51 0 0  51.75 0 0  52.5 0 0  53.25 0 0  54 0 0  54.75 0 0  55.5 0 0  56.25 0 0  57 0 0  57.75 0 0  58.5 0 0  59.25 0 0  60 0 0  0 0.5 0  0.75 0.5000638841332442 0  1.5 0.5001271800068545 0  2.25 0.5001895135760106 0  3 0.5002506069689663 0  3.75 0.500310275268934 0  4.5 0.5003684047264394 0  5.25 0.5004249287875613 0  6 0.5004798096295936 0  6.75 0.5005330261019465 0  7.5 0.5005845664819438 0  8.25 0.5006344243049701 0  9 0.5006825960167365 0  9.75 0.500729079666868 0  10.5 0.5007738741866276 0  11.25 0.5008169789910558 0  12 0.5008583937603306 0  12.75 0.5008981183197881 0  13.5 0.5009361525741665 0  14.25 0.500972496471601 0  15 0.5010071499839237 0  15.75 0.5010401130958961 0  16.5 0.5010713857993245 0  17.25 0.5011009680898485 0  18 0.5011288599651922 0  18.75 0.5011550614242057 0  19.5 0.5011795724663473 0  20.25 0.5012023930913986 0  21 0.5012235232993139 0  21.75 0.5012429630901319 0  22.5 0.5012607124639337 0  23.25 0.5012767714208173 0  24 0.5012911399608835 0  24.75 0.5013038180842283 0  25.5 0.501314805790941 0  26.25 0.5013241030811008 0  27 0.5013317099547746 0  27.75 0.5013376264120187 0  28.5 0.5013418524528757 0  29.25 0.5013443880773776 0  30 0.501345233285543 0  30.75 0.5013443880773776 0  31.5 0.5013418524528757 0  32.25 0.5013376264120187 0  33 0.5013317099547746 0  33.75 0.5013241030811009 0  34.5 0.501314805790941 0  35.25 0.5013038180842283 0  36 0.5012911399608835 0  36.75 0.5012767714208173 0  37.5 0.5012607124639337 0  38.25 0.5012429630901319 0  39 0.5012235232993139 0  39.75 0.5012023930913986 0  40.5 0.5011795724663474 0  41.25 0.5011550614242057 0  42 0.5011288599651922 0  42.75 0.5011009680898485 0  43.5 0.5010713857993244 0  44.25 0.5010401130958961 0  45 0.5010071499839237 0  45.75 0.500972496471601 0  46.5 0.5009361525741665 0  47.25 0.5008981183197881 0  48 0.5008583937603306 0  48.75 0.5008169789910558 0  49.5 0.5007738741866276 0  50.25 0.500729079666868 0  51 0.5006825960167365 0  51.75 0.5006344243049701 0  52.5 0.5005845664819438 0  53.25 0.5005330261019465 0  54 0.5004798096295936 0  54.75 0.5004249287875613 0  55.5 0.5003684047264394 0  56.25 0.500310275268934 0  57 0.5002506069689663 0  57.75 0.5001895135760106 0  58.5 0.5001271800068545 0  59.25 0.5000638841332442 0  60 0.5 0  0 1 0  0.75 1.000127968851572 0  1.5 1.000254729420721 0  2.25 1.000379519793849 0  3 1.000501787350425 0  3.75 1.000621173366643 0  4.5 1.000737461483496 0  5.25 1.000850526721208 0  6 1.000960298572022 0  6.75 1.001066737763474 0  7.5 1.001169822574526 0  8.25 1.001269541040113 0  9 1.00136588658562 0  9.75 1.00145885560444 0  10.5 1.001548446120613 0  11.25 1.001634657052738 0  12 1.0017174878096 0  12.75 1.001796938068344 0  13.5 1.001873007652891 0  14.25 1.001945696467386 0  15 1.002015004459779 0  15.75 1.002080931601914 0  16.5 1.002143477878661 0  17.25 1.002202643281974 0  18 1.002258427807658 0  18.75 1.002310831453598 0  19.5 1.002359854218805 0  20.25 1.002405496102887 0  21 1.002447757105767 0  21.75 1.002486637227527 0  22.5 1.002522136468324 0  23.25 1.002554254828345 0  24 1.002582992307787 0  24.75 1.002608348906831 0  25.5 1.002630324625648 0  26.25 1.002648919464388 0  27 1.002664133423179 0  27.75 1.002675966502129 0  28.5 1.002684418701319 0  29.25 1.002689490020808 0  30 1.002691180460634 0  30.75 1.002689490020808 0  31.5 1.002684418701319 0  32.25 1.002675966502129 0  33 1.002664133423179 0  33.75 1.002648919464388 0  34.5 1.002630324625648 0  35.25 1.002608348906831 0  36 1.002582992307787 0  36.75 1.002554254828345 0  37.5 1.002522136468324 0  38.25 1.002486637227527 0  39 1.002447757105767 0  39.75 1.002405496102887 0  40.5 1.002359854218805 0  41.25 1.002310831453598 0  42 1.002258427807658 0  42.75 1.002202643281974 0  43.5 1.002143477878661 0  44.25 1.002080931601913 0  45 1.002015004459779 0  45.75 1.001945696467386 0  46.5 1.001873007652891 0  47.25 1.001796938068344 0  48 1.0017174878096 0  48.75 1.001634657052738 0  49.5 1.001548446120613 0  50.25 1.00145885560444 0  51 1.00136588658562 0  51.75 1.001269541040113 0  52.5 1.001169822574526 0  53.25 1.001066737763474 0  54 1.000960298572022 0  54.75 1.000850526721208 0  55.5 1.000737461483496 0  56.25 1.000621173366643 0  57 1.000501787350425 0  57.75 1.000379519793849 0  58.5 1.000254729420721 0  59.25 1.000127968851572 0  60 1 0  0 1.5 0  0.75 1.500192469485717 0  1.5 1.500383038627592 0  2.25 1.500570530134676 0  3 1.500754127951249 0  3.75 1.500933325505359 0  4.5 1.501107827205938 0  5.25 1.501277465712257 0  6 1.501442147663566 0  6.75 1.501601821366897 0  7.5 1.501756458321506 0  8.25 1.5019060428538 0  9 1.502050566358968 0  9.75 1.502190024118941 0  10.5 1.502324413549493 0  11.25 1.502453733236547 0  12 1.502577982407099 0  12.75 1.502697160639046 0  13.5 1.502811267702219 0  14.25 1.502920303471329 0  15 1.503024267878361 0  15.75 1.503123160886539 0  16.5 1.503216982476116 0  17.25 1.5033057326366 0  18 1.503389411362538 0  18.75 1.503468018651192 0  19.5 1.503541554501294 0  20.25 1.503610018912352 0  21 1.503673411884291 0  21.75 1.503731733417237 0  22.5 1.503784983511415 0  23.25 1.503833162167087 0  24 1.503876269384521 0  24.75 1.503914305163973 0  25.5 1.503947269505676 0  26.25 1.503975162409837 0  27 1.503997983876635 0  27.75 1.504015733906215 0  28.5 1.504028412498689 0  29.25 1.50403601965414 0  30 1.504038555372619 0  30.75 1.50403601965414 0  31.5 1.504028412498689 0  32.25 1.504015733906215 0  33 1.503997983876635 0  33.75 1.503975162409837 0  34.5 1.503947269505676 0  35.25 1.503914305163973 0  36 1.503876269384521 0  36.75 1.503833162167086 0  37.5 1.503784983511415 0  38.25 1.503731733417237 0  39 1.503673411884291 0  39.75 1.503610018912352 0  40.5 1.503541554501293 0  41.25 1.503468018651192 0  42 1.503389411362538 0  42.75 1.5033057326366 0  43.5 1.503216982476116 0  44.25 1.503123160886539 0  45 1.503024267878361 0  45.75 1.502920303471329 0  46.5 1.502811267702219 0  47.25 1.502697160639046 0  48 1.502577982407099 0  48.75 1.502453733236547 0  49.5 1.502324413549493 0  50.25 1.502190024118941 0  51 1.502050566358968 0  51.75 1.5019060428538 0  52.5 1.501756458321506 0  53.25 1.501601821366897 0  54 1.501442147663566 0  54.75 1.501277465712257 0  55.5 1.501107827205938 0  56.25 1.500933325505359 0  57 1.500754127951249 0  57.75 1.500570530134676 0  58.5 1.500383038627592 0  59.25 1.500192469485717 0  60 1.5 0  0 2 0  0.75 2.00025763546373 0  1.5 2.000512544069378 0  2.25 2.00076309502979 0  3 2.001008241967092 0  3.75 2.001247378928427 0  4.5 2.001480168056505 0  5.25 2.001706422829955 0  6 2.001926040567166 0  6.75 2.002138964814722 0  7.5 2.002345164562997 0  8.25 2.002544622792201 0  9 2.002737330168241 0  9.75 2.00292328157604 0  10.5 2.003102474214817 0  11.25 2.003274906552283 0  12 2.003440577750919 0  12.75 2.003599487353463 0  13.5 2.003751635110606 0  14.25 2.00389702088667 0  15 2.004035644608027 0  15.75 2.004167506234896 0  16.5 2.004292605745932 0  17.25 2.004410943129821 0  18 2.004522518380701 0  18.75 2.004627331495652 0  19.5 2.004725382473338 0  20.25 2.00481667131327 0  21 2.004901198015397 0  21.75 2.004978962579893 0  22.5 2.005049965007027 0  23.25 2.005114205297117 0  24 2.005171683450475 0  24.75 2.0052223994674 0  25.5 2.005266353348166 0  26.25 2.005303545093014 0  27 2.005333974702151 0  27.75 2.005357642175748 0  28.5 2.005374547513935 0  29.25 2.00538469071681 0  30 2.005388071784428 0  30.75 2.00538469071681 0  31.5 2.005374547513935 0  32.25 2.005357642175748 0  33 2.005333974702151 0  33.75 2.005303545093015 0  34.5 2.005266353348166 0  35.25 2.0052223994674 0  36 2.005171683450475 0  36.75 2.005114205297117 0  37.5 2.005049965007028 0  38.25 2.004978962579893 0  39 2.004901198015397 0  39.75 2.00481667131327 0  40.5 2.004725382473338 0  41.25 2.004627331495652 0  42 2.004522518380701 0  42.75 2.004410943129821 0  43.5 2.004292605745932 0  44.25 2.004167506234896 0  45 2.004035644608027 0  45.75 2.00389702088667 0  46.5 2.003751635110606 0  47.25 2.003599487353463 0  48 2.003440577750919 0  48.75 2.003274906552283 0  49.5 2.003102474214817 0  50.25 2.00292328157604 0  51 2.002737330168241 0  51.75 2.002544622792201 0  52.5 2.002345164562997 0  53.25 2.002138964814722 0  54 2.001926040567166 0  54.75 2.001706422829955 0  55.5 2.001480168056506 0  56.25 2.001247378928427 0  57 2.001008241967092 0  57.75 2.00076309502979 0  58.5 2.000512544069378 0  59.25 2.00025763546373 0  60 2 0  0 2.5 0  0.75 2.500323782108958 0  1.5 2.500643762478583 0  2.25 2.500957825656699 0  3 2.501264780559728 0  3.75 2.501564002924486 0  4.5 2.501855162588554 0  5.25 2.502138081978051 0  6 2.502412664660121 0  6.75 2.502678857992918 0  7.5 2.50293663316863 0  8.25 2.503185974407236 0  9 2.503426873063692 0  9.75 2.503659324403256 0  10.5 2.503883325834236 0  11.25 2.504098875939031 0  12 2.504305973942933 0  12.75 2.504504619423035 0  13.5 2.504694812148809 0  14.25 2.504876551994835 0  15 2.505049838893091 0  15.75 2.505214672806849 0  16.5 2.50537105371644 0  17.25 2.505518981611467 0  18 2.505658456486565 0  18.75 2.505789478339094 0  19.5 2.505912047167871 0  20.25 2.506026162972494 0  21 2.5061318
[...]
<PointData  Vectors="f_10-0"> 
<DataArray  type="Float64"  Name="f_10-0"  NumberOfComponents="3" format="ascii">0.0000000000000000e+00 0.0000000000000000e+00 0.0000000000000000e+00  0.0000000000000000e+00 0.0000000000000000e+00 0.0000000000000000e+00  0.0000000000000000e+00 0.0000000000000000e+00 0.0000000000000000e+00  0.0000000000000000e+00 0.0000000000000000e+00 0.0000000000000000e+00  0.0000000000000000e+00 0.0000000000000000e+00 0.0000000000000000e+00  0.0000000000000000e+00 0.0000000000000000e+00 0.0000000000000000e+00  0.0000000000000000e+00 0.0000000000000000e+00 0.0000000000000000e+00  0.0000000000000000e+00 0.0000000000000000e+00 0.0000000000000000e+00  0.0000000000000000e+00 0.0000000000000000e+00 0.0000000000000000e+00  0.0000000000000000e+00 0.0000000000000000e+00 0.0000000000000000e+00  0.0000000000000000e+00 0.0000000000000000e+00 0.0000000000000000e+00  0.0000000000000000e+00 0.0000000000000000e+00 0.0000000000000000e+00  0.0000000000000000e+00 0.0000000000000000e+00 0.0000000000000000e+00  0.0000000000000000e+00 0.0000000000000000e+00 0.0000000000000000e+00  0.0000000000000000e+00 0.0000000000000000e+00 0.0000000000000000e+00  0.0000000000000000e+00 0.0000000000000000e+00 0.0000000000000000e+00  0.0000000000000000e+00 0.0000000000000000e+00 0.0000000000000000e+00  0.0000000000000000e+00 0.0000000000000000e+00 0.0000000000000000e+00  0.0000000000000000e+00 0.0000000000000000e+00 0.0000000000000000e+00  0.0000000000000000e+00 0.0000000000000000e+00 0.0000000000000000e+00  0.0000000000000000e+00 0.0000000000000000e+00 0.0000000000000000e+00  0.0000000000000000e+00 0.0000000000000000e+00 0.0000000000000000e+00  0.0000000000000000e+00 0.0000000000000000e+00 0.0000000000000000e+00  0.0000000000000000e+00 0.0000000000000000e+00 0.0000000000000000e+00  0.0000000000000000e+00 0.0000000000000000e+00 0.0000000000000000e+00  0.0000000000000000e+00 0.0000000000000000e+00 0.0000000000000000e+00  0.0000000000000000e+00 0.0000000000000000e+00 0.0000000000000000e+00  0.0000000000000000e+00 0.0000000000000000e+00 0.0000000000000000e+00  0.0000000000000000e+00 0.0000000000000000e+00 0.0000000000000000e+00  0.0000000000000000e+00 0.0000000000000000e+00 0.0000000000000000e+00  0.0000000000000000e+00 0.0000000000000000e+00 0.0000000000000000e+00  0.0000000000000000e+00 0.0000000000000000e+00 0.0000000000000000e+00  0.0000000000000000e+00 0.0000000000000000e+00 0.0000000000000000e+00  0.0000000000000000e+00 0.0000000000000000e+00 0.0000000000000000e+00  0.0000000000000000e+00 0.0000000000000000e+00 0.0000000000000000e+00  0.0000000000000000e+00 0.0000000000000000e+00 0.0000000000000000e+00  0.0000000000000000e+00 0.0000000000000000e+00 0.0000000000000000e+00  0.0000000000000000e+00 0.0000000000000000e+00 0.0000000000000000e+00  0.0000000000000000e+00 0.0000000000000000e+00 0.0000000000000000e+00  0.0000000000000000e+00 0.0000000000000000e+00 0.0000000000000000e+00  0.0000000000000000e+00 0.0000000000000000e+00 0.0000000000000000e+00  0.0000000000000000e+00 0.0000000000000000e+00 0.0000000000000000e+00  0.0000000000000000e+00 0.0000000000000000e+00 0.0000000000000000e+00  0.0000000000000000e+00 0.0000000000000000e+00 0.0000000000000000e+00  0.0000000000000000e+00 0.0000000000000000e+00 0.0000000000000000e+00  0.0000000000000000e+00 0.0000000000000000e+00 0.0000000000000000e+00  0.0000000000000000e+00 0.0000000000000000e+00 0.0000000000000000e+00  0.0000000000000000e+00 0.0000000000000000e+00 0.0000000000000000e+00  0.0000000000000000e+00 0.0000000000000000e+00 0.0000000000000000e+00  0.0000000000000000e+00 0.0000000000000000e+00 0.0000000000000000e+00  0.0000000000000000e+00 0.0000000000000000e+00 0.0000000000000000e+00  0.0000000000000000e+00 0.0000000000000000e+00 0.0000000000000000e+00  0.0000000000000000e+00 0.0000000000000000e+00 0.0000000000000000e+00  0.0000000000000000e+00 0.0000000000000000e+00 0.0000000000000000e+00  0.0000000000000000e+00 0.0000000000000000e+00 0.0000000000000000e+00  0.0000000000000000e+00 0.0000000000000000e+00 0.0000000000000000e+00  0.0000000000000000e+00 0.0000000000000000e+00 0.0000000000000000e+00  0.0000000000000000e+00 0.0000000000000000e+00 0.0000000000000000e+00  0.0000000000000000e+00 0.0000000000000000e+00 0.0000000000000000e+00  0.0000000000000000e+00 0.0000000000000000e+00 0.0000000000000000e+00  0.0000000000000000e+00 0.0000000000000000e+00 0.0000000000000000e+00  0.0000000000000000e+00 0.0000000000000000e+00 0.0000000000000000e+00  0.0000000000000000e+00 0.0000000000000000e+00 0.0000000000000000e+00  0.0000000000000000e+00 0.0000000000000000e+00 0.0000000000000000e+00  0.0000000000000000e+00 0.0000000000000000e+00 0.0000000000000000e+00  0.0000000000000000e+00 0.0000000000000000e+00 0.0000000000000000e+00  0.0000000000000000e+00 0.0000000000000000e+00 0.0000000000000000e+00  0.0000000000000000e+00 0.0000000000000000e+00 0.0000000000000000e+00  0.0000000000000000e+00 0.0000000000000000e+00 0.0000000000000000e+00  0.0000000000000000e+00 0.0000000000000000e+00 0.0000000000000000e+00  0.0000000000000000e+00 0.0000000000000000e+00 0.0000000000000000e+00  0.0000000000000000e+00 0.0000000000000000e+00 0.0000000000000000e+00  0.0000000000000000e+00 0.0000000000000000e+00 0.0000000000000000e+00  0.0000000000000000e+00 0.0000000000000000e+00 0.0000000000000000e+00  0.0000000000000000e+00 0.0000000000000000e+00 0.0000000000000000e+00  0.0000000000000000e+00 0.0000000000000000e+00 0.0000000000000000e+00  0.0000000000000000e+00 0.0000000000000000e+00 0.0000000000000000e+00  0.0000000000000000e+00 0.0000000000000000e+00 0.0000000000000000e+00  0.0000000000000000e+00 0.0000000000000000e+00 0.0000000000000000e+00  0.0000000000000000e+00 0.0000000000000000e+00 0.0000000000000000e+00  0.0000000000000000e+00 0.0000000000000000e+00 0.0000000000000000e+00  -2.2384755297493877e+00 0.0000000000000000e+00 0.0000000000000000e+00  -2.1880084348349782e+00 8.2628805067069839e-03 0.0000000000000000e+00  -2.1846212519034274e+00 -2.5937786335292717e-03 0.0000000000000000e+00  -2.1866378289935646e+00 -2.4437403568528466e-03 0.0000000000000000e+00  -2.1889036813853373e+00 -2.5451051746007650e-03 0.0000000000000000e+00  -2.1910760006160905e+00 -2.6197695062352513e-03 0.0000000000000000e+00  -2.1930528633355761e+00 -2.6827086522968205e-03 0.0000000000000000e+00  -2.1949544451265943e+00 -2.6889354398543690e-03 0.0000000000000000e+00  -2.1969011829830563e+00 -2.6609381750770235e-03 0.0000000000000000e+00  -2.1989214645863173e+00 -2.6273538292075366e-03 0.0000000000000000e+00  -2.2010040041258998e+00 -2.6021271704188449e-03 0.0000000000000000e+00  -2.2031090535302358e+00 -2.5922623869608832e-03 0.0000000000000000e+00  -2.2051948823034144e+00 -2.5965176428773469e-03 0.0000000000000000e+00  -2.2072286763763271e+00 -2.6118009464178508e-03 0.0000000000000000e+00  -2.2091882837559771e+00 -2.6338648997357044e-03 0.0000000000000000e+00  -2.2110639400232306e+00 -2.6585215753933251e-03 0.0000000000000000e+00  -2.2128543268159402e+00 -2.6830143323652339e-03 0.0000000000000000e+00  -2.2145621479134459e+00 -2.7063558114234880e-03 0.0000000000000000e+00  -2.2161899739518764e+00 -2.7288699487228599e-03 0.0000000000000000e+00  -2.2177381742559064e+00 -2.7514325952681783e-03 0.0000000000000000e+00  -2.2192050068990765e+00 -2.7747010702732010e-03 0.0000000000000000e+00  -2.2205876139744856e+00 -2.7989687971593990e-03 0.0000000000000000e+00  -2.2218831093455167e+00 -2.8241528718967570e-03 0.0000000000000000e+00  -2.2230891824320098e+00 -2.8500357585467826e-03 0.0000000000000000e+00  -2.2242042185608848e+00 -2.8763757554910491e-03 0.0000000000000000e+00  -2.2252271764031444e+00 -2.9029993670928599e-03 0.0000000000000000e+00  -2.2261573773233785e+00 -2.9297924108878767e-03 0.0000000000000000e+00  -2.2269943760965707e+00 -2.9566824468876753e-03 0.0000000000000000e+00  -2.2277378827294130e+00 -2.9836130049881093e-03 0.0000000000000000e+00  -2.2283877445760405e+00 -3.0105343008093115e-03 0.0000000000000000e+00  -2.2289439177758399e+00 -3.0374070132632935e-03 0.0000000000000000e+00  -2.2294064295569047e+00 -3.0642090601302246e-03 0.0000000000000000e+00  -2.2297753181442506e+00 -3.0909410019008239e-03 0.0000000000000000e+00  -2.2300505787840561e+00 -3.1176223184115944e-03 0.0000000000000000e+00  -2.2302321267225942e+00 -3.1442833436305228e-03 0.0000000000000000e+00  -2.2303197906788363e+00 -3.1709540540371911e-03 0.0000000000000000e+00  -2.2303133306020562e+00 -3.1976560737507851e-03 0.0000000000000000e+00  -2.2302124704557094e+00 -3.2243985298527197e-03 0.0000000000000000e+00  -2.2300169319980983e+00 -3.2511788946760645e-03 0.0000000000000000e+00  -2.2297264607214093e+00 -3.2779864133735868e-03 0.0000000000000000e+00  -2.2293408394380165e+00 -3.3048066833591206e-03 0.0000000000000000e+00  -2.2288598906196047e+00 -3.3316253825129414e-03 0.0000000000000000e+00  -2.2282834708934538e+00 -3.3584306711258185e-03 0.0000000000000000e+00  -2.2276114620705982e+00 -3.3852140366688386e-03 0.0000000000000000e+00  -2.2268437620657529e+00 -3.4119700834641898e-03 0.0000000000000000e+00  -2.2259802776908035e+00 -3.4386957438462926e-03 0.0000000000000000e+00  -2.2250209199591322e+00 -3.4653893881925954e-03 0.0000000000000000e+00  -2.2239656016858573e+00 -3.4920500584904308e-03 0.0000000000000000e+00  -2.2228142366893358e+00 -3.5186769552551346e-03 0.0000000000000000e+00  -2.2215667399554002e+00 -3.5452691737156423e-03 0.0000000000000000e+00  -2.2202230281563131e+00 -3.5718255875002380e-03 0.0000000000000000e+00  -2.2187830203363008e+00 -3.5983448777593130e-03 0.0000000000000000e+00  -2.2172466383341951e+00 -3.6248255064611694e-03 0.0000000000000000e+00  -2.2156138074302634e+00 -3.6512658992641097e-03 0.0000000000000000e+00  -2.2138844563059736e+00 -3.6776642269540898e-03 0.0000000000000000e+00  -2.2120585180947892e+00 -3.7040188759037101e-03 0.0000000000000000e+00  -2.2101359296832226e+00 -3.7303276725518413e-03 0.0000000000000000e+00  -2.2081166341279754e+00 -3.7565890858153408e-03 0.0000000000000000e+00  -2.2060005800202536e+00 -3.7828003986427041e-03 0.0000000000000000e+00  -2.2037877245423618e+00 -3.8089591806134151e-03 0.0000000000000000e+00  -2.2014780450992260e+00 -3.8350628794158741e-03 0.0000000000000000e+00  -2.1990715201617843e+00 -3.8610992435714575e-03 0.0000000000000000e+00  -2.1965682428967663e+00 -3.8870747065107261e-03 0.0000000000000000e+00  -2.1939682090294665e+00 -3.9129161563260404e-03 0.0000000000000000e+00  -2.1912720254461027e+00 -3.9386898603997684e-03 0.0000000000000000e+00  -2.1884795913666473e+00 -3.9640380560325809e-03 0.0000000000000000e+00  -2.1855935264096233e+00 -3.9893261009330931e-03 0.0000000000000000e+00  -2.1826128677190182e+00 -4.0132535020536517e-03 0.0000000000000000e+00  -2.1795456172059686e+00 -4.0378950181071778e-03 0.0000000000000000e+00  -2.1763849730888176e+00 -4.0606102988424075e-03 0.0000000000000000e+00  -2.1731401912945079e+00 -4.0942579406264895e-03 0.0000000000000000e+00  -2.1697793466336091e+00 -4.1319992765624907e-03 0.0000000000000000e+00  -2.1663020379659645e+00 -4.2197715199539659e-03 0.0000000000000000e+00  -2.1627373876275744e+00 -4.1948599322293324e-03 0.0000000000000000e+00  -2.1596399602167367e+00 -4.0656279862303375e-03 0.0000000000000000e+00  -2.1573464485989393e+00 -3.0402312552500446e-03 0.0000000000000000e+00  -2.1576945577286679e+00 -2.5652112252379264e-03 0.0000000000000000e+00  -2.1571567895076167e+00 -3.4913607004903010e-03 0.0000000000000000e+00  -2.1596663220744130e+00 -7.5803527218522180e-03 0.0000000000000000e+00  -2.1532698478828252e+00 -3.6187255180095780e-02 0.0000000000000000e+00  -2.1689547452256988e+00 0.0000000000000000e+00 0.0000000000000000e+00  -6.6845546238773199e+00 0.0000000000000000e+00 0.0000000000000000e+00  -6.6892852486543370e+00 -2.2375163203840697e-03 0.0000000000000000e+00  -6.6926426107440360e+00 2.4151362935142316e-03 0.0000000000000000e+00  -6.6960455562883512e+00 3.2509357380845331e-03 0.0000000000000000e+00  -6.6994164934254243e+00 3.2476802176124057e-03 0.0000000000000000e+00  -6.7024497998393233e+00 3.0316677610927271e-03 0.0000000000000000e+00  -6.7054243773226849e+00 2.9443154438663433e-03 0.0000000000000000e+00  -6.7085457863278553e+00 3.0123941292421676e-03 0.0000000000000000e+00  -6.7118512147332288e+00 3.1353107643433574e-03 0.0000000000000000e+00  -6.7152578773749987e+00 3.2281727330537094e-03 0.0000000000000000e+00  -6.7186657003956958e+00 3.2663931003077840e-03 0.0000000000000000e+00  -6.7220007157949411e+00 3.2525592425315074e-03 0.0000000000000000e+00  -6.7252193936953937e+00 3.1993667639841831e-03 0.0000000000000000e+00  -6.7282981021247013e+00 3.1199779300361196e-03 0.0000000000000000e+00  -6.7312299443059196e+00 3.0280029499617968e-03 0.0000000000000000e+00  -6.7340200732915303e+00 2.9346625218159136e-03 0.0000000000000000e+00  -6.7366788101812203e+00 2.8453807861464927e-03 0.0000000000000000e+00  -6.7392138128418182e+00 2.7601393721045546e-03 0.0000000000000000e+00  -6.7416266646675860e+00 2.6757919274996832e-03 0.0000000000000000e+00  -6.7439136001199866e+00 2.5892433521719116e-03 0.0000000000000000e+00  -6.7460686555351472e+00 2.4989012139817642e-03 0.0000000000000000e+00  -6.7480862877911525e+00 2.4047495208560188e-03 0.0000000000000000e+00  -6.7499626607070491e+00 2.3076250130813292e-03 0.0000000000000000e+00  -6.7516956088137254e+00 2.2085072261430741e-03 0.0000000000000000e+00  -6.7532840929202367e+00 2.1081529096963888e-03 0.0000000000000000e+00  -6.7547276198301525e+00 2.0070219275589345e-03 0.0000000000000000e+00  -6.7560259104167582e+00 1.9053742820573343e-03 0.0000000000000000e+00  -6.7571787841332309e+00 1.8033819543661724e-03 0.0000000000000000e+00  -6.7581861667340117e+00 1.7011955723881182e-03 0.0000000000000000e+00  -6.7590481058248715e+00 1.5989517645835667e-03 0.0000000000000000e+00  -6.7597647393196727e+00 1.4967449267532604e-03 0.0000000000000000e+00  -6.7603362169594545e+00 1.3946015541479351e-03 0.0000000000000000e+00  -6.7607626095809570e+00 1.2924749536764374e-03 0.0000000000000000e+00  -6.7610438475869437e+00 1.1902682172928677e-03 0.0000000000000000e+00  -6.7611797082928851e+00 1.0878697195735921e-03 0.0000000000000000e+00  -6.7611698498346762e+00 9.8518800107296627e-04 0.0000000000000000e+00  -6.7610138698553506e+00 8.8217178834867373e-04 0.0000000000000000e+00  -6.7607113655054638e+00 7.7881375201913669e-04 0.0000000000000000e+00  -6.7602619765974810e+00 6.7514064404468517e-04 0.0000000000000000e+00  -6.7596654059211518e+00 5.7119789796025407e-04 0.0000000000000000e+00  -6.7589214191851870e+00 4.6703468320434950e-04 0.0000000000000000e+00  -6.7580298325126522e+00 3.6269368352716421e-04 0.0000000000000000e+00  -6.7569904953932189e+00 2.5820632715326734e-04 0.0000000000000000e+00  -6.7558032751398871e+00 1.5359253982123893e-04 0.0000000000000000e+00  -6.7544680456282133e+00 4.8863061089408424e-05 0.0000000000000000e+00  -6.7529846808176917e+00 -5.5977352889244223e-05 0.0000000000000000e+00  -6.7513530520807734e+00 -1.6092704548216575e-04 0.0000000000000000e+00  -6.7495730278676698e+00 -2.6598539339475318e-04 0.0000000000000000e+00  -6.7476444745321871e+00 -3.7115163069921243e-04 0.0000000000000000e+00  -6.7455672573832572e+00 -4.7642433641437610e-04 0.0000000000000000e+00  -6.7433412417104570e+00 -5.8180136178310701e-04 0.0000000000000000e+00  -6.7409662933643233e+00 -6.8727988650957696e-04 0.0000000000000000e+00  -6.7384422795396537e+00 -7.9285661463179727e-04 0.0000000000000000e+00  -6.7357690687827105e+00 -8.9852772708369001e-04 0.0000000000000000e+00  -6.7329465324605300e+00 -1.0042890756893474e-03 0.0000000000000000e+00  -6.7299745442172441e+00 -1.1101356621755509e-03 0.0000000000000000e+00  -6.7268529838966256e+00 -1.2160618374914679e-03 0.0000000000000000e+00  -6.7235817374288471e+00 -1.3220597292715806e-03 0.0000000000000000e+00  -6.7201607046242708e+00 -1.4281184688094591e-03 0.0000000000000000e+00  -6.7165898130889499e+00 -1.5342211672742057e-03 0.0000000000000000e+00  -6.7128690125713240e+00 -1.6403348708655813e-03 0.0000000000000000e+00  -6.7089984011195343e+00 -1.7464131450789472e-03 0.0000000000000000e+00  -6.7049780412175028e+00 -1.8523302659621203e-03 0.0000000000000000e+00  -6.7008087435959158e+00 -1.9579472621097703e-03 0.0000000000000000e+00  -6.6964907298345819e+00 -2.0627814710151701e-03 0.0000000000000000e+00  -6.6920275826026101e+00 -2.1664501209490636e-03 0.0000000000000000e+00  -6.6874192486803192e+00 -2.2673414195021773e-03 0.0000000000000000e+00  -6.6826786896759325e+00 -2.3649757459836651e-03 0.0000000000000000e+00  -6.6778026863912112e+00 -2.4557215452455866e-03 0.0000000000000000e+00  -6.6728310699748015e+00 -2.5437757402320274e-03 0.0000000000000000e+00  -6.6677505840551836e+00 -2.6246182937111717e-03 0.0000000000000000e+00  -6.6626862188395384e+00 -2.7178559008971177e-03 0.0000000000000000e+00  -6.6576404444512667e+00 -2.7484770155631879e-03 0.0000000000000000e+00  -6.6531158455524118e+00 -2.5931944922023484e-03 0.0000000000000000e+00  -6.6490284496713574e+00 -1.7099350462770986e-03 0.0000000000000000e+00  -6.6467550922735459e+00 1.2572925122641295e-04 0.0000000000000000e+00  -6.6443783373223591e+00 1.7528016798797107e-03 0.0000000000000000e+00  -6.6481638426423517e+00 4.5151619310838014e-03 0.0000000000000000e+00  -6.6504103575260558e+00 4.1073483148991398e-04 0.0000000000000000e+00  -6.6715043681415667e+00 1.4053224229516598e-02 0.0000000000000000e+00  -6.6481020883893551e+00 0.0000000000000000e+00 0.0000000000000000e+00  -6.7675943074935034e+00 0.0000000000000000e+00 0.0000000000000000e+00  -6.7793689889161328e+00 2.5179256193338709e-03 0.0000000000000000e+00  -6.7856191052851980e+00 4.3709321771123917e-03 0.0000000000000000e+00  -6.7898687735243284e+00 5.0314473485916613e-03 0.0000000000000000e+00  -6.7935202482454260e+00 4.7399744697096870e-03 0.0000000000000000e+00  -6.7968734592884976e+00 4.4023128777043036e-03 0.0000000000000000e+00  -6.8002773683435871e+00 4.4156202347589487e-03 0.0000000000000000e+00  -6.8039047374442614e+00 4.6477301840981925e-03 0.0000000000000000e+00  -6.8076974421876066e+00 4.8616209749340030e-03 0.0000000000000000e+00  -6.8114971415165559e+00 4.9516184948989400e-03 0.0000000000000000e+00  -6.8151882231031342e+00 4.9231854784973954e-03 0.0000000000000000e+00  -6.8187171959699908e+00 4.8156539420633800e-03 0.0000000000000000e+00  -6.8220726891942061e+00 4.6573912364608729e-03 0.0000000000000000e+00  -6.8252566268123624e+00 4.4708257771564671e-03 0.0000000000000000e+00  -6.8282797218955551e+00 4.2769927633919697e-03 0.0000000000000000e+00  -6.8311575591240778e+00 4.0912103917393914e-03 0.0000000000000000e+00  -6.8339052637031346e+00 3.9174695590109684e-03 0.0000000000000000e+00  -6.8365307211658877e+00 3.7506328798721038e-03 0.0000000000000000e+00  -6.8390335544667717e+00 3.5825235447600485e-03 0.0000000000000000e+00  -6.8414078379937093e+00 3.4076476812564334e-03 0.0000000000000000e+00  -6.8436467231836788e+00 3.2244888221859449e-03 0.0000000000000000e+00  -6.8457450296514457e+00 3.0344828614138350e-03 0.0000000000000000e+00  -6.8477001002584075e+00 2.8399296067261287e-03 0.0000000000000000e+00  -6.8495110733988307e+00 2.6428146582633447e-03 0.0000000000000000e+00  -6.8511780195394580e+00 2.4443229205412674e-03 0.0000000000000000e+00  -6.8527012287206679e+00 2.2450353229917989e-03 0.0000000000000000e+00  -6.8540809411616612e+00 2.0452037300910430e-03 0.0000000000000000e+00  -6.8553173109074015e+00 1.8450151444835174e-03 0.0000000000000000e+00  -6.8564104821106451e+00 1.6446683784580314e-03 0.0000000000000000e+00  -6.8573606404075296e+00 1.4443579121276627e-03 0.0000000000000000e+00  -6.8581679960360615e+00 1.2441953211188236e-03 0.0000000000000000e+00  -6.8588327201708257e+00 1.0441648299058717e-03 0.0000000000000000e+00  -6.8593548716693560e+00 8.4412737964048698e-04 0.0000000000000000e+00  -6.8597343616454465e+00 6.4387701605224401e-04 0.0000000000000000e+00  -6.8599709635443880e+00 4.4321134846050903e-04 0.0000000000000000e+00  -6.8600643632013112e+00 2.4198856278137513e-04 0.0000000000000000e+00  -6.8600142202423919e+00 4.0151378580009846e-05 0.00