<?xml version="1.0"?>
<VTKFile type="UnstructuredGrid"  version="0.1"  >
<UnstructuredGrid>
<Piece  NumberOfPoints="1369" NumberOfCells="2560">
<Points>
<DataArray  type="Float64"  NumberOfComponents="3"  format="ascii">0 0 0  0.75 0 0  1.5 0 0  2.25 0 0  3 0 0  3.75 0 0  4.5 0 0  5.25 0 0  6 0 0  6.75 0 0  7.5 0 0  8.25 0 0  9 0 0  9.75 0 0  10.5 0 0  11.25 0 0  12 0 0  12.75 0 0  13.5 0 0  14.25 0 0  15 0 0  15.75 0 0  16.5 0 0  17.25 0 0  18 0 0  18.75 0 0  19.5 0 0  20.25 0 0  21 0 0  21.75 0 0  22.5 0 0  23.25 0 0  24 0 0  24.75 0 0  25.5 0 0  26.25 0 0  27 0 0  27.75 0 0  28.5 0 0  29.25 0 0  30 0 0  30.75 0 0  31.5 0 0  32.25 0 0  33 0 0  33.75 0 0  34.5 0 0  35.25 0 0  36 0 0  36.75 0 0  37.5 0 0  38.25 0 0  39 0 0  39.75 0 0  40.5 0 0  41.25 0 0  42 0 0  42.75 0 0  43.5 0 0  44.25 0 0  45 0 0  45.75 0 0  46.5 0 0  47.25 0 0  48 0 0  48.75 0 0  49.5 0 0  50.25 0 0  51 0 0  51.75 0 0  52.5 0 0  53.25 0 0  54 0 0  54.75 0 0  55.5 0 0  56.25 0 0  57 0 0  57.75 0 0  58.5 0 0  59.25 0 0  60 0 0  0 0.5 0  0.75 0.4999335876243491 0  1.5 0.4998676160617676 0  2.25 0.4998025323853103 0  3 0.4997386709367445 0  3.75 0.4996762553416523 0  4.5 0.4996154237505764 0  5.25 0.4995562573259017 0  6 0.4994988023942689 0  6.75 0.4994430849904697 0  7.5 0.4993891196273085 0  8.25 0.4993369143613043 0  9 0.4992864736557183 0  9.75 0.4992377999808087 0  10.5 0.499190894703256 0  11.25 0.4991457585791085 0  12 0.4991023920266353 0  12.75 0.4990607952772571 0  13.5 0.4990209684590273 0  14.25 0.4989829116428045 0  15 0.4989466248677961 0  15.75 0.4989121081556908 0  16.5 0.4988793615184777 0  17.25 0.4988483849627763 0  18 0.4988191784922344 0  18.75 0.4987917421088534 0  19.5 0.4987660758137239 0  20.25 0.4987421796074335 0  21 0.4987200534902929 0  21.75 0.4986996974624593 0  22.5 0.498681111524006 0  23.25 0.4986642956749631 0  24 0.4986492499153357 0  24.75 0.4986359742451176 0  25.5 0.4986244686642964 0  26.25 0.49861473317286 0  27 0.4986067677707952 0  27.75 0.4986005724580908 0  28.5 0.4985961472347368 0  29.25 0.4985934921007273 0  30 0.4985926070560581 0  30.75 0.4985934921007273 0  31.5 0.4985961472347368 0  32.25 0.4986005724580908 0  33 0.4986067677707952 0  33.75 0.4986147331728601 0  34.5 0.4986244686642965 0  35.25 0.4986359742451176 0  36 0.4986492499153357 0  36.75 0.4986642956749631 0  37.5 0.498681111524006 0  38.25 0.4986996974624593 0  39 0.4987200534902929 0  39.75 0.4987421796074335 0  40.5 0.498766075813724 0  41.25 0.4987917421088534 0  42 0.4988191784922344 0  42.75 0.4988483849627763 0  43.5 0.4988793615184776 0  44.25 0.4989121081556908 0  45 0.4989466248677961 0  45.75 0.4989829116428045 0  46.5 0.4990209684590273 0  47.25 0.4990607952772571 0  48 0.4991023920266353 0  48.75 0.4991457585791085 0  49.5 0.499190894703256 0  50.25 0.4992377999808087 0  51 0.4992864736557183 0  51.75 0.4993369143613043 0  52.5 0.4993891196273085 0  53.25 0.4994430849904697 0  54 0.4994988023942689 0  54.75 0.4995562573259017 0  55.5 0.4996154237505764 0  56.25 0.4996762553416523 0  57 0.4997386709367445 0  57.75 0.4998025323853103 0  58.5 0.4998676160617676 0  59.25 0.4999335876243491 0  60 0.5 0  0 1 0  0.75 0.999866937454993 0  1.5 0.9997347924273228 0  2.25 0.9996044771529996 0  3 0.9994766575381615 0  3.75 0.999351767839369 0  4.5 0.9992300709596448 0  5.25 0.9991117193223235 0  6 0.9989967992686302 0  6.75 0.9988853591205605 0  7.5 0.9987774257554052 0  8.25 0.9986730140762325 0  9 0.9985721323341847 0  9.75 0.9984747850945148 0  10.5 0.9983809748825385 0  11.25 0.9982907030951469 0  12 0.9982039705051037 0  12.75 0.9981207775399571 0  13.5 0.9980411244362801 0  14.25 0.9979650113249814 0  15 0.9978924382784933 0  15.75 0.9978234053368802 0  16.5 0.997757912522291 0  17.25 0.9976959598469514 0  18 0.9976375473175985 0  18.75 0.9975826749379261 0  19.5 0.9975313427099477 0  20.25 0.9974835506347469 0  21 0.9974392987128945 0  21.75 0.9973985869446785 0  22.5 0.9973614153302341 0  23.25 0.9973277838696135 0  24 0.9972976925628259 0  24.75 0.9972711414098571 0  25.5 0.9972481304106846 0  26.25 0.9972286595652834 0  27 0.9972127288736288 0  27.75 0.9972003383356988 0  28.5 0.9971914879514764 0  29.25 0.9971861777209473 0  30 0.9971844076441057 0  30.75 0.9971861777209473 0  31.5 0.9971914879514764 0  32.25 0.9972003383356988 0  33 0.9972127288736288 0  33.75 0.9972286595652834 0  34.5 0.9972481304106846 0  35.25 0.9972711414098571 0  36 0.9972976925628259 0  36.75 0.9973277838696135 0  37.5 0.9973614153302341 0  38.25 0.9973985869446785 0  39 0.9974392987128945 0  39.75 0.9974835506347471 0  40.5 0.9975313427099477 0  41.25 0.9975826749379261 0  42 0.9976375473175985 0  42.75 0.9976959598469514 0  43.5 0.997757912522291 0  44.25 0.9978234053368802 0  45 0.9978924382784932 0  45.75 0.9979650113249814 0  46.5 0.9980411244362801 0  47.25 0.9981207775399571 0  48 0.9982039705051037 0  48.75 0.9982907030951469 0  49.5 0.9983809748825385 0  50.25 0.9984747850945148 0  51 0.9985721323341847 0  51.75 0.9986730140762325 0  52.5 0.9987774257554052 0  53.25 0.9988853591205605 0  54 0.9989967992686302 0  54.75 0.9991117193223235 0  55.5 0.9992300709596448 0  56.25 0.999351767839369 0  57 0.9994766575381617 0  57.75 0.9996044771529996 0  58.5 0.9997347924273228 0  59.25 0.999866937454993 0  60 1 0  0 1.5 0  0.75 1.499799793408489 0  1.5 1.499601063102948 0  2.25 1.499405222821425 0  3 1.499213258318968 0  3.75 1.499025783788753 0  4.5 1.498843158642806 0  5.25 1.498665586958964 0  6 1.498493183009062 0  6.75 1.498326010351 0  7.5 1.498164104220139 0  8.25 1.49800748412 0  9 1.497856160838897 0  9.75 1.497710140343003 0  10.5 1.497569425931744 0  11.25 1.497434019429976 0  12 1.497303921847148 0  12.75 1.497179133741741 0  13.5 1.497059655422769 0  14.25 1.496945487061223 0  15 1.496836628751708 0  15.75 1.496733080546554 0  16.5 1.496634842474683 0  17.25 1.496541914552062 0  18 1.49645429678748 0  18.75 1.496371989185761 0  19.5 1.496294991749527 0  20.25 1.496223304480189 0  21 1.496156927378486 0  21.75 1.496095860444791 0  22.5 1.496040103679277 0  23.25 1.495989657082005 0  24 1.495944520652986 0  24.75 1.495904694392199 0  25.5 1.49587017829961 0  26.25 1.495840972375183 0  27 1.495817076618887 0  27.75 1.495798491030689 0  28.5 1.495785215610564 0  29.25 1.495777250358497 0  30 1.495774595274476 0  30.75 1.495777250358497 0  31.5 1.495785215610564 0  32.25 1.495798491030689 0  33 1.495817076618887 0  33.75 1.495840972375183 0  34.5 1.49587017829961 0  35.25 1.495904694392199 0  36 1.495944520652986 0  36.75 1.495989657082005 0  37.5 1.496040103679277 0  38.25 1.496095860444791 0  39 1.496156927378486 0  39.75 1.496223304480188 0  40.5 1.496294991749527 0  41.25 1.496371989185761 0  42 1.49645429678748 0  42.75 1.496541914552062 0  43.5 1.496634842474683 0  44.25 1.496733080546554 0  45 1.496836628751708 0  45.75 1.496945487061223 0  46.5 1.497059655422769 0  47.25 1.497179133741741 0  48 1.497303921847148 0  48.75 1.497434019429976 0  49.5 1.497569425931744 0  50.25 1.497710140343003 0  51 1.497856160838897 0  51.75 1.49800748412 0  52.5 1.498164104220139 0  53.25 1.498326010351 0  54 1.498493183009062 0  54.75 1.498665586958964 0  55.5 1.498843158642806 0  56.25 1.499025783788753 0  57 1.499213258318968 0  57.75 1.499405222821425 0  58.5 1.499601063102948 0  59.25 1.499799793408489 0  60 1.5 0  0 2 0  0.75 1.99973185705655 0  1.5 1.999465904295398 0  2.25 1.999204108537647 0  3 1.99894773800897 0  3.75 1.998697528731122 0  4.5 1.998453891701475 0  5.25 1.998217054304567 0  6 1.997987142112482 0  6.75 1.997764224456761 0  7.5 1.997548339624563 0  8.25 1.997339508765278 0  9 1.997137743565043 0  9.75 1.996943050482898 0  10.5 1.996755433089793 0  11.25 1.996574893360464 0  12 1.996401432387184 0  12.75 1.996235050774228 0  13.5 1.996075748855948 0  14.25 1.99592352681734 0  15 1.995778384760759 0  15.75 1.995640322742816 0  16.5 1.995509340794795 0  17.25 1.995385438933959 0  18 1.995268617169812 0  18.75 1.99515887550756 0  19.5 1.995056213950034 0  20.25 1.994960632498748 0  21 1.994872131154498 0  21.75 1.994790709917678 0  22.5 1.994716368788466 0  23.25 1.994649107766926 0  24 1.994588926853059 0  24.75 1.994535826046838 0  25.5 1.994489805348226 0  26.25 1.994450864757176 0  27 1.994419004273651 0  27.75 1.994394223897615 0  28.5 1.994376523629038 0  29.25 1.994365903467901 0  30 1.994362363414189 0  30.75 1.994365903467901 0  31.5 1.994376523629038 0  32.25 1.994394223897615 0  33 1.994419004273651 0  33.75 1.994450864757177 0  34.5 1.994489805348226 0  35.25 1.994535826046838 0  36 1.994588926853058 0  36.75 1.994649107766926 0  37.5 1.994716368788466 0  38.25 1.994790709917678 0  39 1.994872131154498 0  39.75 1.994960632498749 0  40.5 1.995056213950034 0  41.25 1.99515887550756 0  42 1.995268617169812 0  42.75 1.995385438933959 0  43.5 1.995509340794795 0  44.25 1.995640322742816 0  45 1.995778384760759 0  45.75 1.99592352681734 0  46.5 1.996075748855948 0  47.25 1.996235050774228 0  48 1.996401432387184 0  48.75 1.996574893360464 0  49.5 1.996755433089793 0  50.25 1.996943050482898 0  51 1.997137743565043 0  51.75 1.997339508765278 0  52.5 1.997548339624563 0  53.25 1.997764224456761 0  54 1.997987142112482 0  54.75 1.998217054304567 0  55.5 1.998453891701475 0  56.25 1.998697528731122 0  57 1.99894773800897 0  57.75 1.999204108537647 0  58.5 1.999465904295398 0  59.25 1.99973185705655 0  60 2 0  0 2.5 0  0.75 2.499662747962255 0  1.5 2.499328691261415 0  2.25 2.499000396400636 0  3 2.498679312770169 0  3.75 2.498366199713054 0  4.5 2.498061458795784 0  5.25 2.497765306288048 0  6 2.497477859955123 0  6.75 2.497199184341072 0  7.5 2.496929314951281 0  8.25 2.496668271358545 0  9 2.496416064366267 0  9.75 2.496172699942263 0  10.5 2.495938181384945 0  11.25 2.495712510518067 0  12 2.495495688350321 0  12.75 2.495287715439714 0  13.5 2.495088592094987 0  14.25 2.494898318486963 0  15 2.494716894710148 0  15.75 2.494544320816805 0  16.5 2.494380596835808 0  17.25 2.494225722783086 0  18 2.494079698667404 0  18.75 2
[...]
<PointData  Vectors="f_10-0"> 
<DataArray  type="Float64"  Name="f_10-0"  NumberOfComponents="3" format="ascii">0.0000000000000000e+00 0.0000000000000000e+00 0.0000000000000000e+00  0.0000000000000000e+00 0.0000000000000000e+00 0.0000000000000000e+00  0.0000000000000000e+00 0.0000000000000000e+00 0.0000000000000000e+00  0.0000000000000000e+00 0.0000000000000000e+00 0.0000000000000000e+00  0.0000000000000000e+00 0.0000000000000000e+00 0.0000000000000000e+00  0.0000000000000000e+00 0.0000000000000000e+00 0.0000000000000000e+00  0.0000000000000000e+00 0.0000000000000000e+00 0.0000000000000000e+00  0.0000000000000000e+00 0.0000000000000000e+00 0.0000000000000000e+00  0.0000000000000000e+00 0.0000000000000000e+00 0.0000000000000000e+00  0.0000000000000000e+00 0.0000000000000000e+00 0.0000000000000000e+00  0.0000000000000000e+00 0.0000000000000000e+00 0.0000000000000000e+00  0.0000000000000000e+00 0.0000000000000000e+00 0.0000000000000000e+00  0.0000000000000000e+00 0.0000000000000000e+00 0.0000000000000000e+00  0.0000000000000000e+00 0.0000000000000000e+00 0.0000000000000000e+00  0.0000000000000000e+00 0.0000000000000000e+00 0.0000000000000000e+00  0.0000000000000000e+00 0.0000000000000000e+00 0.0000000000000000e+00  0.0000000000000000e+00 0.0000000000000000e+00 0.0000000000000000e+00  0.0000000000000000e+00 0.0000000000000000e+00 0.0000000000000000e+00  0.0000000000000000e+00 0.0000000000000000e+00 0.0000000000000000e+00  0.0000000000000000e+00 0.0000000000000000e+00 0.0000000000000000e+00  0.0000000000000000e+00 0.0000000000000000e+00 0.0000000000000000e+00  0.0000000000000000e+00 0.0000000000000000e+00 0.0000000000000000e+00  0.0000000000000000e+00 0.0000000000000000e+00 0.0000000000000000e+00  0.0000000000000000e+00 0.0000000000000000e+00 0.0000000000000000e+00  0.0000000000000000e+00 0.0000000000000000e+00 0.0000000000000000e+00  0.0000000000000000e+00 0.0000000000000000e+00 0.0000000000000000e+00  0.0000000000000000e+00 0.0000000000000000e+00 0.0000000000000000e+00  0.0000000000000000e+00 0.0000000000000000e+00 0.0000000000000000e+00  0.0000000000000000e+00 0.0000000000000000e+00 0.0000000000000000e+00  0.0000000000000000e+00 0.0000000000000000e+00 0.0000000000000000e+00  0.0000000000000000e+00 0.0000000000000000e+00 0.0000000000000000e+00  0.0000000000000000e+00 0.0000000000000000e+00 0.0000000000000000e+00  0.0000000000000000e+00 0.0000000000000000e+00 0.0000000000000000e+00  0.0000000000000000e+00 0.0000000000000000e+00 0.0000000000000000e+00  0.0000000000000000e+00 0.0000000000000000e+00 0.0000000000000000e+00  0.0000000000000000e+00 0.0000000000000000e+00 0.0000000000000000e+00  0.0000000000000000e+00 0.0000000000000000e+00 0.0000000000000000e+00  0.0000000000000000e+00 0.0000000000000000e+00 0.0000000000000000e+00  0.0000000000000000e+00 0.0000000000000000e+00 0.0000000000000000e+00  0.0000000000000000e+00 0.0000000000000000e+00 0.0000000000000000e+00  0.0000000000000000e+00 0.0000000000000000e+00 0.0000000000000000e+00  0.0000000000000000e+00 0.0000000000000000e+00 0.0000000000000000e+00  0.0000000000000000e+00 0.0000000000000000e+00 0.0000000000000000e+00  0.0000000000000000e+00 0.0000000000000000e+00 0.0000000000000000e+00  0.0000000000000000e+00 0.0000000000000000e+00 0.0000000000000000e+00  0.0000000000000000e+00 0.0000000000000000e+00 0.0000000000000000e+00  0.0000000000000000e+00 0.0000000000000000e+00 0.0000000000000000e+00  0.0000000000000000e+00 0.0000000000000000e+00 0.0000000000000000e+00  0.0000000000000000e+00 0.0000000000000000e+00 0.0000000000000000e+00  0.0000000000000000e+00 0.0000000000000000e+00 0.0000000000000000e+00  0.0000000000000000e+00 0.0000000000000000e+00 0.0000000000000000e+00  0.0000000000000000e+00 0.0000000000000000e+00 0.0000000000000000e+00  0.0000000000000000e+00 0.0000000000000000e+00 0.0000000000000000e+00  0.0000000000000000e+00 0.0000000000000000e+00 0.0000000000000000e+00  0.0000000000000000e+00 0.0000000000000000e+00 0.0000000000000000e+00  0.0000000000000000e+00 0.0000000000000000e+00 0.0000000000000000e+00  0.0000000000000000e+00 0.0000000000000000e+00 0.0000000000000000e+00  0.0000000000000000e+00 0.0000000000000000e+00 0.0000000000000000e+00  0.0000000000000000e+00 0.0000000000000000e+00 0.0000000000000000e+00  0.0000000000000000e+00 0.0000000000000000e+00 0.0000000000000000e+00  0.0000000000000000e+00 0.0000000000000000e+00 0.0000000000000000e+00  0.0000000000000000e+00 0.0000000000000000e+00 0.0000000000000000e+00  0.0000000000000000e+00 0.0000000000000000e+00 0.0000000000000000e+00  0.0000000000000000e+00 0.0000000000000000e+00 0.0000000000000000e+00  0.0000000000000000e+00 0.0000000000000000e+00 0.0000000000000000e+00  0.0000000000000000e+00 0.0000000000000000e+00 0.0000000000000000e+00  0.0000000000000000e+00 0.0000000000000000e+00 0.0000000000000000e+00  0.0000000000000000e+00 0.0000000000000000e+00 0.0000000000000000e+00  0.0000000000000000e+00 0.0000000000000000e+00 0.0000000000000000e+00  0.0000000000000000e+00 0.0000000000000000e+00 0.0000000000000000e+00  0.0000000000000000e+00 0.0000000000000000e+00 0.0000000000000000e+00  0.0000000000000000e+00 0.0000000000000000e+00 0.0000000000000000e+00  0.0000000000000000e+00 0.0000000000000000e+00 0.0000000000000000e+00  0.0000000000000000e+00 0.0000000000000000e+00 0.0000000000000000e+00  0.0000000000000000e+00 0.0000000000000000e+00 0.0000000000000000e+00  0.0000000000000000e+00 0.0000000000000000e+00 0.0000000000000000e+00  0.0000000000000000e+00 0.0000000000000000e+00 0.0000000000000000e+00  0.0000000000000000e+00 0.0000000000000000e+00 0.0000000000000000e+00  0.0000000000000000e+00 0.0000000000000000e+00 0.0000000000000000e+00  0.0000000000000000e+00 0.0000000000000000e+00 0.0000000000000000e+00  0.0000000000000000e+00 0.0000000000000000e+00 0.0000000000000000e+00  -5.5600654300707424e+00 0.0000000000000000e+00 0.0000000000000000e+00  -5.6116119558205471e+00 -1.2877391505446110e-02 0.0000000000000000e+00  -5.6261906532905170e+00 2.3522995214445273e-03 0.0000000000000000e+00  -5.6379643597483708e+00 4.7349092893360211e-03 0.0000000000000000e+00  -5.6530817132307218e+00 5.8981515834620859e-03 0.0000000000000000e+00  -5.6662285548126468e+00 4.5927403060470476e-03 0.0000000000000000e+00  -5.6759846638503060e+00 3.3388081648969281e-03 0.0000000000000000e+00  -5.6837766595404515e+00 2.5625237641574991e-03 0.0000000000000000e+00  -5.6894163864672196e+00 1.7375216863437749e-03 0.0000000000000000e+00  -5.6935815372863106e+00 1.0155150022421668e-03 0.0000000000000000e+00  -5.6960945275838704e+00 3.2948442843829228e-04 0.0000000000000000e+00  -5.6974562660880910e+00 -7.7758810141907643e-05 0.0000000000000000e+00  -5.6981192919185757e+00 -2.4948088900487693e-04 0.0000000000000000e+00  -5.6986719052655781e+00 -2.1074271097341288e-04 0.0000000000000000e+00  -5.6993930412521001e+00 -9.2505802994581469e-05 0.0000000000000000e+00  -5.7004595012444286e+00 5.2883103508333654e-05 0.0000000000000000e+00  -5.7018233819051094e+00 1.6300156621567162e-04 0.0000000000000000e+00  -5.7034217957104785e+00 2.3743352409695919e-04 0.0000000000000000e+00  -5.7051315184132445e+00 2.6724245988813745e-04 0.0000000000000000e+00  -5.7068706034396657e+00 2.6833255141704265e-04 0.0000000000000000e+00  -5.7085589060774424e+00 2.4539615238499112e-04 0.0000000000000000e+00  -5.7101546038795883e+00 2.1067790212696470e-04 0.0000000000000000e+00  -5.7116243829745326e+00 1.6783691192719205e-04 0.0000000000000000e+00  -5.7129566009624160e+00 1.2303295847287726e-04 0.0000000000000000e+00  -5.7141434926318802e+00 7.7595287545896970e-05 0.0000000000000000e+00  -5.7151878494208912e+00 3.4367612683111857e-05 0.0000000000000000e+00  -5.7160935131046138e+00 -6.4296040175922885e-06 0.0000000000000000e+00  -5.7168687899570596e+00 -4.3813120029940992e-05 0.0000000000000000e+00  -5.7175208346054731e+00 -7.8464072184544976e-05 0.0000000000000000e+00  -5.7180570776596609e+00 -1.1067623627305551e-04 0.0000000000000000e+00  -5.7184822752162221e+00 -1.4154627645635899e-04 0.0000000000000000e+00  -5.7187996653421651e+00 -1.7169592583427483e-04 0.0000000000000000e+00  -5.7190101424359421e+00 -2.0189407371266964e-04 0.0000000000000000e+00  -5.7191134858384576e+00 -2.3243459786925243e-04 0.0000000000000000e+00  -5.7191084562429655e+00 -2.6355975377502147e-04 0.0000000000000000e+00  -5.7189936358621214e+00 -2.9523762117261140e-04 0.0000000000000000e+00  -5.7187675459102651e+00 -3.2743332244278462e-04 0.0000000000000000e+00  -5.7184289686990191e+00 -3.6002948098378057e-04 0.0000000000000000e+00  -5.7179768998184315e+00 -3.9295500432449037e-04 0.0000000000000000e+00  -5.7174105821720618e+00 -4.2613742402728636e-04 0.0000000000000000e+00  -5.7167294120382683e+00 -4.5954506376220765e-04 0.0000000000000000e+00  -5.7159329053509635e+00 -4.9315430159492513e-04 0.0000000000000000e+00  -5.7150206406591053e+00 -5.2695918846767074e-04 0.0000000000000000e+00  -5.7139922390508007e+00 -5.6095460815456881e-04 0.0000000000000000e+00  -5.7128473453242643e+00 -5.9513900587170694e-04 0.0000000000000000e+00  -5.7115856232148472e+00 -6.2950881569973788e-04 0.0000000000000000e+00  -5.7102067519446438e+00 -6.6406042973190073e-04 0.0000000000000000e+00  -5.7087104246281646e+00 -6.9878947602064283e-04 0.0000000000000000e+00  -5.7070963465053524e+00 -7.3369212573970509e-04 0.0000000000000000e+00  -5.7053642317748618e+00 -7.6876537747806977e-04 0.0000000000000000e+00  -5.7035138005389889e+00 -8.0400752881523317e-04 0.0000000000000000e+00  -5.7015447747627519e+00 -8.3941828784439283e-04 0.0000000000000000e+00  -5.6994568749664287e+00 -8.7499867143562638e-04 0.0000000000000000e+00  -5.6972498167751402e+00 -9.1075091548856505e-04 0.0000000000000000e+00  -5.6949233084209299e+00 -9.4667818186613896e-04 0.0000000000000000e+00  -5.6924770484949354e+00 -9.8278439830399938e-04 0.0000000000000000e+00  -5.6899107245251042e+00 -1.0190740028414235e-03 0.0000000000000000e+00  -5.6872240118577206e+00 -1.0555518136353178e-03 0.0000000000000000e+00  -5.6844165730457572e+00 -1.0922229026401032e-03 0.0000000000000000e+00  -5.6814880574271927e+00 -1.1290925640690607e-03 0.0000000000000000e+00  -5.6784381008130111e+00 -1.1661663531657245e-03 0.0000000000000000e+00  -5.6752663249621289e+00 -1.2034503201401496e-03 0.0000000000000000e+00  -5.6719723363775154e+00 -1.2409514805071930e-03 0.0000000000000000e+00  -5.6685557238520996e+00 -1.2786785021075646e-03 0.0000000000000000e+00  -5.6650160531666343e+00 -1.3166436380477621e-03 0.0000000000000000e+00  -5.6613528581717398e+00 -1.3548633141499658e-03 0.0000000000000000e+00  -5.6575656228351807e+00 -1.3933664358026980e-03 0.0000000000000000e+00  -5.6536537553696844e+00 -1.4321866481488449e-03 0.0000000000000000e+00  -5.6496165369542402e+00 -1.4714013912566883e-03 0.0000000000000000e+00  -5.6454530510499765e+00 -1.5110690457940136e-03 0.0000000000000000e+00  -5.6411620673550322e+00 -1.5513949836044305e-03 0.0000000000000000e+00  -5.6367417642079651e+00 -1.5924384085923755e-03 0.0000000000000000e+00  -5.6321896446137822e+00 -1.6348006531351777e-03 0.0000000000000000e+00  -5.6275006481924823e+00 -1.6777718104588057e-03 0.0000000000000000e+00  -5.6226681242115175e+00 -1.7263394924512524e-03 0.0000000000000000e+00  -5.6176763484342782e+00 -1.7612037103904618e-03 0.0000000000000000e+00  -5.6124717393465131e+00 -1.8992384677292186e-03 0.0000000000000000e+00  -5.6071447819814413e+00 -1.5550438638625124e-03 0.0000000000000000e+00  -5.6004104724174457e+00 -4.5912518351260492e-03 0.0000000000000000e+00  -5.6026048754933795e+00 1.1699659768292672e-02 0.0000000000000000e+00  -5.5721641169569232e+00 0.0000000000000000e+00 0.0000000000000000e+00  2.5149273476467116e+00 0.0000000000000000e+00 0.0000000000000000e+00  2.5179008712136364e+00 7.1066610098864356e-03 0.0000000000000000e+00  2.5114821562174336e+00 8.9910958378783823e-03 0.0000000000000000e+00  2.5071736955650596e+00 1.1556671306395287e-02 0.0000000000000000e+00  2.5048633266332887e+00 1.2242463921111519e-02 0.0000000000000000e+00  2.5024699825117942e+00 9.5849303915252811e-03 0.0000000000000000e+00  2.4994826443059761e+00 6.7114032679688046e-03 0.0000000000000000e+00  2.4970868842695468e+00 5.0639428195049883e-03 0.0000000000000000e+00  2.4937694386942084e+00 3.9666196928613380e-03 0.0000000000000000e+00  2.4899612261772983e+00 2.6909002632739495e-03 0.0000000000000000e+00  2.4855303241045883e+00 1.4494119792443081e-03 0.0000000000000000e+00  2.4814526858829757e+00 4.4162142321573167e-04 0.0000000000000000e+00  2.4776824161924300e+00 1.3512268767249422e-05 0.0000000000000000e+00  2.4742808117670103e+00 1.0974835200251724e-05 0.0000000000000000e+00  2.4708765922135751e+00 3.1537015927893112e-04 0.0000000000000000e+00  2.4673743117091513e+00 6.8197715699740743e-04 0.0000000000000000e+00  2.4636261703818763e+00 1.0160195246079048e-03 0.0000000000000000e+00  2.4597008142660033e+00 1.2378214203072613e-03 0.0000000000000000e+00  2.4556290220183414e+00 1.3541090407222737e-03 0.0000000000000000e+00  2.4515244097979889e+00 1.3701385502848976e-03 0.0000000000000000e+00  2.4474483366834336e+00 1.3178768027677843e-03 0.0000000000000000e+00  2.4434823563823733e+00 1.2152567071324993e-03 0.0000000000000000e+00  2.4396666342082916e+00 1.0852075689800416e-03 0.0000000000000000e+00  2.4360443943650325e+00 9.3822618635951279e-04 0.0000000000000000e+00  2.4326334637181946e+00 7.8628530869541055e-04 0.0000000000000000e+00  2.4294512778040103e+00 6.3425734604226932e-04 0.0000000000000000e+00  2.4265003089729995e+00 4.8807289896990496e-04 0.0000000000000000e+00  2.4237820357127742e+00 3.4907508135774971e-04 0.0000000000000000e+00  2.4212902498460696e+00 2.1859318452920531e-04 0.0000000000000000e+00  2.4190196914234789e+00 9.4893419867532710e-05 0.0000000000000000e+00  2.4169633779299411e+00 -2.3616454405877420e-05 0.0000000000000000e+00  2.4151172773968792e+00 -1.3962127865702894e-04 0.0000000000000000e+00  2.4134785261149108e+00 -2.5490700664475405e-04 0.0000000000000000e+00  2.4120470164804573e+00 -3.7109864206565871e-04 0.0000000000000000e+00  2.4108237379855013e+00 -4.8885204378233498e-04 0.0000000000000000e+00  2.4098109317760454e+00 -6.0850724375235586e-04 0.0000000000000000e+00  2.4090109592696360e+00 -7.2989972749645316e-04 0.0000000000000000e+00  2.4084262441175217e+00 -8.5280245118260858e-04 0.0000000000000000e+00  2.4080587935299880e+00 -9.7687912026131409e-04 0.0000000000000000e+00  2.4079102712228200e+00 -1.1018793216779758e-03 0.0000000000000000e+00  2.4079819128587725e+00 -1.2275860978152706e-03 0.0000000000000000e+00  2.4082746555173000e+00 -1.3538673865527923e-03 0.0000000000000000e+00  2.4087891792935268e+00 -1.4806277253771403e-03 0.0000000000000000e+00  2.4095260036375215e+00 -1.6078131871177462e-03 0.0000000000000000e+00  2.4104855318718856e+00 -1.7353844893740658e-03 0.0000000000000000e+00  2.4116680996289541e+00 -1.8633163621278579e-03 0.0000000000000000e+00  2.4130739989113938e+00 -1.9915880826837313e-03 0.0000000000000000e+00  2.4147034974575270e+00 -2.1201843553002113e-03 0.0000000000000000e+00  2.4165568499151715e+00 -2.2490934279293328e-03 0.0000000000000000e+00  2.4186343053924788e+00 -2.3783079400989857e-03 0.0000000000000000e+00  2.4209361134713943e+00 -2.5078247193634504e-03 0.0000000000000000e+00  2.4234625279519526e+00 -2.6376447374211400e-03 0.0000000000000000e+00  2.4262138107949420e+00 -2.7677727798540658e-03 0.0000000000000000e+00  2.4291902344743921e+00 -2.8982168119531309e-03 0.0000000000000000e+00  2.4323920845732907e+00 -3.0289874550722827e-03 0.0000000000000000e+00  2.4358196612166196e+00 -3.1600972719249029e-03 0.0000000000000000e+00  2.4394732805453074e+00 -3.2915602567730423e-03 0.0000000000000000e+00  2.4433532753532172e+00 -3.4233912927095302e-03 0.0000000000000000e+00  2.4474599956546830e+00 -3.5556058395340498e-03 0.0000000000000000e+00  2.4517938087210696e+00 -3.6882196828449546e-03 0.0000000000000000e+00  2.4563550991102456e+00 -3.8212489685676165e-03 0.0000000000000000e+00  2.4611442685504539e+00 -3.9547105880416824e-03 0.0000000000000000e+00  2.4661617362732531e+00 -4.0886231235728321e-03 0.0000000000000000e+00  2.4714079400141662e+00 -4.2230087854258115e-03 0.0000000000000000e+00  2.4768833391682787e+00 -4.3578967921815799e-03 0.0000000000000000e+00  2.4825884204397215e+00 -4.4933293392753065e-03 0.0000000000000000e+00  2.4885237112620473e+00 -4.6293710673518266e-03 0.0000000000000000e+00  2.4946897988679382e+00 -4.7661241566678923e-03 0.0000000000000000e+00  2.5010873737912220e+00 -4.9037540560055888e-03 0.0000000000000000e+00  2.5077172867071522e+00 -5.0425188793177117e-03 0.0000000000000000e+00  2.5145806612675079e+00 -5.1828584021053527e-03 0.0000000000000000e+00  2.5216791019642968e+00 -5.3254179426188110e-03 0.0000000000000000e+00  2.5290149150015813e+00 -5.4715293100345858e-03 0.0000000000000000e+00  2.5365920868800704e+00 -5.6231332257763323e-03 0.0000000000000000e+00  2.5444175308278334e+00 -5.7853663460831250e-03 0.0000000000000000e+00  2.5525070925335287e+00 -5.9680605252311171e-03 0.0000000000000000e+00  2.5608887850123430e+00 -6.1824704170191013e-03 0.0000000000000000e+00  2.5696949735152339e+00 -6.5788746531072464e-03 0.0000000000000000e+00  2.5791049221331854e+00 -6.6282581407111872e-03 0.0000000000000000e+00  2.5933615670187269e+00 -9.0078274257686785e-03 0.0000000000000000e+00  2.6042025178790467e+00 0.0000000000000000e+00 0.0000000000000000e+00  8.1136767686227991e+00 0.0000000000000000e+00 0.0000000000000000e+00  8.1203372208156743e+00 4.9017183990535656e-03 0.0000000000000000e+00  8.1270733362394534e+00 6.9720444552439564e-03 0.0000000000000000e+00  8.1381080434655946e+00 6.8609904982514670e-03 0.0000000000000000e+00  8.1490175731298464e+00 7.8821242557312755e-03 0.0000000000000000e+00  8.1571532953704011e+00 7.5291238619274083e-03 0.0000000000000000e+00  8.1616077413698989e+00 5.9383092006434057e-03 0.0000000000000000e+00  8.1630160299744201e+00 5.3466016736096441e-03 0.0000000000000000e+00  8.1625882968687264e+00 5.4303623486292333e-03 0.0000000000000000e+00  8.1600198531340595e+00 5.3877574279590414e-03 0.0000000000000000e+00  8.1559412079817335e+00 4.7068669863650648e-03 0.0000000000000000e+00  8.1507012026294241e+00 3.9407031649547446e-03 0.0000000000000000e+00  8.1450705948208757e+00 3.4033432607530191e-03 0.0000000000000000e+00  8.1392815582916693e+00 3.3580165121448171e-03 0.0000000000000000e+00  8.1336145301826850e+00 3.6208096498208564e-03 0.0000000000000000e+00  8.1280482308595623e+00 4.0476009067963474e-03 0.0000000000000000e+00  8.1226460546751493e+00 4.4393188038311460e-03 0.0000000000000000e+00  8.1173525488033196e+00 4.7330436784426659e-03 0.0000000000000000e+00  8.1121846679313254e+00 4.8843104980736936e-03 0.0000000000000000e+00  8.1071120459237722e+00 4.9133235950211953e-03 0.0000000000000000e+00  8.1021498123383324e+00 4.8354317175284267e-03 0.0000000000000000e+00  8.0972963467842156e+00 4.6831469965054381e-03 0.0000000000000000e+00  8.0925744626941825e+00 4.4752718522829658e-03 0.0000000000000000e+00  8.0879994679657994e+00 4.2333169243212116e-03 0.0000000000000000e+00  8.0835964078948273e+00 3.9690654189682645e-03 0.0000000000000000e+00  8.0793826698626283e+00 3.6958458708029308e-03 0.0000000000000000e+00  8.0753758425133224e+00 3.4213834931206433e-03 0.0000000000000000e+00  8.0715847277185429e+00 3.1532773078539128e-03 0.0000000000000000e+00  8.0680152797454205e+00 2.8941401560396208e-03 0.0000000000000000e+00  8.0646674355547159e+00 2.6450262998027152e-03 0.0000000000000000e+00  8.0615404089313127e+00 2.4035948157045965e-03 0.0000000000000000e+00  8.0586317982510600e+00 2.1670990862478761e-03 0.0000000000000000e+00  8.0559408291569490e+00 1.9320501126727711e-03 0.0000000000000000e+00  8.0534673576323641e+00 1.6960022763400035e-03 0.0000000000000000e+00  8.0512129784255109e+00 1.4571465263043559e-03 0.0000000000000000e+00  8.0491797977579758e+00 1.2148284945914553e-03 0.0000000000000000e+00  8.0473705575269818e+00 9.6895322947292996e-04 0.0000000000000000e+00  8.0457877616353777e+00 7.1996167491915515e-04 0.0000000000000000e+00  8.0444336972316766e+00 4.6840