<?xml version="1.0"?>
<VTKFile type="UnstructuredGrid"  version="0.1"  >
<UnstructuredGrid>
<Piece  NumberOfPoints="1369" NumberOfCells="2560">
<Points>
<DataArray  type="Float64"  NumberOfComponents="3"  format="ascii">0 0 0  0.75 0 0  1.5 0 0  2.25 0 0  3 0 0  3.75 0 0  4.5 0 0  5.25 0 0  6 0 0  6.75 0 0  7.5 0 0  8.25 0 0  9 0 0  9.75 0 0  10.5 0 0  11.25 0 0  12 0 0  12.75 0 0  13.5 0 0  14.25 0 0  15 0 0  15.75 0 0  16.5 0 0  17.25 0 0  18 0 0  18.75 0 0  19.5 0 0  20.25 0 0  21 0 0  21.75 0 0  22.5 0 0  23.25 0 0  24 0 0  24.75 0 0  25.5 0 0  26.25 0 0  27 0 0  27.75 0 0  28.5 0 0  29.25 0 0  30 0 0  30.75 0 0  31.5 0 0  32.25 0 0  33 0 0  33.75 0 0  34.5 0 0  35.25 0 0  36 0 0  36.75 0 0  37.5 0 0  38.25 0 0  39 0 0  39.75 0 0  40.5 0 0  41.25 0 0  42 0 0  42.75 0 0  43.5 0 0  44.25 0 0  45 0 0  45.75 0 0  46.5 0 0  47.25 0 0  48 0 0  48.75 0 0  49.5 0 0  50.25 0 0  51 0 0  51.75 0 0  52.5 0 0  53.25 0 0  54 0 0  54.75 0 0  55.5 0 0  56.25 0 0  57 0 0  57.75 0 0  58.5 0 0  59.25 0 0  60 0 0  0 0.5 0  0.75 0.5000001478265756 0  1.5 0.5000002386106859 0  2.25 0.5000002904777291 0  3 0.5000003176156936 0  3.75 0.5000003298342822 0  4.5 0.5000003333599542 0  5.25 0.5000003319437893 0  6 0.5000003277833296 0  6.75 0.5000003221494177 0  7.5 0.5000003157734916 0  8.25 0.5000003090762695 0  9 0.5000003023000567 0  9.75 0.5000002955846855 0  10.5 0.5000002890110302 0  11.25 0.5000002826259585 0  12 0.5000002764566842 0  12.75 0.5000002705190342 0  13.5 0.5000002648222286 0  14.25 0.5000002593716482 0  15 0.5000002541704414 0  15.75 0.5000002492204574 0  16.5 0.5000002445227874 0  17.25 0.500000240078081 0  18 0.5000002358867311 0  18.75 0.5000002319489794 0  19.5 0.5000002282649784 0  20.25 0.5000002248348289 0  21 0.500000221658601 0  21.75 0.5000002187363454 0  22.5 0.5000002160680994 0  23.25 0.500000213653895 0  24 0.5000002114937571 0  24.75 0.5000002095877069 0  25.5 0.5000002079357616 0  26.25 0.5000002065379372 0  27 0.5000002053942459 0  27.75 0.5000002045046982 0  28.5 0.5000002038693009 0  29.25 0.5000002034880604 0  30 0.5000002033609802 0  30.75 0.5000002034880604 0  31.5 0.5000002038693009 0  32.25 0.5000002045046982 0  33 0.5000002053942459 0  33.75 0.5000002065379373 0  34.5 0.5000002079357617 0  35.25 0.5000002095877069 0  36 0.5000002114937571 0  36.75 0.500000213653895 0  37.5 0.5000002160680994 0  38.25 0.5000002187363454 0  39 0.500000221658601 0  39.75 0.5000002248348289 0  40.5 0.5000002282649785 0  41.25 0.5000002319489794 0  42 0.5000002358867311 0  42.75 0.500000240078081 0  43.5 0.5000002445227872 0  44.25 0.5000002492204574 0  45 0.5000002541704414 0  45.75 0.5000002593716482 0  46.5 0.5000002648222286 0  47.25 0.5000002705190342 0  48 0.5000002764566842 0  48.75 0.5000002826259585 0  49.5 0.5000002890110302 0  50.25 0.5000002955846855 0  51 0.5000003023000567 0  51.75 0.5000003090762695 0  52.5 0.5000003157734916 0  53.25 0.5000003221494177 0  54 0.5000003277833296 0  54.75 0.5000003319437893 0  55.5 0.5000003333599542 0  56.25 0.5000003298342822 0  57 0.5000003176156936 0  57.75 0.5000002904777291 0  58.5 0.5000002386106859 0  59.25 0.5000001478265756 0  60 0.5 0  0 1 0  0.75 1.000000286573603 0  1.5 1.000000459924472 0  2.25 1.00000055748454 0  3 1.000000607790219 0  3.75 1.000000630015394 0  4.5 1.000000636046117 0  5.25 1.00000063292991 0  6 1.00000062475704 0  6.75 1.000000613880839 0  7.5 1.000000601652146 0  8.25 1.000000588846907 0  9 1.000000575911738 0  9.75 1.000000563104327 0  10.5 1.000000550573706 0  11.25 1.000000538406254 0  12 1.000000526652136 0  12.75 1.000000515340531 0  13.5 1.000000504488442 0  14.25 1.000000494105797 0  15 1.000000484198405 0  15.75 1.00000047476968 0  16.5 1.000000465821638 0  17.25 1.00000045735548 0  18 1.000000449371934 0  18.75 1.000000441871447 0  19.5 1.000000434854303 0  20.25 1.000000428320692 0  21 1.000000422270742 0  21.75 1.000000416704549 0  22.5 1.000000411622185 0  23.25 1.000000407023709 0  24 1.000000402909169 0  24.75 1.000000399278604 0  25.5 1.000000396132048 0  26.25 1.000000393469531 0  27 1.000000391291076 0  27.75 1.000000389596702 0  28.5 1.000000388386424 0  29.25 1.000000387660253 0  30 1.000000387418196 0  30.75 1.000000387660253 0  31.5 1.000000388386424 0  32.25 1.000000389596702 0  33 1.000000391291076 0  33.75 1.000000393469531 0  34.5 1.000000396132048 0  35.25 1.000000399278604 0  36 1.000000402909169 0  36.75 1.000000407023709 0  37.5 1.000000411622185 0  38.25 1.000000416704549 0  39 1.000000422270742 0  39.75 1.000000428320692 0  40.5 1.000000434854303 0  41.25 1.000000441871447 0  42 1.000000449371934 0  42.75 1.00000045735548 0  43.5 1.000000465821638 0  44.25 1.00000047476968 0  45 1.000000484198405 0  45.75 1.000000494105797 0  46.5 1.000000504488442 0  47.25 1.000000515340531 0  48 1.000000526652136 0  48.75 1.000000538406254 0  49.5 1.000000550573706 0  50.25 1.000000563104327 0  51 1.000000575911738 0  51.75 1.000000588846907 0  52.5 1.000000601652146 0  53.25 1.000000613880839 0  54 1.00000062475704 0  54.75 1.00000063292991 0  55.5 1.000000636046117 0  56.25 1.000000630015394 0  57 1.000000607790219 0  57.75 1.00000055748454 0  58.5 1.000000459924472 0  59.25 1.000000286573603 0  60 1 0  0 1.5 0  0.75 1.500000406230082 0  1.5 1.500000645229094 0  2.25 1.500000776197404 0  3 1.500000842061386 0  3.75 1.50000087020995 0  4.5 1.500000876957602 0  5.25 1.500000871737801 0  6 1.500000859948761 0  6.75 1.500000844672828 0  7.5 1.500000827672318 0  8.25 1.500000809957559 0  9 1.500000792109568 0  9.75 1.500000774463488 0  10.5 1.500000757213155 0  11.25 1.500000740470942 0  12 1.500000724302127 0  12.75 1.500000708744697 0  13.5 1.500000693820797 0  14.25 1.500000679543362 0  15 1.500000665919965 0  15.75 1.500000652955062 0  16.5 1.500000640651287 0  17.25 1.500000629010209 0  18 1.500000618032784 0  18.75 1.5000006077196 0  19.5 1.500000598071031 0  20.25 1.500000589087329 0  21 1.500000580768667 0  21.75 1.500000573115172 0  22.5 1.500000566126943 0  23.25 1.500000559804058 0  24 1.500000554146583 0  24.75 1.500000549154573 0  25.5 1.500000544828073 0  26.25 1.500000541167123 0  27 1.500000538171758 0  27.75 1.500000535842002 0  28.5 1.500000534177875 0  29.25 1.500000533179394 0  30 1.500000532846566 0  30.75 1.500000533179394 0  31.5 1.500000534177875 0  32.25 1.500000535842002 0  33 1.500000538171758 0  33.75 1.500000541167123 0  34.5 1.500000544828073 0  35.25 1.500000549154573 0  36 1.500000554146583 0  36.75 1.500000559804058 0  37.5 1.500000566126943 0  38.25 1.500000573115172 0  39 1.500000580768667 0  39.75 1.500000589087329 0  40.5 1.500000598071031 0  41.25 1.5000006077196 0  42 1.500000618032784 0  42.75 1.500000629010209 0  43.5 1.500000640651287 0  44.25 1.500000652955062 0  45 1.500000665919965 0  45.75 1.500000679543362 0  46.5 1.500000693820797 0  47.25 1.500000708744697 0  48 1.500000724302127 0  48.75 1.500000740470942 0  49.5 1.500000757213155 0  50.25 1.500000774463488 0  51 1.500000792109568 0  51.75 1.500000809957559 0  52.5 1.500000827672318 0  53.25 1.500000844672828 0  54 1.500000859948761 0  54.75 1.500000871737801 0  55.5 1.500000876957602 0  56.25 1.50000087020995 0  57 1.500000842061386 0  57.75 1.500000776197404 0  58.5 1.500000645229094 0  59.25 1.500000406230082 0  60 1.5 0  0 2 0  0.75 2.000000494614062 0  1.5 2.000000772682968 0  2.25 2.000000918987149 0  3 2.000000989956431 0  3.75 2.000001018788271 0  4.5 2.000001024192911 0  5.25 2.000001016657263 0  6 2.000001002083033 0  6.75 2.000000983810428 0  7.5 2.000000963740565 0  8.25 2.000000942960965 0  9 2.000000922096484 0  9.75 2.000000901507458 0  10.5 2.000000881402337 0  11.25 2.00000086190201 0  12 2.000000843076728 0  12.75 2.000000824967401 0  13.5 2.00000080759789 0  14.25 2.000000790982143 0  15 2.000000775128334 0  15.75 2.000000760041277 0  16.5 2.000000745723822 0  17.25 2.000000732177674 0  18 2.000000719403868 0  18.75 2.000000707403052 0  19.5 2.000000696175636 0  20.25 2.000000685721897 0  21 2.000000676042031 0  21.75 2.000000667136181 0  22.5 2.000000659004457 0  23.25 2.000000651646951 0  24 2.000000645063736 0  24.75 2.000000639254877 0  25.5 2.000000634220429 0  26.25 2.000000629960435 0  27 2.000000626474935 0  27.75 2.00000062376396 0  28.5 2.00000062182753 0  29.25 2.000000620665667 0  30 2.000000620278378 0  30.75 2.000000620665667 0  31.5 2.00000062182753 0  32.25 2.00000062376396 0  33 2.000000626474935 0  33.75 2.000000629960435 0  34.5 2.000000634220429 0  35.25 2.000000639254877 0  36 2.000000645063736 0  36.75 2.000000651646951 0  37.5 2.000000659004457 0  38.25 2.000000667136181 0  39 2.000000676042031 0  39.75 2.000000685721897 0  40.5 2.000000696175636 0  41.25 2.000000707403052 0  42 2.000000719403868 0  42.75 2.000000732177674 0  43.5 2.000000745723822 0  44.25 2.000000760041277 0  45 2.000000775128334 0  45.75 2.000000790982143 0  46.5 2.00000080759789 0  47.25 2.000000824967401 0  48 2.000000843076728 0  48.75 2.00000086190201 0  49.5 2.000000881402337 0  50.25 2.000000901507458 0  51 2.000000922096484 0  51.75 2.000000942960965 0  52.5 2.000000963740565 0  53.25 2.000000983810428 0  54 2.000001002083033 0  54.75 2.000001016657263 0  55.5 2.000001024192911 0  56.25 2.000001018788271 0  57 2.000000989956431 0  57.75 2.000000918987149 0  58.5 2.000000772682968 0  59.25 2.000000494614062 0  60 2 0  0 2.5 0  0.75 2.500000535291043 0  1.5 2.50000081492814 0  2.25 2.500000953832171 0  3 2.500001018122869 0  3.75 2.500001042353114 0  4.5 2.500001044783756 0  5.25 2.500001035330825 0  6 2.50000101948288 0  6.75 2.5000010003198 0  7.5 2.500000979587029 0  8.25 2.500000958281087 0  9 2.500000936974133 0  9.75 2.500000915996119 0  10.5 2.500000895537978 0  11.25 2.500000875710501 0  12 2.500000856578121 0  12.75 2.50000083817838 0  13.5 2.500000820533196 0  14.25 2.500000803655394 0  15 2.5000007875525 0  15.75 2.500000772228953 0  16.5 2.500000757687386 0  17.25 2.50000074392938 0  18 2.500000730955902 0  18.75 2.500000718767553 0  19.5 2.500000707364724 0  20.25 2.50000069674768 0  21 2.5
[...]
<PointData  Vectors="f_10-0"> 
<DataArray  type="Float64"  Name="f_10-0"  NumberOfComponents="3" format="ascii">0.0000000000000000e+00 0.0000000000000000e+00 0.0000000000000000e+00  0.0000000000000000e+00 0.0000000000000000e+00 0.0000000000000000e+00  0.0000000000000000e+00 0.0000000000000000e+00 0.0000000000000000e+00  0.0000000000000000e+00 0.0000000000000000e+00 0.0000000000000000e+00  0.0000000000000000e+00 0.0000000000000000e+00 0.0000000000000000e+00  0.0000000000000000e+00 0.0000000000000000e+00 0.0000000000000000e+00  0.0000000000000000e+00 0.0000000000000000e+00 0.0000000000000000e+00  0.0000000000000000e+00 0.0000000000000000e+00 0.0000000000000000e+00  0.0000000000000000e+00 0.0000000000000000e+00 0.0000000000000000e+00  0.0000000000000000e+00 0.0000000000000000e+00 0.0000000000000000e+00  0.0000000000000000e+00 0.0000000000000000e+00 0.0000000000000000e+00  0.0000000000000000e+00 0.0000000000000000e+00 0.0000000000000000e+00  0.0000000000000000e+00 0.0000000000000000e+00 0.0000000000000000e+00  0.0000000000000000e+00 0.0000000000000000e+00 0.0000000000000000e+00  0.0000000000000000e+00 0.0000000000000000e+00 0.0000000000000000e+00  0.0000000000000000e+00 0.0000000000000000e+00 0.0000000000000000e+00  0.0000000000000000e+00 0.0000000000000000e+00 0.0000000000000000e+00  0.0000000000000000e+00 0.0000000000000000e+00 0.0000000000000000e+00  0.0000000000000000e+00 0.0000000000000000e+00 0.0000000000000000e+00  0.0000000000000000e+00 0.0000000000000000e+00 0.0000000000000000e+00  0.0000000000000000e+00 0.0000000000000000e+00 0.0000000000000000e+00  0.0000000000000000e+00 0.0000000000000000e+00 0.0000000000000000e+00  0.0000000000000000e+00 0.0000000000000000e+00 0.0000000000000000e+00  0.0000000000000000e+00 0.0000000000000000e+00 0.0000000000000000e+00  0.0000000000000000e+00 0.0000000000000000e+00 0.0000000000000000e+00  0.0000000000000000e+00 0.0000000000000000e+00 0.0000000000000000e+00  0.0000000000000000e+00 0.0000000000000000e+00 0.0000000000000000e+00  0.0000000000000000e+00 0.0000000000000000e+00 0.0000000000000000e+00  0.0000000000000000e+00 0.0000000000000000e+00 0.0000000000000000e+00  0.0000000000000000e+00 0.0000000000000000e+00 0.0000000000000000e+00  0.0000000000000000e+00 0.0000000000000000e+00 0.0000000000000000e+00  0.0000000000000000e+00 0.0000000000000000e+00 0.0000000000000000e+00  0.0000000000000000e+00 0.0000000000000000e+00 0.0000000000000000e+00  0.0000000000000000e+00 0.0000000000000000e+00 0.0000000000000000e+00  0.0000000000000000e+00 0.0000000000000000e+00 0.0000000000000000e+00  0.0000000000000000e+00 0.0000000000000000e+00 0.0000000000000000e+00  0.0000000000000000e+00 0.0000000000000000e+00 0.0000000000000000e+00  0.0000000000000000e+00 0.0000000000000000e+00 0.0000000000000000e+00  0.0000000000000000e+00 0.0000000000000000e+00 0.0000000000000000e+00  0.0000000000000000e+00 0.0000000000000000e+00 0.0000000000000000e+00  0.0000000000000000e+00 0.0000000000000000e+00 0.0000000000000000e+00  0.0000000000000000e+00 0.0000000000000000e+00 0.0000000000000000e+00  0.0000000000000000e+00 0.0000000000000000e+00 0.0000000000000000e+00  0.0000000000000000e+00 0.0000000000000000e+00 0.0000000000000000e+00  0.0000000000000000e+00 0.0000000000000000e+00 0.0000000000000000e+00  0.0000000000000000e+00 0.0000000000000000e+00 0.0000000000000000e+00  0.0000000000000000e+00 0.0000000000000000e+00 0.0000000000000000e+00  0.0000000000000000e+00 0.0000000000000000e+00 0.0000000000000000e+00  0.0000000000000000e+00 0.0000000000000000e+00 0.0000000000000000e+00  0.0000000000000000e+00 0.0000000000000000e+00 0.0000000000000000e+00  0.0000000000000000e+00 0.0000000000000000e+00 0.0000000000000000e+00  0.0000000000000000e+00 0.0000000000000000e+00 0.0000000000000000e+00  0.0000000000000000e+00 0.0000000000000000e+00 0.0000000000000000e+00  0.0000000000000000e+00 0.0000000000000000e+00 0.0000000000000000e+00  0.0000000000000000e+00 0.0000000000000000e+00 0.0000000000000000e+00  0.0000000000000000e+00 0.0000000000000000e+00 0.0000000000000000e+00  0.0000000000000000e+00 0.0000000000000000e+00 0.0000000000000000e+00  0.0000000000000000e+00 0.0000000000000000e+00 0.0000000000000000e+00  0.0000000000000000e+00 0.0000000000000000e+00 0.0000000000000000e+00  0.0000000000000000e+00 0.0000000000000000e+00 0.0000000000000000e+00  0.0000000000000000e+00 0.0000000000000000e+00 0.0000000000000000e+00  0.0000000000000000e+00 0.0000000000000000e+00 0.0000000000000000e+00  0.0000000000000000e+00 0.0000000000000000e+00 0.0000000000000000e+00  0.0000000000000000e+00 0.0000000000000000e+00 0.0000000000000000e+00  0.0000000000000000e+00 0.0000000000000000e+00 0.0000000000000000e+00  0.0000000000000000e+00 0.0000000000000000e+00 0.0000000000000000e+00  0.0000000000000000e+00 0.0000000000000000e+00 0.0000000000000000e+00  0.0000000000000000e+00 0.0000000000000000e+00 0.0000000000000000e+00  0.0000000000000000e+00 0.0000000000000000e+00 0.0000000000000000e+00  0.0000000000000000e+00 0.0000000000000000e+00 0.0000000000000000e+00  0.0000000000000000e+00 0.0000000000000000e+00 0.0000000000000000e+00  0.0000000000000000e+00 0.0000000000000000e+00 0.0000000000000000e+00  0.0000000000000000e+00 0.0000000000000000e+00 0.0000000000000000e+00  0.0000000000000000e+00 0.0000000000000000e+00 0.0000000000000000e+00  0.0000000000000000e+00 0.0000000000000000e+00 0.0000000000000000e+00  0.0000000000000000e+00 0.0000000000000000e+00 0.0000000000000000e+00  0.0000000000000000e+00 0.0000000000000000e+00 0.0000000000000000e+00  0.0000000000000000e+00 0.0000000000000000e+00 0.0000000000000000e+00  0.0000000000000000e+00 0.0000000000000000e+00 0.0000000000000000e+00  0.0000000000000000e+00 0.0000000000000000e+00 0.0000000000000000e+00  0.0000000000000000e+00 0.0000000000000000e+00 0.0000000000000000e+00  1.8420347832126257e+01 0.0000000000000000e+00 0.0000000000000000e+00  1.8474563442896866e+01 -5.6115178845602548e-02 0.0000000000000000e+00  1.8463919110780871e+01 -1.6568861686568209e-02 0.0000000000000000e+00  1.8465567880537694e+01 -5.0617169508317510e-03 0.0000000000000000e+00  1.8463845991349700e+01 -2.6097736873587287e-03 0.0000000000000000e+00  1.8457532918601867e+01 -1.3867113308711116e-03 0.0000000000000000e+00  1.8457995440756399e+01 -3.7957543279072059e-03 0.0000000000000000e+00  1.8457482914563336e+01 -3.8372027207844170e-03 0.0000000000000000e+00  1.8459569361088885e+01 -4.6046366192101767e-03 0.0000000000000000e+00  1.8460341179520785e+01 -3.8534516933455653e-03 0.0000000000000000e+00  1.8460442923216284e+01 -3.6102655226220425e-03 0.0000000000000000e+00  1.8459018405746779e+01 -3.0829471748771977e-03 0.0000000000000000e+00  1.8456859824663596e+01 -2.9541322322156442e-03 0.0000000000000000e+00  1.8454038586510716e+01 -2.8170361923510212e-03 0.0000000000000000e+00  1.8451077662601215e+01 -2.8617264683106318e-03 0.0000000000000000e+00  1.8448075460127921e+01 -2.9046526562797404e-03 0.0000000000000000e+00  1.8445228029486724e+01 -3.0008881408385897e-03 0.0000000000000000e+00  1.8442563524705893e+01 -3.0881440311859927e-03 0.0000000000000000e+00  1.8440117234040617e+01 -3.1800278403180068e-03 0.0000000000000000e+00  1.8437889034166325e+01 -3.2655925287544581e-03 0.0000000000000000e+00  1.8435865698918061e+01 -3.3439513640194977e-03 0.0000000000000000e+00  1.8434041900881819e+01 -3.4188553266708880e-03 0.0000000000000000e+00  1.8432395550122347e+01 -3.4848009379820494e-03 0.0000000000000000e+00  1.8430918538190472e+01 -3.5477608207611813e-03 0.0000000000000000e+00  1.8429590384153791e+01 -3.6033155663930394e-03 0.0000000000000000e+00  1.8428403651542411e+01 -3.6571414619202929e-03 0.0000000000000000e+00  1.8427345483986052e+01 -3.7070530251778282e-03 0.0000000000000000e+00  1.8426413459394560e+01 -3.7572322402373527e-03 0.0000000000000000e+00  1.8425603361924210e+01 -3.8064994137286521e-03 0.0000000000000000e+00  1.8424917276500295e+01 -3.8571326028908953e-03 0.0000000000000000e+00  1.8424356009218581e+01 -3.9081858775060581e-03 0.0000000000000000e+00  1.8423923047966976e+01 -3.9605935786039791e-03 0.0000000000000000e+00  1.8423620493312928e+01 -4.0136093454180479e-03 0.0000000000000000e+00  1.8423451197663489e+01 -4.0675513102266933e-03 0.0000000000000000e+00  1.8423416884694390e+01 -4.1219437804086070e-03 0.0000000000000000e+00  1.8423519376975598e+01 -4.1768990581539083e-03 0.0000000000000000e+00  1.8423759798124479e+01 -4.2321625598789065e-03 0.0000000000000000e+00  1.8424139242217894e+01 -4.2877810912962189e-03 0.0000000000000000e+00  1.8424658431692329e+01 -4.3436269406168107e-03 0.0000000000000000e+00  1.8425318050750647e+01 -4.3997167646885587e-03 0.0000000000000000e+00  1.8426118590448684e+01 -4.4559833292708365e-03 0.0000000000000000e+00  1.8427060505464738e+01 -4.5124271054157363e-03 0.0000000000000000e+00  1.8428144144140269e+01 -4.5690100364566303e-03 0.0000000000000000e+00  1.8429369822919703e+01 -4.6257267923485671e-03 0.0000000000000000e+00  1.8430737797983589e+01 -4.6825559294916448e-03 0.0000000000000000e+00  1.8432248302724492e+01 -4.7394925985922518e-03 0.0000000000000000e+00  1.8433901538666177e+01 -4.7965260251881239e-03 0.0000000000000000e+00  1.8435697695383290e+01 -4.8536540438223752e-03 0.0000000000000000e+00  1.8437636948933399e+01 -4.9108726240823623e-03 0.0000000000000000e+00  1.8439719472519485e+01 -4.9681821420589495e-03 0.0000000000000000e+00  1.8441945437044517e+01 -5.0255824962814315e-03 0.0000000000000000e+00  1.8444315016629488e+01 -5.0830757253428520e-03 0.0000000000000000e+00  1.8446828389292840e+01 -5.1406637371680698e-03 0.0000000000000000e+00  1.8449485739549363e+01 -5.1983493782617827e-03 0.0000000000000000e+00  1.8452287258709337e+01 -5.2561353490156388e-03 0.0000000000000000e+00  1.8455233145764556e+01 -5.3140245890302184e-03 0.0000000000000000e+00  1.8458323607104713e+01 -5.3720196936961834e-03 0.0000000000000000e+00  1.8461558856160931e+01 -5.4301229167022071e-03 0.0000000000000000e+00  1.8464939112141501e+01 -5.4883356825554726e-03 0.0000000000000000e+00  1.8468464598088655e+01 -5.5466582299577927e-03 0.0000000000000000e+00  1.8472135537608736e+01 -5.6050888929729571e-03 0.0000000000000000e+00  1.8475952149865062e+01 -5.6636231713905515e-03 0.0000000000000000e+00  1.8479914641892645e+01 -5.7222523315815102e-03 0.0000000000000000e+00  1.8484023197066257e+01 -5.7809614035124130e-03 0.0000000000000000e+00  1.8488277957806513e+01 -5.8397266325317049e-03 0.0000000000000000e+00  1.8492679000726966e+01 -5.8985113658574168e-03 0.0000000000000000e+00  1.8497226299210691e+01 -5.9572629031022497e-03 0.0000000000000000e+00  1.8501919675933646e+01 -6.0159037921780380e-03 0.0000000000000000e+00  1.8506758722468433e+01 -6.0743378782204425e-03 0.0000000000000000e+00  1.8511742744635200e+01 -6.1324283903538999e-03 0.0000000000000000e+00  1.8516870560661687e+01 -6.1900750107493603e-03 0.0000000000000000e+00  1.8522140689998388e+01 -6.2471777283705093e-03 0.0000000000000000e+00  1.8527550690617034e+01 -6.3040201927182741e-03 0.0000000000000000e+00  1.8533099543078606e+01 -6.3620022452779658e-03 0.0000000000000000e+00  1.8538789461327681e+01 -6.4239993617911740e-03 0.0000000000000000e+00  1.8544636752454913e+01 -6.5018131385814843e-03 0.0000000000000000e+00  1.8550714185379810e+01 -6.6005745711096376e-03 0.0000000000000000e+00  1.8557333615061463e+01 -6.6934271330941642e-03 0.0000000000000000e+00  1.8565459869310441e+01 -6.5638872218990929e-03 0.0000000000000000e+00  1.8583424005066082e+01 -2.8770375550941293e-03 0.0000000000000000e+00  1.8622089443880199e+01 0.0000000000000000e+00 0.0000000000000000e+00  3.0576758488635711e+01 0.0000000000000000e+00 0.0000000000000000e+00  3.0598582952287842e+01 3.7697213010062292e-02 0.0000000000000000e+00  3.0571802490419941e+01 2.2553099751646153e-03 0.0000000000000000e+00  3.0572615325358782e+01 8.9268858832448148e-03 0.0000000000000000e+00  3.0568724419381706e+01 8.7777330679248266e-03 0.0000000000000000e+00  3.0568064216751253e+01 6.4265625915429234e-03 0.0000000000000000e+00  3.0563453029091097e+01 4.2157743860243750e-03 0.0000000000000000e+00  3.0562850175933320e+01 1.2813566815929594e-03 0.0000000000000000e+00  3.0560998714575792e+01 1.7061901926732068e-03 0.0000000000000000e+00  3.0560546571157008e+01 2.1461080380525167e-03 0.0000000000000000e+00  3.0558335872605358e+01 3.8786268817459267e-03 0.0000000000000000e+00  3.0555673465603462e+01 4.8898599012801008e-03 0.0000000000000000e+00  3.0551476683123891e+01 5.8965128889871743e-03 0.0000000000000000e+00  3.0546787962279343e+01 6.2597074761405079e-03 0.0000000000000000e+00  3.0541344712019079e+01 6.4682430317348667e-03 0.0000000000000000e+00  3.0535808381040237e+01 6.3705913170520158e-03 0.0000000000000000e+00  3.0530116425287535e+01 6.2093798636598521e-03 0.0000000000000000e+00  3.0524588452309835e+01 5.9526291167837468e-03 0.0000000000000000e+00  3.0519201198720488e+01 5.6886730531419648e-03 0.0000000000000000e+00  3.0514077042956792e+01 5.4108015344390969e-03 0.0000000000000000e+00  3.0509205744357391e+01 5.1402587350932692e-03 0.0000000000000000e+00  3.0504621017092145e+01 4.8802159027711263e-03 0.0000000000000000e+00  3.0500314158916069e+01 4.6325789234758800e-03 0.0000000000000000e+00  3.0496279884735404e+01 4.4031274629973798e-03 0.0000000000000000e+00  3.0492505103066559e+01 4.1870847665560328e-03 0.0000000000000000e+00  3.0488972311152530e+01 3.9862450340695027e-03 0.0000000000000000e+00  3.0485670588165004e+01 3.7929571717798872e-03 0.0000000000000000e+00  3.0482587505011988e+01 3.6061033578394263e-03 0.0000000000000000e+00  3.0479720331407769e+01 3.4194817008736888e-03 0.0000000000000000e+00  3.0477066161146769e+01 3.2323954173059740e-03 0.0000000000000000e+00  3.0474628713898628e+01 3.0418559719198645e-03 0.0000000000000000e+00  3.0472410624832296e+01 2.8484156530140538e-03 0.0000000000000000e+00  3.0470417305489022e+01 2.6513337632282788e-03 0.0000000000000000e+00  3.0468652360036877e+01 2.4516203761850513e-03 0.0000000000000000e+00  3.0467120001855172e+01 2.2493722293069197e-03 0.0000000000000000e+00  3.0465822815725726e+01 2.0454014079165543e-03 0.0000000000000000e+00  3.0464763308268079e+01 1.8399142843993736e-03 0.0000000000000000e+00  3.0463942931368535e+01 1.6333929288811966e-03 0.0000000000000000e+00  3.0463362999895693e+01 1.4259760669255389e-03 0.0000000000000000e+00  3.0463024269382476e+01 1.2179185794515806e-03 0.0000000000000000e+00  3.0462927423250676e+01 1.0093027865836963e-03 0.0000000000000000e+00  3.0463072878097787e+01 8.0026435105900995e-04 0.0000000000000000e+00  3.0463461021041802e+01 5.9085554312849286e-04 0.0000000000000000e+00  3.0464092115492104e+01 3.8115132430141307e-04 0.0000000000000000e+00  3.0464966412107845e+01 1.7118472380124510e-04 0.0000000000000000e+00  3.0466084104145715e+01 -3.9004119916343444e-05 0.0000000000000000e+00  3.0467445379578145e+01 -2.4939754486912432e-04 0.0000000000000000e+00  3.0469050401562832e+01 -4.5997739248850126e-04 0.0000000000000000e+00  3.0470899333669003e+01 -6.7073788217581463e-04 0.0000000000000000e+00  3.0472992332225513e+01 -8.8167459583967538e-04 0.0000000000000000e+00  3.0475329558841100e+01 -1.0927897637363054e-03 0.0000000000000000e+00  3.0477911177726259e+01 -1.3040868931605703e-03 0.0000000000000000e+00  3.0480737361874922e+01 -1.5155727989818609e-03 0.0000000000000000e+00  3.0483808292186978e+01 -1.7272549755096768e-03 0.0000000000000000e+00  3.0487124160333099e+01 -1.9391422585509567e-03 0.0000000000000000e+00  3.0490685168313075e+01 -2.1512434551990418e-03 0.0000000000000000e+00  3.0494491529483088e+01 -2.3635673682536593e-03 0.0000000000000000e+00  3.0498543467908817e+01 -2.5761218322473216e-03 0.0000000000000000e+00  3.0502841218067367e+01 -2.7889131968765399e-03 0.0000000000000000e+00  3.0507385023386828e+01 -3.0019450952050342e-03 0.0000000000000000e+00  3.0512175134331006e+01 -3.2152170877752196e-03 0.0000000000000000e+00  3.0517211804989653e+01 -3.4287223221299793e-03 0.0000000000000000e+00  3.0522495288122581e+01 -3.6424444779358267e-03 0.0000000000000000e+00  3.0528025827483720e+01 -3.8563528781642565e-03 0.0000000000000000e+00  3.0533803646415571e+01 -4.0703964819528669e-03 0.0000000000000000e+00  3.0539828931578548e+01 -4.2844935664375569e-03 0.0000000000000000e+00  3.0546101807573411e+01 -4.4985222825153857e-03 0.0000000000000000e+00  3.0552622306586361e+01 -4.7123001118409115e-03 0.0000000000000000e+00  3.0559390312300916e+01 -4.9255762839971453e-03 0.0000000000000000e+00  3.0566405516056001e+01 -5.1380061627698398e-03 0.0000000000000000e+00  3.0573667303335270e+01 -5.3491546765037671e-03 0.0000000000000000e+00  3.0581174709409197e+01 -5.5586055672422821e-03 0.0000000000000000e+00  3.0588926294893614e+01 -5.7658718514259286e-03 0.0000000000000000e+00  3.0596920405642759e+01 -5.9718918303623284e-03 0.0000000000000000e+00  3.0605154336818622e+01 -6.1786366642175216e-03 0.0000000000000000e+00  3.0613633347383271e+01 -6.3988805854184984e-03 0.0000000000000000e+00  3.0622367725225921e+01 -6.6305054829348250e-03 0.0000000000000000e+00  3.0631415541561921e+01 -6.8904545429383998e-03 0.0000000000000000e+00  3.0640941694341016e+01 -7.1940568810256230e-03 0.0000000000000000e+00  3.0649985435336035e+01 -7.9707301587024146e-03 0.0000000000000000e+00  3.0650978746889365e+01 0.0000000000000000e+00 0.0000000000000000e+00  3.4819742036409984e+01 0.0000000000000000e+00 0.0000000000000000e+00  3.4787952162286210e+01 -2.0984235905338780e-02 0.0000000000000000e+00  3.4794758276311448e+01 1.6141707712560671e-03 0.0000000000000000e+00  3.4791996363055958e+01 -1.3717715826433918e-03 0.0000000000000000e+00  3.4803472224980780e+01 5.3095571429341562e-03 0.0000000000000000e+00  3.4801369648421854e+01 7.7174568263185493e-03 0.0000000000000000e+00  3.4801639616768114e+01 5.7778610730555655e-03 0.0000000000000000e+00  3.4793388600947615e+01 4.8856401008469628e-03 0.0000000000000000e+00  3.4787259378299851e+01 3.9581490372224250e-03 0.0000000000000000e+00  3.4778415432706254e+01 5.3194415573856162e-03 0.0000000000000000e+00  3.4771546260720129e+01 6.6182114209769509e-03 0.0000000000000000e+00  3.4763819240170037e+01 8.3090211096289272e-03 0.0000000000000000e+00  3.4757205147419590e+01 9.3270402595270786e-03 0.0000000000000000e+00  3.4750206776578636e+01 1.0069596551845764e-02 0.0000000000000000e+00  3.4743694277251777e+01 1.0306957056777269e-02 0.0000000000000000e+00  3.4736967733435101e+01 1.0323852392672077e-02 0.0000000000000000e+00  3.4730453314007057e+01 1.0106215104177694e-02 0.0000000000000000e+00  3.4723882361724002e+01 9.7934789425668835e-03 0.0000000000000000e+00  3.4717480803792220e+01 9.3980873897615922e-03 0.0000000000000000e+00  3.4711177245379176e+01 8.9706389259930856e-03 0.0000000000000000e+00  3.4705088118055642e+01 8.5219328051330343e-03 0.0000000000000000e+00  3.4699207101631373e+01 8.0707715171296525e-03 0.0000000000000000e+00  3.4693579926287448e+01 7.6296288904727904e-03 0.0000000000000000e+00  3.4688205679399665e+01 7.2058004716193088e-03 0.0000000000000000e+00  3.4683089422733545e+01 6.8052233523526106e-03 0.0000000000000000e+00  3.4678226023608971e+01 6.4242812282901910e-03 0.0000000000000000e+00  3.4673608652292366e+01 6.0599551099250592e-03 0.0000000000000000e+00  3.4669235554857401e+01 5.7036892453128712e-03 0.0000000000000000e+00  3.4665103790551875e+01 5.3504941143285856e-03 0.0000000000000000e+00  3.4661217532477416e+01 4.9942804179567311e-03 0.0000000000000000e+00  3.4657579219399615e+01 4.6330016901983614e-03 0.0000000000000000e+00  3.4654195357074741e+01 4.2648004945650426e-03 0.0000000000000000e+00  3.4651069864881435e+01 3.8902981720629480e-03 0.0000000000000000e+00  3.4648207950455493e+01 3.5099540775061387e-03 0.0000000000000000e+00  3.4645612331098420e+01 3.1251568006867045e-03 0.0000000000000000e+00  3.4643285834318768e+01 2.7368065844003758e-03 0.0000000000000000e+00  3.4641229577450652e+01 2.3459766763054570e-03 0.0000000000000000e+00  3.4639444602925337e+01 1.9532873111399534e-03 0.0000000000000000e+00  3.4637931052385959e+01 1.5593302566209073e-03 0.0000000000000000e+00  3.4636689088016119e+01 1.1644177