<?xml version="1.0"?>
<VTKFile type="UnstructuredGrid"  version="0.1"  >
<UnstructuredGrid>
<Piece  NumberOfPoints="1369" NumberOfCells="2560">
<Points>
<DataArray  type="Float64"  NumberOfComponents="3"  format="ascii">0 0 0  0.75 0 0  1.5 0 0  2.25 0 0  3 0 0  3.75 0 0  4.5 0 0  5.25 0 0  6 0 0  6.75 0 0  7.5 0 0  8.25 0 0  9 0 0  9.75 0 0  10.5 0 0  11.25 0 0  12 0 0  12.75 0 0  13.5 0 0  14.25 0 0  15 0 0  15.75 0 0  16.5 0 0  17.25 0 0  18 0 0  18.75 0 0  19.5 0 0  20.25 0 0  21 0 0  21.75 0 0  22.5 0 0  23.25 0 0  24 0 0  24.75 0 0  25.5 0 0  26.25 0 0  27 0 0  27.75 0 0  28.5 0 0  29.25 0 0  30 0 0  30.75 0 0  31.5 0 0  32.25 0 0  33 0 0  33.75 0 0  34.5 0 0  35.25 0 0  36 0 0  36.75 0 0  37.5 0 0  38.25 0 0  39 0 0  39.75 0 0  40.5 0 0  41.25 0 0  42 0 0  42.75 0 0  43.5 0 0  44.25 0 0  45 0 0  45.75 0 0  46.5 0 0  47.25 0 0  48 0 0  48.75 0 0  49.5 0 0  50.25 0 0  51 0 0  51.75 0 0  52.5 0 0  53.25 0 0  54 0 0  54.75 0 0  55.5 0 0  56.25 0 0  57 0 0  57.75 0 0  58.5 0 0  59.25 0 0  60 0 0  0 0.5 0  0.75 0.5000330565512413 0  1.5 0.5000658649345386 0  2.25 0.5000982124314761 0  3 0.500129940284273 0  3.75 0.5001609424703685 0  4.5 0.5001911535762501 0  5.25 0.5002205352193909 0  6 0.5002490655202072 0  6.75 0.500276732201007 0  7.5 0.500303528429448 0  8.25 0.5003294504201417 0  9 0.5003544960806898 0  9.75 0.5003786642559183 0  10.5 0.5004019543084867 0  11.25 0.5004243658868766 0  12 0.5004458987972468 0  12.75 0.5004665529327152 0  13.5 0.5004863282343512 0  14.25 0.5005052246696637 0  15 0.5005232422207391 0  15.75 0.5005403808777007 0  16.5 0.5005566406351035 0  17.25 0.5005720214899454 0  18 0.5005865234405711 0  18.75 0.5006001464860682 0  19.5 0.5006128906259335 0  20.25 0.5006247558598896 0  21 0.5006357421877837 0  21.75 0.5006458496095314 0  22.5 0.5006550781250863 0  23.25 0.5006634277344225 0  24 0.5006708984375262 0  24.75 0.5006774902343895 0  25.5 0.500683203125008 0  26.25 0.5006880371093794 0  27 0.5006919921875025 0  27.75 0.5006950683593764 0  28.5 0.5006972656250008 0  29.25 0.5006985839843755 0  30 0.5006990234375005 0  30.75 0.5006985839843755 0  31.5 0.5006972656250008 0  32.25 0.5006950683593764 0  33 0.5006919921875025 0  33.75 0.5006880371093794 0  34.5 0.500683203125008 0  35.25 0.5006774902343895 0  36 0.5006708984375262 0  36.75 0.5006634277344225 0  37.5 0.5006550781250863 0  38.25 0.5006458496095314 0  39 0.5006357421877837 0  39.75 0.5006247558598896 0  40.5 0.5006128906259335 0  41.25 0.5006001464860682 0  42 0.5005865234405711 0  42.75 0.5005720214899454 0  43.5 0.5005566406351035 0  44.25 0.5005403808777007 0  45 0.5005232422207391 0  45.75 0.5005052246696637 0  46.5 0.5004863282343512 0  47.25 0.5004665529327152 0  48 0.5004458987972468 0  48.75 0.5004243658868766 0  49.5 0.5004019543084867 0  50.25 0.5003786642559183 0  51 0.5003544960806898 0  51.75 0.5003294504201417 0  52.5 0.500303528429448 0  53.25 0.500276732201007 0  54 0.5002490655202072 0  54.75 0.5002205352193909 0  55.5 0.5001911535762501 0  56.25 0.5001609424703685 0  57 0.500129940284273 0  57.75 0.5000982124314761 0  58.5 0.5000658649345386 0  59.25 0.5000330565512413 0  60 0.5 0  0 1 0  0.75 1.000066226537548 0  1.5 1.000131939358401 0  2.25 1.000196704647474 0  3 1.000260206350339 0  3.75 1.000322238646366 0  4.5 1.000382677071313 0  5.25 1.0004414495441 0  6 1.00049851528389 0  6.75 1.000553851499824 0  7.5 1.000607445536668 0  8.25 1.000659290390966 0  9 1.000709382193857 0  9.75 1.000757718810097 0  10.5 1.000804299061813 0  11.25 1.00084912229942 0  12 1.000892188164727 0  12.75 1.000933496460235 0  13.5 1.000973047077055 0  14.25 1.001010839955149 0  15 1.001046875061418 0  15.75 1.001081152377612 0  16.5 1.001113671893669 0  17.25 1.001144433604043 0  18 1.001173437505675 0  18.75 1.001200683596879 0  19.5 1.001226171876725 0  20.25 1.001249902344701 0  21 1.001271875000524 0  21.75 1.001292089844039 0  22.5 1.001310546875159 0  23.25 1.001327246093838 0  24 1.001342187500049 0  24.75 1.001355371093777 0  25.5 1.001366796875015 0  26.25 1.001376464843758 0  27 1.001384375000004 0  27.75 1.001390527343752 0  28.5 1.001394921875002 0  29.25 1.001397558593751 0  30 1.001398437500001 0  30.75 1.001397558593751 0  31.5 1.001394921875002 0  32.25 1.001390527343752 0  33 1.001384375000004 0  33.75 1.001376464843758 0  34.5 1.001366796875015 0  35.25 1.001355371093777 0  36 1.001342187500049 0  36.75 1.001327246093838 0  37.5 1.001310546875159 0  38.25 1.001292089844039 0  39 1.001271875000524 0  39.75 1.001249902344701 0  40.5 1.001226171876725 0  41.25 1.001200683596879 0  42 1.001173437505675 0  42.75 1.001144433604043 0  43.5 1.001113671893669 0  44.25 1.001081152377612 0  45 1.001046875061418 0  45.75 1.001010839955149 0  46.5 1.000973047077055 0  47.25 1.000933496460235 0  48 1.000892188164727 0  48.75 1.00084912229942 0  49.5 1.000804299061813 0  50.25 1.000757718810097 0  51 1.000709382193857 0  51.75 1.000659290390966 0  52.5 1.000607445536668 0  53.25 1.000553851499824 0  54 1.00049851528389 0  54.75 1.0004414495441 0  55.5 1.000382677071313 0  56.25 1.000322238646366 0  57 1.000260206350339 0  57.75 1.000196704647474 0  58.5 1.000131939358401 0  59.25 1.000066226537548 0  60 1 0  0 1.5 0  0.75 1.500099631999275 0  1.5 1.500198445094947 0  2.25 1.500295767590629 0  3 1.500391131973672 0  3.75 1.500484247278635 0  4.5 1.500574943384967 0  5.25 1.500663123782839 0  6 1.500748734491331 0  6.75 1.500831745526954 0  7.5 1.500912140294631 0  8.25 1.500989909626347 0  9 1.50106504846208 0  9.75 1.50113755401051 0  10.5 1.501207424732239 0  11.25 1.501274659778418 0  12 1.50133925868101 0  12.75 1.501401221181962 0  13.5 1.501460547138998 0  14.25 1.501517236473675 0  15 1.501571289142746 0  15.75 1.501622705122367 0  16.5 1.501671484399392 0  17.25 1.501717626966573 0  18 1.501761132819914 0  18.75 1.501802001957213 0  19.5 1.501840234377254 0  20.25 1.501875830079368 0  21 1.501908789063185 0  21.75 1.501939111328503 0  22.5 1.501966796875208 0  23.25 1.50199184570324 0  24 1.502014257812563 0  24.75 1.50203403320316 0  25.5 1.502051171875019 0  26.25 1.502065673828136 0  27 1.502077539062506 0  27.75 1.502086767578128 0  28.5 1.502093359375002 0  29.25 1.502097314453126 0  30 1.502098632812501 0  30.75 1.502097314453126 0  31.5 1.502093359375002 0  32.25 1.502086767578128 0  33 1.502077539062506 0  33.75 1.502065673828136 0  34.5 1.502051171875019 0  35.25 1.50203403320316 0  36 1.502014257812563 0  36.75 1.50199184570324 0  37.5 1.501966796875208 0  38.25 1.501939111328503 0  39 1.501908789063185 0  39.75 1.501875830079368 0  40.5 1.501840234377254 0  41.25 1.501802001957213 0  42 1.501761132819914 0  42.75 1.501717626966573 0  43.5 1.501671484399392 0  44.25 1.501622705122367 0  45 1.501571289142746 0  45.75 1.501517236473675 0  46.5 1.501460547138998 0  47.25 1.501401221181962 0  48 1.50133925868101 0  48.75 1.501274659778418 0  49.5 1.501207424732239 0  50.25 1.50113755401051 0  51 1.50106504846208 0  51.75 1.500989909626347 0  52.5 1.500912140294631 0  53.25 1.500831745526954 0  54 1.500748734491331 0  54.75 1.500663123782839 0  55.5 1.500574943384967 0  56.25 1.500484247278635 0  57 1.500391131973672 0  57.75 1.500295767590629 0  58.5 1.500198445094947 0  59.25 1.500099631999275 0  60 1.5 0  0 2 0  0.75 2.000133414892555 0  1.5 2.00026563106717 0  2.25 2.000395715283656 0  3 2.000523066677508 0  3.75 2.000647336760683 0  4.5 2.000768331023214 0  5.25 2.00088594192099 0  6 2.001000110119349 0  6.75 2.001110802899692 0  7.5 2.001218002222495 0  8.25 2.001321698141912 0  9 2.001421885174483 0  9.75 2.001518560297004 0  10.5 2.001611721842691 0  11.25 2.001701368892596 0  12 2.001787500940071 0  12.75 2.00187011770579 0  13.5 2.001949219035749 0  14.25 2.002024804845042 0  15 2.002096875086858 0  15.75 2.002165429735387 0  16.5 2.002230468776402 0  17.25 2.002291992202056 0  18 2.002350000008025 0  18.75 2.002404492191924 0  19.5 2.002455468752439 0  20.25 2.002502929688845 0  21 2.002546875000741 0  21.75 2.002587304687909 0  22.5 2.002624218750225 0  23.25 2.002657617187624 0  24 2.002687500000068 0  24.75 2.002713867187538 0  25.5 2.002736718750021 0  26.25 2.002756054687512 0  27 2.002771875000006 0  27.75 2.002784179687504 0  28.5 2.002792968750002 0  29.25 2.002798242187501 0  30 2.002800000000001 0  30.75 2.002798242187501 0  31.5 2.002792968750002 0  32.25 2.002784179687504 0  33 2.002771875000006 0  33.75 2.002756054687512 0  34.5 2.002736718750021 0  35.25 2.002713867187538 0  36 2.002687500000068 0  36.75 2.002657617187624 0  37.5 2.002624218750225 0  38.25 2.002587304687909 0  39 2.002546875000741 0  39.75 2.002502929688845 0  40.5 2.002455468752439 0  41.25 2.002404492191924 0  42 2.002350000008025 0  42.75 2.002291992202056 0  43.5 2.002230468776402 0  44.25 2.002165429735387 0  45 2.002096875086858 0  45.75 2.002024804845042 0  46.5 2.001949219035749 0  47.25 2.00187011770579 0  48 2.001787500940071 0  48.75 2.001701368892596 0  49.5 2.001611721842691 0  50.25 2.001518560297004 0  51 2.001421885174483 0  51.75 2.001321698141912 0  52.5 2.001218002222495 0  53.25 2.001110802899692 0  54 2.001000110119349 0  54.75 2.00088594192099 0  55.5 2.000768331023214 0  56.25 2.000647336760683 0  57 2.000523066677508 0  57.75 2.000395715283656 0  58.5 2.00026563106717 0  59.25 2.000133414892555 0  60 2 0  0 2.5 0  0.75 2.500167755719464 0  1.5 2.500333793503022 0  2.25 2.500496897760992 0  3 2.500656382628957 0  3.75 2.500811888731616 0  4.5 2.500963226011686 0  5.25 2.501110292151933 0  6 2.501253031482749 0  6.75 2.501391413529558 0  7.5 2.501525421554476 0  8.25 2.50165504634796 0  9 2.501780282837913 0  9.75 2.501901128229502 0  10.5 2.50201758098231 0  11.25 2.502129640247188 0  12 2.502237305556016 0  12.75 2.502340576650714 0  13.5 2.502439453388998 0  14.25 2.502533935692425 0  15 2.502624023517746 0  15.75 2.502709716841117 0  16.5 2.502791015649392 0  17.25 2.502867919935323 0  18 2.502940429694914 0  18.75 2.503008544925963 0  19.5 2.503072265627253 0  20.25 2.503131591798117 0  2
[...]
<PointData  Vectors="f_10-0"> 
<DataArray  type="Float64"  Name="f_10-0"  NumberOfComponents="3" format="ascii">0.0000000000000000e+00 0.0000000000000000e+00 0.0000000000000000e+00  0.0000000000000000e+00 0.0000000000000000e+00 0.0000000000000000e+00  0.0000000000000000e+00 0.0000000000000000e+00 0.0000000000000000e+00  0.0000000000000000e+00 0.0000000000000000e+00 0.0000000000000000e+00  0.0000000000000000e+00 0.0000000000000000e+00 0.0000000000000000e+00  0.0000000000000000e+00 0.0000000000000000e+00 0.0000000000000000e+00  0.0000000000000000e+00 0.0000000000000000e+00 0.0000000000000000e+00  0.0000000000000000e+00 0.0000000000000000e+00 0.0000000000000000e+00  0.0000000000000000e+00 0.0000000000000000e+00 0.0000000000000000e+00  0.0000000000000000e+00 0.0000000000000000e+00 0.0000000000000000e+00  0.0000000000000000e+00 0.0000000000000000e+00 0.0000000000000000e+00  0.0000000000000000e+00 0.0000000000000000e+00 0.0000000000000000e+00  0.0000000000000000e+00 0.0000000000000000e+00 0.0000000000000000e+00  0.0000000000000000e+00 0.0000000000000000e+00 0.0000000000000000e+00  0.0000000000000000e+00 0.0000000000000000e+00 0.0000000000000000e+00  0.0000000000000000e+00 0.0000000000000000e+00 0.0000000000000000e+00  0.0000000000000000e+00 0.0000000000000000e+00 0.0000000000000000e+00  0.0000000000000000e+00 0.0000000000000000e+00 0.0000000000000000e+00  0.0000000000000000e+00 0.0000000000000000e+00 0.0000000000000000e+00  0.0000000000000000e+00 0.0000000000000000e+00 0.0000000000000000e+00  0.0000000000000000e+00 0.0000000000000000e+00 0.0000000000000000e+00  0.0000000000000000e+00 0.0000000000000000e+00 0.0000000000000000e+00  0.0000000000000000e+00 0.0000000000000000e+00 0.0000000000000000e+00  0.0000000000000000e+00 0.0000000000000000e+00 0.0000000000000000e+00  0.0000000000000000e+00 0.0000000000000000e+00 0.0000000000000000e+00  0.0000000000000000e+00 0.0000000000000000e+00 0.0000000000000000e+00  0.0000000000000000e+00 0.0000000000000000e+00 0.0000000000000000e+00  0.0000000000000000e+00 0.0000000000000000e+00 0.0000000000000000e+00  0.0000000000000000e+00 0.0000000000000000e+00 0.0000000000000000e+00  0.0000000000000000e+00 0.0000000000000000e+00 0.0000000000000000e+00  0.0000000000000000e+00 0.0000000000000000e+00 0.0000000000000000e+00  0.0000000000000000e+00 0.0000000000000000e+00 0.0000000000000000e+00  0.0000000000000000e+00 0.0000000000000000e+00 0.0000000000000000e+00  0.0000000000000000e+00 0.0000000000000000e+00 0.0000000000000000e+00  0.0000000000000000e+00 0.0000000000000000e+00 0.0000000000000000e+00  0.0000000000000000e+00 0.0000000000000000e+00 0.0000000000000000e+00  0.0000000000000000e+00 0.0000000000000000e+00 0.0000000000000000e+00  0.0000000000000000e+00 0.0000000000000000e+00 0.0000000000000000e+00  0.0000000000000000e+00 0.0000000000000000e+00 0.0000000000000000e+00  0.0000000000000000e+00 0.0000000000000000e+00 0.0000000000000000e+00  0.0000000000000000e+00 0.0000000000000000e+00 0.0000000000000000e+00  0.0000000000000000e+00 0.0000000000000000e+00 0.0000000000000000e+00  0.0000000000000000e+00 0.0000000000000000e+00 0.0000000000000000e+00  0.0000000000000000e+00 0.0000000000000000e+00 0.0000000000000000e+00  0.0000000000000000e+00 0.0000000000000000e+00 0.0000000000000000e+00  0.0000000000000000e+00 0.0000000000000000e+00 0.0000000000000000e+00  0.0000000000000000e+00 0.0000000000000000e+00 0.0000000000000000e+00  0.0000000000000000e+00 0.0000000000000000e+00 0.0000000000000000e+00  0.0000000000000000e+00 0.0000000000000000e+00 0.0000000000000000e+00  0.0000000000000000e+00 0.0000000000000000e+00 0.0000000000000000e+00  0.0000000000000000e+00 0.0000000000000000e+00 0.0000000000000000e+00  0.0000000000000000e+00 0.0000000000000000e+00 0.0000000000000000e+00  0.0000000000000000e+00 0.0000000000000000e+00 0.0000000000000000e+00  0.0000000000000000e+00 0.0000000000000000e+00 0.0000000000000000e+00  0.0000000000000000e+00 0.0000000000000000e+00 0.0000000000000000e+00  0.0000000000000000e+00 0.0000000000000000e+00 0.0000000000000000e+00  0.0000000000000000e+00 0.0000000000000000e+00 0.0000000000000000e+00  0.0000000000000000e+00 0.0000000000000000e+00 0.0000000000000000e+00  0.0000000000000000e+00 0.0000000000000000e+00 0.0000000000000000e+00  0.0000000000000000e+00 0.0000000000000000e+00 0.0000000000000000e+00  0.0000000000000000e+00 0.0000000000000000e+00 0.0000000000000000e+00  0.0000000000000000e+00 0.0000000000000000e+00 0.0000000000000000e+00  0.0000000000000000e+00 0.0000000000000000e+00 0.0000000000000000e+00  0.0000000000000000e+00 0.0000000000000000e+00 0.0000000000000000e+00  0.0000000000000000e+00 0.0000000000000000e+00 0.0000000000000000e+00  0.0000000000000000e+00 0.0000000000000000e+00 0.0000000000000000e+00  0.0000000000000000e+00 0.0000000000000000e+00 0.0000000000000000e+00  0.0000000000000000e+00 0.0000000000000000e+00 0.0000000000000000e+00  0.0000000000000000e+00 0.0000000000000000e+00 0.0000000000000000e+00  0.0000000000000000e+00 0.0000000000000000e+00 0.0000000000000000e+00  0.0000000000000000e+00 0.0000000000000000e+00 0.0000000000000000e+00  0.0000000000000000e+00 0.0000000000000000e+00 0.0000000000000000e+00  0.0000000000000000e+00 0.0000000000000000e+00 0.0000000000000000e+00  0.0000000000000000e+00 0.0000000000000000e+00 0.0000000000000000e+00  0.0000000000000000e+00 0.0000000000000000e+00 0.0000000000000000e+00  0.0000000000000000e+00 0.0000000000000000e+00 0.0000000000000000e+00  0.0000000000000000e+00 0.0000000000000000e+00 0.0000000000000000e+00  0.0000000000000000e+00 0.0000000000000000e+00 0.0000000000000000e+00  0.0000000000000000e+00 0.0000000000000000e+00 0.0000000000000000e+00  0.0000000000000000e+00 0.0000000000000000e+00 0.0000000000000000e+00  0.0000000000000000e+00 0.0000000000000000e+00 0.0000000000000000e+00  3.3883901403688612e+00 0.0000000000000000e+00 0.0000000000000000e+00  3.4199351475321165e+00 4.9237409056324902e-03 0.0000000000000000e+00  3.4194788783944698e+00 -1.8518096435116331e-04 0.0000000000000000e+00  3.4198157860539444e+00 3.5282284665377993e-05 0.0000000000000000e+00  3.4198203954203366e+00 -3.8570836672565829e-05 0.0000000000000000e+00  3.4198802806688375e+00 -3.2412479883353704e-05 0.0000000000000000e+00  3.4199347704651362e+00 -3.3998883798689800e-05 0.0000000000000000e+00  3.4199906208034094e+00 -3.3471298085928633e-05 0.0000000000000000e+00  3.4200455854046137e+00 -3.2827860549973290e-05 0.0000000000000000e+00  3.4200993887050899e+00 -3.1982508139953712e-05 0.0000000000000000e+00  3.4201517523584140e+00 -3.1052178543855902e-05 0.0000000000000000e+00  3.4202025495992938e+00 -3.0073449506803017e-05 0.0000000000000000e+00  3.4202517097594853e+00 -2.9069258829546038e-05 0.0000000000000000e+00  3.4202991952926989e+00 -2.8051181206551940e-05 0.0000000000000000e+00  3.4203449856417851e+00 -2.7025439155574284e-05 0.0000000000000000e+00  3.4203890693449956e+00 -2.5995328381491108e-05 0.0000000000000000e+00  3.4204314397686191e+00 -2.4962610458052851e-05 0.0000000000000000e+00  3.4204720928618499e+00 -2.3928231333733438e-05 0.0000000000000000e+00  3.4205110259667704e+00 -2.2892705250289033e-05 0.0000000000000000e+00  3.4205482371870031e+00 -2.1856317423128457e-05 0.0000000000000000e+00  3.4205837250508435e+00 -2.0819230915538764e-05 0.0000000000000000e+00  3.4206174883370419e+00 -1.9781544748218338e-05 0.0000000000000000e+00  3.4206495259793677e+00 -1.8743323729426641e-05 0.0000000000000000e+00  3.4206798370151934e+00 -1.7704614167974594e-05 0.0000000000000000e+00  3.4207084205628715e+00 -1.6665452495407386e-05 0.0000000000000000e+00  3.4207352758025045e+00 -1.5625871020645537e-05 0.0000000000000000e+00  3.4207604019727875e+00 -1.4585898383249923e-05 0.0000000000000000e+00  3.4207837983651870e+00 -1.3545562269180624e-05 0.0000000000000000e+00  3.4208054643222905e+00 -1.2504888854460168e-05 0.0000000000000000e+00  3.4208253992356310e+00 -1.1463904845100885e-05 0.0000000000000000e+00  3.4208436025469848e+00 -1.0422636324333680e-05 0.0000000000000000e+00  3.4208600737460153e+00 -9.3811093162006606e-06 0.0000000000000000e+00  3.4208748123721326e+00 -8.3393497198981425e-06 0.0000000000000000e+00  3.4208878180123867e+00 -7.2973832620833127e-06 0.0000000000000000e+00  3.4208990903033447e+00 -6.2552358667616005e-06 0.0000000000000000e+00  3.4209086289293245e+00 -5.2129333936714041e-06 0.0000000000000000e+00  3.4209164336233511e+00 -4.1705017132754321e-06 0.0000000000000000e+00  3.4209225041674367e+00 -3.1279667556928265e-06 0.0000000000000000e+00  3.4209268403916431e+00 -2.0853542419631742e-06 0.0000000000000000e+00  3.4209294421747249e+00 -1.0426900702921581e-06 0.0000000000000000e+00  3.4209303094437167e+00 2.7452180803559562e-14 0.0000000000000000e+00  3.4209294421746330e+00 1.0426901163773931e-06 0.0000000000000000e+00  3.4209268403915605e+00 2.0853542555319745e-06 0.0000000000000000e+00  3.4209225041674380e+00 3.1279669539044620e-06 0.0000000000000000e+00  3.4209164336234008e+00 4.1705019407620001e-06 0.0000000000000000e+00  3.4209086289292641e+00 5.2129335828578417e-06 0.0000000000000000e+00  3.4208990903033438e+00 6.2552359561504655e-06 0.0000000000000000e+00  3.4208878180125351e+00 7.2973833867176879e-06 0.0000000000000000e+00  3.4208748123721131e+00 8.3393497297726120e-06 0.0000000000000000e+00  3.4208600737460535e+00 9.3811094190401132e-06 0.0000000000000000e+00  3.4208436025469600e+00 1.0422636517417388e-05 0.0000000000000000e+00  3.4208253992357296e+00 1.1463904982285289e-05 0.0000000000000000e+00  3.4208054643223536e+00 1.2504888899455320e-05 0.0000000000000000e+00  3.4207837983654432e+00 1.3545562193167907e-05 0.0000000000000000e+00  3.4207604019728199e+00 1.4585898437259939e-05 0.0000000000000000e+00  3.4207352758024991e+00 1.5625871191849886e-05 0.0000000000000000e+00  3.4207084205628480e+00 1.6665452745913704e-05 0.0000000000000000e+00  3.4206798370154674e+00 1.7704614050134618e-05 0.0000000000000000e+00  3.4206495259792895e+00 1.8743323803947895e-05 0.0000000000000000e+00  3.4206174883371432e+00 1.9781544981013956e-05 0.0000000000000000e+00  3.4205837250507782e+00 2.0819231023964260e-05 0.0000000000000000e+00  3.4205482371868552e+00 2.1856317503263849e-05 0.0000000000000000e+00  3.4205110259669937e+00 2.2892705430110732e-05 0.0000000000000000e+00  3.4204720928617491e+00 2.3928231484630047e-05 0.0000000000000000e+00  3.4204314397683384e+00 2.4962610461464760e-05 0.0000000000000000e+00  3.4203890693449064e+00 2.5995328550295234e-05 0.0000000000000000e+00  3.4203449856418517e+00 2.7025439255531609e-05 0.0000000000000000e+00  3.4202991952928459e+00 2.8051181423795505e-05 0.0000000000000000e+00  3.4202517097596168e+00 2.9069258800497301e-05 0.0000000000000000e+00  3.4202025495991557e+00 3.0073449843638425e-05 0.0000000000000000e+00  3.4201517523583558e+00 3.1052178651035067e-05 0.0000000000000000e+00  3.4200993887052316e+00 3.1982508229118458e-05 0.0000000000000000e+00  3.4200455854045835e+00 3.2827860631398595e-05 0.0000000000000000e+00  3.4199906208033619e+00 3.3471297938734405e-05 0.0000000000000000e+00  3.4199347704650220e+00 3.3998883881508588e-05 0.0000000000000000e+00  3.4198802806686159e+00 3.2412479999535792e-05 0.0000000000000000e+00  3.4198203954204658e+00 3.8570836705712370e-05 0.0000000000000000e+00  3.4198157860537148e+00 -3.5282284383988376e-05 0.0000000000000000e+00  3.4194788783945951e+00 1.8518096450666834e-04 0.0000000000000000e+00  3.4199351475321857e+00 -4.9237409053607588e-03 0.0000000000000000e+00  3.3883901403705003e+00 0.0000000000000000e+00 0.0000000000000000e+00  3.5851005826238813e+00 0.0000000000000000e+00 0.0000000000000000e+00  3.5797739787090279e+00 -1.9052288276165210e-03 0.0000000000000000e+00  3.5802290750458590e+00 1.1516540590954103e-04 0.0000000000000000e+00  3.5802098461250207e+00 -8.5135783477613343e-05 0.0000000000000000e+00  3.5802846638906720e+00 -6.2603008807901643e-05 0.0000000000000000e+00  3.5803303841561362e+00 -7.0522868275341708e-05 0.0000000000000000e+00  3.5803815100607967e+00 -7.0598081492597315e-05 0.0000000000000000e+00  3.5804318422855772e+00 -7.0033123585681238e-05 0.0000000000000000e+00  3.5804815471744593e+00 -6.8649899603089829e-05 0.0000000000000000e+00  3.5805301176605009e+00 -6.6911266926731339e-05 0.0000000000000000e+00  3.5805773737773841e+00 -6.4974008941214202e-05 0.0000000000000000e+00  3.5806232055669320e+00 -6.2932651164738395e-05 0.0000000000000000e+00  3.5806675562632915e+00 -6.0835192370617445e-05 0.0000000000000000e+00  3.5807103948129013e+00 -5.8707299483123371e-05 0.0000000000000000e+00  3.5807517041726240e+00 -5.6562544979873503e-05 0.0000000000000000e+00  3.5807914746896006e+00 -5.4408152394109530e-05 0.0000000000000000e+00  3.5808297006562588e+00 -5.2247977400246475e-05 0.0000000000000000e+00  3.5808663784811645e+00 -5.0084093112704101e-05 0.0000000000000000e+00  3.5809015057169882e+00 -4.7917627115791407e-05 0.0000000000000000e+00  3.5809350805484974e+00 -4.5749204846122532e-05 0.0000000000000000e+00  3.5809671015181848e+00 -4.3579187090356341e-05 0.0000000000000000e+00  3.5809975673846477e+00 -4.1407793384456777e-05 0.0000000000000000e+00  3.5810264770434102e+00 -3.9235167762893007e-05 0.0000000000000000e+00  3.5810538294880865e+00 -3.7061415214329136e-05 0.0000000000000000e+00  3.5810796237879776e+00 -3.4886619045464389e-05 0.0000000000000000e+00  3.5811038590769360e+00 -3.2710852339726234e-05 0.0000000000000000e+00  3.5811265345471575e+00 -3.0534181336838296e-05 0.0000000000000000e+00  3.5811476494469403e+00 -2.8356669206531221e-05 0.0000000000000000e+00  3.5811672030769146e+00 -2.6178377626095916e-05 0.0000000000000000e+00  3.5811851947911513e+00 -2.3999367885500920e-05 0.0000000000000000e+00  3.5812016239956530e+00 -2.1819699840767361e-05 0.0000000000000000e+00  3.5812164901481016e+00 -1.9639433747840558e-05 0.0000000000000000e+00  3.5812297927581387e+00 -1.7458629009135696e-05 0.0000000000000000e+00  3.5812415313872683e+00 -1.5277346768270761e-05 0.0000000000000000e+00  3.5812517056484547e+00 -1.3095645747079243e-05 0.0000000000000000e+00  3.5812603152062765e+00 -1.0913586027534481e-05 0.0000000000000000e+00  3.5812673597769811e+00 -8.7312275037395189e-06 0.0000000000000000e+00  3.5812728391283466e+00 -6.5486299255028118e-06 0.0000000000000000e+00  3.5812767530796248e+00 -4.3658528153265283e-06 0.0000000000000000e+00  3.5812791015019214e+00 -2.1829562965896056e-06 0.0000000000000000e+00  3.5812798843179547e+00 5.1115229137902310e-14 0.0000000000000000e+00  3.5812791015019712e+00 2.1829562462395451e-06 0.0000000000000000e+00  3.5812767530796701e+00 4.3658528388641712e-06 0.0000000000000000e+00  3.5812728391283852e+00 6.5486298882581895e-06 0.0000000000000000e+00  3.5812673597770197e+00 8.7312276328277992e-06 0.0000000000000000e+00  3.5812603152064368e+00 1.0913586297997717e-05 0.0000000000000000e+00  3.5812517056485329e+00 1.3095646025075290e-05 0.0000000000000000e+00  3.5812415313873571e+00 1.5277346994125856e-05 0.0000000000000000e+00  3.5812297927581551e+00 1.7458629586688628e-05 0.0000000000000000e+00  3.5812164901480217e+00 1.9639433855240524e-05 0.0000000000000000e+00  3.5812016239955549e+00 2.1819699871661543e-05 0.0000000000000000e+00  3.5811851947912747e+00 2.3999367930489209e-05 0.0000000000000000e+00  3.5811672030771238e+00 2.6178377872263891e-05 0.0000000000000000e+00  3.5811476494471268e+00 2.8356669271670284e-05 0.0000000000000000e+00  3.5811265345474967e+00 3.0534181245318534e-05 0.0000000000000000e+00  3.5811038590769457e+00 3.2710852509671712e-05 0.0000000000000000e+00  3.5810796237879146e+00 3.4886619265329125e-05 0.0000000000000000e+00  3.5810538294881198e+00 3.7061415220369118e-05 0.0000000000000000e+00  3.5810264770435252e+00 3.9235167934266631e-05 0.0000000000000000e+00  3.5809975673846366e+00 4.1407793562746438e-05 0.0000000000000000e+00  3.5809671015183038e+00 4.3579187326938484e-05 0.0000000000000000e+00  3.5809350805483677e+00 4.5749204973850818e-05 0.0000000000000000e+00  3.5809015057170899e+00 4.7917627097538674e-05 0.0000000000000000e+00  3.5808663784811179e+00 5.0084093321801869e-05 0.0000000000000000e+00  3.5808297006562637e+00 5.2247977555693013e-05 0.0000000000000000e+00  3.5807914746894212e+00 5.4408152342567914e-05 0.0000000000000000e+00  3.5807517041727852e+00 5.6562545120977917e-05 0.0000000000000000e+00  3.5807103948129173e+00 5.8707299855394765e-05 0.0000000000000000e+00  3.5806675562635628e+00 6.0835192611515695e-05 0.0000000000000000e+00  3.5806232055667349e+00 6.2932651420698877e-05 0.0000000000000000e+00  3.5805773737775168e+00 6.4974009149073973e-05 0.0000000000000000e+00  3.5805301176605782e+00 6.6911266933317935e-05 0.0000000000000000e+00  3.5804815471745171e+00 6.8649899770632350e-05 0.0000000000000000e+00  3.5804318422856034e+00 7.0033123701194184e-05 0.0000000000000000e+00  3.5803815100607483e+00 7.0598081602863522e-05 0.0000000000000000e+00  3.5803303841561767e+00 7.0522868763397932e-05 0.0000000000000000e+00  3.5802846638905619e+00 6.2603008737739858e-05 0.0000000000000000e+00  3.5802098461250962e+00 8.5135784266208945e-05 0.0000000000000000e+00  3.5802290750461037e+00 -1.1516540559558469e-04 0.0000000000000000e+00  3.5797739787090448e+00 1.9052288280097386e-03 0.0000000000000000e+00  3.5851005826255413e+00 0.0000000000000000e+00 0.0000000000000000e+00  3.5865852533392522e+00 0.0000000000000000e+00 0.0000000000000000e+00  3.5868487043428807e+00 3.4018859577946709e-05 0.0000000000000000e+00  3.5867132487695952e+00 -1.6206011992313856e-04 0.0000000000000000e+00  3.5867524276742304e+00 -8.3262387650101977e-05 0.0000000000000000e+00  3.5867984023352171e+00 -1.0139790744325185e-04 0.0000000000000000e+00  3.5868504284493308e+00 -1.0360070279340649e-04 0.0000000000000000e+00  3.5869010484941732e+00 -1.0449839822056720e-04 0.0000000000000000e+00  3.5869511727900010e+00 -1.0332582776288203e-04 0.0000000000000000e+00  3.5870001726179406e+00 -1.0123322040242753e-04 0.0000000000000000e+00  3.5870479021814581e+00 -9.8627852525834842e-05 0.0000000000000000e+00  3.5870942453349395e+00 -9.5754184741782397e-05 0.0000000000000000e+00  3.5871391449593406e+00 -9.2736765284472336e-05 0.0000000000000000e+00  3.5871825689398222e+00 -8.9642074780128412e-05 0.0000000000000000e+00  3.5872244996815152e+00 -8.6505235738687793e-05 0.0000000000000000e+00  3.5872649271705415e+00 -8.3344905317086116e-05 0.0000000000000000e+00  3.5873038454697825e+00 -8.0171010627053628e-05 0.0000000000000000e+00  3.5873412508270150e+00 -7.6988858007547608e-05 0.0000000000000000e+00  3.5873771406720945e+00 -7.3801306212147266e-05 0.0000000000000000e+00  3.5874115130887518e+00 -7.0609915721432236e-05 0.0000000000000000e+00  3.5874443665309341e+00 -6.7415557612562601e-05 0.0000000000000000e+00  3.5874756996731771e+00 -6.4218739300187313e-05 0.0000000000000000e+00  3.5875055113323708e+00 -6.1019775731275100e-05 0.0000000000000000e+00  3.5875338004257502e+00 -5.7818876679700488e-05 0.0000000000000000e+00  3.5875605659485972e+00 -5.4616199378110085e-05 0.0000000000000000e+00  3.5875858069625775e+00 -5.1411870871332750e-05 0.0000000000000000e+00  3.5876095225882279e+00 -4.8206004581394467e-05 0.0000000000000000e+00  3.5876317120036574e+00 -4.4998703526505490e-05 0.0000000000000000e+00  3.5876523744413480e+00 -4.1790068459031187e-05 0.0000000000000000e+00  3.5876715091877314e+00 -3.8580196013313992e-05 0.0000000000000000e+00  3.5876891155820165e+00 -3.5369183519518036e-05 0.0000000000000000e+00  3.5877051930175727e+00 -3.2157125789147189e-05 0.0000000000000000e+00  3.5877197409402459e+00 -2.8944118628276713e-05 0.0000000000000000e+00  3.5877327588484738e+00 -2.5730256659780576e-05 0.0000000000000000e+00  3.5877442462928100e+00 -2.2515635858117675e-05 0.0000000000000000e+00  3.5877542028785192e+00 -1.9300350037091182e-05 0.0000000000000000e+00  3.5877626282622326e+00 -1.6084495027485915e-05 0.0000000000000000e+00  3.5877695221538120e+00 -1.2868165708920292e-05 0.0000000000000000e+00  3.5877748843156345e+00 -9.6514566400095199e-06 0.0000000000000000e+00  3.5877787145632380e+00 -6.4344622785054565e-06 0.0000000000000000e+00  3.5877810127646548e+00 -3.2172787