<?xml version="1.0"?>
<VTKFile type="UnstructuredGrid"  version="0.1"  >
<UnstructuredGrid>
<Piece  NumberOfPoints="1369" NumberOfCells="2560">
<Points>
<DataArray  type="Float64"  NumberOfComponents="3"  format="ascii">0 0 0  0.75 0 0  1.5 0 0  2.25 0 0  3 0 0  3.75 0 0  4.5 0 0  5.25 0 0  6 0 0  6.75 0 0  7.5 0 0  8.25 0 0  9 0 0  9.75 0 0  10.5 0 0  11.25 0 0  12 0 0  12.75 0 0  13.5 0 0  14.25 0 0  15 0 0  15.75 0 0  16.5 0 0  17.25 0 0  18 0 0  18.75 0 0  19.5 0 0  20.25 0 0  21 0 0  21.75 0 0  22.5 0 0  23.25 0 0  24 0 0  24.75 0 0  25.5 0 0  26.25 0 0  27 0 0  27.75 0 0  28.5 0 0  29.25 0 0  30 0 0  30.75 0 0  31.5 0 0  32.25 0 0  33 0 0  33.75 0 0  34.5 0 0  35.25 0 0  36 0 0  36.75 0 0  37.5 0 0  38.25 0 0  39 0 0  39.75 0 0  40.5 0 0  41.25 0 0  42 0 0  42.75 0 0  43.5 0 0  44.25 0 0  45 0 0  45.75 0 0  46.5 0 0  47.25 0 0  48 0 0  48.75 0 0  49.5 0 0  50.25 0 0  51 0 0  51.75 0 0  52.5 0 0  53.25 0 0  54 0 0  54.75 0 0  55.5 0 0  56.25 0 0  57 0 0  57.75 0 0  58.5 0 0  59.25 0 0  60 0 0  0 0.5 0  0.75 0.5000998009500284 0  1.5 0.5001987848261723 0  2.25 0.5002963325330341 0  3 0.5003919828295014 0  3.75 0.5004854280962354 0  4.5 0.500576478752274 0  5.25 0.5006650236771691 0  6 0.5007509996003526 0  6.75 0.500834371063777 0  7.5 0.5009151183652626 0  8.25 0.5009932306079846 0  9 0.5010687017806393 0  9.75 0.5011415285719819 0  10.5 0.5012117091597504 0  11.25 0.501279242541752 0  12 0.5013441281671015 0  12.75 0.501406365733143 0  13.5 0.5014659550736961 0  14.25 0.5015228960975884 0  15 0.5015771887548583 0  15.75 0.5016288330181784 0  16.5 0.5016778288726454 0  17.25 0.5017241763101739 0  18 0.5017678753264156 0  18.75 0.5018089259190681 0  19.5 0.5018473280869452 0  20.25 0.5018830818294684 0  21 0.5019161871463881 0  21.75 0.5019466440376278 0  22.5 0.5019744525032012 0  23.25 0.5019996125431672 0  24 0.5020221241576023 0  24.75 0.5020419873465878 0  25.5 0.5020592021102025 0  26.25 0.5020737684485189 0  27 0.5020856863615993 0  27.75 0.5020949558494961 0  28.5 0.5021015769122495 0  29.25 0.5021055495498902 0  30 0.5021068737624351 0  30.75 0.5021055495498902 0  31.5 0.5021015769122495 0  32.25 0.5020949558494961 0  33 0.5020856863615993 0  33.75 0.502073768448519 0  34.5 0.5020592021102026 0  35.25 0.5020419873465878 0  36 0.5020221241576023 0  36.75 0.5019996125431672 0  37.5 0.5019744525032012 0  38.25 0.5019466440376278 0  39 0.5019161871463881 0  39.75 0.5018830818294684 0  40.5 0.5018473280869453 0  41.25 0.5018089259190681 0  42 0.5017678753264156 0  42.75 0.5017241763101739 0  43.5 0.5016778288726453 0  44.25 0.5016288330181784 0  45 0.5015771887548583 0  45.75 0.5015228960975884 0  46.5 0.5014659550736961 0  47.25 0.501406365733143 0  48 0.5013441281671015 0  48.75 0.501279242541752 0  49.5 0.5012117091597504 0  50.25 0.5011415285719819 0  51 0.5010687017806393 0  51.75 0.5009932306079846 0  52.5 0.5009151183652626 0  53.25 0.500834371063777 0  54 0.5007509996003526 0  54.75 0.5006650236771691 0  55.5 0.500576478752274 0  56.25 0.5004854280962354 0  57 0.5003919828295014 0  57.75 0.5002963325330341 0  58.5 0.5001987848261723 0  59.25 0.5000998009500284 0  60 0.5 0  0 1 0  0.75 1.000199932733531 0  1.5 1.000398179984052 0  2.25 1.000593479744851 0  3 1.000784914132463 0  3.75 1.000971886126831 0  4.5 1.001154035053894 0  5.25 1.001331152237188 0  6 1.001503119741419 0  6.75 1.001669871739601 0  7.5 1.001831371733517 0  8.25 1.001987599559719 0  9 1.002138544101574 0  9.75 1.002284199237592 0  10.5 1.002424561599533 0  11.25 1.00255962933514 0  12 1.002689401426321 0  12.75 1.002813877313761 0  13.5 1.002933056690366 0  14.25 1.003046939387663 0  15 1.003155525313338 0  15.75 1.0032588144169 0  16.5 1.003356806670826 0  17.25 1.003449502060184 0  18 1.003536900576952 0  18.75 1.003619002216884 0  19.5 1.003695806977801 0  20.25 1.003767314858643 0  21 1.003833525858959 0  21.75 1.003894439978614 0  22.5 1.003950057217643 0  23.25 1.00400037757616 0  24 1.004045401054316 0  24.75 1.004085127652265 0  25.5 1.004119557370158 0  26.25 1.004148690208132 0  27 1.004172526166309 0  27.75 1.004191065244786 0  28.5 1.004204307443642 0  29.25 1.004212252762932 0  30 1.004214901202692 0  30.75 1.004212252762932 0  31.5 1.004204307443642 0  32.25 1.004191065244786 0  33 1.004172526166309 0  33.75 1.004148690208132 0  34.5 1.004119557370158 0  35.25 1.004085127652265 0  36 1.004045401054316 0  36.75 1.00400037757616 0  37.5 1.003950057217643 0  38.25 1.003894439978614 0  39 1.003833525858959 0  39.75 1.003767314858643 0  40.5 1.003695806977801 0  41.25 1.003619002216884 0  42 1.003536900576952 0  42.75 1.003449502060184 0  43.5 1.003356806670826 0  44.25 1.0032588144169 0  45 1.003155525313338 0  45.75 1.003046939387663 0  46.5 1.002933056690366 0  47.25 1.002813877313761 0  48 1.002689401426321 0  48.75 1.00255962933514 0  49.5 1.002424561599533 0  50.25 1.002284199237592 0  51 1.002138544101574 0  51.75 1.001987599559719 0  52.5 1.001831371733517 0  53.25 1.001669871739601 0  54 1.001503119741419 0  54.75 1.001331152237188 0  55.5 1.001154035053894 0  56.25 1.000971886126831 0  57 1.000784914132463 0  57.75 1.000593479744851 0  58.5 1.000398179984052 0  59.25 1.000199932733531 0  60 1 0  0 1.5 0  0.75 1.50030075098723 0  1.5 1.500598831258401 0  2.25 1.500892288299847 0  3 1.501179765232834 0  3.75 1.501460418403671 0  4.5 1.501733754918436 0  5.25 1.501999495376183 0  6 1.502257483648759 0  6.75 1.502507633118212 0  7.5 1.502749895912771 0  8.25 1.50298424563054 0  9 1.503210667728538 0  9.75 1.503429154202342 0  10.5 1.503639700648801 0  11.25 1.503842304646888 0  12 1.504036964866006 0  12.75 1.504223680575203 0  13.5 1.504402451373177 0  14.25 1.504573277039788 0  15 1.504736157454426 0  15.75 1.504891092551145 0  16.5 1.505038082294003 0  17.25 1.505177126663515 0  18 1.505308225649227 0  18.75 1.505431379245615 0  19.5 1.505546587449856 0  20.25 1.505653850260588 0  21 1.50575316767724 0  21.75 1.50584453969966 0  22.5 1.505927966327908 0  23.25 1.506003447562151 0  24 1.506070983402598 0  24.75 1.506130573849467 0  25.5 1.506182218902966 0  26.25 1.506225918563285 0  27 1.50626167283059 0  27.75 1.506289481705016 0  28.5 1.50630934518667 0  29.25 1.506321263275633 0  30 1.506325235971949 0  30.75 1.506321263275633 0  31.5 1.506309345186671 0  32.25 1.506289481705016 0  33 1.50626167283059 0  33.75 1.506225918563285 0  34.5 1.506182218902966 0  35.25 1.506130573849467 0  36 1.506070983402598 0  36.75 1.506003447562151 0  37.5 1.505927966327908 0  38.25 1.50584453969966 0  39 1.50575316767724 0  39.75 1.505653850260588 0  40.5 1.505546587449856 0  41.25 1.505431379245615 0  42 1.505308225649227 0  42.75 1.505177126663515 0  43.5 1.505038082294003 0  44.25 1.504891092551145 0  45 1.504736157454426 0  45.75 1.504573277039788 0  46.5 1.504402451373177 0  47.25 1.504223680575203 0  48 1.504036964866006 0  48.75 1.503842304646888 0  49.5 1.503639700648801 0  50.25 1.503429154202342 0  51 1.503210667728538 0  51.75 1.50298424563054 0  52.5 1.502749895912771 0  53.25 1.502507633118212 0  54 1.502257483648759 0  54.75 1.501999495376183 0  55.5 1.501733754918436 0  56.25 1.501460418403671 0  57 1.501179765232834 0  57.75 1.500892288299847 0  58.5 1.500598831258401 0  59.25 1.50030075098723 0  60 1.5 0  0 2 0  0.75 2.000402668733194 0  1.5 2.000801462305705 0  2.25 2.001193671011861 0  3 2.001577552471517 0  3.75 2.001952096723833 0  4.5 2.002316740280897 0  5.25 2.002671171767171 0  6 2.003015219531671 0  6.75 2.003348789027081 0  7.5 2.003671828197297 0  8.25 2.003984308390221 0  9 2.004286213840154 0  9.75 2.004577535874588 0  10.5 2.004858269724335 0  11.25 2.005128412767567 0  12 2.00538796356348 0  12.75 2.005636921320653 0  13.5 2.005875285604626 0  14.25 2.006103056177097 0  15 2.006320232907534 0  15.75 2.006526815724587 0  16.5 2.006722804589388 0  17.25 2.006908199480894 0  18 2.007083000387825 0  18.75 2.007247207304248 0  19.5 2.007400820227143 0  20.25 2.007543839155072 0  21 2.007676264087452 0  21.75 2.007798095024151 0  22.5 2.007909331965262 0  23.25 2.008009974910993 0  24 2.008100023861595 0  24.75 2.008179478817323 0  25.5 2.008248339778427 0  26.25 2.008306606745123 0  27 2.008354279717607 0  27.75 2.008391358696039 0  28.5 2.008417843680542 0  29.25 2.008433734671208 0  30 2.008439031668091 0  30.75 2.008433734671208 0  31.5 2.008417843680542 0  32.25 2.008391358696039 0  33 2.008354279717607 0  33.75 2.008306606745123 0  34.5 2.008248339778427 0  35.25 2.008179478817323 0  36 2.008100023861594 0  36.75 2.008009974910993 0  37.5 2.007909331965262 0  38.25 2.007798095024151 0  39 2.007676264087452 0  39.75 2.007543839155072 0  40.5 2.007400820227143 0  41.25 2.007247207304248 0  42 2.007083000387825 0  42.75 2.006908199480894 0  43.5 2.006722804589388 0  44.25 2.006526815724587 0  45 2.006320232907534 0  45.75 2.006103056177097 0  46.5 2.005875285604626 0  47.25 2.005636921320653 0  48 2.00538796356348 0  48.75 2.005128412767567 0  49.5 2.004858269724335 0  50.25 2.004577535874588 0  51 2.004286213840154 0  51.75 2.003984308390221 0  52.5 2.003671828197297 0  53.25 2.003348789027081 0  54 2.003015219531671 0  54.75 2.002671171767171 0  55.5 2.002316740280897 0  56.25 2.001952096723833 0  57 2.001577552471517 0  57.75 2.001193671011861 0  58.5 2.000801462305705 0  59.25 2.000402668733194 0  60 2 0  0 2.5 0  0.75 2.500506209998437 0  1.5 2.50100693264965 0  2.25 2.501498643890052 0  3 2.501979356932958 0  3.75 2.502448030653734 0  4.5 2.50290411443972 0  5.25 2.503347311975562 0  6 2.503777462154563 0  6.75 2.504194476876402 0  7.5 2.50459830781885 0  8.25 2.504988928438373 0  9 2.505366324145049 0  9.75 2.505730486917743 0  10.5 2.506081412346842 0  11.25 2.506419098008635 0  12 2.50674354257136 0  12.75 2.50705474530356 0  13.5 2.507352705803744 0  14.25 2.507637423851732 0  15 2.507908899326952 0  15.75 2.508167132163527 0  16.5 2.5084121223256 0  17.25 2.508643869793785 0  18 2.508862374557717 0  18.75 2.509067636611964 0  19.5 2.509259655953789 0  20.25 2.509438432581912 0  21 2
[...]
<PointData  Vectors="f_10-0"> 
<DataArray  type="Float64"  Name="f_10-0"  NumberOfComponents="3" format="ascii">0.0000000000000000e+00 0.0000000000000000e+00 0.0000000000000000e+00  0.0000000000000000e+00 0.0000000000000000e+00 0.0000000000000000e+00  0.0000000000000000e+00 0.0000000000000000e+00 0.0000000000000000e+00  0.0000000000000000e+00 0.0000000000000000e+00 0.0000000000000000e+00  0.0000000000000000e+00 0.0000000000000000e+00 0.0000000000000000e+00  0.0000000000000000e+00 0.0000000000000000e+00 0.0000000000000000e+00  0.0000000000000000e+00 0.0000000000000000e+00 0.0000000000000000e+00  0.0000000000000000e+00 0.0000000000000000e+00 0.0000000000000000e+00  0.0000000000000000e+00 0.0000000000000000e+00 0.0000000000000000e+00  0.0000000000000000e+00 0.0000000000000000e+00 0.0000000000000000e+00  0.0000000000000000e+00 0.0000000000000000e+00 0.0000000000000000e+00  0.0000000000000000e+00 0.0000000000000000e+00 0.0000000000000000e+00  0.0000000000000000e+00 0.0000000000000000e+00 0.0000000000000000e+00  0.0000000000000000e+00 0.0000000000000000e+00 0.0000000000000000e+00  0.0000000000000000e+00 0.0000000000000000e+00 0.0000000000000000e+00  0.0000000000000000e+00 0.0000000000000000e+00 0.0000000000000000e+00  0.0000000000000000e+00 0.0000000000000000e+00 0.0000000000000000e+00  0.0000000000000000e+00 0.0000000000000000e+00 0.0000000000000000e+00  0.0000000000000000e+00 0.0000000000000000e+00 0.0000000000000000e+00  0.0000000000000000e+00 0.0000000000000000e+00 0.0000000000000000e+00  0.0000000000000000e+00 0.0000000000000000e+00 0.0000000000000000e+00  0.0000000000000000e+00 0.0000000000000000e+00 0.0000000000000000e+00  0.0000000000000000e+00 0.0000000000000000e+00 0.0000000000000000e+00  0.0000000000000000e+00 0.0000000000000000e+00 0.0000000000000000e+00  0.0000000000000000e+00 0.0000000000000000e+00 0.0000000000000000e+00  0.0000000000000000e+00 0.0000000000000000e+00 0.0000000000000000e+00  0.0000000000000000e+00 0.0000000000000000e+00 0.0000000000000000e+00  0.0000000000000000e+00 0.0000000000000000e+00 0.0000000000000000e+00  0.0000000000000000e+00 0.0000000000000000e+00 0.0000000000000000e+00  0.0000000000000000e+00 0.0000000000000000e+00 0.0000000000000000e+00  0.0000000000000000e+00 0.0000000000000000e+00 0.0000000000000000e+00  0.0000000000000000e+00 0.0000000000000000e+00 0.0000000000000000e+00  0.0000000000000000e+00 0.0000000000000000e+00 0.0000000000000000e+00  0.0000000000000000e+00 0.0000000000000000e+00 0.0000000000000000e+00  0.0000000000000000e+00 0.0000000000000000e+00 0.0000000000000000e+00  0.0000000000000000e+00 0.0000000000000000e+00 0.0000000000000000e+00  0.0000000000000000e+00 0.0000000000000000e+00 0.0000000000000000e+00  0.0000000000000000e+00 0.0000000000000000e+00 0.0000000000000000e+00  0.0000000000000000e+00 0.0000000000000000e+00 0.0000000000000000e+00  0.0000000000000000e+00 0.0000000000000000e+00 0.0000000000000000e+00  0.0000000000000000e+00 0.0000000000000000e+00 0.0000000000000000e+00  0.0000000000000000e+00 0.0000000000000000e+00 0.0000000000000000e+00  0.0000000000000000e+00 0.0000000000000000e+00 0.0000000000000000e+00  0.0000000000000000e+00 0.0000000000000000e+00 0.0000000000000000e+00  0.0000000000000000e+00 0.0000000000000000e+00 0.0000000000000000e+00  0.0000000000000000e+00 0.0000000000000000e+00 0.0000000000000000e+00  0.0000000000000000e+00 0.0000000000000000e+00 0.0000000000000000e+00  0.0000000000000000e+00 0.0000000000000000e+00 0.0000000000000000e+00  0.0000000000000000e+00 0.0000000000000000e+00 0.0000000000000000e+00  0.0000000000000000e+00 0.0000000000000000e+00 0.0000000000000000e+00  0.0000000000000000e+00 0.0000000000000000e+00 0.0000000000000000e+00  0.0000000000000000e+00 0.0000000000000000e+00 0.0000000000000000e+00  0.0000000000000000e+00 0.0000000000000000e+00 0.0000000000000000e+00  0.0000000000000000e+00 0.0000000000000000e+00 0.0000000000000000e+00  0.0000000000000000e+00 0.0000000000000000e+00 0.0000000000000000e+00  0.0000000000000000e+00 0.0000000000000000e+00 0.0000000000000000e+00  0.0000000000000000e+00 0.0000000000000000e+00 0.0000000000000000e+00  0.0000000000000000e+00 0.0000000000000000e+00 0.0000000000000000e+00  0.0000000000000000e+00 0.0000000000000000e+00 0.0000000000000000e+00  0.0000000000000000e+00 0.0000000000000000e+00 0.0000000000000000e+00  0.0000000000000000e+00 0.0000000000000000e+00 0.0000000000000000e+00  0.0000000000000000e+00 0.0000000000000000e+00 0.0000000000000000e+00  0.0000000000000000e+00 0.0000000000000000e+00 0.0000000000000000e+00  0.0000000000000000e+00 0.0000000000000000e+00 0.0000000000000000e+00  0.0000000000000000e+00 0.0000000000000000e+00 0.0000000000000000e+00  0.0000000000000000e+00 0.0000000000000000e+00 0.0000000000000000e+00  0.0000000000000000e+00 0.0000000000000000e+00 0.0000000000000000e+00  0.0000000000000000e+00 0.0000000000000000e+00 0.0000000000000000e+00  0.0000000000000000e+00 0.0000000000000000e+00 0.0000000000000000e+00  0.0000000000000000e+00 0.0000000000000000e+00 0.0000000000000000e+00  0.0000000000000000e+00 0.0000000000000000e+00 0.0000000000000000e+00  0.0000000000000000e+00 0.0000000000000000e+00 0.0000000000000000e+00  0.0000000000000000e+00 0.0000000000000000e+00 0.0000000000000000e+00  0.0000000000000000e+00 0.0000000000000000e+00 0.0000000000000000e+00  0.0000000000000000e+00 0.0000000000000000e+00 0.0000000000000000e+00  0.0000000000000000e+00 0.0000000000000000e+00 0.0000000000000000e+00  0.0000000000000000e+00 0.0000000000000000e+00 0.0000000000000000e+00  0.0000000000000000e+00 0.0000000000000000e+00 0.0000000000000000e+00  0.0000000000000000e+00 0.0000000000000000e+00 0.0000000000000000e+00  0.0000000000000000e+00 0.0000000000000000e+00 0.0000000000000000e+00  0.0000000000000000e+00 0.0000000000000000e+00 0.0000000000000000e+00  1.5328297338712646e+01 0.0000000000000000e+00 0.0000000000000000e+00  1.5314189431283534e+01 3.1523658311301099e-02 0.0000000000000000e+00  1.5304529038883713e+01 5.9153844254794131e-03 0.0000000000000000e+00  1.5301401346090350e+01 5.4369452661842000e-03 0.0000000000000000e+00  1.5296184557736915e+01 4.3938096514249941e-03 0.0000000000000000e+00  1.5293162995866039e+01 4.4717634114334048e-03 0.0000000000000000e+00  1.5289652654533477e+01 4.3434942620245165e-03 0.0000000000000000e+00  1.5286562948696275e+01 4.2606222450815049e-03 0.0000000000000000e+00  1.5283639666592931e+01 4.1641266672193880e-03 0.0000000000000000e+00  1.5280932239618082e+01 4.0947163569083015e-03 0.0000000000000000e+00  1.5278338260120451e+01 4.0557531586493485e-03 0.0000000000000000e+00  1.5275794998153016e+01 4.0378148548282349e-03 0.0000000000000000e+00  1.5273266290946848e+01 4.0263715775391016e-03 0.0000000000000000e+00  1.5270752251552771e+01 4.0110301049014578e-03 0.0000000000000000e+00  1.5268270583912894e+01 3.9877521379725837e-03 0.0000000000000000e+00  1.5265843143111050e+01 3.9564133375789724e-03 0.0000000000000000e+00  1.5263489484387051e+01 3.9183842299104054e-03 0.0000000000000000e+00  1.5261225065724561e+01 3.8751775631532966e-03 0.0000000000000000e+00  1.5259061573714808e+01 3.8281582735374461e-03 0.0000000000000000e+00  1.5257007533227990e+01 3.7784374472645556e-03 0.0000000000000000e+00  1.5255068686880529e+01 3.7270283238623838e-03 0.0000000000000000e+00  1.5253248361543331e+01 3.6747719802297098e-03 0.0000000000000000e+00  1.5251547768757277e+01 3.6223969497814735e-03 0.0000000000000000e+00  1.5249966466137458e+01 3.5704053667363943e-03 0.0000000000000000e+00  1.5248502965198838e+01 3.5190727371878492e-03 0.0000000000000000e+00  1.5247155401717730e+01 3.4684141658926329e-03 0.0000000000000000e+00  1.5245922156154696e+01 3.4182621433606459e-03 0.0000000000000000e+00  1.5244802226869012e+01 3.3683479299351903e-03 0.0000000000000000e+00  1.5243795362677783e+01 3.3184071700190468e-03 0.0000000000000000e+00  1.5242901940307398e+01 3.2682422609244446e-03 0.0000000000000000e+00  1.5242122740440411e+01 3.2177508475730028e-03 0.0000000000000000e+00  1.5241458689189397e+01 3.1669146973050798e-03 0.0000000000000000e+00  1.5240910671626327e+01 3.1157718035758710e-03 0.0000000000000000e+00  1.5240479420108501e+01 3.0643846652407838e-03 0.0000000000000000e+00  1.5240165487568614e+01 3.0128162558027707e-03 0.0000000000000000e+00  1.5239969265649060e+01 2.9611169079464270e-03 0.0000000000000000e+00  1.5239891029013942e+01 2.9093203464936501e-03 0.0000000000000000e+00  1.5239930978213296e+01 2.8574459096455782e-03 0.0000000000000000e+00  1.5240089274708618e+01 2.8055028834802933e-03 0.0000000000000000e+00  1.5240366061944988e+01 2.7534951021284588e-03 0.0000000000000000e+00  1.5240761476434683e+01 2.7014241867193318e-03 0.0000000000000000e+00  1.5241275650993433e+01 2.6492915625137294e-03 0.0000000000000000e+00  1.5241908714538900e+01 2.5970992260055141e-03 0.0000000000000000e+00  1.5242660790349877e+01 2.5448499139072048e-03 0.0000000000000000e+00  1.5243531994555990e+01 2.4925468513297623e-03 0.0000000000000000e+00  1.5244522435195886e+01 2.4401934758320003e-03 0.0000000000000000e+00  1.5245632212036574e+01 2.3877931693236385e-03 0.0000000000000000e+00  1.5246861416891569e+01 2.3353491104911709e-03 0.0000000000000000e+00  1.5248210134240820e+01 2.2828641873775283e-03 0.0000000000000000e+00  1.5249678441955657e+01 2.2303410081030103e-03 0.0000000000000000e+00  1.5251266411955934e+01 2.1777819213483645e-03 0.0000000000000000e+00  1.5252974110773765e+01 2.1251890727277249e-03 0.0000000000000000e+00  1.5254801599965827e+01 2.0725644623769473e-03 0.0000000000000000e+00  1.5256748936366140e+01 2.0199099954474938e-03 0.0000000000000000e+00  1.5258816172202115e+01 1.9672275339783296e-03 0.0000000000000000e+00  1.5261003355043218e+01 1.9145189418827539e-03 0.0000000000000000e+00  1.5263310527591949e+01 1.8617861446877150e-03 0.0000000000000000e+00  1.5265737727134589e+01 1.8090312228162238e-03 0.0000000000000000e+00  1.5268284984624954e+01 1.7562565881905012e-03 0.0000000000000000e+00  1.5270952322453216e+01 1.7034653596225832e-03 0.0000000000000000e+00  1.5273739750942099e+01 1.6506621732812947e-03 0.0000000000000000e+00  1.5276647259631774e+01 1.5978545789301021e-03 0.0000000000000000e+00  1.5279674803611142e+01 1.5450567302481542e-03 0.0000000000000000e+00  1.5282822271689188e+01 1.4922937608168397e-03 0.0000000000000000e+00  1.5286089433486245e+01 1.4396174475811573e-03 0.0000000000000000e+00  1.5289475837705975e+01 1.3871187745872053e-03 0.0000000000000000e+00  1.5292980595054880e+01 1.3349904453126586e-03 0.0000000000000000e+00  1.5296602126382526e+01 1.2835592210356096e-03 0.0000000000000000e+00  1.5300337260456656e+01 1.2334763157683037e-03 0.0000000000000000e+00  1.5304181131697574e+01 1.1855806914850015e-03 0.0000000000000000e+00  1.5308124648084203e+01 1.1409459159224321e-03 0.0000000000000000e+00  1.5312158628713904e+01 1.0983536050595505e-03 0.0000000000000000e+00  1.5316273078800071e+01 1.0562756059213051e-03 0.0000000000000000e+00  1.5320460808090731e+01 1.0143188936931541e-03 0.0000000000000000e+00  1.5324663236485753e+01 1.0343884441961501e-03 0.0000000000000000e+00  1.5328557478351627e+01 1.2807538921746115e-03 0.0000000000000000e+00  1.5331372414253364e+01 1.8557349429123740e-03 0.0000000000000000e+00  1.5332527953393891e+01 2.6522514964102996e-03 0.0000000000000000e+00  1.5330945404691903e+01 3.1666475425256098e-03 0.0000000000000000e+00  1.5320725162596275e+01 -9.8036347530651175e-04 0.0000000000000000e+00  1.5290984625957087e+01 0.0000000000000000e+00 0.0000000000000000e+00  1.5310033417202424e+01 0.0000000000000000e+00 0.0000000000000000e+00  1.5287235114263527e+01 -3.7284743311679589e-04 0.0000000000000000e+00  1.5297437819629646e+01 8.7578153779255524e-03 0.0000000000000000e+00  1.5291373283530733e+01 3.2767961740420896e-03 0.0000000000000000e+00  1.5286629978903168e+01 3.8486425312284646e-03 0.0000000000000000e+00  1.5281177090695321e+01 3.3833429193871308e-03 0.0000000000000000e+00  1.5276003164288111e+01 3.2559740999153503e-03 0.0000000000000000e+00  1.5270953917696678e+01 2.9710186801602295e-03 0.0000000000000000e+00  1.5266160958092883e+01 2.7186219272892437e-03 0.0000000000000000e+00  1.5261542985196803e+01 2.5372023392116901e-03 0.0000000000000000e+00  1.5257019628027473e+01 2.4469057432027395e-03 0.0000000000000000e+00  1.5252536731402662e+01 2.4063651450955121e-03 0.0000000000000000e+00  1.5248099026707589e+01 2.3719233179890337e-03 0.0000000000000000e+00  1.5243739359052313e+01 2.3175565172356217e-03 0.0000000000000000e+00  1.5239494452608188e+01 2.2365142397662774e-03 0.0000000000000000e+00  1.5235391651199244e+01 2.1317556315504087e-03 0.0000000000000000e+00  1.5231448880308191e+01 2.0085566137992561e-03 0.0000000000000000e+00  1.5227677807480145e+01 1.8714791888057528e-03 0.0000000000000000e+00  1.5224086772140071e+01 1.7241537961912485e-03 0.0000000000000000e+00  1.5220681825110839e+01 1.5695757020348514e-03 0.0000000000000000e+00  1.5217467105815858e+01 1.4104603807368824e-03 0.0000000000000000e+00  1.5214444679315633e+01 1.2492480022531262e-03 0.0000000000000000e+00  1.5211614691513104e+01 1.0880187154711943e-03 0.0000000000000000e+00  1.5208975708288278e+01 9.2823165201298208e-04 0.0000000000000000e+00  1.5206525502035024e+01 7.7057861919163423e-04 0.0000000000000000e+00  1.5204261863336612e+01 6.1496652361422782e-04 0.0000000000000000e+00  1.5202183316128892e+01 4.6074491195032376e-04 0.0000000000000000e+00  1.5200289422502435e+01 3.0701498688303096e-04 0.0000000000000000e+00  1.5198580747882460e+01 1.5294996363948170e-04 0.0000000000000000e+00  1.5197058539378649e+01 -2.0194225174078823e-06 0.0000000000000000e+00  1.5195724342582766e+01 -1.5814270975738042e-04 0.0000000000000000e+00  1.5194579660917702e+01 -3.1540821102714410e-04 0.0000000000000000e+00  1.5193625756038296e+01 -4.7364210323436190e-04 0.0000000000000000e+00  1.5192863571459515e+01 -6.3261394183817665e-04 0.0000000000000000e+00  1.5192293757180554e+01 -7.9210716214987459e-04 0.0000000000000000e+00  1.5191916737136857e+01 -9.5195669388477126e-04 0.0000000000000000e+00  1.5191732788726142e+01 -1.1120547383556664e-03 0.0000000000000000e+00  1.5191742106891285e+01 -1.2723414578073987e-03 0.0000000000000000e+00  1.5191944848766175e+01 -1.4327886206534400e-03 0.0000000000000000e+00  1.5192341157918047e+01 -1.5933852756561092e-03 0.0000000000000000e+00  1.5192931175439652e+01 -1.7541271324131784e-03 0.0000000000000000e+00  1.5193715042561358e+01 -1.9150108153666585e-03 0.0000000000000000e+00  1.5194692900014042e+01 -2.0760313529268977e-03 0.0000000000000000e+00  1.5195864886329820e+01 -2.2371818887087784e-03 0.0000000000000000e+00  1.5197231136635045e+01 -2.3984542633932742e-03 0.0000000000000000e+00  1.5198791782082340e+01 -2.5598398271389072e-03 0.0000000000000000e+00  1.5200546949918508e+01 -2.7213301114879045e-03 0.0000000000000000e+00  1.5202496763892739e+01 -2.8829172231388360e-03 0.0000000000000000e+00  1.5204641344795318e+01 -3.0445940110174260e-03 0.0000000000000000e+00  1.5206980810971480e+01 -3.2063540414349338e-03 0.0000000000000000e+00  1.5209515278701611e+01 -3.3681914953298231e-03 0.0000000000000000e+00  1.5212244862445020e+01 -3.5301010032875628e-03 0.0000000000000000e+00  1.5215169674917494e+01 -3.6920774842791487e-03 0.0000000000000000e+00  1.5218289827011370e+01 -3.8541159658568047e-03 0.0000000000000000e+00  1.5221605427527550e+01 -4.0162114227039851e-03 0.0000000000000000e+00  1.5225116582669942e+01 -4.1783585572466361e-03 0.0000000000000000e+00  1.5228823395152004e+01 -4.3405515056218332e-03 0.0000000000000000e+00  1.5232725962650168e+01 -4.5027833096709484e-03 0.0000000000000000e+00  1.5236824374840596e+01 -4.6650448858868406e-03 0.0000000000000000e+00  1.5241118708225656e+01 -4.8273230387689279e-03 0.0000000000000000e+00  1.5245609015528238e+01 -4.9895966183751451e-03 0.0000000000000000e+00  1.5250295307689687e+01 -5.1518288385407193e-03 0.0000000000000000e+00  1.5255177515664254e+01 -5.3139538459835659e-03 0.0000000000000000e+00  1.5260255430021864e+01 -5.4758486985039519e-03 0.0000000000000000e+00  1.5265528570991886e+01 -5.6372907364832915e-03 0.0000000000000000e+00  1.5270995994401897e+01 -5.7978583648173650e-03 0.0000000000000000e+00  1.5276655893425161e+01 -5.9568087585161692e-03 0.0000000000000000e+00  1.5282504989027311e+01 -6.1127453389019631e-03 0.0000000000000000e+00  1.5288537519486900e+01 -6.2634157113822695e-03 0.0000000000000000e+00  1.5294743445428706e+01 -6.4050561109774660e-03 0.0000000000000000e+00  1.5301106728040835e+01 -6.5337086923757210e-03 0.0000000000000000e+00  1.5307601167796198e+01 -6.6459336535883047e-03 0.0000000000000000e+00  1.5314186111120923e+01 -6.7414673630426672e-03 0.0000000000000000e+00  1.5320790887237781e+01 -6.7928067484893957e-03 0.0000000000000000e+00  1.5327252811082284e+01 -6.6457645827243741e-03 0.0000000000000000e+00  1.5333235494416178e+01 -5.9173297876901178e-03 0.0000000000000000e+00  1.5338181159904712e+01 -4.3848225271797964e-03 0.0000000000000000e+00  1.5341550885747839e+01 -2.1143134292931449e-03 0.0000000000000000e+00  1.5342284020810455e+01 1.0593770128892088e-03 0.0000000000000000e+00  1.5342101002152942e+01 6.8638671030435026e-03 0.0000000000000000e+00  1.5330656611634613e+01 0.0000000000000000e+00 0.0000000000000000e+00  1.5145712696690667e+01 0.0000000000000000e+00 0.0000000000000000e+00  1.5145798163792284e+01 6.9779631319299880e-03 0.0000000000000000e+00  1.5145280208442800e+01 8.0010685795425512e-03 0.0000000000000000e+00  1.5142826505319874e+01 8.2519432480687022e-03 0.0000000000000000e+00  1.5138300296364244e+01 7.9624023843859523e-03 0.0000000000000000e+00  1.5133488880804343e+01 7.9199691592690535e-03 0.0000000000000000e+00  1.5128434331373141e+01 7.6828320147413641e-03 0.0000000000000000e+00  1.5123382676704139e+01 7.3297309311488278e-03 0.0000000000000000e+00  1.5118375334415235e+01 6.9797058810560832e-03 0.0000000000000000e+00  1.5113402308262570e+01 6.7556531075916590e-03 0.0000000000000000e+00  1.5108439638353618e+01 6.6478450701379478e-03 0.0000000000000000e+00  1.5103512885411922e+01 6.5809449595191265e-03 0.0000000000000000e+00  1.5098678869512343e+01 6.4883992133570566e-03 0.0000000000000000e+00  1.5093993695456620e+01 6.3450364309104185e-03 0.0000000000000000e+00  1.5089492332597795e+01 6.1550729616636881e-03 0.0000000000000000e+00  1.5085188000938919e+01 5.9315987833595957e-03 0.0000000000000000e+00  1.5081081610832554e+01 5.6856362142463698e-03 0.0000000000000000e+00  1.5077169548913837e+01 5.4238168263156493e-03 0.0000000000000000e+00  1.5073448381683152e+01 5.1503296094092543e-03 0.0000000000000000e+00  1.5069915867622498e+01 4.8684206432514652e-03 0.0000000000000000e+00  1.5066570792048642e+01 4.5812853393499588e-03 0.0000000000000000e+00  1.5063412200159899e+01 4.2920983698494664e-03 0.0000000000000000e+00  1.5060438929514591e+01 4.0036763669275000e-03 0.0000000000000000e+00  1.5057649522038821e+01 3.7179535812230354e-03 0.0000000000000000e+00  1.5055042557492945e+01 3.4356246530667153e-03 0.0000000000000000e+00  1.5052617100446875e+01 3.1561770651239631e-03 0.0000000000000000e+00  1.5050373032934139e+01 2.8782886623740507e-03 0.0000000000000000e+00  1.5048311087370264e+01 2.6004037104769475e-03 0.0000000000000000e+00  1.5046432637298897e+01 2.3212264721120487e-03 0.0000000000000000e+00  1.5044739344926116e+01 2.0399907997283575e-03 0.0000000000000000e+00  1.5043232837384666e+01 1.7564829069686156e-03 0.0000000000000000e+00  1.5041914480291380e+01 1.4709009216838181e-03 0.0000000000000000e+00  1.5040785290723836e+01 1.1836572818100103e-03 0.0000000000000000e+00  1.5039845947133188e+01 8.9520630824080414e-04 0.0000000000000000e+00  1.5039096861826392e+01 6.0593640184005131e-04 0.0000000000000000e+00  1.5038538264929883e+01 3.1612644572256396e-04 0.0000000000000000e+00  1.5038170280403746e+01 2.5948867812843334e-05 0.0000000000000000e+00  1.5037992978575117e+01 -2.6450525442197183e-04 0.0000000000000000e+00  1.5038006409207961e+01 -5.5519577146978256e-04 0.0000000000000000e+00  1.5038210617811625e+01 -8.4610872436705878e-04 0.0000000000000000e+00  1.5038605653105426e+01 -