<?xml version="1.0"?>
<VTKFile type="UnstructuredGrid"  version="0.1"  >
<UnstructuredGrid>
<Piece  NumberOfPoints="1369" NumberOfCells="2560">
<Points>
<DataArray  type="Float64"  NumberOfComponents="3"  format="ascii">0 0 0  0.75 0 0  1.5 0 0  2.25 0 0  3 0 0  3.75 0 0  4.5 0 0  5.25 0 0  6 0 0  6.75 0 0  7.5 0 0  8.25 0 0  9 0 0  9.75 0 0  10.5 0 0  11.25 0 0  12 0 0  12.75 0 0  13.5 0 0  14.25 0 0  15 0 0  15.75 0 0  16.5 0 0  17.25 0 0  18 0 0  18.75 0 0  19.5 0 0  20.25 0 0  21 0 0  21.75 0 0  22.5 0 0  23.25 0 0  24 0 0  24.75 0 0  25.5 0 0  26.25 0 0  27 0 0  27.75 0 0  28.5 0 0  29.25 0 0  30 0 0  30.75 0 0  31.5 0 0  32.25 0 0  33 0 0  33.75 0 0  34.5 0 0  35.25 0 0  36 0 0  36.75 0 0  37.5 0 0  38.25 0 0  39 0 0  39.75 0 0  40.5 0 0  41.25 0 0  42 0 0  42.75 0 0  43.5 0 0  44.25 0 0  45 0 0  45.75 0 0  46.5 0 0  47.25 0 0  48 0 0  48.75 0 0  49.5 0 0  50.25 0 0  51 0 0  51.75 0 0  52.5 0 0  53.25 0 0  54 0 0  54.75 0 0  55.5 0 0  56.25 0 0  57 0 0  57.75 0 0  58.5 0 0  59.25 0 0  60 0 0  0 0.5 0  0.75 0.5000331523162067 0  1.5 0.5000660195197441 0  2.25 0.500098400629842 0  3 0.5001301460773655 0  3.75 0.5001611561933256 0  4.5 0.5001913695972307 0  5.25 0.5002207503363437 0  6 0.5002492779546193 0  6.75 0.5002769409976311 0  7.5 0.500303733106887 0  8.25 0.500329650769566 0  9 0.5003546920502614 0  9.75 0.5003788558844078 0  10.5 0.5004021416870812 0  11.25 0.500424549137151 0  12 0.5004460780584321 0  12.75 0.5004667283543225 0  13.5 0.5004864999718917 0  14.25 0.5005053928821609 0  15 0.5005234070692826 0  15.75 0.5005405425246034 0  16.5 0.5005567992434098 0  17.25 0.5005721772231438 0  18 0.500586676462427 0  18.75 0.5006002969605247 0  19.5 0.5006130387170522 0  20.25 0.5006249017318164 0  21 0.5006358860047273 0  21.75 0.5006459915357492 0  22.5 0.500655218324875 0  23.25 0.5006635663721128 0  24 0.5006710356774777 0  24.75 0.5006776262409861 0  25.5 0.5006833380626549 0  26.25 0.5006881711425 0  27 0.5006921254805355 0  27.75 0.5006952010767733 0  28.5 0.5006973979312219 0  29.25 0.5006987160438884 0  30 0.5006991554147772 0  30.75 0.5006987160438884 0  31.5 0.5006973979312219 0  32.25 0.5006952010767733 0  33 0.5006921254805355 0  33.75 0.5006881711425001 0  34.5 0.500683338062655 0  35.25 0.5006776262409861 0  36 0.5006710356774777 0  36.75 0.5006635663721128 0  37.5 0.500655218324875 0  38.25 0.5006459915357492 0  39 0.5006358860047273 0  39.75 0.5006249017318164 0  40.5 0.5006130387170523 0  41.25 0.5006002969605247 0  42 0.500586676462427 0  42.75 0.5005721772231438 0  43.5 0.5005567992434098 0  44.25 0.5005405425246034 0  45 0.5005234070692826 0  45.75 0.5005053928821609 0  46.5 0.5004864999718917 0  47.25 0.5004667283543225 0  48 0.5004460780584321 0  48.75 0.500424549137151 0  49.5 0.5004021416870812 0  50.25 0.5003788558844078 0  51 0.5003546920502614 0  51.75 0.500329650769566 0  52.5 0.500303733106887 0  53.25 0.5002769409976311 0  54 0.5002492779546193 0  54.75 0.5002207503363437 0  55.5 0.5001913695972307 0  56.25 0.5001611561933256 0  57 0.5001301460773655 0  57.75 0.500098400629842 0  58.5 0.5000660195197441 0  59.25 0.5000331523162067 0  60 0.5 0  0 1 0  0.75 1.000066412184321 0  1.5 1.000132237321512 0  2.25 1.000197065836536 0  3 1.000260600155997 0  3.75 1.000322646877774 0  4.5 1.000383089236494 0  5.25 1.000441859716194 0  6 1.000498920185686 0  6.75 1.000554249378649 0  7.5 1.000607835514985 0  8.25 1.000659672093953 0  9 1.000709755536065 0  9.75 1.000758083873059 0  10.5 1.000804656023655 0  11.25 1.00084947139428 0  12 1.000892529659289 0  12.75 1.00093383064014 0  13.5 1.00097337423901 0  14.25 1.001011160402345 0  15 1.001047189100857 0  15.75 1.001081460318557 0  16.5 1.001113974046737 0  17.25 1.001144730280672 0  18 1.001173729017819 0  18.75 1.001200970256819 0  19.5 1.001226453996967 0  20.25 1.001250180237908 0  21 1.001272148979476 0  21.75 1.001292360221607 0  22.5 1.001310813964291 0  23.25 1.001327510207544 0  24 1.001342448951395 0  24.75 1.001355630195876 0  25.5 1.00136705394102 0  26.25 1.001376720186856 0  27 1.001384628933413 0  27.75 1.001390780180711 0  28.5 1.001395173928768 0  29.25 1.001397810177597 0  30 1.001398688927206 0  30.75 1.001397810177597 0  31.5 1.001395173928768 0  32.25 1.001390780180711 0  33 1.001384628933413 0  33.75 1.001376720186856 0  34.5 1.00136705394102 0  35.25 1.001355630195876 0  36 1.001342448951395 0  36.75 1.001327510207544 0  37.5 1.001310813964291 0  38.25 1.001292360221607 0  39 1.001272148979476 0  39.75 1.001250180237908 0  40.5 1.001226453996967 0  41.25 1.001200970256819 0  42 1.001173729017819 0  42.75 1.001144730280672 0  43.5 1.001113974046737 0  44.25 1.001081460318557 0  45 1.001047189100857 0  45.75 1.001011160402345 0  46.5 1.00097337423901 0  47.25 1.00093383064014 0  48 1.000892529659289 0  48.75 1.00084947139428 0  49.5 1.000804656023655 0  50.25 1.000758083873059 0  51 1.000709755536065 0  51.75 1.000659672093953 0  52.5 1.000607835514985 0  53.25 1.000554249378649 0  54 1.000498920185686 0  54.75 1.000441859716194 0  55.5 1.000383089236494 0  56.25 1.000322646877774 0  57 1.000260600155997 0  57.75 1.000197065836536 0  58.5 1.000132237321512 0  59.25 1.000066412184321 0  60 1 0  0 1.5 0  0.75 1.500099895158282 0  1.5 1.500198863104752 0  2.25 1.500296270479406 0  3 1.500391677569571 0  3.75 1.500484811148858 0  4.5 1.500575511664039 0  5.25 1.500663688716004 0  6 1.500749291820842 0  6.75 1.500832292991921 0  7.5 1.500912676775912 0  8.25 1.500990434659387 0  9 1.501065561958793 0  9.75 1.501138056099993 0  10.5 1.501207915669234 0  11.25 1.501275139890534 0  12 1.501339728338219 0  12.75 1.501401680778917 0  13.5 1.50146099708477 0  14.25 1.501517677185784 0  15 1.501571721043689 0  15.75 1.501623128637594 0  16.5 1.501671899956123 0  17.25 1.501718034993107 0  18 1.501761533745226 0  18.75 1.501802396210716 0  19.5 1.501840622388656 0  20.25 1.501876212278587 0  21 1.501909165880299 0  21.75 1.501939483193713 0  22.5 1.501967164218818 0  23.25 1.50199220895564 0  24 1.50201461740422 0  24.75 1.502034389564603 0  25.5 1.502051525436833 0  26.25 1.502066025020954 0  27 1.502077888317001 0  27.75 1.502087115325005 0  28.5 1.50209370604499 0  29.25 1.502097660476974 0  30 1.502098978620968 0  30.75 1.502097660476974 0  31.5 1.50209370604499 0  32.25 1.502087115325005 0  33 1.502077888317001 0  33.75 1.502066025020954 0  34.5 1.502051525436833 0  35.25 1.502034389564603 0  36 1.50201461740422 0  36.75 1.50199220895564 0  37.5 1.501967164218818 0  38.25 1.501939483193713 0  39 1.501909165880299 0  39.75 1.501876212278587 0  40.5 1.501840622388656 0  41.25 1.501802396210716 0  42 1.501761533745226 0  42.75 1.501718034993107 0  43.5 1.501671899956123 0  44.25 1.501623128637594 0  45 1.501571721043689 0  45.75 1.501517677185784 0  46.5 1.50146099708477 0  47.25 1.501401680778917 0  48 1.501339728338219 0  48.75 1.501275139890534 0  49.5 1.501207915669234 0  50.25 1.501138056099993 0  51 1.501065561958793 0  51.75 1.500990434659387 0  52.5 1.500912676775912 0  53.25 1.500832292991921 0  54 1.500749291820842 0  54.75 1.500663688716004 0  55.5 1.500575511664039 0  56.25 1.500484811148858 0  57 1.500391677569571 0  57.75 1.500296270479406 0  58.5 1.500198863104752 0  59.25 1.500099895158282 0  60 1.5 0  0 2 0  0.75 2.000133735301819 0  1.5 2.000266131641992 0  2.25 2.000396310680563 0  3 2.000523708097321 0  3.75 2.000647996905202 0  4.5 2.000768994713497 0  5.25 2.000886600771393 0  6 2.001000759567532 0  6.75 2.001111440547316 0  7.5 2.001218626902942 0  8.25 2.001322309393208 0  9 2.001422482939544 0  9.75 2.001519144752278 0  10.5 2.001612293299754 0  11.25 2.001701927741423 0  12 2.00178804761624 0  12.75 2.001870652671461 0  13.5 2.001949742768629 0  14.25 2.002025317831954 0  15 2.002097377820003 0  15.75 2.002165922710163 0  16.5 2.002230952490126 0  17.25 2.002292467153224 0  18 2.002350466695871 0  18.75 2.002404951116164 0  19.5 2.002455920413118 0  20.25 2.002503374586244 0  21 2.002547313635321 0  21.75 2.002587737560271 0  22.5 2.002624646361089 0  23.25 2.002658040037809 0  24 2.00268791859048 0  24.75 2.002714282019156 0  25.5 2.002737130323891 0  26.25 2.002756463504733 0  27 2.002772281561725 0  27.75 2.002784584494904 0  28.5 2.002793372304297 0  29.25 2.002798644989925 0  30 2.002800402551799 0  30.75 2.002798644989925 0  31.5 2.002793372304297 0  32.25 2.002784584494904 0  33 2.002772281561725 0  33.75 2.002756463504733 0  34.5 2.002737130323891 0  35.25 2.002714282019156 0  36 2.00268791859048 0  36.75 2.002658040037809 0  37.5 2.002624646361089 0  38.25 2.002587737560271 0  39 2.002547313635321 0  39.75 2.002503374586245 0  40.5 2.002455920413118 0  41.25 2.002404951116164 0  42 2.002350466695871 0  42.75 2.002292467153224 0  43.5 2.002230952490126 0  44.25 2.002165922710163 0  45 2.002097377820003 0  45.75 2.002025317831954 0  46.5 2.001949742768629 0  47.25 2.001870652671461 0  48 2.00178804761624 0  48.75 2.001701927741423 0  49.5 2.001612293299754 0  50.25 2.001519144752278 0  51 2.001422482939544 0  51.75 2.001322309393208 0  52.5 2.001218626902942 0  53.25 2.001111440547316 0  54 2.001000759567532 0  54.75 2.000886600771393 0  55.5 2.000768994713497 0  56.25 2.000647996905202 0  57 2.000523708097321 0  57.75 2.000396310680563 0  58.5 2.000266131641992 0  59.25 2.000133735301819 0  60 2 0  0 2.5 0  0.75 2.500168102470635 0  1.5 2.50033432143843 0  2.25 2.500497515729216 0  3 2.500657042297096 0  3.75 2.500812564145815 0  4.5 2.500963903046644 0  5.25 2.501110963106117 0  6 2.501253692210461 0  6.75 2.501392061880553 0  7.5 2.501526056509445 0  8.25 2.501655667533312 0  9 2.501780890250837 0  9.75 2.501901722081046 0  10.5 2.502018161607309 0  11.25 2.502130208052345 0  12 2.502237860989866 0  12.75 2.5023411201862 0  13.5 2.502439985513353 0  14.25 2.502534456901274 0  15 2.50262453431167 0  15.75 2.502710217723655 0  16.5 2.502791507125865 0  17.25 2.502868402512147 0  18 2.502940903879203 0  18.75 2.503009011225283 0  19.5 2.503072724549491 0  20.25 2.503132043851383 0  21 2.50
[...]
<PointData  Vectors="f_10-0"> 
<DataArray  type="Float64"  Name="f_10-0"  NumberOfComponents="3" format="ascii">0.0000000000000000e+00 0.0000000000000000e+00 0.0000000000000000e+00  0.0000000000000000e+00 0.0000000000000000e+00 0.0000000000000000e+00  0.0000000000000000e+00 0.0000000000000000e+00 0.0000000000000000e+00  0.0000000000000000e+00 0.0000000000000000e+00 0.0000000000000000e+00  0.0000000000000000e+00 0.0000000000000000e+00 0.0000000000000000e+00  0.0000000000000000e+00 0.0000000000000000e+00 0.0000000000000000e+00  0.0000000000000000e+00 0.0000000000000000e+00 0.0000000000000000e+00  0.0000000000000000e+00 0.0000000000000000e+00 0.0000000000000000e+00  0.0000000000000000e+00 0.0000000000000000e+00 0.0000000000000000e+00  0.0000000000000000e+00 0.0000000000000000e+00 0.0000000000000000e+00  0.0000000000000000e+00 0.0000000000000000e+00 0.0000000000000000e+00  0.0000000000000000e+00 0.0000000000000000e+00 0.0000000000000000e+00  0.0000000000000000e+00 0.0000000000000000e+00 0.0000000000000000e+00  0.0000000000000000e+00 0.0000000000000000e+00 0.0000000000000000e+00  0.0000000000000000e+00 0.0000000000000000e+00 0.0000000000000000e+00  0.0000000000000000e+00 0.0000000000000000e+00 0.0000000000000000e+00  0.0000000000000000e+00 0.0000000000000000e+00 0.0000000000000000e+00  0.0000000000000000e+00 0.0000000000000000e+00 0.0000000000000000e+00  0.0000000000000000e+00 0.0000000000000000e+00 0.0000000000000000e+00  0.0000000000000000e+00 0.0000000000000000e+00 0.0000000000000000e+00  0.0000000000000000e+00 0.0000000000000000e+00 0.0000000000000000e+00  0.0000000000000000e+00 0.0000000000000000e+00 0.0000000000000000e+00  0.0000000000000000e+00 0.0000000000000000e+00 0.0000000000000000e+00  0.0000000000000000e+00 0.0000000000000000e+00 0.0000000000000000e+00  0.0000000000000000e+00 0.0000000000000000e+00 0.0000000000000000e+00  0.0000000000000000e+00 0.0000000000000000e+00 0.0000000000000000e+00  0.0000000000000000e+00 0.0000000000000000e+00 0.0000000000000000e+00  0.0000000000000000e+00 0.0000000000000000e+00 0.0000000000000000e+00  0.0000000000000000e+00 0.0000000000000000e+00 0.0000000000000000e+00  0.0000000000000000e+00 0.0000000000000000e+00 0.0000000000000000e+00  0.0000000000000000e+00 0.0000000000000000e+00 0.0000000000000000e+00  0.0000000000000000e+00 0.0000000000000000e+00 0.0000000000000000e+00  0.0000000000000000e+00 0.0000000000000000e+00 0.0000000000000000e+00  0.0000000000000000e+00 0.0000000000000000e+00 0.0000000000000000e+00  0.0000000000000000e+00 0.0000000000000000e+00 0.0000000000000000e+00  0.0000000000000000e+00 0.0000000000000000e+00 0.0000000000000000e+00  0.0000000000000000e+00 0.0000000000000000e+00 0.0000000000000000e+00  0.0000000000000000e+00 0.0000000000000000e+00 0.0000000000000000e+00  0.0000000000000000e+00 0.0000000000000000e+00 0.0000000000000000e+00  0.0000000000000000e+00 0.0000000000000000e+00 0.0000000000000000e+00  0.0000000000000000e+00 0.0000000000000000e+00 0.0000000000000000e+00  0.0000000000000000e+00 0.0000000000000000e+00 0.0000000000000000e+00  0.0000000000000000e+00 0.0000000000000000e+00 0.0000000000000000e+00  0.0000000000000000e+00 0.0000000000000000e+00 0.0000000000000000e+00  0.0000000000000000e+00 0.0000000000000000e+00 0.0000000000000000e+00  0.0000000000000000e+00 0.0000000000000000e+00 0.0000000000000000e+00  0.0000000000000000e+00 0.0000000000000000e+00 0.0000000000000000e+00  0.0000000000000000e+00 0.0000000000000000e+00 0.0000000000000000e+00  0.0000000000000000e+00 0.0000000000000000e+00 0.0000000000000000e+00  0.0000000000000000e+00 0.0000000000000000e+00 0.0000000000000000e+00  0.0000000000000000e+00 0.0000000000000000e+00 0.0000000000000000e+00  0.0000000000000000e+00 0.0000000000000000e+00 0.0000000000000000e+00  0.0000000000000000e+00 0.0000000000000000e+00 0.0000000000000000e+00  0.0000000000000000e+00 0.0000000000000000e+00 0.0000000000000000e+00  0.0000000000000000e+00 0.0000000000000000e+00 0.0000000000000000e+00  0.0000000000000000e+00 0.0000000000000000e+00 0.0000000000000000e+00  0.0000000000000000e+00 0.0000000000000000e+00 0.0000000000000000e+00  0.0000000000000000e+00 0.0000000000000000e+00 0.0000000000000000e+00  0.0000000000000000e+00 0.0000000000000000e+00 0.0000000000000000e+00  0.0000000000000000e+00 0.0000000000000000e+00 0.0000000000000000e+00  0.0000000000000000e+00 0.0000000000000000e+00 0.0000000000000000e+00  0.0000000000000000e+00 0.0000000000000000e+00 0.0000000000000000e+00  0.0000000000000000e+00 0.0000000000000000e+00 0.0000000000000000e+00  0.0000000000000000e+00 0.0000000000000000e+00 0.0000000000000000e+00  0.0000000000000000e+00 0.0000000000000000e+00 0.0000000000000000e+00  0.0000000000000000e+00 0.0000000000000000e+00 0.0000000000000000e+00  0.0000000000000000e+00 0.0000000000000000e+00 0.0000000000000000e+00  0.0000000000000000e+00 0.0000000000000000e+00 0.0000000000000000e+00  0.0000000000000000e+00 0.0000000000000000e+00 0.0000000000000000e+00  0.0000000000000000e+00 0.0000000000000000e+00 0.0000000000000000e+00  0.0000000000000000e+00 0.0000000000000000e+00 0.0000000000000000e+00  0.0000000000000000e+00 0.0000000000000000e+00 0.0000000000000000e+00  0.0000000000000000e+00 0.0000000000000000e+00 0.0000000000000000e+00  0.0000000000000000e+00 0.0000000000000000e+00 0.0000000000000000e+00  0.0000000000000000e+00 0.0000000000000000e+00 0.0000000000000000e+00  0.0000000000000000e+00 0.0000000000000000e+00 0.0000000000000000e+00  0.0000000000000000e+00 0.0000000000000000e+00 0.0000000000000000e+00  0.0000000000000000e+00 0.0000000000000000e+00 0.0000000000000000e+00  0.0000000000000000e+00 0.0000000000000000e+00 0.0000000000000000e+00  0.0000000000000000e+00 0.0000000000000000e+00 0.0000000000000000e+00  0.0000000000000000e+00 0.0000000000000000e+00 0.0000000000000000e+00  -5.4881271264457361e+00 0.0000000000000000e+00 0.0000000000000000e+00  -5.4498653593724322e+00 5.7087072166085700e-03 0.0000000000000000e+00  -5.4486493334252089e+00 3.1424035613307195e-04 0.0000000000000000e+00  -5.4542361838702238e+00 1.7162159940285046e-04 0.0000000000000000e+00  -5.4597588184969101e+00 -2.6229304376118194e-04 0.0000000000000000e+00  -5.4641651642523552e+00 -7.8447228552023455e-04 0.0000000000000000e+00  -5.4674180018795484e+00 -1.2532404409402080e-03 0.0000000000000000e+00  -5.4697328947543777e+00 -1.6124450973776308e-03 0.0000000000000000e+00  -5.4713981090143111e+00 -1.8557269499117287e-03 0.0000000000000000e+00  -5.4726170310898050e+00 -2.0176458739556307e-03 0.0000000000000000e+00  -5.4735401708026856e+00 -2.1236601160571091e-03 0.0000000000000000e+00  -5.4742531012590225e+00 -2.1990889717565321e-03 0.0000000000000000e+00  -5.4747992449400664e+00 -2.2597911470990839e-03 0.0000000000000000e+00  -5.4752037859620541e+00 -2.3105681230234823e-03 0.0000000000000000e+00  -5.4754930628949801e+00 -2.3508836777849846e-03 0.0000000000000000e+00  -5.4756979362918399e+00 -2.3782663885356338e-03 0.0000000000000000e+00  -5.4758540205822923e+00 -2.3920789180633616e-03 0.0000000000000000e+00  -5.4759910853238756e+00 -2.3946151799515351e-03 0.0000000000000000e+00  -5.4761310259140163e+00 -2.3895534074360289e-03 0.0000000000000000e+00  -5.4762836969346438e+00 -2.3812364787594354e-03 0.0000000000000000e+00  -5.4764500317889775e+00 -2.3730732963525435e-03 0.0000000000000000e+00  -5.4766236804363180e+00 -2.3674799061004829e-03 0.0000000000000000e+00  -5.4767949028132028e+00 -2.3656422150917689e-03 0.0000000000000000e+00  -5.4769524848651878e+00 -2.3679153450354351e-03 0.0000000000000000e+00  -5.4770857798338373e+00 -2.3740731173942124e-03 0.0000000000000000e+00  -5.4771853123995511e+00 -2.3836039054226238e-03 0.0000000000000000e+00  -5.4772433357038608e+00 -2.3958994833783117e-03 0.0000000000000000e+00  -5.4772536523677902e+00 -2.4103637367313474e-03 0.0000000000000000e+00  -5.4772115740321183e+00 -2.4264766240346030e-03 0.0000000000000000e+00  -5.4771135565229763e+00 -2.4438098087427485e-03 0.0000000000000000e+00  -5.4769570411482675e+00 -2.4620265442521442e-03 0.0000000000000000e+00  -5.4767401531522157e+00 -2.4808730177214842e-03 0.0000000000000000e+00  -5.4764615754828094e+00 -2.5001591912030443e-03 0.0000000000000000e+00  -5.4761203546250714e+00 -2.5197505994307983e-03 0.0000000000000000e+00  -5.4757158251450759e+00 -2.5395489426500335e-03 0.0000000000000000e+00  -5.4752474996787965e+00 -2.5594884849722004e-03 0.0000000000000000e+00  -5.4747150294602092e+00 -2.5795216120405671e-03 0.0000000000000000e+00  -5.4741181469824589e+00 -2.5996183488327623e-03 0.0000000000000000e+00  -5.4734566469134966e+00 -2.6197569705639114e-03 0.0000000000000000e+00  -5.4727303580629183e+00 -2.6399248140529566e-03 0.0000000000000000e+00  -5.4719391346033470e+00 -2.6601126440966259e-03 0.0000000000000000e+00  -5.4710828431140213e+00 -2.6803156986381048e-03 0.0000000000000000e+00  -5.4701613586713407e+00 -2.7005304914343295e-03 0.0000000000000000e+00  -5.4691745591913614e+00 -2.7207556741163205e-03 0.0000000000000000e+00  -5.4681223237153747e+00 -2.7409902980262356e-03 0.0000000000000000e+00  -5.4670045301039458e+00 -2.7612344060490442e-03 0.0000000000000000e+00  -5.4658210542911858e+00 -2.7814881178972631e-03 0.0000000000000000e+00  -5.4645717694335572e+00 -2.8017519974438969e-03 0.0000000000000000e+00  -5.4632565455918467e+00 -2.8220265844823241e-03 0.0000000000000000e+00  -5.4618752494867167e+00 -2.8423126044971043e-03 0.0000000000000000e+00  -5.4604277443840017e+00 -2.8626107337904722e-03 0.0000000000000000e+00  -5.4589138901010719e+00 -2.8829217039175112e-03 0.0000000000000000e+00  -5.4573335430193355e+00 -2.9032461851275513e-03 0.0000000000000000e+00  -5.4556865562157020e+00 -2.9235848219248389e-03 0.0000000000000000e+00  -5.4539727796047819e+00 -2.9439381604168847e-03 0.0000000000000000e+00  -5.4521920602448102e+00 -2.9643066292074456e-03 0.0000000000000000e+00  -5.4503442427257243e+00 -2.9846904327826261e-03 0.0000000000000000e+00  -5.4484291700033998e+00 -3.0050894131173310e-03 0.0000000000000000e+00  -5.4464466844910833e+00 -3.0255027656907723e-03 0.0000000000000000e+00  -5.4443966309787237e+00 -3.0459285316143526e-03 0.0000000000000000e+00  -5.4422788594822151e+00 -3.0663627340467700e-03 0.0000000000000000e+00  -5.4400932367867769e+00 -3.0867976681191837e-03 0.0000000000000000e+00  -5.4378396511729239e+00 -3.1072194899940723e-03 0.0000000000000000e+00  -5.4355180599945934e+00 -3.1276025532302391e-03 0.0000000000000000e+00  -5.4331284808020390e+00 -3.1479040879080909e-03 0.0000000000000000e+00  -5.4306711801319034e+00 -3.1680451148505952e-03 0.0000000000000000e+00  -5.4281465766355463e+00 -3.1879021378633499e-03 0.0000000000000000e+00  -5.4255558092576583e+00 -3.2072546077539592e-03 0.0000000000000000e+00  -5.4229007978473689e+00 -3.2257134539606068e-03 0.0000000000000000e+00  -5.4201838365180706e+00 -3.2428837216029638e-03 0.0000000000000000e+00  -5.4174152246388596e+00 -3.2568063372239347e-03 0.0000000000000000e+00  -5.4145877876222208e+00 -3.2698353021487991e-03 0.0000000000000000e+00  -5.4117608208532895e+00 -3.2687861482320725e-03 0.0000000000000000e+00  -5.4088223725049289e+00 -3.2992659412250181e-03 0.0000000000000000e+00  -5.4060124942859229e+00 -3.2918906805443340e-03 0.0000000000000000e+00  -5.4027686368038239e+00 -3.4833772747412399e-03 0.0000000000000000e+00  -5.4005399911688050e+00 -3.0248590015268177e-03 0.0000000000000000e+00  -5.3980802933898326e+00 -2.1359236753049579e-03 0.0000000000000000e+00  -5.3972932847384172e+00 -5.1564886794171431e-03 0.0000000000000000e+00  -5.3854667308784183e+00 -2.8849623198666387e-02 0.0000000000000000e+00  -5.3806784283315618e+00 0.0000000000000000e+00 0.0000000000000000e+00  -6.5982631407015164e+00 0.0000000000000000e+00 0.0000000000000000e+00  -6.6064264199908038e+00 2.7643988255024849e-03 0.0000000000000000e+00  -6.6120279909110629e+00 7.0010740756817919e-03 0.0000000000000000e+00  -6.6157146278842607e+00 7.0518977393989888e-03 0.0000000000000000e+00  -6.6186044994751372e+00 6.0676985264047217e-03 0.0000000000000000e+00  -6.6208801959375103e+00 4.9134743368019953e-03 0.0000000000000000e+00  -6.6228938666273445e+00 3.9757842296525058e-03 0.0000000000000000e+00  -6.6247849082007217e+00 3.2864980948325855e-03 0.0000000000000000e+00  -6.6265982314505179e+00 2.8188246436588586e-03 0.0000000000000000e+00  -6.6283265370095066e+00 2.4959518480926614e-03 0.0000000000000000e+00  -6.6299559348479642e+00 2.2650768116159645e-03 0.0000000000000000e+00  -6.6314660088938213e+00 2.0788037906997441e-03 0.0000000000000000e+00  -6.6328470646701074e+00 1.9181714335612225e-03 0.0000000000000000e+00  -6.6341056419929449e+00 1.7824085505813447e-03 0.0000000000000000e+00  -6.6352710853058632e+00 1.6803628713716861e-03 0.0000000000000000e+00  -6.6363777164727358e+00 1.6163176843887561e-03 0.0000000000000000e+00  -6.6374571655043884e+00 1.5873117412145334e-03 0.0000000000000000e+00  -6.6385257069388555e+00 1.5828515623782520e-03 0.0000000000000000e+00  -6.6395866688740544e+00 1.5907687445149137e-03 0.0000000000000000e+00  -6.6406311586933144e+00 1.5995541074041539e-03 0.0000000000000000e+00  -6.6416450574506580e+00 1.6014977286078424e-03 0.0000000000000000e+00  -6.6426118494417628e+00 1.5920712382827662e-03 0.0000000000000000e+00  -6.6435165464464738e+00 1.5699549054669114e-03 0.0000000000000000e+00  -6.6443462493490220e+00 1.5355436667686864e-03 0.0000000000000000e+00  -6.6450910784829178e+00 1.4904046364657337e-03 0.0000000000000000e+00  -6.6457435036957637e+00 1.4363849334783811e-03 0.0000000000000000e+00  -6.6462982075389609e+00 1.3753771134673843e-03 0.0000000000000000e+00  -6.6467513520031156e+00 1.3090130995752356e-03 0.0000000000000000e+00  -6.6471003331547855e+00 1.2386627248004139e-03 0.0000000000000000e+00  -6.6473433069217700e+00 1.1653855391487193e-03 0.0000000000000000e+00  -6.6474790427845889e+00 1.0899986004609388e-03 0.0000000000000000e+00  -6.6475066658553832e+00 1.0130967556583551e-03 0.0000000000000000e+00  -6.6474255903229000e+00 9.3511782623345021e-04 0.0000000000000000e+00  -6.6472353878256989e+00 8.5636648785479292e-04 0.0000000000000000e+00  -6.6469357608093542e+00 7.7706032292304723e-04 0.0000000000000000e+00  -6.6465264769750441e+00 6.9734430255955621e-04 0.0000000000000000e+00  -6.6460073594111515e+00 6.1731949172513583e-04 0.0000000000000000e+00  -6.6453782545069338e+00 5.3704970946308989e-04 0.0000000000000000e+00  -6.6446390285094141e+00 4.5657817141262391e-04 0.0000000000000000e+00  -6.6437895522033612e+00 3.7592985089313568e-04 0.0000000000000000e+00  -6.6428296997768257e+00 2.9512064631171932e-04 0.0000000000000000e+00  -6.6417593417838230e+00 2.1415786744292194e-04 0.0000000000000000e+00  -6.6405783447953910e+00 1.3304508326275773e-04 0.0000000000000000e+00  -6.6392865683604398e+00 5.1781966852732876e-05 0.0000000000000000e+00  -6.6378838648930554e+00 -2.9633234969734248e-05 0.0000000000000000e+00  -6.6363700784758297e+00 -1.1120396597743770e-04 0.0000000000000000e+00  -6.6347450448320844e+00 -1.9293414794584440e-04 0.0000000000000000e+00  -6.6330085909302809e+00 -2.7482839452723859e-04 0.0000000000000000e+00  -6.6311605349924925e+00 -3.5689142477414557e-04 0.0000000000000000e+00  -6.6292006864474473e+00 -4.3912819210970201e-04 0.0000000000000000e+00  -6.6271288459777837e+00 -5.2154360914754747e-04 0.0000000000000000e+00  -6.6249448056281031e+00 -6.0414259608432145e-04 0.0000000000000000e+00  -6.6226483489171910e+00 -6.8692994115815897e-04 0.0000000000000000e+00  -6.6202392510348664e+00 -7.6991028755759910e-04 0.0000000000000000e+00  -6.6177172790642427e+00 -8.5308801248100473e-04 0.0000000000000000e+00  -6.6150821923262226e+00 -9.3646711467451692e-04 0.0000000000000000e+00  -6.6123337429025302e+00 -1.0200509402685286e-03 0.0000000000000000e+00  -6.6094716764440902e+00 -1.1038417348677159e-03 0.0000000000000000e+00  -6.6064957339672823e+00 -1.1878396811020628e-03 0.0000000000000000e+00  -6.6034056543210964e+00 -1.2720413373837969e-03 0.0000000000000000e+00  -6.6002011814747625e+00 -1.3564360625214788e-03 0.0000000000000000e+00  -6.5968820717198176e+00 -1.4410013697163870e-03 0.0000000000000000e+00  -6.5934481239914655e+00 -1.5256896813659658e-03 0.0000000000000000e+00  -6.5898991944241576e+00 -1.6104183484500485e-03 0.0000000000000000e+00  -6.5862353194920384e+00 -1.6950187892943920e-03 0.0000000000000000e+00  -6.5824567157097853e+00 -1.7792361725935553e-03 0.0000000000000000e+00  -6.5785642329226635e+00 -1.8625227930809736e-03 0.0000000000000000e+00  -6.5745592744028780e+00 -1.9441804428315002e-03 0.0000000000000000e+00  -6.5704449113343442e+00 -2.0225565558506220e-03 0.0000000000000000e+00  -6.5662269411179155e+00 -2.0957777980017563e-03 0.0000000000000000e+00  -6.5619111948024686e+00 -2.1599411397245139e-03 0.0000000000000000e+00  -6.5575240354901219e+00 -2.2087869214896497e-03 0.0000000000000000e+00  -6.5530520790229083e+00 -2.2464621546610356e-03 0.0000000000000000e+00  -6.5486275137178023e+00 -2.2492404063098417e-03 0.0000000000000000e+00  -6.5440866143856518e+00 -2.3265955985808588e-03 0.0000000000000000e+00  -6.5401138347096861e+00 -2.1794560953765727e-03 0.0000000000000000e+00  -6.5358901682792041e+00 -1.5430410149719716e-03 0.0000000000000000e+00  -6.5332637071782331e+00 1.1568801722120716e-04 0.0000000000000000e+00  -6.5278495629807303e+00 -5.0790622732555862e-03 0.0000000000000000e+00  -6.5466358293541873e+00 9.2693348032204647e-03 0.0000000000000000e+00  -6.5344924010750045e+00 0.0000000000000000e+00 0.0000000000000000e+00  -3.5875197147745537e+00 0.0000000000000000e+00 0.0000000000000000e+00  -3.5943970631772904e+00 5.4484492453213918e-03 0.0000000000000000e+00  -3.5945605673970276e+00 6.6258926990354411e-03 0.0000000000000000e+00  -3.5929955103594224e+00 6.1976551465983062e-03 0.0000000000000000e+00  -3.5918324497411702e+00 5.2384417931883795e-03 0.0000000000000000e+00  -3.5917996512459842e+00 4.3617546533622409e-03 0.0000000000000000e+00  -3.5929305514652352e+00 3.7156919422744392e-03 0.0000000000000000e+00  -3.5949150099503724e+00 3.2377276695696074e-03 0.0000000000000000e+00  -3.5974060396354162e+00 2.8637223103501236e-03 0.0000000000000000e+00  -3.6001225177994720e+00 2.5598792363780475e-03 0.0000000000000000e+00  -3.6028986709627309e+00 2.2948241006292632e-03 0.0000000000000000e+00  -3.6056360637173790e+00 2.0473884669078880e-03 0.0000000000000000e+00  -3.6083019320604612e+00 1.8196939494857047e-03 0.0000000000000000e+00  -3.6108997374565170e+00 1.6284035433891074e-03 0.0000000000000000e+00  -3.6134517220812330e+00 1.4893060338537416e-03 0.0000000000000000e+00  -3.6159746109106963e+00 1.4041240973163328e-03 0.0000000000000000e+00  -3.6184714019474424e+00 1.3602693825273510e-03 0.0000000000000000e+00  -3.6209283082697397e+00 1.3382976318293649e-03 0.0000000000000000e+00  -3.6233230976084871e+00 1.3188204745258822e-03 0.0000000000000000e+00  -3.6256302786077850e+00 1.2880435209610850e-03 0.0000000000000000e+00  -3.6278284881016623e+00 1.2382042426127057e-03 0.0000000000000000e+00  -3.6299016243080855e+00 1.1671465659512997e-03 0.0000000000000000e+00  -3.6318403057262589e+00 1.0759581783038781e-03 0.0000000000000000e+00  -3.6336398876664622e+00 9.6760758725806259e-04 0.0000000000000000e+00  -3.6352995321965054e+00 8.4544737980205573e-04 0.0000000000000000e+00  -3.6368202911790779e+00 7.1271302343719469e-04 0.0000000000000000e+00  -3.6382043066470060e+00 5.7208653386854233e-04 0.0000000000000000e+00  -3.6394538705583259e+00 4.2571772702583628e-04 0.0000000000000000e+00  -3.6405711723514695e+00 2.7521604377507704e-04 0.0000000000000000e+00  -3.6415580155892351e+00 1.2177683104343896e-04 0.0000000000000000e+00  -3.6424158513699174e+00 -3.3744566723650844e-05 0.0000000000000000e+00  -3.6431457519267996e+00 -1.9073769990688742e-04 0.0000000000000000e+00  -3.6437485110061201e+00 -3.4877728141533601e-04 0.0000000000000000e+00  -3.6442246749512122e+00 -5.0756842406999387e-04 0.0000000000000000e+00  -3.6445746259103786e+00 -6.6691122326290335e-04 0.0000000000000000e+00  -3.6447986080822359e+00 -8.2667144543466058e-04 0.0000000000000000e+00  -3.6448967801036098e+00 -9.8676208915990924e