<?xml version="1.0"?>
<VTKFile type="UnstructuredGrid"  version="0.1"  >
<UnstructuredGrid>
<Piece  NumberOfPoints="1369" NumberOfCells="2560">
<Points>
<DataArray  type="Float64"  NumberOfComponents="3"  format="ascii">0 0 0  0.75 0 0  1.5 0 0  2.25 0 0  3 0 0  3.75 0 0  4.5 0 0  5.25 0 0  6 0 0  6.75 0 0  7.5 0 0  8.25 0 0  9 0 0  9.75 0 0  10.5 0 0  11.25 0 0  12 0 0  12.75 0 0  13.5 0 0  14.25 0 0  15 0 0  15.75 0 0  16.5 0 0  17.25 0 0  18 0 0  18.75 0 0  19.5 0 0  20.25 0 0  21 0 0  21.75 0 0  22.5 0 0  23.25 0 0  24 0 0  24.75 0 0  25.5 0 0  26.25 0 0  27 0 0  27.75 0 0  28.5 0 0  29.25 0 0  30 0 0  30.75 0 0  31.5 0 0  32.25 0 0  33 0 0  33.75 0 0  34.5 0 0  35.25 0 0  36 0 0  36.75 0 0  37.5 0 0  38.25 0 0  39 0 0  39.75 0 0  40.5 0 0  41.25 0 0  42 0 0  42.75 0 0  43.5 0 0  44.25 0 0  45 0 0  45.75 0 0  46.5 0 0  47.25 0 0  48 0 0  48.75 0 0  49.5 0 0  50.25 0 0  51 0 0  51.75 0 0  52.5 0 0  53.25 0 0  54 0 0  54.75 0 0  55.5 0 0  56.25 0 0  57 0 0  57.75 0 0  58.5 0 0  59.25 0 0  60 0 0  0 0.5 0  0.75 0.500033439609788 0  1.5 0.500066483271069 0  2.25 0.5000989652170555 0  3 0.500130763445131 0  3.75 0.5001617973472864 0  4.5 0.5001920176421788 0  5.25 0.50022139566645 0  6 0.5002499152346425 0  6.75 0.5002775673620936 0  7.5 0.5003043471118339 0  8.25 0.5003302517887178 0  9 0.5003552799282888 0  9.75 0.5003794307377917 0  10.5 0.5004027037895343 0  11.25 0.5004250988535375 0  12 0.5004466158065713 0  12.75 0.5004672545828635 0  13.5 0.5004870151474723 0  14.25 0.5005058974819494 0  15 0.5005239015766346 0  15.75 0.5005410274265367 0  16.5 0.5005572750291284 0  17.25 0.5005726443831774 0  18 0.5005871354881289 0  18.75 0.500600748343774 0  19.5 0.5006134829500799 0  20.25 0.500625339307099 0  21 0.5006363174149239 0  21.75 0.5006464172736601 0  22.5 0.500655638883416 0  23.25 0.5006639822442966 0  24 0.5006714473563982 0  24.75 0.5006780342198085 0  25.5 0.5006837428346051 0  26.25 0.5006885732008567 0  27 0.5006925253186204 0  27.75 0.5006955991879434 0  28.5 0.5006977948088618 0  29.25 0.5006991121814028 0  30 0.5006995513055815 0  30.75 0.5006991121814028 0  31.5 0.5006977948088618 0  32.25 0.5006955991879434 0  33 0.5006925253186204 0  33.75 0.5006885732008568 0  34.5 0.5006837428346051 0  35.25 0.5006780342198085 0  36 0.5006714473563982 0  36.75 0.5006639822442966 0  37.5 0.500655638883416 0  38.25 0.5006464172736601 0  39 0.5006363174149239 0  39.75 0.500625339307099 0  40.5 0.50061348295008 0  41.25 0.500600748343774 0  42 0.5005871354881289 0  42.75 0.5005726443831774 0  43.5 0.5005572750291283 0  44.25 0.5005410274265367 0  45 0.5005239015766346 0  45.75 0.5005058974819494 0  46.5 0.5004870151474723 0  47.25 0.5004672545828635 0  48 0.5004466158065713 0  48.75 0.5004250988535375 0  49.5 0.5004027037895343 0  50.25 0.5003794307377917 0  51 0.5003552799282888 0  51.75 0.5003302517887178 0  52.5 0.5003043471118339 0  53.25 0.5002775673620936 0  54 0.5002499152346425 0  54.75 0.50022139566645 0  55.5 0.5001920176421788 0  56.25 0.5001617973472864 0  57 0.500130763445131 0  57.75 0.5000989652170555 0  58.5 0.500066483271069 0  59.25 0.500033439609788 0  60 0.5 0  0 1 0  0.75 1.000066969122061 0  1.5 1.000133131202475 0  2.25 1.000198149388427 0  3 1.000261781550728 0  3.75 1.000323871543278 0  4.5 1.000384325697457 0  5.25 1.000443090192654 0  6 1.000500134846578 0  6.75 1.000555442966462 0  7.5 1.00060900539755 0  8.25 1.0006608171472 0  9 1.000710875504003 0  9.75 1.000759179000603 0  10.5 1.000805726845478 0  11.25 1.000850518613057 0  12 1.000893554075312 0  12.75 1.000934833110552 0  13.5 1.000974355654133 0  14.25 1.001012121671931 0  15 1.001048131146083 0  15.75 1.00108238406736 0  16.5 1.001114880431103 0  17.25 1.001145620235039 0  18 1.001174603478152 0  18.75 1.001201830160063 0  19.5 1.001227300280722 0  20.25 1.001251013840235 0  21 1.001272970838779 0  21.75 1.001293171276558 0  22.5 1.001311615153777 0  23.25 1.001328302470637 0  24 1.001343233227323 0  24.75 1.001356407424001 0  25.5 1.001367825060819 0  26.25 1.001377486137909 0  27 1.001385390655377 0  27.75 1.001391538613316 0  28.5 1.001395930011793 0  29.25 1.001398564850859 0  30 1.001399443130544 0  30.75 1.001398564850859 0  31.5 1.001395930011793 0  32.25 1.001391538613316 0  33 1.001385390655377 0  33.75 1.001377486137909 0  34.5 1.001367825060819 0  35.25 1.001356407424001 0  36 1.001343233227323 0  36.75 1.001328302470637 0  37.5 1.001311615153777 0  38.25 1.001293171276558 0  39 1.001272970838779 0  39.75 1.001251013840235 0  40.5 1.001227300280722 0  41.25 1.001201830160063 0  42 1.001174603478152 0  42.75 1.001145620235039 0  43.5 1.001114880431103 0  44.25 1.00108238406736 0  45 1.001048131146083 0  45.75 1.001012121671931 0  46.5 1.000974355654133 0  47.25 1.000934833110552 0  48 1.000893554075312 0  48.75 1.000850518613057 0  49.5 1.000805726845478 0  50.25 1.000759179000603 0  51 1.000710875504003 0  51.75 1.0006608171472 0  52.5 1.00060900539755 0  53.25 1.000555442966462 0  54 1.000500134846578 0  54.75 1.000443090192654 0  55.5 1.000384325697457 0  56.25 1.000323871543278 0  57 1.000261781550728 0  57.75 1.000198149388427 0  58.5 1.000133131202475 0  59.25 1.000066969122061 0  60 1 0  0 1.5 0  0.75 1.500100684631568 0  1.5 1.500200117122177 0  2.25 1.500297779124038 0  3 1.500393314325946 0  3.75 1.5004865027193 0  4.5 1.500577216452996 0  5.25 1.50066538346007 0  6 1.50075096374755 0  6.75 1.500833935319303 0  7.5 1.500914286147143 0  8.25 1.500992009681343 0  9 1.501067102367704 0  9.75 1.501139562283589 0  10.5 1.501209388392132 0  11.25 1.501276580135926 0  12 1.501341137216349 0  12.75 1.501403059474042 0  13.5 1.501462346824377 0  14.25 1.501518999222686 0  15 1.501573016645606 0  15.75 1.501624399081078 0  16.5 1.50167314652302 0  17.25 1.501719258968482 0  18 1.501762736416155 0  18.75 1.501803578865565 0  19.5 1.501841786316667 0  20.25 1.501877358769616 0  21 1.501910296224664 0  21.75 1.501940598682094 0  22.5 1.501968266142191 0  23.25 1.501993298605229 0  24 1.502015696071462 0  24.75 1.502035458541122 0  25.5 1.502052586014411 0  26.25 1.502067078491508 0  27 1.502078935972565 0  27.75 1.502088158457703 0  28.5 1.502094745947017 0  29.25 1.502098698440579 0  30 1.502100015938428 0  30.75 1.502098698440579 0  31.5 1.502094745947017 0  32.25 1.502088158457703 0  33 1.502078935972565 0  33.75 1.502067078491508 0  34.5 1.502052586014411 0  35.25 1.502035458541122 0  36 1.502015696071462 0  36.75 1.501993298605229 0  37.5 1.501968266142191 0  38.25 1.501940598682094 0  39 1.501910296224664 0  39.75 1.501877358769616 0  40.5 1.501841786316667 0  41.25 1.501803578865566 0  42 1.501762736416155 0  42.75 1.501719258968482 0  43.5 1.50167314652302 0  44.25 1.501624399081078 0  45 1.501573016645606 0  45.75 1.501518999222686 0  46.5 1.501462346824377 0  47.25 1.501403059474042 0  48 1.501341137216349 0  48.75 1.501276580135926 0  49.5 1.501209388392132 0  50.25 1.501139562283589 0  51 1.501067102367705 0  51.75 1.500992009681343 0  52.5 1.500914286147143 0  53.25 1.500833935319303 0  54 1.50075096374755 0  54.75 1.50066538346007 0  55.5 1.500577216452996 0  56.25 1.5004865027193 0  57 1.500393314325946 0  57.75 1.500297779124038 0  58.5 1.500200117122177 0  59.25 1.500100684631568 0  60 1.5 0  0 2 0  0.75 2.000134696524912 0  1.5 2.000267633351654 0  2.25 2.00039809684489 0  3 2.00052563231909 0  3.75 2.000649977290732 0  4.5 2.000770985727028 0  5.25 2.000888577256998 0  6 2.0010027078391 0  6.75 2.001113353410627 0  7.5 2.001220500858847 0  8.25 2.0013241430564 0  9 2.001424276139339 0  9.75 2.001520898018524 0  10.5 2.001614007567635 0  11.25 2.001703604181283 0  12 2.001789687535187 0  12.75 2.001872257456331 0  13.5 2.001951313852857 0  14.25 2.002026856676301 0  15 2.002098885901336 0  15.75 2.002167401514912 0  16.5 2.002232403510461 0  17.25 2.002293891884821 0  18 2.002351866636606 0  18.75 2.00240632776534 0  19.5 2.002457275271002 0  20.25 2.002504709153794 0  21 2.002548629414018 0  21.75 2.002589036052007 0  22.5 2.002625929068094 0  23.25 2.002659308462603 0  24 2.002689174235828 0  24.75 2.002715526388035 0  25.5 2.002738364919466 0  26.25 2.002757689830325 0  27 2.002773501120789 0  27.75 2.002785798791002 0  28.5 2.002794582841073 0  29.25 2.002799853271085 0  30 2.002801610081082 0  30.75 2.002799853271085 0  31.5 2.002794582841073 0  32.25 2.002785798791002 0  33 2.002773501120788 0  33.75 2.002757689830326 0  34.5 2.002738364919466 0  35.25 2.002715526388035 0  36 2.002689174235827 0  36.75 2.002659308462603 0  37.5 2.002625929068094 0  38.25 2.002589036052007 0  39 2.002548629414017 0  39.75 2.002504709153794 0  40.5 2.002457275271002 0  41.25 2.00240632776534 0  42 2.002351866636606 0  42.75 2.002293891884821 0  43.5 2.00223240351046 0  44.25 2.002167401514912 0  45 2.002098885901336 0  45.75 2.002026856676301 0  46.5 2.001951313852857 0  47.25 2.001872257456331 0  48 2.001789687535187 0  48.75 2.001703604181283 0  49.5 2.001614007567635 0  50.25 2.001520898018524 0  51 2.001424276139339 0  51.75 2.0013241430564 0  52.5 2.001220500858847 0  53.25 2.001113353410627 0  54 2.0010027078391 0  54.75 2.000888577256998 0  55.5 2.000770985727028 0  56.25 2.000649977290732 0  57 2.00052563231909 0  57.75 2.00039809684489 0  58.5 2.000267633351654 0  59.25 2.000134696524912 0  60 2 0  0 2.5 0  0.75 2.50016914271882 0  1.5 2.500335905228364 0  2.25 2.500499369605504 0  3 2.500659021261598 0  3.75 2.500814590338024 0  4.5 2.500965934091774 0  5.25 2.501112975900595 0  6 2.50125567431811 0  6.75 2.501394006851437 0  7.5 2.501527961286338 0  8.25 2.501657530996072 0  9 2.501782712391595 0  9.75 2.501903503533449 0  10.5 2.502019903376326 0  11.25 2.502131911358505 0  12 2.502239527179154 0  12.75 2.502342750677804 0  13.5 2.502441581769289 0  14.25 2.502536020408706 0  15 2.502626066572617 0  15.75 2.502711720248967 0  16.5 2.502792981431719 0  17.25 2.502869850117993 0  18 2.50294232630655 0  18.75 2.50301040999699 0  19.5 2.503074101189344 0  20.25 2.503133399883834 0  21 2.50318830608078 0 
[...]
<PointData  Vectors="f_10-0"> 
<DataArray  type="Float64"  Name="f_10-0"  NumberOfComponents="3" format="ascii">0.0000000000000000e+00 0.0000000000000000e+00 0.0000000000000000e+00  0.0000000000000000e+00 0.0000000000000000e+00 0.0000000000000000e+00  0.0000000000000000e+00 0.0000000000000000e+00 0.0000000000000000e+00  0.0000000000000000e+00 0.0000000000000000e+00 0.0000000000000000e+00  0.0000000000000000e+00 0.0000000000000000e+00 0.0000000000000000e+00  0.0000000000000000e+00 0.0000000000000000e+00 0.0000000000000000e+00  0.0000000000000000e+00 0.0000000000000000e+00 0.0000000000000000e+00  0.0000000000000000e+00 0.0000000000000000e+00 0.0000000000000000e+00  0.0000000000000000e+00 0.0000000000000000e+00 0.0000000000000000e+00  0.0000000000000000e+00 0.0000000000000000e+00 0.0000000000000000e+00  0.0000000000000000e+00 0.0000000000000000e+00 0.0000000000000000e+00  0.0000000000000000e+00 0.0000000000000000e+00 0.0000000000000000e+00  0.0000000000000000e+00 0.0000000000000000e+00 0.0000000000000000e+00  0.0000000000000000e+00 0.0000000000000000e+00 0.0000000000000000e+00  0.0000000000000000e+00 0.0000000000000000e+00 0.0000000000000000e+00  0.0000000000000000e+00 0.0000000000000000e+00 0.0000000000000000e+00  0.0000000000000000e+00 0.0000000000000000e+00 0.0000000000000000e+00  0.0000000000000000e+00 0.0000000000000000e+00 0.0000000000000000e+00  0.0000000000000000e+00 0.0000000000000000e+00 0.0000000000000000e+00  0.0000000000000000e+00 0.0000000000000000e+00 0.0000000000000000e+00  0.0000000000000000e+00 0.0000000000000000e+00 0.0000000000000000e+00  0.0000000000000000e+00 0.0000000000000000e+00 0.0000000000000000e+00  0.0000000000000000e+00 0.0000000000000000e+00 0.0000000000000000e+00  0.0000000000000000e+00 0.0000000000000000e+00 0.0000000000000000e+00  0.0000000000000000e+00 0.0000000000000000e+00 0.0000000000000000e+00  0.0000000000000000e+00 0.0000000000000000e+00 0.0000000000000000e+00  0.0000000000000000e+00 0.0000000000000000e+00 0.0000000000000000e+00  0.0000000000000000e+00 0.0000000000000000e+00 0.0000000000000000e+00  0.0000000000000000e+00 0.0000000000000000e+00 0.0000000000000000e+00  0.0000000000000000e+00 0.0000000000000000e+00 0.0000000000000000e+00  0.0000000000000000e+00 0.0000000000000000e+00 0.0000000000000000e+00  0.0000000000000000e+00 0.0000000000000000e+00 0.0000000000000000e+00  0.0000000000000000e+00 0.0000000000000000e+00 0.0000000000000000e+00  0.0000000000000000e+00 0.0000000000000000e+00 0.0000000000000000e+00  0.0000000000000000e+00 0.0000000000000000e+00 0.0000000000000000e+00  0.0000000000000000e+00 0.0000000000000000e+00 0.0000000000000000e+00  0.0000000000000000e+00 0.0000000000000000e+00 0.0000000000000000e+00  0.0000000000000000e+00 0.0000000000000000e+00 0.0000000000000000e+00  0.0000000000000000e+00 0.0000000000000000e+00 0.0000000000000000e+00  0.0000000000000000e+00 0.0000000000000000e+00 0.0000000000000000e+00  0.0000000000000000e+00 0.0000000000000000e+00 0.0000000000000000e+00  0.0000000000000000e+00 0.0000000000000000e+00 0.0000000000000000e+00  0.0000000000000000e+00 0.0000000000000000e+00 0.0000000000000000e+00  0.0000000000000000e+00 0.0000000000000000e+00 0.0000000000000000e+00  0.0000000000000000e+00 0.0000000000000000e+00 0.0000000000000000e+00  0.0000000000000000e+00 0.0000000000000000e+00 0.0000000000000000e+00  0.0000000000000000e+00 0.0000000000000000e+00 0.0000000000000000e+00  0.0000000000000000e+00 0.0000000000000000e+00 0.0000000000000000e+00  0.0000000000000000e+00 0.0000000000000000e+00 0.0000000000000000e+00  0.0000000000000000e+00 0.0000000000000000e+00 0.0000000000000000e+00  0.0000000000000000e+00 0.0000000000000000e+00 0.0000000000000000e+00  0.0000000000000000e+00 0.0000000000000000e+00 0.0000000000000000e+00  0.0000000000000000e+00 0.0000000000000000e+00 0.0000000000000000e+00  0.0000000000000000e+00 0.0000000000000000e+00 0.0000000000000000e+00  0.0000000000000000e+00 0.0000000000000000e+00 0.0000000000000000e+00  0.0000000000000000e+00 0.0000000000000000e+00 0.0000000000000000e+00  0.0000000000000000e+00 0.0000000000000000e+00 0.0000000000000000e+00  0.0000000000000000e+00 0.0000000000000000e+00 0.0000000000000000e+00  0.0000000000000000e+00 0.0000000000000000e+00 0.0000000000000000e+00  0.0000000000000000e+00 0.0000000000000000e+00 0.0000000000000000e+00  0.0000000000000000e+00 0.0000000000000000e+00 0.0000000000000000e+00  0.0000000000000000e+00 0.0000000000000000e+00 0.0000000000000000e+00  0.0000000000000000e+00 0.0000000000000000e+00 0.0000000000000000e+00  0.0000000000000000e+00 0.0000000000000000e+00 0.0000000000000000e+00  0.0000000000000000e+00 0.0000000000000000e+00 0.0000000000000000e+00  0.0000000000000000e+00 0.0000000000000000e+00 0.0000000000000000e+00  0.0000000000000000e+00 0.0000000000000000e+00 0.0000000000000000e+00  0.0000000000000000e+00 0.0000000000000000e+00 0.0000000000000000e+00  0.0000000000000000e+00 0.0000000000000000e+00 0.0000000000000000e+00  0.0000000000000000e+00 0.0000000000000000e+00 0.0000000000000000e+00  0.0000000000000000e+00 0.0000000000000000e+00 0.0000000000000000e+00  0.0000000000000000e+00 0.0000000000000000e+00 0.0000000000000000e+00  0.0000000000000000e+00 0.0000000000000000e+00 0.0000000000000000e+00  0.0000000000000000e+00 0.0000000000000000e+00 0.0000000000000000e+00  0.0000000000000000e+00 0.0000000000000000e+00 0.0000000000000000e+00  0.0000000000000000e+00 0.0000000000000000e+00 0.0000000000000000e+00  0.0000000000000000e+00 0.0000000000000000e+00 0.0000000000000000e+00  0.0000000000000000e+00 0.0000000000000000e+00 0.0000000000000000e+00  0.0000000000000000e+00 0.0000000000000000e+00 0.0000000000000000e+00  0.0000000000000000e+00 0.0000000000000000e+00 0.0000000000000000e+00  0.0000000000000000e+00 0.0000000000000000e+00 0.0000000000000000e+00  -1.0723443260427281e+01 0.0000000000000000e+00 0.0000000000000000e+00  -1.0686953523917669e+01 2.4502788842601119e-03 0.0000000000000000e+00  -1.0680419910268103e+01 -2.5028565622635720e-03 0.0000000000000000e+00  -1.0681817549679645e+01 -2.8383791471772038e-03 0.0000000000000000e+00  -1.0684030065797071e+01 -2.9734416309479452e-03 0.0000000000000000e+00  -1.0686213810421346e+01 -3.0577445597549792e-03 0.0000000000000000e+00  -1.0688325905592299e+01 -3.0676701035185576e-03 0.0000000000000000e+00  -1.0690537885940886e+01 -3.0187837458947836e-03 0.0000000000000000e+00  -1.0692892955979829e+01 -2.9660160541218629e-03 0.0000000000000000e+00  -1.0695349022278927e+01 -2.9331919462693094e-03 0.0000000000000000e+00  -1.0697829967010673e+01 -2.9272929916486141e-03 0.0000000000000000e+00  -1.0700279255564354e+01 -2.9384827064278716e-03 0.0000000000000000e+00  -1.0702671034767913e+01 -2.9569581524222632e-03 0.0000000000000000e+00  -1.0704996587562279e+01 -2.9777390465357506e-03 0.0000000000000000e+00  -1.0707253166214915e+01 -2.9997077013020042e-03 0.0000000000000000e+00  -1.0709436424942638e+01 -3.0234627021471891e-03 0.0000000000000000e+00  -1.0711540018999644e+01 -3.0496673213582788e-03 0.0000000000000000e+00  -1.0713557097565962e+01 -3.0782457254749413e-03 0.0000000000000000e+00  -1.0715481760506378e+01 -3.1088248134785558e-03 0.0000000000000000e+00  -1.0717309950407945e+01 -3.1406602128771386e-03 0.0000000000000000e+00  -1.0719039526496509e+01 -3.1731116999771237e-03 0.0000000000000000e+00  -1.0720669906442723e+01 -3.2056349298375431e-03 0.0000000000000000e+00  -1.0722201397963357e+01 -3.2379896571010608e-03 0.0000000000000000e+00  -1.0723634505885434e+01 -3.2701411504891414e-03 0.0000000000000000e+00  -1.0724969490466590e+01 -3.3022120462162362e-03 0.0000000000000000e+00  -1.0726206201037504e+01 -3.3343419938178672e-03 0.0000000000000000e+00  -1.0727344177391442e+01 -3.3666304320815357e-03 0.0000000000000000e+00  -1.0728382824180141e+01 -3.3991052883506050e-03 0.0000000000000000e+00  -1.0729321580987763e+01 -3.4317441903568002e-03 0.0000000000000000e+00  -1.0730160002812857e+01 -3.4645007292407716e-03 0.0000000000000000e+00  -1.0730897776543687e+01 -3.4973296076393065e-03 0.0000000000000000e+00  -1.0731534690120018e+01 -3.5301975126963022e-03 0.0000000000000000e+00  -1.0732070595687750e+01 -3.5630845580069729e-03 0.0000000000000000e+00  -1.0732505378941372e+01 -3.5959801829158595e-03 0.0000000000000000e+00  -1.0732838942844987e+01 -3.6288786883254876e-03 0.0000000000000000e+00  -1.0733071199401831e+01 -3.6617766309670909e-03 0.0000000000000000e+00  -1.0733202065115563e+01 -3.6946721555693018e-03 0.0000000000000000e+00  -1.0733231455816963e+01 -3.7275653609958404e-03 0.0000000000000000e+00  -1.0733159280976611e+01 -3.7604584585861165e-03 0.0000000000000000e+00  -1.0732985438904747e+01 -3.7933552482330058e-03 0.0000000000000000e+00  -1.0732709814748430e+01 -3.8262600095422183e-03 0.0000000000000000e+00  -1.0732332281853823e+01 -3.8591762630336519e-03 0.0000000000000000e+00  -1.0731852705862940e+01 -3.8921059101557891e-03 0.0000000000000000e+00  -1.0731270949906646e+01 -3.9250489625648546e-03 0.0000000000000000e+00  -1.0730586879345273e+01 -3.9580038261323933e-03 0.0000000000000000e+00  -1.0729800364946749e+01 -3.9909679251529323e-03 0.0000000000000000e+00  -1.0728911284226491e+01 -4.0239383042906928e-03 0.0000000000000000e+00  -1.0727919521102962e+01 -4.0569123096297838e-03 0.0000000000000000e+00  -1.0726824964709730e+01 -4.0898876980429650e-03 0.0000000000000000e+00  -1.0725627507854075e+01 -4.1228628360089571e-03 0.0000000000000000e+00  -1.0724327045475254e+01 -4.1558364978990011e-03 0.0000000000000000e+00  -1.0722923473931317e+01 -4.1888078991610418e-03 0.0000000000000000e+00  -1.0721416689893731e+01 -4.2217761767576086e-03 0.0000000000000000e+00  -1.0719806591344437e+01 -4.2547409445735807e-03 0.0000000000000000e+00  -1.0718093075573503e+01 -4.2877008832204111e-03 0.0000000000000000e+00  -1.0716276043753728e+01 -4.3206561783608382e-03 0.0000000000000000e+00  -1.0714355393556426e+01 -4.3536038800128136e-03 0.0000000000000000e+00  -1.0712331034667031e+01 -4.3865462585158874e-03 0.0000000000000000e+00  -1.0710202863017981e+01 -4.4194759537223051e-03 0.0000000000000000e+00  -1.0707970809757475e+01 -4.4524012810523940e-03 0.0000000000000000e+00  -1.0705634764705655e+01 -4.4853046890339790e-03 0.0000000000000000e+00  -1.0703194706413392e+01 -4.5182052499536480e-03 0.0000000000000000e+00  -1.0700650541432299e+01 -4.5510733260865667e-03 0.0000000000000000e+00  -1.0698002294321684e+01 -4.5839144632931544e-03 0.0000000000000000e+00  -1.0695250177906921e+01 -4.6167540899918601e-03 0.0000000000000000e+00  -1.0692393797106444e+01 -4.6493649234195826e-03 0.0000000000000000e+00  -1.0689435538158172e+01 -4.6823046560648899e-03 0.0000000000000000e+00  -1.0686370793612925e+01 -4.7142088055316450e-03 0.0000000000000000e+00  -1.0683212656495552e+01 -4.7484866414886900e-03 0.0000000000000000e+00  -1.0679930649830755e+01 -4.7813489175943160e-03 0.0000000000000000e+00  -1.0676575472215280e+01 -4.8279815748139727e-03 0.0000000000000000e+00  -1.0673006732082701e+01 -4.8851875190947126e-03 0.0000000000000000e+00  -1.0669383821291156e+01 -4.9946598825961119e-03 0.0000000000000000e+00  -1.0665389172349204e+01 -5.0699289373806484e-03 0.0000000000000000e+00  -1.0661757114453200e+01 -5.1109411871790552e-03 0.0000000000000000e+00  -1.0658576405971271e+01 -4.0777444538572230e-03 0.0000000000000000e+00  -1.0658442688781852e+01 -3.6009701705858009e-03 0.0000000000000000e+00  -1.0655062448550151e+01 -3.9638649612376590e-03 0.0000000000000000e+00  -1.0653588941405603e+01 -1.3034353863377843e-02 0.0000000000000000e+00  -1.0651389224726946e+01 -3.9308491369762055e-02 0.0000000000000000e+00  -1.0626601209641835e+01 0.0000000000000000e+00 0.0000000000000000e+00  -1.6153364357962925e+01 0.0000000000000000e+00 0.0000000000000000e+00  -1.6159970732075859e+01 8.3989131070578461e-04 0.0000000000000000e+00  -1.6163966662922121e+01 4.4166949048697552e-03 0.0000000000000000e+00  -1.6167714794634829e+01 4.7786372912863610e-03 0.0000000000000000e+00  -1.6171093858603864e+01 4.5371498064965526e-03 0.0000000000000000e+00  -1.6174375527723232e+01 4.4468770477180657e-03 0.0000000000000000e+00  -1.6177918049476883e+01 4.5886062061532883e-03 0.0000000000000000e+00  -1.6181835171004234e+01 4.8029090073138450e-03 0.0000000000000000e+00  -1.6185971686198027e+01 4.9396259307005197e-03 0.0000000000000000e+00  -1.6190122204425755e+01 4.9721666089282777e-03 0.0000000000000000e+00  -1.6194153745228149e+01 4.9272296491867564e-03 0.0000000000000000e+00  -1.6198028833471653e+01 4.8497359114508237e-03 0.0000000000000000e+00  -1.6201759684941031e+01 4.7655710094628208e-03 0.0000000000000000e+00  -1.6205363906968547e+01 4.6810039732929336e-03 0.0000000000000000e+00  -1.6208845899730981e+01 4.5925598157222219e-03 0.0000000000000000e+00  -1.6212197882853047e+01 4.4965461055030513e-03 0.0000000000000000e+00  -1.6215408087948848e+01 4.3916867494635768e-03 0.0000000000000000e+00  -1.6218466352304606e+01 4.2792454775393901e-03 0.0000000000000000e+00  -1.6221366133529127e+01 4.1613819801442518e-03 0.0000000000000000e+00  -1.6224104540603889e+01 4.0406625617231788e-03 0.0000000000000000e+00  -1.6226681467865109e+01 3.9191241956159284e-03 0.0000000000000000e+00  -1.6229098338980013e+01 3.7980538590401719e-03 0.0000000000000000e+00  -1.6231356798037190e+01 3.6777568284728063e-03 0.0000000000000000e+00  -1.6233457785708630e+01 3.5579198927081493e-03 0.0000000000000000e+00  -1.6235401269117602e+01 3.4379696503633178e-03 0.0000000000000000e+00  -1.6237186482014462e+01 3.3174597271812705e-03 0.0000000000000000e+00  -1.6238812386856033e+01 3.1961903862896008e-03 0.0000000000000000e+00  -1.6240278046277155e+01 3.0741983287138315e-03 0.0000000000000000e+00  -1.6241582801815770e+01 2.9516381473806939e-03 0.0000000000000000e+00  -1.6242726269898320e+01 2.8286853480466623e-03 0.0000000000000000e+00  -1.6243708254596463e+01 2.7054737608498847e-03 0.0000000000000000e+00  -1.6244528649916806e+01 2.5820844509547298e-03 0.0000000000000000e+00  -1.6245187377144962e+01 2.4585572714189504e-03 0.0000000000000000e+00  -1.6245684358310204e+01 2.3349106524978218e-03 0.0000000000000000e+00  -1.6246019513055767e+01 2.2111543093414196e-03 0.0000000000000000e+00  -1.6246192760589061e+01 2.0872938968392015e-03 0.0000000000000000e+00  -1.6246204017624905e+01 1.9633298174880193e-03 0.0000000000000000e+00  -1.6246053190648841e+01 1.8392553742807081e-03 0.0000000000000000e+00  -1.6245740167100301e+01 1.7150571634964636e-03 0.0000000000000000e+00  -1.6245264810246134e+01 1.5907182666555445e-03 0.0000000000000000e+00  -1.6244626960356040e+01 1.4662226900226281e-03 0.0000000000000000e+00  -1.6243826441293390e+01 1.3415591837740890e-03 0.0000000000000000e+00  -1.6242863069645622e+01 1.2167230603985478e-03 0.0000000000000000e+00  -1.6241736663124613e+01 1.0917158348150416e-03 0.0000000000000000e+00  -1.6240447046071868e+01 9.6654333672722059e-04 0.0000000000000000e+00  -1.6238994051421106e+01 8.4121329299144800e-04 0.0000000000000000e+00  -1.6237377519803054e+01 7.1573318841652584e-04 0.0000000000000000e+00  -1.6235597296986107e+01 5.9010903665497800e-04 0.0000000000000000e+00  -1.6233653231043661e+01 4.6434482255749537e-04 0.0000000000000000e+00  -1.6231545169756334e+01 3.3844274930608045e-04 0.0000000000000000e+00  -1.6229272959388855e+01 2.1240367337804840e-04 0.0000000000000000e+00  -1.6226836443374864e+01 8.6227840906596837e-05 0.0000000000000000e+00  -1.6224235463562046e+01 -4.0084843178295723e-05 0.0000000000000000e+00  -1.6221469858360059e+01 -1.6653395551464799e-04 0.0000000000000000e+00  -1.6218539467952578e+01 -2.9311912681999678e-04 0.0000000000000000e+00  -1.6215444127203320e+01 -4.1983832607181437e-04 0.0000000000000000e+00  -1.6212183681986257e+01 -5.4669011004344187e-04 0.0000000000000000e+00  -1.6208757965391658e+01 -6.7366907725314735e-04 0.0000000000000000e+00  -1.6205166845573263e+01 -8.0077099092121262e-04 0.0000000000000000e+00  -1.6201410162756570e+01 -9.2798333536255159e-04 0.0000000000000000e+00  -1.6197487841280331e+01 -1.0552882973369703e-03 0.0000000000000000e+00  -1.6193399800612351e+01 -1.1826605521407789e-03 0.0000000000000000e+00  -1.6189146041277937e+01 -1.3100135490294370e-03 0.0000000000000000e+00  -1.6184727017233644e+01 -1.4373148836964770e-03 0.0000000000000000e+00  -1.6180142447365835e+01 -1.5641843362278578e-03 0.0000000000000000e+00  -1.6175395668854289e+01 -1.6906828013204653e-03 0.0000000000000000e+00  -1.6170483248964423e+01 -1.8155166748466973e-03 0.0000000000000000e+00  -1.6165421565142516e+01 -1.9394767782685313e-03 0.0000000000000000e+00  -1.6160189765972614e+01 -2.0603115929030292e-03 0.0000000000000000e+00  -1.6154854203678003e+01 -2.1824547969901639e-03 0.0000000000000000e+00  -1.6149328647931306e+01 -2.3105558552678441e-03 0.0000000000000000e+00  -1.6143847773922058e+01 -2.4503733538142249e-03 0.0000000000000000e+00  -1.6138176813248233e+01 -2.6032757300549943e-03 0.0000000000000000e+00  -1.6133069412759482e+01 -2.6222740581100953e-03 0.0000000000000000e+00  -1.6127933062660038e+01 -2.1665792892292513e-03 0.0000000000000000e+00  -1.6124639804789478e+01 -7.3988505054401778e-04 0.0000000000000000e+00  -1.6119971275735892e+01 1.0096495569207064e-03 0.0000000000000000e+00  -1.6122333531163612e+01 3.2246257782469747e-03 0.0000000000000000e+00  -1.6124882362145986e+01 -8.1785351497823215e-04 0.0000000000000000e+00  -1.6147526934691708e+01 1.9182219664408719e-02 0.0000000000000000e+00  -1.6123776382638709e+01 0.0000000000000000e+00 0.0000000000000000e+00  -1.5924965506165508e+01 0.0000000000000000e+00 0.0000000000000000e+00  -1.5936314262242263e+01 3.6921668366211385e-03 0.0000000000000000e+00  -1.5942866131191982e+01 5.7714373459864573e-03 0.0000000000000000e+00  -1.5947836399108738e+01 5.9195135220959693e-03 0.0000000000000000e+00  -1.5952097257393090e+01 5.4043280257138710e-03 0.0000000000000000e+00  -1.5956236348488529e+01 5.4293869032159001e-03 0.0000000000000000e+00  -1.5960681627626295e+01 5.8613739354190309e-03 0.0000000000000000e+00  -1.5965461689424741e+01 6.2704149265336972e-03 0.0000000000000000e+00  -1.5970336871796670e+01 6.4409278567946005e-03 0.0000000000000000e+00  -1.5975090949534993e+01 6.3796929613138698e-03 0.0000000000000000e+00  -1.5979615032746317e+01 6.2004314411976836e-03 0.0000000000000000e+00  -1.5983912021349781e+01 5.9975469389013858e-03 0.0000000000000000e+00  -1.5988022391271560e+01 5.8115517884445656e-03 0.0000000000000000e+00  -1.5991981204797272e+01 5.6367751875975930e-03 0.0000000000000000e+00  -1.5995797290345569e+01 5.4572048328307560e-03 0.0000000000000000e+00  -1.5999464680062292e+01 5.2623477995666313e-03 0.0000000000000000e+00  -1.6002972371437544e+01 5.0512809566894057e-03 0.0000000000000000e+00  -1.6006312589506582e+01 4.8273771167010870e-03 0.0000000000000000e+00  -1.6009480999929991e+01 4.5957545708747872e-03 0.0000000000000000e+00  -1.6012476873683362e+01 4.3609439138168234e-03 0.0000000000000000e+00  -1.6015301405008209e+01 4.1264481572477803e-03 0.0000000000000000e+00  -1.6017956884846228e+01 3.8938333537566049e-03 0.0000000000000000e+00  -1.6020445243075628e+01 3.6630625559953968e-03 0.0000000000000000e+00  -1.6022767488901671e+01 3.4330159146649729e-03 0.0000000000000000e+00  -1.6024923497234063e+01 3.2024859992274908e-03 0.0000000000000000e+00  -1.6026912481438938e+01 2.9706845627974774e-03 0.0000000000000000e+00  -1.6028733470336157e+01 2.7374330233279039e-03 0.0000000000000000e+00  -1.6030385704720995e+01 2.5029543153869656e-03 0.0000000000000000e+00  -1.6031868743349502e+01 2.2676292679484769e-03 0.0000000000000000e+00  -1.6033182417762301e+01 2.0317902815946876e-03 0.0000000000000000e+00  -1.6034326705560865e+01 1.7956505697047053e-03 0.0000000000000000e+00  -1.6035301629394350e+01 1.5593095583137924e-03 0.0000000000000000e+00  -1.6036107200228450e+01 1.3228008374369157e-03 0.0000000000000000e+00  -1.6036743405496075e+01 1.0861329408985178e-03 0.0000000000000000e+00  -1.6037210216938302e+01 8.4931118899384016e-04 0.0000000000000000e+00  -1.6037507600250848e+01 6.1233943263073087e-04 0.0000000000000000e+00  -1.6037635516666448e+01 3.7521355187447776e-04 0.00000000