<?xml version="1.0"?>
<VTKFile type="UnstructuredGrid"  version="0.1"  >
<UnstructuredGrid>
<Piece  NumberOfPoints="1369" NumberOfCells="2560">
<Points>
<DataArray  type="Float64"  NumberOfComponents="3"  format="ascii">0 0 0  0.75 0 0  1.5 0 0  2.25 0 0  3 0 0  3.75 0 0  4.5 0 0  5.25 0 0  6 0 0  6.75 0 0  7.5 0 0  8.25 0 0  9 0 0  9.75 0 0  10.5 0 0  11.25 0 0  12 0 0  12.75 0 0  13.5 0 0  14.25 0 0  15 0 0  15.75 0 0  16.5 0 0  17.25 0 0  18 0 0  18.75 0 0  19.5 0 0  20.25 0 0  21 0 0  21.75 0 0  22.5 0 0  23.25 0 0  24 0 0  24.75 0 0  25.5 0 0  26.25 0 0  27 0 0  27.75 0 0  28.5 0 0  29.25 0 0  30 0 0  30.75 0 0  31.5 0 0  32.25 0 0  33 0 0  33.75 0 0  34.5 0 0  35.25 0 0  36 0 0  36.75 0 0  37.5 0 0  38.25 0 0  39 0 0  39.75 0 0  40.5 0 0  41.25 0 0  42 0 0  42.75 0 0  43.5 0 0  44.25 0 0  45 0 0  45.75 0 0  46.5 0 0  47.25 0 0  48 0 0  48.75 0 0  49.5 0 0  50.25 0 0  51 0 0  51.75 0 0  52.5 0 0  53.25 0 0  54 0 0  54.75 0 0  55.5 0 0  56.25 0 0  57 0 0  57.75 0 0  58.5 0 0  59.25 0 0  60 0 0  0 0.5 0  0.75 0.4999698068190219 0  1.5 0.4999397089455523 0  2.25 0.4999099454859208 0  3 0.4998806964380627 0  3.75 0.4998520827922612 0  4.5 0.4998241796040686 0  5.25 0.4997970311419318 0  6 0.4997706627792714 0  6.75 0.4997450888424773 0  7.5 0.4997203173605989 0  8.25 0.4996963528181789 0  9 0.4996731977168177 0  9.75 0.4996508534517081 0  10.5 0.4996293208012539 0  11.25 0.499608600199998 0  12 0.4995886918906948 0  12.75 0.4995695960090509 0  13.5 0.4995513126309774 0  14.25 0.4995338417989627 0  15 0.4995171835367955 0  15.75 0.4995013378578003 0  16.5 0.4994863047694366 0  17.25 0.4994720842758787 0  18 0.4994586763794611 0  18.75 0.4994460810814835 0  19.5 0.4994342983826671 0  20.25 0.4994233282834085 0  21 0.4994131707839237 0  21.75 0.499403825884326 0  22.5 0.4993952935846728 0  23.25 0.4993875738849911 0  24 0.4993806667852904 0  24.75 0.4993745722855709 0  25.5 0.4993692903858293 0  26.25 0.4993648210860608 0  27 0.4993611643862594 0  27.75 0.49935832028642 0  28.5 0.4993562887865375 0  29.25 0.4993550698866098 0  30 0.4993546635866343 0  30.75 0.4993550698866098 0  31.5 0.4993562887865375 0  32.25 0.49935832028642 0  33 0.4993611643862594 0  33.75 0.499364821086061 0  34.5 0.4993692903858293 0  35.25 0.4993745722855709 0  36 0.4993806667852904 0  36.75 0.4993875738849911 0  37.5 0.4993952935846728 0  38.25 0.499403825884326 0  39 0.4994131707839237 0  39.75 0.4994233282834085 0  40.5 0.4994342983826672 0  41.25 0.4994460810814835 0  42 0.4994586763794611 0  42.75 0.4994720842758787 0  43.5 0.4994863047694365 0  44.25 0.4995013378578003 0  45 0.4995171835367955 0  45.75 0.4995338417989627 0  46.5 0.4995513126309773 0  47.25 0.4995695960090509 0  48 0.4995886918906948 0  48.75 0.499608600199998 0  49.5 0.4996293208012539 0  50.25 0.4996508534517081 0  51 0.4996731977168177 0  51.75 0.4996963528181789 0  52.5 0.4997203173605989 0  53.25 0.4997450888424773 0  54 0.4997706627792714 0  54.75 0.4997970311419318 0  55.5 0.4998241796040686 0  56.25 0.4998520827922612 0  57 0.4998806964380627 0  57.75 0.4999099454859208 0  58.5 0.4999397089455523 0  59.25 0.4999698068190219 0  60 0.5 0  0 1 0  0.75 0.9999394875164187 0  1.5 0.999879183734556 0  2.25 0.9998195773791952 0  3 0.9997610274711805 0  3.75 0.9997037691931644 0  4.5 0.9996479454463196 0  5.25 0.9995936393725234 0  6 0.9995408982513483 0  6.75 0.999489748663218 0  7.5 0.9994402054706524 0  8.25 0.9993922769649091 0  9 0.9993459677681626 0  9.75 0.9993012804574646 0  10.5 0.9992582164703704 0  11.25 0.9992167766093434 0  12 0.9991769613226563 0  12.75 0.9991387708609114 0  13.5 0.9991022053642881 0  14.25 0.9990672649112499 0  15 0.9990339495457276 0  15.75 0.9990022592923233 0  16.5 0.9989721941648172 0  17.25 0.9989437541709151 0  18 0.9989169393149266 0  18.75 0.9988917495992515 0  19.5 0.99886818502522 0  20.25 0.9988462455935661 0  21 0.9988259313046856 0  21.75 0.9988072421587868 0  22.5 0.9987901781559744 0  23.25 0.9987747392962971 0  24 0.998760925579774 0  24.75 0.9987487370064032 0  25.5 0.9987381735761778 0  26.25 0.9987292352890892 0  27 0.9987219221451245 0  27.75 0.9987162341442751 0  28.5 0.998712171286531 0  29.25 0.9987097335718866 0  30 0.9987089210003393 0  30.75 0.9987097335718866 0  31.5 0.998712171286531 0  32.25 0.9987162341442751 0  33 0.9987219221451245 0  33.75 0.9987292352890892 0  34.5 0.9987381735761778 0  35.25 0.9987487370064032 0  36 0.998760925579774 0  36.75 0.9987747392962971 0  37.5 0.9987901781559744 0  38.25 0.998807242158787 0  39 0.9988259313046856 0  39.75 0.9988462455935663 0  40.5 0.99886818502522 0  41.25 0.9988917495992515 0  42 0.9989169393149266 0  42.75 0.9989437541709151 0  43.5 0.9989721941648172 0  44.25 0.9990022592923231 0  45 0.9990339495457276 0  45.75 0.9990672649112499 0  46.5 0.9991022053642881 0  47.25 0.9991387708609112 0  48 0.9991769613226563 0  48.75 0.9992167766093434 0  49.5 0.9992582164703704 0  50.25 0.9993012804574646 0  51 0.9993459677681624 0  51.75 0.9993922769649091 0  52.5 0.9994402054706524 0  53.25 0.999489748663218 0  54 0.9995408982513483 0  54.75 0.9995936393725234 0  55.5 0.9996479454463196 0  56.25 0.9997037691931644 0  57 0.9997610274711807 0  57.75 0.9998195773791952 0  58.5 0.999879183734556 0  59.25 0.9999394875164187 0  60 1 0  0 1.5 0  0.75 1.499908905833664 0  1.5 1.499818175493171 0  2.25 1.499728568605295 0  3 1.499640617913513 0  3.75 1.499554656554649 0  4.5 1.499470880009202 0  5.25 1.499389399590332 0  6 1.499310277843653 0  6.75 1.499233549706071 0  7.5 1.499159234645844 0  8.25 1.49908734350404 0  9 1.499017882318627 0  9.75 1.498950854454425 0  10.5 1.498886261787997 0  11.25 1.498824105366761 0  12 1.498764385775814 0  12.75 1.498707103342241 0  13.5 1.498652258249016 0  14.25 1.498599850598551 0  15 1.498549880448192 0  15.75 1.498502347830053 0  16.5 1.498457252762115 0  17.25 1.49841459525444 0  18 1.49837437531265 0  18.75 1.498336592939875 0  19.5 1.49830124813785 0  20.25 1.498268340907528 0  21 1.498237871249424 0  21.75 1.498209839163812 0  22.5 1.498184244650822 0  23.25 1.498161087710518 0  24 1.49814036834292 0  24.75 1.498122086548027 0  25.5 1.498106242325827 0  26.25 1.498092835676308 0  27 1.498081866599454 0  27.75 1.498073335095249 0  28.5 1.498067241163682 0  29.25 1.498063584804745 0  30 1.498062366018434 0  30.75 1.498063584804745 0  31.5 1.498067241163682 0  32.25 1.498073335095249 0  33 1.498081866599454 0  33.75 1.498092835676308 0  34.5 1.498106242325827 0  35.25 1.498122086548026 0  36 1.49814036834292 0  36.75 1.498161087710518 0  37.5 1.498184244650822 0  38.25 1.498209839163812 0  39 1.498237871249424 0  39.75 1.498268340907528 0  40.5 1.49830124813785 0  41.25 1.498336592939875 0  42 1.49837437531265 0  42.75 1.49841459525444 0  43.5 1.498457252762115 0  44.25 1.498502347830052 0  45 1.498549880448192 0  45.75 1.498599850598551 0  46.5 1.498652258249016 0  47.25 1.498707103342241 0  48 1.498764385775814 0  48.75 1.498824105366761 0  49.5 1.498886261787997 0  50.25 1.498950854454425 0  51 1.499017882318627 0  51.75 1.49908734350404 0  52.5 1.499159234645844 0  53.25 1.499233549706071 0  54 1.499310277843653 0  54.75 1.499389399590332 0  55.5 1.499470880009202 0  56.25 1.499554656554649 0  57 1.499640617913513 0  57.75 1.499728568605295 0  58.5 1.499818175493171 0  59.25 1.499908905833664 0  60 1.5 0  0 2 0  0.75 1.999877902016066 0  1.5 1.999756402965806 0  2.25 1.999636564181148 0  3 1.999519073312665 0  3.75 1.99940433027886 0  4.5 1.999292558718037 0  5.25 1.999183882611114 0  6 1.999078370632034 0  6.75 1.998976060849977 0  7.5 1.998876974393486 0  8.25 1.998781123003393 0  9 1.998688513211683 0  9.75 1.998599148656471 0  10.5 1.998513031366227 0  11.25 1.998430162473032 0  12 1.998350542609259 0  12.75 1.998274172128429 0  13.5 1.998201051228315 0  14.25 1.998131180019608 0  15 1.998064558564294 0  15.75 1.998001186897088 0  16.5 1.997941065037421 0  17.25 1.997884192996169 0  18 1.997830570779404 0  18.75 1.997780198390509 0  19.5 1.997733075831353 0  20.25 1.997689203102961 0  21 1.997648580205891 0  21.75 1.997611207140428 0  22.5 1.997577083906714 0  23.25 1.997546210504816 0  24 1.997518586934749 0  24.75 1.99749421319651 0  25.5 1.997473089290087 0  26.25 1.997455215215461 0  27 1.997440590972613 0  27.75 1.99742921656153 0  28.5 1.997421091982193 0  29.25 1.997416217234597 0  30 1.99741459231873 0  30.75 1.997416217234597 0  31.5 1.997421091982193 0  32.25 1.99742921656153 0  33 1.997440590972613 0  33.75 1.997455215215461 0  34.5 1.997473089290087 0  35.25 1.99749421319651 0  36 1.997518586934749 0  36.75 1.997546210504816 0  37.5 1.997577083906715 0  38.25 1.997611207140428 0  39 1.99764858020589 0  39.75 1.997689203102962 0  40.5 1.997733075831353 0  41.25 1.997780198390509 0  42 1.997830570779404 0  42.75 1.997884192996169 0  43.5 1.997941065037421 0  44.25 1.998001186897088 0  45 1.998064558564294 0  45.75 1.998131180019608 0  46.5 1.998201051228315 0  47.25 1.998274172128429 0  48 1.998350542609259 0  48.75 1.998430162473032 0  49.5 1.998513031366227 0  50.25 1.998599148656471 0  51 1.998688513211683 0  51.75 1.998781123003393 0  52.5 1.998876974393486 0  53.25 1.998976060849977 0  54 1.999078370632034 0  54.75 1.999183882611114 0  55.5 1.999292558718038 0  56.25 1.99940433027886 0  57 1.999519073312665 0  57.75 1.999636564181148 0  58.5 1.999756402965806 0  59.25 1.999877902016066 0  60 2 0  0 2.5 0  0.75 2.499846270714448 0  1.5 2.499693528245489 0  2.25 2.499543165545455 0  3 2.499395971539293 0  3.75 2.49925235938418 0  4.5 2.499112547549068 0  5.25 2.498976653845511 0  6 2.498844742591514 0  6.75 2.498716849171972 0  7.5 2.498592993147501 0  8.25 2.498473185365103 0  9 2.498357431853056 0  9.75 2.498245735967183 0  10.5 2.498138099578103 0  11.25 2.498034523729721 0  12 2.497935009005151 0  12.75 2.497839555730389 0  13.5 2.497748164087811 0  14.25 2.497660834179502 0  15 2.497577566062627 0  15.75 2.497498359769197 0  16.5 2.497423215317137 0  17.25 2.49735213271647 0  18 2.497285111972791 0  18.75 2.49
[...]
<PointData  Vectors="f_10-0"> 
<DataArray  type="Float64"  Name="f_10-0"  NumberOfComponents="3" format="ascii">0.0000000000000000e+00 0.0000000000000000e+00 0.0000000000000000e+00  0.0000000000000000e+00 0.0000000000000000e+00 0.0000000000000000e+00  0.0000000000000000e+00 0.0000000000000000e+00 0.0000000000000000e+00  0.0000000000000000e+00 0.0000000000000000e+00 0.0000000000000000e+00  0.0000000000000000e+00 0.0000000000000000e+00 0.0000000000000000e+00  0.0000000000000000e+00 0.0000000000000000e+00 0.0000000000000000e+00  0.0000000000000000e+00 0.0000000000000000e+00 0.0000000000000000e+00  0.0000000000000000e+00 0.0000000000000000e+00 0.0000000000000000e+00  0.0000000000000000e+00 0.0000000000000000e+00 0.0000000000000000e+00  0.0000000000000000e+00 0.0000000000000000e+00 0.0000000000000000e+00  0.0000000000000000e+00 0.0000000000000000e+00 0.0000000000000000e+00  0.0000000000000000e+00 0.0000000000000000e+00 0.0000000000000000e+00  0.0000000000000000e+00 0.0000000000000000e+00 0.0000000000000000e+00  0.0000000000000000e+00 0.0000000000000000e+00 0.0000000000000000e+00  0.0000000000000000e+00 0.0000000000000000e+00 0.0000000000000000e+00  0.0000000000000000e+00 0.0000000000000000e+00 0.0000000000000000e+00  0.0000000000000000e+00 0.0000000000000000e+00 0.0000000000000000e+00  0.0000000000000000e+00 0.0000000000000000e+00 0.0000000000000000e+00  0.0000000000000000e+00 0.0000000000000000e+00 0.0000000000000000e+00  0.0000000000000000e+00 0.0000000000000000e+00 0.0000000000000000e+00  0.0000000000000000e+00 0.0000000000000000e+00 0.0000000000000000e+00  0.0000000000000000e+00 0.0000000000000000e+00 0.0000000000000000e+00  0.0000000000000000e+00 0.0000000000000000e+00 0.0000000000000000e+00  0.0000000000000000e+00 0.0000000000000000e+00 0.0000000000000000e+00  0.0000000000000000e+00 0.0000000000000000e+00 0.0000000000000000e+00  0.0000000000000000e+00 0.0000000000000000e+00 0.0000000000000000e+00  0.0000000000000000e+00 0.0000000000000000e+00 0.0000000000000000e+00  0.0000000000000000e+00 0.0000000000000000e+00 0.0000000000000000e+00  0.0000000000000000e+00 0.0000000000000000e+00 0.0000000000000000e+00  0.0000000000000000e+00 0.0000000000000000e+00 0.0000000000000000e+00  0.0000000000000000e+00 0.0000000000000000e+00 0.0000000000000000e+00  0.0000000000000000e+00 0.0000000000000000e+00 0.0000000000000000e+00  0.0000000000000000e+00 0.0000000000000000e+00 0.0000000000000000e+00  0.0000000000000000e+00 0.0000000000000000e+00 0.0000000000000000e+00  0.0000000000000000e+00 0.0000000000000000e+00 0.0000000000000000e+00  0.0000000000000000e+00 0.0000000000000000e+00 0.0000000000000000e+00  0.0000000000000000e+00 0.0000000000000000e+00 0.0000000000000000e+00  0.0000000000000000e+00 0.0000000000000000e+00 0.0000000000000000e+00  0.0000000000000000e+00 0.0000000000000000e+00 0.0000000000000000e+00  0.0000000000000000e+00 0.0000000000000000e+00 0.0000000000000000e+00  0.0000000000000000e+00 0.0000000000000000e+00 0.0000000000000000e+00  0.0000000000000000e+00 0.0000000000000000e+00 0.0000000000000000e+00  0.0000000000000000e+00 0.0000000000000000e+00 0.0000000000000000e+00  0.0000000000000000e+00 0.0000000000000000e+00 0.0000000000000000e+00  0.0000000000000000e+00 0.0000000000000000e+00 0.0000000000000000e+00  0.0000000000000000e+00 0.0000000000000000e+00 0.0000000000000000e+00  0.0000000000000000e+00 0.0000000000000000e+00 0.0000000000000000e+00  0.0000000000000000e+00 0.0000000000000000e+00 0.0000000000000000e+00  0.0000000000000000e+00 0.0000000000000000e+00 0.0000000000000000e+00  0.0000000000000000e+00 0.0000000000000000e+00 0.0000000000000000e+00  0.0000000000000000e+00 0.0000000000000000e+00 0.0000000000000000e+00  0.0000000000000000e+00 0.0000000000000000e+00 0.0000000000000000e+00  0.0000000000000000e+00 0.0000000000000000e+00 0.0000000000000000e+00  0.0000000000000000e+00 0.0000000000000000e+00 0.0000000000000000e+00  0.0000000000000000e+00 0.0000000000000000e+00 0.0000000000000000e+00  0.0000000000000000e+00 0.0000000000000000e+00 0.0000000000000000e+00  0.0000000000000000e+00 0.0000000000000000e+00 0.0000000000000000e+00  0.0000000000000000e+00 0.0000000000000000e+00 0.0000000000000000e+00  0.0000000000000000e+00 0.0000000000000000e+00 0.0000000000000000e+00  0.0000000000000000e+00 0.0000000000000000e+00 0.0000000000000000e+00  0.0000000000000000e+00 0.0000000000000000e+00 0.0000000000000000e+00  0.0000000000000000e+00 0.0000000000000000e+00 0.0000000000000000e+00  0.0000000000000000e+00 0.0000000000000000e+00 0.0000000000000000e+00  0.0000000000000000e+00 0.0000000000000000e+00 0.0000000000000000e+00  0.0000000000000000e+00 0.0000000000000000e+00 0.0000000000000000e+00  0.0000000000000000e+00 0.0000000000000000e+00 0.0000000000000000e+00  0.0000000000000000e+00 0.0000000000000000e+00 0.0000000000000000e+00  0.0000000000000000e+00 0.0000000000000000e+00 0.0000000000000000e+00  0.0000000000000000e+00 0.0000000000000000e+00 0.0000000000000000e+00  0.0000000000000000e+00 0.0000000000000000e+00 0.0000000000000000e+00  0.0000000000000000e+00 0.0000000000000000e+00 0.0000000000000000e+00  0.0000000000000000e+00 0.0000000000000000e+00 0.0000000000000000e+00  0.0000000000000000e+00 0.0000000000000000e+00 0.0000000000000000e+00  0.0000000000000000e+00 0.0000000000000000e+00 0.0000000000000000e+00  0.0000000000000000e+00 0.0000000000000000e+00 0.0000000000000000e+00  0.0000000000000000e+00 0.0000000000000000e+00 0.0000000000000000e+00  0.0000000000000000e+00 0.0000000000000000e+00 0.0000000000000000e+00  0.0000000000000000e+00 0.0000000000000000e+00 0.0000000000000000e+00  0.0000000000000000e+00 0.0000000000000000e+00 0.0000000000000000e+00  0.0000000000000000e+00 0.0000000000000000e+00 0.0000000000000000e+00  0.0000000000000000e+00 0.0000000000000000e+00 0.0000000000000000e+00  7.5617663441925531e+00 0.0000000000000000e+00 0.0000000000000000e+00  7.5762092415454019e+00 -5.0586805970808273e-02 0.0000000000000000e+00  7.5649789189155321e+00 -1.4984413048444891e-02 0.0000000000000000e+00  7.5619239049332565e+00 -3.6453125467003941e-03 0.0000000000000000e+00  7.5550531196604531e+00 -2.3471505209322237e-03 0.0000000000000000e+00  7.5467488544403558e+00 -2.1520739694939244e-03 0.0000000000000000e+00  7.5437595413603713e+00 -3.8303348663446353e-03 0.0000000000000000e+00  7.5415044828030124e+00 -4.2771626416587168e-03 0.0000000000000000e+00  7.5416276370154236e+00 -4.8467778989566409e-03 0.0000000000000000e+00  7.5410276289637803e+00 -4.4805707736892859e-03 0.0000000000000000e+00  7.5402045904545352e+00 -4.3835088422583060e-03 0.0000000000000000e+00  7.5385203558760869e+00 -4.1114664071711434e-03 0.0000000000000000e+00  7.5365294949496029e+00 -4.0830643545755564e-03 0.0000000000000000e+00  7.5342503386034290e+00 -4.0220266054299871e-03 0.0000000000000000e+00  7.5319638910614142e+00 -4.0497764686800624e-03 0.0000000000000000e+00  7.5296525085468042e+00 -4.0470224091381278e-03 0.0000000000000000e+00  7.5274008623270525e+00 -4.0705770629407556e-03 0.0000000000000000e+00  7.5251853179908776e+00 -4.0808846615497064e-03 0.0000000000000000e+00  7.5230404743154526e+00 -4.1040665109712358e-03 0.0000000000000000e+00  7.5209653838484067e+00 -4.1259948957457328e-03 0.0000000000000000e+00  7.5189816311039870e+00 -4.1554830091173889e-03 0.0000000000000000e+00  7.5170959750775630e+00 -4.1862534853338495e-03 0.0000000000000000e+00  7.5153189397480959e+00 -4.2198191891063535e-03 0.0000000000000000e+00  7.5136531901480410e+00 -4.2532698338895681e-03 0.0000000000000000e+00  7.5121002647242694e+00 -4.2867069573896245e-03 0.0000000000000000e+00  7.5106591434310861e+00 -4.3195546752138620e-03 0.0000000000000000e+00  7.5093289556433618e+00 -4.3522211875722970e-03 0.0000000000000000e+00  7.5081093058523027e+00 -4.3849725795509229e-03 0.0000000000000000e+00  7.5070005233440735e+00 -4.4180661936046584e-03 0.0000000000000000e+00  7.5060035021312155e+00 -4.4516125844060962e-03 0.0000000000000000e+00  7.5051192180055137e+00 -4.4855643177876279e-03 0.0000000000000000e+00  7.5043485967506101e+00 -4.5198543504179301e-03 0.0000000000000000e+00  7.5036922847320424e+00 -4.5543718847266572e-03 0.0000000000000000e+00  7.5031507361356571e+00 -4.5890588300127070e-03 0.0000000000000000e+00  7.5027242037639876e+00 -4.6238609870993671e-03 0.0000000000000000e+00  7.5024128461896042e+00 -4.6587606945007196e-03 0.0000000000000000e+00  7.5022167390703522e+00 -4.6937388232963784e-03 0.0000000000000000e+00  7.5021359220008907e+00 -4.7287898129541326e-03 0.0000000000000000e+00  7.5021704002502050e+00 -4.7639071787110377e-03 0.0000000000000000e+00  7.5023201708286491e+00 -4.7990942191720549e-03 0.0000000000000000e+00  7.5025852352113453e+00 -4.8343585474654536e-03 0.0000000000000000e+00  7.5029656220222707e+00 -4.8697148560446187e-03 0.0000000000000000e+00  7.5034613975550624e+00 -4.9051792518318869e-03 0.0000000000000000e+00  7.5040726717860533e+00 -4.9407674794343581e-03 0.0000000000000000e+00  7.5047995928110964e+00 -4.9764911984449961e-03 0.0000000000000000e+00  7.5056423370515066e+00 -5.0123576005050227e-03 0.0000000000000000e+00  7.5066010965062215e+00 -5.0483693904894858e-03 0.0000000000000000e+00  7.5076760684202952e+00 -5.0845264582301585e-03 0.0000000000000000e+00  7.5088674483458790e+00 -5.1208273820762106e-03 0.0000000000000000e+00  7.5101754276689316e+00 -5.1572709277508790e-03 0.0000000000000000e+00  7.5116001943117494e+00 -5.1938568557773788e-03 0.0000000000000000e+00  7.5131419355068738e+00 -5.2305862718276626e-03 0.0000000000000000e+00  7.5148008411348055e+00 -5.2674615007446508e-03 0.0000000000000000e+00  7.5165771067519698e+00 -5.3044857736082793e-03 0.0000000000000000e+00  7.5184709357811803e+00 -5.3416628499661969e-03 0.0000000000000000e+00  7.5204825407779010e+00 -5.3789966818756441e-03 0.0000000000000000e+00  7.5226121438786686e+00 -5.4164911568906236e-03 0.0000000000000000e+00  7.5248599766212774e+00 -5.4541499336911671e-03 0.0000000000000000e+00  7.5272262793147977e+00 -5.4919762810062781e-03 0.0000000000000000e+00  7.5297112999474294e+00 -5.5299729943092272e-03 0.0000000000000000e+00  7.5323152929272466e+00 -5.5681421377085467e-03 0.0000000000000000e+00  7.5350385164919294e+00 -5.6064850497006373e-03 0.0000000000000000e+00  7.5378812314907018e+00 -5.6450017018171835e-03 0.0000000000000000e+00  7.5408436938797090e+00 -5.6836911485856900e-03 0.0000000000000000e+00  7.5439261584847213e+00 -5.7225506337002137e-03 0.0000000000000000e+00  7.5471288541051411e+00 -5.7615764714942916e-03 0.0000000000000000e+00  7.5504520149549013e+00 -5.8007686674257930e-03 0.0000000000000000e+00  7.5538958043600104e+00 -5.8401225795593455e-03 0.0000000000000000e+00  7.5574604396461904e+00 -5.8796859292837116e-03 0.0000000000000000e+00  7.5611460756462741e+00 -5.9194738021150252e-03 0.0000000000000000e+00  7.5649530903277853e+00 -5.9598104470577444e-03 0.0000000000000000e+00  7.5688825985643833e+00 -6.0009635758978726e-03 0.0000000000000000e+00  7.5729360476944647e+00 -6.0443110523738883e-03 0.0000000000000000e+00  7.5771194387712004e+00 -6.0928393461774045e-03 0.0000000000000000e+00  7.5814434927018137e+00 -6.1532458432240304e-03 0.0000000000000000e+00  7.5859429296804342e+00 -6.2475184080308804e-03 0.0000000000000000e+00  7.5907311978946259e+00 -6.4070379326355582e-03 0.0000000000000000e+00  7.5960857270025581e+00 -6.6127396931861425e-03 0.0000000000000000e+00  7.6030077568100518e+00 -6.5571829834437803e-03 0.0000000000000000e+00  7.6190629382531085e+00 3.0761899280169393e-03 0.0000000000000000e+00  7.6774514012471515e+00 0.0000000000000000e+00 0.0000000000000000e+00  1.6635736312700018e+01 0.0000000000000000e+00 0.0000000000000000e+00  1.6673294070837592e+01 2.7112404643411327e-02 0.0000000000000000e+00  1.6645860112880850e+01 3.5985973176872691e-03 0.0000000000000000e+00  1.6646847643672757e+01 9.2400605115542586e-03 0.0000000000000000e+00  1.6641265985478576e+01 9.9490223328480773e-03 0.0000000000000000e+00  1.6640274203888293e+01 6.9265822560663779e-03 0.0000000000000000e+00  1.6636468221856759e+01 4.0137434639867867e-03 0.0000000000000000e+00  1.6636329086084398e+01 1.4419426738103620e-03 0.0000000000000000e+00  1.6635289579772692e+01 1.3250173333741394e-03 0.0000000000000000e+00  1.6634914552646066e+01 1.6423675542452281e-03 0.0000000000000000e+00  1.6632823983755074e+01 2.7484520063023959e-03 0.0000000000000000e+00  1.6630041666190994e+01 3.3650443644628503e-03 0.0000000000000000e+00  1.6626103498337862e+01 3.9025086782509054e-03 0.0000000000000000e+00  1.6621810128471729e+01 4.0429600868654601e-03 0.0000000000000000e+00  1.6617132804213277e+01 4.1374407513597930e-03 0.0000000000000000e+00  1.6612440035417336e+01 4.1030015619678032e-03 0.0000000000000000e+00  1.6607687658339039e+01 4.0779059600960536e-03 0.0000000000000000e+00  1.6603014664719016e+01 4.0088419949655864e-03 0.0000000000000000e+00  1.6598396691961160e+01 3.9369878848293672e-03 0.0000000000000000e+00  1.6593900100120273e+01 3.8374062569133715e-03 0.0000000000000000e+00  1.6589528299846670e+01 3.7258657002699680e-03 0.0000000000000000e+00  1.6585319836422606e+01 3.5971137975892918e-03 0.0000000000000000e+00  1.6581285053477959e+01 3.4611116641616855e-03 0.0000000000000000e+00  1.6577441299199684e+01 3.3200441202231624e-03 0.0000000000000000e+00  1.6573791573220738e+01 3.1789540695469297e-03 0.0000000000000000e+00  1.6570338721740839e+01 3.0386254215929069e-03 0.0000000000000000e+00  1.6567081114260738e+01 2.8993977070461744e-03 0.0000000000000000e+00  1.6564018191864154e+01 2.7603080603077353e-03 0.0000000000000000e+00  1.6561149654139356e+01 2.6205732349609623e-03 0.0000000000000000e+00  1.6558476372113933e+01 2.4797135597404958e-03 0.0000000000000000e+00  1.6555999703151915e+01 2.3376369973957260e-03 0.0000000000000000e+00  1.6553721111399533e+01 2.1945580372516585e-03 0.0000000000000000e+00  1.6551641894021124e+01 2.0507389203796036e-03 0.0000000000000000e+00  1.6549762993360932e+01 1.9064556022350169e-03 0.0000000000000000e+00  1.6548085085236284e+01 1.7618815363468680e-03 0.0000000000000000e+00  1.6546608586839564e+01 1.6171483752927991e-03 0.0000000000000000e+00  1.6545333774455401e+01 1.4723286756983924e-03 0.0000000000000000e+00  1.6544260791869164e+01 1.3274834069743734e-03 0.0000000000000000e+00  1.6543389704482735e+01 1.1826469712363089e-03 0.0000000000000000e+00  1.6542720504967662e+01 1.0378378005959038e-03 0.0000000000000000e+00  1.6542253155642758e+01 8.9304530006023672e-04 0.0000000000000000e+00  1.6541987614733536e+01 7.4823786534488213e-04 0.0000000000000000e+00  1.6541923874527544e+01 6.0336705197159462e-04 0.0000000000000000e+00  1.6542061979729947e+01 4.5838183586128617e-04 0.0000000000000000e+00  1.6542402037161782e+01 3.1323753494050401e-04 0.0000000000000000e+00  1.6542944207715006e+01 1.6790333962786292e-04 0.0000000000000000e+00  1.6543688692027043e+01 2.2362969723753971e-05 0.0000000000000000e+00  1.6544635711959337e+01 -1.2338764814192585e-04 0.0000000000000000e+00  1.6545785495699462e+01 -2.6934547785019414e-04 0.0000000000000000e+00  1.6547138267629570e+01 -4.1550508853470950e-04 0.0000000000000000e+00  1.6548694244436728e+01 -5.6186247043859064e-04 0.0000000000000000e+00  1.6550453635620208e+01 -7.0841698407012651e-04 0.0000000000000000e+00  1.6552416646913098e+01 -8.5517188468970035e-04 0.0000000000000000e+00  1.6554583484577787e+01 -1.0021337886269906e-03 0.0000000000000000e+00  1.6556954359457269e+01 -1.1493117015350877e-03 0.0000000000000000e+00  1.6559529489992762e+01 -1.2967159456224692e-03 0.0000000000000000e+00  1.6562309104150732e+01 -1.4443572693651544e-03 0.0000000000000000e+00  1.6565293440271621e+01 -1.5922461760664803e-03 0.0000000000000000e+00  1.6568482747163412e+01 -1.7403923743490321e-03 0.0000000000000000e+00  1.6571877283547494e+01 -1.8888044518381587e-03 0.0000000000000000e+00  1.6575477317139455e+01 -2.0374891737193097e-03 0.0000000000000000e+00  1.6579283122972971e+01 -2.1864513544378999e-03 0.0000000000000000e+00  1.6583294981828388e+01 -2.3356922734041833e-03 0.0000000000000000e+00  1.6587513176426359e+01 -2.4852102233385871e-03 0.0000000000000000e+00  1.6591937989673426e+01 -2.6349978554008617e-03 0.0000000000000000e+00  1.6596569696645812e+01 -2.7850439006277330e-03 0.0000000000000000e+00  1.6601408562044305e+01 -2.9353363912506696e-03 0.0000000000000000e+00  1.6606454837992754e+01 -3.0858568085099115e-03 0.0000000000000000e+00  1.6611708727915495e+01 -3.2366396810250809e-03 0.0000000000000000e+00  1.6617170536527276e+01 -3.3877176553154787e-03 0.0000000000000000e+00  1.6622840350772996e+01 -3.5394666685470560e-03 0.0000000000000000e+00  1.6628719065403732e+01 -3.6926024343821844e-03 0.0000000000000000e+00  1.6634806815424735e+01 -3.8491795576234920e-03 0.0000000000000000e+00  1.6641105374988580e+01 -4.0146332565604960e-03 0.0000000000000000e+00  1.6647617729586599e+01 -4.1992264814844317e-03 0.0000000000000000e+00  1.6654349486310920e+01 -4.4369344928029590e-03 0.0000000000000000e+00  1.6661320904918252e+01 -4.8078006338583053e-03 0.0000000000000000e+00  1.6668590256006148e+01 -5.4810015917978825e-03 0.0000000000000000e+00  1.6676355619067781e+01 -6.6431355945174558e-03 0.0000000000000000e+00  1.6684372006592195e+01 -9.7145311430593441e-03 0.0000000000000000e+00  1.6690980507592691e+01 0.0000000000000000e+00 0.0000000000000000e+00  1.9817464480870886e+01 0.0000000000000000e+00 0.0000000000000000e+00  1.9798352804936727e+01 -8.7126711467706893e-03 0.0000000000000000e+00  1.9807572675205311e+01 3.5821471547713385e-03 0.0000000000000000e+00  1.9813142529857835e+01 6.0348137801857131e-04 0.0000000000000000e+00  1.9826103004007759e+01 6.0949822824144535e-03 0.0000000000000000e+00  1.9828838365355704e+01 6.3083439520198407e-03 0.0000000000000000e+00  1.9831835264496839e+01 3.9109941779506951e-03 0.0000000000000000e+00  1.9829208662280799e+01 2.3074790759405137e-03 0.0000000000000000e+00  1.9827218756722321e+01 1.8921240445239902e-03 0.0000000000000000e+00  1.9822980549253824e+01 3.2282744721215313e-03 0.0000000000000000e+00  1.9818891420345484e+01 4.6905033242295863e-03 0.0000000000000000e+00  1.9813545431031738e+01 6.1267075318414731e-03 0.0000000000000000e+00  1.9808191350475091e+01 6.9070597357153663e-03 0.0000000000000000e+00  1.9802338823985036e+01 7.3581658717002995e-03 0.0000000000000000e+00  1.9796607464469279e+01 7.4729048905147434e-03 0.0000000000000000e+00  1.9790769125217423e+01 7.4942010970836439e-03 0.0000000000000000e+00  1.9785075351611635e+01 7.4197809383117312e-03 0.0000000000000000e+00  1.9779415910926595e+01 7.3184879909610045e-03 0.0000000000000000e+00  1.9773901896213083e+01 7.1692433616254280e-03 0.0000000000000000e+00  1.9768498087778141e+01 6.9891029472976549e-03 0.0000000000000000e+00  1.9763263250755081e+01 6.7702880679352227e-03 0.0000000000000000e+00  1.9758196242601439e+01 6.5242318196286897e-03 0.0000000000000000e+00  1.9753328416258373e+01 6.2565915019621825e-03 0.0000000000000000e+00  1.9748663458794780e+01 5.9789320767041189e-03 0.0000000000000000e+00  1.9744212066691802e+01 5.6978530233802059e-03 0.0000000000000000e+00  1.9739972944040133e+01 5.4179532561678418e-03 0.0000000000000000e+00  1.9735946702254580e+01 5.1397955229385978e-03 0.0000000000000000e+00  1.9732131298352876e+01 4.8624398964184070e-03 0.0000000000000000e+00  1.9728526536731191e+01 4.5843458424260439e-03 0.0000000000000000e+00  1.9725132556373087e+01 4.3044651948687699e-03 0.0000000000000000e+00  1.9721950369193447e+01 4.0224576588304538e-03 0.0000000000000000e+00  1.9718981131833562e+01 3.7385038933472892e-03 0.0000000000000000e+00  1.9716225920147529e+01 3.4530657102943849e-03 0.0000000000000000e+00  1.9713685601123039e+01 3.1665957772922188e-03 0.0000000000000000e+00  1.9711360759341243e+01 2.8794689363972050e-03 0.0000000000000000e+00  1.9709251807470796e+01 2.5919317279373489e-03 0.0000000000000000e+00  1.9707358984876937e+01 2.3041631669503218e-03 0.0000000000000000e+00  1.9705682440086601e+01 2.0162886362855553e-03 0.0000000000000000e+00  1.9704222218427159e+01 1.7284068065734357e-03 0.0000000000000000e+00  1.9702978304003221e+01 1.44057494211