<?xml version="1.0"?>
<VTKFile type="UnstructuredGrid"  version="0.1"  >
<UnstructuredGrid>
<Piece  NumberOfPoints="1369" NumberOfCells="2560">
<Points>
<DataArray  type="Float64"  NumberOfComponents="3"  format="ascii">0 0 0  0.75 0 0  1.5 0 0  2.25 0 0  3 0 0  3.75 0 0  4.5 0 0  5.25 0 0  6 0 0  6.75 0 0  7.5 0 0  8.25 0 0  9 0 0  9.75 0 0  10.5 0 0  11.25 0 0  12 0 0  12.75 0 0  13.5 0 0  14.25 0 0  15 0 0  15.75 0 0  16.5 0 0  17.25 0 0  18 0 0  18.75 0 0  19.5 0 0  20.25 0 0  21 0 0  21.75 0 0  22.5 0 0  23.25 0 0  24 0 0  24.75 0 0  25.5 0 0  26.25 0 0  27 0 0  27.75 0 0  28.5 0 0  29.25 0 0  30 0 0  30.75 0 0  31.5 0 0  32.25 0 0  33 0 0  33.75 0 0  34.5 0 0  35.25 0 0  36 0 0  36.75 0 0  37.5 0 0  38.25 0 0  39 0 0  39.75 0 0  40.5 0 0  41.25 0 0  42 0 0  42.75 0 0  43.5 0 0  44.25 0 0  45 0 0  45.75 0 0  46.5 0 0  47.25 0 0  48 0 0  48.75 0 0  49.5 0 0  50.25 0 0  51 0 0  51.75 0 0  52.5 0 0  53.25 0 0  54 0 0  54.75 0 0  55.5 0 0  56.25 0 0  57 0 0  57.75 0 0  58.5 0 0  59.25 0 0  60 0 0  0 0.5 0  0.75 0.4999465280398531 0  1.5 0.499893289883399 0  2.25 0.4998406868159801 0  3 0.4997890202968394 0  3.75 0.4997384926449909 0  4.5 0.4996892292050432 0  5.25 0.4996413038156649 0  6 0.4995947587442831 0  6.75 0.4995496178213511 0  7.5 0.4995058943802018 0  8.25 0.4994635958539773 0  9 0.499422726380288 0  9.75 0.4993832882613312 0  10.5 0.4993452827782251 0  11.25 0.4993087106441438 0  12 0.4992735722562833 0  12.75 0.4992398678359524 0  13.5 0.4992075975065004 0  14.25 0.4991767613366865 0  15 0.4991473593648306 0  15.75 0.4991193916122725 0  16.5 0.4990928580908753 0  17.25 0.4990677588072109 0  18 0.4990440937649012 0  18.75 0.4990218629659193 0  19.5 0.4990010664113201 0  20.25 0.4989817041016493 0  21 0.4989637760371716 0  21.75 0.4989472822179948 0  22.5 0.4989322226441453 0  23.25 0.4989185973156071 0  24 0.4989064062323415 0  24.75 0.4988956493943029 0  25.5 0.4988863268014436 0  26.25 0.4988784384537205 0  27 0.4988719843510935 0  27.75 0.4988669644935301 0  28.5 0.4988633788810033 0  29.25 0.4988612275134955 0  30 0.498860510390994 0  30.75 0.4988612275134955 0  31.5 0.4988633788810033 0  32.25 0.4988669644935301 0  33 0.4988719843510935 0  33.75 0.4988784384537206 0  34.5 0.4988863268014436 0  35.25 0.4988956493943029 0  36 0.4989064062323415 0  36.75 0.498918597315607 0  37.5 0.4989322226441453 0  38.25 0.4989472822179948 0  39 0.4989637760371716 0  39.75 0.4989817041016493 0  40.5 0.4990010664113202 0  41.25 0.4990218629659193 0  42 0.4990440937649012 0  42.75 0.4990677588072109 0  43.5 0.4990928580908752 0  44.25 0.4991193916122725 0  45 0.4991473593648306 0  45.75 0.4991767613366865 0  46.5 0.4992075975065004 0  47.25 0.4992398678359524 0  48 0.4992735722562832 0  48.75 0.4993087106441438 0  49.5 0.4993452827782251 0  50.25 0.4993832882613312 0  51 0.499422726380288 0  51.75 0.4994635958539773 0  52.5 0.4995058943802018 0  53.25 0.4995496178213511 0  54 0.4995947587442831 0  54.75 0.4996413038156649 0  55.5 0.4996892292050431 0  56.25 0.4997384926449909 0  57 0.4997890202968394 0  57.75 0.4998406868159801 0  58.5 0.499893289883399 0  59.25 0.4999465280398531 0  60 0.5 0  0 1 0  0.75 0.9998928438659073 0  1.5 0.9997861862782786 0  2.25 0.9996808470079778 0  3 0.9995774270676193 0  3.75 0.9994763196062937 0  4.5 0.9993777632364648 0  5.25 0.9992818966337857 0  6 0.9991887985624494 0  6.75 0.9990985132413879 0  7.5 0.9990110653554165 0  8.25 0.9989264686494944 0  9 0.9988447307698707 0  9.75 0.9987658559696003 0  10.5 0.9986898466150189 0  11.25 0.9986167040233245 0  12 0.9985464289280833 0  12.75 0.9984790217380236 0  13.5 0.9984144826809476 0  14.25 0.9983528118838414 0  15 0.9982940094174708 0  15.75 0.9982380753212389 0  16.5 0.9981850096170521 0  17.25 0.9981348123170394 0  18 0.9980874834278834 0  18.75 0.9980430229532197 0  19.5 0.9980014308949927 0  20.25 0.9979627072542039 0  21 0.9979268520313341 0  21.75 0.9978938652265789 0  22.5 0.9978637468399804 0  23.25 0.9978364968715036 0  24 0.9978121153210757 0  24.75 0.9977906021886067 0  25.5 0.9977719574740059 0  26.25 0.997756181177191 0  27 0.9977432732980841 0  27.75 0.9977332338366243 0  28.5 0.9977260627927595 0  29.25 0.9977217601664545 0  30 0.9977203259576894 0  30.75 0.9977217601664545 0  31.5 0.9977260627927595 0  32.25 0.9977332338366243 0  33 0.9977432732980841 0  33.75 0.997756181177191 0  34.5 0.9977719574740059 0  35.25 0.9977906021886067 0  36 0.9978121153210757 0  36.75 0.9978364968715036 0  37.5 0.9978637468399806 0  38.25 0.9978938652265791 0  39 0.9979268520313341 0  39.75 0.9979627072542041 0  40.5 0.9980014308949927 0  41.25 0.9980430229532197 0  42 0.9980874834278834 0  42.75 0.9981348123170394 0  43.5 0.9981850096170521 0  44.25 0.9982380753212386 0  45 0.9982940094174708 0  45.75 0.9983528118838414 0  46.5 0.9984144826809476 0  47.25 0.9984790217380234 0  48 0.9985464289280833 0  48.75 0.9986167040233245 0  49.5 0.9986898466150189 0  50.25 0.9987658559696003 0  51 0.9988447307698705 0  51.75 0.9989264686494944 0  52.5 0.9990110653554165 0  53.25 0.9990985132413879 0  54 0.9991887985624494 0  54.75 0.9992818966337857 0  55.5 0.9993777632364648 0  56.25 0.9994763196062937 0  57 0.9995774270676197 0  57.75 0.9996808470079778 0  58.5 0.9997861862782786 0  59.25 0.9998928438659073 0  60 1 0  0 1.5 0  0.75 1.499838718439584 0  1.5 1.49967827134152 0  2.25 1.499519931705762 0  3 1.499364590693182 0  3.75 1.499212804936967 0  4.5 1.499064900781621 0  5.25 1.498921063892992 0  6 1.498781398481918 0  6.75 1.49864596268151 0  7.5 1.49851478883431 0  8.25 1.498387894917117 0  9 1.498265290921007 0  9.75 1.498146982400629 0  10.5 1.498032972445766 0  11.25 1.497923262776113 0  12 1.497817854349356 0  12.75 1.497716747699072 0  13.5 1.497619943122653 0  14.25 1.497527440785865 0  15 1.497439240781081 0  15.75 1.497355343159731 0  16.5 1.497275747950394 0  17.25 1.497200455168892 0  18 1.497129464823933 0  18.75 1.497062776920248 0  19.5 1.49700039146036 0  20.25 1.49694230844556 0  21 1.496888527876465 0  21.75 1.496839049753316 0  22.5 1.496793874076159 0  23.25 1.496753000844935 0  24 1.496716430059538 0  24.75 1.496684161719845 0  25.5 1.496656195825729 0  26.25 1.496632532377073 0  27 1.496613171373775 0  27.75 1.496598112815747 0  28.5 1.496587356702917 0  29.25 1.49658090303524 0  30 1.496578751812684 0  30.75 1.49658090303524 0  31.5 1.496587356702917 0  32.25 1.496598112815747 0  33 1.496613171373775 0  33.75 1.496632532377073 0  34.5 1.496656195825729 0  35.25 1.496684161719845 0  36 1.496716430059538 0  36.75 1.496753000844935 0  37.5 1.496793874076159 0  38.25 1.496839049753316 0  39 1.496888527876465 0  39.75 1.49694230844556 0  40.5 1.497000391460359 0  41.25 1.497062776920248 0  42 1.497129464823933 0  42.75 1.497200455168892 0  43.5 1.497275747950394 0  44.25 1.49735534315973 0  45 1.497439240781081 0  45.75 1.497527440785865 0  46.5 1.497619943122653 0  47.25 1.497716747699072 0  48 1.497817854349356 0  48.75 1.497923262776113 0  49.5 1.498032972445766 0  50.25 1.498146982400629 0  51 1.498265290921007 0  51.75 1.498387894917117 0  52.5 1.49851478883431 0  53.25 1.49864596268151 0  54 1.498781398481918 0  54.75 1.498921063892992 0  55.5 1.499064900781621 0  56.25 1.499212804936967 0  57 1.499364590693182 0  57.75 1.499519931705762 0  58.5 1.49967827134152 0  59.25 1.499838718439584 0  60 1.5 0  0 2 0  0.75 1.999783883738131 0  1.5 1.999569073661147 0  2.25 1.999357345995892 0  3 1.999149849853254 0  3.75 1.998947253084861 0  4.5 1.998749928990338 0  5.25 1.99855808438774 0  6 1.99837183372778 0  6.75 1.998191240376665 0  7.5 1.998016339448325 0  8.25 1.997847150419175 0  9 1.997683684101973 0  9.75 1.997525946504829 0  10.5 1.997373940968859 0  11.25 1.997227669353404 0  12 1.997087132693852 0  12.75 1.996952331567068 0  13.5 1.996823266294561 0  14.25 1.996699937055528 0  15 1.996582343949816 0  15.75 1.996470487033011 0  16.5 1.996364366335982 0  17.25 1.99626398187581 0  18 1.996169333661883 0  18.75 1.996080421699292 0  19.5 1.995997245990742 0  20.25 1.995919806537601 0  21 1.995848103340517 0  21.75 1.995782136399731 0  22.5 1.995721905715267 0  23.25 1.995667411287051 0  24 1.995618653114951 0  24.75 1.995575631198816 0  25.5 1.9955383455385 0  26.25 1.995506796133864 0  27 1.995480982984787 0  27.75 1.99546090609117 0  28.5 1.995446565452929 0  29.25 1.995437961070008 0  30 1.99543509294237 0  30.75 1.995437961070008 0  31.5 1.995446565452929 0  32.25 1.99546090609117 0  33 1.995480982984787 0  33.75 1.995506796133864 0  34.5 1.9955383455385 0  35.25 1.995575631198816 0  36 1.995618653114951 0  36.75 1.995667411287051 0  37.5 1.995721905715267 0  38.25 1.995782136399731 0  39 1.995848103340517 0  39.75 1.995919806537601 0  40.5 1.995997245990742 0  41.25 1.996080421699292 0  42 1.996169333661883 0  42.75 1.99626398187581 0  43.5 1.996364366335981 0  44.25 1.996470487033011 0  45 1.996582343949816 0  45.75 1.996699937055528 0  46.5 1.996823266294561 0  47.25 1.996952331567068 0  48 1.997087132693852 0  48.75 1.997227669353404 0  49.5 1.997373940968859 0  50.25 1.997525946504828 0  51 1.997683684101973 0  51.75 1.997847150419175 0  52.5 1.998016339448325 0  53.25 1.998191240376665 0  54 1.99837183372778 0  54.75 1.99855808438774 0  55.5 1.998749928990339 0  56.25 1.998947253084861 0  57 1.999149849853254 0  57.75 1.999357345995892 0  58.5 1.999569073661147 0  59.25 1.999783883738131 0  60 2 0  0 2.5 0  0.75 2.499727996135386 0  1.5 2.499458028155152 0  2.25 2.499192423082464 0  3 2.498932497678361 0  3.75 2.498678941607117 0  4.5 2.498432119558577 0  5.25 2.498192228115518 0  6 2.497959374513566 0  6.75 2.497733617679352 0  7.5 2.497514990137746 0  8.25 2.497303509891811 0  9 2.49709918692564 0  9.75 2.496902026783915 0  10.5 2.496712032549221 0  11.25 2.496529205936838 0  12 2.496353547901881 0  12.75 2.496185058976486 0  13.5 2.496023739457216 0  14.25 2.495869589509358 0  15 2.495722609224997 0  15.75 2.495582798655372 0  16.5 2.495450157828933 0  17.25 2.495324686761403 0  18 2.495206385461409 0  18
[...]
<PointData  Vectors="f_10-0"> 
<DataArray  type="Float64"  Name="f_10-0"  NumberOfComponents="3" format="ascii">0.0000000000000000e+00 0.0000000000000000e+00 0.0000000000000000e+00  0.0000000000000000e+00 0.0000000000000000e+00 0.0000000000000000e+00  0.0000000000000000e+00 0.0000000000000000e+00 0.0000000000000000e+00  0.0000000000000000e+00 0.0000000000000000e+00 0.0000000000000000e+00  0.0000000000000000e+00 0.0000000000000000e+00 0.0000000000000000e+00  0.0000000000000000e+00 0.0000000000000000e+00 0.0000000000000000e+00  0.0000000000000000e+00 0.0000000000000000e+00 0.0000000000000000e+00  0.0000000000000000e+00 0.0000000000000000e+00 0.0000000000000000e+00  0.0000000000000000e+00 0.0000000000000000e+00 0.0000000000000000e+00  0.0000000000000000e+00 0.0000000000000000e+00 0.0000000000000000e+00  0.0000000000000000e+00 0.0000000000000000e+00 0.0000000000000000e+00  0.0000000000000000e+00 0.0000000000000000e+00 0.0000000000000000e+00  0.0000000000000000e+00 0.0000000000000000e+00 0.0000000000000000e+00  0.0000000000000000e+00 0.0000000000000000e+00 0.0000000000000000e+00  0.0000000000000000e+00 0.0000000000000000e+00 0.0000000000000000e+00  0.0000000000000000e+00 0.0000000000000000e+00 0.0000000000000000e+00  0.0000000000000000e+00 0.0000000000000000e+00 0.0000000000000000e+00  0.0000000000000000e+00 0.0000000000000000e+00 0.0000000000000000e+00  0.0000000000000000e+00 0.0000000000000000e+00 0.0000000000000000e+00  0.0000000000000000e+00 0.0000000000000000e+00 0.0000000000000000e+00  0.0000000000000000e+00 0.0000000000000000e+00 0.0000000000000000e+00  0.0000000000000000e+00 0.0000000000000000e+00 0.0000000000000000e+00  0.0000000000000000e+00 0.0000000000000000e+00 0.0000000000000000e+00  0.0000000000000000e+00 0.0000000000000000e+00 0.0000000000000000e+00  0.0000000000000000e+00 0.0000000000000000e+00 0.0000000000000000e+00  0.0000000000000000e+00 0.0000000000000000e+00 0.0000000000000000e+00  0.0000000000000000e+00 0.0000000000000000e+00 0.0000000000000000e+00  0.0000000000000000e+00 0.0000000000000000e+00 0.0000000000000000e+00  0.0000000000000000e+00 0.0000000000000000e+00 0.0000000000000000e+00  0.0000000000000000e+00 0.0000000000000000e+00 0.0000000000000000e+00  0.0000000000000000e+00 0.0000000000000000e+00 0.0000000000000000e+00  0.0000000000000000e+00 0.0000000000000000e+00 0.0000000000000000e+00  0.0000000000000000e+00 0.0000000000000000e+00 0.0000000000000000e+00  0.0000000000000000e+00 0.0000000000000000e+00 0.0000000000000000e+00  0.0000000000000000e+00 0.0000000000000000e+00 0.0000000000000000e+00  0.0000000000000000e+00 0.0000000000000000e+00 0.0000000000000000e+00  0.0000000000000000e+00 0.0000000000000000e+00 0.0000000000000000e+00  0.0000000000000000e+00 0.0000000000000000e+00 0.0000000000000000e+00  0.0000000000000000e+00 0.0000000000000000e+00 0.0000000000000000e+00  0.0000000000000000e+00 0.0000000000000000e+00 0.0000000000000000e+00  0.0000000000000000e+00 0.0000000000000000e+00 0.0000000000000000e+00  0.0000000000000000e+00 0.0000000000000000e+00 0.0000000000000000e+00  0.0000000000000000e+00 0.0000000000000000e+00 0.0000000000000000e+00  0.0000000000000000e+00 0.0000000000000000e+00 0.0000000000000000e+00  0.0000000000000000e+00 0.0000000000000000e+00 0.0000000000000000e+00  0.0000000000000000e+00 0.0000000000000000e+00 0.0000000000000000e+00  0.0000000000000000e+00 0.0000000000000000e+00 0.0000000000000000e+00  0.0000000000000000e+00 0.0000000000000000e+00 0.0000000000000000e+00  0.0000000000000000e+00 0.0000000000000000e+00 0.0000000000000000e+00  0.0000000000000000e+00 0.0000000000000000e+00 0.0000000000000000e+00  0.0000000000000000e+00 0.0000000000000000e+00 0.0000000000000000e+00  0.0000000000000000e+00 0.0000000000000000e+00 0.0000000000000000e+00  0.0000000000000000e+00 0.0000000000000000e+00 0.0000000000000000e+00  0.0000000000000000e+00 0.0000000000000000e+00 0.0000000000000000e+00  0.0000000000000000e+00 0.0000000000000000e+00 0.0000000000000000e+00  0.0000000000000000e+00 0.0000000000000000e+00 0.0000000000000000e+00  0.0000000000000000e+00 0.0000000000000000e+00 0.0000000000000000e+00  0.0000000000000000e+00 0.0000000000000000e+00 0.0000000000000000e+00  0.0000000000000000e+00 0.0000000000000000e+00 0.0000000000000000e+00  0.0000000000000000e+00 0.0000000000000000e+00 0.0000000000000000e+00  0.0000000000000000e+00 0.0000000000000000e+00 0.0000000000000000e+00  0.0000000000000000e+00 0.0000000000000000e+00 0.0000000000000000e+00  0.0000000000000000e+00 0.0000000000000000e+00 0.0000000000000000e+00  0.0000000000000000e+00 0.0000000000000000e+00 0.0000000000000000e+00  0.0000000000000000e+00 0.0000000000000000e+00 0.0000000000000000e+00  0.0000000000000000e+00 0.0000000000000000e+00 0.0000000000000000e+00  0.0000000000000000e+00 0.0000000000000000e+00 0.0000000000000000e+00  0.0000000000000000e+00 0.0000000000000000e+00 0.0000000000000000e+00  0.0000000000000000e+00 0.0000000000000000e+00 0.0000000000000000e+00  0.0000000000000000e+00 0.0000000000000000e+00 0.0000000000000000e+00  0.0000000000000000e+00 0.0000000000000000e+00 0.0000000000000000e+00  0.0000000000000000e+00 0.0000000000000000e+00 0.0000000000000000e+00  0.0000000000000000e+00 0.0000000000000000e+00 0.0000000000000000e+00  0.0000000000000000e+00 0.0000000000000000e+00 0.0000000000000000e+00  0.0000000000000000e+00 0.0000000000000000e+00 0.0000000000000000e+00  0.0000000000000000e+00 0.0000000000000000e+00 0.0000000000000000e+00  0.0000000000000000e+00 0.0000000000000000e+00 0.0000000000000000e+00  0.0000000000000000e+00 0.0000000000000000e+00 0.0000000000000000e+00  0.0000000000000000e+00 0.0000000000000000e+00 0.0000000000000000e+00  0.0000000000000000e+00 0.0000000000000000e+00 0.0000000000000000e+00  0.0000000000000000e+00 0.0000000000000000e+00 0.0000000000000000e+00  -1.5539566855802669e+00 0.0000000000000000e+00 0.0000000000000000e+00  -1.5980936296460591e+00 -2.8321073080212394e-02 0.0000000000000000e+00  -1.6030476864439382e+00 -4.4779606812994435e-03 0.0000000000000000e+00  -1.6116601358370868e+00 -1.1481398029399503e-04 0.0000000000000000e+00  -1.6199068782973678e+00 6.7359781341843532e-04 0.0000000000000000e+00  -1.6282074831011633e+00 4.4372572208818239e-04 0.0000000000000000e+00  -1.6339206670649942e+00 -9.5264566145385535e-04 0.0000000000000000e+00  -1.6368085658005944e+00 -1.8978061488482906e-03 0.0000000000000000e+00  -1.6378387115324855e+00 -2.3971040917420369e-03 0.0000000000000000e+00  -1.6385767215551970e+00 -2.3740517139183349e-03 0.0000000000000000e+00  -1.6394357644848119e+00 -2.2533002856806174e-03 0.0000000000000000e+00  -1.6408606631470586e+00 -2.0652134589298002e-03 0.0000000000000000e+00  -1.6426384217656720e+00 -1.9660328520353949e-03 0.0000000000000000e+00  -1.6447195793591356e+00 -1.8878715851464631e-03 0.0000000000000000e+00  -1.6469288140855260e+00 -1.8622567681227621e-03 0.0000000000000000e+00  -1.6492073828218594e+00 -1.8496241306673684e-03 0.0000000000000000e+00  -1.6514714068956711e+00 -1.8605355852068226e-03 0.0000000000000000e+00  -1.6536907022834209e+00 -1.8770098356318380e-03 0.0000000000000000e+00  -1.6558307597434891e+00 -1.9017190453767176e-03 0.0000000000000000e+00  -1.6578835266584084e+00 -1.9265278301767133e-03 0.0000000000000000e+00  -1.6598398913046915e+00 -1.9529973143880114e-03 0.0000000000000000e+00  -1.6617000212657769e+00 -1.9787786052611433e-03 0.0000000000000000e+00  -1.6634614878678324e+00 -2.0052647323620999e-03 0.0000000000000000e+00  -1.6651238302219520e+00 -2.0319535398256121e-03 0.0000000000000000e+00  -1.6666849735614895e+00 -2.0594197663962679e-03 0.0000000000000000e+00  -1.6681435593425500e+00 -2.0873577773390405e-03 0.0000000000000000e+00  -1.6694981021991162e+00 -2.1157672746546963e-03 0.0000000000000000e+00  -1.6707478407680905e+00 -2.1443759871996927e-03 0.0000000000000000e+00  -1.6718923806859747e+00 -2.1730797204945395e-03 0.0000000000000000e+00  -1.6729317415895797e+00 -2.2017746232773612e-03 0.0000000000000000e+00  -1.6738660696338297e+00 -2.2304636244271140e-03 0.0000000000000000e+00  -1.6746955188007986e+00 -2.2591750844537981e-03 0.0000000000000000e+00  -1.6754201463874683e+00 -2.2879575385785756e-03 0.0000000000000000e+00  -1.6760399063111819e+00 -2.3168458179124124e-03 0.0000000000000000e+00  -1.6765546818358619e+00 -2.3458569702055928e-03 0.0000000000000000e+00  -1.6769643280902622e+00 -2.3749922285421117e-03 0.0000000000000000e+00  -1.6772687077008079e+00 -2.4042439181775005e-03 0.0000000000000000e+00  -1.6774677036830634e+00 -2.4336035094560471e-03 0.0000000000000000e+00  -1.6775612209050157e+00 -2.4630647246460758e-03 0.0000000000000000e+00  -1.6775491771427824e+00 -2.4926254241156324e-03 0.0000000000000000e+00  -1.6774314950295668e+00 -2.5222862857899185e-03 0.0000000000000000e+00  -1.6772080947267600e+00 -2.5520499946364550e-03 0.0000000000000000e+00  -1.6768788902013800e+00 -2.5819200880416765e-03 0.0000000000000000e+00  -1.6764437865005541e+00 -2.6119007980106310e-03 0.0000000000000000e+00  -1.6759026780358772e+00 -2.6419968687847197e-03 0.0000000000000000e+00  -1.6752554466833873e+00 -2.6722136444501041e-03 0.0000000000000000e+00  -1.6745019603104938e+00 -2.7025568296805249e-03 0.0000000000000000e+00  -1.6736420718475893e+00 -2.7330323019802713e-03 0.0000000000000000e+00  -1.6726756192544241e+00 -2.7636456905300419e-03 0.0000000000000000e+00  -1.6716024263524794e+00 -2.7944021702684730e-03 0.0000000000000000e+00  -1.6704223041773123e+00 -2.8253063723364946e-03 0.0000000000000000e+00  -1.6691350524123798e+00 -2.8563624497317769e-03 0.0000000000000000e+00  -1.6677404605459680e+00 -2.8875742345375183e-03 0.0000000000000000e+00  -1.6662383085943921e+00 -2.9189454419019318e-03 0.0000000000000000e+00  -1.6646283673271103e+00 -2.9504798061238133e-03 0.0000000000000000e+00  -1.6629103981749365e+00 -2.9821811541155107e-03 0.0000000000000000e+00  -1.6610841529833562e+00 -3.0140534643109309e-03 0.0000000000000000e+00  -1.6591493737411045e+00 -3.0461007390665913e-03 0.0000000000000000e+00  -1.6571057925307051e+00 -3.0783270651512052e-03 0.0000000000000000e+00  -1.6549531315159962e+00 -3.1107363335498121e-03 0.0000000000000000e+00  -1.6526911035825977e+00 -3.1433325633600175e-03 0.0000000000000000e+00  -1.6503194119981210e+00 -3.1761192116867335e-03 0.0000000000000000e+00  -1.6478377530050397e+00 -3.2091004728156667e-03 0.0000000000000000e+00  -1.6452458114950079e+00 -3.2422796909446321e-03 0.0000000000000000e+00  -1.6425432703417684e+00 -3.2756627337846996e-03 0.0000000000000000e+00  -1.6397297878938077e+00 -3.3092568895312850e-03 0.0000000000000000e+00  -1.6368050262768978e+00 -3.3430741867674888e-03 0.0000000000000000e+00  -1.6337685747488311e+00 -3.3771468274920282e-03 0.0000000000000000e+00  -1.6306199938067332e+00 -3.4115060787561304e-03 0.0000000000000000e+00  -1.6273586894558025e+00 -3.4462898045606013e-03 0.0000000000000000e+00  -1.6239837327108413e+00 -3.4816331837307962e-03 0.0000000000000000e+00  -1.6204940268636066e+00 -3.5180705213609443e-03 0.0000000000000000e+00  -1.6168862607249574e+00 -3.5565945832200384e-03 0.0000000000000000e+00  -1.6131544584134438e+00 -3.5992333580935911e-03 0.0000000000000000e+00  -1.6092842336781512e+00 -3.6527471849194248e-03 0.0000000000000000e+00  -1.6052339296239222e+00 -3.7269079468641693e-03 0.0000000000000000e+00  -1.6009363448535843e+00 -3.8865434444933298e-03 0.0000000000000000e+00  -1.5961680300943479e+00 -3.9509098530823737e-03 0.0000000000000000e+00  -1.5907166528048207e+00 -5.3361384145506332e-03 0.0000000000000000e+00  -1.5855230656617552e+00 1.0485338882239553e-02 0.0000000000000000e+00  -1.5296144032402448e+00 0.0000000000000000e+00 0.0000000000000000e+00  5.4924543527297240e+00 0.0000000000000000e+00 0.0000000000000000e+00  5.5112928285990632e+00 1.2527352282839105e-02 0.0000000000000000e+00  5.4972259935514911e+00 6.1244290568017636e-03 0.0000000000000000e+00  5.4946797357098092e+00 8.9407183538683759e-03 0.0000000000000000e+00  5.4904024427582430e+00 8.4901506385675497e-03 0.0000000000000000e+00  5.4890789086738527e+00 7.2181268141789474e-03 0.0000000000000000e+00  5.4852936140594943e+00 4.6000456792983256e-03 0.0000000000000000e+00  5.4830429149214117e+00 1.9223869250920959e-03 0.0000000000000000e+00  5.4813111799545391e+00 9.1967851982239937e-04 0.0000000000000000e+00  5.4800027743976933e+00 9.2977690156579706e-04 0.0000000000000000e+00  5.4779187981945379e+00 1.5577978457041325e-03 0.0000000000000000e+00  5.4751960063982947e+00 2.1463824048367380e-03 0.0000000000000000e+00  5.4716544657156296e+00 2.6378971552589703e-03 0.0000000000000000e+00  5.4676503232941114e+00 2.9216579567419667e-03 0.0000000000000000e+00  5.4632630672482039e+00 3.0986385980090771e-03 0.0000000000000000e+00  5.4587161398865689e+00 3.1565465097234588e-03 0.0000000000000000e+00  5.4540878627765483e+00 3.1550251791411204e-03 0.0000000000000000e+00  5.4495000961035958e+00 3.0956985657065125e-03 0.0000000000000000e+00  5.4449991095505972e+00 3.0127461611013304e-03 0.0000000000000000e+00  5.4406376720976528e+00 2.9113234890686237e-03 0.0000000000000000e+00  5.4364295958789226e+00 2.8058793274601478e-03 0.0000000000000000e+00  5.4323908062314423e+00 2.6962615479112903e-03 0.0000000000000000e+00  5.4285233806831714e+00 2.5856711643892573e-03 0.0000000000000000e+00  5.4248329272782145e+00 2.4725099295191798e-03 0.0000000000000000e+00  5.4213213895577459e+00 2.3574398331369772e-03 0.0000000000000000e+00  5.4179926364438717e+00 2.2401067468908000e-03 0.0000000000000000e+00  5.4148490104263542e+00 2.1212927486428928e-03 0.0000000000000000e+00  5.4118928783431404e+00 2.0014825036958114e-03 0.0000000000000000e+00  5.4091253988129582e+00 1.8813547996880935e-03 0.0000000000000000e+00  5.4065472050242906e+00 1.7612448022478351e-03 0.0000000000000000e+00  5.4041583236463548e+00 1.6413204239728858e-03 0.0000000000000000e+00  5.4019586307637653e+00 1.5215340582847557e-03 0.0000000000000000e+00  5.3999479829308479e+00 1.4017738021387203e-03 0.0000000000000000e+00  5.3981263610708226e+00 1.2819231172460292e-03 0.0000000000000000e+00  5.3964938609145339e+00 1.1619138075579744e-03 0.0000000000000000e+00  5.3950506529023112e+00 1.0417282453575030e-03 0.0000000000000000e+00  5.3937969278964513e+00 9.2138175757230662e-04 0.0000000000000000e+00  5.3927328584660712e+00 8.0090221119190536e-04 0.0000000000000000e+00  5.3918585867407200e+00 6.8031301579109932e-04 0.0000000000000000e+00  5.3911742253458197e+00 5.5962800718496828e-04 0.0000000000000000e+00  5.3906798689739306e+00 4.3885067804353550e-04 0.0000000000000000e+00  5.3903756035898036e+00 3.1797800207669413e-04 0.0000000000000000e+00  5.3902615145903301e+00 1.9700271065611343e-04 0.0000000000000000e+00  5.3903376909522400e+00 7.5915081363165426e-05 0.0000000000000000e+00  5.3906042289823342e+00 -4.5297013572949219e-05 0.0000000000000000e+00  5.3910612353246536e+00 -1.6664793464156951e-04 0.0000000000000000e+00  5.3917088303721421e+00 -2.8815400934304516e-04 0.0000000000000000e+00  5.3925471509193104e+00 -4.0983257305681891e-04 0.0000000000000000e+00  5.3935763518589770e+00 -5.3170087107317374e-04 0.0000000000000000e+00  5.3947966062833848e+00 -6.5377499802900989e-04 0.0000000000000000e+00  5.3962081043566865e+00 -7.7606938804485580e-04 0.0000000000000000e+00  5.3978110513967605e+00 -8.9859678699182575e-04 0.0000000000000000e+00  5.3996056658792453e+00 -1.0213686444643540e-03 0.0000000000000000e+00  5.4015921778015139e+00 -1.1443956718275457e-03 0.0000000000000000e+00  5.4037708277084784e+00 -1.2676883923426604e-03 0.0000000000000000e+00  5.4061418663327698e+00 -1.3912574834226699e-03 0.0000000000000000e+00  5.4087055547016378e+00 -1.5151139697264524e-03 0.0000000000000000e+00  5.4114621644673173e+00 -1.6392690914468547e-03 0.0000000000000000e+00  5.4144119781641669e+00 -1.7637342526144266e-03 0.0000000000000000e+00  5.4175552894804975e+00 -1.8885205953702053e-03 0.0000000000000000e+00  5.4208924028689198e+00 -2.0136390697361511e-03 0.0000000000000000e+00  5.4244236337338867e+00 -2.1390998211412160e-03 0.0000000000000000e+00  5.4281493068203339e+00 -2.2649127836310867e-03 0.0000000000000000e+00  5.4320697573651406e+00 -2.3910875280240486e-03 0.0000000000000000e+00  5.4361853282133916e+00 -2.5176344666123702e-03 0.0000000000000000e+00  5.4404963739734509e+00 -2.6445693507998295e-03 0.0000000000000000e+00  5.4450032639349057e+00 -2.7719147323113508e-03 0.0000000000000000e+00  5.4497063839056139e+00 -2.8997236937314918e-03 0.0000000000000000e+00  5.4546061891842816e+00 -3.0280947976788304e-03 0.0000000000000000e+00  5.4597031447434681e+00 -3.1572288257294555e-03 0.0000000000000000e+00  5.4649979316210215e+00 -3.2875885076797218e-03 0.0000000000000000e+00  5.4704913397693868e+00 -3.4199028296470696e-03 0.0000000000000000e+00  5.4761844210198429e+00 -3.5562638435401523e-03 0.0000000000000000e+00  5.4820807441906148e+00 -3.7007617771397821e-03 0.0000000000000000e+00  5.4881839647856081e+00 -3.8652769062881061e-03 0.0000000000000000e+00  5.4945081403801943e+00 -4.0802877737493373e-03 0.0000000000000000e+00  5.5010885774373737e+00 -4.4142326566618288e-03 0.0000000000000000e+00  5.5079845131894380e+00 -5.0535929918180036e-03 0.0000000000000000e+00  5.5155890062979953e+00 -6.1487665596540019e-03 0.0000000000000000e+00  5.5251922693217210e+00 -9.7532331089614649e-03 0.0000000000000000e+00  5.5341530917432440e+00 0.0000000000000000e+00 0.0000000000000000e+00  8.7444910936187767e+00 0.0000000000000000e+00 0.0000000000000000e+00  8.7447111953760555e+00 2.5331173143177473e-04 0.0000000000000000e+00  8.7526790680272590e+00 5.6357052938312124e-03 0.0000000000000000e+00  8.7614195879220667e+00 3.7960940314810659e-03 0.0000000000000000e+00  8.7708543080637824e+00 5.3482062784843756e-03 0.0000000000000000e+00  8.7755489283753629e+00 6.4497669781477572e-03 0.0000000000000000e+00  8.7780005761504434e+00 4.9172618160039754e-03 0.0000000000000000e+00  8.7770424080641920e+00 2.8241421778924364e-03 0.0000000000000000e+00  8.7752659641081294e+00 1.8032676161098388e-03 0.0000000000000000e+00  8.7721625689944975e+00 2.3109672464886157e-03 0.0000000000000000e+00  8.7685278537354368e+00 3.3805094033389767e-03 0.0000000000000000e+00  8.7641097398460044e+00 4.5188612860487740e-03 0.0000000000000000e+00  8.7593633450630435e+00 5.3497669107655816e-03 0.0000000000000000e+00  8.7542572904920011e+00 5.9272802247383530e-03 0.0000000000000000e+00  8.7490300154614715e+00 6.2477034601570863e-03 0.0000000000000000e+00  8.7436858088091238e+00 6.4032992297767977e-03 0.0000000000000000e+00  8.7383561593438372e+00 6.4082470787712132e-03 0.0000000000000000e+00  8.7330691278593768e+00 6.3192219873025798e-03 0.0000000000000000e+00  8.7279025066803495e+00 6.1598965741739339e-03 0.0000000000000000e+00  8.7228748739233399e+00 5.9669742960076211e-03 0.0000000000000000e+00  8.7180186256389440e+00 5.7543093267185003e-03 0.0000000000000000e+00  8.7133369101334761e+00 5.5345400154364378e-03 0.0000000000000000e+00  8.7088398491134065e+00 5.3092371429585301e-03 0.0000000000000000e+00  8.7045273283368712e+00 5.0801844995028139e-03 0.0000000000000000e+00  8.7004038340864902e+00 4.8465955832718913e-03 0.0000000000000000e+00  8.6964706992985494e+00 4.6090795366615115e-03 0.0000000000000000e+00  8.6927311123863973e+00 4.3681572773188035e-03 0.0000000000000000e+00  8.6891866983333781e+00 4.1250854927798097e-03 0.0000000000000000e+00  8.6858391152576804e+00 3.8809299758530550e-03 0.0000000000000000e+00  8.6826889463515293e+00 3.6365776928102946e-03 0.0000000000000000e+00  8.6797364600246585e+00 3.3924368957901478e-03 0.0000000000000000e+00  8.6769815175773655e+00 3.1485800824004213e-03 0.0000000000000000e+00  8.6744239738365678e+00 2.9048565030089847e-03 0.0000000000000000e+00  8.6720637180280065e+00 2.6610726408697661e-03 0.0000000000000000e+00  8.6699007587869854e+00 2.4170859609607899e-03 0.0000000000000000e+00  8.6679351808680956e+00 2.1728386540669376e-03 0.0000000000000000e+00  8.6661671082244691e+00 1.9283404935616563e-03 0.0000000000000000e+00  8.6645966635168890e+00 1.6836327718648101e-03 0.0000000000000000e+00  8.6632239477996329e+00 1.