<?xml version="1.0"?>
<VTKFile type="UnstructuredGrid"  version="0.1"  >
<UnstructuredGrid>
<Piece  NumberOfPoints="1369" NumberOfCells="2560">
<Points>
<DataArray  type="Float64"  NumberOfComponents="3"  format="ascii">0 0 0  0.75 0 0  1.5 0 0  2.25 0 0  3 0 0  3.75 0 0  4.5 0 0  5.25 0 0  6 0 0  6.75 0 0  7.5 0 0  8.25 0 0  9 0 0  9.75 0 0  10.5 0 0  11.25 0 0  12 0 0  12.75 0 0  13.5 0 0  14.25 0 0  15 0 0  15.75 0 0  16.5 0 0  17.25 0 0  18 0 0  18.75 0 0  19.5 0 0  20.25 0 0  21 0 0  21.75 0 0  22.5 0 0  23.25 0 0  24 0 0  24.75 0 0  25.5 0 0  26.25 0 0  27 0 0  27.75 0 0  28.5 0 0  29.25 0 0  30 0 0  30.75 0 0  31.5 0 0  32.25 0 0  33 0 0  33.75 0 0  34.5 0 0  35.25 0 0  36 0 0  36.75 0 0  37.5 0 0  38.25 0 0  39 0 0  39.75 0 0  40.5 0 0  41.25 0 0  42 0 0  42.75 0 0  43.5 0 0  44.25 0 0  45 0 0  45.75 0 0  46.5 0 0  47.25 0 0  48 0 0  48.75 0 0  49.5 0 0  50.25 0 0  51 0 0  51.75 0 0  52.5 0 0  53.25 0 0  54 0 0  54.75 0 0  55.5 0 0  56.25 0 0  57 0 0  57.75 0 0  58.5 0 0  59.25 0 0  60 0 0  0 0.5 0  0.75 0.500000435101391 0  1.5 0.5000007023012598 0  2.25 0.5000008549543843 0  3 0.5000009348233071 0  3.75 0.5000009707820993 0  4.5 0.5000009811573447 0  5.25 0.5000009769894354 0  6 0.5000009647460787 0  6.75 0.5000009481673962 0  7.5 0.5000009294059095 0  8.25 0.5000009096996424 0  9 0.5000008897615457 0  9.75 0.5000008700030107 0  10.5 0.5000008506619306 0  11.25 0.5000008318761416 0  12 0.5000008137256512 0  12.75 0.5000007962569691 0  13.5 0.5000007794971709 0  14.25 0.5000007634620429 0  15 0.5000007481608054 0  15.75 0.5000007335988589 0  16.5 0.5000007197793785 0  17.25 0.5000007067042421 0  18 0.5000006943745741 0  18.75 0.500000682791056 0  19.5 0.5000006719541107 0  20.25 0.5000006618640095 0  21 0.5000006525209352 0  21.75 0.5000006439250132 0  22.5 0.5000006360763378 0  23.25 0.5000006289749822 0  24 0.5000006226210034 0  24.75 0.5000006170144495 0  25.5 0.5000006121553598 0  26.25 0.5000006080437687 0  27 0.5000006046797026 0  27.75 0.5000006020631845 0  28.5 0.5000006001942305 0  29.25 0.500000599072854 0  30 0.5000005986990609 0  30.75 0.500000599072854 0  31.5 0.5000006001942305 0  32.25 0.5000006020631845 0  33 0.5000006046797026 0  33.75 0.5000006080437688 0  34.5 0.5000006121553598 0  35.25 0.5000006170144495 0  36 0.5000006226210034 0  36.75 0.5000006289749821 0  37.5 0.5000006360763378 0  38.25 0.5000006439250132 0  39 0.5000006525209352 0  39.75 0.5000006618640095 0  40.5 0.5000006719541108 0  41.25 0.500000682791056 0  42 0.5000006943745741 0  42.75 0.5000007067042421 0  43.5 0.5000007197793784 0  44.25 0.5000007335988589 0  45 0.5000007481608054 0  45.75 0.5000007634620429 0  46.5 0.5000007794971709 0  47.25 0.5000007962569691 0  48 0.5000008137256511 0  48.75 0.5000008318761416 0  49.5 0.5000008506619306 0  50.25 0.5000008700030107 0  51 0.5000008897615457 0  51.75 0.5000009096996424 0  52.5 0.5000009294059095 0  53.25 0.5000009481673962 0  54 0.5000009647460787 0  54.75 0.5000009769894354 0  55.5 0.5000009811573446 0  56.25 0.5000009707820993 0  57 0.5000009348233071 0  57.75 0.5000008549543843 0  58.5 0.5000007023012598 0  59.25 0.500000435101391 0  60 0.5 0  0 1 0  0.75 1.000000843474783 0  1.5 1.000001353687767 0  2.25 1.000001640823305 0  3 1.000001788877281 0  3.75 1.000001854285793 0  4.5 1.000001872033323 0  5.25 1.000001862862533 0  6 1.000001838811762 0  6.75 1.000001806806972 0  7.5 1.000001770823518 0  8.25 1.000001733144748 0  9 1.000001695084785 0  9.75 1.000001657401748 0  10.5 1.000001620534024 0  11.25 1.000001584735652 0  12 1.000001550154104 0  12.75 1.000001516875134 0  13.5 1.000001484948669 0  14.25 1.000001454403832 0  15 1.000001425257634 0  15.75 1.000001397520041 0  16.5 1.000001371196921 0  17.25 1.000001346291742 0  18 1.000001322806584 0  18.75 1.00000130074271 0  19.5 1.000001280100905 0  20.25 1.000001260881675 0  21 1.00000124308536 0  21.75 1.000001226712195 0  22.5 1.000001211762358 0  23.25 1.000001198235985 0  24 1.000001186133187 0  24.75 1.000001175454053 0  25.5 1.000001166198659 0  26.25 1.00000115836707 0  27 1.000001151959336 0  27.75 1.0000011469755 0  28.5 1.000001143415594 0  29.25 1.00000114127964 0  30 1.000001140567655 0  30.75 1.00000114127964 0  31.5 1.000001143415594 0  32.25 1.0000011469755 0  33 1.000001151959336 0  33.75 1.00000115836707 0  34.5 1.000001166198659 0  35.25 1.000001175454053 0  36 1.000001186133187 0  36.75 1.000001198235985 0  37.5 1.000001211762358 0  38.25 1.000001226712196 0  39 1.00000124308536 0  39.75 1.000001260881676 0  40.5 1.000001280100905 0  41.25 1.00000130074271 0  42 1.000001322806584 0  42.75 1.000001346291742 0  43.5 1.000001371196921 0  44.25 1.000001397520041 0  45 1.000001425257634 0  45.75 1.000001454403832 0  46.5 1.000001484948669 0  47.25 1.000001516875134 0  48 1.000001550154104 0  48.75 1.000001584735652 0  49.5 1.000001620534024 0  50.25 1.000001657401748 0  51 1.000001695084785 0  51.75 1.000001733144748 0  52.5 1.000001770823518 0  53.25 1.000001806806972 0  54 1.000001838811762 0  54.75 1.000001862862533 0  55.5 1.000001872033323 0  56.25 1.000001854285793 0  57 1.000001788877281 0  57.75 1.000001640823305 0  58.5 1.000001353687767 0  59.25 1.000000843474783 0  60 1 0  0 1.5 0  0.75 1.5000011956511 0  1.5 1.500001899080054 0  2.25 1.500002284543048 0  3 1.500002478388681 0  3.75 1.500002561231513 0  4.5 1.500002581090074 0  5.25 1.500002565729509 0  6 1.500002531037789 0  6.75 1.500002486086495 0  7.5 1.500002436061971 0  8.25 1.500002383937306 0  9 1.500002331422104 0  9.75 1.500002279502363 0  10.5 1.500002228748266 0  11.25 1.50000217949029 0  12 1.500002131920346 0  12.75 1.500002086150057 0  13.5 1.500002042244447 0  14.25 1.500002000241453 0  15 1.500001960163253 0  15.75 1.500001922022847 0  16.5 1.500001885827893 0  17.25 1.500001851582926 0  18 1.500001819290669 0  18.75 1.500001788952779 0  19.5 1.500001760570292 0  20.25 1.500001734143875 0  21 1.50000170967398 0  21.75 1.500001687160925 0  22.5 1.500001666604947 0  23.25 1.50000164800623 0  24 1.500001631364924 0  24.75 1.500001616681154 0  25.5 1.500001603955021 0  26.25 1.500001593186614 0  27 1.500001584376004 0  27.75 1.500001577523248 0  28.5 1.500001572628389 0  29.25 1.500001569691462 0  30 1.500001568712484 0  30.75 1.500001569691462 0  31.5 1.500001572628389 0  32.25 1.500001577523248 0  33 1.500001584376004 0  33.75 1.500001593186614 0  34.5 1.500001603955021 0  35.25 1.500001616681154 0  36 1.500001631364924 0  36.75 1.50000164800623 0  37.5 1.500001666604947 0  38.25 1.500001687160925 0  39 1.50000170967398 0  39.75 1.500001734143875 0  40.5 1.500001760570292 0  41.25 1.500001788952779 0  42 1.500001819290669 0  42.75 1.500001851582926 0  43.5 1.500001885827892 0  44.25 1.500001922022847 0  45 1.500001960163253 0  45.75 1.500002000241453 0  46.5 1.500002042244447 0  47.25 1.500002086150057 0  48 1.500002131920346 0  48.75 1.50000217949029 0  49.5 1.500002228748266 0  50.25 1.500002279502363 0  51 1.500002331422104 0  51.75 1.500002383937306 0  52.5 1.500002436061971 0  53.25 1.500002486086495 0  54 1.500002531037789 0  54.75 1.500002565729509 0  55.5 1.500002581090074 0  56.25 1.500002561231513 0  57 1.500002478388681 0  57.75 1.500002284543048 0  58.5 1.500001899080054 0  59.25 1.5000011956511 0  60 1.5 0  0 2 0  0.75 2.000001455772697 0  1.5 2.000002274190797 0  2.25 2.000002704793596 0  3 2.000002913668996 0  3.75 2.000002998525994 0  4.5 2.000003014434328 0  5.25 2.00000299225998 0  6 2.000002949373044 0  6.75 2.000002895604168 0  7.5 2.000002836548273 0  8.25 2.000002775405672 0  9 2.000002714014961 0  9.75 2.000002653436289 0  10.5 2.000002594282824 0  11.25 2.000002536910072 0  12 2.000002481524572 0  12.75 2.000002428246518 0  13.5 2.000002377145972 0  14.25 2.000002328263829 0  15 2.000002281624018 0  15.75 2.000002237240583 0  16.5 2.000002195121799 0  17.25 2.000002155272582 0  18 2.000002117695889 0  18.75 2.000002082393526 0  19.5 2.00000204936663 0  20.25 2.000002018615933 0  21 2.00000199014194 0  21.75 2.000001963945008 0  22.5 2.000001940025399 0  23.25 2.000001918383332 0  24 2.000001899018975 0  24.75 2.000001881932468 0  25.5 2.000001867123932 0  26.25 2.000001854593468 0  27 2.000001844341159 0  27.75 2.000001836367074 0  28.5 2.000001830671261 0  29.25 2.000001827253759 0  30 2.000001826114588 0  30.75 2.000001827253759 0  31.5 2.000001830671261 0  32.25 2.000001836367074 0  33 2.000001844341159 0  33.75 2.000001854593469 0  34.5 2.000001867123932 0  35.25 2.000001881932468 0  36 2.000001899018974 0  36.75 2.000001918383332 0  37.5 2.0000019400254 0  38.25 2.000001963945008 0  39 2.00000199014194 0  39.75 2.000002018615933 0  40.5 2.00000204936663 0  41.25 2.000002082393526 0  42 2.000002117695889 0  42.75 2.000002155272582 0  43.5 2.000002195121798 0  44.25 2.000002237240583 0  45 2.000002281624018 0  45.75 2.000002328263829 0  46.5 2.000002377145972 0  47.25 2.000002428246518 0  48 2.000002481524572 0  48.75 2.000002536910072 0  49.5 2.000002594282824 0  50.25 2.000002653436289 0  51 2.000002714014961 0  51.75 2.000002775405672 0  52.5 2.000002836548273 0  53.25 2.000002895604168 0  54 2.000002949373044 0  54.75 2.00000299225998 0  55.5 2.000003014434329 0  56.25 2.000002998525994 0  57 2.000002913668996 0  57.75 2.000002704793596 0  58.5 2.000002274190797 0  59.25 2.000001455772697 0  60 2 0  0 2.5 0  0.75 2.500001575468188 0  1.5 2.500002398501508 0  2.25 2.500002807331517 0  3 2.500002996557189 0  3.75 2.500003067875559 0  4.5 2.500003075034092 0  5.25 2.500003047219019 0  6 2.500003000584817 0  6.75 2.500002944196167 0  7.5 2.500002883189987 0  8.25 2.50000282049885 0  9 2.500002757806335 0  9.75 2.500002696083197 0  10.5 2.500002635891078 0  11.25 2.500002577555796 0  12 2.500002521266753 0  12.75 2.500002467134256 0  13.5 2.500002415222645 0  14.25 2.500002365569513 0  15 2.500002318196882 0  15.75 2.500002273117686 0  16.5 2.500002230339568 0  17.25 2.500002189867078 0  18 2.500002151702961 0  18.75 2.500002115848901 0  19.5 2.500002082305967 0  20.25 2.500002051074853 0  21 2
[...]
<PointData  Vectors="f_10-0"> 
<DataArray  type="Float64"  Name="f_10-0"  NumberOfComponents="3" format="ascii">0.0000000000000000e+00 0.0000000000000000e+00 0.0000000000000000e+00  0.0000000000000000e+00 0.0000000000000000e+00 0.0000000000000000e+00  0.0000000000000000e+00 0.0000000000000000e+00 0.0000000000000000e+00  0.0000000000000000e+00 0.0000000000000000e+00 0.0000000000000000e+00  0.0000000000000000e+00 0.0000000000000000e+00 0.0000000000000000e+00  0.0000000000000000e+00 0.0000000000000000e+00 0.0000000000000000e+00  0.0000000000000000e+00 0.0000000000000000e+00 0.0000000000000000e+00  0.0000000000000000e+00 0.0000000000000000e+00 0.0000000000000000e+00  0.0000000000000000e+00 0.0000000000000000e+00 0.0000000000000000e+00  0.0000000000000000e+00 0.0000000000000000e+00 0.0000000000000000e+00  0.0000000000000000e+00 0.0000000000000000e+00 0.0000000000000000e+00  0.0000000000000000e+00 0.0000000000000000e+00 0.0000000000000000e+00  0.0000000000000000e+00 0.0000000000000000e+00 0.0000000000000000e+00  0.0000000000000000e+00 0.0000000000000000e+00 0.0000000000000000e+00  0.0000000000000000e+00 0.0000000000000000e+00 0.0000000000000000e+00  0.0000000000000000e+00 0.0000000000000000e+00 0.0000000000000000e+00  0.0000000000000000e+00 0.0000000000000000e+00 0.0000000000000000e+00  0.0000000000000000e+00 0.0000000000000000e+00 0.0000000000000000e+00  0.0000000000000000e+00 0.0000000000000000e+00 0.0000000000000000e+00  0.0000000000000000e+00 0.0000000000000000e+00 0.0000000000000000e+00  0.0000000000000000e+00 0.0000000000000000e+00 0.0000000000000000e+00  0.0000000000000000e+00 0.0000000000000000e+00 0.0000000000000000e+00  0.0000000000000000e+00 0.0000000000000000e+00 0.0000000000000000e+00  0.0000000000000000e+00 0.0000000000000000e+00 0.0000000000000000e+00  0.0000000000000000e+00 0.0000000000000000e+00 0.0000000000000000e+00  0.0000000000000000e+00 0.0000000000000000e+00 0.0000000000000000e+00  0.0000000000000000e+00 0.0000000000000000e+00 0.0000000000000000e+00  0.0000000000000000e+00 0.0000000000000000e+00 0.0000000000000000e+00  0.0000000000000000e+00 0.0000000000000000e+00 0.0000000000000000e+00  0.0000000000000000e+00 0.0000000000000000e+00 0.0000000000000000e+00  0.0000000000000000e+00 0.0000000000000000e+00 0.0000000000000000e+00  0.0000000000000000e+00 0.0000000000000000e+00 0.0000000000000000e+00  0.0000000000000000e+00 0.0000000000000000e+00 0.0000000000000000e+00  0.0000000000000000e+00 0.0000000000000000e+00 0.0000000000000000e+00  0.0000000000000000e+00 0.0000000000000000e+00 0.0000000000000000e+00  0.0000000000000000e+00 0.0000000000000000e+00 0.0000000000000000e+00  0.0000000000000000e+00 0.0000000000000000e+00 0.0000000000000000e+00  0.0000000000000000e+00 0.0000000000000000e+00 0.0000000000000000e+00  0.0000000000000000e+00 0.0000000000000000e+00 0.0000000000000000e+00  0.0000000000000000e+00 0.0000000000000000e+00 0.0000000000000000e+00  0.0000000000000000e+00 0.0000000000000000e+00 0.0000000000000000e+00  0.0000000000000000e+00 0.0000000000000000e+00 0.0000000000000000e+00  0.0000000000000000e+00 0.0000000000000000e+00 0.0000000000000000e+00  0.0000000000000000e+00 0.0000000000000000e+00 0.0000000000000000e+00  0.0000000000000000e+00 0.0000000000000000e+00 0.0000000000000000e+00  0.0000000000000000e+00 0.0000000000000000e+00 0.0000000000000000e+00  0.0000000000000000e+00 0.0000000000000000e+00 0.0000000000000000e+00  0.0000000000000000e+00 0.0000000000000000e+00 0.0000000000000000e+00  0.0000000000000000e+00 0.0000000000000000e+00 0.0000000000000000e+00  0.0000000000000000e+00 0.0000000000000000e+00 0.0000000000000000e+00  0.0000000000000000e+00 0.0000000000000000e+00 0.0000000000000000e+00  0.0000000000000000e+00 0.0000000000000000e+00 0.0000000000000000e+00  0.0000000000000000e+00 0.0000000000000000e+00 0.0000000000000000e+00  0.0000000000000000e+00 0.0000000000000000e+00 0.0000000000000000e+00  0.0000000000000000e+00 0.0000000000000000e+00 0.0000000000000000e+00  0.0000000000000000e+00 0.0000000000000000e+00 0.0000000000000000e+00  0.0000000000000000e+00 0.0000000000000000e+00 0.0000000000000000e+00  0.0000000000000000e+00 0.0000000000000000e+00 0.0000000000000000e+00  0.0000000000000000e+00 0.0000000000000000e+00 0.0000000000000000e+00  0.0000000000000000e+00 0.0000000000000000e+00 0.0000000000000000e+00  0.0000000000000000e+00 0.0000000000000000e+00 0.0000000000000000e+00  0.0000000000000000e+00 0.0000000000000000e+00 0.0000000000000000e+00  0.0000000000000000e+00 0.0000000000000000e+00 0.0000000000000000e+00  0.0000000000000000e+00 0.0000000000000000e+00 0.0000000000000000e+00  0.0000000000000000e+00 0.0000000000000000e+00 0.0000000000000000e+00  0.0000000000000000e+00 0.0000000000000000e+00 0.0000000000000000e+00  0.0000000000000000e+00 0.0000000000000000e+00 0.0000000000000000e+00  0.0000000000000000e+00 0.0000000000000000e+00 0.0000000000000000e+00  0.0000000000000000e+00 0.0000000000000000e+00 0.0000000000000000e+00  0.0000000000000000e+00 0.0000000000000000e+00 0.0000000000000000e+00  0.0000000000000000e+00 0.0000000000000000e+00 0.0000000000000000e+00  0.0000000000000000e+00 0.0000000000000000e+00 0.0000000000000000e+00  0.0000000000000000e+00 0.0000000000000000e+00 0.0000000000000000e+00  0.0000000000000000e+00 0.0000000000000000e+00 0.0000000000000000e+00  0.0000000000000000e+00 0.0000000000000000e+00 0.0000000000000000e+00  0.0000000000000000e+00 0.0000000000000000e+00 0.0000000000000000e+00  0.0000000000000000e+00 0.0000000000000000e+00 0.0000000000000000e+00  0.0000000000000000e+00 0.0000000000000000e+00 0.0000000000000000e+00  0.0000000000000000e+00 0.0000000000000000e+00 0.0000000000000000e+00  0.0000000000000000e+00 0.0000000000000000e+00 0.0000000000000000e+00  0.0000000000000000e+00 0.0000000000000000e+00 0.0000000000000000e+00  1.4288672083594275e+01 0.0000000000000000e+00 0.0000000000000000e+00  1.4325325895551535e+01 -4.9946566068547769e-02 0.0000000000000000e+00  1.4327432424514562e+01 -1.3838843078928516e-02 0.0000000000000000e+00  1.4323651020006052e+01 -4.6201414294049026e-03 0.0000000000000000e+00  1.4325606692735530e+01 -3.5718949742310955e-03 0.0000000000000000e+00  1.4323027041376017e+01 -2.4948674533187879e-03 0.0000000000000000e+00  1.4323650745479053e+01 -3.8283546733588148e-03 0.0000000000000000e+00  1.4322751912260056e+01 -3.4074113664665740e-03 0.0000000000000000e+00  1.4321844102841670e+01 -3.4823263555710461e-03 0.0000000000000000e+00  1.4319914521605464e+01 -3.1675597966109694e-03 0.0000000000000000e+00  1.4317630693796721e+01 -3.1126452747479230e-03 0.0000000000000000e+00  1.4314856206871008e+01 -3.0185754625130902e-03 0.0000000000000000e+00  1.4311993270151085e+01 -3.0271776553755653e-03 0.0000000000000000e+00  1.4309015240267295e+01 -3.0294029752903052e-03 0.0000000000000000e+00  1.4306087100971297e+01 -3.0674297602086421e-03 0.0000000000000000e+00  1.4303209489404832e+01 -3.1036149539870662e-03 0.0000000000000000e+00  1.4300433362585997e+01 -3.1486839871164986e-03 0.0000000000000000e+00  1.4297758936992290e+01 -3.1921700374229213e-03 0.0000000000000000e+00  1.4295195836349739e+01 -3.2367317075045567e-03 0.0000000000000000e+00  1.4292744493608687e+01 -3.2813416668491312e-03 0.0000000000000000e+00  1.4290407093626699e+01 -3.3264722211431884e-03 0.0000000000000000e+00  1.4288186329588596e+01 -3.3726232253626430e-03 0.0000000000000000e+00  1.4286084291525313e+01 -3.4193900317342979e-03 0.0000000000000000e+00  1.4284103674165756e+01 -3.4669656065077158e-03 0.0000000000000000e+00  1.4282245826801997e+01 -3.5148039850807743e-03 0.0000000000000000e+00  1.4280511969841857e+01 -3.5628940745620645e-03 0.0000000000000000e+00  1.4278902316493440e+01 -3.6109277891021698e-03 0.0000000000000000e+00  1.4277416997327583e+01 -3.6589550054455752e-03 0.0000000000000000e+00  1.4276055834486476e+01 -3.7069204605735830e-03 0.0000000000000000e+00  1.4274818820749831e+01 -3.7549184700607424e-03 0.0000000000000000e+00  1.4273705985755889e+01 -3.8029652565253064e-03 0.0000000000000000e+00  1.4272717509533589e+01 -3.8511055578541787e-03 0.0000000000000000e+00  1.4271853591841783e+01 -3.8993321086160078e-03 0.0000000000000000e+00  1.4271114452174546e+01 -3.9476428409316033e-03 0.0000000000000000e+00  1.4270500269520426e+01 -3.9960193407238111e-03 0.0000000000000000e+00  1.4270011193051378e+01 -4.0444522128373715e-03 0.0000000000000000e+00  1.4269647336730829e+01 -4.0929319937310143e-03 0.0000000000000000e+00  1.4269408796904026e+01 -4.1414559277687720e-03 0.0000000000000000e+00  1.4269295657758285e+01 -4.1900223383350916e-03 0.0000000000000000e+00  1.4269308000152586e+01 -4.2386319794379072e-03 0.0000000000000000e+00  1.4269445904011340e+01 -4.2872859559219727e-03 0.0000000000000000e+00  1.4269709451973572e+01 -4.3359865443883643e-03 0.0000000000000000e+00  1.4270098731556855e+01 -4.3847367199184081e-03 0.0000000000000000e+00  1.4270613838050195e+01 -4.4335403354776861e-03 0.0000000000000000e+00  1.4271254876384013e+01 -4.4824016194552107e-03 0.0000000000000000e+00  1.4272021962174023e+01 -4.5313248003805437e-03 0.0000000000000000e+00  1.4272915221335731e+01 -4.5803136393299769e-03 0.0000000000000000e+00  1.4273934788773520e+01 -4.6293712360018190e-03 0.0000000000000000e+00  1.4275080806542842e+01 -4.6785000107815063e-03 0.0000000000000000e+00  1.4276353422109201e+01 -4.7277018636734088e-03 0.0000000000000000e+00  1.4277752787087429e+01 -4.7769784121388468e-03 0.0000000000000000e+00  1.4279279056599915e+01 -4.8263312191076735e-03 0.0000000000000000e+00  1.4280932389200101e+01 -4.8757619414753579e-03 0.0000000000000000e+00  1.4282712947161455e+01 -4.9252723954392955e-03 0.0000000000000000e+00  1.4284620896915669e+01 -4.9748645467130540e-03 0.0000000000000000e+00  1.4286656409431936e+01 -5.0245404430118677e-03 0.0000000000000000e+00  1.4288819660435522e+01 -5.0743021304535596e-03 0.0000000000000000e+00  1.4291110830379271e+01 -5.1241514673936381e-03 0.0000000000000000e+00  1.4293530103929081e+01 -5.1740900697222680e-03 0.0000000000000000e+00  1.4296077669496389e+01 -5.2241188661934094e-03 0.0000000000000000e+00  1.4298753716853781e+01 -5.2742381397279017e-03 0.0000000000000000e+00  1.4301558436909481e+01 -5.3244462525101075e-03 0.0000000000000000e+00  1.4304492012913999e+01 -5.3747400431276571e-03 0.0000000000000000e+00  1.4307554624486068e+01 -5.4251114883629272e-03 0.0000000000000000e+00  1.4310746416990856e+01 -5.4755481671385593e-03 0.0000000000000000e+00  1.4314067524818229e+01 -5.5260285414347786e-03 0.0000000000000000e+00  1.4317517977685931e+01 -5.5765131708545752e-03 0.0000000000000000e+00  1.4321097768566570e+01 -5.6269623555301115e-03 0.0000000000000000e+00  1.4324806623151872e+01 -5.6772533379882140e-03 0.0000000000000000e+00  1.4328644032821154e+01 -5.7273616849677304e-03 0.0000000000000000e+00  1.4332608964893810e+01 -5.7769940909144024e-03 0.0000000000000000e+00  1.4336699562358152e+01 -5.8263484903682584e-03 0.0000000000000000e+00  1.4340914324469788e+01 -5.8756092851877592e-03 0.0000000000000000e+00  1.4345251572862459e+01 -5.9252799228549820e-03 0.0000000000000000e+00  1.4349711849281119e+01 -5.9801181364808192e-03 0.0000000000000000e+00  1.4354310934882289e+01 -6.0457473603805463e-03 0.0000000000000000e+00  1.4359099328723898e+01 -6.1488751466146508e-03 0.0000000000000000e+00  1.4364444277715792e+01 -6.2900182855887259e-03 0.0000000000000000e+00  1.4371403719670067e+01 -6.2027157558308251e-03 0.0000000000000000e+00  1.4387605113430855e+01 -1.6084023140388859e-03 0.0000000000000000e+00  1.4429571929242627e+01 0.0000000000000000e+00 0.0000000000000000e+00  2.2916386292494082e+01 0.0000000000000000e+00 0.0000000000000000e+00  2.2944877430467610e+01 2.5915103399294859e-02 0.0000000000000000e+00  2.2920391039968916e+01 1.6362470828710865e-03 0.0000000000000000e+00  2.2919115647421052e+01 8.7088579099604720e-03 0.0000000000000000e+00  2.2911921965611903e+01 4.3043245519213107e-03 0.0000000000000000e+00  2.2914914698607340e+01 2.4113731606970035e-03 0.0000000000000000e+00  2.2915494223012058e+01 2.6270004560244660e-03 0.0000000000000000e+00  2.2916716545379778e+01 3.1251512744143485e-03 0.0000000000000000e+00  2.2914755403666099e+01 4.4577510923116369e-03 0.0000000000000000e+00  2.2911913029841255e+01 5.2261689751656034e-03 0.0000000000000000e+00  2.2907468008440059e+01 5.9082712578138281e-03 0.0000000000000000e+00  2.2902590385417287e+01 6.2096495992035993e-03 0.0000000000000000e+00  2.2897056288757611e+01 6.3959509987409754e-03 0.0000000000000000e+00  2.2891421695880450e+01 6.4109856596614940e-03 0.0000000000000000e+00  2.2885635602798075e+01 6.3606019069176040e-03 0.0000000000000000e+00  2.2879944837227313e+01 6.2434076807012665e-03 0.0000000000000000e+00  2.2874346252222079e+01 6.1036911302092458e-03 0.0000000000000000e+00  2.2868922606681576e+01 5.9477558930596374e-03 0.0000000000000000e+00  2.2863671079844540e+01 5.7874748696179670e-03 0.0000000000000000e+00  2.2858612321683015e+01 5.6235448058392680e-03 0.0000000000000000e+00  2.2853746978813209e+01 5.4564608244498172e-03 0.0000000000000000e+00  2.2849082006586940e+01 5.2861578028131871e-03 0.0000000000000000e+00  2.2844621632026737e+01 5.1123260796920467e-03 0.0000000000000000e+00  2.2840370268245483e+01 4.9359001332989717e-03 0.0000000000000000e+00  2.2836331781280386e+01 4.7574080555298050e-03 0.0000000000000000e+00  2.2832508349091672e+01 4.5779953777676206e-03 0.0000000000000000e+00  2.2828901512370503e+01 4.3981686798350147e-03 0.0000000000000000e+00  2.2825511513829628e+01 4.2184259482980014e-03 0.0000000000000000e+00  2.2822338458791062e+01 4.0387593812270459e-03 0.0000000000000000e+00  2.2819382130365103e+01 3.8591299134920669e-03 0.0000000000000000e+00  2.2816642578904119e+01 3.6793566491301962e-03 0.0000000000000000e+00  2.2814119916971965e+01 3.4993574908414832e-03 0.0000000000000000e+00  2.2811814441268275e+01 3.3190777432927027e-03 0.0000000000000000e+00  2.2809726445436766e+01 3.1385417094546846e-03 0.0000000000000000e+00  2.2807856227693964e+01 2.9577853578796592e-03 0.0000000000000000e+00  2.2806204017788730e+01 2.7768567868047904e-03 0.0000000000000000e+00  2.2804770002276179e+01 2.5957879316778798e-03 0.0000000000000000e+00  2.2803554319943903e+01 2.4146012036814304e-03 0.0000000000000000e+00  2.2802557086523553e+01 2.2333067717266873e-03 0.0000000000000000e+00  2.2801778399335518e+01 2.0519098745419282e-03 0.0000000000000000e+00  2.2801218347747120e+01 1.8704111073321015e-03 0.0000000000000000e+00  2.2800877015482495e+01 1.6888082582469893e-03 0.0000000000000000e+00  2.2800754486368838e+01 1.5070953628603921e-03 0.0000000000000000e+00  2.2800850848441911e+01 1.3252632555863888e-03 0.0000000000000000e+00  2.2801166199145431e+01 1.1433002226262862e-03 0.0000000000000000e+00  2.2801700648500809e+01 9.6119370635969182e-04 0.0000000000000000e+00  2.2802454320614288e+01 7.7893182455812432e-04 0.0000000000000000e+00  2.2803427352803727e+01 5.9650459004386379e-04 0.0000000000000000e+00  2.2804619893377456e+01 4.1390429147746270e-04 0.0000000000000000e+00  2.2806032098736971e+01 2.3112527941483228e-04 0.0000000000000000e+00  2.2807664130864413e+01 4.8163284448294535e-05 0.0000000000000000e+00  2.2809516155554544e+01 -1.3498535822190771e-04 0.0000000000000000e+00  2.2811588341639322e+01 -3.1832434051763859e-04 0.0000000000000000e+00  2.2813880860977008e+01 -5.0185776314724806e-04 0.0000000000000000e+00  2.2816393888944127e+01 -6.8559025260299183e-04 0.0000000000000000e+00  2.2819127605072694e+01 -8.6952684014106969e-04 0.0000000000000000e+00  2.2822082193630607e+01 -1.0536727965054172e-03 0.0000000000000000e+00  2.2825257843947707e+01 -1.2380331116367506e-03 0.0000000000000000e+00  2.2828654750432687e+01 -1.4226124331051485e-03 0.0000000000000000e+00  2.2832273112198930e+01 -1.6074138422768551e-03 0.0000000000000000e+00  2.2836113132153901e+01 -1.7924392491226848e-03 0.0000000000000000e+00  2.2840175015755836e+01 -1.9776861132535569e-03 0.0000000000000000e+00  2.2844458967870526e+01 -2.1631487822464162e-03 0.0000000000000000e+00  2.2848965190769238e+01 -2.3488108093372454e-03 0.0000000000000000e+00  2.2853693874429688e+01 -2.5346455675516297e-03 0.0000000000000000e+00  2.2858645194644328e+01 -2.7206068025712039e-03 0.0000000000000000e+00  2.2863819290061631e+01 -2.9066092696857300e-03 0.0000000000000000e+00  2.2869216242597709e+01 -3.0925573907278590e-03 0.0000000000000000e+00  2.2874836074294937e+01 -3.2782121560213629e-03 0.0000000000000000e+00  2.2880678494115067e+01 -3.4634004037424481e-03 0.0000000000000000e+00  2.2886743284690212e+01 -3.6475746560285932e-03 0.0000000000000000e+00  2.2893029005883488e+01 -3.8302657281953771e-03 0.0000000000000000e+00  2.2899535253225562e+01 -4.0114488516228980e-03 0.0000000000000000e+00  2.2906260157318286e+01 -4.1902324337081773e-03 0.0000000000000000e+00  2.2913199285575686e+01 -4.3739165035668985e-03 0.0000000000000000e+00  2.2920347959061914e+01 -4.5700587310157576e-03 0.0000000000000000e+00  2.2927694015481340e+01 -4.8205458714570331e-03 0.0000000000000000e+00  2.2935314105971653e+01 -5.2837645841751699e-03 0.0000000000000000e+00  2.2943636312099578e+01 -6.1398092924094963e-03 0.0000000000000000e+00  2.2952311023750855e+01 -7.7391554024335910e-03 0.0000000000000000e+00  2.2954940162624343e+01 0.0000000000000000e+00 0.0000000000000000e+00  2.4814196514403285e+01 0.0000000000000000e+00 0.0000000000000000e+00  2.4787671171154873e+01 -1.1802991037413797e-02 0.0000000000000000e+00  2.4795593013706348e+01 2.6670684344734102e-03 0.0000000000000000e+00  2.4795309421857532e+01 3.1446116725151142e-03 0.0000000000000000e+00  2.4801995227864946e+01 3.6496790273568228e-03 0.0000000000000000e+00  2.4799047676234544e+01 1.3279396184985137e-03 0.0000000000000000e+00  2.4798304773482464e+01 1.8768593796938530e-03 0.0000000000000000e+00  2.4793122962387624e+01 4.0022800203605253e-03 0.0000000000000000e+00  2.4788599286123308e+01 6.0411548275649081e-03 0.0000000000000000e+00  2.4782110956218265e+01 7.7372389902598789e-03 0.0000000000000000e+00  2.4775913096230475e+01 8.7864965113515475e-03 0.0000000000000000e+00  2.4769002009527160e+01 9.4458397165614535e-03 0.0000000000000000e+00  2.4762231843438087e+01 9.7649133514429772e-03 0.0000000000000000e+00  2.4755256220729777e+01 9.8574191026906035e-03 0.0000000000000000e+00  2.4748427367005284e+01 9.7753087555301384e-03 0.0000000000000000e+00  2.4741663812931343e+01 9.5821346654742616e-03 0.0000000000000000e+00  2.4735102696435781e+01 9.3250207218648594e-03 0.0000000000000000e+00  2.4728724238672825e+01 9.0364853316533336e-03 0.0000000000000000e+00  2.4722567635184372e+01 8.7341333457287926e-03 0.0000000000000000e+00  2.4716626797807070e+01 8.4237259112718461e-03 0.0000000000000000e+00  2.4710911523021945e+01 8.1072548443542683e-03 0.0000000000000000e+00  2.4705423066876559e+01 7.7840620590629806e-03 0.0000000000000000e+00  2.4700165715389524e+01 7.4547073409032480e-03 0.0000000000000000e+00  2.4695143098197764e+01 7.1197584470928934e-03 0.0000000000000000e+00  2.4690357824617664e+01 6.7809682045299330e-03 0.0000000000000000e+00  2.4685812302567200e+01 6.4398584080286089e-03 0.0000000000000000e+00  2.4681507272195329e+01 6.0979431549407206e-03 0.0000000000000000e+00  2.4677443295767887e+01 5.7559718416055209e-03 0.0000000000000000e+00  2.4673620100450560e+01 5.4142597416687761e-03 0.0000000000000000e+00  2.4670037631873484e+01 5.0726583861171771e-03 0.0000000000000000e+00  2.4666695719423387e+01 4.7309422225678393e-03 0.0000000000000000e+00  2.4663594479363571e+01 4.3888890973318821e-03 0.0000000000000000e+00  2.4660734042162186e+01 4.0464138361074962e-03 0.0000000000000000e+00  2.4658114639119727e+01 3.7035205045488138e-03 0.0000000000000000e+00  2.4655736450985444e+01 3.3602807170092864e-03 0.0000000000000000e+00  2.4653599643646185e+01 3.0167728217934688e-03 0.0000000000000000e+00  2.4651704326619821e+01 2.6730640886362561e-03 0.0000000000000000e+00  2.4650050586221450e+01 2.3291972998473157e-03 0.0000000000000000e+00  2.4648638481989032e+01 1.9851982243215792e-03 0.0000000000000000e+00  2.4647468063801057e+01 1.64108037785105