<?xml version="1.0"?>
<VTKFile type="UnstructuredGrid"  version="0.1"  >
<UnstructuredGrid>
<Piece  NumberOfPoints="1369" NumberOfCells="2560">
<Points>
<DataArray  type="Float64"  NumberOfComponents="3"  format="ascii">0 0 0  0.75 0 0  1.5 0 0  2.25 0 0  3 0 0  3.75 0 0  4.5 0 0  5.25 0 0  6 0 0  6.75 0 0  7.5 0 0  8.25 0 0  9 0 0  9.75 0 0  10.5 0 0  11.25 0 0  12 0 0  12.75 0 0  13.5 0 0  14.25 0 0  15 0 0  15.75 0 0  16.5 0 0  17.25 0 0  18 0 0  18.75 0 0  19.5 0 0  20.25 0 0  21 0 0  21.75 0 0  22.5 0 0  23.25 0 0  24 0 0  24.75 0 0  25.5 0 0  26.25 0 0  27 0 0  27.75 0 0  28.5 0 0  29.25 0 0  30 0 0  30.75 0 0  31.5 0 0  32.25 0 0  33 0 0  33.75 0 0  34.5 0 0  35.25 0 0  36 0 0  36.75 0 0  37.5 0 0  38.25 0 0  39 0 0  39.75 0 0  40.5 0 0  41.25 0 0  42 0 0  42.75 0 0  43.5 0 0  44.25 0 0  45 0 0  45.75 0 0  46.5 0 0  47.25 0 0  48 0 0  48.75 0 0  49.5 0 0  50.25 0 0  51 0 0  51.75 0 0  52.5 0 0  53.25 0 0  54 0 0  54.75 0 0  55.5 0 0  56.25 0 0  57 0 0  57.75 0 0  58.5 0 0  59.25 0 0  60 0 0  0 0.5 0  0.75 0.5000873519927733 0  1.5 0.5001739042711121 0  2.25 0.5002591437942888 0  3 0.5003426893760613 0  3.75 0.5004242873177257 0  4.5 0.5005037815444946 0  5.25 0.5005810807298813 0  6 0.5006561329677994 0  6.75 0.5007289092289408 0  7.5 0.500799393421786 0  8.25 0.5008675766711513 0  9 0.5009334540965865 0  9.75 0.5009970230195148 0  10.5 0.5010582819718867 0  11.25 0.5011172301500337 0  12 0.5011738671144821 0  12.75 0.5012281926251971 0  13.5 0.5012802065512655 0  14.25 0.5013299088214308 0  15 0.5013772993970202 0  15.75 0.5014223782571436 0  16.5 0.5014651453906016 0  17.25 0.5015056007914682 0  18 0.5015437444566837 0  18.75 0.5015795763847363 0  19.5 0.501613096574947 0  20.25 0.5016443050270802 0  21 0.5016732017411327 0  21.75 0.5016997867172138 0  22.5 0.5017240599554872 0  23.25 0.5017460214561352 0  24 0.501765671219339 0  24.75 0.5017830092452706 0  25.5 0.5017980355340859 0  26.25 0.5018107500859234 0  27 0.5018211529009009 0  27.75 0.5018292439791157 0  28.5 0.5018350233206429 0  29.25 0.501838490925538 0  30 0.5018396467938327 0  30.75 0.501838490925538 0  31.5 0.5018350233206429 0  32.25 0.5018292439791157 0  33 0.5018211529009009 0  33.75 0.5018107500859235 0  34.5 0.5017980355340859 0  35.25 0.5017830092452706 0  36 0.501765671219339 0  36.75 0.5017460214561352 0  37.5 0.5017240599554872 0  38.25 0.5016997867172138 0  39 0.5016732017411327 0  39.75 0.5016443050270802 0  40.5 0.5016130965749471 0  41.25 0.5015795763847363 0  42 0.5015437444566837 0  42.75 0.5015056007914682 0  43.5 0.5014651453906015 0  44.25 0.5014223782571436 0  45 0.5013772993970202 0  45.75 0.5013299088214308 0  46.5 0.5012802065512655 0  47.25 0.5012281926251971 0  48 0.5011738671144821 0  48.75 0.5011172301500337 0  49.5 0.5010582819718867 0  50.25 0.5009970230195148 0  51 0.5009334540965865 0  51.75 0.5008675766711513 0  52.5 0.500799393421786 0  53.25 0.5007289092289408 0  54 0.5006561329677994 0  54.75 0.5005810807298813 0  55.5 0.5005037815444945 0  56.25 0.5004242873177257 0  57 0.5003426893760613 0  57.75 0.5002591437942888 0  58.5 0.5001739042711121 0  59.25 0.5000873519927733 0  60 0.5 0  0 1 0  0.75 1.000174979047153 0  1.5 1.000348315154323 0  2.25 1.000518963237929 0  3 1.000686165183854 0  3.75 1.000849428825344 0  4.5 1.001008457294473 0  5.25 1.001163079091533 0  6 1.001313197455578 0  6.75 1.001458758485466 0  7.5 1.001599732365472 0  8.25 1.001736102669152 0  9 1.001867860368942 0  9.75 1.001995000511731 0  10.5 1.002117520383331 0  11.25 1.002235418498048 0  12 1.002348694043499 0  12.75 1.002457346576007 0  13.5 1.002561375853608 0  14.25 1.002660781744616 0  15 1.002755564177574 0  15.75 1.002845723113889 0  16.5 1.002931258532889 0  17.25 1.003012170423642 0  18 1.003088458780514 0  18.75 1.003160123600729 0  19.5 1.003227164883054 0  20.25 1.003289582627072 0  21 1.003347376832792 0  21.75 1.003400547500432 0  22.5 1.003449094630307 0  23.25 1.003493018222768 0  24 1.003532318278164 0  24.75 1.003566994796821 0  25.5 1.003597047779037 0  26.25 1.003622477225076 0  27 1.003643283135162 0  27.75 1.003659465509481 0  28.5 1.003671024348176 0  29.25 1.003677959651351 0  30 1.00368027141907 0  30.75 1.003677959651351 0  31.5 1.003671024348176 0  32.25 1.003659465509481 0  33 1.003643283135162 0  33.75 1.003622477225076 0  34.5 1.003597047779037 0  35.25 1.003566994796821 0  36 1.003532318278164 0  36.75 1.003493018222768 0  37.5 1.003449094630307 0  38.25 1.003400547500432 0  39 1.003347376832792 0  39.75 1.003289582627073 0  40.5 1.003227164883054 0  41.25 1.003160123600729 0  42 1.003088458780514 0  42.75 1.003012170423642 0  43.5 1.002931258532889 0  44.25 1.002845723113889 0  45 1.002755564177574 0  45.75 1.002660781744616 0  46.5 1.002561375853608 0  47.25 1.002457346576007 0  48 1.002348694043499 0  48.75 1.002235418498048 0  49.5 1.002117520383331 0  50.25 1.001995000511731 0  51 1.001867860368942 0  51.75 1.001736102669152 0  52.5 1.001599732365472 0  53.25 1.001458758485466 0  54 1.001313197455578 0  54.75 1.001163079091533 0  55.5 1.001008457294473 0  56.25 1.000849428825344 0  57 1.000686165183855 0  57.75 1.000518963237929 0  58.5 1.000348315154323 0  59.25 1.000174979047153 0  60 1 0  0 1.5 0  0.75 1.500263176467163 0  1.5 1.500523768068295 0  2.25 1.500780159855266 0  3 1.501031232256349 0  3.75 1.501276290233109 0  4.5 1.501514928196779 0  5.25 1.501746916519494 0  6 1.501972127079655 0  6.75 1.502190488930377 0  7.5 1.502401962950525 0  8.25 1.502606527622867 0  9 1.502804171132496 0  9.75 1.50299488700006 0  10.5 1.503178671675959 0  11.25 1.503355523217513 0  12 1.503525440562583 0  12.75 1.503688423131139 0  13.5 1.503844470606901 0  14.25 1.503993582817767 0  15 1.504135759670377 0  15.75 1.504271001114339 0  16.5 1.504399307122679 0  17.25 1.504520677681159 0  18 1.504635112782464 0  18.75 1.504742612423013 0  19.5 1.504843176601235 0  20.25 1.504936805316627 0  21 1.505023498569237 0  21.75 1.50510325635939 0  22.5 1.505176078687529 0  23.25 1.50524196555414 0  24 1.505300916959704 0  24.75 1.505352932904677 0  25.5 1.505398013389466 0  26.25 1.505436158414435 0  27 1.505467367979894 0  27.75 1.505491642086098 0  28.5 1.505508980733241 0  29.25 1.505519383921472 0  30 1.505522851650872 0  30.75 1.505519383921472 0  31.5 1.505508980733242 0  32.25 1.505491642086098 0  33 1.505467367979894 0  33.75 1.505436158414435 0  34.5 1.505398013389466 0  35.25 1.505352932904676 0  36 1.505300916959704 0  36.75 1.505241965554139 0  37.5 1.505176078687529 0  38.25 1.50510325635939 0  39 1.505023498569237 0  39.75 1.504936805316627 0  40.5 1.504843176601235 0  41.25 1.504742612423013 0  42 1.504635112782464 0  42.75 1.504520677681159 0  43.5 1.504399307122679 0  44.25 1.504271001114339 0  45 1.504135759670377 0  45.75 1.503993582817767 0  46.5 1.503844470606901 0  47.25 1.503688423131139 0  48 1.503525440562583 0  48.75 1.503355523217513 0  49.5 1.503178671675959 0  50.25 1.50299488700006 0  51 1.502804171132496 0  51.75 1.502606527622867 0  52.5 1.502401962950525 0  53.25 1.502190488930377 0  54 1.501972127079655 0  54.75 1.501746916519494 0  55.5 1.501514928196779 0  56.25 1.501276290233109 0  57 1.501031232256349 0  57.75 1.500780159855266 0  58.5 1.500523768068295 0  59.25 1.500263176467163 0  60 1.5 0  0 2 0  0.75 2.000352286366077 0  1.5 2.000700861673571 0  2.25 2.001043488667756 0  3 2.001378731679364 0  3.75 2.001705759280462 0  4.5 2.002024107882935 0  5.25 2.002333521541399 0  6 2.002633859345999 0  6.75 2.00292504381849 0  7.5 2.003207032395339 0  8.25 2.003479801712038 0  9 2.003743338952801 0  9.75 2.003997637093347 0  10.5 2.004242692286783 0  11.25 2.004478502428122 0  12 2.004705066366653 0  12.75 2.004922383474067 0  13.5 2.005130453407825 0  14.25 2.005329275981579 0  15 2.005518851094291 0  15.75 2.005699178691469 0  16.5 2.005870258743979 0  17.25 2.006032091236487 0  18 2.006184676161146 0  18.75 2.006328013514157 0  19.5 2.00646210329389 0  20.25 2.006586945499864 0  21 2.006702540132196 0  21.75 2.006808887191294 0  22.5 2.006905986677688 0  23.25 2.00699383859196 0  24 2.007072442934672 0  24.75 2.007141799706351 0  25.5 2.00720190890748 0  26.25 2.00725277053848 0  27 2.007294384599712 0  27.75 2.007326751091474 0  28.5 2.007349870013994 0  29.25 2.007363741367441 0  30 2.007368365151911 0  30.75 2.007363741367441 0  31.5 2.007349870013994 0  32.25 2.007326751091474 0  33 2.007294384599712 0  33.75 2.00725277053848 0  34.5 2.00720190890748 0  35.25 2.007141799706351 0  36 2.007072442934671 0  36.75 2.00699383859196 0  37.5 2.006905986677689 0  38.25 2.006808887191294 0  39 2.006702540132196 0  39.75 2.006586945499864 0  40.5 2.00646210329389 0  41.25 2.006328013514157 0  42 2.006184676161146 0  42.75 2.006032091236487 0  43.5 2.005870258743979 0  44.25 2.005699178691469 0  45 2.005518851094291 0  45.75 2.005329275981579 0  46.5 2.005130453407825 0  47.25 2.004922383474067 0  48 2.004705066366653 0  48.75 2.004478502428122 0  49.5 2.004242692286783 0  50.25 2.003997637093347 0  51 2.003743338952801 0  51.75 2.003479801712038 0  52.5 2.003207032395339 0  53.25 2.00292504381849 0  54 2.002633859345999 0  54.75 2.002333521541399 0  55.5 2.002024107882935 0  56.25 2.001705759280462 0  57 2.001378731679364 0  57.75 2.001043488667756 0  58.5 2.000700861673571 0  59.25 2.000352286366077 0  60 2 0  0 2.5 0  0.75 2.500442741323758 0  1.5 2.500880304886985 0  2.25 2.501309788131547 0  3 2.501729556695267 0  3.75 2.502138753999044 0  4.5 2.502536927015655 0  5.25 2.502923832083314 0  6 2.503299336871881 0  6.75 2.503663369137149 0  7.5 2.504015889339532 0  8.25 2.504356875817468 0  9 2.504686316701826 0  9.75 2.505004205490949 0  10.5 2.505310538625326 0  11.25 2.505605314157652 0  12 2.505888531023585 0  12.75 2.506160188642087 0  13.5 2.506420286696461 0  14.25 2.506668825014486 0  15 2.506905803502846 0  15.75 2.507131222111266 0  16.5 2.50734508081292 0  17.25 2.507547379593742 0  18 2.50773811844658 0  18.75 2.507917297368018 0  19.5 2.508084916356646 0  20.25 2.50824097541
[...]
<PointData  Vectors="f_10-0"> 
<DataArray  type="Float64"  Name="f_10-0"  NumberOfComponents="3" format="ascii">0.0000000000000000e+00 0.0000000000000000e+00 0.0000000000000000e+00  0.0000000000000000e+00 0.0000000000000000e+00 0.0000000000000000e+00  0.0000000000000000e+00 0.0000000000000000e+00 0.0000000000000000e+00  0.0000000000000000e+00 0.0000000000000000e+00 0.0000000000000000e+00  0.0000000000000000e+00 0.0000000000000000e+00 0.0000000000000000e+00  0.0000000000000000e+00 0.0000000000000000e+00 0.0000000000000000e+00  0.0000000000000000e+00 0.0000000000000000e+00 0.0000000000000000e+00  0.0000000000000000e+00 0.0000000000000000e+00 0.0000000000000000e+00  0.0000000000000000e+00 0.0000000000000000e+00 0.0000000000000000e+00  0.0000000000000000e+00 0.0000000000000000e+00 0.0000000000000000e+00  0.0000000000000000e+00 0.0000000000000000e+00 0.0000000000000000e+00  0.0000000000000000e+00 0.0000000000000000e+00 0.0000000000000000e+00  0.0000000000000000e+00 0.0000000000000000e+00 0.0000000000000000e+00  0.0000000000000000e+00 0.0000000000000000e+00 0.0000000000000000e+00  0.0000000000000000e+00 0.0000000000000000e+00 0.0000000000000000e+00  0.0000000000000000e+00 0.0000000000000000e+00 0.0000000000000000e+00  0.0000000000000000e+00 0.0000000000000000e+00 0.0000000000000000e+00  0.0000000000000000e+00 0.0000000000000000e+00 0.0000000000000000e+00  0.0000000000000000e+00 0.0000000000000000e+00 0.0000000000000000e+00  0.0000000000000000e+00 0.0000000000000000e+00 0.0000000000000000e+00  0.0000000000000000e+00 0.0000000000000000e+00 0.0000000000000000e+00  0.0000000000000000e+00 0.0000000000000000e+00 0.0000000000000000e+00  0.0000000000000000e+00 0.0000000000000000e+00 0.0000000000000000e+00  0.0000000000000000e+00 0.0000000000000000e+00 0.0000000000000000e+00  0.0000000000000000e+00 0.0000000000000000e+00 0.0000000000000000e+00  0.0000000000000000e+00 0.0000000000000000e+00 0.0000000000000000e+00  0.0000000000000000e+00 0.0000000000000000e+00 0.0000000000000000e+00  0.0000000000000000e+00 0.0000000000000000e+00 0.0000000000000000e+00  0.0000000000000000e+00 0.0000000000000000e+00 0.0000000000000000e+00  0.0000000000000000e+00 0.0000000000000000e+00 0.0000000000000000e+00  0.0000000000000000e+00 0.0000000000000000e+00 0.0000000000000000e+00  0.0000000000000000e+00 0.0000000000000000e+00 0.0000000000000000e+00  0.0000000000000000e+00 0.0000000000000000e+00 0.0000000000000000e+00  0.0000000000000000e+00 0.0000000000000000e+00 0.0000000000000000e+00  0.0000000000000000e+00 0.0000000000000000e+00 0.0000000000000000e+00  0.0000000000000000e+00 0.0000000000000000e+00 0.0000000000000000e+00  0.0000000000000000e+00 0.0000000000000000e+00 0.0000000000000000e+00  0.0000000000000000e+00 0.0000000000000000e+00 0.0000000000000000e+00  0.0000000000000000e+00 0.0000000000000000e+00 0.0000000000000000e+00  0.0000000000000000e+00 0.0000000000000000e+00 0.0000000000000000e+00  0.0000000000000000e+00 0.0000000000000000e+00 0.0000000000000000e+00  0.0000000000000000e+00 0.0000000000000000e+00 0.0000000000000000e+00  0.0000000000000000e+00 0.0000000000000000e+00 0.0000000000000000e+00  0.0000000000000000e+00 0.0000000000000000e+00 0.0000000000000000e+00  0.0000000000000000e+00 0.0000000000000000e+00 0.0000000000000000e+00  0.0000000000000000e+00 0.0000000000000000e+00 0.0000000000000000e+00  0.0000000000000000e+00 0.0000000000000000e+00 0.0000000000000000e+00  0.0000000000000000e+00 0.0000000000000000e+00 0.0000000000000000e+00  0.0000000000000000e+00 0.0000000000000000e+00 0.0000000000000000e+00  0.0000000000000000e+00 0.0000000000000000e+00 0.0000000000000000e+00  0.0000000000000000e+00 0.0000000000000000e+00 0.0000000000000000e+00  0.0000000000000000e+00 0.0000000000000000e+00 0.0000000000000000e+00  0.0000000000000000e+00 0.0000000000000000e+00 0.0000000000000000e+00  0.0000000000000000e+00 0.0000000000000000e+00 0.0000000000000000e+00  0.0000000000000000e+00 0.0000000000000000e+00 0.0000000000000000e+00  0.0000000000000000e+00 0.0000000000000000e+00 0.0000000000000000e+00  0.0000000000000000e+00 0.0000000000000000e+00 0.0000000000000000e+00  0.0000000000000000e+00 0.0000000000000000e+00 0.0000000000000000e+00  0.0000000000000000e+00 0.0000000000000000e+00 0.0000000000000000e+00  0.0000000000000000e+00 0.0000000000000000e+00 0.0000000000000000e+00  0.0000000000000000e+00 0.0000000000000000e+00 0.0000000000000000e+00  0.0000000000000000e+00 0.0000000000000000e+00 0.0000000000000000e+00  0.0000000000000000e+00 0.0000000000000000e+00 0.0000000000000000e+00  0.0000000000000000e+00 0.0000000000000000e+00 0.0000000000000000e+00  0.0000000000000000e+00 0.0000000000000000e+00 0.0000000000000000e+00  0.0000000000000000e+00 0.0000000000000000e+00 0.0000000000000000e+00  0.0000000000000000e+00 0.0000000000000000e+00 0.0000000000000000e+00  0.0000000000000000e+00 0.0000000000000000e+00 0.0000000000000000e+00  0.0000000000000000e+00 0.0000000000000000e+00 0.0000000000000000e+00  0.0000000000000000e+00 0.0000000000000000e+00 0.0000000000000000e+00  0.0000000000000000e+00 0.0000000000000000e+00 0.0000000000000000e+00  0.0000000000000000e+00 0.0000000000000000e+00 0.0000000000000000e+00  0.0000000000000000e+00 0.0000000000000000e+00 0.0000000000000000e+00  0.0000000000000000e+00 0.0000000000000000e+00 0.0000000000000000e+00  0.0000000000000000e+00 0.0000000000000000e+00 0.0000000000000000e+00  0.0000000000000000e+00 0.0000000000000000e+00 0.0000000000000000e+00  0.0000000000000000e+00 0.0000000000000000e+00 0.0000000000000000e+00  0.0000000000000000e+00 0.0000000000000000e+00 0.0000000000000000e+00  0.0000000000000000e+00 0.0000000000000000e+00 0.0000000000000000e+00  0.0000000000000000e+00 0.0000000000000000e+00 0.0000000000000000e+00  0.0000000000000000e+00 0.0000000000000000e+00 0.0000000000000000e+00  2.2511111230071396e+01 0.0000000000000000e+00 0.0000000000000000e+00  2.2517804962815639e+01 3.9509900957432044e-02 0.0000000000000000e+00  2.2530901457052607e+01 2.1056075003863702e-02 0.0000000000000000e+00  2.2511534179789489e+01 4.9976466008640049e-03 0.0000000000000000e+00  2.2508381482666469e+01 4.7789445070026536e-03 0.0000000000000000e+00  2.2504918311928343e+01 4.0315840507934211e-03 0.0000000000000000e+00  2.2500719468257689e+01 4.4475827678046179e-03 0.0000000000000000e+00  2.2497106141388134e+01 4.5317191572033224e-03 0.0000000000000000e+00  2.2492481917003239e+01 4.5674849577564880e-03 0.0000000000000000e+00  2.2488222661270584e+01 4.5410440730274011e-03 0.0000000000000000e+00  2.2483762678352626e+01 4.4914597416839657e-03 0.0000000000000000e+00  2.2479498295137805e+01 4.4258626736791160e-03 0.0000000000000000e+00  2.2475298331114455e+01 4.3582024851111009e-03 0.0000000000000000e+00  2.2471244070592039e+01 4.2874180878093955e-03 0.0000000000000000e+00  2.2467308595315398e+01 4.2162202430807089e-03 0.0000000000000000e+00  2.2463509832186702e+01 4.1429216957854127e-03 0.0000000000000000e+00  2.2459846882497803e+01 4.0680854887753812e-03 0.0000000000000000e+00  2.2456327241787378e+01 3.9915274424607537e-03 0.0000000000000000e+00  2.2452954021090022e+01 3.9138014917353466e-03 0.0000000000000000e+00  2.2449730710602854e+01 3.8352479381728176e-03 0.0000000000000000e+00  2.2446658912186447e+01 3.7563014677750575e-03 0.0000000000000000e+00  2.2443739498280131e+01 3.6772116996636795e-03 0.0000000000000000e+00  2.2440972586808037e+01 3.5981135026565692e-03 0.0000000000000000e+00  2.2438358123831382e+01 3.5190005484151366e-03 0.0000000000000000e+00  2.2435896105926105e+01 3.4398112811827178e-03 0.0000000000000000e+00  2.2433586729662824e+01 3.3604751479408787e-03 0.0000000000000000e+00  2.2431430353449866e+01 3.2809537749874697e-03 0.0000000000000000e+00  2.2429427409351941e+01 3.2012426947369346e-03 0.0000000000000000e+00  2.2427578313207174e+01 3.1213615283192313e-03 0.0000000000000000e+00  2.2425883415297438e+01 3.0413373390428340e-03 0.0000000000000000e+00  2.2424342990535166e+01 2.9611944353350205e-03 0.0000000000000000e+00  2.2422957251954433e+01 2.8809498811878634e-03 0.0000000000000000e+00  2.2421726370880481e+01 2.8006143209828829e-03 0.0000000000000000e+00  2.2420650492730651e+01 2.7201943048018426e-03 0.0000000000000000e+00  2.2419729746278335e+01 2.6396944205805280e-03 0.0000000000000000e+00  2.2418964248074538e+01 2.5591181815789346e-03 0.0000000000000000e+00  2.2418354105465717e+01 2.4784680186006572e-03 0.0000000000000000e+00  2.2417899420012279e+01 2.3977449752066804e-03 0.0000000000000000e+00  2.2417600291569350e+01 2.3169487009543402e-03 0.0000000000000000e+00  2.2417456821922350e+01 2.2360778777153487e-03 0.0000000000000000e+00  2.2417469116868606e+01 2.1551309706371227e-03 0.0000000000000000e+00  2.2417637286138110e+01 2.0741069184869428e-03 0.0000000000000000e+00  2.2417961441571606e+01 1.9930056031173351e-03 0.0000000000000000e+00  2.2418441694299915e+01 1.9118279575046752e-03 0.0000000000000000e+00  2.2419078151976866e+01 1.8305757552900463e-03 0.0000000000000000e+00  2.2419870916726428e+01 1.7492512788007529e-03 0.0000000000000000e+00  2.2420820084100097e+01 1.6678569448417776e-03 0.0000000000000000e+00  2.2421925742941362e+01 1.5863950644233211e-03 0.0000000000000000e+00  2.2423187975889341e+01 1.5048676862819777e-03 0.0000000000000000e+00  2.2424606860152213e+01 1.4232765787286687e-03 0.0000000000000000e+00  2.2426182468245635e+01 1.3416232746544920e-03 0.0000000000000000e+00  2.2427914868614234e+01 1.2599091514917792e-03 0.0000000000000000e+00  2.2429804125977441e+01 1.1781355071540996e-03 0.0000000000000000e+00  2.2431850301514828e+01 1.0963036178996692e-03 0.0000000000000000e+00  2.2434053452894890e+01 1.0144147705517656e-03 0.0000000000000000e+00  2.2436413634192597e+01 9.3247025676847358e-04 0.0000000000000000e+00  2.2438930895974696e+01 8.5047137971623892e-04 0.0000000000000000e+00  2.2441605285005757e+01 7.6841929384850781e-04 0.0000000000000000e+00  2.2444436845340462e+01 6.8631510824816331e-04 0.0000000000000000e+00  2.2447425616938538e+01 6.0415915619254398e-04 0.0000000000000000e+00  2.2450571641152923e+01 5.2195176218503112e-04 0.0000000000000000e+00  2.2453874953917936e+01 4.3969027991561127e-04 0.0000000000000000e+00  2.2457335607583151e+01 3.5737254328255101e-04 0.0000000000000000e+00  2.2460953643920661e+01 2.7498618867878127e-04 0.0000000000000000e+00  2.2464729170450973e+01 1.9251737361815073e-04 0.0000000000000000e+00  2.2468662285601468e+01 1.0992219094269852e-04 0.0000000000000000e+00  2.2472753313996897e+01 2.7114832306466719e-05 0.0000000000000000e+00  2.2477002719375495e+01 -5.6040187301773035e-05 0.0000000000000000e+00  2.2481411699932305e+01 -1.3998254163657576e-04 0.0000000000000000e+00  2.2485982336131240e+01 -2.2490799304918088e-04 0.0000000000000000e+00  2.2490718363243261e+01 -3.1200124117374516e-04 0.0000000000000000e+00  2.2495623597184888e+01 -3.9939285074840845e-04 0.0000000000000000e+00  2.2500699421625647e+01 -4.8382050037967654e-04 0.0000000000000000e+00  2.2505921114182254e+01 -5.4570585755508083e-04 0.0000000000000000e+00  2.2511209179213722e+01 -5.3963754451322610e-04 0.0000000000000000e+00  2.2516310806288477e+01 -3.7535997537380974e-04 0.0000000000000000e+00  2.2520756732613094e+01 4.9130384474440544e-05 0.0000000000000000e+00  2.2523826137062610e+01 7.1086224553677606e-04 0.0000000000000000e+00  2.2524829949093636e+01 1.4960221861415449e-03 0.0000000000000000e+00  2.2520869419575387e+01 6.9590883185395276e-04 0.0000000000000000e+00  2.2511537872669610e+01 0.0000000000000000e+00 0.0000000000000000e+00  2.5839920797045096e+01 0.0000000000000000e+00 0.0000000000000000e+00  2.5796255140714024e+01 -6.6590883362812594e-03 0.0000000000000000e+00  2.5827428335892549e+01 9.6040844015401697e-03 0.0000000000000000e+00  2.5830856746096035e+01 8.3161265655484623e-03 0.0000000000000000e+00  2.5828569368548788e+01 6.8376049374082584e-03 0.0000000000000000e+00  2.5821153128673338e+01 6.9426671249661447e-03 0.0000000000000000e+00  2.5813923939121331e+01 7.7199320090830656e-03 0.0000000000000000e+00  2.5805812035709710e+01 7.8526049379311364e-03 0.0000000000000000e+00  2.5797860165086590e+01 8.0599785484294900e-03 0.0000000000000000e+00  2.5789680153891769e+01 7.9687065868539343e-03 0.0000000000000000e+00  2.5781735250649767e+01 7.8487554429664229e-03 0.0000000000000000e+00  2.5773916984493077e+01 7.6531107730199010e-03 0.0000000000000000e+00  2.5766355682910920e+01 7.4514521390602962e-03 0.0000000000000000e+00  2.5759011379924296e+01 7.2391753151171767e-03 0.0000000000000000e+00  2.5751911697066102e+01 7.0243411016969312e-03 0.0000000000000000e+00  2.5745050775803509e+01 6.8031954009101442e-03 0.0000000000000000e+00  2.5738441234171784e+01 6.5760072340449623e-03 0.0000000000000000e+00  2.5732088175947212e+01 6.3429868515302917e-03 0.0000000000000000e+00  2.5725998896418165e+01 6.1055696601068788e-03 0.0000000000000000e+00  2.5720177257840874e+01 5.8652608074727195e-03 0.0000000000000000e+00  2.5714625910881860e+01 5.6235216746315358e-03 0.0000000000000000e+00  2.5709345645442873e+01 5.3813804083470661e-03 0.0000000000000000e+00  2.5704336458486281e+01 5.1393494657692726e-03 0.0000000000000000e+00  2.5699598018651702e+01 4.8974634228020836e-03 0.0000000000000000e+00  2.5695130207830061e+01 4.6555069790175825e-03 0.0000000000000000e+00  2.5690933244282302e+01 4.4132242304236562e-03 0.0000000000000000e+00  2.5687007623155292e+01 4.1704626771372324e-03 0.0000000000000000e+00  2.5683353942408658e+01 3.9271962200274381e-03 0.0000000000000000e+00  2.5679972760523157e+01 3.6834897737592575e-03 0.0000000000000000e+00  2.5676864523625376e+01 3.4394398186633501e-03 0.0000000000000000e+00  2.5674029559962850e+01 3.1951347052965526e-03 0.0000000000000000e+00  2.5671468108652881e+01 2.9506367979823295e-03 0.0000000000000000e+00  2.5669180354186921e+01 2.7059846337068997e-03 0.0000000000000000e+00  2.5667166450787811e+01 2.4612014526367281e-03 0.0000000000000000e+00  2.5665426534409349e+01 2.2163034680235077e-03 0.0000000000000000e+00  2.5663960727160251e+01 1.9713034041820565e-03 0.0000000000000000e+00  2.5662769140184519e+01 1.7262106057894292e-03 0.0000000000000000e+00  2.5661851878160334e+01 1.4810297128538276e-03 0.0000000000000000e+00  2.5661209045469498e+01 1.2357602803210127e-03 0.0000000000000000e+00  2.5660840752004784e+01 9.9039805009953062e-04 0.0000000000000000e+00  2.5660747116486469e+01 7.4493745669573894e-04 0.0000000000000000e+00  2.5660928266437139e+01 4.9937424742753649e-04 0.0000000000000000e+00  2.5661384335257978e+01 2.5370727037341933e-04 0.0000000000000000e+00  2.5662115457924237e+01 7.9390332120131344e-06 0.0000000000000000e+00  2.5663121766735113e+01 -2.3792489274173154e-04 0.0000000000000000e+00  2.5664403388298030e+01 -4.8387703015762094e-04 0.0000000000000000e+00  2.5665960442073345e+01 -7.2990926942742226e-04 0.0000000000000000e+00  2.5667793040330984e+01 -9.7601384024981273e-04 0.0000000000000000e+00  2.5669901288969218e+01 -1.2221838405806523e-03 0.0000000000000000e+00  2.5672285288739467e+01 -1.4684133692374132e-03 0.0000000000000000e+00  2.5674945136342906e+01 -1.7146973750941225e-03 0.0000000000000000e+00  2.5677880925288449e+01 -1.9610313929654486e-03 0.0000000000000000e+00  2.5681092746374645e+01 -2.2074112676006992e-03 0.0000000000000000e+00  2.5684580687876110e+01 -2.4538329381235623e-03 0.0000000000000000e+00  2.5688344835477043e+01 -2.7002922876211378e-03 0.0000000000000000e+00  2.5692385272105163e+01 -2.9467851079107306e-03 0.0000000000000000e+00  2.5696702077608577e+01 -3.1933070624512497e-03 0.0000000000000000e+00  2.5701295328458244e+01 -3.4398538337564412e-03 0.0000000000000000e+00  2.5706165097262506e+01 -3.6864212802520525e-03 0.0000000000000000e+00  2.5711311452259643e+01 -3.9330055190846180e-03 0.0000000000000000e+00  2.5716734456509535e+01 -4.1796041045230221e-03 0.0000000000000000e+00  2.5722434165513114e+01 -4.4262144067867878e-03 0.0000000000000000e+00  2.5728410626011360e+01 -4.6728401129797464e-03 0.0000000000000000e+00  2.5734663861473781e+01 -4.9194793723800496e-03 0.0000000000000000e+00  2.5741193874188856e+01 -5.1661592678149690e-03 0.0000000000000000e+00  2.5748000574530735e+01 -5.4128772716855438e-03 0.0000000000000000e+00  2.5755083817425888e+01 -5.6597769029172931e-03 0.0000000000000000e+00  2.5762443162841912e+01 -5.9068880665824469e-03 0.0000000000000000e+00  2.5770078064160383e+01 -6.1549393325044631e-03 0.0000000000000000e+00  2.5777987522851060e+01 -6.4041170617229904e-03 0.0000000000000000e+00  2.5786170187140545e+01 -6.6568505406816476e-03 0.0000000000000000e+00  2.5794625195410276e+01 -6.9107615348502497e-03 0.0000000000000000e+00  2.5803344975427997e+01 -7.1598389965346915e-03 0.0000000000000000e+00  2.5812308753971372e+01 -7.3578086241983991e-03 0.0000000000000000e+00  2.5821414782606514e+01 -7.3821473914160145e-03 0.0000000000000000e+00  2.5830373743560941e+01 -6.9765304247110171e-03 0.0000000000000000e+00  2.5838662015406367e+01 -5.8599481788735065e-03 0.0000000000000000e+00  2.5845674477945980e+01 -3.8589382474530833e-03 0.0000000000000000e+00  2.5851343770122760e+01 -1.2408586810431601e-03 0.0000000000000000e+00  2.5857145347365435e+01 2.4477591985425681e-03 0.0000000000000000e+00  2.5864749529976649e+01 0.0000000000000000e+00 0.0000000000000000e+00  2.4981550274618332e+01 0.0000000000000000e+00 0.0000000000000000e+00  2.4971451166632828e+01 -2.5221774206451524e-03 0.0000000000000000e+00  2.4970676019650231e+01 9.7975525488418593e-04 0.0000000000000000e+00  2.4967335669261065e+01 8.0413829160390377e-03 0.0000000000000000e+00  2.4958948096554224e+01 9.0910759693590450e-03 0.0000000000000000e+00  2.4950880362127123e+01 1.0413691876827386e-02 0.0000000000000000e+00  2.4941374613539839e+01 1.1055409587696461e-02 0.0000000000000000e+00  2.4932353354031832e+01 1.1537197551714602e-02 0.0000000000000000e+00  2.4923125562848632e+01 1.1613515357071046e-02 0.0000000000000000e+00  2.4914202124854427e+01 1.1509400389210205e-02 0.0000000000000000e+00  2.4905441724757239e+01 1.1223961276261362e-02 0.0000000000000000e+00  2.4896986500612510e+01 1.0883362706188079e-02 0.0000000000000000e+00  2.4888788184744566e+01 1.0512338099348855e-02 0.0000000000000000e+00  2.4880871672010116e+01 1.0138245325900864e-02 0.0000000000000000e+00  2.4873222172093456e+01 9.7564469014555042e-03 0.0000000000000000e+00  2.4865849343409213e+01 9.3655714367127316e-03 0.0000000000000000e+00  2.4858754969506716e+01 8.9634437678858744e-03 0.0000000000000000e+00  2.4851945510150866e+01 8.5515816002771396e-03 0.0000000000000000e+00  2.4845423939359240e+01 8.1322712189234678e-03 0.0000000000000000e+00  2.4839192834153529e+01 7.7083562320284082e-03 0.0000000000000000e+00  2.4833252918902335e+01 7.2822998145185402e-03 0.0000000000000000e+00  2.4827604202036543e+01 6.8558362633866802e-03 0.0000000000000000e+00  2.4822246162376306e+01 6.4297158758024669e-03 0.0000000000000000e+00  2.4817178381804997e+01 6.0038886988573710e-03 0.0000000000000000e+00  2.4812400725994120e+01 5.5778982466615171e-03 0.0000000000000000e+00  2.4807913387740260e+01 5.1512810228708152e-03 0.0000000000000000e+00  2.4803716738668125e+01 4.7237852453701403e-03 0.0000000000000000e+00  2.4799811179900384e+01 4.2953963899914488e-03 0.0000000000000000e+00  2.4796197039618143e+01 3.8662497487479326e-03 0.0000000000000000e+00  2.4792874544102744e+01 3.4365241169909333e-03 0.0000000000000000e+00  2.4789843834682067e+01 3.0063718275629269e-03 0.0000000000000000e+00  2.4787105000745779e+01 2.5758950499149874e-03 0.0000000000000000e+00  2.4784658107380785e+01 2.1451535399799825e-03 0.0000000000000000e+00  2.4782503210232342e+01 1.7141827424586988e-03 0.0000000000000000e+00  2.4780640360301067e+01 1.2830081285065092e-03 0.0000000000000000e+00  2.4779069604478014e+01 8.5165075423068541e-04 0.0000000000000000e+00  2.4777790986753086e+01 4.2012627315046329e-04 0.0000000000000000e+00  2.4776804551598090e+01 -1.1557873419607565e-05 0.0000000000000000e+00  2.4776110348611450e+01 -4.4340318576203963e-04 0.0000000000000000e+00  2.4775708436327292e+01 -8.7541762692786734e-04 0.0000000000000000e+00  2.4775598883701633e+01 -1.307