<?xml version="1.0"?>
<VTKFile type="UnstructuredGrid"  version="0.1"  >
<UnstructuredGrid>
<Piece  NumberOfPoints="1369" NumberOfCells="2560">
<Points>
<DataArray  type="Float64"  NumberOfComponents="3"  format="ascii">0 0 0  0.75 0 0  1.5 0 0  2.25 0 0  3 0 0  3.75 0 0  4.5 0 0  5.25 0 0  6 0 0  6.75 0 0  7.5 0 0  8.25 0 0  9 0 0  9.75 0 0  10.5 0 0  11.25 0 0  12 0 0  12.75 0 0  13.5 0 0  14.25 0 0  15 0 0  15.75 0 0  16.5 0 0  17.25 0 0  18 0 0  18.75 0 0  19.5 0 0  20.25 0 0  21 0 0  21.75 0 0  22.5 0 0  23.25 0 0  24 0 0  24.75 0 0  25.5 0 0  26.25 0 0  27 0 0  27.75 0 0  28.5 0 0  29.25 0 0  30 0 0  30.75 0 0  31.5 0 0  32.25 0 0  33 0 0  33.75 0 0  34.5 0 0  35.25 0 0  36 0 0  36.75 0 0  37.5 0 0  38.25 0 0  39 0 0  39.75 0 0  40.5 0 0  41.25 0 0  42 0 0  42.75 0 0  43.5 0 0  44.25 0 0  45 0 0  45.75 0 0  46.5 0 0  47.25 0 0  48 0 0  48.75 0 0  49.5 0 0  50.25 0 0  51 0 0  51.75 0 0  52.5 0 0  53.25 0 0  54 0 0  54.75 0 0  55.5 0 0  56.25 0 0  57 0 0  57.75 0 0  58.5 0 0  59.25 0 0  60 0 0  0 0.5 0  0.75 0.5000332839787331 0  1.5 0.5000662320505298 0  2.25 0.5000986593717883 0  3 0.5001304290064685 0  3.75 0.5001614500209893 0  4.5 0.5001916665798535 0  5.25 0.5002210460710926 0  6 0.5002495699959587 0  6.75 0.5002772280320171 0  7.5 0.5003040144723548 0  8.25 0.5003299261789733 0  9 0.5003549614323709 0  9.75 0.5003791192926055 0  10.5 0.5004023992468538 0  11.25 0.5004248010157906 0  12 0.5004463244475238 0  12.75 0.5004669694595983 0  13.5 0.5004867360073422 0  14.25 0.5005056240666135 0  15 0.5005236336244091 0  15.75 0.5005407646737615 0  16.5 0.5005570172109655 0  17.25 0.5005723912340762 0  18 0.5005868867420976 0  18.75 0.5006005037345407 0  19.5 0.5006132422111861 0  20.25 0.5006251021719569 0  21 0.50063608361685 0  21.75 0.5006461865458979 0  22.5 0.5006554109591489 0  23.25 0.5006637568566588 0  24 0.5006712242384818 0  24.75 0.5006778131046687 0  25.5 0.5006835234552668 0  26.25 0.5006883552903177 0  27 0.5006923086098564 0  27.75 0.500695383413912 0  28.5 0.5006975797025064 0  29.25 0.5006988974756569 0  30 0.5006993367333727 0  30.75 0.5006988974756569 0  31.5 0.5006975797025064 0  32.25 0.500695383413912 0  33 0.5006923086098564 0  33.75 0.5006883552903179 0  34.5 0.5006835234552669 0  35.25 0.5006778131046687 0  36 0.5006712242384818 0  36.75 0.5006637568566588 0  37.5 0.5006554109591489 0  38.25 0.5006461865458979 0  39 0.50063608361685 0  39.75 0.5006251021719569 0  40.5 0.5006132422111862 0  41.25 0.5006005037345407 0  42 0.5005868867420976 0  42.75 0.5005723912340762 0  43.5 0.5005570172109653 0  44.25 0.5005407646737615 0  45 0.5005236336244091 0  45.75 0.5005056240666135 0  46.5 0.5004867360073422 0  47.25 0.5004669694595983 0  48 0.5004463244475238 0  48.75 0.5004248010157906 0  49.5 0.5004023992468538 0  50.25 0.5003791192926055 0  51 0.5003549614323709 0  51.75 0.5003299261789733 0  52.5 0.5003040144723548 0  53.25 0.5002772280320171 0  54 0.5002495699959587 0  54.75 0.5002210460710926 0  55.5 0.5001916665798535 0  56.25 0.5001614500209893 0  57 0.5001304290064685 0  57.75 0.5000986593717883 0  58.5 0.5000662320505298 0  59.25 0.5000332839787331 0  60 0.5 0  0 1 0  0.75 1.000066667422598 0  1.5 1.000132646976799 0  2.25 1.000197562414017 0  3 1.000261141570198 0  3.75 1.000323208117448 0  4.5 1.000383655875622 0  5.25 1.000442423605412 0  6 1.000499476818749 0  6.75 1.000554796345534 0  7.5 1.000608371609025 0  8.25 1.000660196799787 0  9 1.000710268736291 0  9.75 1.000758585679939 0  10.5 1.000805146682319 0  11.25 1.000849951226911 0  12 1.00089299903285 0  12.75 1.000934289947684 0  13.5 1.000973823888819 0  14.25 1.001011600811627 0  15 1.001047620692074 0  15.75 1.001081883517283 0  16.5 1.001114389280413 0  17.25 1.001145137977873 0  18 1.001174129607829 0  18.75 1.001201364169381 0  19.5 1.001226841662131 0  20.25 1.001250562085942 0  21 1.001272525440813 0  21.75 1.001292731726808 0  22.5 1.001311180944021 0  23.25 1.001327873092558 0  24 1.001342808172525 0  24.75 1.001355986184017 0  25.5 1.001367407127125 0  26.25 1.001377071001928 0  27 1.001384977808493 0  27.75 1.001391127546875 0  28.5 1.001395520217116 0  29.25 1.001398155819248 0  30 1.00139903435329 0  30.75 1.001398155819248 0  31.5 1.001395520217116 0  32.25 1.001391127546875 0  33 1.001384977808493 0  33.75 1.001377071001929 0  34.5 1.001367407127125 0  35.25 1.001355986184017 0  36 1.001342808172525 0  36.75 1.001327873092558 0  37.5 1.001311180944021 0  38.25 1.001292731726808 0  39 1.001272525440813 0  39.75 1.001250562085942 0  40.5 1.001226841662131 0  41.25 1.001201364169381 0  42 1.001174129607829 0  42.75 1.001145137977873 0  43.5 1.001114389280413 0  44.25 1.001081883517283 0  45 1.001047620692074 0  45.75 1.001011600811627 0  46.5 1.000973823888819 0  47.25 1.000934289947683 0  48 1.00089299903285 0  48.75 1.000849951226911 0  49.5 1.000805146682319 0  50.25 1.000758585679939 0  51 1.000710268736291 0  51.75 1.000660196799787 0  52.5 1.000608371609025 0  53.25 1.000554796345534 0  54 1.000499476818749 0  54.75 1.000442423605412 0  55.5 1.000383655875622 0  56.25 1.000323208117448 0  57 1.000261141570198 0  57.75 1.000197562414017 0  58.5 1.000132646976799 0  59.25 1.000066667422598 0  60 1 0  0 1.5 0  0.75 1.50010025696916 0  1.5 1.500199437811296 0  2.25 1.50029696187517 0  3 1.500392427671263 0  3.75 1.500485586363164 0  4.5 1.500576292926808 0  5.25 1.500664465364766 0  6 1.500750058001242 0  6.75 1.500833045595211 0  7.5 1.500913414263268 0  8.25 1.500991156392119 0  9 1.501066267815939 0  9.75 1.501138746259293 0  10.5 1.50120859048125 0  11.25 1.501275799806073 0  12 1.501340373866372 0  12.75 1.501402312462739 0  13.5 1.501461615487161 0  14.25 1.501518282881281 0  15 1.501572314613679 0  15.75 1.501623710667534 0  16.5 1.501672471033911 0  17.25 1.501718595708131 0  18 1.501762084687809 0  18.75 1.501802937971783 0  19.5 1.501841155559544 0  20.25 1.501876737450925 0  21 1.501909683645936 0  21.75 1.501939994144674 0  22.5 1.501967668947269 0  23.25 1.501992708053868 0  24 1.502015111464616 0  24.75 1.502034879179649 0  25.5 1.502052011199088 0  26.25 1.502066507523044 0  27 1.502078368151608 0  27.75 1.502087593084858 0  28.5 1.502094182322848 0  29.25 1.502098135865627 0  30 1.502099453713217 0  30.75 1.502098135865627 0  31.5 1.502094182322849 0  32.25 1.502087593084858 0  33 1.502078368151608 0  33.75 1.502066507523044 0  34.5 1.502052011199088 0  35.25 1.502034879179649 0  36 1.502015111464616 0  36.75 1.501992708053868 0  37.5 1.501967668947269 0  38.25 1.501939994144674 0  39 1.501909683645936 0  39.75 1.501876737450925 0  40.5 1.501841155559544 0  41.25 1.501802937971783 0  42 1.501762084687809 0  42.75 1.501718595708131 0  43.5 1.501672471033911 0  44.25 1.501623710667534 0  45 1.501572314613679 0  45.75 1.501518282881281 0  46.5 1.501461615487161 0  47.25 1.501402312462739 0  48 1.501340373866372 0  48.75 1.501275799806073 0  49.5 1.50120859048125 0  50.25 1.501138746259293 0  51 1.501066267815939 0  51.75 1.500991156392119 0  52.5 1.500913414263268 0  53.25 1.500833045595211 0  54 1.500750058001242 0  54.75 1.500664465364766 0  55.5 1.500576292926808 0  56.25 1.500485586363164 0  57 1.500392427671263 0  57.75 1.50029696187517 0  58.5 1.500199437811296 0  59.25 1.50010025696916 0  60 1.5 0  0 2 0  0.75 2.000134175832216 0  1.5 2.000266819872285 0  2.25 2.00039712926686 0  3 2.000524589944115 0  3.75 2.00064890448001 0  4.5 2.000769907146774 0  5.25 2.000887506533601 0  6 2.001001652385756 0  6.75 2.001112317123968 0  7.5 2.001219485634029 0  8.25 2.001323149643664 0  9 2.00142330463111 0  9.75 2.001519948127866 0  10.5 2.001613078788138 0  11.25 2.00170269587923 0  12 2.001788799002835 0  12.75 2.001871387942795 0  13.5 2.001950462582048 0  14.25 2.002026022857358 0  15 2.002098068734697 0  15.75 2.002166600195857 0  16.5 2.00223161723118 0  17.25 2.00229311983562 0  18 2.002351108006614 0  18.75 2.002405581742928 0  19.5 2.00245654104403 0  20.25 2.002503985909758 0  21 2.002547916340142 0  21.75 2.002588332335304 0  22.5 2.0026252338954 0  23.25 2.002658621020606 0  24 2.00268849371109 0  24.75 2.002714851967009 0  25.5 2.002737695788511 0  26.25 2.002757025175718 0  27 2.00277284012874 0  27.75 2.002785140647666 0  28.5 2.002793926732562 0  29.25 2.002799198383481 0  30 2.00280095560045 0  30.75 2.002799198383481 0  31.5 2.002793926732562 0  32.25 2.002785140647666 0  33 2.00277284012874 0  33.75 2.002757025175719 0  34.5 2.002737695788511 0  35.25 2.002714851967009 0  36 2.002688493711089 0  36.75 2.002658621020606 0  37.5 2.0026252338954 0  38.25 2.002588332335304 0  39 2.002547916340142 0  39.75 2.002503985909758 0  40.5 2.00245654104403 0  41.25 2.002405581742928 0  42 2.002351108006614 0  42.75 2.00229311983562 0  43.5 2.00223161723118 0  44.25 2.002166600195857 0  45 2.002098068734698 0  45.75 2.002026022857358 0  46.5 2.001950462582048 0  47.25 2.001871387942795 0  48 2.001788799002835 0  48.75 2.00170269587923 0  49.5 2.001613078788138 0  50.25 2.001519948127865 0  51 2.00142330463111 0  51.75 2.001323149643664 0  52.5 2.001219485634029 0  53.25 2.001112317123968 0  54 2.001001652385756 0  54.75 2.000887506533601 0  55.5 2.000769907146774 0  56.25 2.00064890448001 0  57 2.000524589944115 0  57.75 2.00039712926686 0  58.5 2.000266819872285 0  59.25 2.000134175832216 0  60 2 0  0 2.5 0  0.75 2.500168579230005 0  1.5 2.500335047297213 0  2.25 2.500498365355058 0  3 2.500657949236254 0  3.75 2.500813492715223 0  4.5 2.500964833826191 0  5.25 2.501111885507362 0  6 2.501254600533657 0  6.75 2.501392953169431 0  7.5 2.501526929362681 0  8.25 2.501656521437455 0  9 2.501781725202302 0  9.75 2.501902538370357 0  10.5 2.50201895969525 0  11.25 2.502130988498561 0  12 2.502238624411554 0  12.75 2.50234186723415 0  13.5 2.502440716858018 0  14.25 2.502535173224659 0  15 2.502625236302618 0  15.75 2.502710906075073 0  16.5 2.502792182533122 0  17.25 2.502869065672128 0  18 2.502941555489751 0  18.75 2.503009651984873 0  19.5 2.503073355157037 0  20.25 2.503132665006113 0  21 2.5
[...]
<PointData  Vectors="f_10-0"> 
<DataArray  type="Float64"  Name="f_10-0"  NumberOfComponents="3" format="ascii">0.0000000000000000e+00 0.0000000000000000e+00 0.0000000000000000e+00  0.0000000000000000e+00 0.0000000000000000e+00 0.0000000000000000e+00  0.0000000000000000e+00 0.0000000000000000e+00 0.0000000000000000e+00  0.0000000000000000e+00 0.0000000000000000e+00 0.0000000000000000e+00  0.0000000000000000e+00 0.0000000000000000e+00 0.0000000000000000e+00  0.0000000000000000e+00 0.0000000000000000e+00 0.0000000000000000e+00  0.0000000000000000e+00 0.0000000000000000e+00 0.0000000000000000e+00  0.0000000000000000e+00 0.0000000000000000e+00 0.0000000000000000e+00  0.0000000000000000e+00 0.0000000000000000e+00 0.0000000000000000e+00  0.0000000000000000e+00 0.0000000000000000e+00 0.0000000000000000e+00  0.0000000000000000e+00 0.0000000000000000e+00 0.0000000000000000e+00  0.0000000000000000e+00 0.0000000000000000e+00 0.0000000000000000e+00  0.0000000000000000e+00 0.0000000000000000e+00 0.0000000000000000e+00  0.0000000000000000e+00 0.0000000000000000e+00 0.0000000000000000e+00  0.0000000000000000e+00 0.0000000000000000e+00 0.0000000000000000e+00  0.0000000000000000e+00 0.0000000000000000e+00 0.0000000000000000e+00  0.0000000000000000e+00 0.0000000000000000e+00 0.0000000000000000e+00  0.0000000000000000e+00 0.0000000000000000e+00 0.0000000000000000e+00  0.0000000000000000e+00 0.0000000000000000e+00 0.0000000000000000e+00  0.0000000000000000e+00 0.0000000000000000e+00 0.0000000000000000e+00  0.0000000000000000e+00 0.0000000000000000e+00 0.0000000000000000e+00  0.0000000000000000e+00 0.0000000000000000e+00 0.0000000000000000e+00  0.0000000000000000e+00 0.0000000000000000e+00 0.0000000000000000e+00  0.0000000000000000e+00 0.0000000000000000e+00 0.0000000000000000e+00  0.0000000000000000e+00 0.0000000000000000e+00 0.0000000000000000e+00  0.0000000000000000e+00 0.0000000000000000e+00 0.0000000000000000e+00  0.0000000000000000e+00 0.0000000000000000e+00 0.0000000000000000e+00  0.0000000000000000e+00 0.0000000000000000e+00 0.0000000000000000e+00  0.0000000000000000e+00 0.0000000000000000e+00 0.0000000000000000e+00  0.0000000000000000e+00 0.0000000000000000e+00 0.0000000000000000e+00  0.0000000000000000e+00 0.0000000000000000e+00 0.0000000000000000e+00  0.0000000000000000e+00 0.0000000000000000e+00 0.0000000000000000e+00  0.0000000000000000e+00 0.0000000000000000e+00 0.0000000000000000e+00  0.0000000000000000e+00 0.0000000000000000e+00 0.0000000000000000e+00  0.0000000000000000e+00 0.0000000000000000e+00 0.0000000000000000e+00  0.0000000000000000e+00 0.0000000000000000e+00 0.0000000000000000e+00  0.0000000000000000e+00 0.0000000000000000e+00 0.0000000000000000e+00  0.0000000000000000e+00 0.0000000000000000e+00 0.0000000000000000e+00  0.0000000000000000e+00 0.0000000000000000e+00 0.0000000000000000e+00  0.0000000000000000e+00 0.0000000000000000e+00 0.0000000000000000e+00  0.0000000000000000e+00 0.0000000000000000e+00 0.0000000000000000e+00  0.0000000000000000e+00 0.0000000000000000e+00 0.0000000000000000e+00  0.0000000000000000e+00 0.0000000000000000e+00 0.0000000000000000e+00  0.0000000000000000e+00 0.0000000000000000e+00 0.0000000000000000e+00  0.0000000000000000e+00 0.0000000000000000e+00 0.0000000000000000e+00  0.0000000000000000e+00 0.0000000000000000e+00 0.0000000000000000e+00  0.0000000000000000e+00 0.0000000000000000e+00 0.0000000000000000e+00  0.0000000000000000e+00 0.0000000000000000e+00 0.0000000000000000e+00  0.0000000000000000e+00 0.0000000000000000e+00 0.0000000000000000e+00  0.0000000000000000e+00 0.0000000000000000e+00 0.0000000000000000e+00  0.0000000000000000e+00 0.0000000000000000e+00 0.0000000000000000e+00  0.0000000000000000e+00 0.0000000000000000e+00 0.0000000000000000e+00  0.0000000000000000e+00 0.0000000000000000e+00 0.0000000000000000e+00  0.0000000000000000e+00 0.0000000000000000e+00 0.0000000000000000e+00  0.0000000000000000e+00 0.0000000000000000e+00 0.0000000000000000e+00  0.0000000000000000e+00 0.0000000000000000e+00 0.0000000000000000e+00  0.0000000000000000e+00 0.0000000000000000e+00 0.0000000000000000e+00  0.0000000000000000e+00 0.0000000000000000e+00 0.0000000000000000e+00  0.0000000000000000e+00 0.0000000000000000e+00 0.0000000000000000e+00  0.0000000000000000e+00 0.0000000000000000e+00 0.0000000000000000e+00  0.0000000000000000e+00 0.0000000000000000e+00 0.0000000000000000e+00  0.0000000000000000e+00 0.0000000000000000e+00 0.0000000000000000e+00  0.0000000000000000e+00 0.0000000000000000e+00 0.0000000000000000e+00  0.0000000000000000e+00 0.0000000000000000e+00 0.0000000000000000e+00  0.0000000000000000e+00 0.0000000000000000e+00 0.0000000000000000e+00  0.0000000000000000e+00 0.0000000000000000e+00 0.0000000000000000e+00  0.0000000000000000e+00 0.0000000000000000e+00 0.0000000000000000e+00  0.0000000000000000e+00 0.0000000000000000e+00 0.0000000000000000e+00  0.0000000000000000e+00 0.0000000000000000e+00 0.0000000000000000e+00  0.0000000000000000e+00 0.0000000000000000e+00 0.0000000000000000e+00  0.0000000000000000e+00 0.0000000000000000e+00 0.0000000000000000e+00  0.0000000000000000e+00 0.0000000000000000e+00 0.0000000000000000e+00  0.0000000000000000e+00 0.0000000000000000e+00 0.0000000000000000e+00  0.0000000000000000e+00 0.0000000000000000e+00 0.0000000000000000e+00  0.0000000000000000e+00 0.0000000000000000e+00 0.0000000000000000e+00  0.0000000000000000e+00 0.0000000000000000e+00 0.0000000000000000e+00  0.0000000000000000e+00 0.0000000000000000e+00 0.0000000000000000e+00  0.0000000000000000e+00 0.0000000000000000e+00 0.0000000000000000e+00  0.0000000000000000e+00 0.0000000000000000e+00 0.0000000000000000e+00  0.0000000000000000e+00 0.0000000000000000e+00 0.0000000000000000e+00  0.0000000000000000e+00 0.0000000000000000e+00 0.0000000000000000e+00  2.2137025571796396e+01 0.0000000000000000e+00 0.0000000000000000e+00  2.2171398080304865e+01 -2.4177656255294059e-02 0.0000000000000000e+00  2.2175491697091697e+01 -6.4261668327466872e-03 0.0000000000000000e+00  2.2177047664222975e+01 -3.5075233544227006e-05 0.0000000000000000e+00  2.2183014965568834e+01 -6.1101116909572457e-04 0.0000000000000000e+00  2.2184282807868158e+01 -6.9650939335869403e-04 0.0000000000000000e+00  2.2185582412062104e+01 -1.0220120874388195e-03 0.0000000000000000e+00  2.2184881023496303e+01 -7.8711699267271478e-04 0.0000000000000000e+00  2.2183283716888436e+01 -2.6176323342946107e-04 0.0000000000000000e+00  2.2180223739664697e+01 -1.4590626279343828e-04 0.0000000000000000e+00  2.2176777983103818e+01 -1.0380395352652363e-05 0.0000000000000000e+00  2.2173008881476225e+01 -8.7286934487879728e-05 0.0000000000000000e+00  2.2169291945250801e+01 -1.4797169918653481e-04 0.0000000000000000e+00  2.2165744336166743e+01 -2.7507040759044629e-04 0.0000000000000000e+00  2.2162387081927598e+01 -3.6331702555599525e-04 0.0000000000000000e+00  2.2159247987434142e+01 -4.5885168187898505e-04 0.0000000000000000e+00  2.2156254004887124e+01 -5.2090368283488821e-04 0.0000000000000000e+00  2.2153402024117160e+01 -5.8543364874337922e-04 0.0000000000000000e+00  2.2150651011919717e+01 -6.3817460652284468e-04 0.0000000000000000e+00  2.2148013072766329e+01 -6.9828182814837087e-04 0.0000000000000000e+00  2.2145482566382480e+01 -7.5745902278649788e-04 0.0000000000000000e+00  2.2143075637740697e+01 -8.2278919096203046e-04 0.0000000000000000e+00  2.2140796328930861e+01 -8.8915706856484077e-04 0.0000000000000000e+00  2.2138655261288733e+01 -9.5896230877239399e-04 0.0000000000000000e+00  2.2136656235730506e+01 -1.0296286338436261e-03 0.0000000000000000e+00  2.2134804852504523e+01 -1.1019612548921244e-03 0.0000000000000000e+00  2.2133103277638540e+01 -1.1746922857125877e-03 0.0000000000000000e+00  2.2131553811255962e+01 -1.2479583534745506e-03 0.0000000000000000e+00  2.2130156833779196e+01 -1.3210827543685970e-03 0.0000000000000000e+00  2.2128912371277696e+01 -1.3940419731467712e-03 0.0000000000000000e+00  2.2127819545544320e+01 -1.4665952699660482e-03 0.0000000000000000e+00  2.2126877470786326e+01 -1.5388512349705683e-03 0.0000000000000000e+00  2.2126085254194201e+01 -1.6108750794929074e-03 0.0000000000000000e+00  2.2125442420436322e+01 -1.6828564855069568e-03 0.0000000000000000e+00  2.2124948858367542e+01 -1.7549192753555716e-03 0.0000000000000000e+00  2.2124604846495142e+01 -1.8271746477313800e-03 0.0000000000000000e+00  2.2124410878693912e+01 -1.8996582855807780e-03 0.0000000000000000e+00  2.2124367552388257e+01 -1.9723719381938404e-03 0.0000000000000000e+00  2.2124475436391950e+01 -2.0452809093421389e-03 0.0000000000000000e+00  2.2124735014335272e+01 -2.1183447064820884e-03 0.0000000000000000e+00  2.2125146655300210e+01 -2.1915228476546019e-03 0.0000000000000000e+00  2.2125710627455831e+01 -2.2647865367434700e-03 0.0000000000000000e+00  2.2126427121290213e+01 -2.3381174555364846e-03 0.0000000000000000e+00  2.2127296280126679e+01 -2.4115076853258835e-03 0.0000000000000000e+00  2.2128318223553311e+01 -2.4849555772466021e-03 0.0000000000000000e+00  2.2129493064709969e+01 -2.5584633400983162e-03 0.0000000000000000e+00  2.2130820919296067e+01 -2.6320343934384005e-03 0.0000000000000000e+00  2.2132301909669135e+01 -2.7056722411634040e-03 0.0000000000000000e+00  2.2133936165258874e+01 -2.7793797483342915e-03 0.0000000000000000e+00  2.2135723821688305e+01 -2.8531591028682413e-03 0.0000000000000000e+00  2.2137665019395509e+01 -2.9270119144296021e-03 0.0000000000000000e+00  2.2139759902558303e+01 -3.0009394473317617e-03 0.0000000000000000e+00  2.2142008618400592e+01 -3.0749427827606469e-03 0.0000000000000000e+00  2.2144411316873825e+01 -3.1490229396729207e-03 0.0000000000000000e+00  2.2146968150586844e+01 -3.2231809179289147e-03 0.0000000000000000e+00  2.2149679274761663e+01 -3.2974176525347315e-03 0.0000000000000000e+00  2.2152544847132010e+01 -3.3717339158185547e-03 0.0000000000000000e+00  2.2155565027535456e+01 -3.4461301276405474e-03 0.0000000000000000e+00  2.2158739977082959e+01 -3.5206060452213830e-03 0.0000000000000000e+00  2.2162069856500313e+01 -3.5951603003238366e-03 0.0000000000000000e+00  2.2165554823442097e+01 -3.6697895691647927e-03 0.0000000000000000e+00  2.2169195027460699e+01 -3.7444875097602825e-03 0.0000000000000000e+00  2.2172990602958066e+01 -3.8192423949222811e-03 0.0000000000000000e+00  2.2176941654562860e+01 -3.8940348586075967e-03 0.0000000000000000e+00  2.2181048240451968e+01 -3.9688311748125558e-03 0.0000000000000000e+00  2.2185310329788511e+01 -4.0435785436809882e-03 0.0000000000000000e+00  2.2189727765822489e+01 -4.1181880425021728e-03 0.0000000000000000e+00  2.2194300145759946e+01 -4.1925193979108185e-03 0.0000000000000000e+00  2.2199026738438107e+01 -4.2663589493134478e-03 0.0000000000000000e+00  2.2203906190774649e+01 -4.3393191156910760e-03 0.0000000000000000e+00  2.2208936329431989e+01 -4.4109786204634734e-03 0.0000000000000000e+00  2.2214113536544119e+01 -4.4801434310534540e-03 0.0000000000000000e+00  2.2219431687229974e+01 -4.5462350076443132e-03 0.0000000000000000e+00  2.2224880990408490e+01 -4.6053749590952466e-03 0.0000000000000000e+00  2.2230443634195225e+01 -4.6586877950309073e-03 0.0000000000000000e+00  2.2236112013484501e+01 -4.6947759423923794e-03 0.0000000000000000e+00  2.2241857845353724e+01 -4.7114171115002542e-03 0.0000000000000000e+00  2.2247775464656740e+01 -4.6764731346937375e-03 0.0000000000000000e+00  2.2254747121125963e+01 -4.5166665550594176e-03 0.0000000000000000e+00  2.2267764210515843e+01 -2.6373592829958747e-03 0.0000000000000000e+00  2.2288975334928129e+01 0.0000000000000000e+00 0.0000000000000000e+00  3.1740128945305166e+01 0.0000000000000000e+00 0.0000000000000000e+00  3.1744096062676192e+01 1.6045298356531384e-02 0.0000000000000000e+00  3.1733192108744923e+01 2.0108854545415051e-03 0.0000000000000000e+00  3.1730958007797781e+01 4.4308124544267524e-03 0.0000000000000000e+00  3.1729961374843473e+01 1.2614917453264299e-03 0.0000000000000000e+00  3.1734925984649720e+01 1.5698477918958949e-03 0.0000000000000000e+00  3.1736843532102405e+01 3.3048271269644431e-03 0.0000000000000000e+00  3.1736575036343108e+01 5.5630213882711388e-03 0.0000000000000000e+00  3.1733135563958992e+01 7.1412132773231510e-03 0.0000000000000000e+00  3.1728294289912437e+01 8.2881117000566783e-03 0.0000000000000000e+00  3.1722016057818177e+01 8.7224115437435565e-03 0.0000000000000000e+00  3.1715350132236182e+01 8.8768557270406841e-03 0.0000000000000000e+00  3.1708369758961425e+01 8.7113567661323676e-03 0.0000000000000000e+00  3.1701516732637707e+01 8.4665440334190326e-03 0.0000000000000000e+00  3.1694865913474992e+01 8.1552375943069258e-03 0.0000000000000000e+00  3.1688475283661752e+01 7.8933365561425495e-03 0.0000000000000000e+00  3.1682341014077252e+01 7.6540270141370759e-03 0.0000000000000000e+00  3.1676409736964388e+01 7.4580299745103931e-03 0.0000000000000000e+00  3.1670684056660882e+01 7.2647078592552750e-03 0.0000000000000000e+00  3.1665140330399364e+01 7.0756416689780818e-03 0.0000000000000000e+00  3.1659802375635842e+01 6.8724532231632949e-03 0.0000000000000000e+00  3.1654671498911878e+01 6.6611820707423493e-03 0.0000000000000000e+00  3.1649769074002201e+01 6.4377021503538743e-03 0.0000000000000000e+00  3.1645100307502307e+01 6.2075158948990605e-03 0.0000000000000000e+00  3.1640677791707439e+01 5.9701815983994651e-03 0.0000000000000000e+00  3.1636505546866488e+01 5.7288770998881171e-03 0.0000000000000000e+00  3.1632590311040207e+01 5.4840507220005434e-03 0.0000000000000000e+00  3.1628934440968951e+01 5.2377164369319445e-03 0.0000000000000000e+00  3.1625540651151091e+01 4.9906989249743124e-03 0.0000000000000000e+00  3.1622409033035872e+01 4.7442476833012368e-03 0.0000000000000000e+00  3.1619539305985398e+01 4.4987773722848425e-03 0.0000000000000000e+00  3.1616930038789086e+01 4.2545267093588414e-03 0.0000000000000000e+00  3.1614579984016100e+01 4.0111816652138093e-03 0.0000000000000000e+00  3.1612488021099271e+01 3.7683189006790809e-03 0.0000000000000000e+00  3.1610653717812802e+01 3.5254098817822060e-03 0.0000000000000000e+00  3.1609077163855755e+01 3.2820703567318977e-03 0.0000000000000000e+00  3.1607758963969857e+01 3.0380585587500269e-03 0.0000000000000000e+00  3.1606699958125656e+01 2.7933167640116583e-03 0.0000000000000000e+00  3.1605901070500025e+01 2.5479005527018293e-03 0.0000000000000000e+00  3.1605363135545886e+01 2.3019366265077052e-03 0.0000000000000000e+00  3.1605086839953973e+01 2.0555617899161156e-03 0.0000000000000000e+00  3.1605072694681027e+01 1.8088961511874579e-03 0.0000000000000000e+00  3.1605321063374653e+01 1.5620248908876739e-03 0.0000000000000000e+00  3.1605832197041053e+01 1.3150001034079276e-03 0.0000000000000000e+00  3.1606606276837386e+01 1.0678462953829903e-03 0.0000000000000000e+00  3.1607643445439191e+01 8.2057048255772388e-04 0.0000000000000000e+00  3.1608943830730272e+01 5.7316981734008342e-04 0.0000000000000000e+00  3.1610507558629070e+01 3.2563771070216995e-04 0.0000000000000000e+00  3.1612334759965481e+01 7.7966959784106526e-05 0.0000000000000000e+00  3.1614425572546239e+01 -1.6984866479106733e-04 0.0000000000000000e+00  3.1616780141431484e+01 -4.1781419632736189e-04 0.0000000000000000e+00  3.1619398618221293e+01 -6.6593368362741245e-04 0.0000000000000000e+00  3.1622281160416740e+01 -9.1421061031527492e-04 0.0000000000000000e+00  3.1625427930928847e+01 -1.1626482116955069e-03 0.0000000000000000e+00  3.1628839097861931e+01 -1.4112496515713191e-03 0.0000000000000000e+00  3.1632514834419112e+01 -1.6600180197966520e-03 0.0000000000000000e+00  3.1636455318823057e+01 -1.9089561365783093e-03 0.0000000000000000e+00  3.1640660734110007e+01 -2.1580661681689052e-03 0.0000000000000000e+00  3.1645131267626105e+01 -2.4073489807333293e-03 0.0000000000000000e+00  3.1649867110070982e+01 -2.6568031561340823e-03 0.0000000000000000e+00  3.1654868453769438e+01 -2.9064232850015597e-03 0.0000000000000000e+00  3.1660135489748999e+01 -3.1561975400032243e-03 0.0000000000000000e+00  3.1665668403152143e+01 -3.4061033143215568e-03 0.0000000000000000e+00  3.1671467364819915e+01 -3.6561008818703456e-03 0.0000000000000000e+00  3.1677532521037250e+01 -3.9061229944263335e-03 0.0000000000000000e+00  3.1683863967438938e+01 -4.1560563871746682e-03 0.0000000000000000e+00  3.1690461733020641e+01 -4.4057232584298056e-03 0.0000000000000000e+00  3.1697325694022364e+01 -4.6548134846725233e-03 0.0000000000000000e+00  3.1704455570904493e+01 -4.9028952033250616e-03 0.0000000000000000e+00  3.1711850683783894e+01 -5.1491068305002810e-03 0.0000000000000000e+00  3.1719509947758976e+01 -5.3925220474458678e-03 0.0000000000000000e+00  3.1727431539315766e+01 -5.6306905258670572e-03 0.0000000000000000e+00  3.1735612015445174e+01 -5.8618810110265280e-03 0.0000000000000000e+00  3.1744047520067710e+01 -6.0791437417502059e-03 0.0000000000000000e+00  3.1752732163753045e+01 -6.2790713212166668e-03 0.0000000000000000e+00  3.1761664333851488e+01 -6.4395620077579308e-03 0.0000000000000000e+00  3.1770827347333487e+01 -6.5292332091478047e-03 0.0000000000000000e+00  3.1780209255114176e+01 -6.4176457826308139e-03 0.0000000000000000e+00  3.1789945350129827e+01 -6.2161961729245568e-03 0.0000000000000000e+00  3.1799869792148218e+01 -5.4420957246778152e-03 0.0000000000000000e+00  3.1804991710864957e+01 0.0000000000000000e+00 0.0000000000000000e+00  3.3923829799571806e+01 0.0000000000000000e+00 0.0000000000000000e+00  3.3908914352394071e+01 -9.9986881875644869e-03 0.0000000000000000e+00  3.3912903550989562e+01 3.2323714447000723e-03 0.0000000000000000e+00  3.3909491606812331e+01 2.9087499186993132e-03 0.0000000000000000e+00  3.3907237877554017e+01 1.6766477244150057e-03 0.0000000000000000e+00  3.3898631802141821e+01 1.5439024534712469e-03 0.0000000000000000e+00  3.3892131893439803e+01 4.0448130237636807e-03 0.0000000000000000e+00  3.3883731853195350e+01 7.1556921017451175e-03 0.0000000000000000e+00  3.3876077906061134e+01 9.8068802423566265e-03 0.0000000000000000e+00  3.3867711998449188e+01 1.1362987560075272e-02 0.0000000000000000e+00  3.3859497430351119e+01 1.2276157306036196e-02 0.0000000000000000e+00  3.3851120619559772e+01 1.2487447927735465e-02 0.0000000000000000e+00  3.3842844510654452e+01 1.2365358851630204e-02 0.0000000000000000e+00  3.3834728552788405e+01 1.1952549850422867e-02 0.0000000000000000e+00  3.3826813549001272e+01 1.1494031228034350e-02 0.0000000000000000e+00  3.3819159785013113e+01 1.1033439735091426e-02 0.0000000000000000e+00  3.3811709370522273e+01 1.0642434674406847e-02 0.0000000000000000e+00  3.3804499546619901e+01 1.0283052506672717e-02 0.0000000000000000e+00  3.3797494129446434e+01 9.9440455846163244e-03 0.0000000000000000e+00  3.3790735237852111e+01 9.5920168024046723e-03 0.0000000000000000e+00  3.3784216279565406e+01 9.2239484225452306e-03 0.0000000000000000e+00  3.3777968098602678e+01 8.8334326655669006e-03 0.0000000000000000e+00  3.3771989852057906e+01 8.4267596174466674e-03 0.0000000000000000e+00  3.3766296412380086e+01 8.0056394473547784e-03 0.0000000000000000e+00  3.3760886529988447e+01 7.5749205724285939e-03 0.0000000000000000e+00  3.3755766505525969e+01 7.1362815608519625e-03 0.0000000000000000e+00  3.3750935816229045e+01 6.6925649646644002e-03 0.0000000000000000e+00  3.3746397395108893e+01 6.2454763573498821e-03 0.0000000000000000e+00  3.3742150969870572e+01 5.7973089621537353e-03 0.0000000000000000e+00  3.3738197259131702e+01 5.3496243549110345e-03 0.0000000000000000e+00  3.3734535263993614e+01 4.9036560950916196e-03 0.0000000000000000e+00  3.3731164294240472e+01 4.4597052484317366e-03 0.0000000000000000e+00  3.3728083182865923e+01 4.0174891132263362e-03 0.0000000000000000e+00  3.3725291311466137e+01 3.5762153470545181e-03 0.0000000000000000e+00  3.3722788334639240e+01 3.1350102962241942e-03 0.0000000000000000e+00  3.3720574482363801e+01 2.6931126107939394e-03 0.0000000000000000e+00  3.3718650279687559e+01 2.2500601545961370e-03 0.0000000000000000e+00  3.3717016496546918e+01 1.8056831017117228e-03 0.0000000000000000e+00  3.3715673921213615e+01 1.3600553358571145e-03 0.0000000000000000e+00  3.3714623285841888e+01 9.133842765591