<?xml version="1.0"?>
<VTKFile type="UnstructuredGrid"  version="0.1"  >
<UnstructuredGrid>
<Piece  NumberOfPoints="1369" NumberOfCells="2560">
<Points>
<DataArray  type="Float64"  NumberOfComponents="3"  format="ascii">0 0 0  0.75 0 0  1.5 0 0  2.25 0 0  3 0 0  3.75 0 0  4.5 0 0  5.25 0 0  6 0 0  6.75 0 0  7.5 0 0  8.25 0 0  9 0 0  9.75 0 0  10.5 0 0  11.25 0 0  12 0 0  12.75 0 0  13.5 0 0  14.25 0 0  15 0 0  15.75 0 0  16.5 0 0  17.25 0 0  18 0 0  18.75 0 0  19.5 0 0  20.25 0 0  21 0 0  21.75 0 0  22.5 0 0  23.25 0 0  24 0 0  24.75 0 0  25.5 0 0  26.25 0 0  27 0 0  27.75 0 0  28.5 0 0  29.25 0 0  30 0 0  30.75 0 0  31.5 0 0  32.25 0 0  33 0 0  33.75 0 0  34.5 0 0  35.25 0 0  36 0 0  36.75 0 0  37.5 0 0  38.25 0 0  39 0 0  39.75 0 0  40.5 0 0  41.25 0 0  42 0 0  42.75 0 0  43.5 0 0  44.25 0 0  45 0 0  45.75 0 0  46.5 0 0  47.25 0 0  48 0 0  48.75 0 0  49.5 0 0  50.25 0 0  51 0 0  51.75 0 0  52.5 0 0  53.25 0 0  54 0 0  54.75 0 0  55.5 0 0  56.25 0 0  57 0 0  57.75 0 0  58.5 0 0  59.25 0 0  60 0 0  0 0.5 0  0.75 0.5000332480807181 0  1.5 0.5000661741034749 0  2.25 0.5000985888255127 0  3 0.5001303518665394 0  3.75 0.5001613699112245 0  4.5 0.5001915856121233 0  5.25 0.5002209654462896 0  6 0.5002494903812061 0  6.75 0.5002771497857007 0  7.5 0.5003039377751215 0  8.25 0.5003298511092055 0  9 0.5003548880095294 0  9.75 0.5003790475021311 0  10.5 0.5004023290544974 0  11.25 0.5004247323758813 0  12 0.5004462573077493 0  12.75 0.5004669037637762 0  13.5 0.5004866716970279 0  14.25 0.5005055610820354 0  15 0.5005235719050138 0  15.75 0.5005407041585304 0  16.5 0.5005569578386004 0  17.25 0.5005723329431078 0  18 0.5005868294709487 0  18.75 0.5006004474215636 0  19.5 0.5006131867946855 0  20.25 0.5006250475902025 0  21 0.5006360298080859 0  21.75 0.500646133448347 0  22.5 0.5006553585110169 0  23.25 0.5006637049961368 0  24 0.500671172903748 0  24.75 0.5006777622338909 0  25.5 0.5006834729866027 0  26.25 0.5006883051619172 0  27 0.5006922587598626 0  27.75 0.5006953337804624 0  28.5 0.5006975302237344 0  29.25 0.5006988480896927 0  30 0.5006992873783446 0  30.75 0.5006988480896927 0  31.5 0.5006975302237344 0  32.25 0.5006953337804624 0  33 0.5006922587598626 0  33.75 0.5006883051619173 0  34.5 0.5006834729866028 0  35.25 0.5006777622338909 0  36 0.500671172903748 0  36.75 0.5006637049961368 0  37.5 0.5006553585110169 0  38.25 0.500646133448347 0  39 0.5006360298080859 0  39.75 0.5006250475902025 0  40.5 0.5006131867946856 0  41.25 0.5006004474215636 0  42 0.5005868294709487 0  42.75 0.5005723329431078 0  43.5 0.5005569578386003 0  44.25 0.5005407041585304 0  45 0.5005235719050138 0  45.75 0.5005055610820354 0  46.5 0.5004866716970279 0  47.25 0.5004669037637762 0  48 0.5004462573077493 0  48.75 0.5004247323758813 0  49.5 0.5004023290544974 0  50.25 0.5003790475021311 0  51 0.5003548880095294 0  51.75 0.5003298511092055 0  52.5 0.5003039377751215 0  53.25 0.5002771497857007 0  54 0.5002494903812061 0  54.75 0.5002209654462896 0  55.5 0.5001915856121233 0  56.25 0.5001613699112245 0  57 0.5001303518665394 0  57.75 0.5000985888255127 0  58.5 0.5000661741034749 0  59.25 0.5000332480807181 0  60 0.5 0  0 1 0  0.75 1.000066597830207 0  1.5 1.000132535281758 0  2.25 1.000197427020387 0  3 1.000260993954107 0  3.75 1.000323055099464 0  4.5 1.000383501390001 0  5.25 1.000442269874868 0  6 1.000499325072507 0  6.75 1.000554647241116 0  7.5 1.000608225475708 0  8.25 1.000660053778242 0  9 1.00071012885859 0  9.75 1.000758448915457 0  10.5 1.000805012964152 0  11.25 1.000849820467099 0  12 1.000892871131195 0  12.75 1.000934164796847 0  13.5 1.000973701377291 0  14.25 1.00101148082545 0  15 1.001047503115846 0  15.75 1.001081768234742 0  16.5 1.001114276174779 0  17.25 1.001145026932051 0  18 1.001174020504522 0  18.75 1.001201256891162 0  19.5 1.001226736091483 0  20.25 1.001250458105282 0  21 1.001272422932511 0  21.75 1.001292630573193 0  22.5 1.00131108102739 0  23.25 1.00132777429518 0  24 1.001342710376645 0  24.75 1.001355889271859 0  25.5 1.001367310980895 0  26.25 1.001376975503817 0  27 1.001384882840678 0  27.75 1.001391032991523 0  28.5 1.001395425956388 0  29.25 1.001398061735296 0  30 1.001398940328264 0  30.75 1.001398061735296 0  31.5 1.001395425956388 0  32.25 1.001391032991523 0  33 1.001384882840678 0  33.75 1.001376975503817 0  34.5 1.001367310980895 0  35.25 1.001355889271859 0  36 1.001342710376645 0  36.75 1.00132777429518 0  37.5 1.00131108102739 0  38.25 1.001292630573193 0  39 1.001272422932511 0  39.75 1.001250458105283 0  40.5 1.001226736091483 0  41.25 1.001201256891162 0  42 1.001174020504522 0  42.75 1.001145026932051 0  43.5 1.001114276174779 0  44.25 1.001081768234742 0  45 1.001047503115846 0  45.75 1.00101148082545 0  46.5 1.000973701377291 0  47.25 1.000934164796847 0  48 1.000892871131195 0  48.75 1.000849820467099 0  49.5 1.000805012964152 0  50.25 1.000758448915457 0  51 1.00071012885859 0  51.75 1.000660053778242 0  52.5 1.000608225475708 0  53.25 1.000554647241116 0  54 1.000499325072507 0  54.75 1.000442269874868 0  55.5 1.000383501390001 0  56.25 1.000323055099464 0  57 1.000260993954107 0  57.75 1.000197427020387 0  58.5 1.000132535281758 0  59.25 1.000066597830207 0  60 1 0  0 1.5 0  0.75 1.500100158316014 0  1.5 1.500199281110479 0  2.25 1.500296773360833 0  3 1.500392223154893 0  3.75 1.500485375005527 0  4.5 1.500576079926878 0  5.25 1.500664253630548 0  6 1.500749849129604 0  6.75 1.500832840434247 0  7.5 1.500913213232859 0  8.25 1.500990959666582 0  9 1.501066075428311 0  9.75 1.501138558161078 0  10.5 1.501208406576757 0  11.25 1.501275619972227 0  12 1.501340197964163 0  12.75 1.501402140343863 0  13.5 1.50146144699788 0  14.25 1.501518117864663 0  15 1.50157215291091 0  15.75 1.501623552118674 0  16.5 1.501672315478343 0  17.25 1.501718442984823 0  18 1.501761934635463 0  18.75 1.501802790428929 0  19.5 1.501841010364591 0  20.25 1.501876594442197 0  21 1.501909542661689 0  21.75 1.50193985502311 0  22.5 1.501967531526548 0  23.25 1.50199257217211 0  24 1.502014976959909 0  24.75 1.502034745890052 0  25.5 1.502051878962636 0  26.25 1.502066376177749 0  27 1.502078237535467 0  27.75 1.50208746303585 0  28.5 1.502094052678944 0  29.25 1.502098006464788 0  30 1.5020993243934 0  30.75 1.502098006464788 0  31.5 1.502094052678945 0  32.25 1.50208746303585 0  33 1.502078237535467 0  33.75 1.502066376177749 0  34.5 1.502051878962636 0  35.25 1.502034745890052 0  36 1.502014976959909 0  36.75 1.50199257217211 0  37.5 1.501967531526548 0  38.25 1.50193985502311 0  39 1.501909542661689 0  39.75 1.501876594442197 0  40.5 1.501841010364591 0  41.25 1.501802790428929 0  42 1.501761934635463 0  42.75 1.501718442984823 0  43.5 1.501672315478343 0  44.25 1.501623552118674 0  45 1.50157215291091 0  45.75 1.501518117864663 0  46.5 1.50146144699788 0  47.25 1.501402140343863 0  48 1.501340197964163 0  48.75 1.501275619972227 0  49.5 1.501208406576757 0  50.25 1.501138558161078 0  51 1.501066075428311 0  51.75 1.500990959666582 0  52.5 1.500913213232859 0  53.25 1.500832840434247 0  54 1.500749849129604 0  54.75 1.500664253630548 0  55.5 1.500576079926878 0  56.25 1.500485375005527 0  57 1.500392223154893 0  57.75 1.500296773360833 0  58.5 1.500199281110479 0  59.25 1.500100158316014 0  60 1.5 0  0 2 0  0.75 2.000134055709495 0  1.5 2.000266632211826 0  2.25 2.000396906068603 0  3 2.000524349504502 0  3.75 2.000648657033635 0  4.5 2.000769658384598 0  5.25 2.000887259599854 0  6 2.001001408991317 0  6.75 2.00111207816835 0  7.5 2.001219251554845 0  8.25 2.001322920614208 0  9 2.001423080672748 0  9.75 2.001519729174302 0  10.5 2.001612864722326 0  11.25 2.001702486554657 0  12 2.001788594255838 0  12.75 2.001871187599702 0  13.5 2.001950266463325 0  14.25 2.002025830780025 0  15 2.002097880513737 0  15.75 2.002166415645037 0  16.5 2.002231436163531 0  17.25 2.002292942063718 0  18 2.002350933342745 0  18.75 2.002405409999187 0  19.5 2.002456372032378 0  20.25 2.00250381944206 0  21 2.002547752228186 0  21.75 2.002588170390817 0  22.5 2.002625073930059 0  23.25 2.002658462846043 0  24 2.002688337138899 0  24.75 2.002714696808752 0  25.5 2.00273754185572 0  26.25 2.002756872279901 0  27 2.002772688081384 0  27.75 2.002784989260242 0  28.5 2.002793775816528 0  29.25 2.002799047750284 0  30 2.002800805061533 0  30.75 2.002799047750284 0  31.5 2.002793775816528 0  32.25 2.002784989260242 0  33 2.002772688081384 0  33.75 2.002756872279901 0  34.5 2.00273754185572 0  35.25 2.002714696808752 0  36 2.002688337138898 0  36.75 2.002658462846043 0  37.5 2.002625073930059 0  38.25 2.002588170390817 0  39 2.002547752228186 0  39.75 2.00250381944206 0  40.5 2.002456372032378 0  41.25 2.002405409999187 0  42 2.002350933342745 0  42.75 2.002292942063718 0  43.5 2.002231436163531 0  44.25 2.002166415645037 0  45 2.002097880513737 0  45.75 2.002025830780025 0  46.5 2.001950266463325 0  47.25 2.001871187599702 0  48 2.001788594255838 0  48.75 2.001702486554657 0  49.5 2.001612864722326 0  50.25 2.001519729174302 0  51 2.001423080672748 0  51.75 2.001322920614208 0  52.5 2.001219251554845 0  53.25 2.00111207816835 0  54 2.001001408991317 0  54.75 2.000887259599854 0  55.5 2.000769658384598 0  56.25 2.000648657033635 0  57 2.000524349504502 0  57.75 2.000396906068603 0  58.5 2.000266632211826 0  59.25 2.000134055709495 0  60 2 0  0 2.5 0  0.75 2.500168449220031 0  1.5 2.500334849368419 0  2.25 2.500498133688007 0  3 2.500657701951969 0  3.75 2.500813239543264 0  4.5 2.500964580061735 0  5.25 2.501111634037659 0  6 2.501254352913058 0  6.75 2.501392710204227 0  7.5 2.50152669143512 0  8.25 2.501656288687608 0  9 2.501781497631129 0  9.75 2.501902315898552 0  10.5 2.502018742197018 0  11.25 2.5021307758211 0  12 2.502238416386329 0  12.75 2.502341663683434 0  13.5 2.502440517598696 0  14.25 2.502534978070447 0  15 2.502625045065347 0  15.75 2.502710718565452 0  16.5 2.502791998561175 0  17.25 2.502868885047454 0  18 2.502941378021676 0  18.75 2.503009477482542 0  19.5 2.503073183429465 0  20.25 2.503132495862221 0  
[...]
<PointData  Vectors="f_10-0"> 
<DataArray  type="Float64"  Name="f_10-0"  NumberOfComponents="3" format="ascii">0.0000000000000000e+00 0.0000000000000000e+00 0.0000000000000000e+00  0.0000000000000000e+00 0.0000000000000000e+00 0.0000000000000000e+00  0.0000000000000000e+00 0.0000000000000000e+00 0.0000000000000000e+00  0.0000000000000000e+00 0.0000000000000000e+00 0.0000000000000000e+00  0.0000000000000000e+00 0.0000000000000000e+00 0.0000000000000000e+00  0.0000000000000000e+00 0.0000000000000000e+00 0.0000000000000000e+00  0.0000000000000000e+00 0.0000000000000000e+00 0.0000000000000000e+00  0.0000000000000000e+00 0.0000000000000000e+00 0.0000000000000000e+00  0.0000000000000000e+00 0.0000000000000000e+00 0.0000000000000000e+00  0.0000000000000000e+00 0.0000000000000000e+00 0.0000000000000000e+00  0.0000000000000000e+00 0.0000000000000000e+00 0.0000000000000000e+00  0.0000000000000000e+00 0.0000000000000000e+00 0.0000000000000000e+00  0.0000000000000000e+00 0.0000000000000000e+00 0.0000000000000000e+00  0.0000000000000000e+00 0.0000000000000000e+00 0.0000000000000000e+00  0.0000000000000000e+00 0.0000000000000000e+00 0.0000000000000000e+00  0.0000000000000000e+00 0.0000000000000000e+00 0.0000000000000000e+00  0.0000000000000000e+00 0.0000000000000000e+00 0.0000000000000000e+00  0.0000000000000000e+00 0.0000000000000000e+00 0.0000000000000000e+00  0.0000000000000000e+00 0.0000000000000000e+00 0.0000000000000000e+00  0.0000000000000000e+00 0.0000000000000000e+00 0.0000000000000000e+00  0.0000000000000000e+00 0.0000000000000000e+00 0.0000000000000000e+00  0.0000000000000000e+00 0.0000000000000000e+00 0.0000000000000000e+00  0.0000000000000000e+00 0.0000000000000000e+00 0.0000000000000000e+00  0.0000000000000000e+00 0.0000000000000000e+00 0.0000000000000000e+00  0.0000000000000000e+00 0.0000000000000000e+00 0.0000000000000000e+00  0.0000000000000000e+00 0.0000000000000000e+00 0.0000000000000000e+00  0.0000000000000000e+00 0.0000000000000000e+00 0.0000000000000000e+00  0.0000000000000000e+00 0.0000000000000000e+00 0.0000000000000000e+00  0.0000000000000000e+00 0.0000000000000000e+00 0.0000000000000000e+00  0.0000000000000000e+00 0.0000000000000000e+00 0.0000000000000000e+00  0.0000000000000000e+00 0.0000000000000000e+00 0.0000000000000000e+00  0.0000000000000000e+00 0.0000000000000000e+00 0.0000000000000000e+00  0.0000000000000000e+00 0.0000000000000000e+00 0.0000000000000000e+00  0.0000000000000000e+00 0.0000000000000000e+00 0.0000000000000000e+00  0.0000000000000000e+00 0.0000000000000000e+00 0.0000000000000000e+00  0.0000000000000000e+00 0.0000000000000000e+00 0.0000000000000000e+00  0.0000000000000000e+00 0.0000000000000000e+00 0.0000000000000000e+00  0.0000000000000000e+00 0.0000000000000000e+00 0.0000000000000000e+00  0.0000000000000000e+00 0.0000000000000000e+00 0.0000000000000000e+00  0.0000000000000000e+00 0.0000000000000000e+00 0.0000000000000000e+00  0.0000000000000000e+00 0.0000000000000000e+00 0.0000000000000000e+00  0.0000000000000000e+00 0.0000000000000000e+00 0.0000000000000000e+00  0.0000000000000000e+00 0.0000000000000000e+00 0.0000000000000000e+00  0.0000000000000000e+00 0.0000000000000000e+00 0.0000000000000000e+00  0.0000000000000000e+00 0.0000000000000000e+00 0.0000000000000000e+00  0.0000000000000000e+00 0.0000000000000000e+00 0.0000000000000000e+00  0.0000000000000000e+00 0.0000000000000000e+00 0.0000000000000000e+00  0.0000000000000000e+00 0.0000000000000000e+00 0.0000000000000000e+00  0.0000000000000000e+00 0.0000000000000000e+00 0.0000000000000000e+00  0.0000000000000000e+00 0.0000000000000000e+00 0.0000000000000000e+00  0.0000000000000000e+00 0.0000000000000000e+00 0.0000000000000000e+00  0.0000000000000000e+00 0.0000000000000000e+00 0.0000000000000000e+00  0.0000000000000000e+00 0.0000000000000000e+00 0.0000000000000000e+00  0.0000000000000000e+00 0.0000000000000000e+00 0.0000000000000000e+00  0.0000000000000000e+00 0.0000000000000000e+00 0.0000000000000000e+00  0.0000000000000000e+00 0.0000000000000000e+00 0.0000000000000000e+00  0.0000000000000000e+00 0.0000000000000000e+00 0.0000000000000000e+00  0.0000000000000000e+00 0.0000000000000000e+00 0.0000000000000000e+00  0.0000000000000000e+00 0.0000000000000000e+00 0.0000000000000000e+00  0.0000000000000000e+00 0.0000000000000000e+00 0.0000000000000000e+00  0.0000000000000000e+00 0.0000000000000000e+00 0.0000000000000000e+00  0.0000000000000000e+00 0.0000000000000000e+00 0.0000000000000000e+00  0.0000000000000000e+00 0.0000000000000000e+00 0.0000000000000000e+00  0.0000000000000000e+00 0.0000000000000000e+00 0.0000000000000000e+00  0.0000000000000000e+00 0.0000000000000000e+00 0.0000000000000000e+00  0.0000000000000000e+00 0.0000000000000000e+00 0.0000000000000000e+00  0.0000000000000000e+00 0.0000000000000000e+00 0.0000000000000000e+00  0.0000000000000000e+00 0.0000000000000000e+00 0.0000000000000000e+00  0.0000000000000000e+00 0.0000000000000000e+00 0.0000000000000000e+00  0.0000000000000000e+00 0.0000000000000000e+00 0.0000000000000000e+00  0.0000000000000000e+00 0.0000000000000000e+00 0.0000000000000000e+00  0.0000000000000000e+00 0.0000000000000000e+00 0.0000000000000000e+00  0.0000000000000000e+00 0.0000000000000000e+00 0.0000000000000000e+00  0.0000000000000000e+00 0.0000000000000000e+00 0.0000000000000000e+00  0.0000000000000000e+00 0.0000000000000000e+00 0.0000000000000000e+00  0.0000000000000000e+00 0.0000000000000000e+00 0.0000000000000000e+00  0.0000000000000000e+00 0.0000000000000000e+00 0.0000000000000000e+00  0.0000000000000000e+00 0.0000000000000000e+00 0.0000000000000000e+00  0.0000000000000000e+00 0.0000000000000000e+00 0.0000000000000000e+00  0.0000000000000000e+00 0.0000000000000000e+00 0.0000000000000000e+00  0.0000000000000000e+00 0.0000000000000000e+00 0.0000000000000000e+00  -8.0683575679274799e+00 0.0000000000000000e+00 0.0000000000000000e+00  -8.0311520893344852e+00 4.3030874678397276e-03 0.0000000000000000e+00  -8.0270011174369404e+00 -1.2952615432890050e-03 0.0000000000000000e+00  -8.0298339361455948e+00 -1.6540940356832964e-03 0.0000000000000000e+00  -8.0331988681786566e+00 -1.8877449133980931e-03 0.0000000000000000e+00  -8.0361715046978759e+00 -2.0832491840156488e-03 0.0000000000000000e+00  -8.0387613536604707e+00 -2.2509513418559140e-03 0.0000000000000000e+00  -8.0409423918969285e+00 -2.4162452284987048e-03 0.0000000000000000e+00  -8.0427201909780823e+00 -2.5690521387453156e-03 0.0000000000000000e+00  -8.0441726084192755e+00 -2.6858537184504929e-03 0.0000000000000000e+00  -8.0454250969725845e+00 -2.7503055271868417e-03 0.0000000000000000e+00  -8.0466132016848828e+00 -2.7629710736820235e-03 0.0000000000000000e+00  -8.0478288065517862e+00 -2.7449738936011132e-03 0.0000000000000000e+00  -8.0491070010239465e+00 -2.7169302607944041e-03 0.0000000000000000e+00  -8.0504423611322000e+00 -2.6938750441740196e-03 0.0000000000000000e+00  -8.0518066207282182e+00 -2.6820219995386382e-03 0.0000000000000000e+00  -8.0531678285720396e+00 -2.6823438654007448e-03 0.0000000000000000e+00  -8.0544965055691389e+00 -2.6931165008754324e-03 0.0000000000000000e+00  -8.0557697912288457e+00 -2.7119940005191513e-03 0.0000000000000000e+00  -8.0569708390753192e+00 -2.7365705856509971e-03 0.0000000000000000e+00  -8.0580885071754302e+00 -2.7648820445637778e-03 0.0000000000000000e+00  -8.0591161428318436e+00 -2.7952143054425522e-03 0.0000000000000000e+00  -8.0600508962871071e+00 -2.8262887291528667e-03 0.0000000000000000e+00  -8.0608927079160129e+00 -2.8570828902422293e-03 0.0000000000000000e+00  -8.0616435197282268e+00 -2.8869886543460795e-03 0.0000000000000000e+00  -8.0623061851781621e+00 -2.9157197648155973e-03 0.0000000000000000e+00  -8.0628836457649857e+00 -2.9433461327376372e-03 0.0000000000000000e+00  -8.0633781633902313e+00 -2.9701446053300002e-03 0.0000000000000000e+00  -8.0637910337811611e+00 -2.9965006105916801e-03 0.0000000000000000e+00  -8.0641225295599188e+00 -3.0227684306614404e-03 0.0000000000000000e+00  -8.0643721690634731e+00 -3.0492059869491662e-03 0.0000000000000000e+00  -8.0645390207913259e+00 -3.0759455988212986e-03 0.0000000000000000e+00  -8.0646220312220827e+00 -3.1030136804975320e-03 0.0000000000000000e+00  -8.0646202255211659e+00 -3.1303686009818798e-03 0.0000000000000000e+00  -8.0645328222309658e+00 -3.1579392073771790e-03 0.0000000000000000e+00  -8.0643592436468285e+00 -3.1856551465870016e-03 0.0000000000000000e+00  -8.0640990849701382e+00 -3.2134610757064514e-03 0.0000000000000000e+00  -8.0637520573665054e+00 -3.2413219301649383e-03 0.0000000000000000e+00  -8.0633179393973435e+00 -3.2692190055815390e-03 0.0000000000000000e+00  -8.0627965393771071e+00 -3.2971451882109356e-03 0.0000000000000000e+00  -8.0621876751263972e+00 -3.3250988464452510e-03 0.0000000000000000e+00  -8.0614911647250462e+00 -3.3530803774672263e-03 0.0000000000000000e+00  -8.0607068254753038e+00 -3.3810896570095794e-03 0.0000000000000000e+00  -8.0598344758391338e+00 -3.4091254896511038e-03 0.0000000000000000e+00  -8.0588739382660162e+00 -3.4371854706284613e-03 0.0000000000000000e+00  -8.0578250411713537e+00 -3.4652665324827366e-03 0.0000000000000000e+00  -8.0566876197967403e+00 -3.4933653449030822e-03 0.0000000000000000e+00  -8.0554615160288492e+00 -3.5214787552033575e-03 0.0000000000000000e+00  -8.0541465775195338e+00 -3.5496039882888346e-03 0.0000000000000000e+00  -8.0527426564876450e+00 -3.5777387704803354e-03 0.0000000000000000e+00  -8.0512496084508562e+00 -3.6058813039868062e-03 0.0000000000000000e+00  -8.0496672911180109e+00 -3.6340302245548139e-03 0.0000000000000000e+00  -8.0479955634688469e+00 -3.6621844918128792e-03 0.0000000000000000e+00  -8.0462342851775688e+00 -3.6903432975569426e-03 0.0000000000000000e+00  -8.0443833161690605e+00 -3.7185059278001405e-03 0.0000000000000000e+00  -8.0424425168474425e+00 -3.7466717094412415e-03 0.0000000000000000e+00  -8.0404117478580748e+00 -3.7748397127096178e-03 0.0000000000000000e+00  -8.0382908723048576e+00 -3.8030088824638803e-03 0.0000000000000000e+00  -8.0360797544804257e+00 -3.8311769512777631e-03 0.0000000000000000e+00  -8.0337782697002034e+00 -3.8593414558592319e-03 0.0000000000000000e+00  -8.0313862959605071e+00 -3.8874953260747062e-03 0.0000000000000000e+00  -8.0289037544386694e+00 -3.9156317739548509e-03 0.0000000000000000e+00  -8.0263305696518170e+00 -3.9437276341130929e-03 0.0000000000000000e+00  -8.0236668165508842e+00 -3.9717618590126317e-03 0.0000000000000000e+00  -8.0209125945734687e+00 -3.9996619576880285e-03 0.0000000000000000e+00  -8.0180684010462482e+00 -4.0273528005033065e-03 0.0000000000000000e+00  -8.0151351701506890e+00 -4.0546239726330108e-03 0.0000000000000000e+00  -8.0121139454493093e+00 -4.0811932162252151e-03 0.0000000000000000e+00  -8.0090103511974089e+00 -4.1064314487861010e-03 0.0000000000000000e+00  -8.0058215140938653e+00 -4.1298126803766908e-03 0.0000000000000000e+00  -8.0025771510523818e+00 -4.1491910766124768e-03 0.0000000000000000e+00  -7.9992316914137280e+00 -4.1712999019452380e-03 0.0000000000000000e+00  -7.9959018295982487e+00 -4.1895136799066880e-03 0.0000000000000000e+00  -7.9923334246647055e+00 -4.2657973135839253e-03 0.0000000000000000e+00  -7.9889318102565179e+00 -4.3082010847765584e-03 0.0000000000000000e+00  -7.9853481935127908e+00 -4.1349680129755999e-03 0.0000000000000000e+00  -7.9841661877495245e+00 -3.1460411428201902e-03 0.0000000000000000e+00  -7.9813911900660166e+00 -2.8340161761103242e-03 0.0000000000000000e+00  -7.9790845879409567e+00 -9.4246519220491931e-03 0.0000000000000000e+00  -7.9736775156643729e+00 -3.3031729143780844e-02 0.0000000000000000e+00  -7.9576330169820739e+00 0.0000000000000000e+00 0.0000000000000000e+00  -1.1252903525819706e+01 0.0000000000000000e+00 0.0000000000000000e+00  -1.1259109076342051e+01 2.0439220224695697e-03 0.0000000000000000e+00  -1.1263476761434294e+01 5.1482578169790528e-03 0.0000000000000000e+00  -1.1266905133587297e+01 5.3459247749328359e-03 0.0000000000000000e+00  -1.1270162196546991e+01 4.9955771416948461e-03 0.0000000000000000e+00  -1.1273254222615600e+01 4.6023579890862960e-03 0.0000000000000000e+00  -1.1276275360358504e+01 4.2307630249886494e-03 0.0000000000000000e+00  -1.1279107934772009e+01 3.8330377446412532e-03 0.0000000000000000e+00  -1.1281663957793779e+01 3.4558225343730127e-03 0.0000000000000000e+00  -1.1284030932213904e+01 3.1993607498311521e-03 0.0000000000000000e+00  -1.1286367482562497e+01 3.1027895903615096e-03 0.0000000000000000e+00  -1.1288786333901429e+01 3.1274738609986647e-03 0.0000000000000000e+00  -1.1291307515316973e+01 3.2004330649880995e-03 0.0000000000000000e+00  -1.1293884152782116e+01 3.2666738037055191e-03 0.0000000000000000e+00  -1.1296454424143162e+01 3.2985358259729710e-03 0.0000000000000000e+00  -1.1298966112764081e+01 3.2917254377286607e-03 0.0000000000000000e+00  -1.1301385212426805e+01 3.2509548285767171e-03 0.0000000000000000e+00  -1.1303690140589604e+01 3.1838585349966862e-03 0.0000000000000000e+00  -1.1305867539910775e+01 3.0974505929032099e-03 0.0000000000000000e+00  -1.1307908467109213e+01 2.9977602207902458e-03 0.0000000000000000e+00  -1.1309807453121810e+01 2.8897989549334642e-03 0.0000000000000000e+00  -1.1311561736072900e+01 2.7777555695589640e-03 0.0000000000000000e+00  -1.1313171314581503e+01 2.6649966778923141e-03 0.0000000000000000e+00  -1.1314638299635613e+01 2.5540055924566964e-03 0.0000000000000000e+00  -1.1315966203390509e+01 2.4461547019018802e-03 0.0000000000000000e+00  -1.1317158669017132e+01 2.3417346727417380e-03 0.0000000000000000e+00  -1.1318218524809858e+01 2.2400962923937629e-03 0.0000000000000000e+00  -1.1319147100753149e+01 2.1400882589063044e-03 0.0000000000000000e+00  -1.1319944217780039e+01 2.0404583799706168e-03 0.0000000000000000e+00  -1.1320608513978227e+01 1.9402138812938644e-03 0.0000000000000000e+00  -1.1321138027311649e+01 1.8387633131563906e-03 0.0000000000000000e+00  -1.1321530697165780e+01 1.7359181359243225e-03 0.0000000000000000e+00  -1.1321784730030366e+01 1.6317764134902465e-03 0.0000000000000000e+00  -1.1321898747021432e+01 1.5265843216963719e-03 0.0000000000000000e+00  -1.1321871791767961e+01 1.4206180401844621e-03 0.0000000000000000e+00  -1.1321703242428459e+01 1.3141109717203321e-03 0.0000000000000000e+00  -1.1321392704400838e+01 1.2072268795681586e-03 0.0000000000000000e+00  -1.1320939911765162e+01 1.1000612691090316e-03 0.0000000000000000e+00  -1.1320344659764187e+01 9.9265990048645158e-04 0.0000000000000000e+00  -1.1319606764372626e+01 8.8503795024888845e-04 0.0000000000000000e+00  -1.1318726044296618e+01 7.7719711899318757e-04 0.0000000000000000e+00  -1.1317702315167214e+01 6.6913535626980528e-04 0.0000000000000000e+00  -1.1316535389940825e+01 5.6085237535763834e-04 0.0000000000000000e+00  -1.1315225080684561e+01 4.5235066193316720e-04 0.0000000000000000e+00  -1.1313771199958095e+01 3.4363518280834595e-04 0.0000000000000000e+00  -1.1312173561143299e+01 2.3471196143945430e-04 0.0000000000000000e+00  -1.1310431977853391e+01 1.2558704676124280e-04 0.0000000000000000e+00  -1.1308546262903276e+01 1.6265599146109727e-05 0.0000000000000000e+00  -1.1306516227112805e+01 -9.3248447515239532e-05 0.0000000000000000e+00  -1.1304341678262833e+01 -2.0295251092570339e-04 0.0000000000000000e+00  -1.1302022420281864e+01 -3.1284520894378081e-04 0.0000000000000000e+00  -1.1299558252712016e+01 -4.2292612524055882e-04 0.0000000000000000e+00  -1.1296948970496324e+01 -5.3319551870184805e-04 0.0000000000000000e+00  -1.1294194363925586e+01 -6.4365402103903739e-04 0.0000000000000000e+00  -1.1291294219104843e+01 -7.5430229864556898e-04 0.0000000000000000e+00  -1.1288248318178519e+01 -8.6514069750718810e-04 0.0000000000000000e+00  -1.1285056441359037e+01 -9.7616867429916861e-04 0.0000000000000000e+00  -1.1281718366779314e+01 -1.0873840870788010e-03 0.0000000000000000e+00  -1.1278233878441490e+01 -1.1987814377196124e-03 0.0000000000000000e+00  -1.1274602762572224e+01 -1.3103501177338941e-03 0.0000000000000000e+00  -1.1270824839388430e+01 -1.4220673553099127e-03 0.0000000000000000e+00  -1.1266899942773566e+01 -1.5338952434638398e-03 0.0000000000000000e+00  -1.1262828037164059e+01 -1.6457504479668969e-03 0.0000000000000000e+00  -1.1258609149660145e+01 -1.7575108775010604e-03 0.0000000000000000e+00  -1.1254243704168776e+01 -1.8688843614655534e-03 0.0000000000000000e+00  -1.1249732530572084e+01 -1.9795026474017726e-03 0.0000000000000000e+00  -1.1245077120970580e+01 -2.0883965836361118e-03 0.0000000000000000e+00  -1.1240281947039072e+01 -2.1944677820049593e-03 0.0000000000000000e+00  -1.1235348836734090e+01 -2.2950396923590373e-03 0.0000000000000000e+00  -1.1230299052848009e+01 -2.3867162894177620e-03 0.0000000000000000e+00  -1.1225120243044961e+01 -2.4675304303856840e-03 0.0000000000000000e+00  -1.1219904141045692e+01 -2.5275635772825092e-03 0.0000000000000000e+00  -1.1214553220990767e+01 -2.6019292019175562e-03 0.0000000000000000e+00  -1.1209431749736444e+01 -2.6198321551079745e-03 0.0000000000000000e+00  -1.1204211750940443e+01 -2.6212737189347003e-03 0.0000000000000000e+00  -1.1200165859960389e+01 -1.8274517624596533e-03 0.0000000000000000e+00  -1.1195438554059729e+01 -1.6253899446936820e-04 0.0000000000000000e+00  -1.1193707162001623e+01 7.1648236361715272e-04 0.0000000000000000e+00  -1.1192111493202395e+01 -2.7958078219320766e-03 0.0000000000000000e+00  -1.1216876221971233e+01 1.4822620452053308e-02 0.0000000000000000e+00  -1.1197423831717900e+01 0.0000000000000000e+00 0.0000000000000000e+00  -9.5241994514445167e+00 0.0000000000000000e+00 0.0000000000000000e+00  -9.5334750142741083e+00 4.3912655408416329e-03 0.0000000000000000e+00  -9.5371333626602244e+00 5.6383527917340326e-03 0.0000000000000000e+00  -9.5395408016128886e+00 5.7978801531993933e-03 0.0000000000000000e+00  -9.5420311347175542e+00 5.4285057052673603e-03 0.0000000000000000e+00  -9.5447554127702023e+00 5.1351006867207021e-03 0.0000000000000000e+00  -9.5478525059534185e+00 4.8505797996752104e-03 0.0000000000000000e+00  -9.5511856002909266e+00 4.4122171249441258e-03 0.0000000000000000e+00  -9.5545662922802403e+00 3.9444128558050844e-03 0.0000000000000000e+00  -9.5579655314584127e+00 3.6625088901441321e-03 0.0000000000000000e+00  -9.5614362943798223e+00 3.6189458492451119e-03 0.0000000000000000e+00  -9.5649942439313573e+00 3.7100120734119640e-03 0.0000000000000000e+00  -9.5685756918846003e+00 3.8122160497542799e-03 0.0000000000000000e+00  -9.5720930146128325e+00 3.8545037793498607e-03 0.0000000000000000e+00  -9.5754777410806255e+00 3.8234396671176277e-03 0.0000000000000000e+00  -9.5786992456591893e+00 3.7327916891180049e-03 0.0000000000000000e+00  -9.5817528548071405e+00 3.5998023502745342e-03 0.0000000000000000e+00  -9.5846453457524525e+00 3.4374694011980924e-03 0.0000000000000000e+00  -9.5873843955755476e+00 3.2543452053875308e-03 0.0000000000000000e+00  -9.5899750948414013e+00 3.0566742360885837e-03 0.0000000000000000e+00  -9.5924195812431261e+00 2.8497715696383040e-03 0.0000000000000000e+00  -9.5947185402411943e+00 2.6384686288155649e-03 0.0000000000000000e+00  -9.5968723630792887e+00 2.4271703269885089e-03 0.0000000000000000e+00  -9.5988821191817557e+00 2.2192027515529635e-03 0.0000000000000000e+00  -9.6007493933570878e+00 2.0163574920522907e-03 0.0000000000000000e+00  -9.6024758088724678e+00 1.8186104568700711e-03 0.0000000000000000e+00  -9.6040622318185953e+00 1.6245284720175566e-03 0.0000000000000000e+00  -9.6055084045175043e+00 1.4319562353431162e-03 0.0000000000000000e+00  -9.6068129340360073e+00 1.2388146446062306e-03 0.0000000000000000e+00  -9.6079736854060211e+00 1.0436177591746226e-03 0.0000000000000000e+00  -9.6089882746591435e+00 8.4566608453242578e-04 0.0000000000000000e+00  -9.6098545034062060e+00 6.4493862486960046e-04 0.0000000000000000e+00  -9.6105706145858267e+00 4.4184473181440963e-04 0.0000000000000000e+00  -9.6111353634506997e+00 2.3696163066657831e-04 0.0000000000000000e+00  -9.6115479658270377e+00 3.0841797251245502e-05 0.0000000000000000e+00  -9.6118079799511769e+00 -1.7608623773864552e-04 0.0000000000000000e+00  -9.6119151880918832e+00 -3.8354190399151299e-04 0.0