<?xml version="1.0"?>
<VTKFile type="UnstructuredGrid"  version="0.1"  >
<UnstructuredGrid>
<Piece  NumberOfPoints="289" NumberOfCells="512">
<Points>
<DataArray  type="Float64"  NumberOfComponents="3"  format="ascii">0 0 0  0.0625 0 0  0.125 0 0  0.1875 0 0  0.25 0 0  0.3125 0 0  0.375 0 0  0.4375 0 0  0.5 0 0  0.5625 0 0  0.625 0 0  0.6875 0 0  0.75 0 0  0.8125 0 0  0.875 0 0  0.9375 0 0  1 0 0  0 0.0625 0  0.06250108139886359 0.06248716410963796 0  0.1250020662595322 0.06247410507272089 0  0.187502832416457 0.06246062007185079 0  0.2500032176953432 0.06244655500944684 0  0.3125029961031258 0.06243183573964084 0  0.3750018502707106 0.06241650661305737 0  0.4374993395324067 0.06240077633532846 0  0.4999948628427088 0.06238506763610093 0  0.5624876126636654 0.06237006102363257 0  0.624976501837237 0.0623567129987451 0  0.6874599916718508 0.06234621586624847 0  0.7499355493167128 0.0623398557955611 0  0.8123976822539537 0.06233874576795611 0  0.8748302214203111 0.06234357511912907 0  0.9371736990620121 0.06235538558730028 0  0.9991771028275326 0.06238414762173347 0  0 0.125 0  0.06250223791785782 0.1249745464802792 0  0.1250043089772021 0.1249486229117361 0  0.1875060012404173 0.1249217971865872 0  0.250007033786126 0.1248937291511401 0  0.3125070174119542 0.1248642313829732 0  0.3750054121766272 0.1248333465337657 0  0.4375014845056496 0.1248014430519944 0  0.4999942708532762 0.1247693251346077 0  0.5624825608444439 0.1247383413074952 0  0.6249649182709771 0.1247104559790257 0  0.6874397535890299 0.1246882164977656 0  0.7499054141683922 0.124674504494306 0  0.8123600861263155 0.124671915915633 0  0.8748009686136942 0.1246816063461751 0  0.9372234152995244 0.1247014556599277 0  0.9996429797908745 0.1247219152214045 0  0 0.1875 0  0.06250355927590426 0.1874623967865978 0  0.1250069207240076 0.1874240327789347 0  0.1875098293994337 0.1873841969974968 0  0.2500119433707407 0.1873423017680359 0  0.3125127857144696 0.1872979685584084 0  0.3750116954490063 0.1872511426268338 0  0.437507784143904 0.1872022434097555 0  0.499999913807344 0.187152351548548 0  0.5624867264557464 0.1871034199484478 0  0.6249667787329936 0.187058469062602 0  0.6874388670448993 0.1870216752445322 0  0.7499026678975147 0.1869981662344265 0  0.8123598739383715 0.186993154661395 0  0.8748162398398848 0.1870096316137266 0  0.9372864213316058 0.1870427467120834 0  0.9998102969371883 0.1870659673986884 0  0 0.25 0  0.06250509772131183 0.249951008233344 0  0.1250100140029949 0.2499009071562096 0  0.1875145060493815 0.2498486399802267 0  0.2500182359993 0.2497932850435628 0  0.3125207189537652 0.2497341577065861 0  0.3750212708602427 0.2496709558000432 0  0.4375189648880426 0.2496039646439517 0  0.5000126155278366 0.2495343353740424 0  0.5625008266922432 0.2494644410354697 0  0.6249821649653 0.2493982907207179 0  0.6874555505822707 0.2493419286302913 0  0.7499209906254212 0.2493036374812997 0  0.8123808095960257 0.2492935645051675 0  0.8748416312254634 0.2493220487662895 0  0.9373178683219799 0.2493955150584296 0  0.9998388461506384 0.2495090996911523 0  0 0.3125 0  0.06250685276549815 0.3124407311076154 0  0.1250135909713923 0.3123799425207187 0  0.1875200422038052 0.312316157075651 0  0.2500259401402845 0.312248016669096 0  0.3125308723017123 0.3121743849389522 0  0.3750342263723846 0.3120945080521619 0  0.4375351430993656 0.3120082617708546 0  0.5000324937507454 0.311916518813111 0  0.5625249150192354 0.3118216735191549 0  0.6250109531375262 0.3117283536994863 0  0.6874893865098516 0.3116443170694562 0  0.7499598020531826 0.3115814431580669 0  0.8124234937198038 0.3115565447858091 0  0.8748848059973512 0.3115913852279737 0  0.937353467326967 0.3117108127299527 0  0.9998499056902176 0.3119375344369029 0  0 0.375 0  0.0625087613945505 0.3749319764716679 0  0.1250175239459723 0.3748619705098505 0  0.1875262419128318 0.3747880166621844 0  0.2500347863212067 0.3747082172195343 0  0.3125428964874259 0.3746208233520715 0  0.3750501272650313 0.3745243837985362 0  0.4375557983007166 0.3744180015031641 0  0.5000589610361431 0.3743017560054083 0  0.5625584134797749 0.3741773722251798 0  0.6250528104331676 0.3740492413429207 0  0.6875409311161665 0.3739259150041238 0  0.7500221634470831 0.3738221688891639 0  0.8124972354891197 0.3737615971986171 0  0.8749692146837779 0.3737793328777143 0  0.937445013695969 0.3739237322111793 0  0.9999385417305555 0.3742546430313142 0  0 0.4375 0  0.06251069565522925 0.4374252062989847 0  0.1250215501846288 0.4373479412623906 0  0.187532693429915 0.4372657084191577 0  0.2500441931952031 0.4371759888841845 0  0.3125560157896546 0.437076272905392 0  0.3750679791671854 0.4369641570085732 0  0.4375797036486469 0.4368375544535186 0  0.5000905764808616 0.4366950961840933 0  0.5625997669763534 0.4365368459956789 0  0.6251063615500488 0.436365523179689 0  0.6876097305149108 0.4361885199002115 0  0.7501102751967608 0.4360211005974597 0  0.8126106944386878 0.435891200242106 0  0.8751177920116523 0.4358459911311883 0  0.9376446019680804 0.4359594660321784 0  1.000212497629614 0.4363382732826798 0  0 0.5 0  0.06251246947590851 0.4999209070983808 0  0.1250252847572914 0.4998388717803144 0  0.1875387864196096 0.4997508699520727 0  0.2500532856280231 0.4996537295484702 0  0.3125690401267988 0.4995440830725396 0  0.3750862202583862 0.4994183666595484 0  0.437604869176686 0.4992729098436764 0  0.5001248768676139 0.4991041971115388 0  0.5626460225874088 0.4989094480549093 0  0.6251682108944822 0.4986877775598105 0  0.687692151341338 0.4984423902706996 0  0.7502209139804279 0.4981845642550985 0  0.8127629641997228 0.497940570211065 0  0.8753371943369486 0.4977629365508718 0  0.937979619167559 0.4977468499947877 0  1.000749478622307 0.498049401469448 0  0 0.5625 0  0.06251385601236802 0.5624195460322627 0  0.125028254529025 0.5623357559484543 0  0.1875437609607427 0.5622451472149725 0  0.2500609552213961 0.5621439414395346 0  0.3125804301865034 0.562027914497597 0  0.3751027784398784 0.5618922546780347 0  0.4376285692431252 0.5617314539318855 0  0.5001583361233981 0.5615392907933323 0  0.5626926470905645 0.5613090311810488 0  0.6252324550332259 0.5610341092016796 0  0.687780197112982 0.5607098212863535 0  0.7503426221891426 0.5603370969448375 0  0.8129370929156999 0.5599303840512987 0  0.8756037496275839 0.5595332001282459 0  0.938424976831768 0.5592461661774257 0  1.001548163570142 0.5592698177610265 0  0 0.625 0  0.06251461547361092 0.624921511826784 0  0.1250299538323996 0.6248394398102012 0  0.1875467908807102 0.6247499910611645 0  0.2500659698808297 0.6246489298144957 0  0.3125884293495651 0.6245313168761499 0  0.3751152189609233 0.6243912030821944 0  0.4376474995606554 0.6242212669444275 0  0.5001865370440141 0.6240124016016417 0  0.5627337538269692 0.6237532963845406 0  0.6252910660286776 0.6234301600135855 0  0.6878621701574517 0.6230269850022838 0  0.7504564689312772 0.6225273787930378 0  0.8130994115785942 0.6219205232660739 0  0.8758562899508341 0.6212173704931542 0  0.9388787091741795 0.6204896455863286 0  1.002476163288288 0.6199471275269862 0  0 0.6875 0  0.06251453131496157 0.6874270470079878 0  0.1250299183594162 0.6873504751528285 0  0.1875470980293625 0.6872664090250705 0  0.2500671310741033 0.6871704146698658 0  0.3125912647459758 0.6870571432527575 0  0.3751209874918187 0.6869198706541413 0  0.4376580628938044 0.6867498793808998 0  0.500204526505068 0.6865356126949537 0  0.562762651248803 0.6862615136809768 0  0.6253350121737931 0.6859064587136965 0  0.6879252453584985 0.6854417600765449 0  0.7505415452773453 0.6848290472983719 0  0.8132089304724175 0.6840196829196187 0  0.8760056163964807 0.682962408255792 0  0.9391539173323753 0.6816430918004349 0  1.003197659238199 0.6802145028433302 0  0 0.75 0  0.06251345022849837 0.7499361822131911 0  0.125027808828565 0.7498689743389529 0  0.1875440866258743 0.7497947103090588 0  0.2500634677752906 0.74970911245517 0  0.3125874085278293 0.7496068806251988 0  0.3751177398946757 0.7494811319510313 0  0.4376567565678708 0.7493225988165672 0  0.5002072464655994 0.7491184429717656 0  0.5627723701443006 0.7488504603280224 0  0.6253552624137285 0.7484923081981661 0  0.6879583656161155 0.748005137474875 0  0.7505835397457372 0.7473305914878875 0  0.8132386412349173 0.746379634516132 0  0.8759734922066768 0.7450168206490615 0  0.9390206400952412 0.7430565685692071 0  1.003162623346009 0.740436244087762 0  0 0.8125 0  0.06251131910556453 0.8124486861136129 0  0.1250234911300707 0.8123944963847216 0  0.1875374790826593 0.8123342968858605 0  0.2500544462616692 0.812264374877147 0  0.3125758824885975 0.812180036246228 0  0.3751037544184575 0.8120750377757811 0  0.4376406707371723 0.8119407434241105 0  0.5001900129715251 0.8117648251111899 0  0.5627558794267746 0.8115292062032946 0  0.6253424442004581 0.8112067192377377 0  0.6879518118682389 0.8107554951691076 0  0.7505786167788338 0.810109077328361 0  0.8131998133510824 0.809157624695187 0  0.8757698116651046 0.8077081872973246 0  0.9383203950355982 0.8053913513901935 0  1.001907057265793 0.8014380395092224 0  0 0.875 0  0.06250821080589936 0.8749640444115361 0  0.1250170960988483 0.8749259950237563 0  0.1875274275524186 0.874883557485884 0  0.2500401634221741 0.8748339841248853 0  0.3125565770943626 0.8747737513981163 0  0.375078428463389 0.8746980952100477 0  0.4376081898508228 0.87460030475981 0  0.5001493147520119 0.8744706110742761 0  0.5627064495688399 0.8742943932443104 0  0.625285200609349 0.8740492261434571 0  0.6878901808695597 0.8736999293889072 0  0.750517395161584 0.8731900157961928 0  0.8131291477606805 0.8724257762797825 0  0.8755770054807454 0.8712405984953787 0  0.9373793643806024 0.869285927868868 0  0.9971850497108885 0.8655768470489905 0  0 0.9375 0  0.06250433087893968 0.9374814776011243 0  0.1250090411884937 0.9374618516466156 0  0.1875145700264813 0.9374399088387178 0  0.2500214755612027 0.9374141866910659 0  0.3125305233044272 0.9373827938219861 0  0.3750428145055412 0.93734314779358 0  0.4375599783961974 0.9372915714789996
[...]
<PointData  Vectors="f_54"> 
<DataArray  type="Float64"  Name="f_54"  NumberOfComponents="3" format="ascii">0.0000000000000000e+00 0.0000000000000000e+00 0.0000000000000000e+00  0.0000000000000000e+00 0.0000000000000000e+00 0.0000000000000000e+00  0.0000000000000000e+00 0.0000000000000000e+00 0.0000000000000000e+00  0.0000000000000000e+00 0.0000000000000000e+00 0.0000000000000000e+00  0.0000000000000000e+00 0.0000000000000000e+00 0.0000000000000000e+00  0.0000000000000000e+00 0.0000000000000000e+00 0.0000000000000000e+00  0.0000000000000000e+00 0.0000000000000000e+00 0.0000000000000000e+00  0.0000000000000000e+00 0.0000000000000000e+00 0.0000000000000000e+00  0.0000000000000000e+00 0.0000000000000000e+00 0.0000000000000000e+00  0.0000000000000000e+00 0.0000000000000000e+00 0.0000000000000000e+00  0.0000000000000000e+00 0.0000000000000000e+00 0.0000000000000000e+00  0.0000000000000000e+00 0.0000000000000000e+00 0.0000000000000000e+00  0.0000000000000000e+00 0.0000000000000000e+00 0.0000000000000000e+00  0.0000000000000000e+00 0.0000000000000000e+00 0.0000000000000000e+00  0.0000000000000000e+00 0.0000000000000000e+00 0.0000000000000000e+00  0.0000000000000000e+00 0.0000000000000000e+00 0.0000000000000000e+00  0.0000000000000000e+00 0.0000000000000000e+00 0.0000000000000000e+00  0.0000000000000000e+00 0.0000000000000000e+00 0.0000000000000000e+00  4.8019486538575572e-06 -2.8311686846900034e-09 0.0000000000000000e+00  9.7362924943736783e-06 -6.0568724114720471e-09 0.0000000000000000e+00  1.4935648669491009e-05 -1.0090005445868281e-08 0.0000000000000000e+00  2.0528631455260196e-05 -1.5369770551855826e-08 0.0000000000000000e+00  2.6635927880703812e-05 -2.2350632207900661e-08 0.0000000000000000e+00  3.3363823826660860e-05 -3.1454658867011949e-08 0.0000000000000000e+00  4.0794164460593042e-05 -4.2964186067622730e-08 0.0000000000000000e+00  4.8969760963476319e-05 -5.6827811396743821e-08 0.0000000000000000e+00  5.7874666811559916e-05 -7.2361441219117385e-08 0.0000000000000000e+00  6.7410251946652743e-05 -8.7871329890660923e-08 0.0000000000000000e+00  7.7372677080045219e-05 -1.0036563990079740e-07 0.0000000000000000e+00  8.7451897473340965e-05 -1.0592321698701469e-07 0.0000000000000000e+00  9.7320165373124398e-05 -1.0260037393468439e-07 0.0000000000000000e+00  1.0704730152005483e-04 -1.0301605135621280e-07 0.0000000000000000e+00  1.1871623026614207e-04 -1.8815420649702828e-07 0.0000000000000000e+00  1.4252068733365262e-04 -7.4934809591503291e-07 0.0000000000000000e+00  0.0000000000000000e+00 0.0000000000000000e+00 0.0000000000000000e+00  9.4697400571223752e-06 -5.2669078866832769e-09 0.0000000000000000e+00  1.9205985760341545e-05 -1.1305739114250477e-08 0.0000000000000000e+00  2.9476265833065383e-05 -1.8933321136811552e-08 0.0000000000000000e+00  4.0541708583704912e-05 -2.9039085413307765e-08 0.0000000000000000e+00  5.2650111641256880e-05 -4.2579460488130914e-08 0.0000000000000000e+00  6.6023997217349713e-05 -6.0505475139530547e-08 0.0000000000000000e+00  8.0841508570703123e-05 -8.3574879197609587e-08 0.0000000000000000e+00  9.7207797354095774e-05 -1.1198229024204604e-07 0.0000000000000000e+00  1.1511467553225318e-04 -1.4473464755122844e-07 0.0000000000000000e+00  1.3438726352552131e-04 -1.7873230122807068e-07 0.0000000000000000e+00  1.5461907611530958e-04 -2.0762788910543118e-07 0.0000000000000000e+00  1.7510268116899732e-04 -2.2069402362139614e-07 0.0000000000000000e+00  1.9477054468315869e-04 -2.0151352779075318e-07 0.0000000000000000e+00  2.1214669374434617e-04 -1.2134157905131671e-07 0.0000000000000000e+00  2.2511441404585956e-04 1.0894792503941199e-07 0.0000000000000000e+00  2.2901162810634647e-04 9.3238858195230711e-07 0.0000000000000000e+00  0.0000000000000000e+00 0.0000000000000000e+00 0.0000000000000000e+00  1.3867573776161730e-05 -6.9293952318601126e-09 0.0000000000000000e+00  2.8138418049914111e-05 -1.4965117803203048e-08 0.0000000000000000e+00  4.3218748921753259e-05 -2.5298691691349299e-08 0.0000000000000000e+00  5.9509123828570867e-05 -3.9275386837138415e-08 0.0000000000000000e+00  7.7396362494832263e-05 -5.8425812154654336e-08 0.0000000000000000e+00  9.7238269146467503e-05 -8.4417234699519045e-08 0.0000000000000000e+00  1.1933781364819426e-04 -1.1885130184950300e-07 0.0000000000000000e+00  1.4390273849265408e-04 -1.6279069162403176e-07 0.0000000000000000e+00  1.7098589790052077e-04 -2.1584856005308563e-07 0.0000000000000000e+00  2.0040113084249768e-04 -2.7465620712466891e-07 0.0000000000000000e+00  2.3160896269802298e-04 -3.3063957470185975e-07 0.0000000000000000e+00  2.6356438151208737e-04 -3.6757039839884274e-07 0.0000000000000000e+00  2.9450889275991479e-04 -3.6117649988945481e-07 0.0000000000000000e+00  3.2165014429552370e-04 -2.8941483298062524e-07 0.0000000000000000e+00  3.4055380204399226e-04 -1.8770314025028818e-07 0.0000000000000000e+00  3.4384213006874047e-04 -4.0646399592989160e-07 0.0000000000000000e+00  0.0000000000000000e+00 0.0000000000000000e+00 0.0000000000000000e+00  1.7857398101290759e-05 -7.4847356138909803e-09 0.0000000000000000e+00  3.6256905668459485e-05 -1.6326751875061917e-08 0.0000000000000000e+00  5.5747056781439725e-05 -2.8022588556757562e-08 0.0000000000000000e+00  7.6875913467003019e-05 -4.4341833975509082e-08 0.0000000000000000e+00  1.0018458179448766e-04 -6.7437837200891839e-08 0.0000000000000000e+00  1.2619194369303829e-04 -9.9895751939514790e-08 0.0000000000000000e+00  1.5536616501881330e-04 -1.4463282579438802e-07 0.0000000000000000e+00  1.8807724250418750e-04 -2.0448702362274556e-07 0.0000000000000000e+00  2.2452327792933088e-04 -2.8120448215122546e-07 0.0000000000000000e+00  2.6462133403221930e-04 -3.7336315330706660e-07 0.0000000000000000e+00  3.0785145331368931e-04 -4.7260198970184218e-07 0.0000000000000000e+00  3.5303887435467608e-04 -5.5757235991364993e-07 0.0000000000000000e+00  3.9805249034187906e-04 -5.8587017102771034e-07 0.0000000000000000e+00  4.3938446890710885e-04 -4.8698461596375636e-07 0.0000000000000000e+00  4.7156482124245772e-04 -1.6419561255288360e-07 0.0000000000000000e+00  4.8642621809015806e-04 4.9630999562124134e-07 0.0000000000000000e+00  0.0000000000000000e+00 0.0000000000000000e+00 0.0000000000000000e+00  2.1299661731081620e-05 -6.6836927811823931e-09 0.0000000000000000e+00  4.3279630417677428e-05 -1.4836825707622137e-08 0.0000000000000000e+00  6.6631925603911855e-05 -2.6127653831348365e-08 0.0000000000000000e+00  9.2058607696761854e-05 -4.2639604490790202e-08 0.0000000000000000e+00  1.2027034567471143e-04 -6.7100823493047323e-08 0.0000000000000000e+00  1.5197560597471319e-04 -1.0311366898831990e-07 0.0000000000000000e+00  1.8785524784820134e-04 -1.5532082032791547e-07 0.0000000000000000e+00  2.2851537187602554e-04 -2.2934436161174602e-07 0.0000000000000000e+00  2.7440875923122164e-04 -3.3113259866729343e-07 0.0000000000000000e+00  3.2571222257791365e-04 -4.6496882550411572e-07 0.0000000000000000e+00  3.8214388150446230e-04 -6.2873315682769127e-07 0.0000000000000000e+00  4.4270130811470540e-04 -8.0398085801521787e-07 0.0000000000000000e+00  5.0530012317391310e-04 -9.3710067260893442e-07 0.0000000000000000e+00  5.6629775362726791e-04 -9.0682320203429778e-07 0.0000000000000000e+00  6.1991433847642771e-04 -4.7411445140541416e-07 0.0000000000000000e+00  6.5765425364708785e-04 7.8377599257943614e-07 0.0000000000000000e+00  0.0000000000000000e+00 0.0000000000000000e+00 0.0000000000000000e+00  2.4056169628404650e-05 -4.4170190255545781e-09 0.0000000000000000e+00  4.8924952119764386e-05 -1.0214952770247578e-08 0.0000000000000000e+00  7.5437758268022946e-05 -1.9020757809044202e-08 0.0000000000000000e+00  1.0445210423129401e-04 -3.3002699219715199e-08 0.0000000000000000e+00  1.3685906520967940e-04 -5.5234842213988316e-08 0.0000000000000000e+00  1.7358215284672175e-04 -9.0171016154746579e-08 0.0000000000000000e+00  2.1556219274817317e-04 -1.4423969385748298e-07 0.0000000000000000e+00  2.6372022794871411e-04 -2.2649752165201539e-07 0.0000000000000000e+00  3.1888697829960121e-04 -3.4907940950478264e-07 0.0000000000000000e+00  3.8168296829071263e-04 -5.2669892301611288e-07 0.0000000000000000e+00  4.5232852243445512e-04 -7.7337495557142989e-07 0.0000000000000000e+00  5.3035869256112974e-04 -1.0923536761503102e-06 0.0000000000000000e+00  6.1421761605877010e-04 -1.4511241555928155e-06 0.0000000000000000e+00  7.0071474024477581e-04 -1.7270608059767173e-06 0.0000000000000000e+00  7.8434800496485592e-04 -1.6023781991472835e-06 0.0000000000000000e+00  8.5653649780050814e-04 -3.8937080516092028e-07 0.0000000000000000e+00  0.0000000000000000e+00 0.0000000000000000e+00 0.0000000000000000e+00  2.5995417690835994e-05 -7.7693495041578942e-10 0.0000000000000000e+00  5.2922004264712633e-05 -2.5953697529269184e-09 0.0000000000000000e+00  8.1738260708452367e-05 -6.7527674205943517e-09 0.0000000000000000e+00  1.1344974737243685e-04 -1.5138816749114521e-08 0.0000000000000000e+00  1.4912912626666028e-04 -3.0701143010712446e-08 0.0000000000000000e+00  1.8993017654606406e-04 -5.8152272334504651e-08 0.0000000000000000e+00  2.3709099204759947e-04 -1.0505523695031507e-07 0.0000000000000000e+00  2.9191855824330006e-04 -1.8345280729398323e-07 0.0000000000000000e+00  3.5574244714553000e-04 -3.1216576798449318e-07 0.0000000000000000e+00  4.2981920989983966e-04 -5.1960858477940910e-07 0.0000000000000000e+00  5.1516139822926790e-04 -8.4601840278798700e-07 0.0000000000000000e+00  6.1225738279394363e-04 -1.3413480221828915e-06 0.0000000000000000e+00  7.2064372025067234e-04 -2.0486440215617553e-06 0.0000000000000000e+00  8.3829615243802421e-04 -2.9489646706525584e-06 0.0000000000000000e+00  9.6081981381261400e-04 -3.8186827256340612e-06 0.0000000000000000e+00  1.0804194076765251e-03 -3.9128599965167930e-06 0.0000000000000000e+00  0.0000000000000000e+00 0.0000000000000000e+00 0.0000000000000000e+00  2.7000447885935549e-05 3.8935170688374874e-09 0.0000000000000000e+00  5.5026762374495766e-05 7.3486093196961660e-09 0.0000000000000000e+00  8.5141393375708056e-05 9.7226918691777001e-09 0.0000000000000000e+00  1.1847796496769395e-04 9.8685006072439649e-09 0.0000000000000000e+00  1.5627679752143391e-04 5.6686095163242718e-09 0.0000000000000000e+00  1.9991888711049514e-04 -6.7678592653040974e-09 0.0000000000000000e+00  2.5095531123034686e-04 -3.4517617790982844e-08 0.0000000000000000e+00  3.1112595217914595e-04 -9.0324240221872928e-08 0.0000000000000000e+00  3.8235636278843773e-04 -1.9689905090572552e-07 0.0000000000000000e+00  4.6671372180422983e-04 -3.9416452241881467e-07 0.0000000000000000e+00  5.6629157594258119e-04 -7.5076956793202329e-07 0.0000000000000000e+00  6.8297923212166142e-04 -1.3802759596610079e-06 0.0000000000000000e+00  8.1805967087080367e-04 -2.4573684104623910e-06 0.0000000000000000e+00  9.7158069359609635e-04 -4.2127169971733335e-06 0.0000000000000000e+00  1.1414724250570685e-03 -6.8414985944229069e-06 0.0000000000000000e+00  1.3224259680009009e-03 -1.0169420317678720e-05 0.0000000000000000e+00  0.0000000000000000e+00 0.0000000000000000e+00 0.0000000000000000e+00  2.6978833147369069e-05 8.9888589296875850e-09 0.0000000000000000e+00  5.5042881335247112e-05 1.8355972063187404e-08 0.0000000000000000e+00  8.5322798465391482e-05 2.8400515041797014e-08 0.0000000000000000e+00  1.1904483620277677e-04 3.9180307865307669e-08 0.0000000000000000e+00  1.5758311639613404e-04 5.0206067692020609e-08 0.0000000000000000e+00  2.0251664795898537e-04 5.9811004379457016e-08 0.0000000000000000e+00  2.5569115265312067e-04 6.3867218155970776e-08 0.0000000000000000e+00  3.1928337458569830e-04 5.3196235856953458e-08 0.0000000000000000e+00  3.9586085903348204e-04 8.3719349215267629e-09 0.0000000000000000e+00  4.8842157551559910e-04 -1.1065839855189861e-07 0.0000000000000000e+00  6.0038318701392845e-04 -3.8507875630063644e-07 0.0000000000000000e+00  7.3546999874217435e-04 -9.7668232935709116e-07 0.0000000000000000e+00  8.9742054286762630e-04 -2.1996758117470444e-06 0.0000000000000000e+00  1.0894308313128007e-03 -4.6360447224630996e-06 0.0000000000000000e+00  1.3133166905739989e-03 -9.2709957587603094e-06 0.0000000000000000e+00  1.5686358021413432e-03 -1.7500235151875364e-05 0.0000000000000000e+00  0.0000000000000000e+00 0.0000000000000000e+00 0.0000000000000000e+00  2.5873903884146361e-05 1.3692329544209355e-08 0.0000000000000000e+00  5.2845539146562857e-05 2.8667904017974246e-08 0.0000000000000000e+00  8.2065119753419821e-05 4.6315722212524325e-08 0.0000000000000000e+00  1.1479936941489675e-04 6.8200704853050178e-08 0.0000000000000000e+00  1.5249936360251580e-04 9.6084550555356820e-08 0.0000000000000000e+00  1.9688056985040292e-04 1.3179285105625922e-07 0.0000000000000000e+00  2.5001953417754365e-04 1.7670436476023411e-07 0.0000000000000000e+00  3.1447108616281449e-04 2.3033545592308130e-07 0.0000000000000000e+00  3.9340745706199651e-04 2.8677529630999152e-07 0.0000000000000000e+00  4.9077400568376468e-04 3.2600213483056175e-07 0.0000000000000000e+00  6.1144129708620069e-04 2.9294044142049208e-07 0.0000000000000000e+00  7.6130449474500405e-04 4.7195524310192222e-08 0.0000000000000000e+00  9.4723536227769487e-04 -7.5595000153044755e-07 0.0000000000000000e+00  1.1767474964239964e-03 -2.9365078601737031e-06 0.0000000000000000e+00  1.4572897727810393e-03 -8.3537157965686372e-06 0.0000000000000000e+00  1.7955208674245743e-03 -2.0894645571093345e-05 0.0000000000000000e+00  0.0000000000000000e+00 0.0000000000000000e+00 0.0000000000000000e+00  2.3675832714596455e-05 1.7101689113259915e-08 0.0000000000000000e+00  4.8405428860555997e-05 3.6292598912320239e-08 0.0000000000000000e+00  7.5298723542286953e-05 5.9969403861350430e-08 0.0000000000000000e+00  1.0559522664629889e-04 9.1179015887463524e-08 0.0000000000000000e+00  1.4074315729626944e-04 1.3405794366376022e-07 0.0000000000000000e+00  1.8249811936535610e-04 1.9441550356657127e-07 0.0000000000000000e+00  2.3305089834213283e-04 2.8050982640066402e-07 0.0000000000000000e+00  2.9519646303470033e-04 4.0401781610098979e-07 0.0000000000000000e+00  3.7255853497115705e-04 5.8098562122717134e-07 0.0000000000000000e+00  4.6988403884888077e-04 8.3173676578145828e-07 0.0000000000000000e+00  5.9341422152759760e-04 1.1758315826052593e-06 0.0000000000000000e+00  7.5131347524821782e-04 1.6081990486261438e-06 0.0000000000000000e+00  9.5407556710943328e-04 2.0091678055162892e-06 0.0000000000000000e+00  1.2147215242247892e-03 1.8358566737525535e-06 0.0000000000000000e+00  1.5485597458132219e-03 -8.3701213843902213e-07 0.0000000000000000e+00  1.9730294284297616e-03 -1.1616584331092070e-05 0.0000000000000000e+00  0.0000000000000000e+00 0.0000000000000000e+00 0.0000000000000000e+00  2.0430803790061422e-05 1.8416034002615448e-08 0.0000000000000000e+00  4.1809119566952001e-05 3.9422285508986865e-08 0.0000000000000000e+00  6.5137580013367383e-05 6.6073040780159602e-08 0.0000000000000000e+00  9.1549550033357619e-05 1.0245370480658537e-07 0.0000000000000000e+00  1.2239202387143440e-04 1.5448330420669852e-07 0.0000000000000000e+00  1.5933342726602440e-04 2.3115885375739072e-07 0.0000000000000000e+00  2.0451056541478420e-04 3.4660214275545522e-07 0.0000000000000000e+00  2.6073531128027738e-04 5.2358981891358821e-07 0.0000000000000000e+00  3.3179095279558954e-04 7.9993159444531466e-07 0.0000000000000000e+00  4.2286053343770682e-04 1.2405319521717625e-06 0.0000000000000000e+00  5.4114255574332635e-04 1.9609414270435843e-06 0.0000000000000000e+00  6.9671241583887781e-04 3.1726701610373641e-06 0.0000000000000000e+00  9.0364958382723598e-04 5.2572136530115388e-06 0.0000000000000000e+00  1.1813018117459184e-03 8.7920816806365365e-06 0.0000000000000000e+00  1.5552328615282085e-03 1.3816855730443053e-05 0.0000000000000000e+00  2.0579110504749783e-03 1.3402964614081397e-05 0.0000000000000000e+00  0.0000000000000000e+00 0.0000000000000000e+00 0.0000000000000000e+00  1.6246337430179863e-05 1.7140193962196075e-08 0.0000000000000000e+00  3.3271548902028716e-05 3.6905320525198889e-08 0.0000000000000000e+00  5.1902969903984322e-05 6.2438670541451387e-08 0.0000000000000000e+00  7.3085178289419736e-05 9.8058249493684372e-08 0.0000000000000000e+00  9.7956536956090657e-05 1.5021370379368663e-07 0.0000000000000000e+00  1.2795197190161405e-04 2.2902634901690357e-07 0.0000000000000000e+00  1.6494860411696735e-04 3.5091393046525802e-07 0.0000000000000000e+00  2.1148037138015279e-04 5.4328552409328951e-07 0.0000000000000000e+00  2.7106403040859698e-04 8.5342683643490366e-07 0.0000000000000000e+00  3.4870650261796380e-04 1.3666372037474256e-06 0.0000000000000000e+00  4.5170933109697211e-04 2.2470642683789177e-06 0.0000000000000000e+00  5.9095716504660271e-04 3.8403968565791454e-06 0.0000000000000000e+00  7.8296586439359701e-04 6.9599698266915650e-06 0.0000000000000000e+00  1.0529802053614653e-03 1.3747315455945073e-05 0.0000000000000000e+00  1.4388305674276215e-03 3.0408618303146663e-05 0.0000000000000000e+00  1.9888569452773024e-03 7.6811711031139423e-05 0.0000000000000000e+00  0.0000000000000000e+00 0.0000000000000000e+00 0.0000000000000000e+00  1.1291048535485183e-05 1.3243967009728884e-08 0.0000000000000000e+00  2.3136727512376829e-05 2.8623643574690848e-08 0.0000000000000000e+00  3.6127856964097715e-05 4.8718118913540900e-08 0.0000000000000000e+00  5.0943991220783008e-05 7.7118828142531335e-08 0.0000000000000000e+00  6.8412574779271591e-05 1.1926103174661248e-07 0.0000000000000000e+00  8.9590201156712992e-05 1.8375494946464892e-07 0.0000000000000000e+00  1.1588095623909261e-04 2.8459685184479155e-07 0.0000000000000000e+00  1.4921670608103021e-04 4.4489586938335696e-07 0.0000000000000000e+00  1.9234248883127499e-04 7.0318210783928714e-07 0.0000000000000000e+00  2.4928501069514054e-04 1.1241422702294477e-06 0.0000000000000000e+00  3.2615114999316757e-04 1.8175783790936922e-06 0.0000000000000000e+00  4.3254714025690985e-04 2.9771612844715659e-06 0.0000000000000000e+00  5.8423636299237609e-04 4.9903372803756803e-06 0.0000000000000000e+00  8.0852014322146796e-04 8.8816380185999308e-06 0.0000000000000000e+00  1.1567090695414769e-03 1.8426392010730286e-05 0.0000000000000000e+00  1.7410612278765704e-03 5.0507700129946222e-05 0.0000000000000000e+00  0.0000000000000000e+00 0.0000000000000000e+00 0.0000000000000000e+00  5.7877665063292571e-06 7.2181667770361013e-09 0.0000000000000000e+00  1.1864059855470336e-05 1.5633210512187965e-08 0.0000000000000000e+00  1.8536766888878315e-05 2.6696217000381154e-08 0.0000000000000000e+00  2.6161614206325800e-05 4.2439628334351567e-08 0.0000000000000000e+00  3.5174455841884387e-05 6.5951138034423118e-08 0.0000000000000000e+00  4.6136213583546743e-05 1.0211487902827928e-07 0.0000000000000000e+00  5.9799356503578639e-05 1.5877251486026580e-07 0.0000000000000000e+00  7.7211037304206954e-05 2.4841965531641944e-07 0.0000000000000000e+00  9.9879798377573156e-05 3.9011803635041316e-07 0.0000000000000000e+00  1.3005538969512872e-04 6.0919049225265251e-07 0.0000000000000000e+00  1.7121416950187238e-04 9.2354866484054622e-07 0.0000000000000000e+00  2.2891588339862411e-04 1.2712424662480863e-06 0.0000000000000000e+00  3.1226285146497632e-04 1.2010749626545638e-06 0.0000000000000000e+00  4.3581717236836764e-04 -1.3531666528840629e-06 0.0000000000000000e+00  6.1823911140963567e-04 -1.4533377443645943e-05 0.0000000000000000e+00  8.5566461767838653e-04 -6.4176820014991880e-05 0.0000000000000000e+00  0.0000000000000000e+00 0.0000000000000000e+00 0.0000000000000000e+00  0.0000000000000000e+00 0.0000000000000000e+00 0.0000000000000000e+00  0.0000000000000000e+00 0.0000000000000000e+00 0.0000000000000000e+00  0.0000000000000000e+00 0.0000000000000000e+00 0.0000000000000000e+00  0.0000000000000000e+00 0.0000000000000000e+00 0.0000000000000000e+00  0.0000000000000000e+00 0.0000000000000000e+00 0.0000000000000000e+00  0.0000000000000000e+00 0.0000000000000000e+00 0.0000000000000000e+00  0.0000000000000000e+00 0.0000000000000000e+00 0.0000000000000000e+00  0.0000000000000000e+00 0.0000000000000000e+00 0.0000000000000000e+00  0.0000000000000000e+00 0.0000000000000000e+00 0.0000000000000000e+00  0.000000000000000