<?xml version="1.0"?>
<VTKFile type="UnstructuredGrid"  version="0.1"  >
<UnstructuredGrid>
<Piece  NumberOfPoints="289" NumberOfCells="512">
<Points>
<DataArray  type="Float64"  NumberOfComponents="3"  format="ascii">0 0 0  0.0625 0 0  0.125 0 0  0.1875 0 0  0.25 0 0  0.3125 0 0  0.375 0 0  0.4375 0 0  0.5 0 0  0.5625 0 0  0.625 0 0  0.6875 0 0  0.75 0 0  0.8125 0 0  0.875 0 0  0.9375 0 0  1 0 0  0 0.0625 0  0.06251794717482748 0.06247170919343666 0  0.1250374200344686 0.06244291734425188 0  0.1875600865037884 0.06241315919183169 0  0.250087962524534 0.06238207232428473 0  0.3126236364764249 0.06234946273808606 0  0.3751705655221296 0.06231538547928362 0  0.4377334921901571 0.06228023956817147 0  0.5003190691947095 0.0622448677491086 0  0.5629368737750757 0.06221063515587996 0  0.6256012249914054 0.06217943057994885 0  0.6883348303389454 0.06215347647047043 0  0.7511770071244446 0.06213471216372532 0  0.8142043433771421 0.0621232003440906 0  0.877587804268125 0.06211299602260051 0  0.9417643163788474 0.06208018697136571 0  1.007999996744028 0.06194416364619085 0  0 0.125 0  0.06253434703560715 0.1249438917775888 0  0.1250715985768158 0.1248867287686786 0  0.1876149341222104 0.1248275225846386 0  0.2501682069150371 0.1247654791807991 0  0.3127363792186094 0.1247001269891512 0  0.3753260951390884 0.124631480144781 0  0.4379464746470145 0.1245602399115356 0  0.5006102672411296 0.1244880235292915 0  0.563335618688673 0.1244175827448277 0  0.6261489515372028 0.1243529262116855 0  0.6890899909979739 0.1242991824734817 0  0.7522210529560657 0.1242619384314937 0  0.815644589593404 0.1242457481756696 0  0.8795344420600477 0.1242520168972469 0  0.9441767868281761 0.1242798789534494 0  1.009940853898998 0.1243502381955844 0  0 0.1875 0  0.0625478709231974 0.1874171148366071 0  0.1250997233355599 0.1873325256945253 0  0.1876599200462941 0.1872446145390482 0  0.2502337611336771 0.1871520240271586 0  0.3128280898998353 0.1870538392515639 0  0.3754520857431405 0.1869498319062217 0  0.4381183420793237 0.1868407818213244 0  0.5008443676932864 0.1867288776383643 0  0.5636547147282361 0.1866181691193404 0  0.6265840328477243 0.1865149858172377 0  0.6896814515275799 0.1864281321183621 0  0.7530166154335275 0.1863684880975791 0  0.8166866616501799 0.1863473211861863 0  0.8808188613418428 0.1863718602202983 0  0.945549061334816 0.1864340359537819 0  1.010923607708999 0.1864764507247914 0  0 0.25 0  0.06255749773397482 0.2498920392591879 0  0.1251196266609312 0.2497816002743878 0  0.1876914653967251 0.2496662923099608 0  0.2502791983898899 0.2495440096193774 0  0.3128908348978824 0.2494131477664234 0  0.3755371502380497 0.2492729156946683 0  0.4382329518680496 0.2491237794199034 0  0.5009987902379583 0.2489680690443828 0  0.5638632361313912 0.2488107619419239 0  0.6268657897394795 0.2486604052262105 0  0.6900602582168271 0.2485300319526947 0  0.7535177511174903 0.2484377114535663 0  0.8173266480893079 0.2484059811251818 0  0.8815828480108691 0.2484587442720672 0  0.9463566562312128 0.2486134246238112 0  1.011618434467422 0.2488675257890179 0  0 0.3125 0  0.06256262388262281 0.312369447560853 0  0.1251300213679167 0.3122355091564704 0  0.1877074294055916 0.3120948626546549 0  0.2503012396101663 0.3119444344294063 0  0.3129197614858431 0.3117816170881349 0  0.3755742362373042 0.3116046160751763 0  0.4382802147001593 0.3114129889114572 0  0.5010594232833585 0.3112084552394901 0  0.5639422183208025 0.3109960642174165 0  0.6269706126748891 0.310785791163967 0  0.6902015278924831 0.3105945618488394 0  0.7537091658160133 0.3104485029281842 0  0.8175839243738884 0.3103847841023863 0  0.8819230924824744 0.3104516446653625 0  0.9468072204046141 0.3107041754162559 0  1.01226187501683 0.3111928546042796 0  0 0.375 0  0.06256312755707594 0.374850250323978 0  0.1251306413704851 0.3746960948411107 0  0.1877073504629191 0.3745331367390768 0  0.2502991297497248 0.3743571138224737 0  0.3129136482105198 0.3741640685311268 0  0.3755613699793855 0.3739506685848261 0  0.438256968524849 0.3737147703668556 0  0.5010213268049224 0.3734563584493968 0  0.5638843080998097 0.3731790483690907 0  0.6268884214455924 0.3728923956090059 0  0.6900932711548177 0.3726152757579816 0  0.753580117498697 0.3723804963652287 0  0.8174548667185464 0.3722403792583329 0  0.8818466463128144 0.3722720252936509 0  0.9468994478159594 0.3725791652870278 0  1.012760309585784 0.3732854137720303 0  0 0.4375 0  0.06255937950884982 0.4373354631642213 0  0.1251222713257276 0.4371654465522799 0  0.1876925111959127 0.4369843913233196 0  0.2502747647431083 0.4367866737844536 0  0.3128751286975219 0.4365666656051328 0  0.3755020099641298 0.4363189406119026 0  0.4381674594564747 0.4360387379386829 0  0.5008892223128224 0.4357228619450875 0  0.563693876026381 0.4353713110523736 0  0.6266215398933204 0.4349900915456394 0  0.6897326811122363 0.4345958783680779 0  0.7531173613849357 0.4342233466158144 0  0.8169066503950211 0.433935832595789 0  0.8812848968628371 0.4338388626847536 0  0.9465013232054361 0.4340931949318456 0  1.012884240822576 0.434919713739682 0  0 0.5 0  0.06255219618075694 0.499826147830802 0  0.1251066557440555 0.4996457849792749 0  0.187665811439278 0.4994522050030552 0  0.2502325476219365 0.499238359280765 0  0.3128105722528098 0.498996742112581 0  0.375405031004 0.498719379167442 0  0.4380235657222445 0.4983980218647656 0  0.500678171782806 0.4980247407093476 0  0.5633884641027918 0.4975932747238885 0  0.6261873592705292 0.4971017833458301 0  0.6891307252566177 0.4965581281780136 0  0.7523131040142801 0.4959895137052951 0  0.8158917087390212 0.495459014744016 0  0.8801196903379668 0.4950911650309718 0  0.945387197393645 0.4951047745445309 0  1.012271160598052 0.4958408831662356 0  0 0.5625 0  0.06254273464925411 0.5623233154872158 0  0.125086283720756 0.5621392638314602 0  0.1876314359884668 0.5619401499983694 0  0.2501789413286376 0.5617176111729111 0  0.3127295543004439 0.5614622750909782 0  0.3752842173147016 0.5611634336629764 0  0.4378445661767887 0.5608087903484829 0  0.5004141453809573 0.5603844236846478 0  0.5630011230937774 0.5598752859335234 0  0.6256240513577214 0.5592669246937293 0  0.6883235323672702 0.5585498740713594 0  0.7511846426623967 0.5577296557854053 0  0.8143771215570375 0.5568479386973981 0  0.8782202969322948 0.556023506122596 0  0.9432730630043928 0.5555199725494051 0  1.010438398511752 0.5558281995812122 0  0 0.625 0  0.06253233436651029 0.624827797592704 0  0.1250640554317514 0.6246476967787533 0  0.1875943148483497 0.624451345406548 0  0.2501216870959668 0.6242294021590999 0  0.3126438165892199 0.6239709511846681 0  0.3751570225193405 0.6236628085804996 0  0.4376559471637742 0.6232886967101547 0  0.5001335285398139 0.6228283002470698 0  0.5625820397933847 0.6222563280455879 0  0.6249969763088223 0.6215420047564839 0  0.6873877807023906 0.62065021194999 0  0.7498037173592228 0.6195475813222886 0  0.8123903761027436 0.6182220990750211 0  0.8754995233004761 0.6167364140697634 0  0.9398674667560658 0.6153494615017978 0  1.006844886950232 0.6147122768951404 0  0 0.6875 0  0.06252231939857357 0.6873400991846103 0  0.125042855060357 0.687172239427091 0  0.1875594031626396 0.6869879155250873 0  0.2500686959237655 0.6867773843858457 0  0.3125656532451012 0.6865288721085758 0  0.3750423515192119 0.686227542140333 0  0.4374866112435672 0.6858540973956461 0  0.4998801844903521 0.6853828464341504 0  0.5621968334106863 0.6847790203979611 0  0.6244015437248984 0.6839951376558926 0  0.6864547431203293 0.6829664994212521 0  0.748332106075704 0.6816073246005913 0  0.810086218522262 0.6798148769487509 0  0.8720063640198616 0.6775112550621327 0  0.9349478604140741 0.6748259031991676 0  1.000780796191734 0.6725530727643928 0  0 0.75 0  0.06251378648672253 0.7498602585019757 0  0.1250250822144083 0.7497130777041435 0  0.1875308597443839 0.74955043905218 0  0.2500267100632599 0.7493629787886148 0  0.3125058012699959 0.7491390828880693 0  0.3749573205480056 0.7488636460109909 0  0.4373640706301236 0.7485162804921099 0  0.4996987483207747 0.7480686367036379 0  0.5619183121958524 0.7474802752542632 0  0.623956031421219 0.7466921319241957 0  0.6857123247127938 0.7456158983358258 0  0.7470517558940794 0.744116523076056 0  0.8078353249413097 0.7419846364668955 0  0.8680870679569793 0.7389063586090698 0  0.928586526541338 0.7345390834517472 0  0.9917198062445254 0.7296767135047579 0  0 0.8125 0  0.06250741593950991 0.8123877425625949 0  0.1250122239106331 0.8122691888539905 0  0.187511267229079 0.8121375074343049 0  0.2499999602247455 0.8119846040960329 0  0.3124711613477286 0.811800245809972 0  0.3749133997307275 0.8115708231333726 0  0.4373079487763708 0.8112775061426816 0  0.4996238548352715 0.810893390022888 0  0.5618093330171462 0.8103789276945118 0  0.6237767641214039 0.8096743412052747 0  0.6853768901330115 0.8086863361080463 0  0.746357214068489 0.8072629981187115 0  0.8063089786702866 0.8051414750574744 0  0.8646703464504604 0.8018283057655631 0  0.9212108378760236 0.7963133776243635 0  0.9804082503614399 0.7863851296106468 0  0 0.875 0  0.06250334867950808 0.874921407332526 0  0.1250045684628057 0.8748382411193827 0  0.1875010866320173 0.8747455162977839 0  0.2499891645928352 0.8746372670529369 0  0.312462952207824 0.8745058543005069 0  0.374912952268984 0.8743409725946633 0  0.4373233798147287 0.8741281523554314 0  0.499667419473304 0.8738464292294208 0  0.561898363590135 0.8734646438439755 0  0.6239323969018321 0.8729354769871936 0  0.6856138987233742 0.8721856164520769 0  0.7466433970082672 0.8710984622454107 0  0.8064260323485244 0.8694777502581701 0  0.8637599746095453 0.8669439118880077 0  0.9162582895244147 0.8625588394530004 0  0.9595941082864047 0.8534024969980025 0  0 0.9375 0  0.06250116747816713 0.937459541914428 0  0.1250011543097162 0.9374166784823157 0  0.1874985363181541 0.9373687811013665 0  0.2499912456166261 0.9373126861562697 0  0.3124760423590831 0.9372443140208029 0  0.3749476448719014 0.937158119562035 0  0.4373972041745117 0.9370462627870656
[...]
<PointData  Vectors="f_54"> 
<DataArray  type="Float64"  Name="f_54"  NumberOfComponents="3" format="ascii">0.0000000000000000e+00 0.0000000000000000e+00 0.0000000000000000e+00  0.0000000000000000e+00 0.0000000000000000e+00 0.0000000000000000e+00  0.0000000000000000e+00 0.0000000000000000e+00 0.0000000000000000e+00  0.0000000000000000e+00 0.0000000000000000e+00 0.0000000000000000e+00  0.0000000000000000e+00 0.0000000000000000e+00 0.0000000000000000e+00  0.0000000000000000e+00 0.0000000000000000e+00 0.0000000000000000e+00  0.0000000000000000e+00 0.0000000000000000e+00 0.0000000000000000e+00  0.0000000000000000e+00 0.0000000000000000e+00 0.0000000000000000e+00  0.0000000000000000e+00 0.0000000000000000e+00 0.0000000000000000e+00  0.0000000000000000e+00 0.0000000000000000e+00 0.0000000000000000e+00  0.0000000000000000e+00 0.0000000000000000e+00 0.0000000000000000e+00  0.0000000000000000e+00 0.0000000000000000e+00 0.0000000000000000e+00  0.0000000000000000e+00 0.0000000000000000e+00 0.0000000000000000e+00  0.0000000000000000e+00 0.0000000000000000e+00 0.0000000000000000e+00  0.0000000000000000e+00 0.0000000000000000e+00 0.0000000000000000e+00  0.0000000000000000e+00 0.0000000000000000e+00 0.0000000000000000e+00  0.0000000000000000e+00 0.0000000000000000e+00 0.0000000000000000e+00  0.0000000000000000e+00 0.0000000000000000e+00 0.0000000000000000e+00  -4.2130514828765287e-06 -2.5697896601346525e-07 0.0000000000000000e+00  -8.5485980537604181e-06 -5.1631927524366583e-07 0.0000000000000000e+00  -1.3132899723636091e-05 -7.7978674461293656e-07 0.0000000000000000e+00  -1.8092173823062618e-05 -1.0474012789836804e-06 0.0000000000000000e+00  -2.3551786674313069e-05 -1.3163143507542443e-06 0.0000000000000000e+00  -2.9634331038785049e-05 -1.5793890346621514e-06 0.0000000000000000e+00  -3.6456421854497465e-05 -1.8234115787914225e-06 0.0000000000000000e+00  -4.4124540096054502e-05 -2.0268917780163436e-06 0.0000000000000000e+00  -5.2731638074337440e-05 -2.1574011685393807e-06 0.0000000000000000e+00  -6.2360054480160745e-05 -2.1681593551002623e-06 0.0000000000000000e+00  -7.3107347659628045e-05 -1.9923904237301287e-06 0.0000000000000000e+00  -8.5185593607686462e-05 -1.5292407970053568e-06 0.0000000000000000e+00  -9.9256506678306001e-05 -5.9715667857404593e-07 0.0000000000000000e+00  -1.1756273673419814e-04 1.2383396039118617e-06 0.0000000000000000e+00  -1.4798482306371412e-04 5.3417823506124810e-06 0.0000000000000000e+00  -2.2071648509375881e-04 1.7006716908965978e-05 0.0000000000000000e+00  0.0000000000000000e+00 0.0000000000000000e+00 0.0000000000000000e+00  -8.3022511311355092e-06 -5.1150596168352363e-07 0.0000000000000000e+00  -1.6849976299314431e-05 -1.0285765047027808e-06 0.0000000000000000e+00  -2.5896256417757332e-05 -1.5556738939376583e-06 0.0000000000000000e+00  -3.5695068753914755e-05 -2.0939690760997900e-06 0.0000000000000000e+00  -4.6500148814913624e-05 -2.6391806794871350e-06 0.0000000000000000e+00  -5.8561517581993917e-05 -3.1787871848732449e-06 0.0000000000000000e+00  -7.2119036849964288e-05 -3.6884517064694234e-06 0.0000000000000000e+00  -8.7392809775398841e-05 -4.1275892244994224e-06 0.0000000000000000e+00  -1.0457148584257706e-04 -4.4341648508032922e-06 0.0000000000000000e+00  -1.2380255309248067e-04 -4.5190179457828944e-06 0.0000000000000000e+00  -1.4519555693301092e-04 -4.2601556755402975e-06 0.0000000000000000e+00  -1.6886328323655560e-04 -3.4975090794583837e-06 0.0000000000000000e+00  -1.9504756961038618e-04 -2.0303865984292398e-06 0.0000000000000000e+00  -2.2436429839004020e-04 3.6139872271713125e-07 0.0000000000000000e+00  -2.5782797894404640e-04 3.7184904475810653e-06 0.0000000000000000e+00  -2.9341018839061113e-04 6.5284292982842077e-06 0.0000000000000000e+00  0.0000000000000000e+00 0.0000000000000000e+00 0.0000000000000000e+00  -1.2141088729057575e-05 -7.6013908182132765e-07 0.0000000000000000e+00  -2.4650644881762238e-05 -1.5306096310867916e-06 0.0000000000000000e+00  -3.7908656996429784e-05 -2.3203140638672570e-06 0.0000000000000000e+00  -5.2298720237867935e-05 -3.1337359456902336e-06 0.0000000000000000e+00  -6.8207477017735146e-05 -3.9679310070106583e-06 0.0000000000000000e+00  -8.6020434748371004e-05 -4.8085094586343531e-06 0.0000000000000000e+00  -1.0611274532799340e-04 -5.6242965754721731e-06 0.0000000000000000e+00  -1.2883346985246265e-04 -6.3604828028988252e-06 0.0000000000000000e+00  -1.5448190798330715e-04 -6.9304058758334897e-06 0.0000000000000000e+00  -1.8327456320253838e-04 -7.2068526441240947e-06 0.0000000000000000e+00  -2.1530000525282417e-04 -7.0153467091199106e-06 0.0000000000000000e+00  -2.5045105574794056e-04 -6.1353037719150528e-06 0.0000000000000000e+00  -2.8829048628800771e-04 -4.3229192248335965e-06 0.0000000000000000e+00  -3.2768665760609257e-04 -1.3890856501384776e-06 0.0000000000000000e+00  -3.6568141879135118e-04 2.5958858440940489e-06 0.0000000000000000e+00  -3.9416336497594259e-04 6.9265085044709512e-06 0.0000000000000000e+00  0.0000000000000000e+00 0.0000000000000000e+00 0.0000000000000000e+00  -1.5603788923735804e-05 -9.9789466632108683e-07 0.0000000000000000e+00  -3.1697670581635134e-05 -2.0129617044976073e-06 0.0000000000000000e+00  -4.8787258826750016e-05 -3.0608893721562985e-06 0.0000000000000000e+00  -6.7387010534091053e-05 -4.1524726638264307e-06 0.0000000000000000e+00  -8.8021671222214694e-05 -5.2900855161777811e-06 0.0000000000000000e+00  -1.1122298942720366e-04 -6.4627180913237543e-06 0.0000000000000000e+00  -1.3751944799439094e-04 -7.6390045382237694e-06 0.0000000000000000e+00  -1.6741609338586451e-04 -8.7577019490763467e-06 0.0000000000000000e+00  -2.0136046478995228e-04 -9.7153652173832618e-06 0.0000000000000000e+00  -2.3968843333885094e-04 -1.0351834544589807e-05 0.0000000000000000e+00  -2.8253839385747716e-04 -1.0436279477588724e-05 0.0000000000000000e+00  -3.2970827230792199e-04 -9.6611672058518063e-06 0.0000000000000000e+00  -3.8039481531496348e-04 -7.6607341287452970e-06 0.0000000000000000e+00  -4.3267753801842979e-04 -4.0868576798676583e-06 0.0000000000000000e+00  -4.8248788668833655e-04 1.2030497016023003e-06 0.0000000000000000e+00  -5.2183033084244245e-04 7.7859685605612736e-06 0.0000000000000000e+00  0.0000000000000000e+00 0.0000000000000000e+00 0.0000000000000000e+00  -1.8567104674446150e-05 -1.2177637820568111e-06 0.0000000000000000e+00  -3.7741896045063136e-05 -2.4618009513512214e-06 0.0000000000000000e+00  -5.8151680892823521e-05 -3.7571998950757992e-06 0.0000000000000000e+00  -8.0440961724921145e-05 -5.1245710005229013e-06 0.0000000000000000e+00  -1.0527680202819303e-04 -6.5765078541167122e-06 0.0000000000000000e+00  -1.3334885832117760e-04 -8.1122172501615365e-06 0.0000000000000000e+00  -1.6536119583794809e-04 -9.7093809183758804e-06 0.0000000000000000e+00  -2.0201188681812844e-04 -1.1312081597193811e-05 0.0000000000000000e+00  -2.4395471642928054e-04 -1.2813510157869204e-05 0.0000000000000000e+00  -2.9173457156773496e-04 -1.4032511424852656e-05 0.0000000000000000e+00  -3.4568299941143055e-04 -1.4684584137547835e-05 0.0000000000000000e+00  -4.0575035643123438e-04 -1.4352190023885923e-05 0.0000000000000000e+00  -4.7123201037249396e-04 -1.2468440162655412e-05 0.0000000000000000e+00  -5.4031857902036987e-04 -8.3445488008903014e-06 0.0000000000000000e+00  -6.0939469904004197e-04 -1.2924241061345303e-06 0.0000000000000000e+00  -6.7215520356919732e-04 9.0981099333973598e-06 0.0000000000000000e+00  0.0000000000000000e+00 0.0000000000000000e+00 0.0000000000000000e+00  -2.0913302486047875e-05 -1.4105578821352081e-06 0.0000000000000000e+00  -4.2543634286607167e-05 -2.8585047892755971e-06 0.0000000000000000e+00  -6.5631823453762381e-05 -4.3807509710494292e-06 0.0000000000000000e+00  -9.0947609887529011e-05 -6.0112210002279722e-06 0.0000000000000000e+00  -1.1930115569315055e-04 -7.7780059911829059e-06 0.0000000000000000e+00  -1.5154941799030701e-04 -9.6984734224036094e-06 0.0000000000000000e+00  -1.8859422400981378e-04 -1.1771033124789158e-05 0.0000000000000000e+00  -2.3136747781106386e-04 -1.3961612022945988e-05 0.0000000000000000e+00  -2.8079705574976489e-04 -1.6182012686471904e-05 0.0000000000000000e+00  -3.3774458916886047e-04 -1.8256375423075154e-05 0.0000000000000000e+00  -4.0290349731472784e-04 -1.9871556378414200e-05 0.0000000000000000e+00  -4.7664245210320860e-04 -2.0509072824367453e-05 0.0000000000000000e+00  -5.5877683224408873e-04 -1.9363880625896326e-05 0.0000000000000000e+00  -6.4825346892043222e-04 -1.5273687655497256e-05 0.0000000000000000e+00  -7.4276102009569549e-04 -6.7135260041492795e-06 0.0000000000000000e+00  -8.3837925825306324e-04 8.0592484884620069e-06 0.0000000000000000e+00  0.0000000000000000e+00 0.0000000000000000e+00 0.0000000000000000e+00  -2.2534549703549672e-05 -1.5651850485213812e-06 0.0000000000000000e+00  -4.5881340942460960e-05 -3.1801352895547700e-06 0.0000000000000000e+00  -7.0880588712727018e-05 -4.8952435225330271e-06 0.0000000000000000e+00  -9.8416228926663610e-05 -6.7605389867046091e-06 0.0000000000000000e+00  -1.2943581569782464e-04 -8.8243732447304639e-06 0.0000000000000000e+00  -1.6496649585674014e-04 -1.1130242402292017e-05 0.0000000000000000e+00  -2.0612404024174775e-04 -1.3710268875443641e-05 0.0000000000000000e+00  -2.5411024068351993e-04 -1.6572789610075763e-05 0.0000000000000000e+00  -3.1019190274816314e-04 -1.9679669149766710e-05 0.0000000000000000e+00  -3.7565263065425183e-04 -2.2906043758855599e-05 0.0000000000000000e+00  -4.5170787664286554e-04 -2.5971128979324033e-05 0.0000000000000000e+00  -5.3937703580194166e-04 -2.8324646777310676e-05 0.0000000000000000e+00  -6.3931838512357858e-04 -2.8973977086759638e-05 0.0000000000000000e+00  -7.5165915239286158e-04 -2.6252926183008294e-05 0.0000000000000000e+00  -8.7589755596936369e-04 -1.7575322163802268e-05 0.0000000000000000e+00  -1.0110181775805250e-03 7.3351574879833395e-07 0.0000000000000000e+00  0.0000000000000000e+00 0.0000000000000000e+00 0.0000000000000000e+00  -2.3338739994167995e-05 -1.6694244948615439e-06 0.0000000000000000e+00  -4.7563421399308106e-05 -3.4009791926518105e-06 0.0000000000000000e+00  -7.3591952585501426e-05 -5.2588308728109618e-06 0.0000000000000000e+00  -1.0240293536137227e-04 -7.3103544127901942e-06 0.0000000000000000e+00  -1.3506583186751906e-04 -9.6271777793051130e-06 0.0000000000000000e+00  -1.7276960834830665e-04 -1.2285101168308472e-05 0.0000000000000000e+00  -2.1684746741833797e-04 -1.5361657780754908e-05 0.0000000000000000e+00  -2.6879328649877975e-04 -1.8928813535039135e-05 0.0000000000000000e+00  -3.3026272613792757e-04 -2.3035776204104994e-05 0.0000000000000000e+00  -4.0304929047455841e-04 -2.7671984437031963e-05 0.0000000000000000e+00  -4.8902515226637803e-04 -3.2691341748444691e-05 0.0000000000000000e+00  -5.9004400124178062e-04 -3.7663989622138700e-05 0.0000000000000000e+00  -7.0782995476793842e-04 -4.1603500922853240e-05 0.0000000000000000e+00  -8.4393813270323666e-04 -4.2511428859531275e-05 0.0000000000000000e+00  -9.9997065934112530e-04 -3.6725184695407160e-05 0.0000000000000000e+00  -1.1783204249044834e-03 -1.8147126366286705e-05 0.0000000000000000e+00  0.0000000000000000e+00 0.0000000000000000e+00 0.0000000000000000e+00  -2.3256551101518616e-05 -1.7111973503401535e-06 0.0000000000000000e+00  -4.7442832608484854e-05 -3.4951884722857513e-06 0.0000000000000000e+00  -7.3524050012313311e-05 -5.4283129917101206e-06 0.0000000000000000e+00  -1.0254355541432675e-04 -7.5941618550734592e-06 0.0000000000000000e+00  -1.3566435805632354e-04 -1.0087531555906066e-05 0.0000000000000000e+00  -1.7421279757200012e-04 -1.3018557512487325e-05 0.0000000000000000e+00  -2.1972329315636351e-04 -1.6516606805078741e-05 0.0000000000000000e+00  -2.7398078109364007e-04 -2.0732577197741660e-05 0.0000000000000000e+00  -3.3905377976391725e-04 -2.5835966407637572e-05 0.0000000000000000e+00  -4.1730612691476856e-04 -3.1997599759069244e-05 0.0000000000000000e+00  -5.1137155735547812e-04 -3.9336171935905770e-05 0.0000000000000000e+00  -6.2408077908312251e-04 -4.7778815939202016e-05 0.0000000000000000e+00  -7.5836846324925638e-04 -5.6731691871321535e-05 0.0000000000000000e+00  -9.1730467261349666e-04 -6.4380259682885984e-05 0.0000000000000000e+00  -1.1046417129900261e-03 -6.6423539474934936e-05 0.0000000000000000e+00  -1.3266737310104850e-03 -5.4206497115886876e-05 0.0000000000000000e+00  0.0000000000000000e+00 0.0000000000000000e+00 0.0000000000000000e+00  -2.2249238151984661e-05 -1.6802257762564936e-06 0.0000000000000000e+00  -4.5433531000839467e-05 -3.4403276962600141e-06 0.0000000000000000e+00  -7.0525962668490055e-05 -5.3650515057891758e-06 0.0000000000000000e+00  -9.8593242058557954e-05 -7.5501599869654630e-06 0.0000000000000000e+00  -1.3084828498537000e-04 -1.0109282180844603e-05 0.0000000000000000e+00  -1.6870986858528910e-04 -1.3182550662391752e-05 0.0000000000000000e+00  -2.1387052215176788e-04 -1.6947884490398711e-05 0.0000000000000000e+00  -2.6837160109725736e-04 -2.1635840187148812e-05 0.0000000000000000e+00  -3.3467985721141264e-04 -2.7548434811387810e-05 0.0000000000000000e+00  -4.1575141288426813e-04 -3.5079588887117991e-05 0.0000000000000000e+00  -5.1505677305135661e-04 -4.4724704030221810e-05 0.0000000000000000e+00  -6.3653141710161417e-04 -5.7034508763898791e-05 0.0000000000000000e+00  -7.8444377178018524e-04 -7.2375009512615899e-05 0.0000000000000000e+00  -9.6334328527865820e-04 -9.0129042138646580e-05 0.0000000000000000e+00  -1.1787411958607500e-03 -1.0668473825975286e-04 0.0000000000000000e+00  -1.4394724732402389e-03 -1.1185541490936861e-04 0.0000000000000000e+00  0.0000000000000000e+00 0.0000000000000000e+00 0.0000000000000000e+00  -2.0316353312691756e-05 -1.5698491689283899e-06 0.0000000000000000e+00  -4.1527145700517810e-05 -3.2213474324885221e-06 0.0000000000000000e+00  -6.4565793868198395e-05 -5.0418473759767054e-06 0.0000000000000000e+00  -9.0469737367721478e-05 -7.1323434696190247e-06 0.0000000000000000e+00  -1.2044186487215513e-04 -9.6164550884110345e-06 0.0000000000000000e+00  -1.5592469543098406e-04 -1.2652576794015897e-05 0.0000000000000000e+00  -1.9869188832133394e-04 -1.6451322091106315e-05 0.0000000000000000e+00  -2.5096058331463791e-04 -2.1301784498700700e-05 0.0000000000000000e+00  -3.1552390676910014e-04 -2.7612598628970490e-05 0.0000000000000000e+00  -3.9589197113469094e-04 -3.5977583274010990e-05 0.0000000000000000e+00  -4.9640594963589932e-04 -4.7279233412791624e-05 0.0000000000000000e+00  -6.2224898099867720e-04 -6.2834912021361375e-05 0.0000000000000000e+00  -7.7924088035948079e-04 -8.4516167962578038e-05 0.0000000000000000e+00  -9.7343966820536494e-04 -1.1440625960423323e-04 0.0000000000000000e+00  -1.2117892722573391e-03 -1.5218239440302584e-04 0.0000000000000000e+00  -1.5070134197305463e-03 -1.9026263767918671e-04 0.0000000000000000e+00  0.0000000000000000e+00 0.0000000000000000e+00 0.0000000000000000e+00  -1.7502285657651853e-05 -1.3786652307002026e-06 0.0000000000000000e+00  -3.5807579935101607e-05 -2.8342482874491446e-06 0.0000000000000000e+00  -5.5756422939990030e-05 -4.4494865746046173e-06 0.0000000000000000e+00  -7.8295319004645679e-05 -6.3215316762813993e-06 0.0000000000000000e+00  -1.0454227526242256e-04 -8.5716377961188460e-06 0.0000000000000000e+00  -1.3587041970458829e-04 -1.1358568000885130e-05 0.0000000000000000e+00  -1.7401856016000357e-04 -1.4898378981266164e-05 0.0000000000000000e+00  -2.2123931541878850e-04 -1.9495410091088053e-05 0.0000000000000000e+00  -2.8049517688465082e-04 -2.5594035684602387e-05 0.0000000000000000e+00  -3.5570512976431143e-04 -3.3871362397715665e-05 0.0000000000000000e+00  -4.5201608333132742e-04 -4.5414610363765209e-05 0.0000000000000000e+00  -5.7599628082606591e-04 -6.2075373521681783e-05 0.0000000000000000e+00  -7.3547490722740123e-04 -8.7171916494302565e-05 0.0000000000000000e+00  -9.3846183212742981e-04 -1.2671116905329006e-04 0.0000000000000000e+00  -1.1908508970948290e-03 -1.8985221163630598e-04 0.0000000000000000e+00  -1.5123916239201218e-03 -2.6161073237255589e-04 0.0000000000000000e+00  0.0000000000000000e+00 0.0000000000000000e+00 0.0000000000000000e+00  -1.3900293589453059e-05 -1.1116342887252802e-06 0.0000000000000000e+00  -2.8460672734397596e-05 -2.2886014791621750e-06 0.0000000000000000e+00  -4.4374163631278970e-05 -3.6013841165593250e-06 0.0000000000000000e+00  -6.2430331681091836e-05 -5.1335070376443287e-06 0.0000000000000000e+00  -8.3577540971349466e-05 -6.9902400617101608e-06 0.0000000000000000e+00  -1.0900631942979690e-04 -9.3104649304369221e-06 0.0000000000000000e+00  -1.4026653251749993e-04 -1.2283677989955064e-05 0.0000000000000000e+00  -1.7943704198034212e-04 -1.6175472627813625e-05 0.0000000000000000e+00  -2.2937438148173264e-04 -2.1368198930119535e-05 0.0000000000000000e+00  -2.9407370701745034e-04 -2.8432931252545799e-05 0.0000000000000000e+00  -3.7916805694142633e-04 -3.8277349425134667e-05 0.0000000000000000e+00  -4.9252862666949060e-04 -5.2500359549206870e-05 0.0000000000000000e+00  -6.4468704395729843e-04 -7.4336495846977113e-05 0.0000000000000000e+00  -8.4803218143143897e-04 -1.1131208888389235e-04 0.0000000000000000e+00  -1.1109969615461072e-03 -1.8361779125992042e-04 0.0000000000000000e+00  -1.3979471702772401e-03 -3.7232875370253875e-04 0.0000000000000000e+00  0.0000000000000000e+00 0.0000000000000000e+00 0.0000000000000000e+00  -9.6526531201387009e-06 -7.8036186628645005e-07 0.0000000000000000e+00  -1.9775798467780016e-05 -1.6082493842333994e-06 0.0000000000000000e+00  -3.0864733043716170e-05 -2.5349931134225117e-06 0.0000000000000000e+00  -4.3489132815524092e-05 -3.6216871005071904e-06 0.0000000000000000e+00  -5.8342729026622339e-05 -4.9455237965645405e-06 0.0000000000000000e+00  -7.6312528153393453e-05 -6.6080052876161321e-06 0.0000000000000000e+00  -9.8581186699925089e-05 -8.7455013866293210e-06 0.0000000000000000e+00  -1.2678524942332691e-04 -1.1541812190403987e-05 0.0000000000000000e+00  -1.6326793989708397e-04 -1.5239922345854135e-05 0.0000000000000000e+00  -2.1149213729939806e-04 -2.0144363461109759e-05 0.0000000000000000e+00  -2.7672027455236315e-04 -2.6596963441572467e-05 0.0000000000000000e+00  -3.6711507272961779e-04 -3.4917173844314308e-05 0.0000000000000000e+00  -4.9541370908821219e-04 -4.5433043489322139e-05 0.0000000000000000e+00  -6.8106176065841869e-04 -5.9349092111523098e-05 0.0000000000000000e+00  -9.5134702220922519e-04 -8.2815000553886715e-05 0.0000000000000000e+00  -1.3358430148668746e-03 -1.3819940392665900e-04 0.0000000000000000e+00  0.0000000000000000e+00 0.0000000000000000e+00 0.0000000000000000e+00  -4.9457986323886800e-06 -4.0244820085652230e-07 0.0000000000000000e+00  -1.0136671529021478e-05 -8.2992034967797778e-07 0.0000000000000000e+00  -1.5831120635359203e-05 -1.3094505775706434e-06 0.0000000000000000e+00  -2.2328394374241919e-05 -1.8732635810885595e-06 0.0000000000000000e+00  -2.9996389058014662e-05 -2.5620327587200964e-06 0.0000000000000000e+00  -3.9311638497212774e-05 -3.4288184726324501e-06 0.0000000000000000e+00  -5.0920636175644242e-05 -4.5432159621100593e-06 0.0000000000000000e+00  -6.5739071826695757e-05 -5.9931902903731686e-06 0.0000000000000000e+00  -8.5119736413865200e-05 -7.8753446886886277e-06 0.0000000000000000e+00  -1.1114614835535717e-04 -1.0242791685371835e-05 0.0000000000000000e+00  -1.4714984805340155e-04 -1.2911567333613347e-05 0.0000000000000000e+00  -1.9856539660706478e-04 -1.4818689568748617e-05 0.0000000000000000e+00  -2.7393753646413904e-04 -1.2070126281629281e-05 0.0000000000000000e+00  -3.8391519883927515e-04 7.0101153880514491e-06 0.0000000000000000e+00  -5.2907443518581169e-04 6.8110182249485939e-05 0.0000000000000000e+00  -6.6700772367488917e-04 1.8959187465166402e-04 0.0000000000000000e+00  0.0000000000000000e+00 0.0000000000000000e+00 0.0000000000000000e+00  0.0000000000000000e+00 0.0000000000000000e+00 0.0000000000000000e+00  0.0000000000000000e+00 0.0000000000000000e+00 0.0000000000000000e+00  0.0000000000000000e+00 0.0000000000000000e+00 0.0000000000000000e+00  0.0000000000000000e+00 0.0000000000000000e+00 0.0000000000000000e+00  0.0000000000000000e+00 0.0000000000000