<?xml version="1.0"?>
<VTKFile type="UnstructuredGrid"  version="0.1"  >
<UnstructuredGrid>
<Piece  NumberOfPoints="289" NumberOfCells="512">
<Points>
<DataArray  type="Float64"  NumberOfComponents="3"  format="ascii">0 0 0  0.0625 0 0  0.125 0 0  0.1875 0 0  0.25 0 0  0.3125 0 0  0.375 0 0  0.4375 0 0  0.5 0 0  0.5625 0 0  0.625 0 0  0.6875 0 0  0.75 0 0  0.8125 0 0  0.875 0 0  0.9375 0 0  1 0 0  0 0.0625 0  0.06251735080960918 0.06248955628564382 0  0.1250358098849105 0.06247892682984184 0  0.1875565801656349 0.06246794186073911 0  0.2500810700542563 0.0624564692067089 0  0.3126110225296811 0.06244443816977502 0  0.3751486811037522 0.06243186858450894 0  0.4376970171635348 0.06241890455866497 0  0.5002600643416787 0.06240584918846229 0  0.5628434571164961 0.06239319063041774 0  0.6254554033482955 0.06238159935845535 0  0.6881086793574365 0.06237185717778387 0  0.7508252650050754 0.06236463854670159 0  0.813648370037362 0.06235995716831506 0  0.8766767635151484 0.06235571291983727 0  0.9401715315541356 0.06234323906470512 0  1.004919436718124 0.06229165653043266 0  0 0.125 0  0.06253357994341452 0.1249792913059985 0  0.1250692860095123 0.1249581925195559 0  0.1876094270436913 0.1249363434513673 0  0.2501567090595586 0.1249134551078644 0  0.3127144847266496 0.1248893564209995 0  0.3752870719882932 0.1248640531096786 0  0.4378801822936655 0.1248377992976831 0  0.5005015253239009 0.1248111772326173 0  0.5631617146055964 0.1247851704992018 0  0.6258757263137056 0.1247611989721898 0  0.6886654457499884 0.1247410575972065 0  0.7515644243268367 0.1247266716124687 0  0.8146269963890529 0.1247195935158851 0  0.8779446092740865 0.1247204591128751 0  0.9416658744401676 0.1247303218711382 0  1.005965359289859 0.1247639235961105 0  0 0.1875 0  0.06254768363176759 0.1874694112959244 0  0.1250983293938383 0.1874381939045175 0  0.1876551541598008 0.1874057585967734 0  0.2502219298374684 0.1873716120475399 0  0.3128033317620442 0.1873354233728572 0  0.375405380079379 0.1872971124613424 0  0.4380360192473873 0.1872569646761138 0  0.5007058959798305 0.1872157711131703 0  0.5634294194530489 0.1871749820972664 0  0.6262262193557625 0.1871368394123359 0  0.6891231366248195 0.18710441294222 0  0.7521567742429337 0.1870813980402806 0  0.8153759472011003 0.1870713991297785 0  0.8788406153447854 0.1870760927017996 0  0.9426052286021447 0.1870904083210619 0  1.00665484414515 0.1870870507958844 0  0 0.25 0  0.06255884315782721 0.2499601565125831 0  0.1251212272731229 0.2499194005154818 0  0.1876909961925793 0.2498768613768171 0  0.2502726563810006 0.2498317741153225 0  0.3128717948120913 0.2497835591522373 0  0.3754956081077995 0.2497319359025634 0  0.4381535890321621 0.2496770820962927 0  0.5008584176354547 0.2496198481765235 0  0.5636270907176756 0.2495620276145034 0  0.6264822672292791 0.2495066633760185 0  0.6894536401401054 0.2494583276683618 0  0.7525787028499694 0.2494232298004465 0  0.8159012023236729 0.2494088613714329 0  0.8794632498982753 0.2494226614569659 0  0.9432831740739441 0.2494690043076248 0  1.00730892048411 0.2495448933584266 0  0 0.3125 0  0.06256649475033045 0.3124518119381243 0  0.1251368009722733 0.3124023789064537 0  0.1877150511650761 0.3123504901525425 0  0.250306084624571 0.3122950284855376 0  0.3129158999001057 0.3122350515329047 0  0.3755522356615427 0.3121699191606307 0  0.4382253330795594 0.3120994890040099 0  0.5009489308491517 0.3120244059014738 0  0.5637415182847073 0.3119465117003152 0  0.6266277872951403 0.3118693929666791 0  0.6896400109804124 0.3117990529111578 0  0.7528186149494761 0.3117446183376194 0  0.8162103443484013 0.3117188422921719 0  0.8798611601483606 0.3117379208295962 0  0.943800139420359 0.3118198820872641 0  1.008013397047063 0.3119808093663514 0  0 0.375 0  0.06257037514421523 0.3749447103832578 0  0.1251445035015622 0.3748878019743465 0  0.1877264429234073 0.3748276699591261 0  0.2503209280704347 0.3747627628475861 0  0.3129338158890856 0.374691647574552 0  0.3755726756442682 0.3746131293754761 0  0.4382475938896754 0.3745264589460316 0  0.5009722769139732 0.3744316727814881 0  0.5637655307504635 0.3743301290715181 0  0.6266531527686173 0.3742253167804738 0  0.6896701236692965 0.3741240168143571 0  0.7528626589720723 0.3740378513001147 0  0.8162890885303813 0.3739851104356891 0  0.880017782115642 0.3739924033688988 0  0.9441201184335797 0.3740950496694164 0  1.008658559493017 0.374334216206286 0  0 0.4375 0  0.06257053792191979 0.4374392249421387 0  0.1251444571100168 0.4373764365098861 0  0.1877253901917718 0.4373096014270488 0  0.2503175349956081 0.4372366678992756 0  0.312926042671718 0.4371555917964795 0  0.3755575579461353 0.4370644171838661 0  0.4382210049389772 0.4369614507783862 0  0.5009287540435882 0.4368455939911834 0  0.5636983594034444 0.4367169332485399 0  0.6265551110087026 0.436577741745285 0  0.6895356652799355 0.4364341088504772 0  0.7526929258363244 0.4362984585835686 0  0.8161020158947225 0.4361931585064542 0  0.8798665125825937 0.4361550544662616 0  0.9441233150737417 0.4362397651703344 0  1.009044720373097 0.4365227026902739 0  0 0.5 0  0.06256733711236886 0.4999357482451159 0  0.1251374230615033 0.4998691028357055 0  0.1877131693434969 0.4997976042059616 0  0.2502978594132229 0.4997186730171285 0  0.3128954211289515 0.4996295729079743 0  0.3755108362959578 0.4995274129488541 0  0.4381507964221114 0.499409227721042 0  0.5008247923012793 0.4992722046804345 0  0.5635469566746133 0.4991141845316949 0  0.6263391867231674 0.4989346561116331 0  0.6892363674607621 0.4987366214004684 0  0.7522948512578967 0.4985299248260603 0  0.8156055161013084 0.4983368593448034 0  0.8793122251317697 0.4982007882529426 0  0.943634676018678 0.4981973606891755 0  1.008892051620376 0.4984443021750502 0  0 0.5625 0  0.06256137622033833 0.5624346574694481 0  0.1251246981873707 0.5623666032647585 0  0.1876919578487876 0.5622930066220769 0  0.2502652581251064 0.5622107965627537 0  0.3128469112729998 0.5621165410326316 0  0.3754396217798505 0.562006334279749 0  0.4380468526638105 0.5618757152764507 0  0.5006735780774401 0.5617196703249919 0  0.5633278282555991 0.5615328347127614 0  0.6260238145955912 0.5613101324301343 0  0.6887880986577799 0.5610483377817244 0  0.7516713473986251 0.5607495048927177 0  0.8147695992865386 0.5604279972820848 0  0.8782597867614208 0.5601238470485912 0  0.942452003715716 0.559925179275227 0  1.00785242482554 0.5599974272743129 0  0 0.625 0  0.06255342403315173 0.6249362667339805 0  0.1251079384663112 0.624869621712132 0  0.1876645514024073 0.6247969822546479 0  0.2502240866808069 0.6247149047950291 0  0.3127870659026724 0.6246193724774971 0  0.3753535783265462 0.6245055454837276 0  0.4379231846956247 0.6243674671439504 0  0.5004949960227205 0.6241977335625558 0  0.5630682897358181 0.6239871744700847 0  0.6256445205813475 0.6237246957706095 0  0.6882326415126353 0.623397691619365 0  0.750861772723065 0.6229940673250918 0  0.8136090760573256 0.6225084212968138 0  0.8766560608910009 0.6219581870836001 0  0.9403890757595712 0.6214206259685149 0  1.005546006461198 0.6211003700315556 0  0 0.6875 0  0.06254430399220784 0.6874407720473965 0  0.1250889214043635 0.6873786046877398 0  0.1876339661355921 0.6873103480487293 0  0.250179091874791 0.6872323959335626 0  0.3127231531645669 0.6871403935096639 0  0.3752637255079493 0.6870288579838582 0  0.4377964323394865 0.6868906666144269 0  0.5003140581193172 0.6867163518933771 0  0.5628055570416391 0.6864931297033344 0  0.6252554740680537 0.6862035907371917 0  0.6876454297125338 0.6858240764315304 0  0.7499622640848147 0.6853231820308712 0  0.8122245525989742 0.6846624334103991 0  0.8745544828008965 0.6838068047806946 0  0.9373454423970807 0.6827701816260947 0  1.001568182877492 0.6817508999689372 0  0 0.75 0  0.06253477127816336 0.7499481976068446 0  0.1250692760882608 0.7498936424226483 0  0.1876029692435133 0.7498333549071771 0  0.2501346533891053 0.7497638553662589 0  0.3126619701374642 0.7496808260712792 0  0.3751806247714585 0.7495786477038813 0  0.4376831721122326 0.7494497299838229 0  0.5001571086249841 0.7492835100790753 0  0.5625819238414106 0.7490649114772502 0  0.6249247599961929 0.7487719122156158 0  0.6871347948357647 0.7483716172104843 0  0.7491387208048657 0.7478138287182087 0  0.8108480240958726 0.7470208509467414 0  0.8722161823086968 0.7458748565801124 0  0.933463286268383 0.7442280105047049 0  0.995681215797637 0.7421287125844587 0  0 0.8125 0  0.06252539910249279 0.8124583547197226 0  0.1250502282253218 0.8124143751955548 0  0.1875736198543869 0.8123655151902988 0  0.2500940032119919 0.8123087555209044 0  0.3126085342005225 0.8122402734872357 0  0.3751121881415505 0.8121549741890729 0  0.437596252280356 0.8120457888202277 0  0.5000457551327435 0.8119025823935484 0  0.5624350022266087 0.8117103958929598 0  0.6247197330366333 0.8114465134221296 0  0.6868233539174082 0.8110753311252032 0  0.7486135134108783 0.8105387485971006 0  0.8098667691347016 0.8097364332646552 0  0.8702392424142197 0.8084808673674023 0  0.9293869548138801 0.8063867069418 0  0.9882078685005282 0.8026055099514288 0  0 0.875 0  0.06251649968281066 0.874970824632078 0  0.1250324191276914 0.8749399507689021 0  0.1875469309570229 0.8749055154528657 0  0.2500586195945813 0.874865286191512 0  0.3125649927064387 0.8748163973159002 0  0.375061682307772 0.8747549694302984 0  0.4375410689517452 0.8746755300994351 0  0.4999898206714926 0.8745701006929755 0  0.5623843320039722 0.8744267204988103 0  0.6246819526952653 0.874227010419532 0  0.686803442390269 0.8739420499191694 0  0.7485964280548891 0.8735250595102022 0  0.8097563598030816 0.8728968451345267 0  0.8696509529853759 0.8719093680271415 0  0.9269350544661541 0.8702236642147015 0  0.978830070519185 0.8667892812656627 0  0 0.9375 0  0.06250810241010682 0.9374849733046839 0  0.1250158529536935 0.9374690520339487 0  0.1875227614874482 0.9374512518379512 0  0.2500280075377581 0.9374303858729962 0  0.3125301628674471 0.9374049188123874 0  0.3750267320411293 0.9373727544320769 0  0.43751334765009
[...]
<PointData  Vectors="f_54"> 
<DataArray  type="Float64"  Name="f_54"  NumberOfComponents="3" format="ascii">0.0000000000000000e+00 0.0000000000000000e+00 0.0000000000000000e+00  0.0000000000000000e+00 0.0000000000000000e+00 0.0000000000000000e+00  0.0000000000000000e+00 0.0000000000000000e+00 0.0000000000000000e+00  0.0000000000000000e+00 0.0000000000000000e+00 0.0000000000000000e+00  0.0000000000000000e+00 0.0000000000000000e+00 0.0000000000000000e+00  0.0000000000000000e+00 0.0000000000000000e+00 0.0000000000000000e+00  0.0000000000000000e+00 0.0000000000000000e+00 0.0000000000000000e+00  0.0000000000000000e+00 0.0000000000000000e+00 0.0000000000000000e+00  0.0000000000000000e+00 0.0000000000000000e+00 0.0000000000000000e+00  0.0000000000000000e+00 0.0000000000000000e+00 0.0000000000000000e+00  0.0000000000000000e+00 0.0000000000000000e+00 0.0000000000000000e+00  0.0000000000000000e+00 0.0000000000000000e+00 0.0000000000000000e+00  0.0000000000000000e+00 0.0000000000000000e+00 0.0000000000000000e+00  0.0000000000000000e+00 0.0000000000000000e+00 0.0000000000000000e+00  0.0000000000000000e+00 0.0000000000000000e+00 0.0000000000000000e+00  0.0000000000000000e+00 0.0000000000000000e+00 0.0000000000000000e+00  0.0000000000000000e+00 0.0000000000000000e+00 0.0000000000000000e+00  0.0000000000000000e+00 0.0000000000000000e+00 0.0000000000000000e+00  -4.6497943726773098e-06 -1.5346824110124718e-07 0.0000000000000000e+00  -9.4286683126437479e-06 -3.0791245043456025e-07 0.0000000000000000e+00  -1.4465986740518449e-05 -4.6380429861070640e-07 0.0000000000000000e+00  -1.9888053778615631e-05 -6.2044303817436001e-07 0.0000000000000000e+00  -2.5815026835493842e-05 -7.7522012957056496e-07 0.0000000000000000e+00  -3.2355823905424901e-05 -9.2272162810714360e-07 0.0000000000000000e+00  -3.9600355284375603e-05 -1.0536565018797668e-06 0.0000000000000000e+00  -4.7608627120142852e-05 -1.1536531149595895e-06 0.0000000000000000e+00  -5.6397017757093385e-05 -1.2020366167485109e-06 0.0000000000000000e+00  -6.5924275766905365e-05 -1.1707155613755224e-06 0.0000000000000000e+00  -7.6086444585110198e-05 -1.0229502593157479e-06 0.0000000000000000e+00  -8.6750636483674611e-05 -7.0982291129292163e-07 0.0000000000000000e+00  -9.7926754021718487e-05 -1.5396269046631205e-07 0.0000000000000000e+00  -1.1042543523640828e-04 8.2349548638837018e-07 0.0000000000000000e+00  -1.2833333519342128e-04 2.8189383068457146e-06 0.0000000000000000e+00  -1.6919183441502735e-04 8.2852334104932999e-06 0.0000000000000000e+00  0.0000000000000000e+00 0.0000000000000000e+00 0.0000000000000000e+00  -9.1715510564449082e-06 -3.0599200616962494e-07 0.0000000000000000e+00  -1.8602952220229894e-05 -6.1449861396882893e-07 0.0000000000000000e+00  -2.8555164257929429e-05 -9.2708430770246128e-07 0.0000000000000000e+00  -3.9284464942649212e-05 -1.2430847115031070e-06 0.0000000000000000e+00  -5.1037048052660368e-05 -1.5581738215772805e-06 0.0000000000000000e+00  -6.4039594520881975e-05 -1.8625708947201943e-06 0.0000000000000000e+00  -7.8484279150245226e-05 -2.1388359729950615e-06 0.0000000000000000e+00  -9.4506745578104104e-05 -2.3593154273824834e-06 0.0000000000000000e+00  -1.1215610246628923e-04 -2.4835082098941670e-06 0.0000000000000000e+00  -1.3135752562653624e-04 -2.4559692288192020e-06 0.0000000000000000e+00  -1.5187160923317371e-04 -2.2058878638693616e-06 0.0000000000000000e+00  -1.7326140033782815e-04 -1.6503535915252005e-06 0.0000000000000000e+00  -1.9488517484017576e-04 -7.0599221717034005e-07 0.0000000000000000e+00  -2.1590398154495497e-04 6.7225466684061052e-07 0.0000000000000000e+00  -2.3498400986103786e-04 2.3242801847658648e-06 0.0000000000000000e+00  -2.4731679973370073e-04 3.0144244898178731e-06 0.0000000000000000e+00  0.0000000000000000e+00 0.0000000000000000e+00 0.0000000000000000e+00  -1.3432969517698528e-05 -4.5597545163111551e-07 0.0000000000000000e+00  -2.7258828194450756e-05 -9.1706123338642051e-07 0.0000000000000000e+00  -4.1873395472670715e-05 -1.3870953583347264e-06 0.0000000000000000e+00  -5.7668895784065893e-05 -1.8668824734610266e-06 0.0000000000000000e+00  -7.5027757829995180e-05 -2.3521623156037523e-06 0.0000000000000000e+00  -9.4310468602057694e-05 -2.8309611159255632e-06 0.0000000000000000e+00  -1.1583489695822436e-04 -3.2801714960277631e-06 0.0000000000000000e+00  -1.3984410521304653e-04 -3.6613368909846273e-06 0.0000000000000000e+00  -1.6645931714691503e-04 -3.9159228008232336e-06 0.0000000000000000e+00  -1.9561432807774684e-04 -3.9609986280837948e-06 0.0000000000000000e+00  -2.2696643924039476e-04 -3.6875168843073270e-06 0.0000000000000000e+00  -2.5977357563822142e-04 -2.9658151691321832e-06 0.0000000000000000e+00  -2.9270570676911202e-04 -1.6677164957351614e-06 0.0000000000000000e+00  -3.2348482263340245e-04 2.7659314149371319e-07 0.0000000000000000e+00  -3.4803365284705667e-04 2.7606043747741685e-06 0.0000000000000000e+00  -3.5839320119088755e-04 5.3698316609125110e-06 0.0000000000000000e+00  0.0000000000000000e+00 0.0000000000000000e+00 0.0000000000000000e+00  -1.7299764497707075e-05 -6.0076873989433797e-07 0.0000000000000000e+00  -3.5126970877560640e-05 -1.2106652028596259e-06 0.0000000000000000e+00  -5.4015197543363940e-05 -1.8374179767193620e-06 0.0000000000000000e+00  -7.4499366770192335e-05 -2.4853295511292054e-06 0.0000000000000000e+00  -9.7111024380929281e-05 -3.1528391978676403e-06 0.0000000000000000e+00  -1.2236613375404099e-04 -3.8291602597676114e-06 0.0000000000000000e+00  -1.5074174899287794e-04 -4.4896428040063536e-06 0.0000000000000000e+00  -1.8263695627754114e-04 -5.0895672541384970e-06 0.0000000000000000e+00  -2.1831222281314916e-04 -5.5563157340233901e-06 0.0000000000000000e+00  -2.5779953184038235e-04 -5.7805266015003095e-06 0.0000000000000000e+00  -3.0077254517882297e-04 -5.6083429819672668e-06 0.0000000000000000e+00  -3.4635907378103469e-04 -4.8399446000096325e-06 0.0000000000000000e+00  -3.9286193331230411e-04 -3.2452309120473599e-06 0.0000000000000000e+00  -4.3732173532262311e-04 -6.1655452153390471e-07 0.0000000000000000e+00  -4.7481901742059580e-04 3.1111614753788089e-06 0.0000000000000000e+00  -4.9751153796946158e-04 7.6371955640643304e-06 0.0000000000000000e+00  0.0000000000000000e+00 0.0000000000000000e+00 0.0000000000000000e+00  -2.0636612995491756e-05 -7.3631094595290618e-07 0.0000000000000000e+00  -4.1934108518307251e-05 -1.4873469147441623e-06 0.0000000000000000e+00  -6.4564366872704349e-05 -2.2665738668678453e-06 0.0000000000000000e+00  -8.9210248670219475e-05 -3.0842231321768919e-06 0.0000000000000000e+00  -1.1656531010218112e-04 -3.9447747788575579e-06 0.0000000000000000e+00  -1.4732522956366630e-04 -4.8432136243463432e-06 0.0000000000000000e+00  -1.8216646706604796e-04 -5.7594372716476232e-06 0.0000000000000000e+00  -2.2170611190009483e-04 -6.6500528686513893e-06 0.0000000000000000e+00  -2.6643485046940569e-04 -7.4367394090829538e-06 0.0000000000000000e+00  -3.1661247463712292e-04 -7.9906043520662463e-06 0.0000000000000000e+00  -3.7211228248821692e-04 -8.1130322212963268e-06 0.0000000000000000e+00  -4.3219704051677466e-04 -7.5163911477495326e-06 0.0000000000000000e+00  -4.9520564673183266e-04 -5.8142431641890345e-06 0.0000000000000000e+00  -5.5813204916968203e-04 -2.5423035776356550e-06 0.0000000000000000e+00  -6.1611146691586342e-04 2.7512623331166647e-06 0.0000000000000000e+00  -6.6196717934543386e-04 1.0289415810817763e-05 0.0000000000000000e+00  0.0000000000000000e+00 0.0000000000000000e+00 0.0000000000000000e+00  -2.3309940502855612e-05 -8.5698085521142209e-07 0.0000000000000000e+00  -4.7408213853251558e-05 -1.7357385582596051e-06 0.0000000000000000e+00  -7.3100732981211779e-05 -2.6572518117412260e-06 0.0000000000000000e+00  -1.0121906459319565e-04 -3.6401873019991244e-06 0.0000000000000000e+00  -1.3262797345792653e-04 -4.6987801239250504e-06 0.0000000000000000e+00  -1.6822499873871060e-04 -5.8393083552291166e-06 0.0000000000000000e+00  -2.0892714118283116e-04 -7.0542686098033882e-06 0.0000000000000000e+00  -2.5563756521028116e-04 -8.3129207706727180e-06 0.0000000000000000e+00  -3.0918236358276282e-04 -9.5462711815345574e-06 0.0000000000000000e+00  -3.7020408028341350e-04 -1.0623899480997736e-05 0.0000000000000000e+00  -4.3899553886926970e-04 -1.1319708220661384e-05 0.0000000000000000e+00  -5.1525638826066837e-04 -1.1264823252766406e-05 0.0000000000000000e+00  -5.9775968956507464e-04 -9.8910513862334496e-06 0.0000000000000000e+00  -6.8393490589406828e-04 -6.3819744284932265e-06 0.0000000000000000e+00  -7.6942059904905801e-04 3.2434684899950557e-07 0.0000000000000000e+00  -8.4772895173707149e-04 1.1399794087037034e-05 0.0000000000000000e+00  0.0000000000000000e+00 0.0000000000000000e+00 0.0000000000000000e+00  -2.5192893475314044e-05 -9.5573113138571823e-07 0.0000000000000000e+00  -5.1288324121445863e-05 -1.9412765975002641e-06 0.0000000000000000e+00  -7.9214494124179904e-05 -2.9864445777845030e-06 0.0000000000000000e+00  -1.0994457374942541e-04 -4.1204425905483802e-06 0.0000000000000000e+00  -1.4451551209494369e-04 -5.3707473324100167e-06 0.0000000000000000e+00  -1.8404069769388547e-04 -6.7606639578920264e-06 0.0000000000000000e+00  -2.2971172787634907e-04 -8.3045458503903805e-06 0.0000000000000000e+00  -2.8278175074711927e-04 -9.9989093262090268e-06 0.0000000000000000e+00  -3.4451891458904391e-04 -1.1806426665729797e-05 0.0000000000000000e+00  -4.1611351856581325e-04 -1.3627776255980947e-05 0.0000000000000000e+00  -4.9851749122882137e-04 -1.5253459240431258e-05 0.0000000000000000e+00  -5.9219276970002893e-04 -1.6284575113624670e-05 0.0000000000000000e+00  -6.9675246559178531e-04 -1.6011069499883516e-05 0.0000000000000000e+00  -8.1050582684205272e-04 -1.3246050701701736e-05 0.0000000000000000e+00  -9.2997282185788930e-04 -6.1499799746508542e-06 0.0000000000000000e+00  -1.0494969026897847e-03 7.8496540475652550e-06 0.0000000000000000e+00  0.0000000000000000e+00 0.0000000000000000e+00 0.0000000000000000e+00  -2.6172587589449840e-05 -1.0245630081742065e-06 0.0000000000000000e+00  -5.3339275520591739e-05 -2.0871366657095313e-06 0.0000000000000000e+00  -8.2528842207394909e-05 -3.2267878057484356e-06 0.0000000000000000e+00  -1.1483764996948568e-04 -4.4843778932585170e-06 0.0000000000000000e+00  -1.5146264464661682e-04 -5.9030192212865591e-06 0.0000000000000000e+00  -1.9373182187915530e-04 -7.5277135091879385e-06 0.0000000000000000e+00  -2.4312851606428211e-04 -9.4033081430024655e-06 0.0000000000000000e+00  -3.0130259189295607e-04 -1.1569044165956142e-05 0.0000000000000000e+00  -3.7005646656849197e-04 -1.4046268454989347e-05 0.0000000000000000e+00  -4.5128643092942991e-04 -1.6812588581033766e-05 0.0000000000000000e+00  -5.4685038604751078e-04 -1.9749641161642547e-05 0.0000000000000000e+00  -6.5832491778068268e-04 -2.2541280243562422e-05 0.0000000000000000e+00  -7.8661678423330619e-04 -2.4484569854766647e-05 0.0000000000000000e+00  -9.3142584890184329e-04 -2.4165703726351779e-05 0.0000000000000000e+00  -1.0906421210288297e-03 -1.8975999537049432e-05 0.0000000000000000e+00  -1.2598758131998772e-03 -4.5497477661913512e-06 0.0000000000000000e+00  0.0000000000000000e+00 0.0000000000000000e+00 0.0000000000000000e+00  -2.6159366928295631e-05 -1.0553529835476603e-06 0.0000000000000000e+00  -5.3370914843937658e-05 -2.1559472995327894e-06 0.0000000000000000e+00  -8.2730471433865919e-05 -3.3492667636991017e-06 0.0000000000000000e+00  -1.1542494844436558e-04 -4.6873527570540914e-06 0.0000000000000000e+00  -1.5278121229999215e-04 -6.2292638882849250e-06 0.0000000000000000e+00  -1.9631793876455827e-04 -8.0436179965493077e-06 0.0000000000000000e+00  -2.4779916109331587e-04 -1.0210918964257637e-05 0.0000000000000000e+00  -3.0928497027736296e-04 -1.2824759364788223e-05 0.0000000000000000e+00  -3.8316884217736195e-04 -1.5989513628011212e-05 0.0000000000000000e+00  -4.7218076139822680e-04 -1.9808621725971556e-05 0.0000000000000000e+00  -5.7931916773736926e-04 -2.4349391198627234e-05 0.0000000000000000e+00  -7.0765348022929430e-04 -2.9552063259761047e-05 0.0000000000000000e+00  -8.5992205082050834e-04 -3.5013803147990969e-05 0.0000000000000000e+00  -1.0378718349676806e-03 -3.9515913136092670e-05 0.0000000000000000e+00  -1.2414266139657171e-03 -4.0105656344869550e-05 0.0000000000000000e+00  -1.4681333805236633e-03 -3.0638533940721112e-05 0.0000000000000000e+00  0.0000000000000000e+00 0.0000000000000000e+00 0.0000000000000000e+00  -2.5097374294222400e-05 -1.0409689011774507e-06 0.0000000000000000e+00  -5.1260439136608459e-05 -2.1321740314789489e-06 0.0000000000000000e+00  -7.9606103452500279e-05 -3.3271850160063247e-06 0.0000000000000000e+00  -1.1136327046787192e-04 -4.6867475069437409e-06 0.0000000000000000e+00  -1.4793717224065721e-04 -6.2832755331382956e-06 0.0000000000000000e+00  -1.9098379062713910e-04 -8.2065511582889225e-06 0.0000000000000000e+00  -2.4249691559460188e-04 -1.0571228130238845e-05 0.0000000000000000e+00  -3.0490822629705136e-04 -1.3526827338748487e-05 0.0000000000000000e+00  -3.8119542815787929e-04 -1.7270705720954303e-05 0.0000000000000000e+00  -4.7498179681328232e-04 -2.2063041483804726e-05 0.0000000000000000e+00  -5.9058740936216998e-04 -2.8237233683594116e-05 0.0000000000000000e+00  -7.3295171915245300e-04 -3.6180494697029742e-05 0.0000000000000000e+00  -9.0728854845924375e-04 -4.6204202012830922e-05 0.0000000000000000e+00  -1.1182920507886382e-03 -5.8078639432210687e-05 0.0000000000000000e+00  -1.3688380452472474e-03 -6.9712444794124126e-05 0.0000000000000000e+00  -1.6587025244585419e-03 -7.4220091574602005e-05 0.0000000000000000e+00  0.0000000000000000e+00 0.0000000000000000e+00 0.0000000000000000e+00  -2.2975259001232844e-05 -9.7652323693496375e-07 0.0000000000000000e+00  -4.6975484262731779e-05 -2.0048576655763993e-06 0.0000000000000000e+00  -7.3081422337411192e-05 -3.1408987501665633e-06 0.0000000000000000e+00  -1.0249989256016678e-04 -4.4495917512108426e-06 0.0000000000000000e+00  -1.3664025986179890e-04 -6.0109640362757271e-06 0.0000000000000000e+00  -1.7720869080071377e-04 -7.9283446696817566e-06 0.0000000000000000e+00  -2.2632789610477710e-04 -1.0340256989944535e-05 0.0000000000000000e+00  -2.8669056266326362e-04 -1.3438473857700310e-05 0.0000000000000000e+00  -3.6175281466869976e-04 -1.7496559671650892e-05 0.0000000000000000e+00  -4.5596559274525497e-04 -2.2916337462831834e-05 0.0000000000000000e+00  -5.7501771694682497e-04 -3.0303845811691893e-05 0.0000000000000000e+00  -7.2600702854869279e-04 -4.0586420575305452e-05 0.0000000000000000e+00  -9.1733784107695770e-04 -5.5151695354138772e-05 0.0000000000000000e+00  -1.1579508756525355e-03 -7.5815320616316487e-05 0.0000000000000000e+00  -1.4554259143430032e-03 -1.0372559710955248e-04 0.0000000000000000e+00  -1.8138611032623340e-03 -1.3500131253644135e-04 0.0000000000000000e+00  0.0000000000000000e+00 0.0000000000000000e+00 0.0000000000000000e+00  -1.9835412150979079e-05 -8.6053460140030227e-07 0.0000000000000000e+00  -4.0594580102346880e-05 -1.7701999492675046e-06 0.0000000000000000e+00  -6.3256978690680681e-05 -2.7824248279219981e-06 0.0000000000000000e+00  -8.8931058066161044e-05 -3.9603130025597587e-06 0.0000000000000000e+00  -1.1893609647915134e-04 -5.3832499929399682e-06 0.0000000000000000e+00  -1.5490830850996209e-04 -7.1561200465974895e-06 0.0000000000000000e+00  -1.9894440200996928e-04 -9.4230089609149681e-06 0.0000000000000000e+00  -2.5380049818855778e-04 -1.2388773636050408e-05 0.0000000000000000e+00  -3.2316964527731031e-04 -1.6355136348365668e-05 0.0000000000000000e+00  -4.1206392723589321e-04 -2.1785402569605708e-05 0.0000000000000000e+00  -5.2731747988306777e-04 -2.9429029668366758e-05 0.0000000000000000e+00  -6.7817731602973382e-04 -4.0575343907879690e-05 0.0000000000000000e+00  -8.7679138830925121e-04 -5.7579431066320807e-05 0.0000000000000000e+00  -1.1379822663958377e-03 -8.4876557755790547e-05 0.0000000000000000e+00  -1.4767649824459356e-03 -1.3017791686429026e-04 0.0000000000000000e+00  -1.9028879864074963e-03 -1.9749411087548237e-04 0.0000000000000000e+00  0.0000000000000000e+00 0.0000000000000000e+00 0.0000000000000000e+00  -1.5779838961802708e-05 -6.9574039402450483e-07 0.0000000000000000e+00  -3.2320861334639364e-05 -1.4334060200747415e-06 0.0000000000000000e+00  -5.0434073964702200e-05 -2.2588150873726391e-06 0.0000000000000000e+00  -7.1047800334224457e-05 -3.2266159130769116e-06 0.0000000000000000e+00  -9.5284961483206601e-05 -4.4063022532711218e-06 0.0000000000000000e+00  -1.2456741906606507e-04 -5.8905161813193838e-06 0.0000000000000000e+00  -1.6076441381613016e-04 -7.8070955189957705e-06 0.0000000000000000e+00  -2.0641135027257005e-04 -1.0337297350522744e-05 0.0000000000000000e+00  -2.6503981251222559e-04 -1.3744846844359850e-05 0.0000000000000000e+00  -3.4168137613304592e-04 -1.8426375277642277e-05 0.0000000000000000e+00  -4.4363492701767366e-04 -2.5011566775429081e-05 0.0000000000000000e+00  -5.8160324518905632e-04 -3.4597847057024431e-05 0.0000000000000000e+00  -7.7123686729900737e-04 -4.9387555607823821e-05 0.0000000000000000e+00  -1.0346971690413298e-03 -7.4600765055836686e-05 0.0000000000000000e+00  -1.3999460792103913e-03 -1.2481125987095208e-04 0.0000000000000000e+00  -1.8842953869243051e-03 -2.5166800566533141e-04 0.0000000000000000e+00  0.0000000000000000e+00 0.0000000000000000e+00 0.0000000000000000e+00  -1.0970805665470305e-05 -4.8935046304005630e-07 0.0000000000000000e+00  -2.2484819800013600e-05 -1.0092899933012039e-06 0.0000000000000000e+00  -3.5123006986606351e-05 -1.5933348676374480e-06 0.0000000000000000e+00  -4.9556278914761266e-05 -2.2816551991690457e-06 0.0000000000000000e+00  -6.6606477963196832e-05 -3.1255154525789598e-06 0.0000000000000000e+00  -8.7331324021092761e-05 -4.1931669373999594e-06 0.0000000000000000e+00  -1.1315000478218338e-04 -5.5777150418517219e-06 0.0000000000000000e+00  -1.4603728017759500e-04 -7.4071262818956176e-06 0.0000000000000000e+00  -1.8883429906580950e-04 -9.8551310663846857e-06 0.0000000000000000e+00  -2.4576139143911988e-04 -1.3147683199179919e-05 0.0000000000000000e+00  -3.2328588708666837e-04 -1.7549992259772006e-05 0.0000000000000000e+00  -4.3162266667253363e-04 -2.3303278459709718e-05 0.0000000000000000e+00  -5.8737978032579060e-04 -3.0484038758479555e-05 0.0000000000000000e+00  -8.1831382025428505e-04 -3.8931214776011046e-05 0.0000000000000000e+00  -1.1717947151819526e-03 -4.9196504996727338e-05 0.0000000000000000e+00  -1.7273691074941634e-03 -6.7650487986590119e-05 0.0000000000000000e+00  0.0000000000000000e+00 0.0000000000000000e+00 0.0000000000000000e+00  -5.6248818918519006e-06 -2.5264932205475661e-07 0.0000000000000000e+00  -1.1532789903108155e-05 -5.2142846668696280e-07 0.0000000000000000e+00  -1.8027170673456872e-05 -8.2403024605494808e-07 0.0000000000000000e+00  -2.5460459119005967e-05 -1.1816984721161035e-06 0.0000000000000000e+00  -3.4267931636611358e-05 -1.6215399035544856e-06 0.0000000000000000e+00  -4.5015843281283515e-05 -2.1794413040712335e-06 0.0000000000000000e+00  -5.8474429967297887e-05 -2.9034921203968362e-06 0.0000000000000000e+00  -7.5734268619013253e-05 -3.8567962918206278e-06 0.0000000000000000e+00  -9.8399520696320931e-05 -5.1151007418472485e-06 0.0000000000000000e+00  -1.2891963310201666e-04 -6.7433811722715405e-06 0.0000000000000000e+00  -1.7116882286499297e-04 -8.6990301874761735e-06 0.0000000000000000e+00  -2.3143585034616769e-04 -1.0492113982333484e-05 0.0000000000000000e+00  -3.1987994213869949e-04 -1.0070070313278159e-05 0.0000000000000000e+00  -4.5131766069131580e-04 -4.1718954137349121e-07 0.0000000000000000e+00  -6.3828683847460383e-04 3.8948091809734722e-05 0.0000000000000000e+00  -8.5400750451081100e-04 1.5003995681587239e-04 0.0000000000000000e+00  0.0000000000000000e+00 0.0000000000000000e+00 0.0000000000000000e+00  0.0000000000000000e+00 0.0000000000000000e+00 0.0000000000000000e+00  0.0000000000000000e+00 0.0000000000000000e+00 0.0000000000000000e+00  0.0000000000000000e+00 0.0000000000000000e+00 0.0000000000000000e+00  0.0000000000000000e+00 0.0000000000000000e+00 0.0000000000000000e+00  0.0000000000000000e+00 0.000000000000000