<?xml version="1.0"?>
<VTKFile type="UnstructuredGrid"  version="0.1"  >
<UnstructuredGrid>
<Piece  NumberOfPoints="289" NumberOfCells="512">
<Points>
<DataArray  type="Float64"  NumberOfComponents="3"  format="ascii">0 0 0  0.0625 0 0  0.125 0 0  0.1875 0 0  0.25 0 0  0.3125 0 0  0.375 0 0  0.4375 0 0  0.5 0 0  0.5625 0 0  0.625 0 0  0.6875 0 0  0.75 0 0  0.8125 0 0  0.875 0 0  0.9375 0 0  1 0 0  0 0.0625 0  0.06260532111772668 0.06247843522401892 0  0.1252140639104121 0.06245641716333438 0  0.1878297554386784 0.06243351302237193 0  0.2504560349223259 0.06240935006684038 0  0.3130967046112336 0.06238365648924467 0  0.3757557753805006 0.06235631471665058 0  0.4384375168194666 0.06232742868737367 0  0.5011465441907882 0.06229740206424463 0  0.5638880318213342 0.06226701487262243 0  0.6266682899949471 0.06223746714069939 0  0.689496339000949 0.06221031994291881 0  0.7523882384214973 0.06218717996705792 0  0.8153792959541614 0.06216875244251842 0  0.8785598529570978 0.06215217928343564 0  0.9421849648432928 0.06212301425400365 0  1.007027562956854 0.06202969660474616 0  0 0.125 0  0.06270730550009 0.1249573066446777 0  0.1254214353625431 0.1249136757766518 0  0.1881494316463466 0.1248682068154671 0  0.2508985856906606 0.1248201101550864 0  0.3136765538217496 0.1247687853966856 0  0.3764914616533245 0.1247139267832055 0  0.4393520085338526 0.1246556616579468 0  0.5022676122921874 0.1245947211261722 0  0.5652487009047603 0.1245326277336228 0  0.62830740619252 0.1244718572307155 0  0.6914592311262653 0.1244158839910152 0  0.7547268749630812 0.1243689557095687 0  0.8181482860350239 0.1243354303936478 0  0.8817907177308218 0.1243189378398047 0  0.945762002772359 0.1243243491173139 0  1.010147744309719 0.1243781578913805 0  0 0.1875 0  0.06280252857952118 0.1874371059063953 0  0.1256151976430823 0.187372735744652 0  0.1884484821424025 0.1873054586261353 0  0.251313273189518 0.187233986585649 0  0.3142210732971937 0.1871572818129989 0  0.3771841696820191 0.187074708858776 0  0.4402157859438969 0.1869862462730159 0  0.503330226236853 0.1868927673513798 0  0.5665430534540936 0.1867963864009849 0  0.6298713846520075 0.1867008371457359 0  0.6933344103621911 0.1866117897211812 0  0.7569540799960773 0.1865368958619401 0  0.8207549177581617 0.1864851085193517 0  0.8847582950118479 0.186464172465024 0  0.9489563047704346 0.1864727842071717 0  1.013233040017673 0.1864734137092409 0  0 0.25 0  0.06288767010540058 0.2499183777219661 0  0.1257886277867745 0.2498346727424533 0  0.1887166138744665 0.2497468431828217 0  0.2516859869654431 0.2496529922707812 0  0.3147120180412069 0.2495514893475726 0  0.3778111538344088 0.2494411550229819 0  0.4410012328390813 0.2493215378845911 0  0.504301629403582 0.249193312185137 0  0.5677332797710315 0.2490588222347281 0  0.6313184809163742 0.2489227813774919 0  0.6950801684667519 0.2487930850468326 0  0.7590398717236571 0.248681587130132 0  0.8232122831188965 0.2486044585469354 0  0.8875917631522098 0.2485813108821857 0  0.9521225097764201 0.2486317029279455 0  1.016645699112481 0.2487687657244822 0  0 0.3125 0  0.06295959106140356 0.3124017326458687 0  0.1259353480565175 0.3123007088858831 0  0.1889440080965303 0.3121941920559489 0  0.2520031651707646 0.312079552404456 0  0.3151316905566666 0.3119543782436797 0  0.3783501243321598 0.3118166675001612 0  0.4416810129552422 0.3116651421051148 0  0.5051491446850241 0.3114997410915581 0  0.5687815850959675 0.3113223629939224 0  0.6326073055226156 0.3111379384442993 0  0.6966559583832338 0.3109559055323818 0  0.760954864479775 0.3107921030667132 0  0.8255224126417062 0.3106709356085623 0  0.890355012736544 0.3106273334635957 0  0.9554050307252113 0.3107075571664853 0  1.020553689606152 0.3109676026935456 0  0 0.375 0  0.06301542689323178 0.3748878451363291 0  0.1260495113703651 0.3747722135988967 0  0.1891215948098948 0.374649607890333 0  0.2522521480675444 0.3745165510014077 0  0.3154633463134924 0.3743696558637226 0  0.3787796374955238 0.3742057819834698 0  0.4422282873255082 0.3740223342968343 0  0.5058398617136564 0.373817786529055 0  0.5696485631647275 0.3735925507465664 0  0.6336922468512587 0.3733503670554778 0  0.6980117630920321 0.3731004455483923 0  0.7626489548344944 0.3728606286258385 0  0.8276421920570425 0.3726617829588321 0  0.8930180630443783 0.3725533382512388 0  0.9587788991517531 0.3726092048585612 0  1.024890498255875 0.3729322375390006 0  0 0.4375 0  0.06305270039270762 0.4373774323624151 0  0.1261260291303294 0.4372506643983972 0  0.1892413988577543 0.4371154149252126 0  0.2524216430180611 0.4369672870647056 0  0.3156917668674299 0.4368017590861566 0  0.3790797364881356 0.4366142525548726 0  0.442617315573237 0.4364003368638513 0  0.5063409563423851 0.436156168523651 0  0.5702927450154582 0.4358793279487329 0  0.6345213889298467 0.4355703177516539 0  0.6990832007373496 0.4352351348078016 0  0.764042970919089 0.4348895133983591 0  0.829474536216033 0.4345655773755412 0  0.8954609042262159 0.4343214882890251 0  0.9620945698591146 0.4342537767361307 0  1.029481676777298 0.4345101839401198 0  0 0.5 0  0.0630694537601971 0.4998712108335745 0  0.1261608420973112 0.499737560182574 0  0.1892969633876316 0.4995940303479749 0  0.2525023203577157 0.4994353103910981 0  0.3158040517406919 0.4992556730386945 0  0.3792329616049014 0.4990488971007115 0  0.4428246960152779 0.4988082838435361 0  0.5066211444203788 0.4985268595998874 0  0.570672202243937 0.4981979366266153 0  0.6350381490823243 0.4978163468348165 0  0.6997931130053346 0.4973809099837485 0  0.7650304433221587 0.4968990945434285 0  0.8308712969608336 0.4963953533541857 0  0.897478270192212 0.4959249231649098 0  0.965076522982643 0.4955937224061094 0  1.033987278033226 0.4955797451954061 0  0 0.5625 0  0.06306439345538958 0.5623698310534171 0  0.1261512221101543 0.5622342859318978 0  0.1892838338704136 0.562087750542551 0  0.252487521287888 0.5619241191883009 0  0.3157906133607891 0.5617365333637143 0  0.3792257273497608 0.561517112063586 0  0.442831270821871 0.5612566932385293 0  0.5066533443763114 0.5609446410981405 0  0.5707483282774182 0.5605688469663286 0  0.6351867209150277 0.5601162026203776 0  0.7000593758270585 0.5595741365746909 0  0.7654883612978102 0.5589344310849598 0  0.8316463986882069 0.5582017055777349 0  0.898790981492971 0.5574106336142051 0  0.9673208786306072 0.5566562725839149 0  1.037864134277099 0.5561336464378821 0  0 0.625 0  0.06303703472934036 0.6248737949206058 0  0.126096077647785 0.6247419374728087 0  0.1892000595409231 0.6245984626592322 0  0.2523740138569159 0.6244367266903286 0  0.315646281119489 0.6242490050838074 0  0.379049924693415 0.6240260131840111 0  0.4426244751210655 0.6237563238742497 0  0.5064181976549641 0.6234256676511316 0  0.5704912579007027 0.6230161349847766 0  0.634920585768159 0.6225053993184515 0  0.6998082223587931 0.6218663441087952 0  0.7652970942281561 0.6210681830380493 0  0.8316024293066661 0.6200820080101046 0  0.8990738799510114 0.6188980907655673 0  0.9683100767408553 0.6175690255529777 0  1.040347710089836 0.6162834236365189 0  0 0.6875 0  0.0629878269597488 0.6873833658153394 0  0.1259962235362618 0.6872611267063607 0  0.1890466468576594 0.6871273131047271 0  0.252162695984273 0.6869751395086154 0  0.3153713581299277 0.6867964887605033 0  0.3787044978126239 0.6865812493481355 0  0.4422007113465873 0.6863164291982597 0  0.5059077336939583 0.6859849438681455 0  0.5698857424430767 0.6855639463005407 0  0.6342123254740984 0.685022542833391 0  0.6989910437047079 0.6843187845642016 0  0.7643686914411331 0.6833961759813167 0  0.830574511587577 0.6821815946493671 0  0.8980129770634508 0.6805934743823754 0  0.9674693568000965 0.6785956231674993 0  1.040496249287202 0.6763756264182764 0  0 0.75 0  0.06291823777831448 0.7498984859473454 0  0.12585456822779 0.7497917986591609 0  0.1888278880940651 0.7496743856624407 0  0.2518591273606257 0.749539828923907 0  0.3149724498691825 0.7493802731753586 0  0.3781967075838549 0.7491856568619935 0  0.4415672592945971 0.74894262693692 0  0.5051282891925534 0.7486329586648504 0  0.5689358106614549 0.748231203498617 0  0.6330617099907773 0.7477011254753707 0  0.6975998737136218 0.7469902102530988 0  0.7626781847508837 0.7460210704146525 0  0.8284904210156914 0.7446780251319773 0  0.8953976917645794 0.7427884947872835 0  0.9642550903160013 0.7401200776680557 0  1.037131924293507 0.7366444668617368 0  0 0.8125 0  0.06283077464552131 0.8124187180198656 0  0.1256761732920212 0.8123330981868589 0  0.1885514907333286 0.8122384560329114 0  0.2514737794586551 0.8121293053265983 0  0.3144629059506699 0.8119988120291377 0  0.3775428521776862 0.8118380370600666 0  0.4407433603026732 0.8116348313500695 0  0.5041020060414945 0.8113721681515313 0  0.5676667067457382 0.8110255642037205 0  0.6314984311071844 0.8105590093541063 0  0.6956733655157334 0.8099183928122712 0  0.7602833059191533 0.8090205081857674 0  0.8254360450055638 0.8077335360932476 0  0.8912856412644071 0.8058393937954625 0  0.9583001322570401 0.8029578931902056 0  1.029199447233279 0.7984386426275742 0  0 0.875 0  0.06272892734407085 0.8749432271836597 0  0.1254681493014056 0.8748833227088312 0  0.1882284485437084 0.8748168896008787 0  0.2510219183155298 0.8747399117232735 0  0.3138627674499079 0.8746473230575728 0  0.3767683366819095 0.8745323979360413 0  0.4397604175394182 0.8743858410782529 0  0.5028669519148846 0.8741943818578322 0  0.5661240764657955 0.8739385510743735 0  0.6295780294095559 0.8735891077290351 0  0.693284981547711 0.8731012253506426 0  0.7573025281137814 0.8724048353170509 0  0.8216548981689284 0.8713873642756559 0  0.8862281785818582 0.8698554930228117 0  0.9505325910685536 0.8674169642280387 0  1.013561204359325 0.8630102772476012 0  0 0.9375 0  0.06261702341584552 0.9374708139752552 0  0.1252393688835944 0.9374399862149968 0  0.1878726187869781 0.9374057311017688 0  0.2505230642337296 0.9373659254910979 0  0.3131981510698461 0.9373178707594947 0  0.3759070597960992 0.9372579513722028 0  0.4386614890754085 0.937181117288
[...]
<PointData  Vectors="f_54"> 
<DataArray  type="Float64"  Name="f_54"  NumberOfComponents="3" format="ascii">0.0000000000000000e+00 0.0000000000000000e+00 0.0000000000000000e+00  0.0000000000000000e+00 0.0000000000000000e+00 0.0000000000000000e+00  0.0000000000000000e+00 0.0000000000000000e+00 0.0000000000000000e+00  0.0000000000000000e+00 0.0000000000000000e+00 0.0000000000000000e+00  0.0000000000000000e+00 0.0000000000000000e+00 0.0000000000000000e+00  0.0000000000000000e+00 0.0000000000000000e+00 0.0000000000000000e+00  0.0000000000000000e+00 0.0000000000000000e+00 0.0000000000000000e+00  0.0000000000000000e+00 0.0000000000000000e+00 0.0000000000000000e+00  0.0000000000000000e+00 0.0000000000000000e+00 0.0000000000000000e+00  0.0000000000000000e+00 0.0000000000000000e+00 0.0000000000000000e+00  0.0000000000000000e+00 0.0000000000000000e+00 0.0000000000000000e+00  0.0000000000000000e+00 0.0000000000000000e+00 0.0000000000000000e+00  0.0000000000000000e+00 0.0000000000000000e+00 0.0000000000000000e+00  0.0000000000000000e+00 0.0000000000000000e+00 0.0000000000000000e+00  0.0000000000000000e+00 0.0000000000000000e+00 0.0000000000000000e+00  0.0000000000000000e+00 0.0000000000000000e+00 0.0000000000000000e+00  0.0000000000000000e+00 0.0000000000000000e+00 0.0000000000000000e+00  0.0000000000000000e+00 0.0000000000000000e+00 0.0000000000000000e+00  1.6881523546217001e-06 -1.1045178265538684e-07 0.0000000000000000e+00  3.4524227088854810e-06 -2.2552510013742431e-07 0.0000000000000000e+00  5.3745819795574139e-06 -3.5016533969885094e-07 0.0000000000000000e+00  7.5458068434400372e-06 -4.8983630300831451e-07 0.0000000000000000e+00  1.0072492078398055e-05 -6.5083801781327924e-07 0.0000000000000000e+00  1.3083545721615368e-05 -8.4069764585809624e-07 0.0000000000000000e+00  1.6740247711384857e-05 -1.0686793980598321e-06 0.0000000000000000e+00  2.1250771619565408e-05 -1.3465031664912935e-06 0.0000000000000000e+00  2.6893994137264129e-05 -1.6894945300885170e-06 0.0000000000000000e+00  3.4063830408108530e-05 -2.1188176450799098e-06 0.0000000000000000e+00  4.3363708707129100e-05 -2.6668801243015761e-06 0.0000000000000000e+00  5.5835193746353803e-05 -3.3929873380816569e-06 0.0000000000000000e+00  7.3576967821224436e-05 -4.4343151859530285e-06 0.0000000000000000e+00  1.0159597266444660e-04 -6.1852953367234423e-06 0.0000000000000000e+00  1.5391022678230436e-04 -9.9745953564297302e-06 0.0000000000000000e+00  2.7645254941481817e-04 -2.0915142227846446e-05 0.0000000000000000e+00  0.0000000000000000e+00 0.0000000000000000e+00 0.0000000000000000e+00  3.3049155548736198e-06 -2.1659003898033467e-07 0.0000000000000000e+00  6.7586645877404810e-06 -4.4224236068000192e-07 0.0000000000000000e+00  1.0521015203202349e-05 -6.8664664828549641e-07 0.0000000000000000e+00  1.4770108160609442e-05 -9.6050915153025068e-07 0.0000000000000000e+00  1.9713720841807657e-05 -1.2761748314011525e-06 0.0000000000000000e+00  2.5603198064089501e-05 -1.6483867441732531e-06 0.0000000000000000e+00  3.2751720101946258e-05 -2.0952510028260647e-06 0.0000000000000000e+00  4.1559776638017304e-05 -2.6395041514852015e-06 0.0000000000000000e+00  5.2553358517377674e-05 -3.3102420303055657e-06 0.0000000000000000e+00  6.6446310069457462e-05 -4.1454125127349093e-06 0.0000000000000000e+00  8.4251461546238691e-05 -5.1956555304352660e-06 0.0000000000000000e+00  1.0749266790911302e-04 -6.5302182491557153e-06 0.0000000000000000e+00  1.3861642271685307e-04 -8.2427030257030722e-06 0.0000000000000000e+00  1.8171701610295506e-04 -1.0429073950501192e-05 0.0000000000000000e+00  2.4324088795134332e-04 -1.2954043314010456e-05 0.0000000000000000e+00  3.2870670253944264e-04 -1.3938708371374502e-05 0.0000000000000000e+00  0.0000000000000000e+00 0.0000000000000000e+00 0.0000000000000000e+00  4.7766467445385760e-06 -3.1391102137326691e-07 0.0000000000000000e+00  9.7672239080100240e-06 -6.4091102569704199e-07 0.0000000000000000e+00  1.5201010442556730e-05 -9.9497041693404509e-07 0.0000000000000000e+00  2.1333479283168126e-05 -1.3915143420123030e-06 0.0000000000000000e+00  2.8462196113046853e-05 -1.8483128822389521e-06 0.0000000000000000e+00  3.6946140815423932e-05 -2.3865650343148457e-06 0.0000000000000000e+00  4.7230145143964962e-05 -3.0322572636738882e-06 0.0000000000000000e+00  5.9876733151448189e-05 -3.8178696086869998e-06 0.0000000000000000e+00  7.5608550754364205e-05 -4.7844384062070234e-06 0.0000000000000000e+00  9.5365633605821990e-05 -5.9837487334352094e-06 0.0000000000000000e+00  1.2038155874616888e-04 -7.4796874903644637e-06 0.0000000000000000e+00  1.5227420122832582e-04 -9.3455893709940009e-06 0.0000000000000000e+00  1.9310397285994787e-04 -1.1648290442440004e-05 0.0000000000000000e+00  2.4518778793849777e-04 -1.4395180192139977e-05 0.0000000000000000e+00  3.0993560661967166e-04 -1.7405234543359290e-05 0.0000000000000000e+00  3.8376341531855588e-04 -2.0200136789031640e-05 0.0000000000000000e+00  0.0000000000000000e+00 0.0000000000000000e+00 0.0000000000000000e+00  6.0377115301039385e-06 -3.9834867819919524e-07 0.0000000000000000e+00  1.2343130409144252e-05 -8.1319344692111725e-07 0.0000000000000000e+00  1.9202479416386801e-05 -1.2620916993312634e-06 0.0000000000000000e+00  2.6934326011789196e-05 -1.7643978599107122e-06 0.0000000000000000e+00  3.5909086975409728e-05 -2.3423662506151234e-06 0.0000000000000000e+00  4.6572475529342459e-05 -3.0225046444982080e-06 0.0000000000000000e+00  5.9474433085429837e-05 -3.8372910101549637e-06 0.0000000000000000e+00  7.5304975046230736e-05 -4.8273614405801181e-06 0.0000000000000000e+00  9.4937542309813297e-05 -6.0441938793339783e-06 0.0000000000000000e+00  1.1947755360475477e-04 -7.5529934231142189e-06 0.0000000000000000e+00  1.5030545896756203e-04 -9.4345481061738169e-06 0.0000000000000000e+00  1.8908117116788945e-04 -1.1782424279296212e-05 0.0000000000000000e+00  2.3762110906544134e-04 -1.4686443326769426e-05 0.0000000000000000e+00  2.9743672756666278e-04 -1.8183060930301347e-05 0.0000000000000000e+00  3.6852119961658158e-04 -2.2138759141961384e-05 0.0000000000000000e+00  4.4692159799200766e-04 -2.6014343284635024e-05 0.0000000000000000e+00  0.0000000000000000e+00 0.0000000000000000e+00 0.0000000000000000e+00  7.0342604786238336e-06 -4.6648568102237278e-07 0.0000000000000000e+00  1.4375757810916868e-05 -9.5209401929272058e-07 0.0000000000000000e+00  2.2351909203465103e-05 -1.4770968074724245e-06 0.0000000000000000e+00  3.1326560428974554e-05 -2.0637772288487965e-06 0.0000000000000000e+00  4.1721964721733199e-05 -2.7376667056664458e-06 0.0000000000000000e+00  5.4045253070641884e-05 -3.5290830269451429e-06 0.0000000000000000e+00  6.8921051646128481e-05 -4.4751391539375450e-06 0.0000000000000000e+00  8.7131559580091617e-05 -5.6224515670085492e-06 0.0000000000000000e+00  1.0966400024504278e-04 -7.0308295007928876e-06 0.0000000000000000e+00  1.3776143397090421e-04 -8.7781947672898270e-06 0.0000000000000000e+00  1.7296351308147991e-04 -1.0966652733839706e-05 0.0000000000000000e+00  2.1710360762806940e-04 -1.3728514732657481e-05 0.0000000000000000e+00  2.7219096392344460e-04 -1.7228225525164348e-05 0.0000000000000000e+00  3.4005189849441083e-04 -2.1650314447046026e-05 0.0000000000000000e+00  4.2157868921747485e-04 -2.7154222990483833e-05 0.0000000000000000e+00  5.1562309554208574e-04 -3.3767739902387850e-05 0.0000000000000000e+00  0.0000000000000000e+00 0.0000000000000000e+00 0.0000000000000000e+00  7.7271589211062000e-06 -5.1571575278542841e-07 0.0000000000000000e+00  1.5784887373701775e-05 -1.0522979835503468e-06 0.0000000000000000e+00  2.4523954077235949e-05 -1.6317503662788938e-06 0.0000000000000000e+00  3.4333218647829874e-05 -2.2781517177949486e-06 0.0000000000000000e+00  4.5662785645847232e-05 -3.0189216077206016e-06 0.0000000000000000e+00  5.9052306508199277e-05 -3.8864031205467649e-06 0.0000000000000000e+00  7.5166641507659715e-05 -4.9199823149265739e-06 0.0000000000000000e+00  9.4841186487120541e-05 -6.1691151197946916e-06 0.0000000000000000e+00  1.1913858152183612e-04 -7.6979103410662360e-06 0.0000000000000000e+00  1.4941623338791775e-04 -9.5924133357590614e-06 0.0000000000000000e+00  1.8739830948644946e-04 -1.1972574740051849e-05 0.0000000000000000e+00  2.3523426174245168e-04 -1.5012182437569107e-05 0.0000000000000000e+00  2.9550808950278706e-04 -1.8971685854328519e-05 0.0000000000000000e+00  3.7114913495205109e-04 -2.4250090299791058e-05 0.0000000000000000e+00  4.6523089436943497e-04 -3.1460906993539932e-05 0.0000000000000000e+00  5.8083682275026076e-04 -4.1530740795700455e-05 0.0000000000000000e+00  0.0000000000000000e+00 0.0000000000000000e+00 0.0000000000000000e+00  8.0938680922592772e-06 -5.4434320672913597e-07 0.0000000000000000e+00  1.6524643271097511e-05 -1.1103791912436897e-06 0.0000000000000000e+00  2.5647774672873697e-05 -1.7208335250527293e-06 0.0000000000000000e+00  3.5855719001148090e-05 -2.4004193335018777e-06 0.0000000000000000e+00  4.7600671915960159e-05 -3.1770120964119910e-06 0.0000000000000000e+00  6.1422994012792605e-05 -4.0830884415284484e-06 0.0000000000000000e+00  7.7988380017072131e-05 -5.1576380136572850e-06 0.0000000000000000e+00  9.8137875751684901e-05 -6.4489559158478375e-06 0.0000000000000000e+00  1.2295611823234711e-04 -8.0191627723424921e-06 0.0000000000000000e+00  1.5386435152028993e-04 -9.9522658653073583e-06 0.0000000000000000e+00  1.9274516523278486e-04 -1.2369655479904258e-05 0.0000000000000000e+00  2.4210459866006142e-04 -1.5461237558314986e-05 0.0000000000000000e+00  3.0527486031781131e-04 -1.9548758737283312e-05 0.0000000000000000e+00  3.8666650201858992e-04 -2.5212553417539756e-05 0.0000000000000000e+00  4.9212849747176787e-04 -3.3535583430996023e-05 0.0000000000000000e+00  6.2966224298835135e-04 -4.6552126873494272e-05 0.0000000000000000e+00  0.0000000000000000e+00 0.0000000000000000e+00 0.0000000000000000e+00  8.1291159434781320e-06 -5.5161153770748985e-07 0.0000000000000000e+00  1.6584972649753259e-05 -1.1248558584732356e-06 0.0000000000000000e+00  2.5709641557251203e-05 -1.7422271244780236e-06 0.0000000000000000e+00  3.5878195960002136e-05 -2.4280014438474142e-06 0.0000000000000000e+00  4.7519088949628923e-05 -3.2092204906935943e-06 0.0000000000000000e+00  6.1140212935329865e-05 -4.1168079285712730e-06 0.0000000000000000e+00  7.7364372761791052e-05 -5.1869199056626668e-06 0.0000000000000000e+00  9.6980102766155675e-05 -6.4627595827417606e-06 0.0000000000000000e+00  1.2101737908695779e-04 -7.9974407967926687e-06 0.0000000000000000e+00  1.5086349695031767e-04 -9.8594404126026000e-06 0.0000000000000000e+00  1.8844285951590955e-04 -1.2144670180860232e-05 0.0000000000000000e+00  2.3649580785599453e-04 -1.5005475522753892e-05 0.0000000000000000e+00  2.9900506466757129e-04 -1.8721943162313771e-05 0.0000000000000000e+00  3.8183500519908966e-04 -2.3874705013649523e-05 0.0000000000000000e+00  4.9369258059085729e-04 -3.1747670022554616e-05 0.0000000000000000e+00  6.4770755406249269e-04 -4.5222242655974851e-05 0.0000000000000000e+00  0.0000000000000000e+00 0.0000000000000000e+00 0.0000000000000000e+00  7.8442395817631044e-06 -5.3766331738597806e-07 0.0000000000000000e+00  1.5990383069552202e-05 -1.0960951994605632e-06 0.0000000000000000e+00  2.4751230350266270e-05 -1.6967275852749770e-06 0.0000000000000000e+00  3.4465836917758216e-05 -2.3625168943578006e-06 0.0000000000000000e+00  4.5515467711665256e-05 -3.1186981700932946e-06 0.0000000000000000e+00  5.8344172620188620e-05 -3.9935048270194121e-06 0.0000000000000000e+00  7.3487687416624311e-05 -5.0187741034756335e-06 0.0000000000000000e+00  9.1617377022225574e-05 -6.2302889947845244e-06 0.0000000000000000e+00  1.1361160848993459e-04 -7.6676485416700571e-06 0.0000000000000000e+00  1.4067734059804634e-04 -9.3735882481175242e-06 0.0000000000000000e+00  1.7456297012608359e-04 -1.1393681781207497e-05 0.0000000000000000e+00  2.1793308776826039e-04 -1.3781591338612077e-05 0.0000000000000000e+00  2.7501721122497118e-04 -1.6629796883915462e-05 0.0000000000000000e+00  3.5268735033339589e-04 -2.0191470052169599e-05 0.0000000000000000e+00  4.6214677423636797e-04 -2.5283638331738645e-05 0.0000000000000000e+00  6.2152407664311236e-04 -3.4444102096040617e-05 0.0000000000000000e+00  0.0000000000000000e+00 0.0000000000000000e+00 0.0000000000000000e+00  7.2651737957470130e-06 -5.0344744537957428e-07 0.0000000000000000e+00  1.4795802060985136e-05 -1.0261009479053011e-06 0.0000000000000000e+00  2.2863155832559863e-05 -1.5876490278294828e-06 0.0000000000000000e+00  3.1756018739256754e-05 -2.2090714025545939e-06 0.0000000000000000e+00  4.1790463365444109e-05 -2.9132111769134588e-06 0.0000000000000000e+00  5.3321890749461678e-05 -3.7251966184605354e-06 0.0000000000000000e+00  6.6761826125522517e-05 -4.6724769266961833e-06 0.0000000000000000e+00  8.2604863105793702e-05 -5.7839411270772998e-06 0.0000000000000000e+00  1.0147742008698884e-04 -7.0869608095816454e-06 0.0000000000000000e+00  1.2423329938274206e-04 -8.5999026664917447e-06 0.0000000000000000e+00  1.5214858343019042e-04 -1.0315168295027928e-05 0.0000000000000000e+00  1.8732261291555207e-04 -1.2163833114005746e-05 0.0000000000000000e+00  2.3348854082411730e-04 -1.3950349912837329e-05 0.0000000000000000e+00  2.9757307093413300e-04 -1.5264982769858902e-05 0.0000000000000000e+00  3.9241924407903121e-04 -1.5514416700091303e-05 0.0000000000000000e+00  5.4093356526240953e-04 -1.4727668974427841e-05 0.0000000000000000e+00  0.0000000000000000e+00 0.0000000000000000e+00 0.0000000000000000e+00  6.4292316581016207e-06 -4.5060160459878635e-07 0.0000000000000000e+00  1.3079776473733953e-05 -9.1824919209453638e-07 0.0000000000000000e+00  2.0173837594283196e-05 -1.4203375373789082e-06 0.0000000000000000e+00  2.7941756529669421e-05 -1.9753909591166361e-06 0.0000000000000000e+00  3.6624801159219017e-05 -2.6035636417881071e-06 0.0000000000000000e+00  4.6476813439675698e-05 -3.3270071253764070e-06 0.0000000000000000e+00  5.7764723916173295e-05 -4.1698633388225142e-06 0.0000000000000000e+00  7.0769317930800433e-05 -5.1572764835964595e-06 0.0000000000000000e+00  8.5791758898975785e-05 -6.3119117052868834e-06 0.0000000000000000e+00  1.0318270054968737e-04 -7.6441958292405934e-06 0.0000000000000000e+00  1.2344044230354294e-04 -9.1267238723491254e-06 0.0000000000000000e+00  1.4749897725924459e-04 -1.0628529258473611e-05 0.0000000000000000e+00  1.7750381057444030e-04 -1.1747748000353877e-05 0.0000000000000000e+00  2.1874655282684007e-04 -1.1395443521400304e-05 0.0000000000000000e+00  2.8391052555596757e-04 -6.8656387068360202e-06 0.0000000000000000e+00  4.0008396448968194e-04 7.5028375200485114e-06 0.0000000000000000e+00  0.0000000000000000e+00 0.0000000000000000e+00 0.0000000000000000e+00  5.3810619827404605e-06 -3.8134000051138714e-07 0.0000000000000000e+00  1.0935771715695791e-05 -7.7704703421107878e-07 0.0000000000000000e+00  1.6834779529997886e-05 -1.2017543611722698e-06 0.0000000000000000e+00  2.3248656684212431e-05 -1.6711225888860271e-06 0.0000000000000000e+00  3.0344380800441950e-05 -2.2023694651755780e-06 0.0000000000000000e+00  3.8277122669470684e-05 -2.8148252635224588e-06 0.0000000000000000e+00  4.7174154108747023e-05 -3.5304610958457928e-06 0.0000000000000000e+00  5.7106235553044604e-05 -4.3741809000528991e-06 0.0000000000000000e+00  6.8040534172775802e-05 -5.3731777344799394e-06 0.0000000000000000e+00  7.9770634210110728e-05 -6.5531290836892940e-06 0.0000000000000000e+00  9.1833456355657039e-05 -7.9241837692687747e-06 0.0000000000000000e+00  1.0348348251126942e-04 -9.4339443564243914e-06 0.0000000000000000e+00  1.1400938256622930e-04 -1.0810435569037366e-05 0.0000000000000000e+00  1.2437822048330210e-04 -1.1017294140938750e-05 0.0000000000000000e+00  1.4324327085289449e-04 -6.2569000681005140e-06 0.0000000000000000e+00  2.0069826758886005e-04 1.6190038636375579e-05 0.0000000000000000e+00  0.0000000000000000e+00 0.0000000000000000e+00 0.0000000000000000e+00  4.1684109620952077e-06 -2.9836468546739551e-07 0.0000000000000000e+00  8.4629236061198054e-06 -6.0796097510925999e-07 0.0000000000000000e+00  1.3004542963839193e-05 -9.4023368585844452e-07 0.0000000000000000e+00  1.7908860668378633e-05 -1.3075436873511370e-06 0.0000000000000000e+00  2.3278573533956011e-05 -1.7237408233603935e-06 0.0000000000000000e+00  2.9188932659627828e-05 -2.2049625360278628e-06 0.0000000000000000e+00  3.5660343324914038e-05 -2.7708796622197997e-06 0.0000000000000000e+00  4.2607824953016123e-05 -3.4468331655843029e-06 0.0000000000000000e+00  4.9748770316500541e-05 -4.2677505154851095e-06 0.0000000000000000e+00  5.6435963215626533e-05 -5.2855757695757727e-06 0.0000000000000000e+00  6.1360783260099150e-05 -6.5833261269746006e-06 0.0000000000000000e+00  6.2054076332986155e-05 -8.2998523813253867e-06 0.0000000000000000e+00  5.4184183459932171e-05 -1.0660947803342363e-05 0.0000000000000000e+00  3.1230364917072367e-05 -1.3928507227481999e-05 0.0000000000000000e+00  -1.1792682091480408e-05 -1.7459508031509107e-05 0.0000000000000000e+00  -4.5467534137607669e-05 -8.1702157226852897e-06 0.0000000000000000e+00  0.0000000000000000e+00 0.0000000000000000e+00 0.0000000000000000e+00  2.8384592416382371e-06 -2.0479681727297760e-07 0.0000000000000000e+00  5.7579929772387803e-06 -4.1730499485955646e-07 0.0000000000000000e+00  8.8346209145690049e-06 -6.4539497542680442e-07 0.0000000000000000e+00  1.2137522460716943e-05 -8.9765280045139750e-07 0.0000000000000000e+00  1.5721059112038697e-05 -1.1838970775482333e-06 0.0000000000000000e+00  1.9609751062538786e-05 -1.5160148936085293e-06 0.0000000000000000e+00  2.3769921173328940e-05 -1.9094891821864388e-06 0.0000000000000000e+00  2.8055886931760208e-05 -2.3864527441086523e-06 0.0000000000000000e+00  3.2106314729590934e-05 -2.9821958986055965e-06 0.0000000000000000e+00  3.5139807996163490e-05 -3.7597133088991218e-06 0.0000000000000000e+00  3.5540145945761758e-05 -4.8436335336955530e-06 0.0000000000000000e+00  2.9993026394151336e-05 -6.5031382571175587e-06 0.0000000000000000e+00  1.1679506888612946e-05 -9.3676184055686273e-06 0.0000000000000000e+00  -3.3299465055531276e-05 -1.5044127402238113e-05 0.0000000000000000e+00  -1.3147803505409207e-04 -2.8196050560393287e-05 0.0000000000000000e+00  -3.2512337107664594e-04 -6.5715000150207785e-05 0.0000000000000000e+00  0.0000000000000000e+00 0.0000000000000000e+00 0.0000000000000000e+00  1.4354479066061005e-06 -1.0410447418095480e-07 0.0000000000000000e+00  2.9102077457615471e-06 -2.1212441937979765e-07 0.0000000000000000e+00  4.4604974235520211e-06 -3.2806120407205139e-07 0.0000000000000000e+00  6.1179863485103176e-06 -4.5631071399794651e-07 0.0000000000000000e+00  7.9047679472967800e-06 -6.0197190357857925e-07 0.0000000000000000e+00  9.8239915427530338e-06 -7.7137964817312476e-07 0.0000000000000000e+00  1.1842124904142914e-05 -9.7313504520720884e-07 0.0000000000000000e+00  1.3854788908546921e-05 -1.2202566166952391e-06 0.0000000000000000e+00  1.5619090875981064e-05 -1.5349086615272588e-06 0.0000000000000000e+00  1.6614028439328706e-05 -1.9591743742051169e-06 0.0000000000000000e+00  1.5736505174682654e-05 -2.5802298687565277e-06 0.0000000000000000e+00  1.0594654408942841e-05 -3.5898419487074949e-06 0.0000000000000000e+00  -4.2481745574247449e-06 -5.4216506411542135e-06 0.0000000000000000e+00  -4.1768726458415556e-05 -9.0231498705206617e-06 0.0000000000000000e+00  -1.3224364669201370e-04 -1.6019916998594883e-05 0.0000000000000000e+00  -3.2283955304029575e-04 -2.6433547070210733e-05 0.0000000000000000e+00  0.0000000000000000e+00 0.0000000000000000e+00 0.0000000000000000e+00  0.0000000000000000e+00 0.0000000000000000e+00 0.0000000000000000e+00  0.0000000000000000e+00 0.0000000000000000e+00 0.0000000000000000e+00  0.0000000000000000e+00 0.0000000000000000e+00 0.0000000000000000e+00  0.0000000000000000e+00 0.0000000000000000e+00 0.0000000000000000e+00  0.0000000000000000e+00 0.0000000000000000e+00 0.0000000000000000e+00  0.0000000000000000e+00 0.0000000000000000e+00 0.0000000000000000e+00  0.0000000000000000e+00 0.0000000000000000e+00 0.0000000000000000e+00  0.0000000000000000e+00 0.0000000000000000e+00