<?xml version="1.0"?>
<VTKFile type="UnstructuredGrid"  version="0.1"  >
<UnstructuredGrid>
<Piece  NumberOfPoints="289" NumberOfCells="512">
<Points>
<DataArray  type="Float64"  NumberOfComponents="3"  format="ascii">0 0 0  0.0625 0 0  0.125 0 0  0.1875 0 0  0.25 0 0  0.3125 0 0  0.375 0 0  0.4375 0 0  0.5 0 0  0.5625 0 0  0.625 0 0  0.6875 0 0  0.75 0 0  0.8125 0 0  0.875 0 0  0.9375 0 0  1 0 0  0 0.0625 0  0.06250633167006879 0.06249741220198501 0  0.1250133554593333 0.06249478247169128 0  0.1875218454759277 0.06249207355757497 0  0.2500327568450088 0.06248925834607721 0  0.3125473440087714 0.06248632603219681 0  0.375067318201692 0.06248328924988357 0  0.4375950699832714 0.06248019168124436 0  0.5001340035909854 0.0624771145483075 0  0.5626890791589376 0.0624741782922907 0  0.6252677827540947 0.06247153166668298 0  0.6878820764682088 0.06246931150346439 0  0.7505528346372607 0.06246753190272181 0  0.8133212165837113 0.06246577737629568 0  0.876281237557879 0.0624622362377663 0  0.9396833389407346 0.0624501303696193 0  1.004303365991043 0.0624027154751472 0  0 0.125 0  0.06251196812993164 0.1249948625862118 0  0.1250252366404992 0.1249896361414772 0  0.187541260543113 0.1249842405281019 0  0.2500618361976979 0.1249786150585215 0  0.3125893232510737 0.1249727307931537 0  0.3751269369089189 0.1249666053823144 0  0.4376791519302267 0.1249603200390817 0  0.5002522855771446 0.1249540364263432 0  0.5628553810699339 0.1249480079872818 0  0.6255016311036349 0.1249425749133433 0  0.6882108393807509 0.1249381247058625 0  0.7510139637581479 0.1249349967562632 0  0.8139617856214169 0.1249333440366492 0  0.8771406857948419 0.1249332198420558 0  0.9406934459866779 0.1249365631504625 0  1.004793272047123 0.1249600246799868 0  0 0.1875 0  0.06251630690321817 0.1874923984559723 0  0.1250343627267583 0.1874846512482012 0  0.1875561255379522 0.1874766247500113 0  0.2500840152504903 0.1874682121005476 0  0.3126212123800363 0.187459351183556 0  0.3751720467317798 0.1874500477181241 0  0.4377425207400322 0.1874404040269255 0  0.5003410279880431 0.187430652120009 0  0.5629793518688174 0.1874211859202125 0  0.625674063800473 0.1874125805768857 0  0.6884484715774672 0.1874055753586476 0  0.7513352121757002 0.1874009782727334 0  0.8143790843135268 0.1873994158288497 0  0.8776375341204302 0.18740073505135 0  0.9411687920700463 0.187402238909449 0  1.004978728091246 0.1873912180526532 0  0 0.25 0  0.0625189054491989 0.2499900766414346 0  0.1250397914970698 0.2499799381657909 0  0.1875648778858451 0.2499693827902156 0  0.2500969133978624 0.2499582391809455 0  0.3126395183389388 0.2499463887469305 0  0.3751976277890233 0.2499337965687383 0  0.437778078496288 0.249920553611762 0  0.5003903854218598 0.2499069316639353 0  0.5630477465354473 0.2498934492303684 0  0.6257682757420925 0.2498809395616553 0  0.6885763419702661 0.2498705980955618 0  0.7515035620780147 0.2498639612270905 0  0.8145881754236218 0.2498627248347115 0  0.8778697007964598 0.2498682455473719 0  0.9413724963829821 0.2498805424914688 0  1.005069187013581 0.249897290601969 0  0 0.3125 0  0.06251953671842544 0.3124879667257021 0  0.1250410371424013 0.3124756346470449 0  0.1875667056206621 0.3124627168404313 0  0.2500992811661713 0.3124489548549766 0  0.3126423879108018 0.3124341424691824 0  0.3752009928884902 0.3124181619976112 0  0.4377820151953272 0.3124010388797497 0  0.5003951293057306 0.3123830209026054 0  0.5630537862088144 0.3123646876572188 0  0.6257764131356465 0.3123470914588333 0  0.6885875949492125 0.3123319186967075 0  0.7515186983568966 0.3123216333409248 0  0.8146067518982802 0.3123195134671137 0  0.8778893922786227 0.3123294174486996 0  0.9413927948493258 0.3123550671459657 0  1.005110826300884 0.3123987790502379 0  0 0.375 0  0.06251821929665469 0.3749861523874183 0  0.1250381348067411 0.3749719094273281 0  0.1875616545121895 0.374956882602929 0  0.2500911607543252 0.3749407021939111 0  0.3126298306581372 0.3749230377747425 0  0.3751820673668421 0.3749036343898366 0  0.4377540938081025 0.3748823736296176 0  0.500354767525498 0.3748593724141521 0  0.5629966700961812 0.3748351362953887 0  0.62569748716292 0.3748107866077978 0  0.6884815864955894 0.3747883767629706 0  0.7513814617264015 0.3747712910887989 0  0.8144382769415649 0.3747646584872238 0  0.877700151554173 0.3747755808132643 0  0.9412164235459796 0.3748127416505149 0  1.005026927097711 0.3748846170870281 0  0 0.4375 0  0.06251521831431234 0.437484729957883 0  0.1250316444640367 0.437468960196764 0  0.1875506391409055 0.4374521887046043 0  0.2500739107141034 0.4374339135278426 0  0.3126037645738616 0.4374136435181862 0  0.3751434593200869 0.4373909254070421 0  0.4376977325292463 0.4373653991255199 0  0.5002735841395842 0.4373369004711027 0  0.5628814361106161 0.4373056410271919 0  0.6255368142264673 0.4372725097900435 0  0.6882626982519031 0.4372395561746784 0  0.7510926098900331 0.4372107176388075 0  0.8140742674896148 0.4371928130326321 0  0.8772731270884365 0.4371966602565259 0  0.9407743302794914 0.4372377710192374 0  1.004680782889618 0.437335329889981 0  0 0.5 0  0.06251101544167667 0.4999838033566137 0  0.1250225905799542 0.4999670039533937 0  0.1875353525023199 0.4999489838097654 0  0.2500500887021536 0.4999290974159194 0  0.3125678823970639 0.4999066653418163 0  0.3750903344888731 0.4998809805693755 0  0.4376199403307073 0.4998513396196049 0  0.5001607366506495 0.4998171206352705 0  0.5627194112796063 0.4997779483595425 0  0.6253071872994347 0.4997340159801881 0  0.6879429577310474 0.4996866808167552 0  0.7506583267339173 0.499639513297675 0  0.8135052831820222 0.4996000278118768 0  0.8765668683947067 0.4995822504852658 0  0.9399698164658353 0.4996097973500696 0  1.003895267366018 0.4997177388317531 0  0 0.5625 0  0.06250624852383391 0.5624834749450159 0  0.1250123376677023 0.5624662584344006 0  0.1875180715263048 0.5624476283955067 0  0.2500231827397946 0.5624268014046867 0  0.3125273147514423 0.5624029026858858 0  0.3750300451667716 0.5623749398974691 0  0.4375310063553546 0.5623417886400598 0  0.5000302205135997 0.5623022077732752 0  0.5625288833128473 0.5622549233978766 0  0.6250310451008603 0.5621988621500089 0  0.6875470105233018 0.562133696268906 0  0.7500998584433529 0.5620610145313737 0  0.8127372162389362 0.5619866825094224 0  0.8755508449484329 0.561925252076987 0  0.9387052680416044 0.5619072264539499 0  1.002470885837193 0.5619882546503825 0  0 0.625 0  0.0625016245464715 0.6249838325867866 0  0.1250024076267412 0.6249669148816204 0  0.1875013627049253 0.6249484505939812 0  0.2499971849900054 0.6249275473854046 0  0.3124880567469707 0.6249031602121243 0  0.3749714196012746 0.6248740248288153 0  0.4374437305882506 0.6248385802855796 0  0.499900271670345 0.6247948845658382 0  0.5623352043725797 0.624740541859133 0  0.6247423279610979 0.6246726967060852 0  0.6871175551872576 0.624588241603061 0  0.7494652066299847 0.6244846056243173 0  0.8118121446935166 0.6243620019711881 0  0.8742364948105646 0.6242290761509598 0  0.9369193756686949 0.6241155711749964 0  1.000221654538124 0.6240958522918203 0  0 0.6875 0  0.06249781419019921 0.6874849342642796 0  0.1249942543204192 0.687469104758907 0  0.1874877071414544 0.6874516896597889 0  0.2499760225324187 0.6874317430269044 0  0.3124561475560918 0.6874081143193528 0  0.3749236338442775 0.6873793427921284 0  0.4373719675321888 0.6873435132600306 0  0.4997916829831488 0.6872980552430459 0  0.5621692838743141 0.6872394635181571 0  0.6244861960011613 0.6871629214710592 0  0.6867185302723521 0.6870618447258869 0  0.7488398410379348 0.6869275185567428 0  0.8108323882839166 0.6867495640030896 0  0.8727194799181629 0.6865198028933351 0  0.9346432028964013 0.6862473996220843 0  0.9970167397990655 0.6860038380867352 0  0 0.75 0  0.06249534187432319 0.749986792736832 0  0.1249890237951177 0.7499728657190782 0  0.1874790881398174 0.7499574357773895 0  0.2499629000885698 0.7499395821012828 0  0.3124366575198738 0.7499181517682607 0  0.374894685358617 0.7498916282238807 0  0.4373283834226714 0.7498579381002061 0  0.4997246383752975 0.7498141564121733 0  0.5620634392978713 0.7497560425262377 0  0.6243143948445959 0.7496772889933353 0  0.6864320052822056 0.7495682756565859 0  0.7483504641092893 0.7494139830131841 0  0.8099822497099405 0.7491906454526116 0  0.871236119743349 0.7488616326143537 0  0.9321026026500864 0.7483802617058324 0  0.9929164400679065 0.7477488580810515 0  0 0.8125 0  0.06249449037823592 0.812489363543479 0  0.1249873415462835 0.8124781142025254 0  0.1874766114863352 0.8124655794016287 0  0.2499596626454226 0.8124509557504012 0  0.31243263724582 0.8124332161344449 0  0.3748896678713315 0.8124109761117678 0  0.437321632362109 0.8123822905749692 0  0.4997141314366044 0.8123443310518986 0  0.5620441346020302 0.8122928538766334 0  0.6242743330016448 0.8122212858716454 0  0.6863435679141626 0.8121190640722868 0  0.7481508044501214 0.8119683908962957 0  0.8095299510144184 0.8117372853693524 0  0.870219329516372 0.8113632619920484 0  0.9298744130381584 0.8107128463761003 0  0.9884341092891739 0.8094890861451781 0  0 0.875 0  0.0624952413568105 0.8749925397083635 0  0.1249891753174361 0.8749846324342297 0  0.1874802472993227 0.8749757848031371 0  0.2499663311233239 0.8749654012013779 0  0.3124442854381436 0.8749527098246692 0  0.3749092665368043 0.8749366547724605 0  0.4373536042462862 0.8749157299096657 0  0.4997648898891972 0.8748877138415804 0  0.5621226098332467 0.8748492358082401 0  0.6243920068861601 0.8747950473014103 0  0.6865124557364993 0.8747167624897622 0  0.7483745182367217 0.8746005577680489 0  0.8097725687449229 0.8744224497851629 0  0.8703024869022447 0.8741362429123314 0  0.9291353119978625 0.8736327459073704 0  0.9845620783106689 0.8725581631377017 0  0 0.9375 0  0.06249726974738212 0.937496155535542 0  0.1249938163543153 0.9374920755170687 0  0.1874887780883754 0.9374874991086783 0  0.249980971479568 0.9374821096174493 0  0.3124686376046495 0.9374754938068377 0  0.3749490425486419 0.93746708234229 0  0.4374178105588851 0.93745
[...]
<PointData  Vectors="f_54"> 
<DataArray  type="Float64"  Name="f_54"  NumberOfComponents="3" format="ascii">0.0000000000000000e+00 0.0000000000000000e+00 0.0000000000000000e+00  0.0000000000000000e+00 0.0000000000000000e+00 0.0000000000000000e+00  0.0000000000000000e+00 0.0000000000000000e+00 0.0000000000000000e+00  0.0000000000000000e+00 0.0000000000000000e+00 0.0000000000000000e+00  0.0000000000000000e+00 0.0000000000000000e+00 0.0000000000000000e+00  0.0000000000000000e+00 0.0000000000000000e+00 0.0000000000000000e+00  0.0000000000000000e+00 0.0000000000000000e+00 0.0000000000000000e+00  0.0000000000000000e+00 0.0000000000000000e+00 0.0000000000000000e+00  0.0000000000000000e+00 0.0000000000000000e+00 0.0000000000000000e+00  0.0000000000000000e+00 0.0000000000000000e+00 0.0000000000000000e+00  0.0000000000000000e+00 0.0000000000000000e+00 0.0000000000000000e+00  0.0000000000000000e+00 0.0000000000000000e+00 0.0000000000000000e+00  0.0000000000000000e+00 0.0000000000000000e+00 0.0000000000000000e+00  0.0000000000000000e+00 0.0000000000000000e+00 0.0000000000000000e+00  0.0000000000000000e+00 0.0000000000000000e+00 0.0000000000000000e+00  0.0000000000000000e+00 0.0000000000000000e+00 0.0000000000000000e+00  0.0000000000000000e+00 0.0000000000000000e+00 0.0000000000000000e+00  0.0000000000000000e+00 0.0000000000000000e+00 0.0000000000000000e+00  -4.7476459787890982e-06 -1.0771481238324425e-07 0.0000000000000000e+00  -9.6301745958684409e-06 -2.1676773770393266e-07 0.0000000000000000e+00  -1.4782031792483588e-05 -3.2818687492540405e-07 0.0000000000000000e+00  -2.0335410532132829e-05 -4.4231450390655731e-07 0.0000000000000000e+00  -2.6417650186874939e-05 -5.5834533073807224e-07 0.0000000000000000e+00  -3.3146848308451707e-05 -6.7372303373708576e-07 0.0000000000000000e+00  -4.0625218631471378e-05 -7.8335463810363096e-07 0.0000000000000000e+00  -4.8930158760725412e-05 -8.7861326421194891e-07 0.0000000000000000e+00  -5.8104224508396626e-05 -9.4610210501761897e-07 0.0000000000000000e+00  -6.8148578416962234e-05 -9.6606918398319632e-07 0.0000000000000000e+00  -7.9033924150803979e-05 -9.0987512134162906e-07 0.0000000000000000e+00  -9.0771168656316915e-05 -7.3378453166069753e-07 0.0000000000000000e+00  -1.0367557383501717e-04 -3.5768674073694461e-07 0.0000000000000000e+00  -1.1928138913773772e-04 4.1801725725694976e-07 0.0000000000000000e+00  -1.4362314685859498e-04 2.2564644885389974e-06 0.0000000000000000e+00  -2.0039143967430631e-04 7.8448612988539524e-06 0.0000000000000000e+00  0.0000000000000000e+00 0.0000000000000000e+00 0.0000000000000000e+00  -9.3609579733012394e-06 -2.1410347334402552e-07 0.0000000000000000e+00  -1.8992727946885022e-05 -4.3120569318737608e-07 0.0000000000000000e+00  -2.9165842157341797e-05 -6.5373249098891414e-07 0.0000000000000000e+00  -4.0147621557845707e-05 -8.8283343738660754e-07 0.0000000000000000e+00  -5.2197629423250765e-05 -1.1175036664671025e-06 0.0000000000000000e+00  -6.5559450168593117e-05 -1.3534145584116677e-06 0.0000000000000000e+00  -8.0447557339243994e-05 -1.5813649142843928e-06 0.0000000000000000e+00  -9.7028391594207507e-05 -1.7852980939433165e-06 0.0000000000000000e+00  -1.1539589330373319e-04 -1.9399084952369891e-06 0.0000000000000000e+00  -1.3554453205507199e-04 -2.0080069295687667e-06 0.0000000000000000e+00  -1.5734907808229802e-04 -1.9380742635208351e-06 0.0000000000000000e+00  -1.8057255754434391e-04 -1.6630660965868901e-06 0.0000000000000000e+00  -2.0494116485772661e-04 -1.1043406050202782e-06 0.0000000000000000e+00  -2.3030966666573422e-04 -2.0070530597546060e-07 0.0000000000000000e+00  -2.5661335622226202e-04 9.2379133760511395e-07 0.0000000000000000e+00  -2.8091427457780082e-04 1.0017126629187286e-06 0.0000000000000000e+00  0.0000000000000000e+00 0.0000000000000000e+00 0.0000000000000000e+00  -1.3703529807802394e-05 -3.1749348275791566e-07 0.0000000000000000e+00  -2.7815046219169436e-05 -6.4024011138411848e-07 0.0000000000000000e+00  -4.2743540206847666e-05 -9.7275131713951515e-07 0.0000000000000000e+00  -5.8896319327880382e-05 -1.3178646404305100e-06 0.0000000000000000e+00  -7.6673852348655959e-05 -1.6755459574999915e-06 0.0000000000000000e+00  -9.6459028094470807e-05 -2.0412393389385144e-06 0.0000000000000000e+00  -1.1859850176736916e-04 -2.4036016573052069e-06 0.0000000000000000e+00  -1.4337361594419408e-04 -2.7414936489366602e-06 0.0000000000000000e+00  -1.7095844279996805e-04 -3.0202252275695107e-06 0.0000000000000000e+00  -2.0136287686440158e-04 -3.1873808459952439e-06 0.0000000000000000e+00  -2.3435882380535374e-04 -3.1693082218294777e-06 0.0000000000000000e+00  -2.6938397424579633e-04 -2.8710323552713121e-06 0.0000000000000000e+00  -3.0539718205578473e-04 -2.1859875594072668e-06 0.0000000000000000e+00  -3.4057906146462813e-04 -1.0287841692344099e-06 0.0000000000000000e+00  -3.7151864028029676e-04 5.9348477881947458e-07 0.0000000000000000e+00  -3.9097454439017784e-04 2.5573976323454897e-06 0.0000000000000000e+00  0.0000000000000000e+00 0.0000000000000000e+00 0.0000000000000000e+00  -1.7637759609716606e-05 -4.1561875807942793e-07 0.0000000000000000e+00  -3.5820899427757444e-05 -8.3951435086397925e-07 0.0000000000000000e+00  -5.5098697867543897e-05 -1.2791922618445865e-06 0.0000000000000000e+00  -7.6023882213130850e-05 -1.7403770418627943e-06 0.0000000000000000e+00  -9.9148972047257620e-05 -2.2256542905312524e-06 0.0000000000000000e+00  -1.2501540350585814e-04 -2.7324984348782318e-06 0.0000000000000000e+00  -1.5413192048279345e-04 -3.2504096392975230e-06 0.0000000000000000e+00  -1.8693779675178657e-04 -3.7568611407740751e-06 0.0000000000000000e+00  -2.2374529550015274e-04 -4.2118191508511913e-06 0.0000000000000000e+00  -2.6465416009459374e-04 -4.5508796641902129e-06 0.0000000000000000e+00  -3.0942798108969503e-04 -4.6778501252612647e-06 0.0000000000000000e+00  -3.5731535489211779e-04 -4.4593955349860346e-06 0.0000000000000000e+00  -4.0678157723377607e-04 -3.7279012077146694e-06 0.0000000000000000e+00  -4.5507947028883305e-04 -2.3044093247501589e-06 0.0000000000000000e+00  -4.9753754516259209e-04 -5.9503728166260915e-08 0.0000000000000000e+00  -5.2651461103655562e-04 2.9663074618906837e-06 0.0000000000000000e+00  0.0000000000000000e+00 0.0000000000000000e+00 0.0000000000000000e+00  -2.1025948779955137e-05 -5.0544600240361106e-07 0.0000000000000000e+00  -4.2732119864813574e-05 -1.0229957116808906e-06 0.0000000000000000e+00  -6.5807492365177535e-05 -1.5641282805587136e-06 0.0000000000000000e+00  -9.0954102658381101e-05 -2.1388128814419875e-06 0.0000000000000000e+00  -1.1888772711434161e-04 -2.7542228832692607e-06 0.0000000000000000e+00  -1.5033042089596403e-04 -3.4127128473720767e-06 0.0000000000000000e+00  -1.8599040264473214e-04 -4.1086446980845052e-06 0.0000000000000000e+00  -2.2652310225290472e-04 -4.8235050843999121e-06 0.0000000000000000e+00  -2.7246495065284002e-04 -5.5186097962824537e-06 0.0000000000000000e+00  -3.2412858725212266e-04 -6.1246477316225474e-06 0.0000000000000000e+00  -3.8144445282126398e-04 -6.5276405705000743e-06 0.0000000000000000e+00  -4.4372916194666590e-04 -6.5521544391492490e-06 0.0000000000000000e+00  -5.0935660379533630e-04 -5.9458425820998292e-06 0.0000000000000000e+00  -5.7530994809136375e-04 -4.3761776870264670e-06 0.0000000000000000e+00  -6.3662869854035206e-04 -1.4622330596118844e-06 0.0000000000000000e+00  -6.8591456080403356e-04 3.1168101632851897e-06 0.0000000000000000e+00  0.0000000000000000e+00 0.0000000000000000e+00 0.0000000000000000e+00  -2.3733133604534948e-05 -5.8314279940567723e-07 0.0000000000000000e+00  -4.8273883831816352e-05 -1.1828734690271433e-06 0.0000000000000000e+00  -7.4445569755955953e-05 -1.8154971545931377e-06 0.0000000000000000e+00  -1.0309903349656924e-04 -2.4965110808035333e-06 0.0000000000000000e+00  -1.3512101063152613e-04 -3.2396915034395892e-06 0.0000000000000000e+00  -1.7143460072409938e-04 -4.0554264529682815e-06 0.0000000000000000e+00  -2.1298679358277835e-04 -4.9477739019272973e-06 0.0000000000000000e+00  -2.6071561891689263e-04 -5.9094222476831469e-06 0.0000000000000000e+00  -3.1548618865385845e-04 -6.9132676342301021e-06 0.0000000000000000e+00  -3.7798070605625977e-04 -7.8986875761929110e-06 0.0000000000000000e+00  -4.4852290937730016e-04 -8.7499004001746722e-06 0.0000000000000000e+00  -5.2681410471437271e-04 -9.2635548158774963e-06 0.0000000000000000e+00  -6.1156045082908222e-04 -9.1042794949758215e-06 0.0000000000000000e+00  -6.9998982478848917e-04 -7.7533350901248747e-06 0.0000000000000000e+00  -7.8731122296084159e-04 -4.4714976137771502e-06 0.0000000000000000e+00  -8.6628596387294918e-04 1.6742331861426303e-06 0.0000000000000000e+00  0.0000000000000000e+00 0.0000000000000000e+00 0.0000000000000000e+00  -2.5632015859921816e-05 -6.4422508954957495e-07 0.0000000000000000e+00  -5.2184439693278878e-05 -1.3098344707916423e-06 0.0000000000000000e+00  -8.0602192413113246e-05 -2.0184523845607603e-06 0.0000000000000000e+00  -1.1187667101212355e-04 -2.7920126916685348e-06 0.0000000000000000e+00  -1.4706523966533965e-04 -3.6525498777333278e-06 0.0000000000000000e+00  -1.8730464971754683e-04 -4.6213985529837976e-06 0.0000000000000000e+00  -2.3381354877229023e-04 -5.7172865195537455e-06 0.0000000000000000e+00  -2.8787622835136576e-04 -6.9523818132594747e-06 0.0000000000000000e+00  -3.5079531737579046e-04 -8.3245803361976277e-06 0.0000000000000000e+00  -4.2379506076217570e-04 -9.8029675815597490e-06 0.0000000000000000e+00  -5.0784955437563578e-04 -1.1301189667564319e-05 0.0000000000000000e+00  -6.0340395226039973e-04 -1.2630387127522775e-05 0.0000000000000000e+00  -7.0995697165679927e-04 -1.3420423658694178e-05 0.0000000000000000e+00  -8.2549174786297795e-04 -1.2999541990087534e-05 0.0000000000000000e+00  -9.4579586257449906e-04 -1.0238779809085624e-05 0.0000000000000000e+00  -1.0638050360822443e-03 -3.4159347232275745e-06 0.0000000000000000e+00  0.0000000000000000e+00 0.0000000000000000e+00 0.0000000000000000e+00  -2.6610112933279167e-05 -6.8390283580387179e-07 0.0000000000000000e+00  -5.4229640102402722e-05 -1.3937682864843077e-06 0.0000000000000000e+00  -8.3902525559299813e-05 -2.1564437064577084e-06 0.0000000000000000e+00  -1.1674128482480815e-04 -3.0005022308654256e-06 0.0000000000000000e+00  -1.5396051909824437e-04 -3.9570213979959235e-06 0.0000000000000000e+00  -1.9690805844872316e-04 -5.0601525423569146e-06 0.0000000000000000e+00  -2.4709014402101088e-04 -6.3471621634951281e-06 0.0000000000000000e+00  -3.0618371239732832e-04 -7.8572217728622623e-06 0.0000000000000000e+00  -3.7602337946000873e-04 -9.6273513148042431e-06 0.0000000000000000e+00  -4.5854227859004810e-04 -1.1682089911909946e-05 0.0000000000000000e+00  -5.5563390528540104e-04 -1.4009773449451723e-05 0.0000000000000000e+00  -6.6888746462034454e-04 -1.6511355721621696e-05 0.0000000000000000e+00  -7.9913716472609258e-04 -1.8896269596213690e-05 0.0000000000000000e+00  -9.4577115389310473e-04 -2.0485882930129462e-05 0.0000000000000000e+00  -1.1057963279348466e-03 -1.9882881784571617e-05 0.0000000000000000e+00  -1.2727739259142537e-03 -1.4514930040777721e-05 0.0000000000000000e+00  0.0000000000000000e+00 0.0000000000000000e+00 0.0000000000000000e+00  -2.6578889163171740e-05 -6.9760963518709900e-07 0.0000000000000000e+00  -5.4221897421200992e-05 -1.4248854535121176e-06 0.0000000000000000e+00  -8.4037761247482431e-05 -2.2130409177986588e-06 0.0000000000000000e+00  -1.1722658515339914e-04 -3.0965019012381500e-06 0.0000000000000000e+00  -1.5512897018510680e-04 -4.1148009139025435e-06 0.0000000000000000e+00  -1.9927835870522752e-04 -5.3148213864178276e-06 0.0000000000000000e+00  -2.5145558198072672e-04 -6.7534791404832034e-06 0.0000000000000000e+00  -3.1374156958683861e-04 -8.5007767638864120e-06 0.0000000000000000e+00  -3.8855844077332637e-04 -1.0642660593709306e-05 0.0000000000000000e+00  -4.7867883915538484e-04 -1.3281639922284572e-05 0.0000000000000000e+00  -5.8716574267418773e-04 -1.6529209785719914e-05 0.0000000000000000e+00  -7.1717745444439080e-04 -2.0474429903465814e-05 0.0000000000000000e+00  -8.7153585489158471e-04 -2.5091114163652270e-05 0.0000000000000000e+00  -1.0519249047967801e-03 -3.0003180980129944e-05 0.0000000000000000e+00  -1.2576131028273830e-03 -3.3966094438434462e-05 0.0000000000000000e+00  -1.4837946164126369e-03 -3.3907962808931004e-05 0.0000000000000000e+00  0.0000000000000000e+00 0.0000000000000000e+00 0.0000000000000000e+00  -2.5484179210080202e-05 -6.8165713285819272e-07 0.0000000000000000e+00  -5.2042225681191733e-05 -1.3951318533944239e-06 0.0000000000000000e+00  -8.0801216497696521e-05 -2.1743361714883540e-06 0.0000000000000000e+00  -1.1299962265224212e-04 -3.0576452039158950e-06 0.0000000000000000e+00  -1.5005146657437560e-04 -4.0907811082344828e-06 0.0000000000000000e+00  -1.9362071634170601e-04 -5.3306302062013761e-06 0.0000000000000000e+00  -2.4570889183742935e-04 -6.8505939414824988e-06 0.0000000000000000e+00  -3.0875725743779954e-04 -8.7483940008599597e-06 0.0000000000000000e+00  -3.8576069452525997e-04 -1.1157674876680548e-05 0.0000000000000000e+00  -4.8038043783696209e-04 -1.4265003153949856e-05 0.0000000000000000e+00  -5.9702194107098697e-04 -1.8332748314830681e-05 0.0000000000000000e+00  -7.4080333411509632e-04 -2.3721704462300128e-05 0.0000000000000000e+00  -9.1726767552984803e-04 -3.0882888507122070e-05 0.0000000000000000e+00  -1.1315848940727585e-03 -4.0214521114023120e-05 0.0000000000000000e+00  -1.3868981059740567e-03 -5.1499896691446893e-05 0.0000000000000000e+00  -1.6816135416277518e-03 -6.2346309510712675e-05 0.0000000000000000e+00  0.0000000000000000e+00 0.0000000000000000e+00 0.0000000000000000e+00  -2.3316723617835741e-05 -6.3390901502998377e-07 0.0000000000000000e+00  -4.7662958062155778e-05 -1.2996719560170776e-06 0.0000000000000000e+00  -7.4126699072723132e-05 -2.0315424628934898e-06 0.0000000000000000e+00  -1.0392043949236630e-04 -2.8689500947814933e-06 0.0000000000000000e+00  -1.3845682553763575e-04 -3.8599658478895478e-06 0.0000000000000000e+00  -1.7944188913941394e-04 -5.0660759107370073e-06 0.0000000000000000e+00  -2.2899385384277660e-04 -6.5692459160465748e-06 0.0000000000000000e+00  -2.8979671969622540e-04 -8.4830469211433775e-06 0.0000000000000000e+00  -3.6529767720541229e-04 -1.0971183052813974e-05 0.0000000000000000e+00  -4.5995276818693791e-04 -1.4279784796071362e-05 0.0000000000000000e+00  -5.7950888175220267e-04 -1.8795156168961093e-05 0.0000000000000000e+00  -7.3126644307255938e-04 -2.5145833633047352e-05 0.0000000000000000e+00  -9.2416456632132870e-04 -3.4367867387650452e-05 0.0000000000000000e+00  -1.1683163160215672e-03 -4.8099545904409359e-05 0.0000000000000000e+00  -1.4732656658076912e-03 -6.8494157477970373e-05 0.0000000000000000e+00  -1.8441311284252018e-03 -9.6652512189488653e-05 0.0000000000000000e+00  0.0000000000000000e+00 0.0000000000000000e+00 0.0000000000000000e+00  -2.0121196225714269e-05 -5.5434009920129051e-07 0.0000000000000000e+00  -4.1167715285232541e-05 -1.1381362662690594e-06 0.0000000000000000e+00  -6.4123565371203978e-05 -1.7832310307951097e-06 0.0000000000000000e+00  -9.0099305704640604e-05 -2.5266297027380046e-06 0.0000000000000000e+00  -1.2041235815125514e-04 -3.4139505154519383e-06 0.0000000000000000e+00  -1.5669074347878298e-04 -4.5041557269427499e-06 0.0000000000000000e+00  -2.0101319348316313e-04 -5.8765199780946456e-06 0.0000000000000000e+00  -2.5610365889364032e-04 -7.6416488307046960e-06 0.0000000000000000e+00  -3.2560490012581732e-04 -9.9603496657565489e-06 0.0000000000000000e+00  -4.1446281838197736e-04 -1.3078950490109033e-05 0.0000000000000000e+00  -5.2945519008532050e-04 -1.7401343251679520e-05 0.0000000000000000e+00  -6.7987900941179685e-04 -2.3645834554411974e-05 0.0000000000000000e+00  -8.7832306208745451e-04 -3.3195987342496854e-05 0.0000000000000000e+00  -1.1411714068887157e-03 -4.8860012997860075e-05 0.0000000000000000e+00  -1.4876890723739514e-03 -7.6243806989806923e-05 0.0000000000000000e+00  -1.9347064036407452e-03 -1.2398416171831747e-04 0.0000000000000000e+00  0.0000000000000000e+00 0.0000000000000000e+00 0.0000000000000000e+00  -1.6001840989633105e-05 -4.4535230831026177e-07 0.0000000000000000e+00  -3.2764522611003843e-05 -9.1533293408653138e-07 0.0000000000000000e+00  -5.1101448226958070e-05 -1.4366267052764579e-06 0.0000000000000000e+00  -7.1940504839340815e-05 -2.0403483746647414e-06 0.0000000000000000e+00  -9.6399285302838818e-05 -2.7648986458832665e-06 0.0000000000000000e+00  -1.2588589908569918e-04 -3.6596763178038616e-06 0.0000000000000000e+00  -1.6224137176474839e-04 -4.7900937599932884e-06 0.0000000000000000e+00  -2.0794827254777001e-04 -6.2445847890792290e-06 0.0000000000000000e+00  -2.6644429656894053e-04 -8.1449797303220376e-06 0.0000000000000000e+00  -3.4260185347895032e-04 -1.0663951557466971e-05 0.0000000000000000e+00  -4.4346825903281015e-04 -1.4061593384389376e-05 0.0000000000000000e+00  -5.7940517322073535e-04 -1.8783021987236091e-05 0.0000000000000000e+00  -7.6579911764422884e-04 -2.5763256479416204e-05 0.0000000000000000e+00  -1.0254263056057482e-03 -3.7447013532631900e-05 0.0000000000000000e+00  -1.3908548867490750e-03 -6.1344915952479351e-05 0.0000000000000000e+00  -1.9024606040063383e-03 -1.2399404878823535e-04 0.0000000000000000e+00  0.0000000000000000e+00 0.0000000000000000e+00 0.0000000000000000e+00  -1.1122901790374743e-05 -3.1176885759323506e-07 0.0000000000000000e+00  -2.2787979107390390e-05 -6.4123661695016339e-07 0.0000000000000000e+00  -3.5577252482319321e-05 -1.0075857350483896e-06 0.0000000000000000e+00  -5.0160160830405391e-05 -1.4331652370746199e-06 0.0000000000000000e+00  -6.7352529858364000e-05 -1.9454066749201119e-06 0.0000000000000000e+00  -8.8197810662095269e-05 -2.5790471915335871e-06 0.0000000000000000e+00  -1.1408572343281967e-04 -3.3784533950375180e-06 0.0000000000000000e+00  -1.4693314766067012e-04 -4.3991317430359494e-06 0.0000000000000000e+00  -1.8946948919736748e-04 -5.7056324753773331e-06 0.0000000000000000e+00  -2.4570019399648533e-04 -7.3583248856725813e-06 0.0000000000000000e+00  -3.2167996623124232e-04 -9.3702997585941030e-06 0.0000000000000000e+00  -4.2683804123428093e-04 -1.1591473747560373e-05 0.0000000000000000e+00  -5.7632855738030215e-04 -1.3434583799753417e-05 0.0000000000000000e+00  -7.9542398208768588e-04 -1.3320751822363915e-05 0.0000000000000000e+00  -1.1282972888571169e-03 -7.8226979623008539e-06 0.0000000000000000e+00  -1.6558701816571928e-03 8.9686845627305523e-06 0.0000000000000000e+00  0.0000000000000000e+00 0.0000000000000000e+00 0.0000000000000000e+00  -5.7025482481043228e-06 -1.6050671577987855e-07 0.0000000000000000e+00  -1.1687399097762422e-05 -3.3026061105985388e-07 0.0000000000000000e+00  -1.8258411129094013e-05 -5.1927911124968327e-07 0.0000000000000000e+00  -2.5766955221876797e-05 -7.3920835152319114e-07 0.0000000000000000e+00  -3.4644521905816960e-05 -1.0042445318909600e-06 0.0000000000000000e+00  -4.5448462474733147e-05 -1.3320507010552356e-06 0.0000000000000000e+00  -5.8930259528009109e-05 -1.7442567587162511e-06 0.0000000000000000e+00  -7.6142294978371743e-05 -2.2651785692056477e-06 0.0000000000000000e+00  -9.8611166128650463e-05 -2.9146352701630215e-06 0.0000000000000000e+00  -1.2862730524825771e-04 -3.6826711981020063e-06 0.0000000000000000e+00  -1.6973614017270437e-04 -4.4499227438559662e-06 0.0000000000000000e+00  -2.2755432332523029e-04 -4.7445761181046732e-06 0.0000000000000000e+00  -3.1096619863679942e-04 -3.0079056226781002e-06 0.0000000000000000e+00  -4.3299712023980809e-04 5.5775190479085899e-06 0.0000000000000000e+00  -6.0682087392855712e-04 3.4985691132487345e-05 0.0000000000000000e+00  -8.1934780026823048e-04 1.1990557545888714e-04 0.0000000000000000e+00  0.0000000000000000e+00 0.0000000000000000e+00 0.0000000000000000e+00  0.0000000000000000e+00 0.0000000000000000e+00 0.0000000000000000e+00  0.0000000000000000e+00 0.0000000000000000e+00 0.0000000000000000e+00  0.0000000000000000e+00 0.0000000000000000e+00 0.0000000000000000e+00  0.0000000000000000e+00 0.0000000000000000e+00 0.0000000000000000e+00  0.0000000000000000e+00 0.00000000000