<?xml version="1.0"?>
<VTKFile type="UnstructuredGrid"  version="0.1"  >
<UnstructuredGrid>
<Piece  NumberOfPoints="289" NumberOfCells="512">
<Points>
<DataArray  type="Float64"  NumberOfComponents="3"  format="ascii">0 0 0  0.0625 0 0  0.125 0 0  0.1875 0 0  0.25 0 0  0.3125 0 0  0.375 0 0  0.4375 0 0  0.5 0 0  0.5625 0 0  0.625 0 0  0.6875 0 0  0.75 0 0  0.8125 0 0  0.875 0 0  0.9375 0 0  1 0 0  0 0.0625 0  0.06250661814864029 0.06246219481439645 0  0.1250140122677307 0.06242371108770887 0  0.1875230031576555 0.0623839121202161 0  0.2500346248814136 0.06234229841817884 0  0.312550268888001 0.06229859652687426 0  0.3750718864536109 0.06225287066472603 0  0.4376022910811999 0.06220565846281772 0  0.5001456356905121 0.06215812253442427 0  0.5627082115731332 0.06211219175581659 0  0.6252998827865403 0.06207063547153461 0  0.6879368805609564 0.06203696518791273 0  0.7506477564018637 0.06201498809123977 0  0.8134872214429935 0.0620077507802532 0  0.8765706726297363 0.06201557317813943 0  0.940163307078953 0.0620334967610856 0  1.004898087219944 0.06205820744715565 0  0 0.125 0  0.06251245362054383 0.1249250218826204 0  0.1250263788471935 0.1248486149771914 0  0.1875433387093926 0.124769427192094 0  0.2500653133297943 0.124686364443547 0  0.3125949831511706 0.1245987632091334 0  0.375136126329739 0.124506614507051 0  0.4376942066783373 0.1244108474498215 0  0.5002772809859529 0.1243136648956307 0  0.5628974577582091 0.1242188925841036 0  0.6255733470308794 0.1241322471279919 0  0.6883343587284226 0.1240613383664049 0  0.7512285067538621 0.1240151034949543 0  0.8143366542446789 0.1240023001116324 0  0.8777969781906234 0.1240290109222898 0  0.9418383285650421 0.1240970413663254 0  1.006795958499971 0.1242101949616837 0  0 0.1875 0  0.06251689918841938 0.187389255203856 0  0.1250357861588796 0.1872762032247219 0  0.1875587795972645 0.1871586337355665 0  0.2500885763124052 0.1870346795189856 0  0.3126288441780806 0.1869030587723249 0  0.3751847702771514 0.1867634058951271 0  0.4377638578348798 0.1866167154771641 0  0.5003771139757588 0.1864659099557163 0  0.5630408489986845 0.18631650703841 0  0.6257794276003038 0.1861772911132044 0  0.6886294616349541 0.186060754539578 0  0.7516459867295796 0.1859828158273284 0  0.8149105938939296 0.1859608022994185 0  0.8785387070921808 0.1860073939853754 0  0.9426751338886613 0.1861140521703175 0  1.007454513482964 0.1862022618535533 0  0 0.25 0  0.06251952550082218 0.249855793937613 0  0.1250412969110714 0.2497082361332268 0  0.1875677161679847 0.2495540684692212 0  0.250101854905497 0.2493904026554639 0  0.3126479114653616 0.2492150046092659 0  0.3752118470632237 0.249026710781681 0  0.4378022986502188 0.2488260290584619 0  0.5004318993976092 0.2486159752729047 0  0.5631191724479915 0.2484031771109665 0  0.6258911731661345 0.2481992178020484 0  0.6887869604511698 0.2480220502410335 0  0.7518615733696997 0.2478970100943989 0  0.8151890265563734 0.2478563525529172 0  0.8788602274183394 0.2479351129684469 0  0.9429676700073499 0.2481594654235958 0  1.007567584527883 0.2485244943987371 0  0 0.3125 0  0.06252013617727649 0.3123256971859212 0  0.1250424730845839 0.3121468231924653 0  0.1875693733710501 0.3119588650786682 0  0.2501038741821715 0.3117576238807165 0  0.3126501544449212 0.3115394949547112 0  0.3752141923736494 0.3113019217329603 0  0.437804713260635 0.3110441117232843 0  0.5004345532094406 0.3107681275362595 0  0.5631225757737306 0.3104804853412202 0  0.6258962344239943 0.3101943871695709 0  0.6887946856093724 0.3099326333213208 0  0.7518718660084671 0.3097310078817989 0  0.8151979642058047 0.3096413328878092 0  0.878856343635489 0.3097322422600045 0  0.9429327191476254 0.3100841076163208 0  1.00749948611454 0.3107736261784561 0  0 0.375 0  0.06251879136035601 0.3748001892584413 0  0.1250394314362038 0.3745944445424921 0  0.1875639146078292 0.3743768158800695 0  0.2500948195325558 0.3741415084422617 0  0.3126357289696737 0.3738830926823073 0  0.3751918408423402 0.3735969125651619 0  0.4377708805634491 0.3732798160727729 0  0.5003844624057169 0.3729313918852546 0  0.563050079128291 0.3725559781155446 0  0.6257938881338228 0.372165804576919 0  0.6886543337636279 0.3717856981292619 0  0.751686280927415 0.3714597021487938 0  0.8149646512240044 0.3712594724281379 0  0.8785858231806617 0.3712929954565373 0  0.9426657164236089 0.3717097827534767 0  1.007339117709212 0.3726961014727768 0  0 0.4375 0  0.06251579744289031 0.4372806251884525 0  0.1250328264248836 0.4370538904652446 0  0.1875524244806868 0.4368123053150262 0  0.2500763289070017 0.4365482641604393 0  0.3126069885282601 0.4362541048714672 0  0.3751480530180429 0.4359223548114026 0  0.4377051660101408 0.4355463080788394 0  0.5002872608309825 0.4351211743217164 0  0.5629086597949414 0.4346461970954467 0  0.6255923980335883 0.4341283815460305 0  0.6883752805913763 0.433588800279276 0  0.7513151163873607 0.4330727728552482 0  0.8145001700201981 0.4326651860146719 0  0.8780600999997991 0.4325109993567421 0  0.9421774396095425 0.4328375144884269 0  1.007102652353919 0.4339703345195721 0  0 0.5 0  0.06251166449566085 0.499768409012554 0  0.1250237631943886 0.4995281002339482 0  0.1875367744060521 0.4992700772110199 0  0.2500513095010645 0.4989848598150263 0  0.3125682554059238 0.4986623080343855 0  0.3750890532346461 0.4982915714767341 0  0.4376162477892532 0.4978612939338138 0  0.5001545631793557 0.4973603209717067 0  0.5627129738352856 0.4967793783835288 0  0.6253085929473315 0.496114588077374 0  0.6879737121743585 0.4953743783215155 0  0.7507678939008234 0.4945924179580034 0  0.8137972190584668 0.4938504441275104 0  0.8772417816012746 0.4933149153564157 0  0.9413900114205428 0.4932867914403778 0  1.00667937608807 0.4942514628308457 0  0 0.5625 0  0.06250703567766273 0.5622648635439744 0  0.1250136482324618 0.5620198938697003 0  0.1875193802204927 0.5617548150226153 0  0.2500235866518439 0.5614584415587304 0  0.3125253550228804 0.5611182050677452 0  0.3750234767840588 0.5607196883786738 0  0.4375165814812793 0.5602462351316113 0  0.5000037011729451 0.5596788073188376 0  0.5624858625002388 0.558996488336796 0  0.6249699588530161 0.5581785101199986 0  0.687477346648544 0.5572097022926438 0  0.7500614678958261 0.556093347671999 0  0.812840830027339 0.5548792659851052 0  0.8760535696803151 0.5537199472429338 0  0.940133364996648 0.5529664842598032 0  1.005794506529068 0.5532937195092307 0  0 0.625 0  0.06250259536139559 0.624771060111603 0  0.1250039899525425 0.6245316111855871 0  0.1875028658308248 0.6242705487168196 0  0.2499973913039583 0.6239754452885016 0  0.3124848909976664 0.6236317641544952 0  0.37496143379943 0.6232219209245189 0  0.4374213700623936 0.6227241533403022 0  0.4998569899687376 0.6221112013998669 0  0.5622588438756989 0.621348929793217 0  0.624618159402067 0.6203953900167415 0  0.6869347928730339 0.6192018216034124 0  0.7492381889903061 0.617719813712707 0  0.8116354800807032 0.615926024127446 0  0.8744067197295056 0.6138924377499497 0  0.9381581816779748 0.6119502008822831 0  1.00402034619107 0.6109508705143296 0  0 0.6875 0  0.06249896578852924 0.6872876285941162 0  0.1249961686065709 0.687064699334503 0  0.1874896592492826 0.6868199505195836 0  0.2499767086227517 0.6865404844399084 0  0.3124532491418863 0.6862107206360869 0  0.3749130709188926 0.6858110330484848 0  0.43734666343718 0.6853159022304407 0  0.4997396293272358 0.6846913551145686 0  0.5620708179473944 0.6838914003570907 0  0.6243111170174531 0.6828531573795306 0  0.6864262128051726 0.6814906835072501 0  0.7483930172228715 0.6796891944560001 0  0.8102547128936748 0.677308756021058 0  0.872267047095365 0.6742365803099154 0  0.9351838194979853 0.6706326569232307 0  1.000654370151627 0.6675155763676901 0  0 0.75 0  0.06249660608325051 0.7498145790727937 0  0.1249912057749523 0.7496193164105374 0  0.1874815709657017 0.7494036333917109 0  0.2499645563776954 0.749155188598425 0  0.3124353987202359 0.7488586968157386 0  0.3748866291740084 0.7484943136325948 0  0.4373063263011796 0.7480353122559609 0  0.4996752848754956 0.7474446239843369 0  0.5619625079786756 0.7466695422461342 0  0.6241184773524977 0.7456334019531169 0  0.6860668867204361 0.7442221592646564 0  0.7477013896929124 0.7422623413914941 0  0.8089158469951273 0.7394858990243731 0  0.8697699700627755 0.7354889959362023 0  0.9310929802980819 0.7298150797607214 0  0.9948342023486093 0.7235033456010513 0  0 0.8125 0  0.06249573132265945 0.8123511725999539 0  0.1249895754526917 0.8121940351032679 0  0.1874794345542292 0.8120196027556871 0  0.2499623317832507 0.8118172460716634 0  0.3124337117248079 0.8115735563250859 0  0.3748863016291004 0.8112707484596321 0  0.4373081558769929 0.8108842925512332 0  0.4996791726379726 0.8103792714095076 0  0.561964723159316 0.8097046078475748 0  0.6241038350855533 0.8087836098161613 0  0.6859874784086932 0.8074977493609726 0  0.7474211186449243 0.8056567488611778 0  0.8080736917625762 0.8029375908647803 0  0.867479563599315 0.7987473767597769 0  0.9255531346127888 0.7919088842966253 0  0.987777918015852 0.7800340177247232 0  0 0.875 0  0.062496270527073 0.8748958763441986 0  0.1249911041572971 0.8747857277985963 0  0.187482908753273 0.874663013968753 0  0.2499694248110546 0.8745199224015204 0  0.3124471847421808 0.8743464756995019 0  0.3749106101299668 0.8741292547014293 0  0.4373504017810926 0.8738494784608226 0  0.4997505073177306 0.8734800256241644 0  0.5620821046897813 0.8729807232943628 0  0.6242910435524636 0.872290801931178 0  0.6862703922992104 0.8713166246145401 0  0.7477983419303594 0.8699106551456794 0  0.8083963617674826 0.8678284450387769 0  0.8670161050002942 0.8646050718243873 0  0.9214235662460011 0.8590911250728006 0  0.9673122062039724 0.847720211375622 0  0 0.9375 0  0.06249787787337761 0.9374464262342931 0  0.1249949973806129 0.9373896883706387 0  0.1874905249453239 0.9373263438307743 0  0.2499832849282625 0.9372522580830541 0  0.3124714845978397 0.9371621145415318 0  0.3749522546346992 0.9370487084335345 0  0.4374208230327422 0.9369018795680
[...]
<PointData  Vectors="f_54"> 
<DataArray  type="Float64"  Name="f_54"  NumberOfComponents="3" format="ascii">0.0000000000000000e+00 0.0000000000000000e+00 0.0000000000000000e+00  0.0000000000000000e+00 0.0000000000000000e+00 0.0000000000000000e+00  0.0000000000000000e+00 0.0000000000000000e+00 0.0000000000000000e+00  0.0000000000000000e+00 0.0000000000000000e+00 0.0000000000000000e+00  0.0000000000000000e+00 0.0000000000000000e+00 0.0000000000000000e+00  0.0000000000000000e+00 0.0000000000000000e+00 0.0000000000000000e+00  0.0000000000000000e+00 0.0000000000000000e+00 0.0000000000000000e+00  0.0000000000000000e+00 0.0000000000000000e+00 0.0000000000000000e+00  0.0000000000000000e+00 0.0000000000000000e+00 0.0000000000000000e+00  0.0000000000000000e+00 0.0000000000000000e+00 0.0000000000000000e+00  0.0000000000000000e+00 0.0000000000000000e+00 0.0000000000000000e+00  0.0000000000000000e+00 0.0000000000000000e+00 0.0000000000000000e+00  0.0000000000000000e+00 0.0000000000000000e+00 0.0000000000000000e+00  0.0000000000000000e+00 0.0000000000000000e+00 0.0000000000000000e+00  0.0000000000000000e+00 0.0000000000000000e+00 0.0000000000000000e+00  0.0000000000000000e+00 0.0000000000000000e+00 0.0000000000000000e+00  0.0000000000000000e+00 0.0000000000000000e+00 0.0000000000000000e+00  0.0000000000000000e+00 0.0000000000000000e+00 0.0000000000000000e+00  3.2523131167349407e-06 2.1489535641305738e-07 0.0000000000000000e+00  6.5720236673621366e-06 4.3198247130218123e-07 0.0000000000000000e+00  1.0026110982804954e-05 6.5311876274103304e-07 0.0000000000000000e+00  1.3672530645238868e-05 8.7893864707728474e-07 0.0000000000000000e+00  1.7553889959544823e-05 1.1081192774692170e-06 0.0000000000000000e+00  2.1688619741278437e-05 1.3365190651344684e-06 0.0000000000000000e+00  2.6058569515901436e-05 1.5562115531251189e-06 0.0000000000000000e+00  3.0591639194647860e-05 1.7545164867309111e-06 0.0000000000000000e+00  3.5137353029181279e-05 1.9132511870790049e-06 0.0000000000000000e+00  3.9431478566718503e-05 2.0085862874410886e-06 0.0000000000000000e+00  4.3040865559032144e-05 2.0120649144094843e-06 0.0000000000000000e+00  4.5265534789401058e-05 1.8934915763794025e-06 0.0000000000000000e+00  4.4932133151940906e-05 1.6265880005856220e-06 0.0000000000000000e+00  3.9873318909254740e-05 1.1994314209770319e-06 0.0000000000000000e+00  2.5394046430261279e-05 6.3874327598212209e-07 0.0000000000000000e+00  -1.0925001373305427e-05 9.6277008448776172e-08 0.0000000000000000e+00  0.0000000000000000e+00 0.0000000000000000e+00 0.0000000000000000e+00  6.4339959402193619e-06 4.2738189116229854e-07 0.0000000000000000e+00  1.3007200257999805e-05 8.5974260374634218e-07 0.0000000000000000e+00  1.9858432294476985e-05 1.3014320650823224e-06 0.0000000000000000e+00  2.7110089629161931e-05 1.7544560723252469e-06 0.0000000000000000e+00  3.4856426035907954e-05 2.2170296870926386e-06 0.0000000000000000e+00  4.3146969237957116e-05 2.6818269725836700e-06 0.0000000000000000e+00  5.1963050384920225e-05 3.1339360973308084e-06 0.0000000000000000e+00  6.1184979069981436e-05 3.5486756792212518e-06 0.0000000000000000e+00  7.0546560841642589e-05 3.8896685776127445e-06 0.0000000000000000e+00  7.9571767206512771e-05 4.1079105615121523e-06 0.0000000000000000e+00  8.7483794040161872e-05 4.1429573667330932e-06 0.0000000000000000e+00  9.3065745135573216e-05 3.9275836055430820e-06 0.0000000000000000e+00  9.4427418588922404e-05 3.3968470185754326e-06 0.0000000000000000e+00  8.8585781152362013e-05 2.5002149389270399e-06 0.0000000000000000e+00  7.0727569668039224e-05 1.2071338733532771e-06 0.0000000000000000e+00  3.3336866485007199e-05 -5.3903226144240465e-07 0.0000000000000000e+00  0.0000000000000000e+00 0.0000000000000000e+00 0.0000000000000000e+00  9.4696051421715226e-06 6.3442017160051102e-07 0.0000000000000000e+00  1.9158126171367942e-05 1.2777338103687917e-06 0.0000000000000000e+00  2.9284941915485593e-05 1.9379977747269449e-06 0.0000000000000000e+00  4.0048724778879118e-05 2.6200317661547497e-06 0.0000000000000000e+00  5.1612085827795303e-05 3.3233274505193988e-06 0.0000000000000000e+00  6.4079249623649016e-05 4.0393938498619829e-06 0.0000000000000000e+00  7.7463901963010411e-05 4.7484640909994450e-06 0.0000000000000000e+00  9.1643958509809721e-05 5.4156729678581159e-06 0.0000000000000000e+00  1.0629954111127583e-04 5.9871614109376990e-06 0.0000000000000000e+00  1.2082978941579557e-04 6.3871365422419973e-06 0.0000000000000000e+00  1.3424295794956087e-04 6.5177231902851883e-06 0.0000000000000000e+00  1.4501237032136174e-04 6.2643181293404000e-06 0.0000000000000000e+00  1.5089050638912021e-04 5.5095593619755397e-06 0.0000000000000000e+00  1.4868942304736182e-04 4.1577692992787754e-06 0.0000000000000000e+00  1.3412730580214795e-04 2.1667302329896673e-06 0.0000000000000000e+00  1.0218417042276059e-04 -4.2729518589220868e-07 0.0000000000000000e+00  0.0000000000000000e+00 0.0000000000000000e+00 0.0000000000000000e+00  1.2276447948687157e-05 8.3187212951502615e-07 0.0000000000000000e+00  2.4861361142773006e-05 1.6780902089909342e-06 0.0000000000000000e+00  3.8065639694135677e-05 2.5521016127726139e-06 0.0000000000000000e+00  5.2179627687630527e-05 3.4636177619014012e-06 0.0000000000000000e+00  6.7456634326572442e-05 4.4160350083062512e-06 0.0000000000000000e+00  8.4087679959366776e-05 5.4029407685248488e-06 0.0000000000000000e+00  1.0216379003170025e-04 6.4034435845073703e-06 0.0000000000000000e+00  1.2162174842608521e-04 7.3762197822393814e-06 0.0000000000000000e+00  1.4216912048426348e-04 8.2525530975614761e-06 0.0000000000000000e+00  1.6318496070438876e-04 8.9294376595008971e-06 0.0000000000000000e+00  1.8359459199399368e-04 9.2652399268114779e-06 0.0000000000000000e+00  2.0172160347112938e-04 9.0826216456274140e-06 0.0000000000000000e+00  2.1513175606894497e-04 8.1862158359434418e-06 0.0000000000000000e+00  2.2051354221780059e-04 6.4048735424468288e-06 0.0000000000000000e+00  2.1371718249801278e-04 3.6674414335124694e-06 0.0000000000000000e+00  1.9023479264794458e-04 1.1083997057541067e-07 0.0000000000000000e+00  0.0000000000000000e+00 0.0000000000000000e+00 0.0000000000000000e+00  1.4763018387898750e-05 1.0141154697818401e-06 0.0000000000000000e+00  2.9933647389532149e-05 2.0497735935766245e-06 0.0000000000000000e+00  4.5925227109681591e-05 3.1277700923506266e-06 0.0000000000000000e+00  6.3136207871250093e-05 4.2652624876534923e-06 0.0000000000000000e+00  8.1935721927048626e-05 5.4729987697450163e-06 0.0000000000000000e+00  1.0263900105153050e-04 6.7512302013202738e-06 0.0000000000000000e+00  1.2546803429388669e-04 8.0837445620535408e-06 0.0000000000000000e+00  1.5049211897144013e-04 9.4294570870439627e-06 0.0000000000000000e+00  1.7754269970158214e-04 1.0711231837201756e-05 0.0000000000000000e+00  2.0609790142509952e-04 1.1802403697745859e-05 0.0000000000000000e+00  2.3513570742029910e-04 1.2513410347976373e-05 0.0000000000000000e+00  2.6296265349260356e-04 1.2584868860617947e-05 0.0000000000000000e+00  2.8703969121368720e-04 1.1700141218268700e-05 0.0000000000000000e+00  3.0385163055292742e-04 9.5395915581041878e-06 0.0000000000000000e+00  3.0890300979127924e-04 5.9066701268915767e-06 0.0000000000000000e+00  2.9695581697535429e-04 9.5334006554589199e-07 0.0000000000000000e+00  0.0000000000000000e+00 0.0000000000000000e+00 0.0000000000000000e+00  1.6829603055193199e-05 1.1738665774265902e-06 0.0000000000000000e+00  3.4172591764027317e-05 2.3781249645293758e-06 0.0000000000000000e+00  5.2552793134617825e-05 3.6428489473597166e-06 0.0000000000000000e+00  7.2491044895456514e-05 4.9953741335500824e-06 0.0000000000000000e+00  9.4496576930902477e-05 6.4578134355301638e-06 0.0000000000000000e+00  1.1904758258545804e-04 8.0429155130848748e-06 0.0000000000000000e+00  1.4655535428780085e-04 9.7473213396866611e-06 0.0000000000000000e+00  1.7730480353157093e-04 1.1540955783848938e-05 0.0000000000000000e+00  2.1136291370085620e-04 1.3351048646326582e-05 0.0000000000000000e+00  2.4844674996347385e-04 1.5039508377221184e-05 0.0000000000000000e+00  2.8774597950622505e-04 1.6374027169108969e-05 0.0000000000000000e+00  3.2770410168925316e-04 1.6998303699454923e-05 0.0000000000000000e+00  3.6577967655672270e-04 1.6418118315287043e-05 0.0000000000000000e+00  3.9823001549750217e-04 1.4040107916583833e-05 0.0000000000000000e+00  4.1996555136871681e-04 9.3254388564028845e-06 0.0000000000000000e+00  4.2446582064262570e-04 2.1351035358139821e-06 0.0000000000000000e+00  0.0000000000000000e+00 0.0000000000000000e+00 0.0000000000000000e+00  1.8371521598346208e-05 1.3023018203705219e-06 0.0000000000000000e+00  3.7362812394252123e-05 2.6450176323303480e-06 0.0000000000000000e+00  5.7610165165918925e-05 4.0689843075457512e-06 0.0000000000000000e+00  7.9765158993676480e-05 5.6141435692223734e-06 0.0000000000000000e+00  1.0449602800732832e-04 7.3180071373912259e-06 0.0000000000000000e+00  1.3247881882913519e-04 9.2123658430234196e-06 0.0000000000000000e+00  1.6437184985179846e-04 1.1316962661290531e-05 0.0000000000000000e+00  2.0076410363789636e-04 1.3628073450896551e-05 0.0000000000000000e+00  2.4208483942184380e-04 1.6098823256882439e-05 0.0000000000000000e+00  2.8845904058025240e-04 1.8606787640863597e-05 0.0000000000000000e+00  3.3949407211798045e-04 2.0903923635947784e-05 0.0000000000000000e+00  3.9399222485064604e-04 2.2547024969592260e-05 0.0000000000000000e+00  4.4960760530857950e-04 2.2820296991575750e-05 0.0000000000000000e+00  5.0250073928036893e-04 2.0695420070976299e-05 0.0000000000000000e+00  5.4705065220398894e-04 1.4932105514863308e-05 0.0000000000000000e+00  5.7555896831955756e-04 4.4784344991037455e-06 0.0000000000000000e+00  0.0000000000000000e+00 0.0000000000000000e+00 0.0000000000000000e+00  1.9285248003331263e-05 1.3895585704382846e-06 0.0000000000000000e+00  3.9288156569320125e-05 2.8298068452984768e-06 0.0000000000000000e+00  6.0750105673274018e-05 4.3728835845375168e-06 0.0000000000000000e+00  8.4451654485963318e-05 6.0727968631340183e-06 0.0000000000000000e+00  1.1122811530871954e-04 7.9856021885722116e-06 0.0000000000000000e+00  1.4197748849528104e-04 1.0168180519619047e-05 0.0000000000000000e+00  1.7765410604755151e-04 1.2674268377139767e-05 0.0000000000000000e+00  2.1923680158599275e-04 1.5545191954224103e-05 0.0000000000000000e+00  2.6765395417272203e-04 1.8790579927575249e-05 0.0000000000000000e+00  3.2363991812295773e-04 2.2350629208014529e-05 0.0000000000000000e+00  3.8749130961061694e-04 2.6026042655390082e-05 0.0000000000000000e+00  4.5869637218634725e-04 2.9356472606540371e-05 0.0000000000000000e+00  5.3544424016132620e-04 3.1432448435272842e-05 0.0000000000000000e+00  6.1410120384247581e-04 3.0664163710982436e-05 0.0000000000000000e+00  6.8882561353037397e-04 2.4634038588950145e-05 0.0000000000000000e+00  7.5134930142324759e-04 1.0279356379516744e-05 0.0000000000000000e+00  0.0000000000000000e+00 0.0000000000000000e+00 0.0000000000000000e+00  1.9477342119353223e-05 1.4256574113883258e-06 0.0000000000000000e+00  3.9750005910242724e-05 2.9112013448438222e-06 0.0000000000000000e+00  6.1644773644833182e-05 4.5191620889013121e-06 0.0000000000000000e+00  8.6055086917212443e-05 6.3173449293255218e-06 0.0000000000000000e+00  1.1397436457657664e-04 8.3813881358629408e-06 0.0000000000000000e+00  1.4652693118054718e-04 1.0796868832563438e-05 0.0000000000000000e+00  1.8499124391687879e-04 1.3660058556527609e-05 0.0000000000000000e+00  2.3080417643845600e-04 1.7075177178371775e-05 0.0000000000000000e+00  2.8552503524582006e-04 2.1143234639547769e-05 0.0000000000000000e+00  3.5072241811302753e-04 2.5931598074804694e-05 0.0000000000000000e+00  4.2772711784939309e-04 3.1401180105091133e-05 0.0000000000000000e+00  5.1718056472186867e-04 3.7245559309004018e-05 0.0000000000000000e+00  6.1833712210077768e-04 4.2565226580245922e-05 0.0000000000000000e+00  7.2823324076233531e-04 4.5297151789196728e-05 0.0000000000000000e+00  8.4118996625943900e-04 4.1463884890492152e-05 0.0000000000000000e+00  9.4946772730969940e-04 2.4613154796749566e-05 0.0000000000000000e+00  0.0000000000000000e+00 0.0000000000000000e+00 0.0000000000000000e+00  1.8875678458445937e-05 1.4018077934016322e-06 0.0000000000000000e+00  3.8590809581020022e-05 2.8700192468115310e-06 0.0000000000000000e+00  6.0023611811615995e-05 4.4748327732266534e-06 0.0000000000000000e+00  8.4146441025453587e-05 6.2951901754775690e-06 0.0000000000000000e+00  1.1207858391040086e-04 8.4239952076455605e-06 0.0000000000000000e+00  1.4514487966000336e-04 1.0974330962425648e-05 0.0000000000000000e+00  1.8493860258454877e-04 1.4086843425520694e-05 0.0000000000000000e+00  2.3338103657882477e-04 1.7937876073192799e-05 0.0000000000000000e+00  2.9275769484833901e-04 2.2746077115595683e-05 0.0000000000000000e+00  3.6568715861831847e-04 2.8769676682456605e-05 0.0000000000000000e+00  4.5493711077577265e-04 3.6271073355537186e-05 0.0000000000000000e+00  5.6294396800955218e-04 4.5383994755183271e-05 0.0000000000000000e+00  6.9085600662333383e-04 5.5719383349133199e-05 0.0000000000000000e+00  8.3708359599436646e-04 6.5369983027463294e-05 0.0000000000000000e+00  9.9611775008545613e-04 6.8983521833427340e-05 0.0000000000000000e+00  1.1589718243494170e-03 5.5348069751173979e-05 0.0000000000000000e+00  0.0000000000000000e+00 0.0000000000000000e+00 0.0000000000000000e+00  1.7441892062052436e-05 1.3119473990921472e-06 0.0000000000000000e+00  3.5720788443886029e-05 2.6925384506799387e-06 0.0000000000000000e+00  5.5717904780450941e-05 4.2150471494117403e-06 0.0000000000000000e+00  7.8430951414168619e-05 5.9642251407313195e-06 0.0000000000000000e+00  1.0504488509610545e-04 8.0437984031407339e-06 0.0000000000000000e+00  1.3701897529976034e-04 1.0586498022921984e-05 0.0000000000000000e+00  1.7619525701979716e-04 1.3768189172995735e-05 0.0000000000000000e+00  2.2493013177708713e-04 1.7828457590413758e-05 0.0000000000000000e+00  2.8624037842947601e-04 2.3101021030788684e-05 0.0000000000000000e+00  3.6392767432048579e-04 3.0057474174603672e-05 0.0000000000000000e+00  4.6258359834998292e-04 3.9361747803554917e-05 0.0000000000000000e+00  5.8725073462883865e-04 5.1898295854177295e-05 0.0000000000000000e+00  7.4230487561329926e-04 6.8593451708586143e-05 0.0000000000000000e+00  9.2899718421858080e-04 8.9331771841922491e-05 0.0000000000000000e+00  1.1426763461166922e-03 1.0901004121348495e-04 0.0000000000000000e+00  1.3758382778481782e-03 1.1414726416642702e-04 0.0000000000000000e+00  0.0000000000000000e+00 0.0000000000000000e+00 0.0000000000000000e+00  1.5183329593468029e-05 1.1542492670734145e-06 0.0000000000000000e+00  3.1144318928104539e-05 2.3738680342808873e-06 0.0000000000000000e+00  4.8706704241773395e-05 3.7291255067190801e-06 0.0000000000000000e+00  6.8821927753460289e-05 5.3029782075576807e-06 0.0000000000000000e+00  9.2651720664576142e-05 7.1997159040663540e-06 0.0000000000000000e+00  1.2167749755152493e-04 9.5571065289483283e-06 0.0000000000000000e+00  1.5785038220869491e-04 1.2564599780669583e-05 0.0000000000000000e+00  2.0379877271135436e-04 1.6492239083339871e-05 0.0000000000000000e+00  2.6310974217251477e-04 2.1739376986493454e-05 0.0000000000000000e+00  3.4068538636226490e-04 2.8921770056768425e-05 0.0000000000000000e+00  4.4311623574775402e-04 3.9034540750597775e-05 0.0000000000000000e+00  5.7883891575059908e-04 5.3757362601588153e-05 0.0000000000000000e+00  7.5738924459376638e-04 7.5960609183700891e-05 0.0000000000000000e+00  9.8597512709406535e-04 1.1006115054523972e-04 0.0000000000000000e+00  1.2597813381206204e-03 1.5827705060912913e-04 0.0000000000000000e+00  1.5752846714870796e-03 1.7812576825637069e-04 0.0000000000000000e+00  0.0000000000000000e+00 0.0000000000000000e+00 0.0000000000000000e+00  1.2162243448700892e-05 9.3225877174152144e-07 0.0000000000000000e+00  2.4981121583350989e-05 1.9205673150709140e-06 0.0000000000000000e+00  3.9156015635531358e-05 3.0254442581077766e-06 0.0000000000000000e+00  5.5508556308733825e-05 4.3192994107626207e-06 0.0000000000000000e+00  7.5065793982184674e-05 5.8946187570740887e-06 0.0000000000000000e+00  9.9176803918041566e-05 7.8755307954769433e-06 0.0000000000000000e+00  1.2968444778140351e-04 1.0435131302283668e-05 0.0000000000000000e+00  1.6918588534196538e-04 1.3822895916710536e-05 0.0000000000000000e+00  2.2143264918270006e-04 1.8411237598618376e-05 0.0000000000000000e+00  2.9194019317639239e-04 2.4783078850058579e-05 0.0000000000000000e+00  3.8887641998629685e-04 3.3919387917588234e-05 0.0000000000000000e+00  5.2419662479176465e-04 4.7653589187367344e-05 0.0000000000000000e+00  7.1452165228701311e-04 6.9858780737435389e-05 0.0000000000000000e+00  9.7957603157701359e-04 1.0959615047151391e-04 0.0000000000000000e+00  1.3293223158882769e-03 1.8952872258498426e-04 0.0000000000000000e+00  1.6609247960967112e-03 3.8148347755246367e-04 0.0000000000000000e+00  0.0000000000000000e+00 0.0000000000000000e+00 0.0000000000000000e+00  8.4997325757469986e-06 6.5534475428335119e-07 0.0000000000000000e+00  1.7476577324247212e-05 1.3517589147648635e-06 0.0000000000000000e+00  2.7440993586428812e-05 2.1336887757819906e-06 0.0000000000000000e+00  3.9000612407632316e-05 3.0547114460524474e-06 0.0000000000000000e+00  5.2928973953673406e-05 4.1837300450405092e-06 0.0000000000000000e+00  7.0266090076219413e-05 5.6134569433233979e-06 0.0000000000000000e+00  9.2474683123449364e-05 7.4722435348376893e-06 0.0000000000000000e+00  1.2169377927985274e-04 9.9402616424323103e-06 0.0000000000000000e+00  1.6116451856061761e-04 1.3270322305961720e-05 0.0000000000000000e+00  2.1596353802549477e-04 1.7812108682684825e-05 0.0000000000000000e+00  2.9428231068794758e-04 2.4041516672988301e-05 0.0000000000000000e+00  4.0963281476219656e-04 3.2642235737325091e-05 0.0000000000000000e+00  5.8441586706039518e-04 4.4961623403598639e-05 0.0000000000000000e+00  8.5468164291414243e-04 6.5344751231165656e-05 0.0000000000000000e+00  1.2729520581524650e-03 1.1042482902845131e-04 0.0000000000000000e+00  1.8977938871388414e-03 2.3338537869703403e-04 0.0000000000000000e+00  0.0000000000000000e+00 0.0000000000000000e+00 0.0000000000000000e+00  4.3722940825994435e-06 3.3828357769530413e-07 0.0000000000000000e+00  8.9959876433207723e-06 6.9828993962546329e-07 0.0000000000000000e+00  1.4140865524607702e-05 1.1035497400255498e-06 0.0000000000000000e+00  2.0130815473809270e-05 1.5825202380057101e-06 0.0000000000000000e+00  2.7383090207679195e-05 2.1718466198676734e-06 0.0000000000000000e+00  3.6467356638635475e-05 2.9205933628147236e-06 0.0000000000000000e+00  4.8200671850216268e-05 3.8953430723233101e-06 0.0000000000000000e+00  6.3808554871389649e-05 5.1843897421823663e-06 0.0000000000000000e+00  8.5211092246390750e-05 6.8931141511813611e-06 0.0000000000000000e+00  1.1555232200601501e-04 9.1012360880703290e-06 0.0000000000000000e+00  1.6020813062376718e-04 1.1679648892938534e-05 0.0000000000000000e+00  2.2869070298722234e-04 1.3622372277128159e-05 0.0000000000000000e+00  3.3781742732249832e-04 1.0818121303352549e-05 0.0000000000000000e+00  5.1392179209538351e-04 -1.0287631553092288e-05 0.0000000000000000e+00  7.7708973922894218e-04 -8.2524459548654716e-05 0.0000000000000000e+00  1.0695435186762420e-03 -2.3144692611616757e-04 0.0000000000000000e+00  0.0000000000000000e+00 0.0000000000000000e+00 0.0000000000000000e+00  0.0000000000000000e+00 0.0000000000000000e+00 0.0000000000000000e+00  0.0000000000000000e+00 0.0000000000000000e+00 0.0000000000000000e+00  0.0000000000000000e+00 0.0000000000000000e+00 0.0000000000000000e+00  0.0000000000000000e+00 0.0000000000000000e+00 0.0000000000000000e+00  0.0000000000000000e+00 0.0000000000000000e+00 0.0000000000000000e+00  0.0000000000000000e+00 0.0000000000000000e+00 0.0000000000000000e+00  0.0000000000000000e+00 0.0000000000000000e+00 0.0000000000000000e+00  0.0000000000000000e+00 0.0000000000000000e+00 0.0000000000000000e+00  0.0000000000000000e+00 0.0000000000000000e+00 0.0000000000000000e+00  0.0000000000000000e+00 0.0000000000000000e+00 0.0000000000000000e+00  0.0000000000000000e+00 0.0000000000000000e+00 0.0000000000000000e+00  0.0000