<?xml version="1.0"?>
<VTKFile type="UnstructuredGrid"  version="0.1"  >
<UnstructuredGrid>
<Piece  NumberOfPoints="289" NumberOfCells="512">
<Points>
<DataArray  type="Float64"  NumberOfComponents="3"  format="ascii">0 0 0  0.0625 0 0  0.125 0 0  0.1875 0 0  0.25 0 0  0.3125 0 0  0.375 0 0  0.4375 0 0  0.5 0 0  0.5625 0 0  0.625 0 0  0.6875 0 0  0.75 0 0  0.8125 0 0  0.875 0 0  0.9375 0 0  1 0 0  0 0.0625 0  0.06246186516653945 0.06247815407951538 0  0.124922999591134 0.0624559244994508 0  0.1873826946390738 0.06243295893905431 0  0.2498403848022057 0.06240898779647858 0  0.3122957523970741 0.06238387767615326 0  0.3747488795761857 0.06235769821655397 0  0.4372004736466535 0.0623308029799585 0  0.4996522049684847 0.0623039196626505 0  0.5621072231102171 0.06227823516532904 0  0.6245709737644408 0.06225544575963167 0  0.6870525695486408 0.06223772286817876 0  0.7495672778939849 0.06222753222959629 0  0.8121414006525294 0.06222728722520801 0  0.8748221216887601 0.06223911216753798 0  0.9376945868545945 0.0622664750873646 0  1.000881280485379 0.06232901311380926 0  0 0.125 0  0.06242449141266038 0.1249566794178804 0  0.1248474682044715 0.1249125504887522 0  0.1872674570028379 0.1248668629755582 0  0.2496832549081812 0.1248190223263214 0  0.3120941310457598 0.1247686934351068 0  0.3745001226764414 0.1247159341980384 0  0.4369024770209574 0.1246613632340804 0  0.4993043134982835 0.124606356834712 0  0.5617116237157396 0.124553252132771 0  0.6241348074770249 0.124505501824073 0  0.6865910997389103 0.1244676763594254 0  0.7491085336721431 0.1244451451699092 0  0.8117325351947792 0.1244432180982126 0  0.8745366057700966 0.1244655915904745 0  0.9376381197921881 0.1245122704508692 0  1.001226399118071 0.1245759886777077 0  0 0.1875 0  0.06238872434741498 0.1874360085767487 0  0.1247750370498504 0.1873707091641752 0  0.1871565749806302 0.1873028690739373 0  0.2495313280123932 0.1872314632910839 0  0.3118979102866252 0.1871558202183694 0  0.3742559661092972 0.1870758183911822 0  0.4366067805242657 0.1869921475555119 0  0.4989541902049003 0.1869066382553687 0  0.5613059278858236 0.1868226426211612 0  0.6236755862552305 0.1867454051034582 0  0.6860854497740438 0.1866822782655961 0  0.7485704689689068 0.1866424833821431 0  0.8111834590582768 0.1866358096952105 0  0.8740007085460442 0.1866689300330998 0  0.937124998658814 0.186735935191139 0  1.000681632888868 0.1867932151133009 0  0 0.25 0  0.06235551971116647 0.24991664810079 0  0.1247075795585759 0.2498313905010338 0  0.1870527558445692 0.2497423988241159 0  0.2493879904945624 0.249648070244828 0  0.3117108890071614 0.2495471991049441 0  0.3740201821889904 0.2494392244542208 0  0.4363164349060499 0.2493245824750633 0  0.4986031088215206 0.2492051899807608 0  0.5608881101375771 0.2490850708410658 0  0.6231859634376027 0.2489710976539745 0  0.6855207111859928 0.2488737314948958 0  0.7479294557335423 0.2488074601198922 0  0.8104659555577769 0.2487902904762829 0  0.8732026118074311 0.2488410660034024 0  0.9362276086860586 0.2489726782358241 0  0.9996333078482122 0.2491800260333565 0  0 0.3125 0  0.06232596709762867 0.3123992005982413 0  0.1246472707701305 0.3122957937147379 0  0.1869592461921755 0.3121872304128366 0  0.2492575186610483 0.3120711570219151 0  0.3115382737217522 0.3119455859002652 0  0.3737987077809422 0.3118091662470762 0  0.4360377539267977 0.3116616045360779 0  0.4982572042106733 0.311504295434494 0  0.5604633709843307 0.3113412308127651 0  0.6226694229678098 0.3111802434703976 0  0.6848984482847041 0.3110345854571445 0  0.7471870534902878 0.3109246851689499 0  0.8095888089459368 0.3108795883764476 0  0.872176140597413 0.3109369808494751 0  0.9350390028825195 0.3111398807003397 0  0.9982809451602406 0.3115276078669891 0  0 0.375 0  0.06230128093957894 0.3748843696298166 0  0.1245965778259501 0.3747653433922181 0  0.1868798396379792 0.3746395399941382 0  0.2491451325673386 0.3745036829267347 0  0.3113868202815268 0.3743547319151894 0  0.3735999260987479 0.3741901292812444 0  0.435780783989145 0.3740082313418112 0  0.4979281259088488 0.3738090264764153 0  0.5600447961888574 0.3735952831296916 0  0.6221403082184388 0.3733743163729906 0  0.6842344177289826 0.3731605867762612 0  0.746361702559628 0.3729792865633634 0  0.8085767351690889 0.3728707889002347 0  0.8709588935662335 0.3728951119291178 0  0.9336157994069095 0.373134168642805 0  0.996686397133148 0.3736876825062134 0  0 0.4375 0  0.06228275380004437 0.4373729412725615 0  0.1245581703509054 0.4372416576104334 0  0.1868187526427352 0.4371018682734596 0  0.249056852689029 0.4369492413607202 0  0.3112646964246388 0.4367794382737004 0  0.3734345697986508 0.4365882679238619 0  0.4355592825063739 0.4363720326004271 0  0.4976330927144707 0.4361282001688286 0  0.5596533708495876 0.435856621615803 0  0.6216233971659649 0.4355616396065301 0  0.6835567934354418 0.4352556022196767 0  0.7454840968165362 0.4349644596261903 0  0.8074617361389376 0.4347361045099309 0  0.8695830183980388 0.4346514835669106 0  0.9319899283715536 0.4348365488457749 0  0.9948852165244277 0.4354695581838066 0  0 0.5 0  0.06227167116349192 0.4998657376813847 0  0.124534747723658 0.4997264565628147 0  0.1867803608797716 0.499576989292967 0  0.2489991446296322 0.4994119029521364 0  0.311181042968423 0.4992254073369714 0  0.3733152248249686 0.4990113381403621 0  0.4353902190981652 0.49876328940813 0  0.4973944804072095 0.4984750352298806 0  0.5593177649432282 0.4981415001625912 0  0.621153967411065 0.4977607507005753 0  0.6829064614268316 0.4973378421638536 0  0.7445974340011465 0.4968919133412115 0  0.8062829254871621 0.4964685894197451 0  0.8680745992930003 0.4961599464480022 0  0.930166862372021 0.4961322704782479 0  0.992865327385041 0.4966548870181999 0  0 0.5625 0  0.06226919162501084 0.5623635414825462 0  0.1245287894497335 0.5622214070526297 0  0.1867688013030079 0.5620676678546574 0  0.2489783501356744 0.5618958801068199 0  0.3111452163203258 0.5616988194197182 0  0.373255391818702 0.5614682221059264 0  0.4352927242280683 0.5611945727135526 0  0.4972388455875822 0.5608670350279297 0  0.5590738188062551 0.5604737458832885 0  0.6207783953532557 0.5600029467666985 0  0.6823396069390028 0.5594459573410375 0  0.7437627295056678 0.5588040546611468 0  0.8050942457341684 0.558103264484916 0  0.8664609324985478 0.557423848781209 0  0.9281259761037139 0.5569523269635783 0  0.9905495445444761 0.5570549058097866 0  0 0.625 0  0.06227620189246974 0.6248669955302223 0  0.1245422461470116 0.624727910323737 0  0.1867874618963712 0.6245763118332391 0  0.2489999222537634 0.6244050086959352 0  0.3111657077862247 0.6242056004011409 0  0.3732680437979808 0.6239679410829445 0  0.4352863098645009 0.6236794942053747 0  0.4971950162187486 0.6233245768354496 0  0.5589630890038737 0.6228835592454222 0  0.6205543944888786 0.6223322722565748 0  0.6819317346308226 0.6216423765527128 0  0.7430691893275213 0.6207847734949457 0  0.8039823131812838 0.6197415275800752 0  0.8647913953655013 0.6185396220152494 0  0.9258323769987625 0.6173325176224209 0  0.9878086111760425 0.6165519728695077 0  0 0.6875 0  0.06229316240263522 0.6873764896953874 0  0.1245762028061145 0.6872468567633934 0  0.1868384052103782 0.6871045544643645 0  0.249067518139138 0.6869420905204449 0  0.3112487793119466 0.6867504216811249 0  0.3733636543284528 0.6865181661252174 0  0.4353881635480296 0.6862305350447528 0  0.4972906843500997 0.6858678477660899 0  0.559029243477793 0.6854034487229649 0  0.6205487899069663 0.6848008140939051 0  0.6817803668692474 0.6840097382576529 0  0.7426479304524021 0.6829622095433397 0  0.8030978127780443 0.6815718092924952 0  0.863184513485087 0.6797531898753676 0  0.9232659824846147 0.6775215389817878 0  0.9843239886440789 0.6752784042016056 0  0 0.75 0  0.06231996593406797 0.7498920531892341 0  0.1246305619993157 0.749778387254163 0  0.1869218031896577 0.7496528332998529 0  0.2491820594059947 0.74950819841906 0  0.3113969488913309 0.7493355785674169 0  0.3735478092455292 0.7491234197131246 0  0.4356094821889009 0.7488561674512249 0  0.4975470221409773 0.7485122518699632 0  0.5593107891099452 0.7480609867420943 0  0.6208293432801255 0.7474576509074402 0  0.682000159355634 0.7466354315028 0  0.7426813198072205 0.7454918643908508 0  0.8026991885299479 0.7438662297638055 0  0.8619259988601149 0.7415082614670521 0  0.9205869978032277 0.7380913941009171 0  0.9798519542311247 0.7338294513456824 0  0 0.8125 0  0.06235583656620294 0.8124132749998602 0  0.1247038084788793 0.8123217116109295 0  0.1870354925703055 0.8122200559225468 0  0.2493409381976225 0.8121020950081527 0  0.3116075975694448 0.8119599944980213 0  0.3738187790898856 0.8117833681596835 0  0.4359512704168382 0.8115579003451988 0  0.4979715176765268 0.8112632285853761 0  0.5598292660297637 0.8108695816235598 0  0.6214467046310554 0.8103322405162287 0  0.682699772349732 0.8095819229540469 0  0.743386864703074 0.808506714486997 0  0.8031832201359956 0.8069142179371001 0  0.8616120766133717 0.8044422215017795 0  0.9182694276028784 0.8003246299133808 0  0.9751103922440217 0.7926699210017419 0  0 0.875 0  0.0623992968122243 0.8749392740075187 0  0.1247929207189896 0.8748750337063852 0  0.1871747767243011 0.8748034451352573 0  0.2495375978894825 0.8747199302852198 0  0.3118721046624536 0.8746186445550961 0  0.3741657558427475 0.8744917327171252 0  0.4364007598131992 0.8743282159281883 0  0.4985507221576441 0.8741122764386953 0  0.5605746847862284 0.873820566544257 0  0.6224059388310591 0.8734179401402956 0  0.6839298366954395 0.8728505919050287 0  0.7449373416028019 0.8720345153398834 0  0.8050230759576831 0.8708328274843757 0  0.8633548100692718 0.868994379646695 0  0.9181597899680138 0.865926991146309 0  0.9657380884655447 0.859738097875698 0  0 0.9375 0  0.06244822380477074 0.9374687331767971 0  0.1248934810301974 0.9374356174493039 0  0.187332580842036 0.9373986302789022 0  0.2497617035465957 0.9373553430825567 0  0.3121759460734516 0.9373026337297123 0  0.3745686405099268 0.9372362749925492 0  0.4369302556848613 0.937
[...]
<PointData  Vectors="f_54"> 
<DataArray  type="Float64"  Name="f_54"  NumberOfComponents="3" format="ascii">0.0000000000000000e+00 0.0000000000000000e+00 0.0000000000000000e+00  0.0000000000000000e+00 0.0000000000000000e+00 0.0000000000000000e+00  0.0000000000000000e+00 0.0000000000000000e+00 0.0000000000000000e+00  0.0000000000000000e+00 0.0000000000000000e+00 0.0000000000000000e+00  0.0000000000000000e+00 0.0000000000000000e+00 0.0000000000000000e+00  0.0000000000000000e+00 0.0000000000000000e+00 0.0000000000000000e+00  0.0000000000000000e+00 0.0000000000000000e+00 0.0000000000000000e+00  0.0000000000000000e+00 0.0000000000000000e+00 0.0000000000000000e+00  0.0000000000000000e+00 0.0000000000000000e+00 0.0000000000000000e+00  0.0000000000000000e+00 0.0000000000000000e+00 0.0000000000000000e+00  0.0000000000000000e+00 0.0000000000000000e+00 0.0000000000000000e+00  0.0000000000000000e+00 0.0000000000000000e+00 0.0000000000000000e+00  0.0000000000000000e+00 0.0000000000000000e+00 0.0000000000000000e+00  0.0000000000000000e+00 0.0000000000000000e+00 0.0000000000000000e+00  0.0000000000000000e+00 0.0000000000000000e+00 0.0000000000000000e+00  0.0000000000000000e+00 0.0000000000000000e+00 0.0000000000000000e+00  0.0000000000000000e+00 0.0000000000000000e+00 0.0000000000000000e+00  0.0000000000000000e+00 0.0000000000000000e+00 0.0000000000000000e+00  2.0356456372284705e-06 9.4285903398142881e-08 0.0000000000000000e+00  4.1006943838765326e-06 1.9010869375017740e-07 0.0000000000000000e+00  6.2211763681453929e-06 2.8884952479422443e-07 0.0000000000000000e+00  8.4130262514654287e-06 3.9142155094838272e-07 0.0000000000000000e+00  1.0675289604907496e-05 4.9795334772023095e-07 0.0000000000000000e+00  1.2981038254500504e-05 6.0737467019840362e-07 0.0000000000000000e+00  1.5264953147520995e-05 7.1688563109396723e-07 0.0000000000000000e+00  1.7406086439988023e-05 8.2131470680643568e-07 0.0000000000000000e+00  1.9203186149726458e-05 9.1241754066505558e-07 0.0000000000000000e+00  2.0336901632096353e-05 9.7824760866137594e-07 0.0000000000000000e+00  2.0304478081279891e-05 1.0028580404625137e-06 0.0000000000000000e+00  1.8286687625877215e-05 9.6683700521784066e-07 0.0000000000000000e+00  1.2825530166455411e-05 8.4989363666627379e-07 0.0000000000000000e+00  9.1808853175361120e-07 6.3974645249933285e-07 0.0000000000000000e+00  -2.4856402364429390e-05 3.6609135180655869e-07 0.0000000000000000e+00  -8.6360010419603202e-05 2.4898580384691566e-07 0.0000000000000000e+00  0.0000000000000000e+00 0.0000000000000000e+00 0.0000000000000000e+00  4.0379683837297209e-06 1.8685327298945327e-07 0.0000000000000000e+00  8.1393168822624830e-06 3.7699099089611372e-07 0.0000000000000000e+00  1.2361300892838876e-05 5.7341641615545842e-07 0.0000000000000000e+00  1.6742486296873494e-05 7.7826719447172867e-07 0.0000000000000000e+00  2.1290063338001935e-05 9.9221471757245126e-07 0.0000000000000000e+00  2.5962808172702232e-05 1.2136589667550324e-06 0.0000000000000000e+00  3.0647858778032254e-05 1.4376675212095573e-06 0.0000000000000000e+00  3.5128983346240644e-05 1.6546459838770432e-06 0.0000000000000000e+00  3.9042943119302981e-05 1.8488067977444587e-06 0.0000000000000000e+00  4.1817933884655422e-05 1.9966393501253718e-06 0.0000000000000000e+00  4.2581630954190768e-05 2.0657673087654863e-06 0.0000000000000000e+00  4.0011162592878729e-05 2.0147067645473386e-06 0.0000000000000000e+00  3.2065770535221375e-05 1.7936571884147186e-06 0.0000000000000000e+00  1.5499593234171099e-05 1.3435571742302524e-06 0.0000000000000000e+00  -1.4868356066170406e-05 5.7522119794269043e-07 0.0000000000000000e+00  -6.5956911121067621e-05 -7.7212970933012174e-07 0.0000000000000000e+00  0.0000000000000000e+00 0.0000000000000000e+00 0.0000000000000000e+00  5.9717039104490341e-06 2.7589516169394958e-07 0.0000000000000000e+00  1.2049331199004810e-05 5.5721551511383646e-07 0.0000000000000000e+00  1.8331080616279512e-05 8.4903889012435808e-07 0.0000000000000000e+00  2.4890674686022885e-05 1.1553198145166273e-06 0.0000000000000000e+00  3.1760398647001932e-05 1.4780729770217806e-06 0.0000000000000000e+00  3.8908007632734249e-05 1.8162323094283743e-06 0.0000000000000000e+00  4.6205098111405863e-05 2.1640781646254658e-06 0.0000000000000000e+00  5.3384327320759915e-05 2.5091593733014340e-06 0.0000000000000000e+00  5.9982691132041194e-05 2.8297313632745307e-06 0.0000000000000000e+00  6.5267956377086883e-05 3.0919264471939450e-06 0.0000000000000000e+00  6.8145483978846100e-05 3.2472018506498188e-06 0.0000000000000000e+00  6.7044606538472554e-05 3.2310641296443118e-06 0.0000000000000000e+00  5.9795225908662639e-05 2.9645708296412318e-06 0.0000000000000000e+00  4.3557497579579071e-05 2.3609240287264413e-06 0.0000000000000000e+00  1.5061374735391877e-05 1.3445623767877585e-06 0.0000000000000000e+00  -2.8026487307596794e-05 -7.0666199527175002e-08 0.0000000000000000e+00  0.0000000000000000e+00 0.0000000000000000e+00 0.0000000000000000e+00  7.7932037830139973e-06 3.5922033513544481e-07 0.0000000000000000e+00  1.5746057669396400e-05 7.2651200631693398e-07 0.0000000000000000e+00  2.4010476030812346e-05 1.1096199615903919e-06 0.0000000000000000e+00  3.2712051201376195e-05 1.5151196274525731e-06 0.0000000000000000e+00  4.1931029156936586e-05 1.9474984470275213e-06 0.0000000000000000e+00  5.1675603472133006e-05 2.4077894668523194e-06 0.0000000000000000e+00  6.1844535928808980e-05 2.8915644271814990e-06 0.0000000000000000e+00  7.2176097828144628e-05 3.3860918803098648e-06 0.0000000000000000e+00  8.2180933344748184e-05 3.8665312856953209e-06 0.0000000000000000e+00  9.1058432873426727e-05 4.2912470257636683e-06 0.0000000000000000e+00  9.7601089791879880e-05 4.5968037650775626e-06 0.0000000000000000e+00  1.0010241110342664e-04 4.6940613573702737e-06 0.0000000000000000e+00  9.6308847032374064e-05 4.4679915942974662e-06 0.0000000000000000e+00  8.3511206458015079e-05 3.7848030694709145e-06 0.0000000000000000e+00  5.8980950955662835e-05 2.5080756857143228e-06 0.0000000000000000e+00  2.1105291928877785e-05 5.0792216853614410e-07 0.0000000000000000e+00  0.0000000000000000e+00 0.0000000000000000e+00 0.0000000000000000e+00  9.4479149532920512e-06 4.3414583383970519e-07 0.0000000000000000e+00  1.9121072948481906e-05 8.7952265881453688e-07 0.0000000000000000e+00  2.9238887171344442e-05 1.3471659872730279e-06 0.0000000000000000e+00  3.9997485091761251e-05 1.8471724328708505e-06 0.0000000000000000e+00  5.1551375131915577e-05 2.3878478818785830e-06 0.0000000000000000e+00  6.3986120295346310e-05 2.9743088934442032e-06 0.0000000000000000e+00  7.7278205178010596e-05 3.6062384092953203e-06 0.0000000000000000e+00  9.1238030656059786e-05 4.2744128637041384e-06 0.0000000000000000e+00  1.0543252388784619e-04 4.9555720362416647e-06 0.0000000000000000e+00  1.1908629222200974e-04 5.6053119937450681e-06 0.0000000000000000e+00  1.3096647829329412e-04 6.1491842286653997e-06 0.0000000000000000e+00  1.3926956201202985e-04 6.4734782018322200e-06 0.0000000000000000e+00  1.4155260742207634e-04 6.4197054810361747e-06 0.0000000000000000e+00  1.3479074669662180e-04 5.7906033804944725e-06 0.0000000000000000e+00  1.1569214552574131e-04 4.3789623255822373e-06 0.0000000000000000e+00  8.1420813832423872e-05 2.0301660558329953e-06 0.0000000000000000e+00  0.0000000000000000e+00 0.0000000000000000e+00 0.0000000000000000e+00  1.0869803839989596e-05 4.9749404491297986e-07 0.0000000000000000e+00  2.2040599815853113e-05 1.0097674078238627e-06 0.0000000000000000e+00  3.3811569744645734e-05 1.5516549061936696e-06 0.0000000000000000e+00  4.6467214547386144e-05 2.1376008914819677e-06 0.0000000000000000e+00  6.0263007520731707e-05 2.7810954990349835e-06 0.0000000000000000e+00  7.5401214657726143e-05 3.4935401782605045e-06 0.0000000000000000e+00  9.1992005063738040e-05 4.2821464801701114e-06 0.0000000000000000e+00  1.0999388874912124e-04 5.1462595289877208e-06 0.0000000000000000e+00  1.2912689925530409e-04 6.0712249366473037e-06 0.0000000000000000e+00  1.4875289308872414e-04 7.0186843044755057e-06 0.0000000000000000e+00  1.6772189083284262e-04 7.9123136293865958e-06 0.0000000000000000e+00  1.8419463118112420e-04 8.6192915619641437e-06 0.0000000000000000e+00  1.9547274334276581e-04 8.9316494299965129e-06 0.0000000000000000e+00  1.9789876272560482e-04 8.5598542375103694e-06 0.0000000000000000e+00  1.8691500954942815e-04 7.1633149093033143e-06 0.0000000000000000e+00  1.5735467206671642e-04 4.4522405190328145e-06 0.0000000000000000e+00  0.0000000000000000e+00 0.0000000000000000e+00 0.0000000000000000e+00  1.1983169767184685e-05 5.4572245041939654e-07 0.0000000000000000e+00  2.4348820254929773e-05 1.1098881702944335e-06 0.0000000000000000e+00  3.7483764529392851e-05 1.7113542917746497e-06 0.0000000000000000e+00  5.1774565845053955e-05 2.3694428359044484e-06 0.0000000000000000e+00  6.7600950139354838e-05 3.1039148495210011e-06 0.0000000000000000e+00  8.5319535872086573e-05 3.9344881888912812e-06 0.0000000000000000e+00  1.0523198816629847e-04 4.8794767706696463e-06 0.0000000000000000e+00  1.2752925125267183e-04 5.9527773971021734e-06 0.0000000000000000e+00  1.5220061926678790e-04 7.1578355937759171e-06 0.0000000000000000e+00  1.7889390291095638e-04 8.4763330887257177e-06 0.0000000000000000e+00  2.0671290048697926e-04 9.8483358227551730e-06 0.0000000000000000e+00  2.3394482442203293e-04 1.1140457864837168e-05 0.0000000000000000e+00  2.5772909224772476e-04 1.2101955311407947e-05 0.0000000000000000e+00  2.7371275169948717e-04 1.2321057033196826e-05 0.0000000000000000e+00  2.7576978618018880e-04 1.1221123375802309e-05 0.0000000000000000e+00  2.5582748881150010e-04 8.1722710977275075e-06 0.0000000000000000e+00  0.0000000000000000e+00 0.0000000000000000e+00 0.0000000000000000e+00  1.2707132592275767e-05 5.7519983272874219e-07 0.0000000000000000e+00  2.5876772630266692e-05 1.1722115703593387e-06 0.0000000000000000e+00  3.9983749693082583e-05 1.8136819461241259e-06 0.0000000000000000e+00  5.5522426565047405e-05 2.5237928804112378e-06 0.0000000000000000e+00  7.3011836542524023e-05 3.3289930023734416e-06 0.0000000000000000e+00  9.2993005938905884e-05 4.2585744416841512e-06 0.0000000000000000e+00  1.1601218447592583e-04 5.3448009243891951e-06 0.0000000000000000e+00  1.4257965949611895e-04 6.6218858159139976e-06 0.0000000000000000e+00  1.7308786839027231e-04 8.1222567329284509e-06 0.0000000000000000e+00  2.0766465763118782e-04 9.8668410707518529e-06 0.0000000000000000e+00  2.4592922663170676e-04 1.1843101458135398e-05 0.0000000000000000e+00  2.8661456019958814e-04 1.3960310441029540e-05 0.0000000000000000e+00  3.2703256887643125e-04 1.5968853108369267e-05 0.0000000000000000e+00  3.6240388997158917e-04 1.7339776023568831e-05 0.0000000000000000e+00  3.8515009606404518e-04 1.7145385045172392e-05 0.0000000000000000e+00  3.8423303524084891e-04 1.4076707936680967e-05 0.0000000000000000e+00  0.0000000000000000e+00 0.0000000000000000e+00 0.0000000000000000e+00  1.2962832351482921e-05 5.8261657550052482e-07 0.0000000000000000e+00  2.6457050877828295e-05 1.1896167837185893e-06 0.0000000000000000e+00  4.1035517005678228e-05 1.8466238787973272e-06 0.0000000000000000e+00  5.7294179548306856e-05 2.5818937648041621e-06 0.0000000000000000e+00  7.5892453763937691e-05 3.4279004893359822e-06 0.0000000000000000e+00  9.7570072918195708e-05 4.4232410679467536e-06 0.0000000000000000e+00  1.2315517605821942e-04 5.6149081463986373e-06 0.0000000000000000e+00  1.5355313947732765e-04 7.0607384138397191e-06 0.0000000000000000e+00  1.8969663560857835e-04 8.8310907197078306e-06 0.0000000000000000e+00  2.3242291030877116e-04 1.1006758069107087e-05 0.0000000000000000e+00  2.8222336411339564e-04 1.3665127677539479e-05 0.0000000000000000e+00  3.3878642101751067e-04 1.6835883957545159e-05 0.0000000000000000e+00  4.0024348302967311e-04 2.0388828800747635e-05 0.0000000000000000e+00  4.6207462311580324e-04 2.3798253760508329e-05 0.0000000000000000e+00  5.1581003198240881e-04 2.5761475330758623e-05 0.0000000000000000e+00  5.4795648641967315e-04 2.3845576048293951e-05 0.0000000000000000e+00  0.0000000000000000e+00 0.0000000000000000e+00 0.0000000000000000e+00  1.2683000712557404e-05 5.6547985533698402e-07 0.0000000000000000e+00  2.5943787063543864e-05 1.1566135525502818e-06 0.0000000000000000e+00  4.0390749527062924e-05 1.8005836337123545e-06 0.0000000000000000e+00  5.6699703747268204e-05 2.5280688841969328e-06 0.0000000000000000e+00  7.5651530002748935e-05 3.3755575887795962e-06 0.0000000000000000e+00  9.8173276186555380e-05 4.3884961170789229e-06 0.0000000000000000e+00  1.2538072870524274e-04 5.6258283510287665e-06 0.0000000000000000e+00  1.5861530769541098e-04 7.1667185764417565e-06 0.0000000000000000e+00  1.9945763657897117e-04 9.1203432418931439e-06 0.0000000000000000e+00  2.4967994640378346e-04 1.1638799361506655e-05 0.0000000000000000e+00  3.1106340939953797e-04 1.4928892621757964e-05 0.0000000000000000e+00  3.8494884412607582e-04 1.9243890733127741e-05 0.0000000000000000e+00  4.7131648394833014e-04 2.4795163644485931e-05 0.0000000000000000e+00  5.6716310431940270e-04 3.1431842741988638e-05 0.0000000000000000e+00  6.6417145119368384e-04 3.7827828918049423e-05 0.0000000000000000e+00  7.4625713179151288e-04 4.0057321482757048e-05 0.0000000000000000e+00  0.0000000000000000e+00 0.0000000000000000e+00 0.0000000000000000e+00  1.1823042193688278e-05 5.2260526429789505e-07 0.0000000000000000e+00  2.4236304417324115e-05 1.0704402939250393e-06 0.0000000000000000e+00  3.7868039231898801e-05 1.6703486726535303e-06 0.0000000000000000e+00  5.3434643655629491e-05 2.3530422622213991e-06 0.0000000000000000e+00  7.1794742591252416e-05 3.1557477602749835e-06 0.0000000000000000e+00  9.4015796917907207e-05 4.1259962441011987e-06 0.0000000000000000e+00  1.2145699176570490e-04 5.3275403787208546e-06 0.0000000000000000e+00  1.5586948912590275e-04 6.8502596918101742e-06 0.0000000000000000e+00  1.9950705944700412e-04 8.8275510624932041e-06 0.0000000000000000e+00  2.5521973150757489e-04 1.1467351917070917e-05 0.0000000000000000e+00  3.2645684839589686e-04 1.5105646497916511e-05 0.0000000000000000e+00  4.1700996714522565e-04 2.0287214536762024e-05 0.0000000000000000e+00  5.3014841191143121e-04 2.7838356933975733e-05 0.0000000000000000e+00  6.6654788561488164e-04 3.8718669660819389e-05 0.0000000000000000e+00  8.2047600344986181e-04 5.2885856146143623e-05 0.0000000000000000e+00  9.7592671165986429e-04 6.6863395618048981e-05 0.0000000000000000e+00  0.0000000000000000e+00 0.0000000000000000e+00 0.0000000000000000e+00  1.0372150341376181e-05 4.5449138166410382e-07 0.0000000000000000e+00  2.1303452655984384e-05 9.3192108396849584e-07 0.0000000000000000e+00  3.3394854732177572e-05 1.4566882312471474e-06 0.0000000000000000e+00  4.7347260538745281e-05 2.0568052107027883e-06 0.0000000000000000e+00  6.4027163263538568e-05 2.7663020348304134e-06 0.0000000000000000e+00  8.4553952389594518e-05 3.6286136181625769e-06 0.0000000000000000e+00  1.1042010201811191e-04 4.7018902352442370e-06 0.0000000000000000e+00  1.4365812447843980e-04 6.0683100503679840e-06 0.0000000000000000e+00  1.8706861984920151e-04 7.8522659933532999e-06 0.0000000000000000e+00  2.4451498934347551e-04 1.0259014914459161e-05 0.0000000000000000e+00  3.2125386196137247e-04 1.3660636265879771e-05 0.0000000000000000e+00  4.2416053380348674e-04 1.8786709138085109e-05 0.0000000000000000e+00  5.6142237970533511e-04 2.7119530050403003e-05 0.0000000000000000e+00  7.4059638680665414e-04 4.1544934153481817e-05 0.0000000000000000e+00  9.6261330091075548e-04 6.6273971508670055e-05 0.0000000000000000e+00  1.2132675744411022e-03 9.3700084100316325e-05 0.0000000000000000e+00  0.0000000000000000e+00 0.0000000000000000e+00 0.0000000000000000e+00  8.3624230816915397e-06 3.6347347038768740e-07 0.0000000000000000e+00  1.7204266737172162e-05 7.4582666612755488e-07 0.0000000000000000e+00  2.7045054854123169e-05 1.1670578161250793e-06 0.0000000000000000e+00  3.8502210665333734e-05 1.6499833745846951e-06 0.0000000000000000e+00  5.2358794034044369e-05 2.2218930771404745e-06 0.0000000000000000e+00  6.9658835138392539e-05 2.9165298843623250e-06 0.0000000000000000e+00  9.1848101943628959e-05 3.7765710423727654e-06 0.0000000000000000e+00  1.2098778112690319e-04 4.8571300580871555e-06 0.0000000000000000e+00  1.6008291101805239e-04 6.2322661901904401e-06 0.0000000000000000e+00  2.1358535924881906e-04 8.0120420510576794e-06 0.0000000000000000e+00  2.8814186381369820e-04 1.0397014524094401e-05 0.0000000000000000e+00  3.9361599509475848e-04 1.3859913642492517e-05 0.0000000000000000e+00  5.4416450803696512e-04 1.9736487684112388e-05 0.0000000000000000e+00  7.5820444008646473e-04 3.2083195371432348e-05 0.0000000000000000e+00  1.0527361983721851e-03 6.3727209608048375e-05 0.0000000000000000e+00  1.4086239076584934e-03 1.6486425768698481e-04 0.0000000000000000e+00  0.0000000000000000e+00 0.0000000000000000e+00 0.0000000000000000e+00  5.8736625664168767e-06 2.5360847162505268e-07 0.0000000000000000e+00  1.2099741025266563e-05 5.2060937764740588e-07 0.0000000000000000e+00  1.9062634278075908e-05 8.1509729828993555e-07 0.0000000000000000e+00  2.7225859642163623e-05 1.1529444234174508e-06 0.0000000000000000e+00  3.7189008492490828e-05 1.5525667010669946e-06 0.0000000000000000e+00  4.9771312534800708e-05 2.0352652719667811e-06 0.0000000000000000e+00  6.6141487745946905e-05 2.6242397450513258e-06 0.0000000000000000e+00  8.8027693941107352e-05 3.3399933743952011e-06 0.0000000000000000e+00  1.1806746113098141e-04 4.1867288247327432e-06 0.0000000000000000e+00  1.6040478389093920e-04 5.1178694422580270e-06 0.0000000000000000e+00  2.2172557329641618e-04 5.9581618387516162e-06 0.0000000000000000e+00  3.1306125325966688e-04 6.2545325334196550e-06 0.0000000000000000e+00  4.5287009095418176e-04 5.0894985945050882e-06 0.0000000000000000e+00  6.7186241383379738e-04 1.2463723985196453e-06 0.0000000000000000e+00  1.0180063322584266e-03 -4.7319449432741190e-06 0.0000000000000000e+00  1.5492853174151864e-03 -2.1783009341204542e-06 0.0000000000000000e+00  0.0000000000000000e+00 0.0000000000000000e+00 0.0000000000000000e+00  3.0318142476804373e-06 1.3033177152304292e-07 0.0000000000000000e+00  6.2508476732633942e-06 2.6760499877680773e-07 0.0000000000000000e+00  9.8622208343809905e-06 4.1908277304353492e-07 0.0000000000000000e+00  1.4115672457272625e-05 5.9283647555468940e-07 0.0000000000000000e+00  1.9338545867110021e-05 7.9792855354586069e-07 0.0000000000000000e+00  2.5985540031472248e-05 1.0439959180404186e-06 0.0000000000000000e+00  3.4718641184761354e-05 1.3390662323505055e-06 0.0000000000000000e+00  4.6541703137860274e-05 1.6823383413579847e-06 0.0000000000000000e+00  6.3035848828283333e-05 2.0426645775958666e-06 0.0000000000000000e+00  8.6783847348212781e-05 2.2959135169266691e-06 0.0000000000000000e+00  1.2214656281496887e-04 2.0419790690258691e-06 0.0000000000000000e+00  1.7664937446339993e-04 6.6638476739167362e-08 0.0000000000000000e+00  2.6312834114332816e-04 -7.2167197347789456e-06 0.0000000000000000e+00  4.0116593570893269e-04 -2.9891029982359212e-05 0.0000000000000000e+00  6.0818202889882558e-04 -9.2120798733054258e-05 0.0000000000000000e+00  8.5300137308186460e-04 -2.2585736755247415e-04 0.0000000000000000e+00  0.0000000000000000e+00 0.0000000000000000e+00 0.0000000000000000e+00  0.0000000000000000e+00 0.0000000000000000e+00 0.0000000000000000e+00  0.0000000000000000e+00 0.0000000000000000e+00 0.0000000000000000e+00  0.0000000000000000e+00 0.0000000000000000e+00 0.0000000000000000e+00  0.0000000000000000e+00 0.0000000000000000e+00 0.0000000000000000e+00  0.0000000000000000e+00 0.0000000000000000e+00 0.0000000000000000e+00  0.0000000000000000e+00 0.0000000000000000e+00 0.0000000000000000e+00  0.0000000000000000e+00 0.0000000000000000e+00 0.0000000000000000e+00  0.0000000000000000e+00 0.0000000000000000e+00 0.0000000000000000e+00  0.0000000000000000e+00 0.0000000000000000e+00 0.0000000000000000e+00  0.0000000000000000e+00 0.0000000000000000e+00 0.0000000000000000e+00  0.0000000000000000e+00 0.0000000000000000e+00 0.0000000000000000e+00 