<?xml version="1.0"?>
<VTKFile type="UnstructuredGrid"  version="0.1"  >
<UnstructuredGrid>
<Piece  NumberOfPoints="289" NumberOfCells="512">
<Points>
<DataArray  type="Float64"  NumberOfComponents="3"  format="ascii">0 0 0  0.0625 0 0  0.125 0 0  0.1875 0 0  0.25 0 0  0.3125 0 0  0.375 0 0  0.4375 0 0  0.5 0 0  0.5625 0 0  0.625 0 0  0.6875 0 0  0.75 0 0  0.8125 0 0  0.875 0 0  0.9375 0 0  1 0 0  0 0.0625 0  0.06257767731052996 0.06249215665476845 0  0.1251576188359772 0.062484143173166 0  0.1877420971223071 0.06247579828277272 0  0.2503333594839589 0.06246698214632124 0  0.312933589292161 0.06245759147210179 0  0.3755448332743352 0.06244757979019831 0  0.4381688819791387 0.06243698405263888 0  0.5008070926939449 0.06242595756753645 0  0.5634601545315184 0.06241480682793112 0  0.6261278290030873 0.06240402506344597 0  0.6888087986086974 0.06239430664705918 0  0.7515010498598588 0.06238650988274001 0  0.8142041175348348 0.06238149655972267 0  0.8769273754088035 0.06237964752414032 0  0.9397178161330443 0.06237933987274044 0  1.002750020032713 0.06237218599897696 0  0 0.125 0  0.06265315391982929 0.1249844808324733 0  0.1253108599568815 0.1249686110080283 0  0.1879776985621379 0.124952055855817 0  0.2506582274676588 0.1249345199406899 0  0.3133569209405202 0.1249157756501887 0  0.3760780436512097 0.1248957026342183 0  0.4388254321911482 0.124874341168015 0  0.5016021570570579 0.1248519608805199 0  0.5644100459794981 0.1248291424587363 0  0.6272490771497552 0.1248068623297535 0  0.6901167180685269 0.12478655751768 0  0.7530074127568508 0.1247701325631315 0  0.8159125450764927 0.1247598783165858 0  0.8788207268712631 0.1247584374113106 0  0.9417139804260131 0.1247698749897495 0  1.004534085574006 0.1248069258451144 0  0 0.1875 0  0.06272413505754393 0.1874771539909134 0  0.125455128821553 0.1874537583794493 0  0.188199907689636 0.1874292832023082 0  0.2509654251058322 0.1874032481745564 0  0.3137586072617956 0.187375261143529 0  0.3765862066036937 0.1873450736599667 0  0.4394545202298016 0.1873126598319688 0  0.5023689217809751 0.1872783236719831 0  0.5653331479081943 0.1872428365920345 0  0.6283482744027562 0.1872075976888879 0  0.6914113031884748 0.187174789519032 0  0.7545132091864655 0.1871474593614354 0  0.8176359839651297 0.1871293572949553 0  0.8807471594734252 0.1871240837355404 0  0.9437876538722449 0.1871320998170106 0  1.00664587124147 0.1871400440926895 0  0 0.25 0  0.06278831325470227 0.2499703758198826 0  0.1255857829642373 0.2499399802919525 0  0.1884016977220529 0.249908060192103 0  0.2512454859271134 0.2498739112477335 0  0.3141267076255305 0.2498369203788495 0  0.3770549366781548 0.2497966312615732 0  0.4400394757045803 0.2497528436193803 0  0.503088826790777 0.2497057579594816 0  0.5662098139506561 0.2496561771374403 0  0.6294062130125488 0.2496057712070084 0  0.6926766739440116 0.2495573963579124 0  0.7560115760711762 0.2495154198908428 0  0.8193881520538364 0.2494859173308386 0  0.8827626778225695 0.2494764413106654 0  0.9460581073189317 0.2494948528110787 0  1.009147375928375 0.2495471708782095 0  0 0.3125 0  0.06284339410164531 0.3124643685009666 0  0.1256981761710647 0.3124277221925852 0  0.1885759585011675 0.3123890562565902 0  0.2514886781731935 0.3123473994835821 0  0.314448683446789 0.3123018514413944 0  0.3774687087534107 0.3122516476342135 0  0.4405616724363964 0.312196267643055 0  0.5037402021523616 0.3121356062556699 0  0.5670157496384348 0.3120702335108978 0  0.6303970922233243 0.3120017749101832 0  0.693887921281347 0.3119334438687711 0  0.7574830741797504 0.3118707461684008 0  0.8211627872722826 0.3118223352867641 0  0.8848842789789306 0.311800910571475 0  0.9485705978385441 0.3118239290095458 0  1.012099463398232 0.3119138343731054 0  0 0.375 0  0.06288715167616175 0.3749593755264486 0  0.1257877653035515 0.3749174791375898 0  0.1887156453612603 0.3748730333433229 0  0.2516851775852811 0.3748247620900051 0  0.3147115615888667 0.3747714115162863 0  0.3778109522067509 0.3747117997035758 0  0.4410004467272513 0.3746449137505123 0  0.5042978205496226 0.3745700816973693 0  0.567720861348999 0.3744872605537096 0  0.6312860742988348 0.3743975011669654 0  0.6950064208767581 0.3743036761775849 0  0.7588876127392025 0.3742115855042119 0  0.8229223502373662 0.3741315718691828 0  0.8870819229800536 0.3740807535819249 0  0.9513051407455234 0.3740858413772652 0  1.015486121881136 0.3741860993259399 0  0 0.4375 0  0.06291751838112704 0.437455653572866 0  0.1258502907703967 0.4374097804068378 0  0.1888140507816609 0.4373608254785147 0  0.2518254273691922 0.4373071863539327 0  0.314902370213361 0.4372472050006523 0  0.3780645294343287 0.437179183760391 0  0.4413335449367751 0.4371014438837836 0  0.504733167758322 0.4370124572602884 0  0.568289084530052 0.436911102341133 0  0.6320282389557378 0.436797128518172 0  0.6959773331274522 0.4366719659624675 0  0.7601600442428893 0.4365400967239965 0  0.8245923287426368 0.4364113065002183 0  0.8892750791148104 0.4363042344123028 0  0.9541834944212596 0.4362516332320869 0  1.019252924884605 0.4363074758328727 0  0 0.5 0  0.06293270882106321 0.4999534565862326 0  0.1258820312648374 0.4999051573889962 0  0.1888652035811308 0.499853290294358 0  0.2519007003390893 0.4997959338424658 0  0.3150088834476465 0.4997310087675987 0  0.3782126759040783 0.4996562417158713 0  0.4415382503364105 0.4995691546090016 0  0.5050157006250853 0.4994671053935403 0  0.5686796297673811 0.4993474282320334 0  0.6325695329470491 0.4992077615431863 0  0.6967297742981207 0.4990467245224501 0  0.7612088394856851 0.4988652285884498 0  0.8260573789859117 0.4986689151637889 0  0.8913243160446173 0.4984724951561966 0  0.9570499677477593 0.4983070043571267 0  1.023254850593198 0.4982307386931392 0  0 0.5625 0  0.06293137074998632 0.5624530123803033 0  0.1258801195365754 0.5624040949097439 0  0.1888643779248114 0.5623512315084765 0  0.2519038448888762 0.5622922292567966 0  0.3150206637401807 0.5622246227262288 0  0.3782404125596798 0.5621455718414952 0  0.4415932475580585 0.5620517562464944 0  0.5051152384697294 0.5619392771328179 0  0.5688499341941539 0.5618035939742663 0  0.6328501985114373 0.5616395574002542 0  0.6971803676330488 0.5614416686952602 0  0.7619188132535019 0.561204837790046 0  0.8271610346230508 0.5609261919856795 0  0.8930233492391974 0.5606089917347646 0  0.9596468438822077 0.5602703767416516 0  1.027200403645111 0.5599546370753652 0  0 0.625 0  0.06291274878686996 0.6249544936157285 0  0.1258428901661321 0.6249069695707072 0  0.1888086677220047 0.6248552971145764 0  0.2518301548114563 0.6247971065936749 0  0.3149303280910011 0.6247296472237803 0  0.3781363491471599 0.6246496159060275 0  0.4414811511378146 0.6245529453837244 0  0.5050054565095062 0.6244345395580048 0  0.5687604004252491 0.6242879460022739 0  0.6328110239512862 0.624104965712424 0  0.6972410809296539 0.6238752313402122 0  0.762159973149526 0.6235858743915296 0  0.8277133410478912 0.6232216478410642 0  0.8940999450766208 0.6227665026730291 0  0.9615983825689958 0.6222089161139726 0  1.030606269584623 0.6215540452670617 0  0 0.6875 0  0.06287683977048425 0.6874579867572733 0  0.1257702151764323 0.6874139825677544 0  0.1886975553491589 0.6873658651050604 0  0.2516782593317805 0.6873112292628928 0  0.3147348949485314 0.6872472087071412 0  0.377894688662694 0.6871702470423876 0  0.4411914583682814 0.6870757914605038 0  0.5046682017278492 0.6869578708341544 0  0.56838065431239 0.6868085034770008 0  0.63240231763285 0.6866168541501111 0  0.696831838514351 0.6863680217039129 0  0.7618044823557107 0.6860412920206054 0  0.8275114495191644 0.6856076947607704 0  0.894235161924128 0.6850270795765268 0  0.962416074522197 0.68424693132496 0  1.032770789472244 0.6832104650650371 0  0 0.75 0  0.06282451395142803 0.7499634640627868 0  0.1256637723802362 0.749925097885846 0  0.1885333829902404 0.7498829351448471 0  0.2514508932739861 0.7498347128670014 0  0.3144370061403685 0.749777676750352 0  0.3775171379450584 0.7497083214924409 0  0.4407235106700428 0.7496220273472005 0  0.5040980564519213 0.7495125345519009 0  0.5676965547572458 0.7493711645572814 0  0.6315946722850604 0.7491856403441803 0  0.6958970772954962 0.7489382534672238 0  0.7607520006288344 0.7486029174636748 0  0.8263769507773626 0.7481402212975677 0  0.8931111501678847 0.7474888462534957 0  0.9615373780037433 0.7465517142275163 0  1.032759842001033 0.7451901560707628 0  0 0.8125 0  0.06275757543457894 0.812470764333513 0  0.1255271884804444 0.8124399985368377 0  0.1883216270261432 0.8124060484818604 0  0.2511553891386553 0.8123669873417605 0  0.3140457805592038 0.8123204316492166 0  0.3770143564472911 0.8122632894218215 0  0.4400889110818099 0.8121913976237278 0  0.5033063190608346 0.8120989829413104 0  0.5667166909838227 0.8119778411314692 0  0.6303895631612421 0.8118160648983805 0  0.6944232830614648 0.8115960342680658 0  0.7589596889361802 0.8112911534704719 0  0.824209005516486 0.8108602813076852 0  0.8905014293497322 0.8102373363935322 0  0.9584361205404036 0.8093092079791505 0  1.029455160957252 0.8078612797300933 0  0 0.875 0  0.06267873974787959 0.8749795876377179 0  0.1253660072870122 0.8749580726144328 0  0.188070886739379 0.8749342574929709 0  0.2508037432162349 0.8749067351433342 0  0.3135770605053355 0.8748737445564683 0  0.3764065634604222 0.8748329697899443 0  0.4393128023213693 0.8747812449646887 0  0.5023234708018794 0.8747141070821335 0  0.5654768799137977 0.8746251039032462 0  0.6288272316184871 0.874504709702341 0  0.6924526148932322 0.8743386194728758 0  0.7564668381773794 0.8741050682118402 0  0.8210358883361816 0.8737705835556955 0  0.8863992235901514 0.8732827958604301 0  0.9529133176602445 0.8725558789858296 0  1.021419393488512 0.8714373917375098 0  0 0.9375 0  0.06259151652414442 0.9374895073644637 0  0.1251874542413619 0.9374784369960133 0  0.187792531112261 0.9374661597365317 0  0.2504121527204748 0.9374519322284925 0  0.3130528680591199 0.937434817401808 0  0.3757229892530273 0.9374135722307185 0  0.4384334820494787 0.9373864807
[...]
<PointData  Vectors="f_54"> 
<DataArray  type="Float64"  Name="f_54"  NumberOfComponents="3" format="ascii">0.0000000000000000e+00 0.0000000000000000e+00 0.0000000000000000e+00  0.0000000000000000e+00 0.0000000000000000e+00 0.0000000000000000e+00  0.0000000000000000e+00 0.0000000000000000e+00 0.0000000000000000e+00  0.0000000000000000e+00 0.0000000000000000e+00 0.0000000000000000e+00  0.0000000000000000e+00 0.0000000000000000e+00 0.0000000000000000e+00  0.0000000000000000e+00 0.0000000000000000e+00 0.0000000000000000e+00  0.0000000000000000e+00 0.0000000000000000e+00 0.0000000000000000e+00  0.0000000000000000e+00 0.0000000000000000e+00 0.0000000000000000e+00  0.0000000000000000e+00 0.0000000000000000e+00 0.0000000000000000e+00  0.0000000000000000e+00 0.0000000000000000e+00 0.0000000000000000e+00  0.0000000000000000e+00 0.0000000000000000e+00 0.0000000000000000e+00  0.0000000000000000e+00 0.0000000000000000e+00 0.0000000000000000e+00  0.0000000000000000e+00 0.0000000000000000e+00 0.0000000000000000e+00  0.0000000000000000e+00 0.0000000000000000e+00 0.0000000000000000e+00  0.0000000000000000e+00 0.0000000000000000e+00 0.0000000000000000e+00  0.0000000000000000e+00 0.0000000000000000e+00 0.0000000000000000e+00  0.0000000000000000e+00 0.0000000000000000e+00 0.0000000000000000e+00  0.0000000000000000e+00 0.0000000000000000e+00 0.0000000000000000e+00  2.0156364594429597e-06 -1.0545883681831013e-07 0.0000000000000000e+00  4.1160094242445566e-06 -2.1510334920804401e-07 0.0000000000000000e+00  6.3905972192144370e-06 -3.3330413529549498e-07 0.0000000000000000e+00  8.9375801093626660e-06 -4.6474228933528964e-07 0.0000000000000000e+00  1.1868993951956992e-05 -6.1455345947061157e-07 0.0000000000000000e+00  1.5316994581994339e-05 -7.8844366647442839e-07 0.0000000000000000e+00  1.9442081841091834e-05 -9.9274402733306053e-07 0.0000000000000000e+00  2.4445016845048503e-05 -1.2343489501026808e-06 0.0000000000000000e+00  3.0586424280738345e-05 -1.5204634404913874e-06 0.0000000000000000e+00  3.8224089694669794e-05 -1.8581222436250264e-06 0.0000000000000000e+00  4.7894818905197992e-05 -2.2537516631485925e-06 0.0000000000000000e+00  6.0517739292406275e-05 -2.7144740565257418e-06 0.0000000000000000e+00  7.7954125176082803e-05 -3.2588268966628958e-06 0.0000000000000000e+00  1.0469460185581577e-04 -3.9693977483740289e-06 0.0000000000000000e+00  1.5339671775489182e-04 -5.2265809757841147e-06 0.0000000000000000e+00  2.6480435753659505e-04 -8.7532862862583977e-06 0.0000000000000000e+00  0.0000000000000000e+00 0.0000000000000000e+00 0.0000000000000000e+00  3.9511941977293923e-06 -2.0697510989661231e-07 0.0000000000000000e+00  8.0685079123357400e-06 -4.2220722330364496e-07 0.0000000000000000e+00  1.2527307941999884e-05 -6.5432840861440917e-07 0.0000000000000000e+00  1.7520001864386566e-05 -9.1261404180189071e-07 0.0000000000000000e+00  2.3266025556888349e-05 -1.2072938783865065e-06 0.0000000000000000e+00  3.0023745668928358e-05 -1.5498226449899405e-06 0.0000000000000000e+00  3.8105477436631471e-05 -1.9530495269819302e-06 0.0000000000000000e+00  4.7897755481491987e-05 -2.4311682086521006e-06 0.0000000000000000e+00  5.9891160870681434e-05 -2.9992341998661705e-06 0.0000000000000000e+00  7.4729021957994920e-05 -3.6718840455340344e-06 0.0000000000000000e+00  9.3295649276722522e-05 -4.4606193406519210e-06 0.0000000000000000e+00  1.1688859831615108e-04 -5.3682841210699389e-06 0.0000000000000000e+00  1.4755933588927108e-04 -6.3761672756718716e-06 0.0000000000000000e+00  1.8871471961164695e-04 -7.4025099390317472e-06 0.0000000000000000e+00  2.4565119411194212e-04 -8.1233285743756950e-06 0.0000000000000000e+00  3.2247295644208842e-04 -7.0906342531257242e-06 0.0000000000000000e+00  0.0000000000000000e+00 0.0000000000000000e+00 0.0000000000000000e+00  5.7248916498969153e-06 -3.0045591561713771e-07 0.0000000000000000e+00  1.1689929341077419e-05 -6.1296232607488938e-07 0.0000000000000000e+00  1.8148462977406683e-05 -9.5013606464550885e-07 0.0000000000000000e+00  2.5378361108863501e-05 -1.3255950160568890e-06 0.0000000000000000e+00  3.3696216628792328e-05 -1.7544706332050631e-06 0.0000000000000000e+00  4.3473908510052306e-05 -2.2539017192658808e-06 0.0000000000000000e+00  5.5158556788337342e-05 -2.8434445684260712e-06 0.0000000000000000e+00  6.9297172135387051e-05 -3.5452519989394806e-06 0.0000000000000000e+00  8.6567672282028468e-05 -4.3837173455966015e-06 0.0000000000000000e+00  1.0781818616583559e-04 -5.3839874328971186e-06 0.0000000000000000e+00  1.3411528317986657e-04 -6.5682112081714489e-06 0.0000000000000000e+00  1.6679280786676025e-04 -7.9474466358578608e-06 0.0000000000000000e+00  2.0745369561531551e-04 -9.5058632335014256e-06 0.0000000000000000e+00  2.5773492747968948e-04 -1.1175041940244638e-05 0.0000000000000000e+00  3.1821421394452322e-04 -1.2822202459763147e-05 0.0000000000000000e+00  3.8489395074574936e-04 -1.4470902414198452e-05 0.0000000000000000e+00  0.0000000000000000e+00 0.0000000000000000e+00 0.0000000000000000e+00  7.2624934113386203e-06 -3.8209587392266867e-07 0.0000000000000000e+00  1.4828197154262259e-05 -7.7958576805576956e-07 0.0000000000000000e+00  2.3016693839642707e-05 -1.2086113685346738e-06 0.0000000000000000e+00  3.2178352829183651e-05 -1.6866825395269648e-06 0.0000000000000000e+00  4.2712059395010313e-05 -2.2334220016282581e-06 0.0000000000000000e+00  5.5085623131602936e-05 -2.8713575275988984e-06 0.0000000000000000e+00  6.9859640012980110e-05 -3.6267326493074477e-06 0.0000000000000000e+00  8.7715120305819597e-05 -4.5302318696754272e-06 0.0000000000000000e+00  1.0948386188019438e-04 -5.6173561070012874e-06 0.0000000000000000e+00  1.3617705494453224e-04 -6.9278520797657065e-06 0.0000000000000000e+00  1.6899883349124636e-04 -8.5029365856517169e-06 0.0000000000000000e+00  2.0931016152404979e-04 -1.0377804349410059e-05 0.0000000000000000e+00  2.5845917152249353e-04 -1.2564737301592240e-05 0.0000000000000000e+00  3.1729223564461585e-04 -1.5018707491406705e-05 0.0000000000000000e+00  3.8500196368948227e-04 -1.7570432032325997e-05 0.0000000000000000e+00  4.5693733826791442e-04 -1.9773668866108176e-05 0.0000000000000000e+00  0.0000000000000000e+00 0.0000000000000000e+00 0.0000000000000000e+00  8.5009382872714536e-06 -4.4855098603968594e-07 0.0000000000000000e+00  1.7354164469768930e-05 -9.1521692820592529e-07 0.0000000000000000e+00  2.6930534242692716e-05 -1.4190130099931376e-06 0.0000000000000000e+00  3.7636463276671952e-05 -1.9806615888057112e-06 0.0000000000000000e+00  4.9934466210897632e-05 -2.6235739759151042e-06 0.0000000000000000e+00  6.4366874806189172e-05 -3.3749835414959939e-06 0.0000000000000000e+00  8.1583584461886841e-05 -4.2672800132484636e-06 0.0000000000000000e+00  1.0237397812979689e-04 -5.3395721426698468e-06 0.0000000000000000e+00  1.2770130498788624e-04 -6.6394286212491961e-06 0.0000000000000000e+00  1.5873336711245045e-04 -8.2245330661418832e-06 0.0000000000000000e+00  1.9685377280148552e-04 -1.0163454583687974e-05 0.0000000000000000e+00  2.4361892993624072e-04 -1.2533490228933650e-05 0.0000000000000000e+00  3.0059247707014183e-04 -1.5410780082535629e-05 0.0000000000000000e+00  3.6894362774172773e-04 -1.8842012961690654e-05 0.0000000000000000e+00  4.4867746944154838e-04 -2.2774750293992526e-05 0.0000000000000000e+00  5.3750760050276568e-04 -2.6899706317321296e-05 0.0000000000000000e+00  0.0000000000000000e+00 0.0000000000000000e+00 0.0000000000000000e+00  9.3913574554160058e-06 -4.9711140932723631e-07 0.0000000000000000e+00  1.9167807258859685e-05 -1.0142801577544130e-06 0.0000000000000000e+00  2.9734073309108957e-05 -1.5725641432076286e-06 0.0000000000000000e+00  4.1533387623514656e-05 -2.1949851634794598e-06 0.0000000000000000e+00  5.5069982954668551e-05 -2.9077063084456441e-06 0.0000000000000000e+00  7.0935534000709887e-05 -3.7414731190051636e-06 0.0000000000000000e+00  8.9840979802959382e-05 -4.7334708647336828e-06 0.0000000000000000e+00  1.1265487449521419e-04 -5.9298183337347323e-06 0.0000000000000000e+00  1.4044831768291369e-04 -7.3890131971000416e-06 0.0000000000000000e+00  1.7454364952011140e-04 -9.1867456229855628e-06 0.0000000000000000e+00  2.1655787349153123e-04 -1.1422512078708547e-05 0.0000000000000000e+00  2.6842025866931888e-04 -1.4228090094237345e-05 0.0000000000000000e+00  3.3232647647257524e-04 -1.7776370347709985e-05 0.0000000000000000e+00  4.1057662626297947e-04 -2.2284424505093023e-05 0.0000000000000000e+00  5.0526010420116191e-04 -2.7993563125361142e-05 0.0000000000000000e+00  6.1785303180878664e-04 -3.5087728670197631e-05 0.0000000000000000e+00  0.0000000000000000e+00 0.0000000000000000e+00 0.0000000000000000e+00  9.9013291383162355e-06 -5.2585596267098492e-07 0.0000000000000000e+00  2.0202897901845416e-05 -1.0728172049048705e-06 0.0000000000000000e+00  3.1324376476645513e-05 -1.6630165772909021e-06 0.0000000000000000e+00  4.3724668588033817e-05 -2.3206702046095490e-06 0.0000000000000000e+00  5.7925165407882241e-05 -3.0733548853799542e-06 0.0000000000000000e+00  7.4537776882211795e-05 -3.9536254587049842e-06 0.0000000000000000e+00  9.4300103650143171e-05 -5.0012088008288618e-06 0.0000000000000000e+00  1.1812075227215008e-04 -6.2661742113137384e-06 0.0000000000000000e+00  1.4713845269145228e-04 -7.8137806923455118e-06 0.0000000000000000e+00  1.8279898610715922e-04 -9.7322459091912619e-06 0.0000000000000000e+00  2.2695334875625614e-04 -1.2145628174790344e-05 0.0000000000000000e+00  2.8197824280419619e-04 -1.5235527480840435e-05 0.0000000000000000e+00  3.5091584757610596e-04 -1.9277330003707017e-05 0.0000000000000000e+00  4.3762771464240147e-04 -2.4698215660552133e-05 0.0000000000000000e+00  5.4697137220340801e-04 -3.2161467689489146e-05 0.0000000000000000e+00  6.8506508011868100e-04 -4.2665766427133448e-05 0.0000000000000000e+00  0.0000000000000000e+00 0.0000000000000000e+00 0.0000000000000000e+00  1.0016210678323601e-05 -5.3376519763484912e-07 0.0000000000000000e+00  2.0429842627621643e-05 -1.0887362195069565e-06 0.0000000000000000e+00  3.1656221260282777e-05 -1.6870902978297596e-06 0.0000000000000000e+00  4.4148056386543809e-05 -2.3530358543673336e-06 0.0000000000000000e+00  5.8417830389660808e-05 -3.1140550355525463e-06 0.0000000000000000e+00  7.5065402966456983e-05 -4.0024840865990110e-06 0.0000000000000000e+00  9.4814053662326241e-05 -5.0576848741284448e-06 0.0000000000000000e+00  1.1855992155346117e-04 -6.3292664985940207e-06 0.0000000000000000e+00  1.4744263975757080e-04 -7.8822383119262689e-06 0.0000000000000000e+00  1.8294942240042414e-04 -9.8058562393865136e-06 0.0000000000000000e+00  2.2707148328377842e-04 -1.2229770083453417e-05 0.0000000000000000e+00  2.8254063667103373e-04 -1.5354905020089817e-05 0.0000000000000000e+00  3.5318440221746044e-04 -1.9514165556535674e-05 0.0000000000000000e+00  4.4444782161151309e-04 -2.5292355376151064e-05 0.0000000000000000e+00  5.6414039953846880e-04 -3.3758607493431554e-05 0.0000000000000000e+00  7.2350036046444233e-04 -4.6899383124689762e-05 0.0000000000000000e+00  0.0000000000000000e+00 0.0000000000000000e+00 0.0000000000000000e+00  9.7393815404197851e-06 -5.2077066172621655e-07 0.0000000000000000e+00  1.9856300163355283e-05 -1.0619236980593729e-06 0.0000000000000000e+00  3.0743435290402973e-05 -1.6446816141358871e-06 0.0000000000000000e+00  4.2826337783506643e-05 -2.2920800135633039e-06 0.0000000000000000e+00  5.6583018363661398e-05 -3.0300388559430499e-06 0.0000000000000000e+00  7.2568301882685246e-05 -3.8886776320035913e-06 0.0000000000000000e+00  9.1446419846981174e-05 -4.9040495506879199e-06 0.0000000000000000e+00  1.1403785477109647e-04 -6.1206163221057191e-06 0.0000000000000000e+00  1.4139115099021790e-04 -7.5951138523605220e-06 0.0000000000000000e+00  1.7489890689512713e-04 -9.4032347935736382e-06 0.0000000000000000e+00  2.1649195222646082e-04 -1.1652456265752835e-05 0.0000000000000000e+00  2.6896975092026930e-04 -1.4509103563173300e-05 0.0000000000000000e+00  3.3655962469175525e-04 -1.8259638900420327e-05 0.0000000000000000e+00  4.2583645789212056e-04 -2.3455020860227894e-05 0.0000000000000000e+00  5.4715919869879881e-04 -3.1252568693516789e-05 0.0000000000000000e+00  7.1678395649948717e-04 -4.4204038445438679e-05 0.0000000000000000e+00  0.0000000000000000e+00 0.0000000000000000e+00 0.0000000000000000e+00  9.0912727182584798e-06 -4.8772750624670930e-07 0.0000000000000000e+00  1.8525245114842079e-05 -9.9418662686377765e-07 0.0000000000000000e+00  2.8656072875711594e-05 -1.5387689500746255e-06 0.0000000000000000e+00  3.9864002051864758e-05 -2.1423439784634239e-06 0.0000000000000000e+00  5.2570310874661896e-05 -2.8280677760489582e-06 0.0000000000000000e+00  6.7255382092957567e-05 -3.6222822701630868e-06 0.0000000000000000e+00  8.4482576497194446e-05 -4.5555325251096806e-06 0.0000000000000000e+00  1.0493309938683129e-04 -5.6637223362328470e-06 0.0000000000000000e+00  1.2946228992132691e-04 -6.9894239060711563e-06 0.0000000000000000e+00  1.5919852635252896e-04 -8.5834146326960980e-06 0.0000000000000000e+00  1.9572759000265646e-04 -1.0506922811088131e-05 0.0000000000000000e+00  2.4144713669705376e-04 -1.2837007230175920e-05 0.0000000000000000e+00  3.0025055519955214e-04 -1.5685354558196181e-05 0.0000000000000000e+00  3.7881291664144479e-04 -1.9269492142895407e-05 0.0000000000000000e+00  4.8886671423737163e-04 -2.4170740125251597e-05 0.0000000000000000e+00  6.5084240296115912e-04 -3.2191980690738019e-05 0.0000000000000000e+00  0.0000000000000000e+00 0.0000000000000000e+00 0.0000000000000000e+00  8.1071861355257706e-06 -4.3631396946660501e-07 0.0000000000000000e+00  1.6510399087526104e-05 -8.8903090075022295e-07 0.0000000000000000e+00  2.5513053674304467e-05 -1.3750212337755944e-06 0.0000000000000000e+00  3.5436585488936898e-05 -1.9122567465472958e-06 0.0000000000000000e+00  4.6629561116901028e-05 -2.5203409621933064e-06 0.0000000000000000e+00  5.9477256222802476e-05 -3.2209861096030672e-06 0.0000000000000000e+00  7.4412419595623199e-05 -4.0383253686815681e-06 0.0000000000000000e+00  9.1929234777591337e-05 -4.9987851463608153e-06 0.0000000000000000e+00  1.1260590454636104e-04 -6.1298535647436366e-06 0.0000000000000000e+00  1.3715000383087217e-04 -7.4561590988063207e-06 0.0000000000000000e+00  1.6650249315379329e-04 -8.9891099768827606e-06 0.0000000000000000e+00  2.0208909450217705e-04 -1.0701476402080552e-05 0.0000000000000000e+00  2.4643044194298840e-04 -1.2468542178313360e-05 0.0000000000000000e+00  3.0458253283601399e-04 -1.3944493874349930e-05 0.0000000000000000e+00  3.8731671993946228e-04 -1.4363361425702868e-05 0.0000000000000000e+00  5.1724333019850766e-04 -1.2518709571755587e-05 0.0000000000000000e+00  0.0000000000000000e+00 0.0000000000000000e+00 0.0000000000000000e+00  6.8341181742855852e-06 -3.6887853364899450e-07 0.0000000000000000e+00  1.3909429288404876e-05 -7.5132446854249680e-07 0.0000000000000000e+00  2.1470754107166631e-05 -1.1612016933356538e-06 0.0000000000000000e+00  2.9773005890945610e-05 -1.6131290155537600e-06 0.0000000000000000e+00  3.9084483451568140e-05 -2.1227861997222987e-06 0.0000000000000000e+00  4.9687664240808584e-05 -2.7070953080900449e-06 0.0000000000000000e+00  6.1875598491034346e-05 -3.3841201219422204e-06 0.0000000000000000e+00  7.5940988440683057e-05 -4.1723262502694378e-06 0.0000000000000000e+00  9.2153985916384418e-05 -5.0883513990224869e-06 0.0000000000000000e+00  1.1072516257550644e-04 -6.1411525480193073e-06 0.0000000000000000e+00  1.3175785810417705e-04 -7.3168830656408804e-06 0.0000000000000000e+00  1.5522950590463600e-04 -8.5387810303275573e-06 0.0000000000000000e+00  1.8117032869159312e-04 -9.5564342474100892e-06 0.0000000000000000e+00  2.1062573261916426e-04 -9.6284660721318923e-06 0.0000000000000000e+00  2.4916184328872262e-04 -6.6017733597990982e-06 0.0000000000000000e+00  3.1656390687378403e-04 5.5139144818575753e-06 0.0000000000000000e+00  0.0000000000000000e+00 0.0000000000000000e+00 0.0000000000000000e+00  5.3270395720616606e-06 -2.8826606474713594e-07 0.0000000000000000e+00  1.0835887077064061e-05 -5.8691973039286875e-07 0.0000000000000000e+00  1.6709180270403411e-05 -9.0651547866691007e-07 0.0000000000000000e+00  2.3133350253628123e-05 -1.2580864120972755e-06 0.0000000000000000e+00  3.0297516858999977e-05 -1.6533083679690960e-06 0.0000000000000000e+00  3.8387731799482845e-05 -2.1045540107064551e-06 0.0000000000000000e+00  4.7572467957633958e-05 -2.6247415888446978e-06 0.0000000000000000e+00  5.7971792589505323e-05 -3.2268036824132036e-06 0.0000000000000000e+00  6.9596098202777821e-05 -3.9224282836899508e-06 0.0000000000000000e+00  8.2228047690590029e-05 -4.7192750213094827e-06 0.0000000000000000e+00  9.5200048513248116e-05 -5.6144614893245701e-06 0.0000000000000000e+00  1.0698979878333088e-04 -6.5769934568429366e-06 0.0000000000000000e+00  1.1455520857633699e-04 -7.4909947228312782e-06 0.0000000000000000e+00  1.1259625982548265e-04 -7.9381209383830696e-06 0.0000000000000000e+00  9.4712552968448995e-05 -6.2222427708833387e-06 0.0000000000000000e+00  6.7759189143999657e-05 5.9190545027398995e-06 0.0000000000000000e+00  0.0000000000000000e+00 0.0000000000000000e+00 0.0000000000000000e+00  3.6452551343254679e-06 -1.9765306694294337e-07 0.0000000000000000e+00  7.4113015790344450e-06 -4.0230585439791485e-07 0.0000000000000000e+00  1.1418319497217746e-05 -6.2103936618955023e-07 0.0000000000000000e+00  1.5786618109224683e-05 -8.6120893287389883e-07 0.0000000000000000e+00  2.0633599427795822e-05 -1.1305310989222746e-06 0.0000000000000000e+00  2.6065753880011886e-05 -1.4371163485758428e-06 0.0000000000000000e+00  3.2161023986683366e-05 -1.7894466465681677e-06 0.0000000000000000e+00  3.8932376139416230e-05 -2.1963737615669783e-06 0.0000000000000000e+00  4.6253882273191428e-05 -2.6674752245020214e-06 0.0000000000000000e+00  5.3709649804242007e-05 -3.2149103998286710e-06 0.0000000000000000e+00  6.0278068822040861e-05 -3.8603242230382228e-06 0.0000000000000000e+00  6.3651021347321132e-05 -4.6574970943718904e-06 0.0000000000000000e+00  5.8720568470151574e-05 -5.7629774488140292e-06 0.0000000000000000e+00  3.4186300720603890e-05 -7.6531913580755537e-06 0.0000000000000000e+00  -3.4450725120370802e-05 -1.1796022047180921e-05 0.0000000000000000e+00  -1.9251587659878676e-04 -2.2847518669320743e-05 0.0000000000000000e+00  0.0000000000000000e+00 0.0000000000000000e+00 0.0000000000000000e+00  1.8494725752384455e-06 -1.0041073694310968e-07 0.0000000000000000e+00  3.7589049628877292e-06 -2.0433130595724932e-07 0.0000000000000000e+00  5.7875285511990781e-06 -3.1530178306475507e-07 0.0000000000000000e+00  7.9937518827698472e-06 -4.3698408202026592e-07 0.0000000000000000e+00  1.0432802728361873e-05 -5.7320072438146791e-07 0.0000000000000000e+00  1.3151208358818222e-05 -7.2796034695486501e-07 0.0000000000000000e+00  1.6175067715955666e-05 -9.0550365481696536e-07 0.0000000000000000e+00  1.9485967521455064e-05 -1.1105094160464850e-06 0.0000000000000000e+00  2.2971494259320880e-05 -1.3489259307172912e-06 0.0000000000000000e+00  2.6321038025509327e-05 -1.6308756386323966e-06 0.0000000000000000e+00  2.8796415596377435e-05 -1.9800628752872386e-06 0.0000000000000000e+00  2.8693211129947189e-05 -2.4634208399886838e-06 0.0000000000000000e+00  2.1963554572432572e-05 -3.2850129426686491e-06 0.0000000000000000e+00  -1.6772113718546769e-06 -5.0910564904419409e-06 0.0000000000000000e+00  -7.0771872984652317e-05 -9.9777739027596742e-06 0.0000000000000000e+00  -2.6719391935713500e-04 -2.4425585999778684e-05 0.0000000000000000e+00  0.0000000000000000e+00 0.0000000000000000e+00 0.0000000000000000e+00  0.0000000000000000e+00 0.0000000000000000e+00 0.0000000000000000e+00  0.0000000000000000e+00 0.0000000000000000e+00 0.0000000000000000e+00  0.0000000000000000e+00 0.0000000000000000e+00 0.0000000000000000e+00  0.0000000000000000e+00 0.0000000000000000e+00 0.0000000000000000e+00  0.0000000000000000e+00 0.0000000000000000e+00 0.0000000000000000e+00  0.0000000000000000e+00 0.0000000000000000e+00 0.0000000000000000e+00  0.0000000000000000e+00 0.0000000000000000e+00 0.0000000000000000e+00  0.0000000000000000e+00 0.0000000000000000e+00 0.0