<?xml version="1.0"?>
<VTKFile type="UnstructuredGrid"  version="0.1"  >
<UnstructuredGrid>
<Piece  NumberOfPoints="289" NumberOfCells="512">
<Points>
<DataArray  type="Float64"  NumberOfComponents="3"  format="ascii">0 0 0  0.0625 0 0  0.125 0 0  0.1875 0 0  0.25 0 0  0.3125 0 0  0.375 0 0  0.4375 0 0  0.5 0 0  0.5625 0 0  0.625 0 0  0.6875 0 0  0.75 0 0  0.8125 0 0  0.875 0 0  0.9375 0 0  1 0 0  0 0.0625 0  0.06247171461294122 0.06246917104012595 0  0.1249433426428584 0.06243780418698119 0  0.1874148559648726 0.06240540155269489 0  0.2498864876541171 0.06237158219679443 0  0.312358910608804 0.06233615745238568 0  0.3748334859124278 0.06229922489922751 0  0.437312622738365 0.06226128173646019 0  0.4998003189997037 0.06222335022366843 0  0.562303012080035 0.0621870931738208 0  0.624831010377097 0.06215487313784911 0  0.6874011310119291 0.0621296726445246 0  0.7500421094866528 0.06211474699937869 0  0.8128069492002843 0.06211284431951081 0  0.8758037179530804 0.06212488408245892 0  0.9392764460937892 0.06214868081516316 0  1.003813642651918 0.06218607371813641 0  0 0.125 0  0.06244354311851391 0.1249388548702496 0  0.1248868063041936 0.1248765746301638 0  0.1873296215065685 0.124812098087206 0  0.2497723193406238 0.1247445843196038 0  0.3122160732972399 0.1246735590522463 0  0.3746633804610146 0.124599103067081 0  0.4371187562261323 0.1245220886117628 0  0.4995897629363579 0.1244444562895295 0  0.5620885757791069 0.1243694986341046 0  0.624634459472271 0.124302070288032 0  0.6872578800642861 0.1242485720668212 0  0.7500076684937387 0.1242164627157042 0  0.8129638176326279 0.1242129956325638 0  0.8762594926860255 0.1242431087053389 0  0.9401121901049543 0.1243077472061556 0  1.004842144580802 0.1244072891628468 0  0 0.1875 0  0.06241576789970608 0.1874096643889974 0  0.1248308424454376 0.1873174889314578 0  0.187244677970083 0.1872217287860403 0  0.2496574003366722 0.1871209331749969 0  0.3120702766255566 0.1870141513561818 0  0.374486375088834 0.1869012110784136 0  0.4369115145884901 0.186783088658679 0  0.4993556412431133 0.1866623767827331 0  0.5618348298540649 0.1865438258473888 0  0.6243741963530993 0.186434872859132 0  0.6870121154419416 0.1863459553715256 0  0.7498061640510062 0.1862901945955018 0  0.8128407229730048 0.186281616155406 0  0.8762338151628786 0.1863300830944532 0  0.9401336783919707 0.1864280204189361 0  1.004682871285586 0.1865130670270955 0  0 0.25 0  0.06238888742424117 0.2498823180756501 0  0.1247763661295818 0.2497619511159795 0  0.1871611827819239 0.2496363097648537 0  0.249542829429399 0.2495031242067494 0  0.3119220782246669 0.2493606870533691 0  0.3743017449701232 0.2492082047870248 0  0.4366877931599131 0.2490462995987804 0  0.49909091766993 0.248877700089679 0  0.5615287701259069 0.248708139817882 0  0.6240289796688984 0.2485474279450281 0  0.6866330120411374 0.2484105316105522 0  0.7494005194104397 0.2483182546148309 0  0.8124127757899881 0.2482966110095903 0  0.8757714367188197 0.2483731454963376 0  0.9395849906711703 0.2485673718637814 0  1.003932900692186 0.2488735606226979 0  0 0.3125 0  0.06236367797195275 0.3123576708678691 0  0.1247248960971426 0.3122116624039439 0  0.1870813220244041 0.3120583635196543 0  0.2494313183964302 0.3118944396174689 0  0.311774468343658 0.3117170744165003 0  0.374112354883604 0.3115243552990414 0  0.4364497192682119 0.3113158740326101 0  0.4987961494303861 0.3110936319176067 0  0.561168458272267 0.3108633495718453 0  0.6235938612023888 0.3106362675812245 0  0.6861138684983835 0.3104314437847782 0  0.7487883243067026 0.3102783264976525 0  0.8116980733650375 0.310218882297949 0  0.8749433634683661 0.3103076491850544 0  0.9386344365397883 0.310606870804197 0  1.002874904485606 0.3111732109452777 0  0 0.375 0  0.06234120857582979 0.374836720599274 0  0.124678596796818 0.3746686432314931 0  0.187008404017058 0.3744909766307818 0  0.2493273751043718 0.3742990770954409 0  0.311633192270963 0.3740886343579694 0  0.3739251708860432 0.3738560226095881 0  0.4362053647512759 0.3735989185253974 0  0.498480272054811 0.3733173349684236 0  0.5607633713803502 0.3730152812423437 0  0.62307870872783 0.3727033284448838 0  0.6854656224966054 0.3724023939599773 0  0.7479843106089 0.3721489617497422 0  0.8107212128409209 0.3720015119928224 0  0.8737923098070818 0.3720468143570593 0  0.9373426276543554 0.3724027208243049 0  1.001544491628908 0.3732117002262443 0  0 0.4375 0  0.06232280208089161 0.4373205812891225 0  0.1246402069964628 0.4371351870391338 0  0.1869467689855744 0.436937751159629 0  0.249237217221608 0.4367221327117075 0  0.3115067018151264 0.4364821776576595 0  0.37375128890216 0.4362119384553445 0  0.4359688734690155 0.4359061707438386 0  0.4981607667120156 0.4355613046869232 0  0.5603343329325663 0.435177214336143 0  0.6225071813164721 0.4347602972549173 0  0.6847134979938369 0.4343286244995997 0  0.7470129920391165 0.4339201450339785 0  0.8095024090649411 0.433604833975109 0  0.8723285595164217 0.4335005745849272 0  0.935701160323698 0.4337895301052519 0  0.9999068313452176 0.434727144589404 0  0 0.5 0  0.06230994021939194 0.499810416700351 0  0.1246128491642905 0.4996137295737442 0  0.1869015029367727 0.4994026169595548 0  0.2491683973305112 0.499169376536714 0  0.3114057141228828 0.4989057926346663 0  0.3736054783105954 0.498603111126537 0  0.4357600835885339 0.4982522304965543 0  0.4978635061875988 0.4978443154725326 0  0.5599137663045215 0.4973722194456311 0  0.6219175674148738 0.4968334242051063 0  0.6838985462547004 0.4962357542889748 0  0.7459110613826965 0.495607955911965 0  0.8080614670864434 0.4950181542452496 0  0.8705374591137661 0.4946031497190758 0  0.9336429718377627 0.4946076926626468 0  0.997835960806444 0.4954223290548279 0  0 0.5625 0  0.06230411599550693 0.5623073326557069 0  0.1245997237213494 0.5621066273404134 0  0.1868779555294919 0.5618894858356179 0  0.2491291263429041 0.5616467739355294 0  0.311342339550453 0.5613682405238878 0  0.3735051629618309 0.5610421461529007 0  0.4356035186675652 0.5606549587023241 0  0.4976221139965074 0.5601912608858043 0  0.55954610356245 0.5596342005376213 0  0.6213653536193666 0.5589672099544117 0  0.6830838585486008 0.5581785487079182 0  0.7447386114772435 0.5572718913779147 0  0.8064340139219563 0.5562891920248833 0  0.8683974024092495 0.555355970214668 0  0.9310538176617773 0.5547587081358153 0  0.9951024969909996 0.5550465940260071 0  0 0.625 0  0.062306643401106 0.6248122347708944 0  0.124603705426883 0.6246158562370836 0  0.1868810793965329 0.624401757026933 0  0.2491272973963537 0.6241597470932927 0  0.3113287345884762 0.6238779099495301 0  0.3734686932788095 0.6235418344807317 0  0.4355264076338395 0.6231336888825213 0  0.4974761781158993 0.6226311370738287 0  0.5592872527104624 0.6220062032294718 0  0.6209260012597438 0.6212244888597971 0  0.6823639099023641 0.6202459650030375 0  0.7435987658238093 0.6190307584884663 0  0.8047026202499737 0.6175590252989901 0  0.8659158544954527 0.6158869121456789 0  0.9277986499246185 0.614277775003761 0  0.9914212602554169 0.6134241226749985 0  0 0.6875 0  0.06231844324914579 0.6873256684171111 0  0.1246268781700404 0.6871426643281127 0  0.1869146395562269 0.6869417247994796 0  0.2491692555185161 0.6867122402712171 0  0.3113752819387522 0.6864413913378785 0  0.3735127803696108 0.686113023069116 0  0.4355553012751807 0.6857061138272615 0  0.4974672910941659 0.6851926415288594 0  0.5592011037484191 0.6845345852191322 0  0.6206946417382436 0.6836797690611063 0  0.6818730171116493 0.6825564705913034 0  0.7426636696965992 0.6810680438531606 0  0.8030483170928294 0.6790946652004242 0  0.8632005861132805 0.6765325629755483 0  0.923765349813951 0.6734798427334832 0  0.9862419635664488 0.6706953052684103 0  0 0.75 0  0.06233983420456236 0.7498476673274004 0  0.1246700690374145 0.7496872356724007 0  0.1869803885830517 0.7495099839211814 0  0.2492584402307202 0.7493057357444061 0  0.3114884305963501 0.7490618830285859 0  0.3736491462687248 0.7487620488551675 0  0.4357110455546669 0.7483841596310359 0  0.4976319150186319 0.7478975587566176 0  0.5593504442097678 0.7472585455666506 0  0.6207772019842983 0.7464032591602 0  0.6817838474401863 0.7452359552944169 0  0.7421971229192598 0.7436092429478264 0  0.8018240940368458 0.7412916144974929 0  0.860598154728425 0.7379265915227342 0  0.9190995881497575 0.7330898355582878 0  0.9791359632785508 0.7275581802793445 0  0 0.8125 0  0.06237036738957602 0.8123776428039036 0  0.1247324671903425 0.8122484368257217 0  0.1870773574380746 0.8121049615430539 0  0.2493941396305483 0.8119384370540099 0  0.3116685455326119 0.8117377863551887 0  0.3738808395001005 0.8114883172528017 0  0.4360025231567114 0.8111697692301127 0  0.4979909536127933 0.8107533071000813 0  0.5597803113021678 0.8101967334022279 0  0.6212662106623176 0.8094365516969574 0  0.6822796420984224 0.8083740301313657 0  0.7425452503249537 0.8068485794229441 0  0.8016275701534317 0.8045811822069044 0  0.8589284727204141 0.8010413003478799 0  0.9141406250952979 0.7951104373060107 0  0.9714587018603219 0.7840576616107002 0  0 0.875 0  0.0624087466218678 0.8749143436935692 0  0.1248114262492627 0.8748237156979395 0  0.1872014499890391 0.8747227064417632 0  0.249570693497973 0.8746048545867245 0  0.3119083548257477 0.8744619106901449 0  0.3741992030532961 0.8742827901804174 0  0.4364207090954334 0.874052011276195 0  0.4985380917900303 0.8737472978502036 0  0.5604953461778134 0.8733358418148907 0  0.6221982220704121 0.8727684172901797 0  0.683480456852303 0.8719699446915511 0  0.7440341633278195 0.870823272137036 0  0.8032629222258845 0.8691348099918982 0  0.8599743812515813 0.8665323179104137 0  0.9117860118184473 0.8620815408070962 0  0.9542587031141523 0.8528139764454257 0  0 0.9375 0  0.06245286907481663 0.9374559068038706 0  0.1249025359125828 0.9374091996703618 0  0.1873455173997668 0.9373570276476538 0  0.2497774957283485 0.9372959673120719 0  0.3121926899397378 0.937221619414461 0  0.374582878567277 0.9371280336981984 0  0.4369357679337847 0.9370068545043443 0  0.49
[...]
<PointData  Vectors="f_54"> 
<DataArray  type="Float64"  Name="f_54"  NumberOfComponents="3" format="ascii">0.0000000000000000e+00 0.0000000000000000e+00 0.0000000000000000e+00  0.0000000000000000e+00 0.0000000000000000e+00 0.0000000000000000e+00  0.0000000000000000e+00 0.0000000000000000e+00 0.0000000000000000e+00  0.0000000000000000e+00 0.0000000000000000e+00 0.0000000000000000e+00  0.0000000000000000e+00 0.0000000000000000e+00 0.0000000000000000e+00  0.0000000000000000e+00 0.0000000000000000e+00 0.0000000000000000e+00  0.0000000000000000e+00 0.0000000000000000e+00 0.0000000000000000e+00  0.0000000000000000e+00 0.0000000000000000e+00 0.0000000000000000e+00  0.0000000000000000e+00 0.0000000000000000e+00 0.0000000000000000e+00  0.0000000000000000e+00 0.0000000000000000e+00 0.0000000000000000e+00  0.0000000000000000e+00 0.0000000000000000e+00 0.0000000000000000e+00  0.0000000000000000e+00 0.0000000000000000e+00 0.0000000000000000e+00  0.0000000000000000e+00 0.0000000000000000e+00 0.0000000000000000e+00  0.0000000000000000e+00 0.0000000000000000e+00 0.0000000000000000e+00  0.0000000000000000e+00 0.0000000000000000e+00 0.0000000000000000e+00  0.0000000000000000e+00 0.0000000000000000e+00 0.0000000000000000e+00  0.0000000000000000e+00 0.0000000000000000e+00 0.0000000000000000e+00  0.0000000000000000e+00 0.0000000000000000e+00 0.0000000000000000e+00  2.5088778096454504e-07 5.1170165606876141e-08 0.0000000000000000e+00  4.8075263823647874e-07 1.0257055864708813e-07 0.0000000000000000e+00  6.6447886965904474e-07 1.5430186296046392e-07 0.0000000000000000e+00  7.6776361149750481e-07 2.0609823813656608e-07 0.0000000000000000e+00  7.4133644037860906e-07 2.5712500199933895e-07 0.0000000000000000e+00  5.1363331778547143e-07 3.0577271818898573e-07 0.0000000000000000e+00  -1.8905538144022464e-08 3.4949249220659735e-07 0.0000000000000000e+00  -1.0053535873726100e-06 3.8478253894150833e-07 0.0000000000000000e+00  -2.6606952693131768e-06 4.0756693120194168e-07 0.0000000000000000e+00  -5.3006209553479717e-06 4.1449317328113862e-07 0.0000000000000000e+00  -9.4108899686112097e-06 4.0640023291651043e-07 0.0000000000000000e+00  -1.5809171682997751e-05 3.9739297702504744e-07 0.0000000000000000e+00  -2.6077343563644905e-05 4.4053954035134484e-07 0.0000000000000000e+00  -4.3854375150140957e-05 7.1026374761049518e-07 0.0000000000000000e+00  -7.9123197664020725e-05 1.8021500716939511e-06 0.0000000000000000e+00  -1.6411234164297563e-04 5.9652711507998211e-06 0.0000000000000000e+00  0.0000000000000000e+00 0.0000000000000000e+00 0.0000000000000000e+00  5.2231401294480296e-07 1.0201263994486532e-07 0.0000000000000000e+00  1.0069630529621351e-06 2.0466317277082968e-07 0.0000000000000000e+00  1.4086043671281345e-06 3.0833947027323118e-07 0.0000000000000000e+00  1.6644966997533017e-06 4.1271320848146622e-07 0.0000000000000000e+00  1.6835432177837111e-06 5.1632485008175231e-07 0.0000000000000000e+00  1.3324573191168728e-06 6.1612816021752928e-07 0.0000000000000000e+00  4.1772235900579756e-07 7.0705103838709832e-07 0.0000000000000000e+00  -1.3386189144807316e-06 7.8172590828410092e-07 0.0000000000000000e+00  -4.3328794438061023e-06 8.3071610666590366e-07 0.0000000000000000e+00  -9.1307810844789636e-06 8.4385992455322758e-07 0.0000000000000000e+00  -1.6552510214825785e-05 8.1382117879462660e-07 0.0000000000000000e+00  -2.7830123983884062e-05 7.4351286098836676e-07 0.0000000000000000e+00  -4.4918190800476776e-05 6.5873983824056586e-07 0.0000000000000000e+00  -7.1087410189034600e-05 6.1903098015011294e-07 0.0000000000000000e+00  -1.1175084447643480e-04 6.5911396677610338e-07 0.0000000000000000e+00  -1.7334609355757966e-04 2.1549720532873112e-07 0.0000000000000000e+00  0.0000000000000000e+00 0.0000000000000000e+00 0.0000000000000000e+00  8.3060396123642850e-07 1.5207076756491400e-07 0.0000000000000000e+00  1.6151310778184871e-06 3.0553075277977169e-07 0.0000000000000000e+00  2.2971801858664561e-06 4.6142148188054547e-07 0.0000000000000000e+00  2.7965564350093462e-06 6.1976600932598330e-07 0.0000000000000000e+00  2.9941941133888785e-06 7.7893637449856093e-07 0.0000000000000000e+00  2.7131063523362823e-06 9.3489321005886262e-07 0.0000000000000000e+00  1.6938505353375329e-06 1.0803202111893938e-06 0.0000000000000000e+00  -4.3716219020528281e-07 1.2037723932922087e-06 0.0000000000000000e+00  -4.2084518632323708e-06 1.2891277903172878e-06 0.0000000000000000e+00  -1.0355738630128206e-05 1.3158917949401243e-06 0.0000000000000000e+00  -1.9888408613819298e-05 1.2611921059624576e-06 0.0000000000000000e+00  -3.4170316392284794e-05 1.1043119885195578e-06 0.0000000000000000e+00  -5.4996163458698874e-05 8.3338279000533713e-07 0.0000000000000000e+00  -8.4557746759908030e-05 4.4941589843403901e-07 0.0000000000000000e+00  -1.2487529726437339e-04 -4.3225532696150170e-08 0.0000000000000000e+00  -1.7536405438402635e-04 -6.1958025854913149e-07 0.0000000000000000e+00  0.0000000000000000e+00 0.0000000000000000e+00 0.0000000000000000e+00  1.1837727048371463e-06 2.0054825078598052e-07 0.0000000000000000e+00  2.3242592653756365e-06 4.0371827044914450e-07 0.0000000000000000e+00  3.3664895104548115e-06 6.1173138425868050e-07 0.0000000000000000e+00  4.2278514462886477e-06 8.2559014859882734e-07 0.0000000000000000e+00  4.7802714728575646e-06 1.0442547204943193e-06 0.0000000000000000e+00  4.8273977018899349e-06 1.2635560604964483e-06 0.0000000000000000e+00  4.0750860839596330e-06 1.4747866293102283e-06 0.0000000000000000e+00  2.0938011920651532e-06 1.6629780675834445e-06 0.0000000000000000e+00  -1.7274557916297853e-06 1.8050284616688938e-06 0.0000000000000000e+00  -8.2335508509333088e-06 1.8681252488340397e-06 0.0000000000000000e+00  -1.8553829603169344e-05 1.8093317015177712e-06 0.0000000000000000e+00  -3.4128650651346714e-05 1.5776071821356381e-06 0.0000000000000000e+00  -5.6655613677482717e-05 1.1193269628383259e-06 0.0000000000000000e+00  -8.7820463590686641e-05 3.8619771902656977e-07 0.0000000000000000e+00  -1.2852019204267440e-04 -6.6216368011270647e-07 0.0000000000000000e+00  -1.7710984225712697e-04 -2.0892425335751013e-06 0.0000000000000000e+00  0.0000000000000000e+00 0.0000000000000000e+00 0.0000000000000000e+00  1.5785527976604254e-06 2.4617519726061112e-07 0.0000000000000000e+00  3.1295422655656767e-06 4.9676842068957488e-07 0.0000000000000000e+00  4.6139151947252964e-06 7.5581797825702688e-07 0.0000000000000000e+00  5.9643400919613448e-06 1.0261204960076225e-06 0.0000000000000000e+00  7.0663294781342107e-06 1.3082997940889831e-06 0.0000000000000000e+00  7.7332693294290342e-06 1.5994530039659223e-06 0.0000000000000000e+00  7.6731269082083778e-06 1.8911882226925098e-06 0.0000000000000000e+00  6.4449463397793368e-06 2.1668691722299355e-06 0.0000000000000000e+00  3.4046069170906808e-06 2.3979704881552334e-06 0.0000000000000000e+00  -2.3571081866056723e-06 2.5397438211255922e-06 0.0000000000000000e+00  -1.2073166727085415e-05 2.5271048171708465e-06 0.0000000000000000e+00  -2.7328806556289323e-05 2.2730325667292935e-06 0.0000000000000000e+00  -5.0003879839972711e-05 1.6739406110114142e-06 0.0000000000000000e+00  -8.2026204811714806e-05 6.2891676498248417e-07 0.0000000000000000e+00  -1.2478069300740979e-04 -9.1915437017141701e-07 0.0000000000000000e+00  -1.7804016962211900e-04 -2.9133029624280846e-06 0.0000000000000000e+00  0.0000000000000000e+00 0.0000000000000000e+00 0.0000000000000000e+00  1.9987156759522491e-06 2.8713067684883821e-07 0.0000000000000000e+00  3.9986773060789257e-06 5.8103257292784214e-07 0.0000000000000000e+00  5.9915770031056183e-06 8.8821930749373897e-07 0.0000000000000000e+00  7.9440238377364016e-06 1.2141973656100264e-06 0.0000000000000000e+00  9.7797053282462270e-06 1.5625861315232557e-06 0.0000000000000000e+00  1.1354369199731243e-05 1.9336797066246598e-06 0.0000000000000000e+00  1.2420415338605219e-05 2.3221122388127682e-06 0.0000000000000000e+00  1.2577601125947119e-05 2.7131615512970808e-06 0.0000000000000000e+00  1.1206893934591265e-05 3.0771282312105294e-06 0.0000000000000000e+00  7.3870555162585373e-06 3.3613326904396492e-06 0.0000000000000000e+00  -1.9980175956523536e-07 3.4800127092399005e-06 0.0000000000000000e+00  -1.3353761170123229e-05 3.3046545345865520e-06 0.0000000000000000e+00  -3.4390874333319681e-05 2.6623734331736852e-06 0.0000000000000000e+00  -6.6054239244270528e-05 1.3587047147311480e-06 0.0000000000000000e+00  -1.1122207359591338e-04 -7.4906668974637804e-07 0.0000000000000000e+00  -1.7240054246361969e-04 -3.6010138740027487e-06 0.0000000000000000e+00  0.0000000000000000e+00 0.0000000000000000e+00 0.0000000000000000e+00  2.4150162341603166e-06 3.2105544143703578e-07 0.0000000000000000e+00  4.8714597583795798e-06 6.5166220260191214e-07 0.0000000000000000e+00  7.4049622132515504e-06 1.0013529903818505e-06 0.0000000000000000e+00  1.0033583389542374e-05 1.3792008057452413e-06 0.0000000000000000e+00  1.2743631824776011e-05 1.7932223121210460e-06 0.0000000000000000e+00  1.5467633049560044e-05 2.2491852683085456e-06 0.0000000000000000e+00  1.8049997016716158e-05 2.7483537805687054e-06 0.0000000000000000e+00  2.0194394595528751e-05 3.2833957424486117e-06 0.0000000000000000e+00  2.1385353308548311e-05 3.8312243485909940e-06 0.0000000000000000e+00  2.0776133645589820e-05 4.3410410298882937e-06 0.0000000000000000e+00  1.7037744716197207e-05 4.7157646871135203e-06 0.0000000000000000e+00  8.1737824358862111e-06 4.7868384897790507e-06 0.0000000000000000e+00  -8.6734537960256216e-06 4.2894743667344239e-06 0.0000000000000000e+00  -3.7372554374485222e-05 2.8628424339571328e-06 0.0000000000000000e+00  -8.2854820412603728e-05 1.2843057157398491e-07 0.0000000000000000e+00  -1.5112700616208753e-04 -4.0777134360630751e-06 0.0000000000000000e+00  0.0000000000000000e+00 0.0000000000000000e+00 0.0000000000000000e+00  2.7870328549564312e-06 3.4518736136221299e-07 0.0000000000000000e+00  5.6632620335577757e-06 7.0285942004484102e-07 0.0000000000000000e+00  8.7175643625862013e-06 1.0858270017713277e-06 0.0000000000000000e+00  1.2033175027009540e-05 1.5072934938091957e-06 0.0000000000000000e+00  1.5680257185320846e-05 1.9808109584834088e-06 0.0000000000000000e+00  1.9701047605358464e-05 2.5197824162780455e-06 0.0000000000000000e+00  2.4082142622744497e-05 3.1360325626315807e-06 0.0000000000000000e+00  2.8705296404826197e-05 3.8364968194602354e-06 0.0000000000000000e+00  3.3263573201867410e-05 4.6161850677541220e-06 0.0000000000000000e+00  3.7124174245085394e-05 5.4440173565466638e-06 0.0000000000000000e+00  3.9114699725718521e-05 6.2358443883732910e-06 0.0000000000000000e+00  3.7211546128581235e-05 6.8070736716393679e-06 0.0000000000000000e+00  2.8128471355400128e-05 6.8009860208801802e-06 0.0000000000000000e+00  6.8491616967864654e-06 5.6122743786416186e-06 0.0000000000000000e+00  -3.3817149862275535e-05 2.3884571555723514e-06 0.0000000000000000e+00  -1.0373942960909713e-04 -3.7293097354954235e-06 0.0000000000000000e+00  0.0000000000000000e+00 0.0000000000000000e+00 0.0000000000000000e+00  3.0670653948655269e-06 3.5663757563817679e-07 0.0000000000000000e+00  6.2728377236081960e-06 7.2843917083151465e-07 0.0000000000000000e+00  9.7624961791452500e-06 1.1312967743268927e-06 0.0000000000000000e+00  1.3691285563803821e-05 1.5825449044079509e-06 0.0000000000000000e+00  1.8227018812135277e-05 2.1016939832375991e-06 0.0000000000000000e+00  2.3547463419148826e-05 2.7110766384089267e-06 0.0000000000000000e+00  2.9827201020049880e-05 3.4361377872760150e-06 0.0000000000000000e+00  3.7203824738977954e-05 4.3046391633382839e-06 0.0000000000000000e+00  4.5705366152936452e-05 5.3429437521448024e-06 0.0000000000000000e+00  5.5108365128311939e-05 6.5650020319776675e-06 0.0000000000000000e+00  6.4678921673655304e-05 7.9442046938191326e-06 0.0000000000000000e+00  7.2732405860517619e-05 9.3480319335526558e-06 0.0000000000000000e+00  7.5950995908786241e-05 1.0401933102387620e-05 0.0000000000000000e+00  6.8468955066523028e-05 1.0253786767148008e-05 0.0000000000000000e+00  4.0904320052532111e-05 7.3126874626751750e-06 0.0000000000000000e+00  -2.0464371519819435e-05 -6.8210902709065267e-07 0.0000000000000000e+00  0.0000000000000000e+00 0.0000000000000000e+00 0.0000000000000000e+00  3.2060346088755937e-06 3.5279479054820707e-07 0.0000000000000000e+00  6.5944983415052602e-06 7.2269135611296187e-07 0.0000000000000000e+00  1.0361590833243319e-05 1.1278930934730739e-06 0.0000000000000000e+00  1.4731312088756912e-05 1.5890785065473818e-06 0.0000000000000000e+00  1.9970385381647384e-05 2.1309743727096859e-06 0.0000000000000000e+00  2.6402777132220743e-05 2.7843737797893807e-06 0.0000000000000000e+00  3.4420281184374449e-05 3.5887870799537774e-06 0.0000000000000000e+00  4.4480362245663574e-05 4.5958039839095320e-06 0.0000000000000000e+00  5.7071996225920947e-05 5.8726487450507445e-06 0.0000000000000000e+00  7.2610570209021491e-05 7.5032209506797198e-06 0.0000000000000000e+00  9.1188459870808814e-05 9.5770352784144772e-06 0.0000000000000000e+00  1.1205478765295903e-04 1.2137074983763897e-05 0.0000000000000000e+00  1.3263987934945872e-04 1.5009448288258116e-05 0.0000000000000000e+00  1.4696940388690054e-04 1.7348509402116735e-05 0.0000000000000000e+00  1.4370349007951957e-04 1.6732863754155391e-05 0.0000000000000000e+00  1.0444902082413162e-04 8.2685167265192977e-06 0.0000000000000000e+00  0.0000000000000000e+00 0.0000000000000000e+00 0.0000000000000000e+00  3.1609626381861271e-06 3.3180238795707192e-07 0.0000000000000000e+00  6.5339675223143028e-06 6.8143256914851710e-07 0.0000000000000000e+00  1.0351383455727648e-05 1.0680641319265814e-06 0.0000000000000000e+00  1.4890120238352054e-05 1.5140822984921297e-06 0.0000000000000000e+00  2.0499610156241245e-05 2.0472961824070393e-06 0.0000000000000000e+00  2.7636301153831982e-05 2.7040867087227996e-06 0.0000000000000000e+00  3.6905400782993395e-05 3.5342214840307524e-06 0.0000000000000000e+00  4.9106874455533389e-05 4.6086148683864888e-06 0.0000000000000000e+00  6.5273042229450985e-05 6.0321727344760554e-06 0.0000000000000000e+00  8.6662354840996841e-05 7.9646735005121070e-06 0.0000000000000000e+00  1.1462391547900363e-04 1.0650948714352486e-05 0.0000000000000000e+00  1.5014473464584636e-04 1.4446849433006495e-05 0.0000000000000000e+00  1.9270206478618567e-04 1.9760137628036968e-05 0.0000000000000000e+00  2.3779541357909061e-04 2.6571615457459190e-05 0.0000000000000000e+00  2.7298577073272710e-04 3.2465375207598723e-05 0.0000000000000000e+00  2.7597813270565486e-04 2.9543703645955238e-05 0.0000000000000000e+00  0.0000000000000000e+00 0.0000000000000000e+00 0.0000000000000000e+00  2.9031255479533837e-06 2.9301129344684628e-07 0.0000000000000000e+00  6.0261350751302043e-06 6.0303165473012889e-07 0.0000000000000000e+00  9.6134923902153684e-06 9.4845268164835098e-07 0.0000000000000000e+00  1.3965926819674195e-05 1.3510804264297966e-06 0.0000000000000000e+00  1.9479032971997512e-05 1.8385236609574883e-06 0.0000000000000000e+00  2.6696089881223683e-05 2.4476750899858498e-06 0.0000000000000000e+00  3.6382112024441215e-05 3.2302651813017648e-06 0.0000000000000000e+00  4.9626797303696103e-05 4.2625293570080256e-06 0.0000000000000000e+00  6.7981006430232891e-05 5.6634862092594821e-06 0.0000000000000000e+00  9.3616458926758201e-05 7.6318543990485494e-06 0.0000000000000000e+00  1.2945029008923923e-04 1.0523042491159523e-05 0.0000000000000000e+00  1.7904325088861049e-04 1.5006271870900648e-05 0.0000000000000000e+00  2.4573901739287791e-04 2.2348748715273760e-05 0.0000000000000000e+00  3.2966038768370454e-04 3.4719377943704433e-05 0.0000000000000000e+00  4.1925097219961755e-04 5.3969205100094221e-05 0.0000000000000000e+00  4.8387362862350222e-04 6.2849785366052540e-05 0.0000000000000000e+00  0.0000000000000000e+00 0.0000000000000000e+00 0.0000000000000000e+00  2.4254578586414010e-06 2.3729243664586686e-07 0.0000000000000000e+00  5.0517059043205474e-06 4.8913346858781532e-07 0.0000000000000000e+00  8.1045426616632579e-06 7.7126919228118569e-07 0.0000000000000000e+00  1.1868613480038780e-05 1.1024569389188102e-06 0.0000000000000000e+00  1.6730387075623745e-05 1.5064743400337415e-06 0.0000000000000000e+00  2.3241094864093055e-05 2.0148795645792040e-06 0.0000000000000000e+00  3.2212913393499205e-05 2.6710919943367342e-06 0.0000000000000000e+00  4.4868806263037316e-05 3.5370456714589313e-06 0.0000000000000000e+00  6.3076170205771925e-05 4.7057523077283499e-06 0.0000000000000000e+00  8.9703197929416040e-05 6.3296456911252806e-06 0.0000000000000000e+00  1.2912808760692535e-04 8.6946306887415342e-06 0.0000000000000000e+00  1.8784688885386082e-04 1.2427786657727252e-05 0.0000000000000000e+00  2.7478608769378345e-04 1.9080423947577639e-05 0.0000000000000000e+00  3.9978422306564265e-04 3.2708355992376629e-05 0.0000000000000000e+00  5.6464238447477815e-04 6.4291656445835432e-05 0.0000000000000000e+00  7.1074075942473064e-04 1.5351678225286190e-04 0.0000000000000000e+00  0.0000000000000000e+00 0.0000000000000000e+00 0.0000000000000000e+00  1.7474460602888433e-06 1.6711625399093735e-07 0.0000000000000000e+00  3.6487855659209948e-06 3.4484932737819795e-07 0.0000000000000000e+00  5.8785882936586754e-06 5.4466601120113401e-07 0.0000000000000000e+00  8.6609595050561648e-06 7.8018063623826012e-07 0.0000000000000000e+00  1.2307424566703086e-05 1.0684247384054456e-06 0.0000000000000000e+00  1.7275159255558593e-05 1.4312438932286706e-06 0.0000000000000000e+00  2.4261458315280970e-05 1.8964856668691202e-06 0.0000000000000000e+00  3.4362476005543596e-05 2.4978732397968092e-06 0.0000000000000000e+00  4.9346584990179858e-05 3.2707255409623910e-06 0.0000000000000000e+00  7.2132285481160555e-05 4.2376859965079815e-06 0.0000000000000000e+00  1.0762464462691227e-04 5.3774906848124362e-06 0.0000000000000000e+00  1.6414186175106347e-04 6.5922483617980251e-06 0.0000000000000000e+00  2.5564305399269395e-04 7.8244152535702177e-06 0.0000000000000000e+00  4.0430473743120868e-04 9.9559892536908934e-06 0.0000000000000000e+00  6.3957706502700950e-04 1.8111754388076560e-05 0.0000000000000000e+00  9.7953801574974489e-04 4.9589036481713039e-05 0.0000000000000000e+00  0.0000000000000000e+00 0.0000000000000000e+00 0.0000000000000000e+00  9.1581650115405001e-07 8.6374440258827405e-08 0.0000000000000000e+00  1.9153619610339468e-06 1.7834844368336545e-07 0.0000000000000000e+00  3.0941644436592337e-06 2.8195326663162447e-07 0.0000000000000000e+00  4.5763217062862576e-06 4.0430612878886458e-07 0.0000000000000000e+00  6.5370358888519754e-06 5.5414916165874202e-07 0.0000000000000000e+00  9.2383754674370711e-06 7.4216839334904362e-07 0.0000000000000000e+00  1.3089626721682446e-05 9.8031135881864874e-07 0.0000000000000000e+00  1.8753816334955917e-05 1.2775897038070764e-06 0.0000000000000000e+00  2.7342780940566480e-05 1.6245305805014175e-06 0.0000000000000000e+00  4.0784829435738179e-05 1.9419319356795041e-06 0.0000000000000000e+00  6.2525681422001807e-05 1.9184296402164322e-06 0.0000000000000000e+00  9.8819815340651240e-05 5.0872035024372612e-07 0.0000000000000000e+00  1.6072241951304285e-04 -5.5301674480812682e-06 0.0000000000000000e+00  2.6497756699498694e-04 -2.5212836143022267e-05 0.0000000000000000e+00  4.2331302531698172e-04 -7.7408151637898461e-05 0.0000000000000000e+00  5.9993129265188021e-04 -1.7390432067371345e-04 0.0000000000000000e+00  0.0000000000000000e+00 0.0000000000000000e+00 0.0000000000000000e+00  0.0000000000000000e+00 0.0000000000000000e+00 0.0000000000000000e+00  0.0000000000000000e+00 0.0000000000000000e+00 0.0000000000000000e+00  0.0000000000000000e+00 0.0000000000000000e+00 0.0000000000000000e+00  0.0000000000000000e+00 0.0000000000000000e+00 0.0000000000000000e+00  0.0000000000000000e+00 0.0000000000000000e+00 0.0000000000000000e+00  0.0000000000000000e+00 0.0000000000000000e+00 0.0000000000000000e+00  0.0000000000000000e+00 0.0000000000000000e+00 0.0000000000000000e+00  0.0000000000000000e+00 0.0000000000000000e+00 0.0000000000000000e+00  0.0000000000000000e+00 0.0000000000000000e+00 0.0000000000000000e+00  0.0000000000000000e+00 0.0000000000000000e+00 0.0000000000000000e+00  0.000000000