<?xml version="1.0"?>
<VTKFile type="UnstructuredGrid"  version="0.1"  >
<UnstructuredGrid>
<Piece  NumberOfPoints="289" NumberOfCells="512">
<Points>
<DataArray  type="Float64"  NumberOfComponents="3"  format="ascii">0 0 0  0.0625 0 0  0.125 0 0  0.1875 0 0  0.25 0 0  0.3125 0 0  0.375 0 0  0.4375 0 0  0.5 0 0  0.5625 0 0  0.625 0 0  0.6875 0 0  0.75 0 0  0.8125 0 0  0.875 0 0  0.9375 0 0  1 0 0  0 0.0625 0  0.06259792369752692 0.06248482860531848 0  0.1251990165970027 0.06246932901210869 0  0.1878065299685538 0.06245318767747067 0  0.2504238060342604 0.06243613069660097 0  0.3130543132930103 0.06241795114357414 0  0.375701669600462 0.0623985450621348 0  0.4383696563599993 0.06237795736747127 0  0.5010622438740925 0.06235643603102223 0  0.5637836926354504 0.06233448684366493 0  0.6265389149400976 0.06231290876530485 0  0.6893346105559649 0.06229276445666283 0  0.7521826412969711 0.06227518192743529 0  0.8151100084309741 0.06226071893572734 0  0.8781891073343756 0.06224745898627651 0  0.9416333767376627 0.06222483011779332 0  1.006116920773694 0.06215201469841673 0  0 0.125 0  0.06269276664920967 0.1249699762232521 0  0.1253918547509942 0.1249392759869731 0  0.1881037573970614 0.1249072492259012 0  0.25083517301377 0.1248733187853367 0  0.3135930892396446 0.1248370325350236 0  0.3763848418203788 0.1247981341756545 0  0.4392181483400643 0.1247566570161821 0  0.5021011355122627 0.1247130408560639 0  0.5650424265919922 0.124668263080874 0  0.6280514677482533 0.1246239576864554 0  0.6911395187114583 0.1245824666959721 0  0.7543222179979465 0.1245467322162835 0  0.81762533220721 0.1245199512648881 0  0.8810949572546917 0.1245052983246099 0  0.9448040100854206 0.1245083030867878 0  1.008789320531055 0.1245552579062193 0  0 0.1875 0  0.06278136055816717 0.1874557947027718 0  0.125572120422367 0.1874105294485077 0  0.1883819480240095 0.1873631765569916 0  0.2512208633279075 0.1873128014926922 0  0.3140993875025491 0.1872586338229724 0  0.3770286531777551 0.1872001686769737 0  0.4400204617699574 0.1871373086984248 0  0.5030872787029305 0.1870705535605151 0  0.5662421693142603 0.1870012358137881 0  0.6294986969745571 0.1869317830628584 0  0.6928708019347651 0.1868659483688802 0  0.7563725132407614 0.18680887602805 0  0.8200164986424215 0.1867667097954935 0  0.8838073880326422 0.1867450007358044 0  0.9477171993962366 0.1867434206900444 0  1.011615168826213 0.1867362828683247 0  0 0.25 0  0.062860624406214 0.2499426704549589 0  0.1257335785491727 0.2498838536330584 0  0.1886315665730962 0.2498220915004965 0  0.251567829529013 0.2497560191569373 0  0.3145563850103626 0.2496844441281175 0  0.3776122173829817 0.2496064686391895 0  0.4407513894189309 0.249521673212484 0  0.5039910307781245 0.2494303813190991 0  0.5673491286570881 0.2493340225567785 0  0.6308439770820332 0.2492356006031147 0  0.6944929687479796 0.2491402417296052 0  0.7583099760386472 0.2490557303864697 0  0.8222995280050378 0.2489927943270565 0  0.8864438782710768 0.2489646338772938 0  0.9506762101498617 0.248984882892703 0  1.01483470446233 0.2490642319579321 0  0 0.3125 0  0.06292763384148312 0.3124310325874347 0  0.1258702884712324 0.3123601081721341 0  0.1888434707178535 0.3122852842379787 0  0.2518634523992339 0.3122046841947035 0  0.3149476308158958 0.3121165689974661 0  0.3781148437906309 0.3120194620989681 0  0.4413856029215955 0.3119123556207472 0  0.5047821806729169 0.3117950341805983 0  0.5683284330746751 0.3116685620997522 0  0.6320491323430069 0.3115359862214276 0  0.6959683676996735 0.3114033019920959 0  0.7601061571172796 0.3112806977621492 0  0.8244717120367271 0.3111840028852745 0  0.8890509835716274 0.3111360911929116 0  0.9537864469175709 0.3111677717217243 0  1.018552434153801 0.3113176365829594 0  0 0.375 0  0.06297970874750494 0.3749213510765255 0  0.1259767777821942 0.3748402475435026 0  0.1890091674085887 0.3747542209626056 0  0.2520958690981076 0.3746608093875353 0  0.3152574191158798 0.3745576000232479 0  0.3785163918294381 0.3744423292520966 0  0.4418978455236279 0.3743130757697731 0  0.5054296664621534 0.3741685997164829 0  0.5691427064774295 0.3740089051935172 0  0.633070514744327 0.3738361357949981 0  0.6972482918319499 0.3736559490273755 0  0.7617104066049668 0.3734795411353679 0  0.8264854339464204 0.3733264714540744 0  0.8915874606358194 0.3732282918687546 0  0.9570032614765878 0.3732326199375438 0  1.022678557727319 0.3734066093019205 0  0 0.4375 0  0.06301452183651236 0.4374141219589717 0  0.1260482619923747 0.4373252934813796 0  0.1891211477502353 0.4372305084999538 0  0.2522544257028483 0.4371266749648218 0  0.315471352833895 0.4370106040770511 0  0.3787979146319679 0.4368790500286069 0  0.4422635702271036 0.4367288383065766 0  0.5059020132243531 0.4365571451901725 0  0.5697519170645556 0.4363620306868953 0  0.6338575977560991 0.4361433885186672 0  0.6982694615901179 0.4359045655845916 0  0.7630439961185523 0.4356550147881133 0  0.8282429196088128 0.4354144380759963 0  0.8939310514308674 0.435218822848119 0  0.9601729254517716 0.4351283174300742 0  1.027030044265663 0.4352358056202037 0  0 0.5 0  0.06303022685875626 0.499909837622533 0  0.1260809085373106 0.4998162754947535 0  0.1891733022636722 0.4997158058242696 0  0.2523302665590287 0.4996047150350664 0  0.3155771358438217 0.4994789962682402 0  0.3789426852960887 0.4993342912709964 0  0.4424602262656653 0.4991658926812653 0  0.5061688884994225 0.4989688650674665 0  0.570115178955138 0.4987383918459736 0  0.6343549731744239 0.4984705404018467 0  0.6989562145017892 0.4981637815816735 0  0.7640027840016032 0.4978218253084928 0  0.8296002399828165 0.4974586288156209 0  0.8958843245751201 0.4971066236643782 0  0.963033266062482 0.4968286551037732 0  1.031285884717495 0.4967313556276072 0  0 0.5625 0  0.06302559910422575 0.5624089423535557 0  0.1260721307499592 0.5623141388467362 0  0.1891613957115497 0.5622116787241115 0  0.2523170347951426 0.5620973120039418 0  0.3155655670529825 0.5619662693094272 0  0.3789375851776963 0.5618130754572822 0  0.4424691914732619 0.5616313691430661 0  0.5062038042895812 0.5614137630382621 0  0.57019456205611 0.5611518232896527 0  0.6345077530415725 0.5608363372154886 0  0.6992280972412721 0.5604582163592189 0  0.7644674333898992 0.5600107265475766 0  0.8303795068165094 0.5594943507603537 0  0.8971848983677629 0.558926443523895 0  0.9652108551855728 0.55835799760441 0  1.034950597774178 0.5578955317063912 0  0 0.625 0  0.06300017455017348 0.6249117763005611 0  0.126020883389262 0.624819625790251 0  0.1890835556055278 0.624719404632754 0  0.2522116155744684 0.6246065039455142 0  0.3154316363897383 0.6244755752147571 0  0.3787747070744348 0.6243202037396972 0  0.4422781301246508 0.6241325132899843 0  0.5059876333694519 0.6239026918307934 0  0.5699604258104524 0.6236184497690614 0  0.6342697517444315 0.6232644812021244 0  0.6990123207060578 0.6228221507858934 0  0.7643215417206004 0.6222700134026744 0  0.8303925300130772 0.6215867230269263 0  0.8975297850720193 0.6207600210540953 0  0.9662334139583477 0.6198087178236346 0  1.037339090887184 0.618820564238917 0  0 0.6875 0  0.06295436889996413 0.6874185144951998 0  0.125927919916429 0.6873331436604827 0  0.1889407081208046 0.6872397485888511 0  0.2520148190502436 0.6871336330807398 0  0.3151755639961926 0.6870091923930284 0  0.3784529244634214 0.6868594636107964 0  0.4418833763024199 0.6866755269537458 0  0.5055122903534817 0.6864456910484733 0  0.5693972511016159 0.6861543761610858 0  0.6336129844857722 0.6857805964344584 0  0.6982594850818091 0.6852959703263118 0  0.7634772763078661 0.6846623910617204 0  0.8294796362273051 0.6838303736613818 0  0.8966249776897124 0.682742549853866 0  0.9655749788928981 0.6813588562309032 0  1.037594145116183 0.6797421054477725 0  0 0.75 0  0.06288955539280895 0.7499291107154684 0  0.1257959663329156 0.749854640801186 0  0.1887368856033185 0.7497727453785422 0  0.2517318844564198 0.7496789888858811 0  0.3148035991201705 0.7495679557447217 0  0.3779791361613928 0.7494327282547467 0  0.4412918621659432 0.7492641522519458 0  0.5047837454527845 0.7490497715447 0  0.5685084956735962 0.7487722484928822 0  0.6325359406271189 0.7484069853943632 0  0.6969586908517716 0.7479184952626059 0  0.7619042741802501 0.747254818244905 0  0.8275633995521565 0.7463390620984013 0  0.8942701217525477 0.7450582920631938 0  0.9627437685151554 0.7432625552370755 0  1.034681540698113 0.7408913645195209 0  0 0.8125 0  0.06280808164885089 0.8124432577325247 0  0.1256297691229069 0.8123835158357978 0  0.1884793344869287 0.8123175326497213 0  0.2513726955141912 0.8122415191443008 0  0.314328413996573 0.8121507664868093 0  0.3773689368795476 0.812039130607708 0  0.4405221909840776 0.8118982812148455 0  0.5038236558203358 0.8117165692677368 0  0.5673190239170653 0.8114772758221285 0  0.6310674658422561 0.8111558467794617 0  0.695145303095021 0.8107154277151948 0  0.7596498340359286 0.810099426791572 0  0.8247057219199248 0.8092185074154908 0  0.8904972329653352 0.8079263105505704 0  0.9574750608422283 0.8059733932916744 0  1.027660153335906 0.8029613470763498 0  0 0.875 0  0.06271321115780297 0.8749603748783423 0  0.1254359858303215 0.8749185851231367 0  0.1881783704486747 0.8748722804486823 0  0.250951626662283 0.874818687404468 0  0.3137689808378647 0.8747543149885494 0  0.3766465724491696 0.8746745383022625 0  0.4396046943973104 0.8745729772361597 0  0.5026694233554575 0.8744405352421448 0  0.565874683534496 0.8742638733796448 0  0.6292645214016195 0.8740229394469634 0  0.692894441897372 0.8736868958693551 0  0.7568278046838319 0.8732072341222242 0  0.8211153413321868 0.8725053401812228 0  0.885727683868045 0.8714458358935432 0  0.9503976991448819 0.869759900730538 0  1.014604076740957 0.8667474662299099 0  0 0.9375 0  0.06260898371576298 0.9374796303985069 0  0.1252229044648096 0.937458125992107 0  0.1878469549424507 0.9374342510991607 0  0.2504869784273531 0.9374065390336427 0  0.3131498771659789 0.9373731291331123 0  0.3758441400748145 0.9373315330207276 0  0.4385805521629637 0.93727828009
[...]
<PointData  Vectors="f_54"> 
<DataArray  type="Float64"  Name="f_54"  NumberOfComponents="3" format="ascii">0.0000000000000000e+00 0.0000000000000000e+00 0.0000000000000000e+00  0.0000000000000000e+00 0.0000000000000000e+00 0.0000000000000000e+00  0.0000000000000000e+00 0.0000000000000000e+00 0.0000000000000000e+00  0.0000000000000000e+00 0.0000000000000000e+00 0.0000000000000000e+00  0.0000000000000000e+00 0.0000000000000000e+00 0.0000000000000000e+00  0.0000000000000000e+00 0.0000000000000000e+00 0.0000000000000000e+00  0.0000000000000000e+00 0.0000000000000000e+00 0.0000000000000000e+00  0.0000000000000000e+00 0.0000000000000000e+00 0.0000000000000000e+00  0.0000000000000000e+00 0.0000000000000000e+00 0.0000000000000000e+00  0.0000000000000000e+00 0.0000000000000000e+00 0.0000000000000000e+00  0.0000000000000000e+00 0.0000000000000000e+00 0.0000000000000000e+00  0.0000000000000000e+00 0.0000000000000000e+00 0.0000000000000000e+00  0.0000000000000000e+00 0.0000000000000000e+00 0.0000000000000000e+00  0.0000000000000000e+00 0.0000000000000000e+00 0.0000000000000000e+00  0.0000000000000000e+00 0.0000000000000000e+00 0.0000000000000000e+00  0.0000000000000000e+00 0.0000000000000000e+00 0.0000000000000000e+00  0.0000000000000000e+00 0.0000000000000000e+00 0.0000000000000000e+00  0.0000000000000000e+00 0.0000000000000000e+00 0.0000000000000000e+00  3.6467069502341181e-07 -9.3633374223997964e-08 0.0000000000000000e+00  7.6614652181666009e-07 -1.8993218558618014e-07 0.0000000000000000e+00  1.2458538091372757e-06 -2.9165353945518097e-07 0.0000000000000000e+00  1.8546572959721035e-06 -4.0165971220965556e-07 0.0000000000000000e+00  2.6590457003675552e-06 -5.2301446020490177e-07 0.0000000000000000e+00  3.7493311451902318e-06 -6.5915027395223741e-07 0.0000000000000000e+00  5.2511643872028512e-06 -8.1417445264530585e-07 0.0000000000000000e+00  7.3426846874092254e-06 -9.9344412671818893e-07 0.0000000000000000e+00  1.0282036834398856e-05 -1.2046781813305824e-06 0.0000000000000000e+00  1.4456131713988781e-05 -1.4602282300451883e-06 0.0000000000000000e+00  2.0478272543271486e-05 -1.7821816442436261e-06 0.0000000000000000e+00  2.9411142783374341e-05 -2.2154481160559694e-06 0.0000000000000000e+00  4.3344643571422720e-05 -2.8664247689712870e-06 0.0000000000000000e+00  6.7073531217575136e-05 -4.0322091237550505e-06 0.0000000000000000e+00  1.1351863562822979e-04 -6.6792547093235942e-06 0.0000000000000000e+00  2.2371768772936441e-04 -1.4447850455163072e-05 0.0000000000000000e+00  0.0000000000000000e+00 0.0000000000000000e+00 0.0000000000000000e+00  6.9360910556616911e-07 -1.8485393894475801e-07 0.0000000000000000e+00  1.4568211154450044e-06 -3.7503169011924957e-07 0.0000000000000000e+00  2.3680060126015533e-06 -5.7602574216762482e-07 0.0000000000000000e+00  3.5235122323987752e-06 -7.9351285217942819e-07 0.0000000000000000e+00  5.0494169126368627e-06 -1.0335160913180191e-06 0.0000000000000000e+00  7.1169800475269374e-06 -1.3026809317534237e-06 0.0000000000000000e+00  9.9639451861934723e-06 -1.6087738333577643e-06 0.0000000000000000e+00  1.3925101289091018e-05 -1.9615952873564276e-06 0.0000000000000000e+00  1.9478167494704062e-05 -2.3746400126543943e-06 0.0000000000000000e+00  2.7316790129836610e-05 -2.8680698336753375e-06 0.0000000000000000e+00  3.8474949560347085e-05 -3.4739069472785830e-06 0.0000000000000000e+00  5.4553208700367254e-05 -4.2445218800784636e-06 0.0000000000000000e+00  7.8143055434220135e-05 -5.2630920057684962e-06 0.0000000000000000e+00  1.1357363752626471e-04 -6.6352048554008651e-06 0.0000000000000000e+00  1.6776246800373682e-04 -8.3238704882376238e-06 0.0000000000000000e+00  2.4798525405964018e-04 -9.0416698277582301e-06 0.0000000000000000e+00  0.0000000000000000e+00 0.0000000000000000e+00 0.0000000000000000e+00  9.5397934413459070e-07 -2.7095890383930756e-07 0.0000000000000000e+00  2.0023433642075646e-06 -5.4986015791086812e-07 0.0000000000000000e+00  3.2513834915392638e-06 -8.4486461602826710e-07 0.0000000000000000e+00  4.8319789443870029e-06 -1.1643503474931684e-06 0.0000000000000000e+00  6.9156286545204876e-06 -1.5170861181159055e-06 0.0000000000000000e+00  9.7353642224779485e-06 -1.9125160433387299e-06 0.0000000000000000e+00  1.3613972425945400e-05 -2.3612721380768535e-06 0.0000000000000000e+00  1.9002767610776793e-05 -2.8761154881178601e-06 0.0000000000000000e+00  2.6535328608891026e-05 -3.4736154729407939e-06 0.0000000000000000e+00  3.7102060862878619e-05 -4.1769587097128697e-06 0.0000000000000000e+00  5.1952021709349697e-05 -5.0201358527866654e-06 0.0000000000000000e+00  7.2822489923158725e-05 -6.0527693783710466e-06 0.0000000000000000e+00  1.0206205206758764e-04 -7.3414600841412965e-06 0.0000000000000000e+00  1.4257492169464950e-04 -8.9554959788199953e-06 0.0000000000000000e+00  1.9696735403478579e-04 -1.0921280789608146e-05 0.0000000000000000e+00  2.6420032663403034e-04 -1.3255127951334958e-05 0.0000000000000000e+00  0.0000000000000000e+00 0.0000000000000000e+00 0.0000000000000000e+00  1.1210898291555515e-06 -3.4929513767202194e-07 0.0000000000000000e+00  2.3502181348620884e-06 -7.0909575929021867e-07 0.0000000000000000e+00  3.8090601282227861e-06 -1.0901478484534765e-06 0.0000000000000000e+00  5.6477699190289137e-06 -1.5034064117507816e-06 0.0000000000000000e+00  8.0636083080921024e-06 -1.9601626690068240e-06 0.0000000000000000e+00  1.1325216877035369e-05 -2.4722268153994038e-06 0.0000000000000000e+00  1.5805031108390534e-05 -3.0522631536351697e-06 0.0000000000000000e+00  2.2022589318513995e-05 -3.7144647985471915e-06 0.0000000000000000e+00  3.0701192559504084e-05 -4.4758824137265199e-06 0.0000000000000000e+00  4.2838285954533007e-05 -5.3588435538800217e-06 0.0000000000000000e+00  5.9782964752820381e-05 -6.3948481569835195e-06 0.0000000000000000e+00  8.3294559656882570e-05 -7.6296413621367252e-06 0.0000000000000000e+00  1.1550725621383908e-04 -9.1268784356607565e-06 0.0000000000000000e+00  1.5861656442348854e-04 -1.0962492358315691e-05 0.0000000000000000e+00  2.1391579797113021e-04 -1.3192340738369057e-05 0.0000000000000000e+00  2.7971878142161256e-04 -1.5751846824491391e-05 0.0000000000000000e+00  0.0000000000000000e+00 0.0000000000000000e+00 0.0000000000000000e+00  1.1814666788549051e-06 -4.1728011913311816e-07 0.0000000000000000e+00  2.4716664705037607e-06 -8.4757126732680882e-07 0.0000000000000000e+00  3.9930328955184123e-06 -1.3041328682275206e-06 0.0000000000000000e+00  5.8971088445865442e-06 -1.8004189101869172e-06 0.0000000000000000e+00  8.3838432617233604e-06 -2.3501201223545702e-06 0.0000000000000000e+00  1.1727049717840435e-05 -2.9671518441022457e-06 0.0000000000000000e+00  1.6308734619500373e-05 -3.6656290088089087e-06 0.0000000000000000e+00  2.2665169109195252e-05 -4.4599665998905418e-06 0.0000000000000000e+00  3.1546907678626047e-05 -5.3654340934946963e-06 0.0000000000000000e+00  4.3992058011887491e-05 -6.3998271798375882e-06 0.0000000000000000e+00  6.1404147934227202e-05 -7.5874322521765345e-06 0.0000000000000000e+00  8.5607819554027895e-05 -8.9670765175160027e-06 0.0000000000000000e+00  1.1882034188283865e-04 -1.0606417000687432e-05 0.0000000000000000e+00  1.6342311457803578e-04 -1.2623774880057019e-05 0.0000000000000000e+00  2.2138017357420259e-04 -1.5214871652175228e-05 0.0000000000000000e+00  2.9328095079228723e-04 -1.8672234890439849e-05 0.0000000000000000e+00  0.0000000000000000e+00 0.0000000000000000e+00 0.0000000000000000e+00  1.1346117799511820e-06 -4.7240905804262355e-07 0.0000000000000000e+00  2.3654105473619059e-06 -9.6027126123681895e-07 0.0000000000000000e+00  3.8005723525441523e-06 -1.4793093139580429e-06 0.0000000000000000e+00  5.5744260798904737e-06 -2.0454833512224359e-06 0.0000000000000000e+00  7.8652817331061472e-06 -2.6749535416158520e-06 0.0000000000000000e+00  1.0919671933337286e-05 -3.3838323281634524e-06 0.0000000000000000e+00  1.5086196880765562e-05 -4.1876591188053080e-06 0.0000000000000000e+00  2.0862853970199732e-05 -5.1005938714921374e-06 0.0000000000000000e+00  2.8962016982866449e-05 -6.1345330805787294e-06 0.0000000000000000e+00  4.0396124992049010e-05 -7.2988854712248526e-06 0.0000000000000000e+00  5.6582772663824830e-05 -8.6029517662501714e-06 0.0000000000000000e+00  7.9457460357293866e-05 -1.0065304588869037e-05 0.0000000000000000e+00  1.1156378764071123e-04 -1.1738984060912494e-05 0.0000000000000000e+00  1.5607063281186957e-04 -1.3768045024468709e-05 0.0000000000000000e+00  2.1667773110511726e-04 -1.6498496781223068e-05 0.0000000000000000e+00  2.9750303501621694e-04 -2.0669983569631240e-05 0.0000000000000000e+00  0.0000000000000000e+00 0.0000000000000000e+00 0.0000000000000000e+00  9.9319617724556806e-07 -5.1226464256572855e-07 0.0000000000000000e+00  2.0582111908564776e-06 -1.0423226737156056e-06 0.0000000000000000e+00  3.2754223316746116e-06 -1.6083072945066093e-06 0.0000000000000000e+00  4.7447459061261494e-06 -2.2287718855943843e-06 0.0000000000000000e+00  6.5996547632857195e-06 -2.9226494456267513e-06 0.0000000000000000e+00  9.0273147269608236e-06 -3.7088330177134607e-06 0.0000000000000000e+00  1.2298559014413561e-05 -4.6051430377491485e-06 0.0000000000000000e+00  1.6813095706942879e-05 -5.6263891748062127e-06 0.0000000000000000e+00  2.3167579809496588e-05 -6.7812800141131885e-06 0.0000000000000000e+00  3.2256740376542142e-05 -8.0683450598812823e-06 0.0000000000000000e+00  4.5419825708632090e-05 -9.4724498782271243e-06 0.0000000000000000e+00  6.4644549232025650e-05 -1.0967307925689792e-05 0.0000000000000000e+00  9.2836615434985624e-05 -1.2538281092079854e-05 0.0000000000000000e+00  1.3415724595781746e-04 -1.4257695633951910e-05 0.0000000000000000e+00  1.9444504218127362e-04 -1.6475284886211851e-05 0.0000000000000000e+00  2.8183809069749332e-04 -2.0227368114266464e-05 0.0000000000000000e+00  0.0000000000000000e+00 0.0000000000000000e+00 0.0000000000000000e+00  7.8156293969108665e-07 -5.3455725278834222e-07 0.0000000000000000e+00  1.6018794437007221e-06 -1.0890401742989377e-06 0.0000000000000000e+00  2.5033777691541352e-06 -1.6838665589237844e-06 0.0000000000000000e+00  3.5380860433180252e-06 -2.3402746515046820e-06 0.0000000000000000e+00  4.7754268950414350e-06 -3.0804441130443147e-06 0.0000000000000000e+00  6.3148305886156639e-06 -3.9271299304505817e-06 0.0000000000000000e+00  8.3069731060769918e-06 -4.9023911859175158e-06 0.0000000000000000e+00  1.0990158072259815e-05 -6.0247172558311830e-06 0.0000000000000000e+00  1.4752910781740847e-05 -7.3034752084710175e-06 0.0000000000000000e+00  2.0241118220774941e-05 -8.7292645693927261e-06 0.0000000000000000e+00  2.8538795052375308e-05 -1.0259060788549709e-05 0.0000000000000000e+00  4.1465429305385143e-05 -1.1797804728369916e-05 0.0000000000000000e+00  6.2046399847917995e-05 -1.3188232487086716e-05 0.0000000000000000e+00  9.5218463930813737e-05 -1.4249091817905872e-05 0.0000000000000000e+00  1.4882886130653062e-04 -1.4967077827963698e-05 0.0000000000000000e+00  2.3503488810712965e-04 -1.6069127988243052e-05 0.0000000000000000e+00  0.0000000000000000e+00 0.0000000000000000e+00 0.0000000000000000e+00  5.3255895024647584e-07 -5.3722912162691215e-07 0.0000000000000000e+00  1.0667384288265425e-06 -1.0961052047374489e-06 0.0000000000000000e+00  1.6020301573867083e-06 -1.6990146138997003e-06 0.0000000000000000e+00  2.1351982330716155e-06 -2.3698143955650768e-06 0.0000000000000000e+00  2.6597493466261727e-06 -3.1343531473756515e-06 0.0000000000000000e+00  3.1675068079564869e-06 -4.0205612192715013e-06 0.0000000000000000e+00  3.6551552429795727e-06 -5.0575962875724887e-06 0.0000000000000000e+00  4.1418241460534139e-06 -6.2730123919928891e-06 0.0000000000000000e+00  4.7100187820542359e-06 -7.6859535700067565e-06 0.0000000000000000e+00  5.5939339729882976e-06 -9.2926673506825090e-06 0.0000000000000000e+00  7.3600662718137803e-06 -1.1037949896776787e-05 0.0000000000000000e+00  1.1259010910755696e-05 -1.2763059443849753e-05 0.0000000000000000e+00  1.9873782739884011e-05 -1.4121471867412519e-05 0.0000000000000000e+00  3.8230608418397665e-05 -1.4475229091635601e-05 0.0000000000000000e+00  7.5521860225376646e-05 -1.2873249759012282e-05 0.0000000000000000e+00  1.4749830555711604e-04 -8.4504640318884879e-06 0.0000000000000000e+00  0.0000000000000000e+00 0.0000000000000000e+00 0.0000000000000000e+00  2.8291612286573566e-07 -5.1865020783917186e-07 0.0000000000000000e+00  5.3190059658987733e-07 -1.0599516647510616e-06 0.0000000000000000e+00  7.0499346247049210e-07 -1.6476118142040098e-06 0.0000000000000000e+00  7.4447166915493849e-07 -2.3076491396170497e-06 0.0000000000000000e+00  5.6683452875757442e-07 -3.0695571399359560e-06 0.0000000000000000e+00  5.0721058629982647e-08 -3.9673441728320742e-06 0.0000000000000000e+00  -9.7675913497386756e-07 -5.0400652341510380e-06 0.0000000000000000e+00  -2.7523377041357094e-06 -6.3308707988054944e-06 0.0000000000000000e+00  -5.5786699630385832e-06 -7.8822629519797586e-06 0.0000000000000000e+00  -9.7938390049414100e-06 -9.7222728765901299e-06 0.0000000000000000e+00  -1.5656872828458751e-05 -1.1829768878312997e-05 0.0000000000000000e+00  -2.3039126010480802e-05 -1.4053470912306968e-05 0.0000000000000000e+00  -3.0704622218928355e-05 -1.5933515640111970e-05 0.0000000000000000e+00  -3.4809336684312190e-05 -1.6339810187352622e-05 0.0000000000000000e+00  -2.6167144837219077e-05 -1.2862565493000396e-05 0.0000000000000000e+00  1.3843260130346096e-05 -1.2493349377186863e-06 0.0000000000000000e+00  0.0000000000000000e+00 0.0000000000000000e+00 0.0000000000000000e+00  6.7671578013214816e-08 -4.7791129660542930e-07 0.0000000000000000e+00  7.3301184194745906e-08 -9.7838717385985065e-07 0.0000000000000000e+00  -5.8127627555679011e-08 -1.5253617633079133e-06 0.0000000000000000e+00  -4.2879094976567423e-07 -2.1459301659335422e-06 0.0000000000000000e+00  -1.1870134755104035e-06 -2.8722813473709253e-06 0.0000000000000000e+00  -2.5533444120560269e-06 -3.7440524056352839e-06 0.0000000000000000e+00  -4.8569708094622747e-06 -4.8111491600089337e-06 0.0000000000000000e+00  -8.5856779668909149e-06 -6.1367677708332492e-06 0.0000000000000000e+00  -1.4450353138975109e-05 -7.7993991661842042e-06 0.0000000000000000e+00  -2.3456181178173488e-05 -9.8898608135473840e-06 0.0000000000000000e+00  -3.6945693301475453e-05 -1.2491731279456299e-05 0.0000000000000000e+00  -5.6505614809447495e-05 -1.5612193614909786e-05 0.0000000000000000e+00  -8.3447499772165861e-05 -1.8970951915318624e-05 0.0000000000000000e+00  -1.1717427098419878e-04 -2.1395692626535066e-05 0.0000000000000000e+00  -1.5115518859677379e-04 -1.9219793019816864e-05 0.0000000000000000e+00  -1.6564285308704976e-04 -2.9268229435475132e-06 0.0000000000000000e+00  0.0000000000000000e+00 0.0000000000000000e+00 0.0000000000000000e+00  -8.5582372046974665e-08 -4.1518074835583002e-07 0.0000000000000000e+00  -2.4887127422523468e-07 -8.5139060765857270e-07 0.0000000000000000e+00  -5.8345307589217179e-07 -1.3312291667513777e-06 0.0000000000000000e+00  -1.2172239135370485e-06 -1.8810378291801613e-06 0.0000000000000000e+00  -2.3376563498404113e-06 -2.5334798541852084e-06 0.0000000000000000e+00  -4.2286686860789790e-06 -3.3311606578128830e-06 0.0000000000000000e+00  -7.3264996678066140e-06 -4.3319530699247881e-06 0.0000000000000000e+00  -1.2305737489825853e-05 -5.6170097187547534e-06 0.0000000000000000e+00  -2.0211772342688543e-05 -7.3027991329013604e-06 0.0000000000000000e+00  -3.2660752626139676e-05 -9.5584786159115320e-06 0.0000000000000000e+00  -5.2124241147328381e-05 -1.2627698979022031e-05 0.0000000000000000e+00  -8.2271680634134732e-05 -1.6842132129094150e-05 0.0000000000000000e+00  -1.2815304354340577e-04 -2.2562019672349790e-05 0.0000000000000000e+00  -1.9533033518137147e-04 -2.9752466307906228e-05 0.0000000000000000e+00  -2.8501444869911328e-04 -3.5884193277963361e-05 0.0000000000000000e+00  -3.8089019299399556e-04 -2.7169886536540919e-05 0.0000000000000000e+00  0.0000000000000000e+00 0.0000000000000000e+00 0.0000000000000000e+00  -1.6158469885779928e-07 -3.3204483258763467e-07 0.0000000000000000e+00  -4.0108498685901584e-07 -6.8191217820326907e-07 0.0000000000000000e+00  -8.1233027272032587e-07 -1.0689745367386689e-06 0.0000000000000000e+00  -1.5242206792426803e-06 -1.5163708594404792e-06 0.0000000000000000e+00  -2.7274808828479173e-06 -2.0538097837373267e-06 0.0000000000000000e+00  -4.7152595508473171e-06 -2.7218212597857214e-06 0.0000000000000000e+00  -7.9478298099776882e-06 -3.5786263023701155e-06 0.0000000000000000e+00  -1.3159005376697016e-05 -4.7117547813926249e-06 0.0000000000000000e+00  -2.1535344334157832e-05 -6.2584352880576094e-06 0.0000000000000000e+00  -3.5023387803637557e-05 -8.4426051665832370e-06 0.0000000000000000e+00  -5.6861036975723159e-05 -1.1644312448221149e-05 0.0000000000000000e+00  -9.2485027019499654e-05 -1.6533940370679904e-05 0.0000000000000000e+00  -1.5097662421932238e-04 -2.4336853071405012e-05 0.0000000000000000e+00  -2.4680031369163613e-04 -3.7330989751984929e-05 0.0000000000000000e+00  -3.9868478183812848e-04 -5.9331072360978630e-05 0.0000000000000000e+00  -5.9931358897986268e-04 -8.8385181149808670e-05 0.0000000000000000e+00  0.0000000000000000e+00 0.0000000000000000e+00 0.0000000000000000e+00  -1.6033619426989326e-07 -2.3171785436951165e-07 0.0000000000000000e+00  -3.8321652544959048e-07 -4.7640981074786393e-07 0.0000000000000000e+00  -7.4400417377326092e-07 -7.4829841426857304e-07 0.0000000000000000e+00  -1.3466684506082489e-06 -1.0646764429271106e-06 0.0000000000000000e+00  -2.3461142942607255e-06 -1.4482995529111165e-06 0.0000000000000000e+00  -3.9829311368826268e-06 -1.9311738551535763e-06 0.0000000000000000e+00  -6.6405731063019749e-06 -2.5609696398876912e-06 0.0000000000000000e+00  -1.0943412500448446e-05 -3.4124417258254779e-06 0.0000000000000000e+00  -1.7931332732512964e-05 -4.6086697624765202e-06 0.0000000000000000e+00  -2.9382897905120327e-05 -6.3622975211944439e-06 0.0000000000000000e+00  -4.8438429280998240e-05 -9.0594947685861264e-06 0.0000000000000000e+00  -8.0850545564584692e-05 -1.3441368142267151e-05 0.0000000000000000e+00  -1.3757598967809547e-04 -2.1031183347135118e-05 0.0000000000000000e+00  -2.4019906828343167e-04 -3.5291862824516449e-05 0.0000000000000000e+00  -4.3200218929839018e-04 -6.5566525898005240e-05 0.0000000000000000e+00  -8.0306707790366873e-04 -1.4576902091325856e-04 0.0000000000000000e+00  0.0000000000000000e+00 0.0000000000000000e+00 0.0000000000000000e+00  -9.7217999656400282e-08 -1.1901093696954589e-07 0.0000000000000000e+00  -2.2909113827208691e-07 -2.4484781839394713e-07 0.0000000000000000e+00  -4.3738136839270311e-07 -3.8502975328306359e-07 0.0000000000000000e+00  -7.7981407913290653e-07 -5.4879137101607327e-07 0.0000000000000000e+00  -1.3426787302686532e-06 -7.4845011729472110e-07 0.0000000000000000e+00  -2.2606822385441691e-06 -1.0016127707441403e-06 0.0000000000000000e+00  -3.7501446489853878e-06 -1.3349829769626290e-06 0.0000000000000000e+00  -6.1671428969769750e-06 -1.7912576107961945e-06 0.0000000000000000e+00  -1.0114084427612179e-05 -2.4421152997505034e-06 0.0000000000000000e+00  -1.6645167806536438e-05 -3.4134763883669181e-06 0.0000000000000000e+00  -2.7686332671286923e-05 -4.9356827312693592e-06 0.0000000000000000e+00  -4.6952348002131147e-05 -7.4426806205606760e-06 0.0000000000000000e+00  -8.2087614619716926e-05 -1.1751903568393960e-05 0.0000000000000000e+00  -1.4985515432187178e-04 -1.9262840462552049e-05 0.0000000000000000e+00  -2.8735320959042977e-04 -3.1275590817146896e-05 0.0000000000000000e+00  -5.5632291178553210e-04 -4.2748660509754413e-05 0.0000000000000000e+00  0.0000000000000000e+00 0.0000000000000000e+00 0.0000000000000000e+00  0.0000000000000000e+00 0.0000000000000000e+00 0.0000000000000000e+00  0.0000000000000000e+00 0.0000000000000000e+00 0.0000000000000000e+00  0.0000000000000000e+00 0.0000000000000000e+00 0.0000000000000000e+00  0.0000000000000000e+00 0.0000000000000000e+00 0.0000000000000000e+00  0.0000000000000000e+00 0.0000000000000000e+00 0.0000000000000000e+00  0.0000000000000000e+00 0.0000000000000000e+00 0.0000000000000000e+00  0.0000000000000000e+00 0.0000000000