<?xml version="1.0"?>
<VTKFile type="UnstructuredGrid"  version="0.1"  >
<UnstructuredGrid>
<Piece  NumberOfPoints="289" NumberOfCells="512">
<Points>
<DataArray  type="Float64"  NumberOfComponents="3"  format="ascii">0 0 0  0.0625 0 0  0.125 0 0  0.1875 0 0  0.25 0 0  0.3125 0 0  0.375 0 0  0.4375 0 0  0.5 0 0  0.5625 0 0  0.625 0 0  0.6875 0 0  0.75 0 0  0.8125 0 0  0.875 0 0  0.9375 0 0  1 0 0  0 0.0625 0  0.06260700927008131 0.06247832477223626 0  0.125217516333121 0.06245619163823424 0  0.187835130020658 0.06243316285703224 0  0.2504635807291694 0.06240886023053738 0  0.313106777103312 0.06238300565122686 0  0.3757688589262222 0.06235547401900472 0  0.4384542570671779 0.06232636000797561 0  0.5011677949624077 0.06229605556107813 0  0.5639149258154714 0.06226532537809234 0  0.6267023538253552 0.06223534832305432 0  0.6895397027096561 0.06220765306279451 0  0.7524440736152436 0.06218378697971983 0  0.8154528729219825 0.06216431812733247 0  0.8786614489297623 0.06214599398809892 0  0.9423388750700752 0.06211303965864722 0  1.007304015506269 0.06200878146251831 0  0 0.125 0  0.06271061041564488 0.1249570900546387 0  0.1254281940271308 0.1249132335342911 0  0.1881599526615498 0.1248675201688188 0  0.2509133557988212 0.1248191496459349 0  0.3136962675425914 0.1247675092218542 0  0.3765170648513886 0.1247122783964613 0  0.4393847602539546 0.124653566406944 0  0.5023091720688254 0.1245920816220207 0  0.5653012542632777 0.1245293174915925 0  0.6283738525025895 0.1244677118182028 0  0.6915434825878115 0.1244106883354848 0  0.7548343676309903 0.1243624254913195 0  0.8182869024577407 0.1243271876906221 0  0.8819724347469248 0.1243085087658542 0  0.9460052436603104 0.1243113950739999 0  1.010476451012259 0.1243642191830091 0  0 0.1875 0  0.06280730522626572 0.187436791995374 0  0.1256249648669903 0.1873720948336263 0  0.188463683152845 0.1873044636557183 0  0.2513346066688012 0.187232595071307 0  0.3142495354933067 0.1871554335001167 0  0.3772211158228345 0.1870723222937417 0  0.4402630160890409 0.1869832140157522 0  0.5033901029700044 0.1868889494817711 0  0.566618662004848 0.1867916019625787 0  0.6299667502856133 0.1866948533970025 0  0.6934547919209373 0.1866043100336909 0  0.7571063541973057 0.1865275502725691 0  0.8209480217310217 0.1864734602289092 0  0.8850034827997864 0.1864497772848318 0  0.9492662403770542 0.1864553789726284 0  1.013616803432992 0.1864532135724519 0  0 0.25 0  0.06289370781693068 0.2499179793732879 0  0.1258009709171836 0.2498338595490064 0  0.1887358163538829 0.2497455810911224 0  0.2517129212914549 0.2496512278729213 0  0.3147479271281823 0.249549146981322 0  0.3778577263099381 0.2494381325183374 0  0.4410607072721667 0.249317700593581 0  0.5043769343786283 0.2491884848236964 0  0.5678282173133413 0.2490527780408488 0  0.631437958469979 0.2489152283840687 0  0.6952304739257195 0.2487836504987264 0  0.7592289528948249 0.2486698047058527 0  0.8234499042279619 0.2485897721036086 0  0.8878891998797764 0.2485631278212554 0  0.9524910309760367 0.2486095641688036 0  1.017092620710474 0.2487427513811976 0  0 0.3125 0  0.06296662532188219 0.3124012661601877 0  0.1259497238143284 0.3122997567918638 0  0.1889663600057338 0.3121927149591415 0  0.2520344917311936 0.3120774886272271 0  0.3151734125213884 0.3119516405769741 0  0.3784041695852304 0.3118131384171343 0  0.4417499340068883 0.3116606669659609 0  0.5052362762446042 0.3114941186399911 0  0.5688912490962126 0.3113153321644215 0  0.6327450669565865 0.311129160249532 0  0.6968289218963153 0.310944938879648 0  0.7611719680874031 0.3107783745519805 0  0.8257946036056296 0.3106537073830371 0  0.8906950646350384 0.3106056831491486 0  0.9558266094144288 0.3106804029434948 0  1.021069312701694 0.3109338349536432 0  0 0.375 0  0.06302315405215289 0.3748873294205763 0  0.1260652962577388 0.3747711613009131 0  0.189146118763972 0.3746479761399667 0  0.2522864812861922 0.3745142728496899 0  0.3155090090991382 0.3743666369421149 0  0.3788386898020321 0.3742018955803492 0  0.4423034539670158 0.3740174143145194 0  0.5059347029001435 0.3738116174139352 0  0.5697677017462492 0.3735848528362254 0  0.6338416630846466 0.373340774642142 0  0.6981991614015185 0.3730884729736522 0  0.7628841890962368 0.3728456164434009 0  0.8279377001465452 0.3726428112729778 0  0.8933892121793303 0.372529088160939 0  0.9592441300461225 0.3725777439515677 0  1.025471335078625 0.3728907067982049 0  0 0.4375 0  0.06306079426079989 0.4373768880192083 0  0.1261425537736005 0.4372495540192059 0  0.1892670466324272 0.4371136940916875 0  0.2524574987370623 0.4369648866453721 0  0.3157393675393458 0.4367985820740602 0  0.3791411594821484 0.4366101694664311 0  0.4426953039532541 0.4363951792258376 0  0.5064390942181367 0.4361497195677352 0  0.5704157011336906 0.4358713087859605 0  0.634675253281367 0.4355603654857886 0  0.6992759459025825 0.4352227651523217 0  0.764285075517749 0.4348740521608008 0  0.8297798110763508 0.434546028616804 0  0.8958475707282345 0.4342962757356075 0  0.9625866983565864 0.4342202411526997 0  1.030111339020287 0.4344636318132463 0  0 0.5 0  0.06307758287614057 0.4998706592220368 0  0.1261774270699609 0.4997364353267155 0  0.1893226730291889 0.4995922881208505 0  0.2525381985536758 0.4994328823896543 0  0.3158515708296415 0.4992524638182038 0  0.3792941018178367 0.499044780292783 0  0.4429020603880397 0.4988030969236305 0  0.5067181245231449 0.4985203968403047 0  0.570793219623024 0.4981899391858186 0  0.6351890125792746 0.4978064873944039 0  0.6999815558648506 0.4973687653135677 0  0.7652669391300148 0.4968840890679057 0  0.8311703020255012 0.4963766314110233 0  0.8978601051974111 0.4959010484598962 0  0.9655702155632339 0.4955619747360868 0  1.034634985587289 0.4955345229527501 0  0 0.5625 0  0.06307223769497135 0.5623692933900997 0  0.1261672124932238 0.5622331898366983 0  0.1893085851007638 0.5620860538149657 0  0.2525219871248057 0.5619217566714065 0  0.3158361288285008 0.5617334146655443 0  0.379284071522381 0.561513118558759 0  0.4429047585092876 0.5612516744644258 0  0.5067449617533336 0.5609384108091456 0  0.5708619398859081 0.5605611793177869 0  0.6353273982556258 0.5601068290321295 0  0.7002339387971845 0.5595627428929097 0  0.7657062943855785 0.5589206494936212 0  0.8319214158994319 0.558185075780851 0  0.8991436688433044 0.5573904421441529 0  0.9677830254048436 0.5566309889455832 0  1.038485658353742 0.556099202335786 0  0 0.625 0  0.06304429990313611 0.6248732914731604 0  0.126110873449846 0.6247409113718608 0  0.1892229226967556 0.6245968750102044 0  0.2524057698756552 0.624434517618926 0  0.3156880715828544 0.6242460918726305 0  0.3791032465841645 0.6240222879873926 0  0.442691236947191 0.623751651397323 0  0.5065008025180698 0.6234198837100046 0  0.5705927353207897 0.6230090480239671 0  0.6350448190675417 0.6224967994157851 0  0.6999603709422233 0.6218560289405001 0  0.7654844168410716 0.6210560192049354 0  0.8318359178474902 0.6200680576601918 0  0.8993714530219455 0.6188828257827975 0  0.9687024959849344 0.6175535111362775 0  1.040888643655098 0.6162686959675444 0  0 0.6875 0  0.0629942561914069 0.6873829152137348 0  0.1260093033127355 0.6872602084571686 0  0.1890668206952537 0.6871258927671897 0  0.2521906377408026 0.6869731641176563 0  0.315407982931087 0.6867938851968615 0  0.3787509746260636 0.6865779223410101 0  0.4422584760705035 0.6863122593349209 0  0.5059785030118891 0.6859797865916618 0  0.5699715342019757 0.6855576343888354 0  0.6343155081746481 0.6850148986375618 0  0.6991144841470114 0.6843096578403293 0  0.7645161904183924 0.6833855474520583 0  0.8307520153981515 0.6821698469013667 0  0.8982317236162777 0.680582078938854 0  0.9677532673256525 0.6785887575287924 0  1.040896333251692 0.6763831292557965 0  0 0.75 0  0.06292361884029722 0.749898104607345 0  0.1258655039995057 0.7497910216121267 0  0.1888447228735951 0.7496731839080796 0  0.2518823760173099 0.7495381578013182 0  0.315002794249983 0.7493780708058935 0  0.3782349847065244 0.7491828420367299 0  0.4416144334487059 0.7489390964758242 0  0.5051853954281064 0.7486285844839503 0  0.5690038511956277 0.7482258303208825 0  0.6331414806249874 0.747694572346287 0  0.6976917071699774 0.7469822860693295 0  0.762781668233395 0.7460116364702961 0  0.8286044303982576 0.7446672146964083 0  0.8955220699850627 0.7427774774931425 0  0.9643983335868542 0.7401138207679876 0  1.037332622561096 0.7366606569003732 0  0 0.8125 0  0.06283494305648341 0.8124184196551801 0  0.1256846362156273 0.8123324902258838 0  0.1885644952762925 0.8122375157992255 0  0.2514916883193234 0.812127997782911 0  0.3144861845242038 0.8119970882883143 0  0.3775720411103458 0.8118358320975306 0  0.4407790206459982 0.8116320604704073 0  0.5041446138664475 0.8113687213183658 0  0.5677164555160547 0.8110212964532051 0  0.6315548670704 0.8105537237783367 0  0.6957347262989936 0.8099118094861442 0  0.7603453599954862 0.8090122083333861 0  0.8254902291890237 0.8077228751454443 0  0.8913168716293242 0.8058254652882351 0  0.9582883395749486 0.802940433682174 0  1.029153979699142 0.7984304724118516 0  0 0.875 0  0.06273176580331248 0.8749430223868424 0  0.1254739072943828 0.8748829054038363 0  0.188237283164623 0.8748162442059032 0  0.2510340558379905 0.8747390140704731 0  0.3138784885090199 0.8746461391604952 0  0.376787946432972 0.8745308819211477 0  0.4397841874605916 0.8743839315890707 0  0.5028950078018164 0.8741919954050881 0  0.5661561827805252 0.8739355688784749 0  0.6296131692175521 0.8735853480157262 0  0.6933205216936568 0.8730963817171089 0  0.7573325211401756 0.8723983321787938 0  0.8216665776758171 0.8713779966572504 0  0.8861948791168027 0.8698404488954095 0  0.9504011130334995 0.8673887681774783 0  1.013236080988248 0.862944562247451 0  0 0.9375 0  0.06261845886375213 0.9374707098707811 0  0.1252422790913401 0.9374397740905774 0  0.1878770792844017 0.9374054030405647 0  0.2505291822200781 0.9373654691803839 0  0.3132060558377934 0.9373172687875911 0  0.375916883787642 0.9372571799925546 0  0.4386733312003126 0.9371801
[...]
<PointData  Vectors="f_54"> 
<DataArray  type="Float64"  Name="f_54"  NumberOfComponents="3" format="ascii">0.0000000000000000e+00 0.0000000000000000e+00 0.0000000000000000e+00  0.0000000000000000e+00 0.0000000000000000e+00 0.0000000000000000e+00  0.0000000000000000e+00 0.0000000000000000e+00 0.0000000000000000e+00  0.0000000000000000e+00 0.0000000000000000e+00 0.0000000000000000e+00  0.0000000000000000e+00 0.0000000000000000e+00 0.0000000000000000e+00  0.0000000000000000e+00 0.0000000000000000e+00 0.0000000000000000e+00  0.0000000000000000e+00 0.0000000000000000e+00 0.0000000000000000e+00  0.0000000000000000e+00 0.0000000000000000e+00 0.0000000000000000e+00  0.0000000000000000e+00 0.0000000000000000e+00 0.0000000000000000e+00  0.0000000000000000e+00 0.0000000000000000e+00 0.0000000000000000e+00  0.0000000000000000e+00 0.0000000000000000e+00 0.0000000000000000e+00  0.0000000000000000e+00 0.0000000000000000e+00 0.0000000000000000e+00  0.0000000000000000e+00 0.0000000000000000e+00 0.0000000000000000e+00  0.0000000000000000e+00 0.0000000000000000e+00 0.0000000000000000e+00  0.0000000000000000e+00 0.0000000000000000e+00 0.0000000000000000e+00  0.0000000000000000e+00 0.0000000000000000e+00 0.0000000000000000e+00  0.0000000000000000e+00 0.0000000000000000e+00 0.0000000000000000e+00  0.0000000000000000e+00 0.0000000000000000e+00 0.0000000000000000e+00  1.4256340436313918e-06 -1.1150741889681841e-07 0.0000000000000000e+00  2.9198546153991973e-06 -2.2737198136653682e-07 0.0000000000000000e+00  4.5567626326065155e-06 -3.5223963340440744e-07 0.0000000000000000e+00  6.4199736407938965e-06 -4.9120222772658612e-07 0.0000000000000000e+00  8.6085758622906898e-06 -6.5008103943029853e-07 0.0000000000000000e+00  1.1244702630913709e-05 -8.3579064167614822e-07 0.0000000000000000e+00  1.4483861880812313e-05 -1.0568408536823704e-06 0.0000000000000000e+00  1.8530198125661619e-05 -1.3240893410997345e-06 0.0000000000000000e+00  2.3661398271783076e-05 -1.6520084068266701e-06 0.0000000000000000e+00  3.0274555722055852e-05 -2.0611873960923489e-06 0.0000000000000000e+00  3.8982586511275602e-05 -2.5842789640204125e-06 0.0000000000000000e+00  5.0844768303627143e-05 -3.2826830912984005e-06 0.0000000000000000e+00  6.7985535945716891e-05 -4.2994984167292516e-06 0.0000000000000000e+00  9.5434975222818185e-05 -6.0430683749365851e-06 0.0000000000000000e+00  1.4717943634509495e-04 -9.8747633703867703e-06 0.0000000000000000e+00  2.6889752736766742e-04 -2.1004818603747953e-05 0.0000000000000000e+00  0.0000000000000000e+00 0.0000000000000000e+00 0.0000000000000000e+00  2.7867655420865836e-06 -2.1897319854719966e-07 0.0000000000000000e+00  5.7071622243865464e-06 -4.4651422994649418e-07 0.0000000000000000e+00  8.9054529438965689e-06 -6.9174758838186598e-07 0.0000000000000000e+00  1.2544400908576386e-05 -9.6466555592185999e-07 0.0000000000000000e+00  1.6816775174865537e-05 -1.2766753936084595e-06 0.0000000000000000e+00  2.1959783430186793e-05 -1.6412917249983578e-06 0.0000000000000000e+00  2.8274232193247025e-05 -2.0750621091383564e-06 0.0000000000000000e+00  3.6151452309990521e-05 -2.5988630292667830e-06 0.0000000000000000e+00  4.6113722740568013e-05 -3.2397997180228757e-06 0.0000000000000000e+00  5.8879925591661215e-05 -4.0341391196326186e-06 0.0000000000000000e+00  7.5481446440610125e-05 -5.0320626837433196e-06 0.0000000000000000e+00  9.7481065297998370e-05 -6.3052715741793686e-06 0.0000000000000000e+00  1.2739489056040303e-04 -7.9556166750808079e-06 0.0000000000000000e+00  1.6943608847874692e-04 -1.0097605125038358e-05 0.0000000000000000e+00  2.3026712237817398e-04 -1.2630555159087557e-05 0.0000000000000000e+00  3.1589219070964639e-04 -1.3726094499731425e-05 0.0000000000000000e+00  0.0000000000000000e+00 0.0000000000000000e+00 0.0000000000000000e+00  4.0175881961851540e-06 -3.1812058595418849e-07 0.0000000000000000e+00  8.2260902925837792e-06 -6.4867722091585870e-07 0.0000000000000000e+00  1.2831257405900554e-05 -1.0048818846509845e-06 0.0000000000000000e+00  1.8065011043321148e-05 -1.4011739838011341e-06 0.0000000000000000e+00  2.4201576844393416e-05 -1.8539858453341934e-06 0.0000000000000000e+00  3.1577410113335855e-05 -2.3826983418412467e-06 0.0000000000000000e+00  4.0616801213034522e-05 -3.0108864960227987e-06 0.0000000000000000e+00  5.1865711645014042e-05 -3.7679738745134511e-06 0.0000000000000000e+00  6.6037391624096235e-05 -4.6913968831608248e-06 0.0000000000000000e+00  8.4074544254941077e-05 -5.8292181934813835e-06 0.0000000000000000e+00  1.0723285666322512e-04 -7.2424929428530466e-06 0.0000000000000000e+00  1.3718291017208333e-04 -9.0046153006250436e-06 0.0000000000000000e+00  1.7608577583054391e-04 -1.1188802095254238e-05 0.0000000000000000e+00  2.2643539705535299e-04 -1.3820073919707413e-05 0.0000000000000000e+00  2.8994298650482689e-04 -1.6750845365896782e-05 0.0000000000000000e+00  3.6351933805677807e-04 -1.9547550425667621e-05 0.0000000000000000e+00  0.0000000000000000e+00 0.0000000000000000e+00 0.0000000000000000e+00  5.0604074657954429e-06 -4.0503771491859717e-07 0.0000000000000000e+00  1.0357625761273142e-05 -8.2586873813760886e-07 0.0000000000000000e+00  1.6146203849660887e-05 -1.2792125462425040e-06 0.0000000000000000e+00  2.2712624007980286e-05 -1.7832856336611001e-06 0.0000000000000000e+00  3.0394884804140692e-05 -2.3587236173968819e-06 0.0000000000000000e+00  3.9606463658081574e-05 -3.0297234029191154e-06 0.0000000000000000e+00  5.0866445911557621e-05 -3.8255240415585025e-06 0.0000000000000000e+00  6.4837592412511858e-05 -4.7823665095943500e-06 0.0000000000000000e+00  8.2373417360225636e-05 -5.9460407036702515e-06 0.0000000000000000e+00  1.0457264416342682e-04 -7.3749034321893932e-06 0.0000000000000000e+00  1.3283128756953823e-04 -9.1424742754864596e-06 0.0000000000000000e+00  1.6886058495705237e-04 -1.1336562594584988e-05 0.0000000000000000e+00  2.1458386394291242e-04 -1.4046781876275576e-05 0.0000000000000000e+00  2.7170325477173370e-04 -1.7322350514216845e-05 0.0000000000000000e+00  3.4052270306901555e-04 -2.1067965094833046e-05 0.0000000000000000e+00  4.1755409994405129e-04 -2.4828842407419646e-05 0.0000000000000000e+00  0.0000000000000000e+00 0.0000000000000000e+00 0.0000000000000000e+00  5.8693171948953310e-06 -4.7635228119191127e-07 0.0000000000000000e+00  1.2007219006107981e-05 -9.7121589846381235e-07 0.0000000000000000e+00  1.8701365012852933e-05 -1.5040986860756248e-06 0.0000000000000000e+00  2.6274767017038075e-05 -2.0961688971977742e-06 0.0000000000000000e+00  3.5107505207966093e-05 -2.7712590764818489e-06 0.0000000000000000e+00  4.5663379415877419e-05 -3.5570998833635735e-06 0.0000000000000000e+00  5.8523421637314779e-05 -4.4869318693250773e-06 0.0000000000000000e+00  7.4427975697802118e-05 -5.6017166279710948e-06 0.0000000000000000e+00  9.4327816795843452e-05 -6.9532610741776864e-06 0.0000000000000000e+00  1.1944107037100397e-04 -8.6086315925087766e-06 0.0000000000000000e+00  1.5130352086171307e-04 -1.0656106831407620e-05 0.0000000000000000e+00  1.9177994060826206e-04 -1.3212189901349462e-05 0.0000000000000000e+00  2.4296622987617482e-04 -1.6427058197115869e-05 0.0000000000000000e+00  3.0685658706635293e-04 -2.0481146911498069e-05 0.0000000000000000e+00  3.8462172856504345e-04 -2.5557980029063080e-05 0.0000000000000000e+00  4.7552730476534084e-04 -3.1771284283783706e-05 0.0000000000000000e+00  0.0000000000000000e+00 0.0000000000000000e+00 0.0000000000000000e+00  6.4129207782968561e-06 -5.2936250272543649e-07 0.0000000000000000e+00  1.3110448468937218e-05 -1.0792337835627122e-06 0.0000000000000000e+00  2.0395901130057645e-05 -1.6711107449358596e-06 0.0000000000000000e+00  2.8608666862905806e-05 -2.3282072276877480e-06 0.0000000000000000e+00  3.8146556524009185e-05 -3.0764559654000773e-06 0.0000000000000000e+00  4.9493674355593104e-05 -3.9457103793967365e-06 0.0000000000000000e+00  6.3256280775598347e-05 -4.9713043066766441e-06 0.0000000000000000e+00  8.0209358345560179e-05 -6.1962649104129365e-06 0.0000000000000000e+00  1.0135620420963668e-04 -7.6747505612504121e-06 0.0000000000000000e+00  1.2800133447652534e-04 -9.4778249444560628e-06 0.0000000000000000e+00  1.6183145453571037e-04 -1.1703681148792983e-05 0.0000000000000000e+00  2.0498773760145852e-04 -1.4496157139918006e-05 0.0000000000000000e+00  2.6009441354454528e-04 -1.8078011293494486e-05 0.0000000000000000e+00  3.3019389372964113e-04 -2.2808578988535341e-05 0.0000000000000000e+00  4.1857184681699382e-04 -2.9277388888716397e-05 0.0000000000000000e+00  5.2864669196127291e-04 -3.8443136461404823e-05 0.0000000000000000e+00  0.0000000000000000e+00 0.0000000000000000e+00 0.0000000000000000e+00  6.6758808274669751e-06 -5.6211752421326545e-07 0.0000000000000000e+00  1.3636292550373783e-05 -1.1459852811472264e-06 0.0000000000000000e+00  2.1182404747142735e-05 -1.7742702317969216e-06 0.0000000000000000e+00  2.9649196704700180e-05 -2.4713278244283866e-06 0.0000000000000000e+00  3.9426667080808708e-05 -3.2641262443830293e-06 0.0000000000000000e+00  5.0986939187889890e-05 -4.1832822911925955e-06 0.0000000000000000e+00  6.4920518681233023e-05 -5.2643136018162707e-06 0.0000000000000000e+00  8.1986176995178859e-05 -6.5493536773469548e-06 0.0000000000000000e+00  1.0318044528127874e-04 -8.0899373807192664e-06 0.0000000000000000e+00  1.2983420482230829e-04 -9.9523444562941126e-06 0.0000000000000000e+00  1.6374460520114886e-04 -1.2229034481303639e-05 0.0000000000000000e+00  2.0734940765195360e-04 -1.5064205879780448e-05 0.0000000000000000e+00  2.6394795115999397e-04 -1.8710695726149507e-05 0.0000000000000000e+00  3.3797653857778646e-04 -2.3652322109968913e-05 0.0000000000000000e+00  4.3539172495475598e-04 -3.0852854662345827e-05 0.0000000000000000e+00  5.6439874098550508e-04 -4.2232785546195317e-05 0.0000000000000000e+00  0.0000000000000000e+00 0.0000000000000000e+00 0.0000000000000000e+00  6.6591405446012282e-06 -5.7344832878921994e-07 0.0000000000000000e+00  1.3587686178632369e-05 -1.1691322156244702e-06 0.0000000000000000e+00  2.1068058315694893e-05 -1.8100991186349810e-06 0.0000000000000000e+00  2.9411176733482995e-05 -2.5210191978749420e-06 0.0000000000000000e+00  3.8974465325597251e-05 -3.3289950731068524e-06 0.0000000000000000e+00  5.0185469058959969e-05 -4.2643492838490829e-06 0.0000000000000000e+00  6.3574908121099747e-05 -5.3613592275302888e-06 0.0000000000000000e+00  7.9825352090565893e-05 -6.6589363685143477e-06 0.0000000000000000e+00  9.9845592283398233e-05 -8.2014254264372304e-06 0.0000000000000000e+00  1.2488694520757581e-04 -1.0040363317315007e-05 0.0000000000000000e+00  1.5672679452286080e-04 -1.2240093424824546e-05 0.0000000000000000e+00  1.9795662406874335e-04 -1.4895881558264059e-05 0.0000000000000000e+00  2.5242503066223135e-04 -1.8187994125633376e-05 0.0000000000000000e+00  3.2590010225726776e-04 -2.2530057813748403e-05 0.0000000000000000e+00  4.2705127430028237e-04 -2.8943342111553690e-05 0.0000000000000000e+00  5.6902647970954643e-04 -3.9927839028947697e-05 0.0000000000000000e+00  0.0000000000000000e+00 0.0000000000000000e+00 0.0000000000000000e+00  6.3787265794085634e-06 -5.6296003753887054e-07 0.0000000000000000e+00  1.2999127213589708e-05 -1.1478998818686062e-06 0.0000000000000000e+00  2.0111101940122350e-05 -1.7775093974880619e-06 0.0000000000000000e+00  2.7985029994685718e-05 -2.4760597036454056e-06 0.0000000000000000e+00  3.6924464129670136e-05 -3.2701306185946512e-06 0.0000000000000000e+00  4.7283011845082113e-05 -4.1891969458251472e-06 0.0000000000000000e+00  5.9489013473746701e-05 -5.2658741098436667e-06 0.0000000000000000e+00  7.4084753200867945e-05 -6.5354301937597723e-06 0.0000000000000000e+00  9.1792867052832030e-05 -8.0338638700950404e-06 0.0000000000000000e+00  1.1363353566594708e-04 -9.7934851042723572e-06 0.0000000000000000e+00  1.4113524811927794e-04 -1.1834992199234750e-05 0.0000000000000000e+00  1.7671293640871902e-04 -1.4157527457791716e-05 0.0000000000000000e+00  2.2432986253494836e-04 -1.6740120659273292e-05 0.0000000000000000e+00  2.9060024898995280e-04 -1.9610340194373069e-05 0.0000000000000000e+00  3.8650335087902214e-04 -2.3160092995187636e-05 0.0000000000000000e+00  5.2995556076468233e-04 -2.9176842771635878e-05 0.0000000000000000e+00  0.0000000000000000e+00 0.0000000000000000e+00 0.0000000000000000e+00  5.8631603190000870e-06 -5.3100591229312447e-07 0.0000000000000000e+00  1.1931302963923336e-05 -1.0830017730582566e-06 0.0000000000000000e+00  1.8412317438555564e-05 -1.6776178760528723e-06 0.0000000000000000e+00  2.5524797209674585e-05 -2.3380937998584291e-06 0.0000000000000000e+00  3.3503767431347997e-05 -3.0900251302866143e-06 0.0000000000000000e+00  4.2607821278174808e-05 -3.9619565620958487e-06 0.0000000000000000e+00  5.3129802681218658e-05 -4.9855329187230266e-06 0.0000000000000000e+00  6.5416066377089994e-05 -6.1945288552621676e-06 0.0000000000000000e+00  7.9905735963782391e-05 -7.6212230930074630e-06 0.0000000000000000e+00  9.7215149898108923e-05 -9.2867527726815870e-06 0.0000000000000000e+00  1.1832139394053321e-04 -1.1178329506516465e-05 0.0000000000000000e+00  1.4495555874381516e-04 -1.3199242917768832e-05 0.0000000000000000e+00  1.8041744755201413e-04 -1.5068232934965094e-05 0.0000000000000000e+00  2.3116299940591518e-04 -1.6150403152383167e-05 0.0000000000000000e+00  3.0957548499531721e-04 -1.5316165907775911e-05 0.0000000000000000e+00  4.3810684140617283e-04 -1.1445206946285601e-05 0.0000000000000000e+00  0.0000000000000000e+00 0.0000000000000000e+00 0.0000000000000000e+00  5.1496988765334323e-06 -4.7866686090603433e-07 0.0000000000000000e+00  1.0463111456248723e-05 -9.7658450201877554e-07 0.0000000000000000e+00  1.6101871494059637e-05 -1.5136126197183489e-06 0.0000000000000000e+00  2.2228378353337041e-05 -2.1113085772444017e-06 0.0000000000000000e+00  2.9004011517762132e-05 -2.7938138033461498e-06 0.0000000000000000e+00  3.6584950313183872e-05 -3.5887420321793982e-06 0.0000000000000000e+00  4.5114946764336534e-05 -4.5278887081902660e-06 0.0000000000000000e+00  5.4715564546742302e-05 -5.6472104641735000e-06 0.0000000000000000e+00  6.5478306004757109e-05 -6.9845551313468871e-06 0.0000000000000000e+00  7.7474358925085315e-05 -8.5710934420159570e-06 0.0000000000000000e+00  9.0828057992850788e-05 -1.0405760336712154e-05 0.0000000000000000e+00  1.0597748793495221e-04 -1.2384448540926478e-05 0.0000000000000000e+00  1.2443096443910171e-04 -1.4109492574558695e-05 0.0000000000000000e+00  1.5071895827389940e-04 -1.4390913649097380e-05 0.0000000000000000e+00  1.9673058738932156e-04 -1.0058606809406917e-05 0.0000000000000000e+00  2.8878013753402771e-04 5.9797105126975635e-06 0.0000000000000000e+00  0.0000000000000000e+00 0.0000000000000000e+00 0.0000000000000000e+00  4.2798816685264990e-06 -4.0775179461555836e-07 0.0000000000000000e+00  8.6820338176936262e-06 -8.3223695063245604e-07 0.0000000000000000e+00  1.3322929089938297e-05 -1.2907806065261518e-06 0.0000000000000000e+00  1.8311693509633474e-05 -1.8024726360024487e-06 0.0000000000000000e+00  2.3741926065137601e-05 -2.3892427666671840e-06 0.0000000000000000e+00  2.9677294593536496e-05 -3.0772225305015978e-06 0.0000000000000000e+00  3.6126799780415485e-05 -3.8985237039256632e-06 0.0000000000000000e+00  4.3003665833386969e-05 -4.8935222047761807e-06 0.0000000000000000e+00  5.0059791687658928e-05 -6.1134430012337059e-06 0.0000000000000000e+00  5.6788241087873297e-05 -7.6218324658031007e-06 0.0000000000000000e+00  6.2299602284663787e-05 -9.4891084462196778e-06 0.0000000000000000e+00  6.5239292321431631e-05 -1.1758732700667411e-05 0.0000000000000000e+00  6.4035325237818386e-05 -1.4306138287321140e-05 0.0000000000000000e+00  5.8499897613298160e-05 -1.6286340191614780e-05 0.0000000000000000e+00  5.5975301370605160e-05 -1.3926152214563011e-05 0.0000000000000000e+00  8.5274858496853275e-05 6.9243313572059214e-06 0.0000000000000000e+00  0.0000000000000000e+00 0.0000000000000000e+00 0.0000000000000000e+00  3.2951037219865260e-06 -3.2081283995984111e-07 0.0000000000000000e+00  6.6744198191996635e-06 -6.5505611018331372e-07 0.0000000000000000e+00  1.0214686782656919e-05 -1.0167049192519081e-06 0.0000000000000000e+00  1.3980853444063043e-05 -1.4214168781587610e-06 0.0000000000000000e+00  1.8014393880471994e-05 -1.8876978146186689e-06 0.0000000000000000e+00  2.2313002770400918e-05 -2.4386165091129107e-06 0.0000000000000000e+00  2.6794845411242430e-05 -3.1045436065072263e-06 0.0000000000000000e+00  3.1235349012117866e-05 -3.9278131513541697e-06 0.0000000000000000e+00  3.5155045445300583e-05 -4.9710468162097922e-06 0.0000000000000000e+00  3.7620369104410524e-05 -6.3325435112989737e-06 0.0000000000000000e+00  3.6893679708110631e-05 -8.1753063823757014e-06 0.0000000000000000e+00  2.9845918885266311e-05 -1.0781477784394096e-05 0.0000000000000000e+00  1.1112233134089704e-05 -1.4646276399983708e-05 0.0000000000000000e+00  -2.7439198648765351e-05 -2.0568799352901030e-05 0.0000000000000000e+00  -9.3106059777871793e-05 -2.9013915992690963e-05 0.0000000000000000e+00  -1.5702848777914694e-04 -2.8326787381344447e-05 0.0000000000000000e+00  0.0000000000000000e+00 0.0000000000000000e+00 0.0000000000000000e+00  2.2330644594779779e-06 -2.2114345821792395e-07 0.0000000000000000e+00  4.5176176171535633e-06 -4.5169339655364744e-07 0.0000000000000000e+00  6.8983743806686001e-06 -7.0148477638163569e-07 0.0000000000000000e+00  9.4084883022793268e-06 -9.8169857759467164e-07 0.0000000000000000e+00  1.2058405768072256e-05 -1.3058778686132792e-06 0.0000000000000000e+00  1.4816413616634154e-05 -1.6915513914251275e-06 0.0000000000000000e+00  1.7573681555806414e-05 -2.1630723352809530e-06 0.0000000000000000e+00  2.0080088776289364e-05 -2.7569371155635182e-06 0.0000000000000000e+00  2.1823530214888353e-05 -3.5323266209646143e-06 0.0000000000000000e+00  2.1796191723212379e-05 -4.5930638642293862e-06 0.0000000000000000e+00  1.8027164245867953e-05 -6.1356699439686011e-06 0.0000000000000000e+00  6.6208764649034764e-06 -8.5606786290058288e-06 0.0000000000000000e+00  -2.0239442425601336e-05 -1.2751047827860044e-05 0.0000000000000000e+00  -7.8249848318026098e-05 -2.0856436502981155e-05 0.0000000000000000e+00  -1.9744137464617823e-04 -3.8971218820494531e-05 0.0000000000000000e+00  -4.2884347525752641e-04 -8.9239935891326951e-05 0.0000000000000000e+00  0.0000000000000000e+00 0.0000000000000000e+00 0.0000000000000000e+00  1.1258446054145106e-06 -1.1271278926354095e-07 0.0000000000000000e+00  2.2757331944006491e-06 -2.3026114550604797e-07 0.0000000000000000e+00  3.4697237350477555e-06 -3.5771637718592494e-07 0.0000000000000000e+00  4.7208377752443005e-06 -5.0089702188767521e-07 0.0000000000000000e+00  6.0283502837825051e-06 -6.6695908415607000e-07 0.0000000000000000e+00  7.3660458628823949e-06 -8.6537635196264054e-07 0.0000000000000000e+00  8.6608940097699412e-06 -1.1097187651959638e-06 0.0000000000000000e+00  9.7531523144357524e-06 -1.4210944328346446e-06 0.0000000000000000e+00  1.0319045110173347e-05 -1.8351508140107221e-06 0.0000000000000000e+00  9.7140106792751629e-06 -2.4168776106233608e-06 0.0000000000000000e+00  6.6365401498733492e-06 -3.2927658155297130e-06 0.0000000000000000e+00  -1.6416802490005047e-06 -4.7210939707424501e-06 0.0000000000000000e+00  -2.1156557220778781e-05 -7.2378480586096274e-06 0.0000000000000000e+00  -6.5954293752327488e-05 -1.1884955087350939e-05 0.0000000000000000e+00  -1.6782076637163423e-04 -2.0018896193642602e-05 0.0000000000000000e+00  -3.7326980597371926e-04 -2.9790521236277675e-05 0.0000000000000000e+00  0.0000000000000000e+00 0.0000000000000000e+00 0.0000000000000000e+00  0.0000000000000000e+00 0.0000000000000000e+00 0.0000000000000000e+00  0.0000000000000000e+00 0.0000000000000000e+00 0.0000000000000000e+00  0.0000000000000000e+00 0.0000000000000000e+00 0.0000000000000000e+00  0.0000000000000000e+00 0.0000000000000000e+00 0.0000000000000000e+00  0.0000000000000000e+00 0.0000000000000000e+00 0.0000000000000000e+00  0.0000000000000000e+00 0.0000000000000000e+00 0.0000000000000000e+00  0.0000000000000000e+00 0.0000000000000000e+00 0.0000000000000000e+00  0.0000000000000000e+00 0.0000000000000000e