<?xml version="1.0"?>
<VTKFile type="UnstructuredGrid"  version="0.1"  >
<UnstructuredGrid>
<Piece  NumberOfPoints="289" NumberOfCells="512">
<Points>
<DataArray  type="Float64"  NumberOfComponents="3"  format="ascii">0 0 0  0.0625 0 0  0.125 0 0  0.1875 0 0  0.25 0 0  0.3125 0 0  0.375 0 0  0.4375 0 0  0.5 0 0  0.5625 0 0  0.625 0 0  0.6875 0 0  0.75 0 0  0.8125 0 0  0.875 0 0  0.9375 0 0  1 0 0  0 0.0625 0  0.06251720930605649 0.06249988486670818 0  0.1250348763678653 0.0624997679990217 0  0.1875534521508554 0.06249964787326467 0  0.2500733717339362 0.06249952340639359 0  0.312595040957443 0.06249939421876946 0  0.3751188167791195 0.06249926093792741 0  0.437644979854144 0.06249912553789509 0  0.5001736990022809 0.06249899168607549 0  0.5627049896600157 0.06249886502583813 0  0.6252386734627846 0.06249875320542005 0  0.6877743572573897 0.06249866502958545 0  0.750311478333611 0.06249860623437378 0  0.8128495492416747 0.06249856085153657 0  0.8753890391778385 0.06249840753515579 0  0.9379345017100511 0.06249753372941742 0  1.000506396077388 0.06249301815794989 0  0 0.125 0  0.06253396444312928 0.124999771439793 0  0.1250688516452791 0.1249995391973445 0  0.1876055729784407 0.1249992999937055 0  0.2501450123908618 0.1249990513982153 0  0.3126880016707915 0.1249987923467686 0  0.3752352826163962 0.1249985237554981 0  0.437787452472241 0.1249982492284674 0  0.5003448906605455 0.1249979758247935 0  0.5629076683874833 0.1249977148152341 0  0.6254754493196304 0.1249974823667785 0  0.6880474006180515 0.1249973003552438 0  0.7506221497363371 0.1249971989939228 0  0.8131978358358953 0.1249972304319415 0  0.8757722559457316 0.1249975397839806 0  0.9383426427597986 0.1249987288643783 0  1.000901801202579 0.1250037135708154 0  0 0.1875 0  0.06254980036067957 0.1874996616677428 0  0.1251010004005016 0.1874993172987781 0  0.1876549882358912 0.1874989614124714 0  0.2502131218828725 0.1874985897102507 0  0.3127766974049127 0.1874981998285147 0  0.375346896512348 0.1874977922643399 0  0.4379247067648049 0.1874973714872453 0  0.500510808869381 0.1874969471980868 0  0.5631054290590353 0.1874965356230002 0  0.6257081613065072 0.1874961606554484 0  0.6883177746002833 0.1874958546417279 0  0.7509320318761765 0.1874956586991766 0  0.813547546744715 0.1874956220037098 0  0.8761596551059058 0.1874957916753374 0  0.9387621150026678 0.1874961212926228 0  1.001346291947787 0.1874958004784681 0  0 0.25 0  0.06256424012080293 0.2499995579055505 0  0.1251303690031188 0.2499991068599071 0  0.187700270323482 0.2499986385534667 0  0.2502758085183944 0.2499981460644469 0  0.3128587968796704 0.2499976248022166 0  0.3754509374134709 0.2499970737324805 0  0.4380537212555553 0.2499964969332228 0  0.5006682784269126 0.2499959054591597 0  0.5632951680127356 0.2499953193619897 0  0.6259341063555099 0.2499947694958364 0  0.688583643519503 0.2499942983837387 0  0.7512408176502963 0.2499939587722958 0  0.8139008394147134 0.2499938069227402 0  0.8765568761048925 0.2499938831916126 0  0.9392000210117093 0.2499941630666356 0  1.001819642527351 0.2499944833619783 0  0 0.3125 0  0.0625767946722454 0.3124994630677842 0  0.1251559729337071 0.3124989136237455 0  0.1877399284581554 0.3124983397817198 0  0.2503310645617884 0.312497731050475 0  0.3129317725381036 0.3124970793846404 0  0.3755443749765829 0.3124963806611541 0  0.4381710175556485 0.3124956367028977 0  0.5008134900486507 0.3124948579034075 0  0.5634729564766923 0.3124940663466938 0  0.6261495786369858 0.3124932990028417 0  0.6888420315857491 0.3124926100489418 0  0.7515469406331663 0.3124920706073323 0  0.8142583236357663 0.3124917634823073 0  0.8769672030652447 0.3124917713329544 0  0.9396616547221335 0.3124921659907889 0  1.002327662493376 0.3124930506452464 0  0 0.375 0  0.06258696928795632 0.3749993807143295 0  0.1251768076150076 0.3749987447254533 0  0.1877724194153486 0.3749980757996787 0  0.2503767691760072 0.3749973588217923 0  0.3129928836139484 0.37499658081174 0  0.3756238149755366 0.3749957325312957 0  0.438272543438797 0.3749948109228217 0  0.5009417893292011 0.3749938226025634 0  0.5636336987798418 0.3749927885030944 0  0.6263493635802722 0.3749917494146481 0  0.6890881454388824 0.3749907714743203 0  0.7518468109701328 0.3749899495118271 0  0.814618566719183 0.3749894047988577 0  0.8773922328666433 0.3749892731132468 0  0.940152004875786 0.3749896805614905 0  1.002878443498718 0.3749907034829708 0  0 0.4375 0  0.06259427870503212 0.4374993150346555 0  0.1251918772384642 0.4374986086996721 0  0.1877961865401839 0.4374978597624724 0  0.250410730808566 0.4374970474626643 0  0.3130392097667936 0.4374961522740232 0  0.3756855040039587 0.4374951573997652 0  0.4383536172853298 0.4374940514052656 0  0.501047516285436 0.4374928324879915 0  0.5637708108092462 0.4374915148977688 0  0.6265261992841855 0.4374901377831802 0  0.6893145946440392 0.4374887759529366 0  0.7521338666483675 0.4374875502981412 0  0.8149772293075711 0.4374866326555382 0  0.8778315258081263 0.4374862363039017 0  0.9406760640033955 0.4374865818650533 0  1.003483158977979 0.4374878355341946 0  0 0.5 0  0.06259827241442015 0.4999992706919072 0  0.1252002450775821 0.4999985152048196 0  0.1878097338227533 0.4999977069685773 0  0.2504307811269147 0.4999968188099023 0  0.3130677554438492 0.4999958231545082 0  0.3757254247776075 0.4999946930070334 0  0.4384089785203684 0.4999934042789861 0  0.5011239516641729 0.4999919403248786 0  0.563875974705356 0.4999902998703769 0  0.6266702292915025 0.4999885096865075 0  0.6895104387607296 0.4999866428984663 0  0.7523971871748713 0.4999848417384701 0  0.8153254032278495 0.4999833383718826 0  0.878281098393533 0.4999824580608584 0  0.9412381166098427 0.4999825780825534 0  1.004156884342164 0.4999840178741745 0  0 0.5625 0  0.06259857036078838 0.562499252490824 0  0.125201106540076 0.5624984743783673 0  0.1878117389242751 0.5624976339614887 0  0.2504349299155067 0.5624966974445671 0  0.3130756444266174 0.5624956282162141 0  0.3757395178109613 0.5624943867434072 0  0.4384330032896299 0.5624929317349449 0  0.5011634575004449 0.5624912237621279 0  0.5639390801645673 0.562489233346649 0  0.6267685506725749 0.5624869565878171 0  0.6896600890399534 0.5624844422392341 0  0.7526195131219919 0.5624818332238737 0  0.8156467239102181 0.5624794192668257 0  0.8787301272147711 0.5624776794327613 0  0.9418392904731695 0.5624772584479457 0  1.004918512567042 0.562478772074506 0  0 0.625 0  0.06259490739669325 0.624999264850116 0  0.1251938823310535 0.6249984957642104 0  0.1878012032458903 0.6249976568990019 0  0.250421583135607 0.6249967085482768 0  0.3130604170494037 0.624995605156799 0  0.3757240625536423 0.6249942934736484 0  0.4384201544441483 0.6249927113626156 0  0.5011579360569228 0.6249907884982292 0  0.5639485464212144 0.6249884515457353 0  0.6268051109250885 0.6249856388443885 0  0.6897423012233671 0.6249823332967392 0  0.752774698070695 0.6249786260518849 0  0.8159127639687146 0.624974822373228 0  0.8791546275572008 0.6249715801741531 0  0.9424719112284374 0.6249700095297771 0  1.005790734157445 0.6249715998941088 0  0 0.6875 0  0.0625871822370403 0.6874993110966812 0  0.125178323531755 0.6874985868252198 0  0.1877776279517336 0.687497789145083 0  0.2503898129656051 0.6874968744131097 0  0.313020425292847 0.6874957899593267 0  0.3756762329820806 0.6874944699793044 0  0.4383657256133938 0.6874928307600212 0  0.5010997529463612 0.6874907658505839 0  0.5638923130953046 0.6874881433155534 0  0.6267614333250293 0.6874848107802942 0  0.6897298979269575 0.6874806215725213 0  0.7528251138217557 0.6874755092617347 0  0.8160763721745363 0.6874696565361481 0  0.8795057483453471 0.6874638022751456 0  0.9431058480128134 0.6874595990236254 0  1.006796153895114 0.6874593607690856 0  0 0.75 0  0.0625755037507866 0.7499993926574279 0  0.1251546137847203 0.7499987511797868 0  0.1877411928836269 0.7499980382454289 0  0.2503396487845961 0.7499972096823115 0  0.3129552902718898 0.7499962097891109 0  0.3755947995503059 0.749994964944416 0  0.4382668885452627 0.7499933746292309 0  0.5009832353228968 0.7499912989248739 0  0.5637598326629449 0.7499885421202498 0  0.6266189085531018 0.7499848348112759 0  0.6895915382458118 0.7499798260052105 0  0.7527207677187783 0.7499731226029458 0  0.8160639530474884 0.7499644774659717 0  0.8796896347760235 0.7499543535555914 0  0.9436554556890024 0.7499452072479551 0  1.007935848557878 0.7499432374727649 0  0 0.8125 0  0.06256022500075481 0.8124995082955679 0  0.1251234477702234 0.8124989868676437 0  0.1876929030547915 0.8124984027600484 0  0.250272334686789 0.8124977159304085 0  0.3128663441499027 0.8124968740042631 0  0.3754808764534737 0.8124958044662751 0  0.4381239378410071 0.8124944024008973 0  0.5008067006669598 0.8124925106562396 0  0.5635452575569009 0.8124898873807329 0  0.6263634710088744 0.812486153611388 0  0.689297666307671 0.812480713932427 0  0.7524043400365005 0.8124726597191839 0  0.8157723351684385 0.8124607487717368 0  0.8795394598659345 0.8124438815785319 0  0.9439029124149075 0.8124235596185903 0  1.009063136147172 0.8124124737814113 0  0 0.875 0  0.0625419546504231 0.8749996535978422 0  0.1250860624199417 0.8749992851071807 0  0.1876346597605602 0.8749988697712564 0  0.2501904802053106 0.8749983768987804 0  0.3127569355893778 0.8749977652095052 0  0.3753385220731204 0.8749969754794905 0  0.4379414461695691 0.8749959180956921 0  0.5005746404402738 0.8749944508752954 0  0.5632514863419394 0.8749923377313136 0  0.6259928647999732 0.8749891684968594 0  0.6888328006931007 0.8749841982246928 0  0.7518293996042686 0.8749760199069886 0  0.8150870879984871 0.8749619150431672 0  0.8788041700836116 0.8749367488751659 0  0.9433799780202592 0.8748923483614347 0  1.009670086012871 0.8748263959597101 0  0 0.9375 0  0.06252153735065705 0.9374998209295884 0  0.1250442008006807 0.9374996300632159 0  0.1875692166347377 0.9374994140893105 0  0.2500980292193388 0.9374991562944406 0  0.3126324586366727 0.9374988337986172 0  0.3751749331073606 0.9374984130233466 0  0.4377288566156119 0.9374
[...]
<PointData  Vectors="f_54"> 
<DataArray  type="Float64"  Name="f_54"  NumberOfComponents="3" format="ascii">0.0000000000000000e+00 0.0000000000000000e+00 0.0000000000000000e+00  0.0000000000000000e+00 0.0000000000000000e+00 0.0000000000000000e+00  0.0000000000000000e+00 0.0000000000000000e+00 0.0000000000000000e+00  0.0000000000000000e+00 0.0000000000000000e+00 0.0000000000000000e+00  0.0000000000000000e+00 0.0000000000000000e+00 0.0000000000000000e+00  0.0000000000000000e+00 0.0000000000000000e+00 0.0000000000000000e+00  0.0000000000000000e+00 0.0000000000000000e+00 0.0000000000000000e+00  0.0000000000000000e+00 0.0000000000000000e+00 0.0000000000000000e+00  0.0000000000000000e+00 0.0000000000000000e+00 0.0000000000000000e+00  0.0000000000000000e+00 0.0000000000000000e+00 0.0000000000000000e+00  0.0000000000000000e+00 0.0000000000000000e+00 0.0000000000000000e+00  0.0000000000000000e+00 0.0000000000000000e+00 0.0000000000000000e+00  0.0000000000000000e+00 0.0000000000000000e+00 0.0000000000000000e+00  0.0000000000000000e+00 0.0000000000000000e+00 0.0000000000000000e+00  0.0000000000000000e+00 0.0000000000000000e+00 0.0000000000000000e+00  0.0000000000000000e+00 0.0000000000000000e+00 0.0000000000000000e+00  0.0000000000000000e+00 0.0000000000000000e+00 0.0000000000000000e+00  0.0000000000000000e+00 0.0000000000000000e+00 0.0000000000000000e+00  4.3563814096633404e-06 -4.9450888771638996e-08 0.0000000000000000e+00  8.8343331501230320e-06 -1.0001548454149847e-07 0.0000000000000000e+00  1.3554454250949519e-05 -1.5275152567097820e-07 0.0000000000000000e+00  1.8634783394056637e-05 -2.0859274507877819e-07 0.0000000000000000e+00  2.4188207345483647e-05 -2.6825901314052972e-07 0.0000000000000000e+00  3.0318335566835742e-05 -3.3213294261330974e-07 0.0000000000000000e+00  3.7113498187296167e-05 -4.0009270098862184e-07 0.0000000000000000e+00  4.4638914285944786e-05 -4.7129410721964189e-07 0.0000000000000000e+00  5.2928042147727479e-05 -5.4390427299440623e-07 0.0000000000000000e+00  6.1976472956006299e-05 -6.1481621143541471e-07 0.0000000000000000e+00  7.1747767737032303e-05 -6.7947266872832993e-07 0.0000000000000000e+00  8.2217766502027325e-05 -7.3235351134675887e-07 0.0000000000000000e+00  9.3538280479232977e-05 -7.7066503558397055e-07 0.0000000000000000e+00  1.0659208186294614e-04 -8.1325100937538739e-07 0.0000000000000000e+00  1.2493867604133094e-04 -9.9256112719098767e-07 0.0000000000000000e+00  1.6211223450331234e-04 -2.0016557540214169e-06 0.0000000000000000e+00  0.0000000000000000e+00 0.0000000000000000e+00 0.0000000000000000e+00  8.5936127508773415e-06 -9.7815412233342574e-08 0.0000000000000000e+00  1.7431657157456219e-05 -1.9791734863865842e-07 0.0000000000000000e+00  2.6757160202017953e-05 -3.0249143905346634e-07 0.0000000000000000e+00  3.6809102400610567e-05 -4.1349751741141294e-07 0.0000000000000000e+00  4.7817720018332974e-05 -5.3250083194404441e-07 0.0000000000000000e+00  5.9996583837076245e-05 -6.6043490600340131e-07 0.0000000000000000e+00  7.3530512324341800e-05 -7.9727301604084586e-07 0.0000000000000000e+00  8.8558830784912153e-05 -9.4158842754734048e-07 0.0000000000000000e+00  1.0515461211330590e-04 -1.0899897419707115e-06 0.0000000000000000e+00  1.2330294110107683e-04 -1.2364179413906703e-06 0.0000000000000000e+00  1.4288591910728657e-04 -1.3712308638560481e-06 0.0000000000000000e+00  1.6369010690056208e-04 -1.4796051089864570e-06 0.0000000000000000e+00  1.8546073750211117e-04 -1.5367226887484281e-06 0.0000000000000000e+00  2.0800562894451210e-04 -1.4868978493736155e-06 0.0000000000000000e+00  2.3110373991433599e-04 -1.1421355168008302e-06 0.0000000000000000e+00  2.5239685517845962e-04 3.2598348904945287e-07 0.0000000000000000e+00  0.0000000000000000e+00 0.0000000000000000e+00 0.0000000000000000e+00  1.2588799189025785e-05 -1.4392023413806625e-07 0.0000000000000000e+00  2.5546667319338757e-05 -2.9140445696842965e-07 0.0000000000000000e+00  3.9241908158742678e-05 -4.4589289912997182e-07 0.0000000000000000e+00  5.4039469297075154e-05 -6.1054304249602692e-07 0.0000000000000000e+00  7.0295217676070559e-05 -7.8800512168018668e-07 0.0000000000000000e+00  8.8345152685033543e-05 -9.8009370186601502e-07 0.0000000000000000e+00  1.0848768516350362e-04 -1.1873166237630051e-06 0.0000000000000000e+00  1.3095727506356675e-04 -1.4082253154959354e-06 0.0000000000000000e+00  1.5588838911446344e-04 -1.6385628227183539e-06 0.0000000000000000e+00  1.8327021033478726e-04 -1.8702146699075241e-06 0.0000000000000000e+00  2.1289477542028564e-04 -2.0900222204395788e-06 0.0000000000000000e+00  2.4430258055028477e-04 -2.2786394912316299e-06 0.0000000000000000e+00  2.7672290289013529e-04 -2.4101292159146649e-06 0.0000000000000000e+00  3.0896821802344155e-04 -2.4562561806397601e-06 0.0000000000000000e+00  3.3912274279698952e-04 -2.4206002558835442e-06 0.0000000000000000e+00  3.6367638880934014e-04 -2.5580929884481923e-06 0.0000000000000000e+00  0.0000000000000000e+00 0.0000000000000000e+00 0.0000000000000000e+00  1.6217290918803964e-05 -1.8648756486663440e-07 0.0000000000000000e+00  3.2929472948566055e-05 -3.7794470485670270e-07 0.0000000000000000e+00  5.0632906581381694e-05 -5.7922690851148517e-07 0.0000000000000000e+00  6.9824583889260700e-05 -7.9491695276351114e-07 0.0000000000000000e+00  9.0997186514653639e-05 -1.0290815282359532e-06 0.0000000000000000e+00  1.1462729679133288e-04 -1.2848897392541062e-06 0.0000000000000000e+00  1.4115371354657681e-04 -1.5640345023562398e-06 0.0000000000000000e+00  1.7094242394360946e-04 -1.8658948522725292e-06 0.0000000000000000e+00  2.0423469099629246e-04 -2.1863890084342940e-06 0.0000000000000000e+00  2.4107527093558304e-04 -2.5165165198802395e-06 0.0000000000000000e+00  2.8121923138405409e-04 -2.8407186787957315e-06 0.0000000000000000e+00  3.2401786534054836e-04 -3.1355033531222828e-06 0.0000000000000000e+00  3.6828499393927846e-04 -3.3695317117346080e-06 0.0000000000000000e+00  4.1214176063185604e-04 -3.5080435779267876e-06 0.0000000000000000e+00  4.5283847012845743e-04 -3.5267078404636676e-06 0.0000000000000000e+00  4.8662684311148155e-04 -3.4272640657311332e-06 0.0000000000000000e+00  0.0000000000000000e+00 0.0000000000000000e+00 0.0000000000000000e+00  1.9353286675340946e-05 -2.2411194091890362e-07 0.0000000000000000e+00  3.9326277846672444e-05 -4.5471805731050203e-07 0.0000000000000000e+00  6.0544418927855488e-05 -6.9824946637244983e-07 0.0000000000000000e+00  8.3642077230505258e-05 -9.6096131132336260e-07 0.0000000000000000e+00  1.0926098870322576e-04 -1.2487221126318654e-06 0.0000000000000000e+00  1.3804051579875587e-04 -1.5666377869922525e-06 0.0000000000000000e+00  1.7059542025766024e-04 -1.9184265810061388e-06 0.0000000000000000e+00  2.0747562970429390e-04 -2.3054417718397574e-06 0.0000000000000000e+00  2.4910127642935065e-04 -2.7252285472535069e-06 0.0000000000000000e+00  2.9566566092456553e-04 -3.1695240960723985e-06 0.0000000000000000e+00  3.4699980644849567e-04 -3.6217142443598814e-06 0.0000000000000000e+00  4.0239682430564036e-04 -4.0540253673230218e-06 0.0000000000000000e+00  4.6040573910916145e-04 -4.4252199132032669e-06 0.0000000000000000e+00  5.1862903165554727e-04 -4.6800146491587358e-06 0.0000000000000000e+00  5.7360898252648040e-04 -4.7499718453256186e-06 0.0000000000000000e+00  6.2098866014754692e-04 -4.5449951918644951e-06 0.0000000000000000e+00  0.0000000000000000e+00 0.0000000000000000e+00 0.0000000000000000e+00  2.1872040204286315e-05 -2.5526959906847156e-07 0.0000000000000000e+00  4.4483347398831680e-05 -5.1862642886197465e-07 0.0000000000000000e+00  6.8585487644083027e-05 -7.9819226656077799e-07 0.0000000000000000e+00  9.4952192733142198e-05 -1.1021096897256083e-06 0.0000000000000000e+00  1.2438451822425247e-04 -1.4384300182420898e-06 0.0000000000000000e+00  1.5770745857215444e-04 -1.8148264365638821e-06 0.0000000000000000e+00  1.9575268677700369e-04 -2.2380249300402074e-06 0.0000000000000000e+00  2.3931977534693985e-04 -2.7127993474006533e-06 0.0000000000000000e+00  2.8910538020009445e-04 -3.2403198201460370e-06 0.0000000000000000e+00  3.4558698276635771e-04 -3.8155916065860153e-06 0.0000000000000000e+00  4.0884646005140738e-04 -4.4237194745174387e-06 0.0000000000000000e+00  4.7832257745357377e-04 -5.0348832523752082e-06 0.0000000000000000e+00  5.5249752261178262e-04 -5.5984011079336949e-06 0.0000000000000000e+00  6.2856250596673947e-04 -6.0373660686883051e-06 0.0000000000000000e+00  7.0218532208512336e-04 -6.2474974553218959e-06 0.0000000000000000e+00  7.6761959043304836e-04 -6.1089281085558323e-06 0.0000000000000000e+00  0.0000000000000000e+00 0.0000000000000000e+00 0.0000000000000000e+00  2.3654112256337083e-05 -2.7836923944275007e-07 0.0000000000000000e+00  4.8155260189649186e-05 -5.6638995203062327e-07 0.0000000000000000e+00  7.4371536853782644e-05 -8.7389117745427762e-07 0.0000000000000000e+00  1.0321137679556269e-04 -1.2110203320571866e-06 0.0000000000000000e+00  1.3563915777153600e-04 -1.5883048630193721e-06 0.0000000000000000e+00  1.7268354156698023e-04 -2.0165620059421984e-06 0.0000000000000000e+00  2.1543284270236426e-04 -2.5065391778911932e-06 0.0000000000000000e+00  2.6500819958292235e-04 -3.0680910412820750e-06 0.0000000000000000e+00  3.2250019825851343e-04 -3.7085793653832099e-06 0.0000000000000000e+00  3.8884784907801016e-04 -4.4300086084384275e-06 0.0000000000000000e+00  4.6463152906560959e-04 -5.2241980020162860e-06 0.0000000000000000e+00  5.4974755169859518e-04 -6.0651366045505434e-06 0.0000000000000000e+00  6.4294108525313209e-04 -6.8978838424894352e-06 0.0000000000000000e+00  7.4121567189074024e-04 -7.6247356424265755e-06 0.0000000000000000e+00  8.3924218177554722e-04 -8.0933482129637652e-06 0.0000000000000000e+00  9.2908568327994409e-04 -8.0996500683561954e-06 0.0000000000000000e+00  0.0000000000000000e+00 0.0000000000000000e+00 0.0000000000000000e+00  2.4591916725810025e-05 -2.9184935865773846e-07 0.0000000000000000e+00  5.0118086152266063e-05 -5.9474278766488051e-07 0.0000000000000000e+00  7.7544207351364934e-05 -9.2007982113552416e-07 0.0000000000000000e+00  1.0789838805554595e-04 -1.2799575812420545e-06 0.0000000000000000e+00  1.4230072646443046e-04 -1.6874782294689933e-06 0.0000000000000000e+00  1.8198915585612677e-04 -2.1569734976654373e-06 0.0000000000000000e+00  2.2833673415441948e-04 -2.7040490411979954e-06 0.0000000000000000e+00  2.8285116296344762e-04 -3.3452573753414877e-06 0.0000000000000000e+00  3.4713993865823729e-04 -4.0970346669795310e-06 0.0000000000000000e+00  4.2281279016708476e-04 -4.9732265248519383e-06 0.0000000000000000e+00  5.1127584396583390e-04 -5.9800053150235054e-06 0.0000000000000000e+00  6.1335039030687214e-04 -7.1062027417618150e-06 0.0000000000000000e+00  7.2863152961985772e-04 -8.3062420076417060e-06 0.0000000000000000e+00  8.5451452700968363e-04 -9.4729942880739445e-06 0.0000000000000000e+00  9.8492126103125015e-04 -1.0402209834253819e-05 0.0000000000000000e+00  1.1090708979825629e-03 -1.0765502070013142e-05 0.0000000000000000e+00  0.0000000000000000e+00 0.0000000000000000e+00 0.0000000000000000e+00  2.4598471698163463e-05 -2.9432095025962710e-07 0.0000000000000000e+00  5.0187460651948409e-05 -6.0072908057425610e-07 0.0000000000000000e+00  7.7799797431743147e-05 -9.3185800406472692e-07 0.0000000000000000e+00  1.0855434782065343e-04 -1.3014550951078000e-06 0.0000000000000000e+00  1.4370197971765074e-04 -1.7249834889983014e-06 0.0000000000000000e+00  1.8467383987682350e-04 -2.2202600531391849e-06 0.0000000000000000e+00  2.3312991648291755e-04 -2.8080967133906026e-06 0.0000000000000000e+00  2.9100166453981222e-04 -3.5128360624212526e-06 0.0000000000000000e+00  3.6051419714975831e-04 -4.3625017947241680e-06 0.0000000000000000e+00  4.4415785722666214e-04 -5.3879118996698521e-06 0.0000000000000000e+00  5.4455060792447105e-04 -6.6193086799130974e-06 0.0000000000000000e+00  6.6408482069437987e-04 -8.0774471483912838e-06 0.0000000000000000e+00  8.0418069468637140e-04 -9.7531104419523529e-06 0.0000000000000000e+00  9.6388848127369536e-04 -1.1564667840827058e-05 0.0000000000000000e+00  1.1375702402003803e-03 -1.3281187000656669e-05 0.0000000000000000e+00  1.3116840970815997e-03 -1.4416898343988046e-05 0.0000000000000000e+00  0.0000000000000000e+00 0.0000000000000000e+00 0.0000000000000000e+00  2.3617781625672732e-05 -2.8474500067574189e-07 0.0000000000000000e+00  4.8240507717428279e-05 -5.8207981355126952e-07 0.0000000000000000e+00  7.4925060565205688e-05 -9.0531261758304217e-07 0.0000000000000000e+00  1.0483588011136677e-04 -1.2692488604242920e-06 0.0000000000000000e+00  1.3930741758806943e-04 -1.6910885999420514e-06 0.0000000000000000e+00  1.7991704046933812e-04 -2.1915130200175568e-06 0.0000000000000000e+00  2.2857133138341821e-04 -2.7960354997330927e-06 0.0000000000000000e+00  2.8760665289569523e-04 -3.5366849003264289e-06 0.0000000000000000e+00  3.5989903006040691e-04 -4.4540299955804790e-06 0.0000000000000000e+00  4.4896404992806043e-04 -5.5993379743502276e-06 0.0000000000000000e+00  5.5899469946012745e-04 -7.0359908874477168e-06 0.0000000000000000e+00  6.9471462837348435e-04 -8.8373688117774728e-06 0.0000000000000000e+00  8.6078299962414468e-04 -1.1073260790179979e-05 0.0000000000000000e+00  1.0602316957537068e-03 -1.3764107409234090e-05 0.0000000000000000e+00  1.2910400615888066e-03 -1.6754729834522396e-05 0.0000000000000000e+00  1.5396733224021526e-03 -1.9413067882466231e-05 0.0000000000000000e+00  0.0000000000000000e+00 0.0000000000000000e+00 0.0000000000000000e+00  2.1635692759509939e-05 -2.6262296237663040e-07 0.0000000000000000e+00  4.4239280590212544e-05 -5.3762595539684581e-07 0.0000000000000000e+00  6.8836891537809713e-05 -8.3822302190460837e-07 0.0000000000000000e+00  9.6577008278422985e-05 -1.1793923259419569e-06 0.0000000000000000e+00  1.2880609567320243e-04 -1.5790021334175051e-06 0.0000000000000000e+00  1.6716345185243943e-04 -2.0592745468816263e-06 0.0000000000000000e+00  2.1370476879898408e-04 -2.6487853371182255e-06 0.0000000000000000e+00  2.7106619844768372e-04 -3.3852973306548351e-06 0.0000000000000000e+00  3.4268218422167136e-04 -4.3198856086460357e-06 0.0000000000000000e+00  4.3306728839540064e-04 -5.5230525420878590e-06 0.0000000000000000e+00  5.4815452603358499e-04 -7.0937871753868386e-06 0.0000000000000000e+00  6.9562343724855608e-04 -9.1723118689483903e-06 0.0000000000000000e+00  8.8498332834668469e-04 -1.1954344973350287e-05 0.0000000000000000e+00  1.1267471041306214e-03 -1.5690679546895938e-05 0.0000000000000000e+00  1.4290360556638271e-03 -2.0604519677354173e-05 0.0000000000000000e+00  1.7879639561574475e-03 -2.6511950209447737e-05 0.0000000000000000e+00  0.0000000000000000e+00 0.0000000000000000e+00 0.0000000000000000e+00  1.8689496744680929e-05 -2.2816811021263657e-07 0.0000000000000000e+00  3.8252066560469971e-05 -4.6767854026611431e-07 0.0000000000000000e+00  5.9619943953450432e-05 -7.3073365736049697e-07 0.0000000000000000e+00  8.3851106516541715e-05 -1.0313727358095357e-06 0.0000000000000000e+00  1.1221080773726702e-04 -1.3866908070474529e-06 0.0000000000000000e+00  1.4627927383116583e-04 -1.8184874580962200e-06 0.0000000000000000e+00  1.8810136657203518e-04 -2.3556290746453779e-06 0.0000000000000000e+00  2.4040196256878133e-04 -3.0375948701510393e-06 0.0000000000000000e+00  3.0690332863183146e-04 -3.9200451811595074e-06 0.0000000000000000e+00  3.9279951906919235e-04 -5.0840194191457763e-06 0.0000000000000000e+00  5.0546763361613905e-04 -6.6520637690909413e-06 0.0000000000000000e+00  6.5551652088218849e-04 -8.8183897442868886e-06 0.0000000000000000e+00  8.5823968938326001e-04 -1.1908197028986810e-05 0.0000000000000000e+00  1.1352571253201722e-03 -1.6493496320696340e-05 0.0000000000000000e+00  1.5149635758709475e-03 -2.3578322651538971e-05 0.0000000000000000e+00  2.0266494835421804e-03 -3.4597375141567551e-05 0.0000000000000000e+00  0.0000000000000000e+00 0.0000000000000000e+00 0.0000000000000000e+00  1.4874192604460420e-05 -1.8242056282354304e-07 0.0000000000000000e+00  3.0467957587897135e-05 -3.7429213855864224e-07 0.0000000000000000e+00  4.7554174984397542e-05 -5.8584309128385715e-07 0.0000000000000000e+00  6.7020026534543746e-05 -8.2897168911269956e-07 0.0000000000000000e+00  8.9943798659779305e-05 -1.1183778312249803e-06 0.0000000000000000e+00  1.1770017062933441e-04 -1.4731220941441991e-06 0.0000000000000000e+00  1.5211320509618599e-04 -1.9188967077205142e-06 0.0000000000000000e+00  1.9568855496639290e-04 -2.4914796241315336e-06 0.0000000000000000e+00  2.5197873099227130e-04 -3.2422115587580194e-06 0.0000000000000000e+00  3.2617669196763783e-04 -4.2471438562288482e-06 0.0000000000000000e+00  4.2611203335779171e-04 -5.6235356409206165e-06 0.0000000000000000e+00  5.6397901497489788e-04 -7.5632882998842949e-06 0.0000000000000000e+00  7.5943292691239622e-04 -1.0412523202701581e-05 0.0000000000000000e+00  1.0452666692168230e-03 -1.4898802071542882e-05 0.0000000000000000e+00  1.4776203162815338e-03 -2.2893588844105450e-05 0.0000000000000000e+00  2.1514035247707963e-03 -4.0239403914962023e-05 0.0000000000000000e+00  0.0000000000000000e+00 0.0000000000000000e+00 0.0000000000000000e+00  1.0343369746180016e-05 -1.2727268289019739e-07 0.0000000000000000e+00  2.1200036710912519e-05 -2.6133484369442071e-07 0.0000000000000000e+00  3.3123734233540674e-05 -4.0956399348883314e-07 0.0000000000000000e+00  4.6755431729151068e-05 -5.8060437820587252e-07 0.0000000000000000e+00  6.2883394752965912e-05 -7.8523255954446882e-07 0.0000000000000000e+00  8.2527570899307759e-05 -1.0375530133836739e-06 0.0000000000000000e+00  1.0706577064654566e-04 -1.3567283867144570e-06 0.0000000000000000e+00  1.3843159840434837e-04 -1.7695478361240061e-06 0.0000000000000000e+00  1.7943804743964273e-04 -2.3142707433513237e-06 0.0000000000000000e+00  2.3432837307199347e-04 -3.0463136671352467e-06 0.0000000000000000e+00  3.0975599110871131e-04 -4.0462930215525972e-06 0.0000000000000000e+00  4.1662123140988951e-04 -5.4300252821544773e-06 0.0000000000000000e+00  5.7375768792864638e-04 -7.3560289695471027e-06 0.0000000000000000e+00  8.1608221343568545e-04 -1.0011001601747497e-05 0.0000000000000000e+00  1.2153753473955887e-03 -1.3499895656277305e-05 0.0000000000000000e+00  1.9451563467248634e-03 -1.7380330614217057e-05 0.0000000000000000e+00  0.0000000000000000e+00 0.0000000000000000e+00 0.0000000000000000e+00  5.3032990018535583e-06 -6.5385749712361859e-08 0.0000000000000000e+00  1.0873793835632077e-05 -1.3431950235869613e-07 0.0000000000000000e+00  1.7000478713473301e-05 -2.1066505647601759e-07 0.0000000000000000e+00  2.4019538536407859e-05 -2.9896705672025668e-07 0.0000000000000000e+00  3.2347278876817574e-05 -4.0491651842085147e-07 0.0000000000000000e+00  4.2527006603463220e-05 -5.3599057291390719e-07 0.0000000000000000e+00  5.5300165762320695e-05 -7.0236286656945307e-07 0.0000000000000000e+00  7.1719693176832132e-05 -9.1819957000474961e-07 0.0000000000000000e+00  9.3338381619688873e-05 -1.2034135404525870e-06 0.0000000000000000e+00  1.2253450196875288e-04 -1.5856396019343198e-06 0.0000000000000000e+00  1.6309731313513139e-04 -2.1008838039847862e-06 0.0000000000000000e+00  2.2132248835832018e-04 -2.7863883064276253e-06 0.0000000000000000e+00  3.0814282069263876e-04 -3.6412679340914030e-06 0.0000000000000000e+00  4.4342331373223716e-04 -4.4627610500513198e-06 0.0000000000000000e+00  6.6487018081607860e-04 -4.1889920103686275e-06 0.0000000000000000e+00  1.0466288102064269e-03 1.9764496231366281e-06 0.0000000000000000e+00  0.0000000000000000e+00 0.0000000000000000e+00 0.0000000000000000e+00  0.0000000000000000e+00 0.0000000000000000e+00 0.0000000000000000e+00  0.0000000000000000e+00 0.0000000000000000e+00 0.0000000000000000e+00  0.0000000000000000e+00 0.0000000000000000e+00 0.0000000000000000e+00  0.0000000000000000e+00 0.0000000000000000e+00 0.0000000000000000e+00  0.0000000000000000e+00 0.0000000000000000e+00 0.0000000000000000e+00  0.0000000000000000e+00 0.0000000000000000e+00 0.0000000000000000e+00  0.0000000000000000e+00 0.0000000000000000e+00 0.0000000000000000e+00  0.0000000000000000e+00 0.0000000000000000e+00 0.000000