<?xml version="1.0"?>
<VTKFile type="UnstructuredGrid"  version="0.1"  >
<UnstructuredGrid>
<Piece  NumberOfPoints="289" NumberOfCells="512">
<Points>
<DataArray  type="Float64"  NumberOfComponents="3"  format="ascii">0 0 0  0.0625 0 0  0.125 0 0  0.1875 0 0  0.25 0 0  0.3125 0 0  0.375 0 0  0.4375 0 0  0.5 0 0  0.5625 0 0  0.625 0 0  0.6875 0 0  0.75 0 0  0.8125 0 0  0.875 0 0  0.9375 0 0  1 0 0  0 0.0625 0  0.06245943007276051 0.06247794652860233 0  0.1249183545363438 0.06245551094709924 0  0.1873763340294637 0.06243234355429315 0  0.2498331693206045 0.06240817988874669 0  0.3122890672137003 0.06238289568367056 0  0.3747448703650404 0.06235657529803212 0  0.4372023859485403 0.0623295941280921 0  0.4996648678963659 0.06230270965748946 0  0.5621377510920641 0.06227714532388361 0  0.624629839886043 0.06225463446383794 0  0.6871554176298731 0.06223736791474278 0  0.7497384519307123 0.06222776422060865 0  0.8124220440340399 0.06222798210683744 0  0.8752918865017889 0.0622392215835037 0  0.9385381597520416 0.06226162157995693 0  1.002617642908952 0.06230180052324732 0  0 0.125 0  0.06241940093792395 0.1249562631927431 0  0.1248376909125166 0.1249117199277776 0  0.1872538829935701 0.1248656238951629 0  0.2496674438666305 0.1248173893329883 0  0.3120786109606247 0.1247666977357814 0  0.3744888347440168 0.1247136348186098 0  0.4369014114840901 0.1246588618679999 0  0.4993224019545055 0.1246038157337732 0  0.5617619904871872 0.1245509125988316 0  0.624236559975361 0.1245036972635949 0  0.6867720124343402 0.1244668277463371 0  0.7494093765106519 0.1244457185957179 0  0.8122146305441897 0.1244456237144986 0  0.8752955204429083 0.1244700771219853 0  0.9388257853832416 0.1245194038542312 0  1.003061382062549 0.1245916179509272 0  0 0.1875 0  0.0623805816614478 0.1874353823537195 0  0.1247592468079735 0.1873694566374966 0  0.1871342388609237 0.1873009928630323 0  0.2495044037650113 0.1872289754968636 0  0.3118696195914542 0.1871527535687748 0  0.3742314026075489 0.1870722428194186 0  0.4365937757335447 0.186988193303713 0  0.4989645123811723 0.186902526054205 0  0.561356908435756 0.1868187198628621 0  0.6237922910556354 0.1867421834854056 0  0.6863035357579389 0.1866804625631534 0  0.7489398573101218 0.1866429735259623 0  0.8117727460206564 0.1866396533564734 0  0.8749011354710949 0.1866772050471339 0  0.9384485041809451 0.1867494849132302 0  1.002534327738948 0.1868113018675715 0  0 0.25 0  0.06234383904774582 0.2499158126607882 0  0.1246846868883225 0.2498297143964247 0  0.187019714847467 0.2497398747411496 0  0.2493467484682532 0.2496446966857977 0  0.3116647516648956 0.2495429937819788 0  0.37397452672808 0.2494342450968428 0  0.4362797310536493 0.2493189575705775 0  0.4985883317025964 0.24919916221596 0  0.5609146318337398 0.2490790553233641 0  0.6232819851683736 0.2489657542915063 0  0.6857262076077936 0.2488700446847402 0  0.7482993603706041 0.2488068078330603 0  0.8110727197836308 0.24879447021195 0  0.8741358762439033 0.248852236841066 0  0.9375857839370687 0.2489932159321399 0  1.001497219107145 0.2492125846022627 0  0 0.3125 0  0.06231029243688112 0.3123981619917959 0  0.1246162281348095 0.3122937025067214 0  0.1869135737203199 0.312184061531333 0  0.2491986796087552 0.312066882089539 0  0.3114689462420922 0.3119401869471199 0  0.373723533638899 0.3118026582098397 0  0.4359644319119985 0.3116540708181867 0  0.4981980333096757 0.3114959424295963 0  0.5604373532000775 0.3113324686075243 0  0.6227050026960045 0.3111717995171794 0  0.6850368484044469 0.311027652702053 0  0.7474858837808049 0.3109210902797686 0  0.8101250318820508 0.3108819316730325 0  0.8730464044237881 0.3109486427180215 0  0.9363537388152688 0.3111647219086309 0  1.000147186423415 0.3115691505966852 0  0 0.375 0  0.06228132204931148 0.3748831427823921 0  0.1245566683987977 0.374762863468703 0  0.1868201009271379 0.3746357565168389 0  0.249066057395541 0.3744985271160017 0  0.3112897156455532 0.3743481278966985 0  0.3734876129337118 0.3741820140206761 0  0.4356586601214039 0.373998589128604 0  0.4978057340603146 0.3737979472742721 0  0.5599380696522969 0.3735830588207752 0  0.6220746722898871 0.3733615938588037 0  0.6842488636294105 0.3731485981329671 0  0.746513749580947 0.3729701635518456 0  0.8089477539947006 0.3728679206104485 0  0.8716584991854227 0.3729033878003115 0  0.934783050730191 0.3731597411333143 0  0.9984849954047504 0.3737366204846584 0  0 0.4375 0  0.06225852255025474 0.4373715534062282 0  0.1245093001789598 0.4372388409061468 0  0.1867444930010351 0.4370975410759934 0  0.2489562892423234 0.4369432835666229 0  0.3111370746187793 0.4367716966202084 0  0.3732798419329325 0.4365785676202146 0  0.4353790022844534 0.4363602015340232 0  0.4974318421182913 0.4361141171925776 0  0.5594409813846135 0.4358403094487279 0  0.6214183123973522 0.4355434369336692 0  0.6833909832141917 0.4352364674386237 0  0.745409909285337 0.4349464698465854 0  0.8075608465126108 0.4347231833684349 0  0.8699770831316389 0.4346502422091946 0  0.9328517645444229 0.4348567446203882 0  0.9964490290919874 0.4355230391273568 0  0 0.5 0  0.06224359829246247 0.499864230759069 0  0.1244777006099275 0.4997233862906277 0  0.1866925434227637 0.4995722408360408 0  0.2488779204726734 0.4994052999909374 0  0.3110230632429342 0.4992167082498997 0  0.3731167023639367 0.4990002332755133 0  0.4351474762376468 0.4987494038079212 0  0.4971049835347973 0.4984579468184216 0  0.5589819916151506 0.4981207954361254 0  0.6207786443042572 0.4977361641060585 0  0.6825099622170928 0.4973095694975508 0  0.7442183878881837 0.4968612573740135 0  0.8059932099711214 0.4964391614016799 0  0.8679975887781046 0.4961395868632972 0  0.9305008918327877 0.4961353602753896 0  0.993911814907926 0.496703484596518 0  0 0.5625 0  0.06223820257638882 0.5623619728373719 0  0.1244653995803919 0.5622181996362289 0  0.1866701215555106 0.562062677024216 0  0.2488399062828263 0.5618888776617885 0  0.3109608109957651 0.5616894790057962 0  0.3730169845639326 0.5614560980603691 0  0.4349904296096961 0.561179071864943 0  0.4968612474054713 0.5608473838255873 0  0.5586089749297737 0.5604489647081194 0  0.6202162099218884 0.5599718696966361 0  0.6816767296652296 0.5594074015231333 0  0.7430118320396344 0.5587573900388663 0  0.8043003053937229 0.5580499093756377 0  0.8657275115106923 0.5573705597740538 0  0.9276533535136026 0.5569169908790484 0  0.9906837954011949 0.5570732846573411 0  0 0.625 0  0.06224373109221795 0.6248654360230739 0  0.1244754433996318 0.6247247119382735 0  0.1866824620269931 0.6245713095134544 0  0.2488505666242991 0.6243979375965782 0  0.3109630971397809 0.6241960717354876 0  0.372999932448534 0.6239554034638963 0  0.4349363713430986 0.6236631730334747 0  0.4967420905256274 0.6233033803830436 0  0.5583806995236015 0.6228559373192533 0  0.6198111865488807 0.6222960208242664 0  0.6809941835483887 0.6215944300286028 0  0.7419091581823577 0.6207212030093945 0  0.8025939715910302 0.6196584832888349 0  0.8632242568022033 0.6184372035058366 0  0.9242473551704048 0.6172254487266498 0  0.9865587816477318 0.6164901665502446 0  0 0.6875 0  0.06226108988734635 0.6873750192020333 0  0.1245098933721672 0.6872438338605233 0  0.1867333179758535 0.6870998081927363 0  0.2489162767282646 0.6869353442948578 0  0.3110404227246218 0.6867412643225986 0  0.3730825267762878 0.6865060037261549 0  0.4350123592342144 0.6862145105365051 0  0.496789981163046 0.685846702829609 0  0.5583625605759254 0.6853752798214133 0  0.6196615041908079 0.6847626359369162 0  0.6806025661583988 0.6839567208495624 0  0.7410963458563374 0.6828864703478533 0  0.801087600600303 0.6814610466274107 0  0.860663233451057 0.6795914444518812 0  0.9202885761947136 0.6773013796886785 0  0.9811712939026001 0.6750392238085809 0  0 0.75 0  0.06229046981525798 0.7498907538943261 0  0.1245693258265026 0.7497757120130442 0  0.1868240824463008 0.7496486222757338 0  0.2490400330262423 0.7495021930920133 0  0.3111987474571722 0.7493273950685351 0  0.3732760004079097 0.7491125050620854 0  0.4352387911923539 0.7488417262605769 0  0.497040976893735 0.7484931160236933 0  0.5586169039606802 0.7480353645610407 0  0.6198724867544312 0.7474226066597554 0  0.6806741568738642 0.7465857507771985 0  0.7408403246578801 0.7454175577943036 0  0.8001546501631764 0.7437472838086383 0  0.8584663480041483 0.7413051986275815 0  0.9160643728323443 0.7377384814743574 0  0.974387348984406 0.7333330903692815 0  0 0.8125 0  0.0623311695488464 0.812412223651062 0  0.1246524263060216 0.8123195449415466 0  0.1869530380894741 0.8122166411753695 0  0.249220145858895 0.812097219268115 0  0.3114372569009169 0.8119533466099557 0  0.3735820594665647 0.811774512551507 0  0.4356230710145939 0.8115462401793917 0  0.497514297376161 0.8112479512523282 0  0.559186490260314 0.8108495623107985 0  0.6205326029023366 0.810305815886173 0  0.6813836265385249 0.8095462284489255 0  0.7414700723970532 0.808455580145451 0  0.8003698650882853 0.8068315324088118 0  0.8574852035167581 0.8042817041247179 0  0.9123285528244891 0.7999475128933349 0  0.9671439191444552 0.7915867024991697 0  0 0.875 0  0.06238151302666637 0.8749385346276811 0  0.1247557839559588 0.8748735093931891 0  0.1871149331850366 0.8748010420377659 0  0.2494494063952319 0.8747165000233904 0  0.3117467508413597 0.8746139764023821 0  0.3739897808170524 0.8744855482056868 0  0.4361536444884095 0.8743201768676673 0  0.4982008936240346 0.8741020343359542 0  0.5600728183265262 0.8738079205298265 0  0.62167353904402 0.8734032530087077 0  0.6828395007649718 0.8728357572571794 0  0.7432784614485441 0.8720248868439954 0  0.8024430696600603 0.8708400095833013 0  0.8592648713291637 0.8690364834170456 0  0.9116188271071572 0.8660126606878785 0  0.9554659910269042 0.8597956708165183 0  0 0.9375 0  0.06243889927187537 0.937468351482717 0  0.1248739782646198 0.9374348304700754 0  0.1873010696012335 0.9373973897369637 0  0.2497150875854566 0.9373535737286002 0  0.3121093466311852 0.9373002319471131 0  0.3744745222425878 0.9372331133754719 0  0.4367969546348699 0.937
[...]
<PointData  Vectors="f_54"> 
<DataArray  type="Float64"  Name="f_54"  NumberOfComponents="3" format="ascii">0.0000000000000000e+00 0.0000000000000000e+00 0.0000000000000000e+00  0.0000000000000000e+00 0.0000000000000000e+00 0.0000000000000000e+00  0.0000000000000000e+00 0.0000000000000000e+00 0.0000000000000000e+00  0.0000000000000000e+00 0.0000000000000000e+00 0.0000000000000000e+00  0.0000000000000000e+00 0.0000000000000000e+00 0.0000000000000000e+00  0.0000000000000000e+00 0.0000000000000000e+00 0.0000000000000000e+00  0.0000000000000000e+00 0.0000000000000000e+00 0.0000000000000000e+00  0.0000000000000000e+00 0.0000000000000000e+00 0.0000000000000000e+00  0.0000000000000000e+00 0.0000000000000000e+00 0.0000000000000000e+00  0.0000000000000000e+00 0.0000000000000000e+00 0.0000000000000000e+00  0.0000000000000000e+00 0.0000000000000000e+00 0.0000000000000000e+00  0.0000000000000000e+00 0.0000000000000000e+00 0.0000000000000000e+00  0.0000000000000000e+00 0.0000000000000000e+00 0.0000000000000000e+00  0.0000000000000000e+00 0.0000000000000000e+00 0.0000000000000000e+00  0.0000000000000000e+00 0.0000000000000000e+00 0.0000000000000000e+00  0.0000000000000000e+00 0.0000000000000000e+00 0.0000000000000000e+00  0.0000000000000000e+00 0.0000000000000000e+00 0.0000000000000000e+00  0.0000000000000000e+00 0.0000000000000000e+00 0.0000000000000000e+00  -1.3121763115676250e-06 -6.0087451237457133e-08 0.0000000000000000e+00  -2.6842049992446575e-06 -1.2187166882099617e-07 0.0000000000000000e+00  -4.1801166354894304e-06 -1.8705238603975986e-07 0.0000000000000000e+00  -5.8708770791770489e-06 -2.5723784414958491e-07 0.0000000000000000e+00  -7.8384460559608616e-06 -3.3384499348863958e-07 0.0000000000000000e+00  -1.0180606782208510e-05 -4.1791816098809339e-07 0.0000000000000000e+00  -1.3017154552075831e-05 -5.0981067333778556e-07 0.0000000000000000e+00  -1.6498714778180034e-05 -6.0863704718228849e-07 0.0000000000000000e+00  -2.0821290819030258e-05 -7.1132644301720384e-07 0.0000000000000000e+00  -2.6254633522848652e-05 -8.1091774838089065e-07 0.0000000000000000e+00  -3.3206628656747089e-05 -8.9317694506114211e-07 0.0000000000000000e+00  -4.2387939009000207e-05 -9.2873830532781227e-07 0.0000000000000000e+00  -5.5275315206089062e-05 -8.5104912021634722e-07 0.0000000000000000e+00  -7.5534816960828277e-05 -4.8302578176205553e-07 0.0000000000000000e+00  -1.1380469299835839e-04 7.4040039741818980e-07 0.0000000000000000e+00  -2.0550439066161958e-04 4.9411872387234609e-06 0.0000000000000000e+00  0.0000000000000000e+00 0.0000000000000000e+00 0.0000000000000000e+00  -2.5618410041471731e-06 -1.1835670804612623e-07 0.0000000000000000e+00  -5.2398392315244412e-06 -2.4013683435432265e-07 0.0000000000000000e+00  -8.1581519691810294e-06 -3.6878593147622751e-07 0.0000000000000000e+00  -1.1454330100925089e-05 -5.0761288670244396e-07 0.0000000000000000e+00  -1.5287093733281805e-05 -6.5962732009200758e-07 0.0000000000000000e+00  -1.9845423176488436e-05 -8.2723488506840798e-07 0.0000000000000000e+00  -2.5359748623157543e-05 -1.0116970215461265e-06 0.0000000000000000e+00  -3.2116706326561220e-05 -1.2122100235787254e-06 0.0000000000000000e+00  -4.0480664485343070e-05 -1.4243744894147585e-06 0.0000000000000000e+00  -5.0929495510650333e-05 -1.6376899582760243e-06 0.0000000000000000e+00  -6.4122210153090358e-05 -1.8315010898190620e-06 0.0000000000000000e+00  -8.1038639667568757e-05 -1.9686501981134612e-06 0.0000000000000000e+00  -1.0327434636001132e-04 -1.9871167663827776e-06 0.0000000000000000e+00  -1.3361436385631289e-04 -1.7999999880033833e-06 0.0000000000000000e+00  -1.7676051057054540e-04 -1.3806222920465234e-06 0.0000000000000000e+00  -2.3754068224845560e-04 -1.4110235119135661e-06 0.0000000000000000e+00  0.0000000000000000e+00 0.0000000000000000e+00 0.0000000000000000e+00  -3.6919103483763118e-06 -1.7304341102991004e-07 0.0000000000000000e+00  -7.5496693116471332e-06 -3.5128328729903542e-07 0.0000000000000000e+00  -1.1750307195472582e-05 -5.3998463630254786e-07 0.0000000000000000e+00  -1.6489884522431903e-05 -7.4431071451252240e-07 0.0000000000000000e+00  -2.1994462853093163e-05 -9.6916016956107294e-07 0.0000000000000000e+00  -2.8532708891145333e-05 -1.2188337776482105e-06 0.0000000000000000e+00  -3.6430733330793600e-05 -1.4964195599431651e-06 0.0000000000000000e+00  -4.6089872493864034e-05 -1.8027293077631759e-06 0.0000000000000000e+00  -5.8008379498271198e-05 -2.1345454283246873e-06 0.0000000000000000e+00  -7.2808448610111310e-05 -2.4818641481609670e-06 0.0000000000000000e+00  -9.1270115280245770e-05 -2.8238318994671384e-06 0.0000000000000000e+00  -1.1436979572943042e-04 -3.1234258681016607e-06 0.0000000000000000e+00  -1.4329780114725286e-04 -3.3222770496928912e-06 0.0000000000000000e+00  -1.7932825651546339e-04 -3.3401049076500958e-06 0.0000000000000000e+00  -2.2305975224839965e-04 -3.0812530910242902e-06 0.0000000000000000e+00  -2.7158235045580118e-04 -2.3610563204229406e-06 0.0000000000000000e+00  0.0000000000000000e+00 0.0000000000000000e+00 0.0000000000000000e+00  -4.6521497684747349e-06 -2.2234441127225386e-07 0.0000000000000000e+00  -9.5105383486041027e-06 -4.5168475255256794e-07 0.0000000000000000e+00  -1.4794904110423627e-05 -6.9516219399768665e-07 0.0000000000000000e+00  -2.0748565968099533e-05 -9.5994623304720071e-07 0.0000000000000000e+00  -2.7652030093008894e-05 -1.2531457007535085e-06 0.0000000000000000e+00  -3.5838550399056137e-05 -1.5815581071313949e-06 0.0000000000000000e+00  -4.5712040591614412e-05 -1.9511468254775387e-06 0.0000000000000000e+00  -5.7767226620511369e-05 -2.3660741303526466e-06 0.0000000000000000e+00  -7.2610742613747904e-05 -2.8270309975509686e-06 0.0000000000000000e+00  -9.0979150195329790e-05 -3.3285059566383596e-06 0.0000000000000000e+00  -1.1374350425157994e-04 -3.8545955839985223e-06 0.0000000000000000e+00  -1.4187488980861354e-04 -4.3731937118236511e-06 0.0000000000000000e+00  -1.7630890991060435e-04 -4.8294236261534229e-06 0.0000000000000000e+00  -2.1756420222886693e-04 -5.1420379371427309e-06 0.0000000000000000e+00  -2.6481249557183038e-04 -5.2135831273934373e-06 0.0000000000000000e+00  -3.1395302335385727e-04 -4.9909777688675760e-06 0.0000000000000000e+00  0.0000000000000000e+00 0.0000000000000000e+00 0.0000000000000000e+00  -5.4019712216121581e-06 -2.6444182096367562e-07 0.0000000000000000e+00  -1.1039100556726508e-05 -5.3764209990456595e-07 0.0000000000000000e+00  -1.7161321198409609e-05 -8.2860540506575635e-07 0.0000000000000000e+00  -2.4045339966673026e-05 -1.1465829099902913e-06 0.0000000000000000e+00  -3.2010283753267953e-05 -1.5011276736496616e-06 0.0000000000000000e+00  -4.1435867034338977e-05 -1.9020354265142349e-06 0.0000000000000000e+00  -5.2783620086345660e-05 -2.3590828401356367e-06 0.0000000000000000e+00  -6.6620999578301176e-05 -2.8814100470485669e-06 0.0000000000000000e+00  -8.3646469020327450e-05 -3.4762779395276949e-06 0.0000000000000000e+00  -1.0470979769223304e-04 -4.1467331014139172e-06 0.0000000000000000e+00  -1.3081383104926391e-04 -4.8874077591228552e-06 0.0000000000000000e+00  -1.6306824220350667e-04 -5.6773002857940925e-06 0.0000000000000000e+00  -2.0253706447751667e-04 -6.4681581112737064e-06 0.0000000000000000e+00  -2.4987681076196977e-04 -7.1677363352915981e-06 0.0000000000000000e+00  -3.0461722481960610e-04 -7.6201593446610832e-06 0.0000000000000000e+00  -3.6398348338251377e-04 -7.5914202100092319e-06 0.0000000000000000e+00  0.0000000000000000e+00 0.0000000000000000e+00 0.0000000000000000e+00  -5.9126616781823207e-06 -2.9756968812480677e-07 0.0000000000000000e+00  -1.2076423004343303e-05 -6.0551989692275179e-07 0.0000000000000000e+00  -1.8757239210031449e-05 -9.3458776878894238e-07 0.0000000000000000e+00  -2.6249309495743729e-05 -1.2960344544599359e-06 0.0000000000000000e+00  -3.4891976498828787e-05 -1.7018949450577691e-06 0.0000000000000000e+00  -4.5090011301071946e-05 -2.1651949075567258e-06 0.0000000000000000e+00  -5.7338461819088199e-05 -2.7000972401185608e-06 0.0000000000000000e+00  -7.2252889782783869e-05 -3.3218921936523131e-06 0.0000000000000000e+00  -9.0604629136105830e-05 -4.0466279350380798e-06 0.0000000000000000e+00  -1.1335769885241530e-04 -4.8899064536078808e-06 0.0000000000000000e+00  -1.4169752758428193e-04 -5.8637709981731070e-06 0.0000000000000000e+00  -1.7702931568383927e-04 -6.9694028731686937e-06 0.0000000000000000e+00  -2.2090372290890989e-04 -8.1812270405685509e-06 0.0000000000000000e+00  -2.7480276773580005e-04 -9.4151651733320825e-06 0.0000000000000000e+00  -3.3970929011662142e-04 -1.0471911861862198e-05 0.0000000000000000e+00  -4.1544115500839030e-04 -1.0949085435022233e-05 0.0000000000000000e+00  0.0000000000000000e+00 0.0000000000000000e+00 0.0000000000000000e+00  -6.1688822945237144e-06 -3.2011938711387467e-07 0.0000000000000000e+00  -1.2591161682116758e-05 -6.5197038436705558e-07 0.0000000000000000e+00  -1.9533859728414667e-05 -1.0077413506518839e-06 0.0000000000000000e+00  -2.7291533132926945e-05 -1.4004341871898521e-06 0.0000000000000000e+00  -3.6203243873399406e-05 -1.8443225350108941e-06 0.0000000000000000e+00  -4.6673839644386163e-05 -2.3554768820986107e-06 0.0000000000000000e+00  -5.9201727168711006e-05 -2.9523964755531497e-06 0.0000000000000000e+00  -7.4415850671496865e-05 -3.6567927907600102e-06 0.0000000000000000e+00  -9.3124892944041054e-05 -4.4945345192406813e-06 0.0000000000000000e+00  -1.1638112389646025e-04 -5.4965838427155290e-06 0.0000000000000000e+00  -1.4555843551827783e-04 -6.6991424451821795e-06 0.0000000000000000e+00  -1.8243653473305841e-04 -8.1405118617940612e-06 0.0000000000000000e+00  -2.2926833224853397e-04 -9.8480661843745698e-06 0.0000000000000000e+00  -2.8878671698660157e-04 -1.1800649761177868e-05 0.0000000000000000e+00  -3.6409815445051079e-04 -1.3840349560080524e-05 0.0000000000000000e+00  -4.5846270541183986e-04 -1.5501114021911151e-05 0.0000000000000000e+00  0.0000000000000000e+00 0.0000000000000000e+00 0.0000000000000000e+00  -6.1692545262169607e-06 -3.3076970292510219e-07 0.0000000000000000e+00  -1.2580935007698312e-05 -6.7421460070857870e-07 0.0000000000000000e+00  -1.9488523303007908e-05 -1.0435361423303112e-06 0.0000000000000000e+00  -2.7169741506947319e-05 -1.4529964128381537e-06 0.0000000000000000e+00  -3.5941907946157847e-05 -1.9185514438134530e-06 0.0000000000000000e+00  -4.6182101320142081e-05 -2.4586384212176963e-06 0.0000000000000000e+00  -5.8355306875977970e-05 -3.0952370430716046e-06 0.0000000000000000e+00  -7.3055425644541895e-05 -3.8554146781251725e-06 0.0000000000000000e+00  -9.1066504305882981e-05 -4.7737107312668880e-06 0.0000000000000000e+00  -1.1345469468527725e-04 -5.8958963382074881e-06 0.0000000000000000e+00  -1.4170440551692739e-04 -7.2846628121955012e-06 0.0000000000000000e+00  -1.7791211667588221e-04 -9.0268416165664091e-06 0.0000000000000000e+00  -2.2504243122622219e-04 -1.1237367345628907e-05 0.0000000000000000e+00  -2.8722621391937035e-04 -1.4041593881758286e-05 0.0000000000000000e+00  -3.7005237700557688e-04 -1.7487638868048305e-05 0.0000000000000000e+00  -4.8085841989699426e-04 -2.1308257779579580e-05 0.0000000000000000e+00  0.0000000000000000e+00 0.0000000000000000e+00 0.0000000000000000e+00  -5.9258391984868773e-06 -3.2861998068353999e-07 0.0000000000000000e+00  -1.2071442003853344e-05 -6.7033260054405864e-07 0.0000000000000000e+00  -1.8663874812659423e-05 -1.0387820217203903e-06 0.0000000000000000e+00  -2.5948460836453720e-05 -1.4488318670383902e-06 0.0000000000000000e+00  -3.4200460036124854e-05 -1.9172977415678683e-06 0.0000000000000000e+00  -4.3741039983574184e-05 -2.4638694570203223e-06 0.0000000000000000e+00  -5.4961138164878923e-05 -3.1123809593040240e-06 0.0000000000000000e+00  -6.8359605022336783e-05 -3.8927415085264736e-06 0.0000000000000000e+00  -8.4606822552349498e-05 -4.8441815648875090e-06 0.0000000000000000e+00  -1.0465281925258804e-04 -6.0211813584393107e-06 0.0000000000000000e+00  -1.2991050834924888e-04 -7.5048218235625677e-06 0.0000000000000000e+00  -1.6255881644279064e-04 -9.4243943538836443e-06 0.0000000000000000e+00  -2.0601901843442501e-04 -1.1995070732714471e-05 0.0000000000000000e+00  -2.6563713533602742e-04 -1.5566958236329775e-05 0.0000000000000000e+00  -3.4952998261175174e-04 -2.0624168540483064e-05 0.0000000000000000e+00  -4.6954801425323187e-04 -2.7513146557604772e-05 0.0000000000000000e+00  0.0000000000000000e+00 0.0000000000000000e+00 0.0000000000000000e+00  -5.4623710982883355e-06 -3.1330227127693627e-07 0.0000000000000000e+00  -1.1112940585597994e-05 -6.3950779998890450e-07 0.0000000000000000e+00  -1.7142688919120599e-05 -9.9205109586557529e-07 0.0000000000000000e+00  -2.3752666600648587e-05 -1.3856363872809865e-06 0.0000000000000000e+00  -3.1159988098297591e-05 -1.8369765041412068e-06 0.0000000000000000e+00  -3.9606139617498091e-05 -2.3656852313861826e-06 0.0000000000000000e+00  -4.9370484224875037e-05 -2.9954330152787909e-06 0.0000000000000000e+00  -6.0795051059414194e-05 -3.7555996992236327e-06 0.0000000000000000e+00  -7.4333038529204439e-05 -4.6840041601071762e-06 0.0000000000000000e+00  -9.0645586447359286e-05 -5.8322542939930836e-06 0.0000000000000000e+00  -1.1079348838272542e-04 -7.2778611723273329e-06 0.0000000000000000e+00  -1.3660788701823552e-04 -9.1538845810574377e-06 0.0000000000000000e+00  -1.7137722220866714e-04 -1.1721970765193473e-05 0.0000000000000000e+00  -2.2102495847393423e-04 -1.5539915447056984e-05 0.0000000000000000e+00  -2.9582947443009997e-04 -2.1764480591748916e-05 0.0000000000000000e+00  -4.1238090972263528e-04 -3.2322729552228369e-05 0.0000000000000000e+00  0.0000000000000000e+00 0.0000000000000000e+00 0.0000000000000000e+00  -4.8112760709550244e-06 -2.8505310735564825e-07 0.0000000000000000e+00  -9.7740243144617141e-06 -5.8218035332188046e-07 0.0000000000000000e+00  -1.5037921548935185e-05 -9.0393284238948476e-07 0.0000000000000000e+00  -2.0753574445488925e-05 -1.2640847464958605e-06 0.0000000000000000e+00  -2.7071566994524254e-05 -1.6783085940406571e-06 0.0000000000000000e+00  -3.4140390266103629e-05 -2.1649209599928202e-06 0.0000000000000000e+00  -4.2103923937560744e-05 -2.7456837829263555e-06 0.0000000000000000e+00  -5.1101444883853319e-05 -3.4466016174934818e-06 0.0000000000000000e+00  -6.1278832215284497e-05 -4.2986373213305520e-06 0.0000000000000000e+00  -7.2832922487659174e-05 -5.3385418401845041e-06 0.0000000000000000e+00  -8.6140649146811336e-05 -6.6116653581419022e-06 0.0000000000000000e+00  -1.0208843275106791e-04 -8.1857356909877936e-06 0.0000000000000000e+00  -1.2284802466194959e-04 -1.0210892305632888e-05 0.0000000000000000e+00  -1.5357854141843276e-04 -1.3150530568336025e-05 0.0000000000000000e+00  -2.0567354154423279e-04 -1.8568408992821502e-05 0.0000000000000000e+00  -3.0048038591790532e-04 -3.0981551891833381e-05 0.0000000000000000e+00  0.0000000000000000e+00 0.0000000000000000e+00 0.0000000000000000e+00  -4.0097704329106422e-06 -2.4473668378027028e-07 0.0000000000000000e+00  -8.1332353421289277e-06 -5.0009123169345343e-07 0.0000000000000000e+00  -1.2478585205413491e-05 -7.7708728403008140e-07 0.0000000000000000e+00  -1.7146779959320215e-05 -1.0878580438112451e-06 0.0000000000000000e+00  -2.2223919206597219e-05 -1.4462388376551338e-06 0.0000000000000000e+00  -2.7768341191604310e-05 -1.8683736332518277e-06 0.0000000000000000e+00  -3.3789646753924116e-05 -2.3732176522270850e-06 0.0000000000000000e+00  -4.0216580095553410e-05 -2.9825739794515903e-06 0.0000000000000000e+00  -4.6852256731808492e-05 -3.7197059474341169e-06 0.0000000000000000e+00  -5.3322841558509032e-05 -4.6042251754300702e-06 0.0000000000000000e+00  -5.9050813096077784e-05 -5.6383673919865834e-06 0.0000000000000000e+00  -6.3356017781037122e-05 -6.7766004074133410e-06 0.0000000000000000e+00  -6.5984458876531646e-05 -7.8757361138961937e-06 0.0000000000000000e+00  -6.8900510407161747e-05 -8.6894931820810852e-06 0.0000000000000000e+00  -8.1632303775252789e-05 -9.4156240784213417e-06 0.0000000000000000e+00  -1.3292595027858178e-04 -1.5642176387739837e-05 0.0000000000000000e+00  0.0000000000000000e+00 0.0000000000000000e+00 0.0000000000000000e+00  -3.0956653360327521e-06 -1.9382393372550005e-07 0.0000000000000000e+00  -6.2698141390913002e-06 -3.9623140745015621e-07 0.0000000000000000e+00  -9.5935070706990005e-06 -6.1613420018644602e-07 0.0000000000000000e+00  -1.3125559264483730e-05 -8.6339188538082057e-07 0.0000000000000000e+00  -1.6900540021578108e-05 -1.1493372321236081e-06 0.0000000000000000e+00  -2.0908140813871384e-05 -1.4873526787261804e-06 0.0000000000000000e+00  -2.5057545235015585e-05 -1.8934334906746455e-06 0.0000000000000000e+00  -2.9116485858981957e-05 -2.3864552858738905e-06 0.0000000000000000e+00  -3.2608824627910732e-05 -2.9871664748001451e-06 0.0000000000000000e+00  -3.4647778138090301e-05 -3.7127623521255867e-06 0.0000000000000000e+00  -3.3681151141074819e-05 -4.5574631543981046e-06 0.0000000000000000e+00  -2.7157012071449320e-05 -5.4316509614194443e-06 0.0000000000000000e+00  -1.1274600167356316e-05 -5.9875430873060770e-06 0.0000000000000000e+00  1.8428732217769236e-05 -5.1622650737294016e-06 0.0000000000000000e+00  6.2698161194613459e-05 -3.0039880950351695e-08 0.0000000000000000e+00  9.4745227167392388e-05 1.8491584274744651e-05 0.0000000000000000e+00  0.0000000000000000e+00 0.0000000000000000e+00 0.0000000000000000e+00  -2.1037535421994694e-06 -1.3433866212926555e-07 0.0000000000000000e+00  -4.2555517154858478e-06 -2.7472875846807381e-07 0.0000000000000000e+00  -6.4964740488775933e-06 -4.2746246841825925e-07 0.0000000000000000e+00  -8.8550891387434488e-06 -5.9955513231005453e-07 0.0000000000000000e+00  -1.1335212897257169e-05 -7.9919162447462264e-07 0.0000000000000000e+00  -1.3894333325973564e-05 -1.0363232433986822e-06 0.0000000000000000e+00  -1.6404718153063246e-05 -1.3235619819328100e-06 0.0000000000000000e+00  -1.8582528462437587e-05 -1.6776860828088654e-06 0.0000000000000000e+00  -1.9857533048681021e-05 -2.1223976990793357e-06 0.0000000000000000e+00  -1.9132348832293796e-05 -2.6933574891911052e-06 0.0000000000000000e+00  -1.4338537199404637e-05 -3.4456021887410098e-06 0.0000000000000000e+00  -1.6343530690697295e-06 -4.4540387094499708e-06 0.0000000000000000e+00  2.5956715911920715e-05 -5.7532525504353297e-06 0.0000000000000000e+00  8.0430888829905511e-05 -7.0257388834644528e-06 0.0000000000000000e+00  1.7932289883663171e-04 -6.6553802184309931e-06 0.0000000000000000e+00  3.3537815951140354e-04 9.8656606965594248e-08 0.0000000000000000e+00  0.0000000000000000e+00 0.0000000000000000e+00 0.0000000000000000e+00  -1.0636927814584477e-06 -6.8777569198385380e-08 0.0000000000000000e+00  -2.1499122207482221e-06 -1.4069253494000411e-07 0.0000000000000000e+00  -3.2769818444592298e-06 -2.1901424534127896e-07 0.0000000000000000e+00  -4.4553684358712620e-06 -3.0741715930517829e-07 0.0000000000000000e+00  -5.6799124436818725e-06 -4.1026074866125468e-07 0.0000000000000000e+00  -6.9158481343245714e-06 -5.3303422744742015e-07 0.0000000000000000e+00  -8.0728245780442101e-06 -6.8322055960018088e-07 0.0000000000000000e+00  -8.9555476017028792e-06 -8.7231716937624274e-07 0.0000000000000000e+00  -9.1680309310987647e-06 -1.1212563352319630e-06 0.0000000000000000e+00  -7.9244702781164663e-06 -1.4762496409665504e-06 0.0000000000000000e+00  -3.6732363924729219e-06 -2.0573020172337267e-06 0.0000000000000000e+00  6.6308892336867935e-06 -3.2085602125037556e-06 0.0000000000000000e+00  2.8772470792560029e-05 -5.9481873200561454e-06 0.0000000000000000e+00  7.2511201460177585e-05 -1.3142292111990999e-05 0.0000000000000000e+00  1.4850682307936678e-04 -3.1375085581300520e-05 0.0000000000000000e+00  2.4839125783284366e-04 -6.7869436807515882e-05 0.0000000000000000e+00  0.0000000000000000e+00 0.0000000000000000e+00 0.0000000000000000e+00  0.0000000000000000e+00 0.0000000000000000e+00 0.0000000000000000e+00  0.0000000000000000e+00 0.0000000000000000e+00 0.0000000000000000e+00  0.0000000000000000e+00 0.0000000000000000e+00 0.0000000000000000e+00  0.0000000000000000e+00 0.0000000000000000e+00 0.0000000000000000e+00  0.0000000000000000e+00 0.0000000000000