<?xml version="1.0"?>
<VTKFile type="UnstructuredGrid"  version="0.1"  >
<UnstructuredGrid>
<Piece  NumberOfPoints="289" NumberOfCells="512">
<Points>
<DataArray  type="Float64"  NumberOfComponents="3"  format="ascii">0 0 0  0.0625 0 0  0.125 0 0  0.1875 0 0  0.25 0 0  0.3125 0 0  0.375 0 0  0.4375 0 0  0.5 0 0  0.5625 0 0  0.625 0 0  0.6875 0 0  0.75 0 0  0.8125 0 0  0.875 0 0  0.9375 0 0  1 0 0  0 0.0625 0  0.06250650431326932 0.06247947832130925 0  0.1250132657533587 0.06245859372870765 0  0.1875205408881478 0.06243701257973116 0  0.2500286176156126 0.06241447772337461 0  0.3125378383933318 0.06239085790207619 0  0.3750486367966385 0.06236620935322401 0  0.4375615989775277 0.06234085011123347 0  0.5000775714668519 0.06231544226241763 0  0.5625978562780966 0.06229106797298587 0  0.6251245741808951 0.06226926995079501 0  0.6876613612829999 0.0622520064956792 0  0.7502147399816289 0.06224145434119622 0  0.8127968104053922 0.06223961981267268 0  0.8754299077756756 0.06224795767703263 0  0.9381491015029071 0.06226846782818756 0  1.000955097652985 0.06231644681153635 0  0 0.125 0  0.06251272650839014 0.1249593053507215 0  0.1250259640416977 0.1249178467170808 0  0.1875402274469583 0.1248749144376076 0  0.2500561003687466 0.1248299428972753 0  0.312574286700182 0.1247826064769897 0  0.37509569098865 0.1247329429085607 0  0.4376215515489483 0.1246815078681339 0  0.5001536686853023 0.1246295557747717 0  0.5626948052437725 0.1245792244470191 0  0.6252494016700698 0.1245336706294418 0  0.6878248659143666 0.1244970547760013 0  0.7504338931928247 0.1244742085288597 0  0.8130984975154689 0.1244697651439292 0  0.875856356336958 0.1244866005715935 0  0.9387691888790108 0.1245238451606194 0  1.001941273515184 0.1245741900476874 0  0 0.1875 0  0.06251844759448244 0.1874398892122069 0  0.1250376380201466 0.1873785438002583 0  0.1875583253522669 0.1873147996292982 0  0.2500813669513967 0.1872476848400911 0  0.3126078002076885 0.1871765548119393 0  0.3751389604804272 0.1871012742635817 0  0.4376766712748065 0.1870224587965203 0  0.5002235581477673 0.1869417795040377 0  0.5627835710552422 0.1868623140787821 0  0.6253628497580164 0.1867888862051836 0  0.68797112847602 0.1867282548163353 0  0.7506239055957099 0.1866888631975114 0  0.8133454444554069 0.1866795533470108 0  0.8761719679851586 0.1867059262774176 0  0.9391530908650355 0.1867609085065337 0  1.002351201760294 0.186799375737656 0  0 0.25 0  0.06252347272707175 0.2499217067503555 0  0.1250478806043324 0.2498416172290916 0  0.1875741784536477 0.2497580077021048 0  0.250103448067891 0.2496693633817833 0  0.3126369915167905 0.2495745375673273 0  0.3751764720236067 0.2494729812617253 0  0.4377241352577455 0.2493650702015915 0  0.5002831608334354 0.2492525538296824 0  0.562858215199104 0.2491391378036525 0  0.6254562951516349 0.2490311755317477 0  0.6880879395350696 0.2489383614989461 0  0.7507687770024319 0.248874147672931 0  0.8135210353268427 0.2488552732213986 0  0.8763739260525584 0.2488992188203909 0  0.9393610537410803 0.2490176684272894 0  1.002513895429069 0.2492047337092731 0  0 0.3125 0  0.06252763679539752 0.3124053240064704 0  0.1250563491890719 0.3123081934875404 0  0.1875872402460201 0.3122062090825325 0  0.250121548034923 0.3120971523457365 0  0.3126607440802787 0.3119791442903581 0  0.375206680593331 0.3118508969862367 0  0.4377618189635024 0.3117121044026261 0  0.5003295860466922 0.3115640295208592 0  0.5629149178838472 0.3114103520025031 0  0.6255250493426627 0.3112583329390127 0  0.6881705617239867 0.3111203056221131 0  0.750866552945168 0.3110153656223877 0  0.813633491025437 0.3109708302412871 0  0.8764969458736475 0.3110224790649566 0  0.9394856613789586 0.3112118147947419 0  1.00263033910114 0.3115780620899148 0  0 0.375 0  0.06253080595323195 0.3748914007828419 0  0.1250627708513428 0.3747796083602489 0  0.1875970871018006 0.3746614437359728 0  0.25013507285446 0.3745338247978433 0  0.3126782636943598 0.3743938885198257 0  0.3752285506570632 0.3742392201694087 0  0.4377883981539699 0.3740682547224338 0  0.5003611926025019 0.3738809451300729 0  0.5629517917565757 0.3736798316333007 0  0.6255673548672842 0.3734716914519417 0  0.6882185086254454 0.3732699799196729 0  0.7509207993408179 0.3730982396944616 0  0.8136961645667842 0.3729944364370401 0  0.8765739272292444 0.3730155733015637 0  0.939591096382093 0.3732407233316237 0  1.002793797646859 0.3737688378491587 0  0 0.4375 0  0.06253287614221448 0.4373806735655036 0  0.1250669398272981 0.4372573774672753 0  0.187603415494147 0.4371260904922509 0  0.2501436279634927 0.4369827432433354 0  0.3126890757876223 0.4368232596631658 0  0.3752415445729132 0.4366437009865206 0  0.4378032970714683 0.4364405881056626 0  0.5003774052827105 0.4362115269013581 0  0.5629683346621339 0.4359563389199801 0  0.6255829527657676 0.4356790178677767 0  0.6882322024680295 0.4353909942672782 0  0.7509337127077322 0.435116364065326 0  0.8137155345633833 0.4348997843126104 0  0.8766208944118242 0.4348172978300968 0  0.9397134452684934 0.4349887931266573 0  1.00308284119496 0.4355878184911753 0  0 0.5 0  0.06253377061099993 0.499873912408417 0  0.1250687113091428 0.4997431114999814 0  0.1876060297306172 0.4996027455051023 0  0.2501469963952939 0.4994477146530299 0  0.3126929889416328 0.4992725862076071 0  0.375245563220546 0.4990715800711494 0  0.4378065892300316 0.4988386940875688 0  0.5003785342968908 0.4985680980433394 0  0.5629650629387598 0.4982550337041256 0  0.6255722813943535 0.4978976503782278 0  0.6882112146971269 0.4975005337016722 0  0.7509024585606553 0.4970812013477561 0  0.8136842545650158 0.4966814993629975 0  0.8766250508418592 0.4963861926214735 0  0.939840186670987 0.4963496655526838 0  1.003509932520104 0.4968260678902717 0  0 0.5625 0  0.06253343861599239 0.5623718506201996 0  0.1250679961013321 0.5622383717098892 0  0.1876048274737057 0.5620939970942823 0  0.250145108161985 0.5619326795375039 0  0.3126900410234427 0.5617476438159489 0  0.3752408665840705 0.5615311481357764 0  0.4377989054732963 0.5612742913695943 0  0.5003657168974261 0.5609669568784499 0  0.5629435856556659 0.5605980937716231 0  0.6255368305922426 0.5601567631040666 0  0.68815498812942 0.559634840211214 0  0.7508199156361054 0.5590331908858537 0  0.8135802595453927 0.5583748606780189 0  0.8765377638274708 0.5577314013117659 0  0.9398880421613311 0.5572699544352282 0  1.00396982222098 0.5573221081072942 0  0 0.625 0  0.06253185694791744 0.6248750913475086 0  0.125064759700524 0.6247444723676343 0  0.1875997886755367 0.6246021025033596 0  0.2501380076637001 0.6244412309870779 0  0.3126804322978076 0.6242539770763201 0  0.3752279672960913 0.624030833046706 0  0.4377813144839128 0.6237600712222516 0  0.5003408976365505 0.6234270586446705 0  0.5629069843579837 0.6230135464403886 0  0.6254805457609257 0.6224971688471166 0  0.688066276856915 0.6218518216342248 0  0.7506811554686683 0.6210507118939598 0  0.8133756685357162 0.6200767247863245 0  0.8762802075001594 0.6189514437456777 0  0.9396914019265512 0.61780538924405 0  1.004200516641855 0.6170096233449585 0  0 0.6875 0  0.06252903495522445 0.6873840017370229 0  0.1250590277750759 0.6872622516914962 0  0.1875909717951922 0.6871285985386856 0  0.2501258237861698 0.6869760033950026 0  0.3126644441648253 0.6867959730195098 0  0.3752074687318556 0.6865778255459186 0  0.4377550699506624 0.6863077012150695 0  0.50030656564445 0.6859672021070027 0  0.562859893771018 0.6855315138851357 0  0.6254112489988651 0.6849668538674513 0  0.687956115610589 0.6842272033642207 0  0.7504956974484552 0.6832509071704859 0  0.8130599941361265 0.681960365320034 0  0.8757746957191023 0.6802784099872747 0  0.9390198794559202 0.678211489130268 0  1.003718530716792 0.6761024713035366 0  0 0.75 0  0.06252502267109197 0.7498986117164651 0  0.1250508985971654 0.7497918477610344 0  0.1875785210985427 0.7496739070007397 0  0.2501087518889964 0.7495380233288693 0  0.3126423560388186 0.7493758183165836 0  0.3751798452446066 0.7491764181616805 0  0.4377211434978866 0.7489251884701686 0  0.500264920688162 0.7486018606684312 0  0.562807340852979 0.7481776882167359 0  0.6253399042539519 0.7476110349019706 0  0.6878463654348363 0.7468403784698998 0  0.7503007676923269 0.7457730019088629 0  0.8126774209279016 0.7442668767228144 0  0.8750152008174568 0.7421060816011686 0  0.9376709574460854 0.7390077026384378 0  1.00185000802083 0.7350576558924047 0  0 0.8125 0  0.06251992066189642 0.8124185383821918 0  0.1250405617209859 0.8123325260945834 0  0.1875626897713062 0.8122370176789844 0  0.2500870666752045 0.812126159831503 0  0.3126144070467603 0.8119925622085128 0  0.375145251468929 0.8118264113446547 0  0.4376796545556646 0.8116141560028175 0  0.5002164668721213 0.8113364861641427 0  0.5627517287507036 0.8109651383834553 0  0.6252751456160168 0.8104577052870278 0  0.6877625637526833 0.8097488984550786 0  0.7501608849897129 0.8087350114082346 0  0.8123627762838472 0.807243811554768 0  0.8741914360647678 0.8049692814083873 0  0.9355815392037586 0.8013158248374365 0  0.9984534881971422 0.7950249322249298 0  0 0.875 0  0.06251388921761336 0.8749429564027414 0  0.1250283201064047 0.8748826056311753 0  0.1875438814185069 0.8748153355761054 0  0.2500611883832118 0.8747368266161638 0  0.3125808778818291 0.8746415508524741 0  0.37510355690724 0.8745220529572928 0  0.4376296335332292 0.8743678617737046 0  0.5001588513968049 0.8741637861823355 0  0.5626890688424344 0.873887184254035 0  0.6252130853830654 0.8735035124966948 0  0.6877103377952483 0.872958957046729 0  0.7501249379848446 0.8721678547117624 0  0.8123071879386894 0.8709890703477443 0  0.8738587683233447 0.8691694633602943 0  0.9337382023768118 0.8661538172493342 0  0.9893966707843324 0.8602792405465398 0  0 0.9375 0  0.06250715342892942 0.9374706286384809 0  0.1250146089678576 0.9374395167603055 0  0.1875227023584681 0.9374047577371883 0  0.250031804440874 0.9373640575529925 0  0.3125423399935404 0.9373144572712586 0  0.3750548003515196 0.9372519299788241 0  0.4375697299579812 0.937170763880
[...]
<PointData  Vectors="f_54"> 
<DataArray  type="Float64"  Name="f_54"  NumberOfComponents="3" format="ascii">0.0000000000000000e+00 0.0000000000000000e+00 0.0000000000000000e+00  0.0000000000000000e+00 0.0000000000000000e+00 0.0000000000000000e+00  0.0000000000000000e+00 0.0000000000000000e+00 0.0000000000000000e+00  0.0000000000000000e+00 0.0000000000000000e+00 0.0000000000000000e+00  0.0000000000000000e+00 0.0000000000000000e+00 0.0000000000000000e+00  0.0000000000000000e+00 0.0000000000000000e+00 0.0000000000000000e+00  0.0000000000000000e+00 0.0000000000000000e+00 0.0000000000000000e+00  0.0000000000000000e+00 0.0000000000000000e+00 0.0000000000000000e+00  0.0000000000000000e+00 0.0000000000000000e+00 0.0000000000000000e+00  0.0000000000000000e+00 0.0000000000000000e+00 0.0000000000000000e+00  0.0000000000000000e+00 0.0000000000000000e+00 0.0000000000000000e+00  0.0000000000000000e+00 0.0000000000000000e+00 0.0000000000000000e+00  0.0000000000000000e+00 0.0000000000000000e+00 0.0000000000000000e+00  0.0000000000000000e+00 0.0000000000000000e+00 0.0000000000000000e+00  0.0000000000000000e+00 0.0000000000000000e+00 0.0000000000000000e+00  0.0000000000000000e+00 0.0000000000000000e+00 0.0000000000000000e+00  0.0000000000000000e+00 0.0000000000000000e+00 0.0000000000000000e+00  0.0000000000000000e+00 0.0000000000000000e+00 0.0000000000000000e+00  4.6037021979485235e-06 6.8570563688790095e-08 0.0000000000000000e+00  9.3291734698741259e-06 1.3744052945090796e-07 0.0000000000000000e+00  1.4298831928893226e-05 2.0672278987025001e-07 0.0000000000000000e+00  1.9629947226022368e-05 2.7605473442650190e-07 0.0000000000000000e+00  2.5430171030124486e-05 3.4432792212263062e-07 0.0000000000000000e+00  3.1790500326047925e-05 4.0939110241637288e-07 0.0000000000000000e+00  3.8774648331185232e-05 4.6774304017158097e-07 0.0000000000000000e+00  4.6403770831285652e-05 5.1425283831227396e-07 0.0000000000000000e+00  5.4635709961994292e-05 5.4195736033078783e-07 0.0000000000000000e+00  6.3338824776187149e-05 5.4194037535218887e-07 0.0000000000000000e+00  7.2263424650173568e-05 5.0304866436022704e-07 0.0000000000000000e+00  8.1023302449109729e-05 4.1027741963222941e-07 0.0000000000000000e+00  8.9132216652498296e-05 2.3741513964836707e-07 0.0000000000000000e+00  9.6258695203384971e-05 -8.2487326940204064e-08 0.0000000000000000e+00  1.0332484565558987e-04 -7.7371699895238790e-07 0.0000000000000000e+00  1.1694634221625113e-04 -2.6929678656041010e-06 0.0000000000000000e+00  0.0000000000000000e+00 0.0000000000000000e+00 0.0000000000000000e+00  9.0836232872750697e-06 1.3681038243709955e-07 0.0000000000000000e+00  1.8413238511899140e-05 2.7445077391859545e-07 0.0000000000000000e+00  2.8236640383799095e-05 4.1339111277912000e-07 0.0000000000000000e+00  3.8792984428616854e-05 5.5317555088169405e-07 0.0000000000000000e+00  5.0304789550273189e-05 6.9188171764102687e-07 0.0000000000000000e+00  6.2964900647237442e-05 8.2550937437195026e-07 0.0000000000000000e+00  7.6916290730336608e-05 9.4732684983297326e-07 0.0000000000000000e+00  9.2222350388929987e-05 1.0472594723589654e-06 0.0000000000000000e+00  1.0882527804028519e-04 1.1114748491963158e-06 0.0000000000000000e+00  1.2649062461398718e-04 1.1223754468701370e-06 0.0000000000000000e+00  1.4473737272993072e-04 1.0591744134976873e-06 0.0000000000000000e+00  1.6275536884005227e-04 8.9902067575847166e-07 0.0000000000000000e+00  1.7931286162624970e-04 6.1862213298669430e-07 0.0000000000000000e+00  1.9263453869133707e-04 2.0023149666049352e-07 0.0000000000000000e+00  2.0005175708926210e-04 -3.2304480319621435e-07 0.0000000000000000e+00  1.9613907086715317e-04 -5.5922730589001895e-07 0.0000000000000000e+00  0.0000000000000000e+00 0.0000000000000000e+00 0.0000000000000000e+00  1.3312866866318389e-05 2.0414443645169268e-07 0.0000000000000000e+00  2.6999927938746306e-05 4.1009628673116474e-07 0.0000000000000000e+00  4.1439291904789498e-05 6.1915966288638794e-07 0.0000000000000000e+00  5.7000144461858521e-05 8.3132415722154766e-07 0.0000000000000000e+00  7.4033090361197841e-05 1.0444605860446434e-06 0.0000000000000000e+00  9.2853249236870915e-05 1.2533657323146244e-06 0.0000000000000000e+00  1.1371285068049534e-04 1.4486763353835200e-06 0.0000000000000000e+00  1.3675946418855605e-04 1.6157677252304219e-06 0.0000000000000000e+00  1.6197540712417570e-04 1.7339112282169820e-06 0.0000000000000000e+00  1.8909334804382329e-04 1.7761955300031178e-06 0.0000000000000000e+00  2.1748237471558231e-04 1.7109856696363344e-06 0.0000000000000000e+00  2.4599624071414291e-04 1.5058453716223001e-06 0.0000000000000000e+00  2.7276547339859149e-04 1.1343912254592546e-06 0.0000000000000000e+00  2.9488094154422943e-04 5.8357222786141351e-07 0.0000000000000000e+00  3.0782201930134109e-04 -1.5678451252504048e-07 0.0000000000000000e+00  3.0432333711581032e-04 -1.2312252666030546e-06 0.0000000000000000e+00  0.0000000000000000e+00 0.0000000000000000e+00 0.0000000000000000e+00  1.7161149113843544e-05 2.6955465729820084e-07 0.0000000000000000e+00  3.4828633498259268e-05 5.4252164059940756e-07 0.0000000000000000e+00  5.3516135239829285e-05 8.2172207736772013e-07 0.0000000000000000e+00  7.3732672894589595e-05 1.1083918537389728e-06 0.0000000000000000e+00  9.5974019601442349e-05 1.4011437481518744e-06 0.0000000000000000e+00  1.2070520033494407e-04 1.6946464618058122e-06 0.0000000000000000e+00  1.4832975205376342e-04 1.9779883862715901e-06 0.0000000000000000e+00  1.7914032879366192e-04 2.2328086459457474e-06 0.0000000000000000e+00  2.1324398211068347e-04 2.4315159550453653e-06 0.0000000000000000e+00  2.5045410987587440e-04 2.5363587091652926e-06 0.0000000000000000e+00  2.9013951860496433e-04 2.5008431102602659e-06 0.0000000000000000e+00  3.3101856941326061e-04 2.2760269540232651e-06 0.0000000000000000e+00  3.7088123201999739e-04 1.8252519158738558e-06 0.0000000000000000e+00  4.0621282761401522e-04 1.1509150603252914e-06 0.0000000000000000e+00  4.3169214651664318e-04 3.3441245118699971e-07 0.0000000000000000e+00  4.3961938308845232e-04 -4.0721615521303841e-07 0.0000000000000000e+00  0.0000000000000000e+00 0.0000000000000000e+00 0.0000000000000000e+00  2.0495122850329128e-05 3.3140322816248286e-07 0.0000000000000000e+00  4.1630413645648536e-05 6.6856822010906477e-07 0.0000000000000000e+00  6.4058355416164194e-05 1.0166665795979592e-06 0.0000000000000000e+00  8.8436522217680386e-05 1.3792132196470873e-06 0.0000000000000000e+00  1.1542352900307431e-04 1.7568742968408562e-06 0.0000000000000000e+00  1.4566525938003599e-04 2.1458103996304868e-06 0.0000000000000000e+00  1.7976621630736784e-04 2.5354041543040538e-06 0.0000000000000000e+00  2.1823915046525276e-04 2.9052982743564271e-06 0.0000000000000000e+00  2.6142409299776054e-04 3.2219061260517410e-06 0.0000000000000000e+00  3.0936576222310167e-04 3.4351288186348276e-06 0.0000000000000000e+00  3.6163641188727779e-04 3.4772170492413703e-06 0.0000000000000000e+00  4.1709017222221637e-04 3.2679599796588693e-06 0.0000000000000000e+00  4.7353606860146700e-04 2.7340007839826581e-06 0.0000000000000000e+00  5.2732404677464549e-04 1.8547097671192434e-06 0.0000000000000000e+00  5.7286458648685644e-04 7.5027109480503727e-07 0.0000000000000000e+00  6.0218257250094936e-04 -1.7770235988767001e-07 0.0000000000000000e+00  0.0000000000000000e+00 0.0000000000000000e+00 0.0000000000000000e+00  2.3180862281102018e-05 3.8732103651124691e-07 0.0000000000000000e+00  4.7132520192639908e-05 7.8351250855372402e-07 0.0000000000000000e+00  7.2644594786795599e-05 1.1969828452587722e-06 0.0000000000000000e+00  1.0052740142261415e-04 1.6347106707157400e-06 0.0000000000000000e+00  1.3161632787282872e-04 2.1010585021438848e-06 0.0000000000000000e+00  1.6676695823857567e-04 2.5959272357391944e-06 0.0000000000000000e+00  2.0683536954036900e-04 3.1119159943962077e-06 0.0000000000000000e+00  2.5263565703217706e-04 3.6300972800323821e-06 0.0000000000000000e+00  3.0486370438002588e-04 4.1140754519360918e-06 0.0000000000000000e+00  3.6397278571353444e-04 4.5024042136750008e-06 0.0000000000000000e+00  4.2998357626796075e-04 4.7007179910682042e-06 0.0000000000000000e+00  5.0221025283687677e-04 4.5780939370177434e-06 0.0000000000000000e+00  5.7888842277010653e-04 3.9788200274337247e-06 0.0000000000000000e+00  6.5670307572682576e-04 2.7725803545413329e-06 0.0000000000000000e+00  7.3023644446381492e-04 9.8240085959540037e-07 0.0000000000000000e+00  7.9137395892644406e-04 -9.5809491241539401e-07 0.0000000000000000e+00  0.0000000000000000e+00 0.0000000000000000e+00 0.0000000000000000e+00  2.5088907530515470e-05 4.3419926608414176e-07 0.0000000000000000e+00  5.1068345959737088e-05 8.8100550296643279e-07 0.0000000000000000e+00  7.8855459725520256e-05 1.3528504890771025e-06 0.0000000000000000e+00  1.0940905817605220e-04 1.8613526959966650e-06 0.0000000000000000e+00  1.4374632191354775e-04 2.4163969483621796e-06 0.0000000000000000e+00  1.8295240153383898e-04 3.0244293504736339e-06 0.0000000000000000e+00  2.2817761448101718e-04 3.6854292709849210e-06 0.0000000000000000e+00  2.8061388310038143e-04 4.3877381891420693e-06 0.0000000000000000e+00  3.4143775279422479e-04 5.0995691680610730e-06 0.0000000000000000e+00  4.1170188752873713e-04 5.7557444306900924e-06 0.0000000000000000e+00  4.9215129246961344e-04 6.2385539673426895e-06 0.0000000000000000e+00  5.8293730100099979e-04 6.3540840091049488e-06 0.0000000000000000e+00  6.8320673046756838e-04 5.8133327536164922e-06 0.0000000000000000e+00  7.9056152944862574e-04 4.2471152566745684e-06 0.0000000000000000e+00  9.0041147693698204e-04 1.3227201352762684e-06 0.0000000000000000e+00  1.0052347673585626e-03 -2.9092437355081520e-06 0.0000000000000000e+00  0.0000000000000000e+00 0.0000000000000000e+00 0.0000000000000000e+00  2.6101956011282277e-05 4.6832637838424215e-07 0.0000000000000000e+00  5.3193080902721450e-05 9.5331042870620511e-07 0.0000000000000000e+00  8.2297636183961253e-05 1.4718869441074799e-06 0.0000000000000000e+00  1.1450634720010439e-04 2.0412213570053277e-06 0.0000000000000000e+00  1.5100871794353161e-04 2.6783993695952128e-06 0.0000000000000000e+00  1.9312239396678178e-04 3.3993900227287948e-06 0.0000000000000000e+00  2.4231561576177642e-04 4.2166311780428842e-06 0.0000000000000000e+00  3.0021527609773181e-04 5.1340558672833958e-06 0.0000000000000000e+00  3.6858752088563722e-04 6.1374524186182850e-06 0.0000000000000000e+00  4.4926972002301433e-04 7.1765483302962333e-06 0.0000000000000000e+00  5.4402239024283362e-04 8.1331219604524589e-06 0.0000000000000000e+00  6.5426044553400860e-04 8.7677039860623863e-06 0.0000000000000000e+00  7.8062429925514849e-04 8.6400195830354736e-06 0.0000000000000000e+00  9.2238114306946546e-04 7.0166495248586639e-06 0.0000000000000000e+00  1.0767214459930776e-03 2.8359743886784085e-06 0.0000000000000000e+00  1.2380879572852250e-03 -5.0842697000886068e-06 0.0000000000000000e+00  0.0000000000000000e+00 0.0000000000000000e+00 0.0000000000000000e+00  2.6124874265885780e-05 4.8570438131818515e-07 0.0000000000000000e+00  5.3304525660844791e-05 9.9192676593640591e-07 0.0000000000000000e+00  8.2637057706054184e-05 1.5400424650430471e-06 0.0000000000000000e+00  1.1531292840657069e-04 2.1530583302135599e-06 0.0000000000000000e+00  1.5266472257197984e-04 2.8562644589626116e-06 0.0000000000000000e+00  1.9622021482041871e-04 3.6775002348372664e-06 0.0000000000000000e+00  2.4775753455204410e-04 4.6465025632037533e-06 0.0000000000000000e+00  3.0935791079865992e-04 5.7921731393289752e-06 0.0000000000000000e+00  3.8344528378320662e-04 7.1352758114103431e-06 0.0000000000000000e+00  4.7279137790656132e-04 8.6713299304032176e-06 0.0000000000000000e+00  5.8044824671314916e-04 1.0332982614246191e-05 0.0000000000000000e+00  7.0954938366892906e-04 1.1911055799785997e-05 0.0000000000000000e+00  8.6290761038529352e-04 1.2898244338015963e-05 0.0000000000000000e+00  1.0423743505288989e-03 1.2208476280804674e-05 0.0000000000000000e+00  1.2481055409370204e-03 7.7590660428132992e-06 0.0000000000000000e+00  1.4783323076279394e-03 -3.9445006384929292e-06 0.0000000000000000e+00  0.0000000000000000e+00 0.0000000000000000e+00 0.0000000000000000e+00  2.5096209135017536e-05 4.8255024730563690e-07 0.0000000000000000e+00  5.1267473908867907e-05 9.8863435477605608e-07 0.0000000000000000e+00  7.9638905077689321e-05 1.5432585097901869e-06 0.0000000000000000e+00  1.1145106412313812e-04 2.1746020050472685e-06 0.0000000000000000e+00  1.4812667680408158e-04 2.9158551836685856e-06 0.0000000000000000e+00  1.9134854102858037e-04 3.8072986840681026e-06 0.0000000000000000e+00  2.4315184004365114e-04 4.8985297074546916e-06 0.0000000000000000e+00  3.0603218233762739e-04 6.2503527925864282e-06 0.0000000000000000e+00  3.8306569066263606e-04 7.9348081784388499e-06 0.0000000000000000e+00  4.7802621267226391e-04 1.0029043226166209e-05 0.0000000000000000e+00  5.9546237910733076e-04 1.2591505487680432e-05 0.0000000000000000e+00  7.4065892128070011e-04 1.5590591906745441e-05 0.0000000000000000e+00  9.1935716687559655e-04 1.8712174273038396e-05 0.0000000000000000e+00  1.1370991682114818e-03 2.0882970416935391e-05 0.0000000000000000e+00  1.3982791155271841e-03 1.9231089757271063e-05 0.0000000000000000e+00  1.7057690291632228e-03 7.2215065032808217e-06 0.0000000000000000e+00  0.0000000000000000e+00 0.0000000000000000e+00 0.0000000000000000e+00  2.2999853491529866e-05 4.5593937534592884e-07 0.0000000000000000e+00  4.7038928324337499e-05 9.3688375307605447e-07 0.0000000000000000e+00  7.3210259043062024e-05 1.4698219019570056e-06 0.0000000000000000e+00  1.0273796150768043e-04 2.0862511041714284e-06 0.0000000000000000e+00  1.3705713551654365e-04 2.8251443590366007e-06 0.0000000000000000e+00  1.7791333603117335e-04 3.7369119617338018e-06 0.0000000000000000e+00  2.2749054901248226e-04 4.8889295121950829e-06 0.0000000000000000e+00  2.8857789317598644e-04 6.3734364252619739e-06 0.0000000000000000e+00  3.6478468792039572e-04 8.3188264704338676e-06 0.0000000000000000e+00  4.6080707888210471e-04 1.0905045234497969e-05 0.0000000000000000e+00  5.8272838245784601e-04 1.4380754220505228e-05 0.0000000000000000e+00  7.3828348914457961e-04 1.9065546264887035e-05 0.0000000000000000e+00  9.3691431162762188e-04 2.5264440452534339e-05 0.0000000000000000e+00  1.1893054182421183e-03 3.2828508279202538e-05 0.0000000000000000e+00  1.5062293105395810e-03 3.9578761428488314e-05 0.0000000000000000e+00  1.8984125312300870e-03 3.8052306723579364e-05 0.0000000000000000e+00  0.0000000000000000e+00 0.0000000000000000e+00 0.0000000000000000e+00  1.9875064066896985e-05 4.0448805140231832e-07 0.0000000000000000e+00  4.0690344554906238e-05 8.3331616953834759e-07 0.0000000000000000e+00  6.3439230397843192e-05 1.3130687421086765e-06 0.0000000000000000e+00  8.9249682930575127e-05 1.8755803358912042e-06 0.0000000000000000e+00  1.1946987727945637e-04 2.5616116865142883e-06 0.0000000000000000e+00  1.5578019936838186e-04 3.4260974405295668e-06 0.0000000000000000e+00  2.0034639029351011e-04 4.5461134486310320e-06 0.0000000000000000e+00  2.5603463283713001e-04 6.0336132598868427e-06 0.0000000000000000e+00  3.2671708616629504e-04 8.0568620574586935e-06 0.0000000000000000e+00  4.1770347772186294e-04 1.0878496053435754e-05 0.0000000000000000e+00  5.3633205656920444e-04 1.4926396589855815e-05 0.0000000000000000e+00  6.9271551948992959e-04 2.0927844844548586e-05 0.0000000000000000e+00  9.0049966517840522e-04 3.0143744285351405e-05 0.0000000000000000e+00  1.1771269219115657e-03 4.4603155423328910e-05 0.0000000000000000e+00  1.5424782164758987e-03 6.5965514675666556e-05 0.0000000000000000e+00  2.0189356978137559e-03 8.1675790722571994e-05 0.0000000000000000e+00  0.0000000000000000e+00 0.0000000000000000e+00 0.0000000000000000e+00  1.5822774379684761e-05 3.2892348110561107e-07 0.0000000000000000e+00  3.2422399697575251e-05 6.7907040677164860e-07 0.0000000000000000e+00  5.0622837414669737e-05 1.0738146231180275e-06 0.0000000000000000e+00  7.1370480739518333e-05 1.5416430239787505e-06 0.0000000000000000e+00  9.5814799205260159e-05 2.1198318476858096e-06 0.0000000000000000e+00  1.2541793702449723e-04 2.8598133326330527e-06 0.0000000000000000e+00  1.6211182386206867e-04 3.8354854690493995e-06 0.0000000000000000e+00  2.0853202924348392e-04 5.1567395323027693e-06 0.0000000000000000e+00  2.6837532558290851e-04 6.9927891426650521e-06 0.0000000000000000e+00  3.4695620636987962e-04 9.6157385660864495e-06 0.0000000000000000e+00  4.5207833899192439e-04 1.3491310467177451e-05 0.0000000000000000e+00  5.9537848223996425e-04 1.9493461702572687e-05 0.0000000000000000e+00  7.9427077249880670e-04 2.9474951711116202e-05 0.0000000000000000e+00  1.0742107552215196e-03 4.7914742620440479e-05 0.0000000000000000e+00  1.4687663768702224e-03 8.7002328278735553e-05 0.0000000000000000e+00  1.9957117053569203e-03 1.8595600418478707e-04 0.0000000000000000e+00  0.0000000000000000e+00 0.0000000000000000e+00 0.0000000000000000e+00  1.1006254127545878e-05 2.3238091712525681e-07 0.0000000000000000e+00  2.2567837890528427e-05 4.8049768220928602e-07 0.0000000000000000e+00  3.5275508213797025e-05 7.6177071714800347e-07 0.0000000000000000e+00  4.9813711011436595e-05 1.0976590991902670e-06 0.0000000000000000e+00  6.7023889687192867e-05 1.5165739260193656e-06 0.0000000000000000e+00  8.7992983922315321e-05 2.0580978435063099e-06 0.0000000000000000e+00  1.1418476916477606e-04 2.7793306692976275e-06 0.0000000000000000e+00  1.4764392389310686e-04 3.7645481260834675e-06 0.0000000000000000e+00  1.9132560239377300e-04 5.1398036758786114e-06 0.0000000000000000e+00  2.4964691324462301e-04 7.0946108119967885e-06 0.0000000000000000e+00  3.2944153211274604e-04 9.9144070174848322e-06 0.0000000000000000e+00  4.4166725565854460e-04 1.4038938144992812e-05 0.0000000000000000e+00  6.0456428600790446e-04 2.0237340336161284e-05 0.0000000000000000e+00  8.4975357701683792e-04 3.0408155958542404e-05 0.0000000000000000e+00  1.2349526389022379e-03 5.1461642825520428e-05 0.0000000000000000e+00  1.8746654282650200e-03 1.1192918480746854e-04 0.0000000000000000e+00  0.0000000000000000e+00 0.0000000000000000e+00 0.0000000000000000e+00  5.6447680262043751e-06 1.2031438588553496e-07 0.0000000000000000e+00  1.1579116771396482e-05 2.4900866697956974e-07 0.0000000000000000e+00  1.8111672911879697e-05 3.9538469709848254e-07 0.0000000000000000e+00  2.5601936095239969e-05 5.7096184257697500e-07 0.0000000000000000e+00  3.4495198203937496e-05 7.9106382194467740e-07 0.0000000000000000e+00  4.5372200034298260e-05 1.0770647474823035e-06 0.0000000000000000e+00  5.9024380192499461e-05 1.4595683894210296e-06 0.0000000000000000e+00  7.6573786944590099e-05 1.9825370872525061e-06 0.0000000000000000e+00  9.9672732375136818e-05 2.7069868019775332e-06 0.0000000000000000e+00  1.3084981350356819e-04 3.7071420412197157e-06 0.0000000000000000e+00  1.7412972392162498e-04 5.0303370115563901e-06 0.0000000000000000e+00  2.3615552204698243e-04 6.5123480395391125e-06 0.0000000000000000e+00  3.2809620323633813e-04 7.0524898656393835e-06 0.0000000000000000e+00  4.6780531188563311e-04 1.9974585147076249e-06 0.0000000000000000e+00  6.7534506622566465e-04 -2.4786750130183703e-05 0.0000000000000000e+00  9.3164595346467195e-04 -1.1098366806530565e-04 0.0000000000000000e+00  0.0000000000000000e+00 0.0000000000000000e+00 0.0000000000000000e+00  0.0000000000000000e+00 0.0000000000000000e+00 0.0000000000000000e+00  0.0000000000000000e+00 0.0000000000000000e+00 0.0000000000000000e+00  0.0000000000000000e+00 0.0000000000000000e+00 0.0000000000000000e+00  0.0000000000000000e+00 0.0000000000000000e+00 0.0000000000000000e+00  0.0000000000000000e+00 0.0000000000000000e+00 0.0000000000000000e+00  0.0000000000000000e+00 0.0000000000000000e+00 0.0000000000000000e+00  0.0000000000000000e+00 0.0000000000000000e+00 0.0000000000000000e+00  0.0000000000000000e+00 0.0000000000000000e+00 0.0000000000000000e+00  0.0000000000000000e+00 0.0000000000000000e+00 0.0000000000000000e+00  0.0000000000000000e+00 0.0000000000000000e+00 0.0000000000000000e+00  0.0000000000000000e+00 0.0000000000000000e+00 0.0000000000000000e+0