<?xml version="1.0"?>
<VTKFile type="UnstructuredGrid"  version="0.1"  >
<UnstructuredGrid>
<Piece  NumberOfPoints="289" NumberOfCells="512">
<Points>
<DataArray  type="Float64"  NumberOfComponents="3"  format="ascii">0 0 0  0.0625 0 0  0.125 0 0  0.1875 0 0  0.25 0 0  0.3125 0 0  0.375 0 0  0.4375 0 0  0.5 0 0  0.5625 0 0  0.625 0 0  0.6875 0 0  0.75 0 0  0.8125 0 0  0.875 0 0  0.9375 0 0  1 0 0  0 0.0625 0  0.06245298196677943 0.06248693627182857 0  0.1249051543950131 0.06247364475107588 0  0.1873557755873808 0.06245991882148497 0  0.2498043058432261 0.06244560271617503 0  0.3122505493584083 0.06243062448281806 0  0.3746948510510975 0.0624150371348368 0  0.4371383757473641 0.0623990683740803 0  0.4995835099071608 0.06238317582423777 0  0.5620344541666701 0.06236809857790997 0  0.6244981429575465 0.0623548861885154 0  0.6869858035764735 0.06234487366080436 0  0.7495159462986799 0.06233956183126313 0  0.8121209308604146 0.06234038227021509 0  0.8748631702730123 0.06234846891639179 0  0.9378782953710841 0.06236525331902708 0  1.001491768802377 0.06239929971757062 0  0 0.125 0  0.06240681090611788 0.1249740955879569 0  0.124811917903097 0.1249477108982647 0  0.1872137420906255 0.1249204050341946 0  0.2496110814498074 0.1248918327576581 0  0.312003379471972 0.1248618083885236 0  0.3743911011112632 0.1248303879481978 0  0.4367762677009118 0.1247979721202461 0  0.4991632215127573 0.1247654267266454 0  0.5615597269960417 0.124734206025041 0  0.6239785910265979 0.1247064442511969 0  0.6864401461257955 0.1246849500504271 0  0.7489762772774636 0.1246729992572871 0  0.8116372862051396 0.1246737950254962 0  0.8745035800098798 0.1246895294294266 0  0.9377030076601706 0.1247203339438257 0  1.001424563741117 0.1247636847920976 0  0 0.1875 0  0.06236241756539147 0.1874617332784189 0  0.1247220710335333 0.1874226883405716 0  0.1870763546762466 0.1873821383445895 0  0.2494231546551933 0.1873394839933444 0  0.3117612092099831 0.1872943432270819 0  0.3740906212386543 0.1872466720853231 0  0.4364135931454088 0.1871969248139188 0  0.4987354708393715 0.1871462553995842 0  0.5610662062154069 0.187096749090866 0  0.6234223754460559 0.1870516446760858 0  0.6858299156649847 0.1870154557736858 0  0.7483277148741175 0.1869938030242947 0  0.8109719034252098 0.1869925827787139 0  0.8738394933060677 0.1870156676951188 0  0.9370263558781535 0.1870590730042723 0  1.000626864403383 0.1870953623289617 0  0 0.25 0  0.06232089746620641 0.2499501497963099 0  0.1246377530694919 0.2498991638745561 0  0.1869466815573082 0.2498459600870947 0  0.249244316217098 0.2497895947685563 0  0.3115282087067878 0.2497293682776976 0  0.3737974172813971 0.249664976908039 0  0.4360533687084614 0.2495967287867059 0  0.4983010932416976 0.2495258394540786 0  0.5605509379072885 0.2494548134714477 0  0.622820841901222 0.2493878930092024 0  0.6851391652573956 0.2493314975289316 0  0.7475477996941118 0.249294464644732 0  0.8101046537285203 0.2492876929437304 0  0.8728832501797255 0.2493224507392804 0  0.9359648714506901 0.2494062755633701 0  0.9994165215916931 0.2495361723025993 0  0 0.3125 0  0.06228355461460942 0.3124397044495891 0  0.124561563186681 0.3123778524979182 0  0.1868285908823495 0.3123129301229404 0  0.2490796375622105 0.3122435432235123 0  0.3113105116587713 0.3121685225449801 0  0.3735184179946912 0.3120870895714201 0  0.4357028621670837 0.3119991136500217 0  0.4978669936840182 0.3119054973905481 0  0.5600195168557851 0.3118087310682414 0  0.6221772647388834 0.311713648881235 0  0.6843684026801707 0.3116283826897265 0  0.746635911089238 0.3115654093308018 0  0.8090403712430131 0.31154237546832 0  0.871660105944609 0.3115820129944918 0  0.9345858414523287 0.3117099771565147 0  0.9979079738253834 0.3119491444448915 0  0 0.375 0  0.0622519027341427 0.3749308186090035 0  0.1244965733475019 0.3748596076734184 0  0.1867267971165325 0.3747843526878776 0  0.2489355860411882 0.3747031037623681 0  0.3111164498443079 0.3746140562709234 0  0.3732638910158163 0.3745157012058173 0  0.4353742467504368 0.3744070880221756 0  0.4974470395970891 0.3742882620802572 0  0.5594870351669801 0.3741609642307746 0  0.6215072137874006 0.3740297073882136 0  0.6835327904894132 0.3739033586333619 0  0.7456061747851053 0.3737973149589355 0  0.8077922444180694 0.3737361797745402 0  0.8701825185721198 0.3737563801456514 0  0.932896179425121 0.3739072536540466 0  0.9960766427861525 0.3742477889048763 0  0 0.4375 0  0.06222761560502647 0.4374239646255191 0  0.1244462347796884 0.4373454021421885 0  0.1866467367650187 0.4372617562990052 0  0.2488198940662665 0.4371704404179138 0  0.3109564557979106 0.4370688645313815 0  0.3730474389995098 0.436954528404869 0  0.4350847676759191 0.4368252300963938 0  0.4970624707095249 0.4366794720862707 0  0.5589787463635983 0.4365171990249088 0  0.6208393126096989 0.4363410794489068 0  0.6826625493065448 0.4361586479090203 0  0.7444869030968724 0.4359857241386547 0  0.8063806907058148 0.4358515111156323 0  0.8684535952254355 0.4358053629187604 0  0.9308678820371968 0.4359239071930571 0  0.9938468091260599 0.4363146060052815 0  0 0.5 0  0.06221242246535614 0.4999196375955686 0  0.1244141679929135 0.4998362722511814 0  0.1865942536759504 0.4997468135700402 0  0.2487411477708676 0.4996480106050379 0  0.3108425807256194 0.4995363955628991 0  0.3728855069108427 0.4994082711071194 0  0.4348563562565202 0.4992597854119978 0  0.4967418227080217 0.4990871788818393 0  0.5585306130115066 0.4988873596983912 0  0.6202168505122718 0.4986590969173074 0  0.6818062011858063 0.4984053451146653 0  0.7433261913389484 0.4981375636814172 0  0.8048423401600298 0.4978833172709143 0  0.8664809818702344 0.4976985889202587 0  0.9284571242126184 0.4976850114698646 0  0.9911020819606239 0.4980076467065437 0  0 0.5625 0  0.06220795029246018 0.5624183093033122 0  0.1244038373549519 0.5623332230404815 0  0.1865750883936134 0.5622411927218081 0  0.2487080729269239 0.5621383589605401 0  0.3107875725307533 0.5620203893012825 0  0.372796289541903 0.5618823171395084 0  0.4347144966099451 0.5617184028885256 0  0.4965200580522157 0.5615220721919258 0  0.5581893015533335 0.5612860584220457 0  0.6196996733455193 0.5610030313291082 0  0.6810358923009721 0.5606673182012901 0  0.7422025201798969 0.5602789789301241 0  0.8032473030246832 0.5598527055672438 0  0.864300186103071 0.5594357955753316 0  0.9256294228504762 0.5591403988526704 0  0.9877042419911222 0.5591899610059097 0  0 0.625 0  0.06221552280442633 0.6249203672259048 0  0.1244181273389113 0.6248370989265922 0  0.1865941894335022 0.6247463450546759 0  0.2487285228249826 0.6246437991907872 0  0.3108034781973315 0.6245244253409787 0  0.3727979136194026 0.62438212885252 0  0.4346860475982963 0.6242093528432605 0  0.4964363148049378 0.623996590493955 0  0.5580106011263012 0.6237318367895708 0  0.619364804792471 0.6234001051416808 0  0.6804528674878293 0.6229834236982105 0  0.7412387598573724 0.6224625125729365 0  0.8017249603874339 0.6218233749817915 0  0.862011261352932 0.6210767835434653 0  0.9223988816506384 0.6203070261249023 0  0.9835373422724445 0.6197688970452712 0  0 0.6875 0  0.06223593630188284 0.6874260459236632 0  0.1244588596819195 0.687348434849348 0  0.1866549009115948 0.6872632507900419 0  0.2488082258447474 0.6871660122641853 0  0.3108998017150212 0.6870513080547539 0  0.3729058335973829 0.686912320017865 0  0.4347957380313439 0.6867401681012567 0  0.4965295447145713 0.686522983170382 0  0.5580547561329556 0.686244569932602 0  0.6193031546327978 0.6858824724327754 0  0.6801893282862748 0.6854052570536363 0  0.7406159463437806 0.6847691561427548 0  0.800498446147324 0.6839159533676964 0  0.8598374326132356 0.6827810368807395 0  0.918888529234163 0.681344484003462 0  0.978460210530293 0.6797995190804719 0  0 0.75 0  0.06226924381313973 0.7499353623083166 0  0.1245263169372482 0.7498673127355701 0  0.1867581294993652 0.749792165351477 0  0.2489494329156236 0.7497056260592161 0  0.3110813798155979 0.749602383762596 0  0.3731295709430526 0.7494755506611244 0  0.4350612897208316 0.7493158528359708 0  0.4968315032713625 0.7491104091854697 0  0.5583770750938831 0.74884081675023 0  0.6196086124391695 0.7484800235631873 0  0.6803999127135445 0.7479869948610576 0  0.7405775575043251 0.7472972737726611 0  0.7999223863373824 0.7463062495642662 0  0.8582235360419536 0.7448430939394305 0  0.91550536798548 0.7426606810159062 0  0.9726205755586942 0.7397180152049595 0  0 0.8125 0  0.06231458844721589 0.8124480685942642 0  0.1246188619058459 0.8123932542827546 0  0.1869016441043213 0.8123324220190947 0  0.249149704330256 0.8122618715962786 0  0.3113463242871548 0.8121769488056528 0  0.3734692589629336 0.8120715021407899 0  0.4354876708937098 0.8119370818849824 0  0.4973573440084865 0.8117617110311405 0  0.559013007954601 0.8115279252319084 0  0.6203558069602744 0.8112094926562561 0  0.6812327471153329 0.8107655270961176 0  0.741403787801998 0.810128820377999 0  0.8004944281897702 0.8091797505845243 0  0.857954607767076 0.807680666391721 0  0.9131784306313011 0.8050931156320168 0  0.9667848417395705 0.7999799794930592 0  0 0.875 0  0.06237012987244674 0.8749636357290949 0  0.1247327533895743 0.8749251796034304 0  0.1870796933036982 0.8748823466680736 0  0.2494011557155457 0.8748324167202329 0  0.311684566931588 0.8747719319469578 0  0.3739128639454921 0.8746962727158279 0  0.4360618196503112 0.8745990352769449 0  0.4980956535528112 0.8744710974652772 0  0.5599595231179703 0.8742992040867853 0  0.6215661478688904 0.874063828400654 0  0.6827709626940485 0.8737359397903219 0  0.7433238817151029 0.8732718906491069 0  0.8027713484108877 0.8726034727829778 0  0.8602500688383564 0.8716088822757125 0  0.9140568630285593 0.8699957970722184 0  0.9608981568826209 0.8667540593317216 0  0 0.9375 0  0.06243309970292542 0.9374812752646354 0  0.1248622442081454 0.9374614505625264 0  0.1872831110793579 0.9374393213725198 0  0.2496904878468985 0.9374134469025228 0  0.3120776204507837 0.9373819856536127 0  0.3744352383215066 0.9373424657236872 0  0.4367499956697932 0.
[...]
<PointData  Vectors="f_54"> 
<DataArray  type="Float64"  Name="f_54"  NumberOfComponents="3" format="ascii">0.0000000000000000e+00 0.0000000000000000e+00 0.0000000000000000e+00  0.0000000000000000e+00 0.0000000000000000e+00 0.0000000000000000e+00  0.0000000000000000e+00 0.0000000000000000e+00 0.0000000000000000e+00  0.0000000000000000e+00 0.0000000000000000e+00 0.0000000000000000e+00  0.0000000000000000e+00 0.0000000000000000e+00 0.0000000000000000e+00  0.0000000000000000e+00 0.0000000000000000e+00 0.0000000000000000e+00  0.0000000000000000e+00 0.0000000000000000e+00 0.0000000000000000e+00  0.0000000000000000e+00 0.0000000000000000e+00 0.0000000000000000e+00  0.0000000000000000e+00 0.0000000000000000e+00 0.0000000000000000e+00  0.0000000000000000e+00 0.0000000000000000e+00 0.0000000000000000e+00  0.0000000000000000e+00 0.0000000000000000e+00 0.0000000000000000e+00  0.0000000000000000e+00 0.0000000000000000e+00 0.0000000000000000e+00  0.0000000000000000e+00 0.0000000000000000e+00 0.0000000000000000e+00  0.0000000000000000e+00 0.0000000000000000e+00 0.0000000000000000e+00  0.0000000000000000e+00 0.0000000000000000e+00 0.0000000000000000e+00  0.0000000000000000e+00 0.0000000000000000e+00 0.0000000000000000e+00  0.0000000000000000e+00 0.0000000000000000e+00 0.0000000000000000e+00  0.0000000000000000e+00 0.0000000000000000e+00 0.0000000000000000e+00  -2.5053438023235152e-06 -1.2039023918677643e-07 0.0000000000000000e+00  -5.0986702890647227e-06 -2.4382647354622550e-07 0.0000000000000000e+00  -7.8711677256051566e-06 -3.7327802352073309e-07 0.0000000000000000e+00  -1.0918585666739831e-05 -5.1143263936809184e-07 0.0000000000000000e+00  -1.4343534658901858e-05 -6.6045728190250165e-07 0.0000000000000000e+00  -1.8257863355914160e-05 -8.2162621995836159e-07 0.0000000000000000e+00  -2.2785468997732512e-05 -9.9475286955127680e-07 0.0000000000000000e+00  -2.8066608859432702e-05 -1.1773451863508749e-06 0.0000000000000000e+00  -3.4266684478408787e-05 -1.3633762075326286e-06 0.0000000000000000e+00  -4.1597614732136236e-05 -1.5414837634875567e-06 0.0000000000000000e+00  -5.0374325510678222e-05 -1.6921234351941845e-06 0.0000000000000000e+00  -6.1171654304746141e-05 -1.7820257302994812e-06 0.0000000000000000e+00  -7.5283404062500124e-05 -1.7494643730025457e-06 0.0000000000000000e+00  -9.6156505798398654e-05 -1.4533124002752578e-06 0.0000000000000000e+00  -1.3424245513148089e-04 -4.6814700949930154e-07 0.0000000000000000e+00  -2.2502969986595050e-04 2.8207570876672617e-06 0.0000000000000000e+00  0.0000000000000000e+00 0.0000000000000000e+00 0.0000000000000000e+00  -4.9178166640041734e-06 -2.3750055195389186e-07 0.0000000000000000e+00  -1.0008898472314207e-05 -4.8119954778965662e-07 0.0000000000000000e+00  -1.5452793181389307e-05 -7.3717616734333608e-07 0.0000000000000000e+00  -2.1438136569293943e-05 -1.0110294064034741e-06 0.0000000000000000e+00  -2.8167148454241684e-05 -1.3074538196829392e-06 0.0000000000000000e+00  -3.5860057465960273e-05 -1.6295648474129009e-06 0.0000000000000000e+00  -4.4759743810485111e-05 -1.9778518848969576e-06 0.0000000000000000e+00  -5.5137592159046730e-05 -2.3486102341732169e-06 0.0000000000000000e+00  -6.7303350948768435e-05 -2.7316806565096688e-06 0.0000000000000000e+00  -8.1626182120426806e-05 -3.1073221051749338e-06 0.0000000000000000e+00  -9.8584289755899020e-05 -3.4421020541289981e-06 0.0000000000000000e+00  -1.1888272756197121e-04 -3.6840273504590835e-06 0.0000000000000000e+00  -1.4371985773208373e-04 -3.7590716327372293e-06 0.0000000000000000e+00  -1.7531437337557892e-04 -3.5825561328001081e-06 0.0000000000000000e+00  -2.1751929423073350e-04 -3.1640295869120547e-06 0.0000000000000000e+00  -2.7366233090968695e-04 -3.2578072333152054e-06 0.0000000000000000e+00  0.0000000000000000e+00 0.0000000000000000e+00 0.0000000000000000e+00  -7.1512174124053996e-06 -3.4813365601278661e-07 0.0000000000000000e+00  -1.4556052935358944e-05 -7.0580838701178701e-07 0.0000000000000000e+00  -2.2477288689050616e-05 -1.0824657006577347e-06 0.0000000000000000e+00  -3.1191377922234821e-05 -1.4870213418981621e-06 0.0000000000000000e+00  -4.0995092196654191e-05 -1.9273557693635854e-06 0.0000000000000000e+00  -5.2211736933389080e-05 -2.4094627842590901e-06 0.0000000000000000e+00  -6.5196743834485140e-05 -2.9360799149579480e-06 0.0000000000000000e+00  -8.0342526878946218e-05 -3.5045780119380833e-06 0.0000000000000000e+00  -9.8082779597367064e-05 -4.1038522547893750e-06 0.0000000000000000e+00  -1.1889695108954029e-04 -4.7099752195396724e-06 0.0000000000000000e+00  -1.4331586077477812e-04 -5.2805426337644384e-06 0.0000000000000000e+00  -1.7192549118889673e-04 -5.7481670243558463e-06 0.0000000000000000e+00  -2.0534169558859415e-04 -6.0147394065515770e-06 0.0000000000000000e+00  -2.4402584726764882e-04 -5.9491263068575106e-06 0.0000000000000000e+00  -2.8745791628634343e-04 -5.3797888571324423e-06 0.0000000000000000e+00  -3.3125794308623259e-04 -3.9507483199784228e-06 0.0000000000000000e+00  0.0000000000000000e+00 0.0000000000000000e+00 0.0000000000000000e+00  -9.1244712793858940e-06 -4.4890948894651407e-07 0.0000000000000000e+00  -1.8575699693683334e-05 -9.1090380207347731e-07 0.0000000000000000e+00  -2.8692256811353178e-05 -1.3990690389426930e-06 0.0000000000000000e+00  -3.9831168405494782e-05 -1.9261239025217335e-06 0.0000000000000000e+00  -5.2376874595636027e-05 -2.5039620893148617e-06 0.0000000000000000e+00  -6.6749456352840900e-05 -3.1428027434632119e-06 0.0000000000000000e+00  -8.3411400070245966e-05 -3.8497248303455685e-06 0.0000000000000000e+00  -1.0287154320265701e-04 -4.6262777933571153e-06 0.0000000000000000e+00  -1.2568362269261657e-04 -5.4647667259227925e-06 0.0000000000000000e+00  -1.5243426498173665e-04 -6.3427447116344077e-06 0.0000000000000000e+00  -1.8370933603637369e-04 -7.2153097598343238e-06 0.0000000000000000e+00  -2.2001331492525045e-04 -8.0052214186498797e-06 0.0000000000000000e+00  -2.6158199356459506e-04 -8.5920410641706169e-06 0.0000000000000000e+00  -3.0795132789318948e-04 -8.8041971895049665e-06 0.0000000000000000e+00  -3.5700266502464877e-04 -8.4244275320586660e-06 0.0000000000000000e+00  -4.0309402961102105e-04 -7.2487032527216078e-06 0.0000000000000000e+00  0.0000000000000000e+00 0.0000000000000000e+00 0.0000000000000000e+00  -1.0764026702056547e-05 -5.3625836217427396e-07 0.0000000000000000e+00  -2.1918341106059108e-05 -1.0892612644326394e-06 0.0000000000000000e+00  -3.3867427071946038e-05 -1.6759417870195739e-06 0.0000000000000000e+00  -4.7039283998574740e-05 -2.3132498759291984e-06 0.0000000000000000e+00  -6.1897063971840609e-05 -3.0179077979582972e-06 0.0000000000000000e+00  -7.8950051052553252e-05 -3.8057856537674771e-06 0.0000000000000000e+00  -9.8763039635976904e-05 -4.6906468600870146e-06 0.0000000000000000e+00  -1.2196216521246046e-04 -5.6818807502017137e-06 0.0000000000000000e+00  -1.4923330220197915e-04 -6.7806451962165041e-06 0.0000000000000000e+00  -1.8130537053020069e-04 -7.9735865925316113e-06 0.0000000000000000e+00  -2.1890356351037945e-04 -9.2230368026625779e-06 0.0000000000000000e+00  -2.6264359948158315e-04 -1.0452487422684936e-05 0.0000000000000000e+00  -3.1281338681182883e-04 -1.1526692270933609e-05 0.0000000000000000e+00  -3.6895142511186787e-04 -1.2228047804996800e-05 0.0000000000000000e+00  -4.2910087231021383e-04 -1.2237200033019377e-05 0.0000000000000000e+00  -4.8868613027608235e-04 -1.1139526710008539e-05 0.0000000000000000e+00  0.0000000000000000e+00 0.0000000000000000e+00 0.0000000000000000e+00  -1.2006326616065162e-05 -6.0650968186071931e-07 0.0000000000000000e+00  -2.4454340890986520e-05 -1.2333494290467106e-06 0.0000000000000000e+00  -3.7801956389034123e-05 -1.9012992729936660e-06 0.0000000000000000e+00  -5.2535813272645467e-05 -2.6317482872610556e-06 0.0000000000000000e+00  -6.9185976048039628e-05 -3.4468250679206780e-06 0.0000000000000000e+00  -8.8340596387710576e-05 -4.3692433821859242e-06 0.0000000000000000e+00  -1.1065989181017094e-04 -5.4216343347844306e-06 0.0000000000000000e+00  -1.3688788011774437e-04 -6.6249665037125896e-06 0.0000000000000000e+00  -1.6785855209593156e-04 -7.9953595966572358e-06 0.0000000000000000e+00  -2.0448984394224549e-04 -9.5381016134414694e-06 0.0000000000000000e+00  -2.4775271764033752e-04 -1.1236902867073169e-05 0.0000000000000000e+00  -2.9859232263382263e-04 -1.3035347667091854e-05 0.0000000000000000e+00  -3.5776266181395246e-04 -1.4806403644564667e-05 0.0000000000000000e+00  -4.2551886333849087e-04 -1.6305710854624422e-05 0.0000000000000000e+00  -5.0110935754830543e-04 -1.7107310600061181e-05 0.0000000000000000e+00  -5.8206827646682181e-04 -1.6528196320714363e-05 0.0000000000000000e+00  0.0000000000000000e+00 0.0000000000000000e+00 0.0000000000000000e+00  -1.2800355004701633e-05 -6.5608458247781534e-07 0.0000000000000000e+00  -2.6079091575680015e-05 -1.3357255889844171e-06 0.0000000000000000e+00  -4.0332346532070332e-05 -2.0632330404643896e-06 0.0000000000000000e+00  -5.6089934461986948e-05 -2.8642594971880860e-06 0.0000000000000000e+00  -7.3933231785802694e-05 -3.7664329256979458e-06 0.0000000000000000e+00  -9.4514125890993346e-05 -4.7998909555100052e-06 0.0000000000000000e+00  -1.1857513649357414e-04 -5.9975818091769201e-06 0.0000000000000000e+00  -1.4697040438684664e-04 -7.3950386099956806e-06 0.0000000000000000e+00  -1.8068637027299488e-04 -9.0290069041971401e-06 0.0000000000000000e+00  -2.2085918122842626e-04 -1.0933649463508784e-05 0.0000000000000000e+00  -2.6878236929182966e-04 -1.3131790211868020e-05 0.0000000000000000e+00  -3.2589195365713544e-04 -1.5616385918598145e-05 0.0000000000000000e+00  -3.9370569751715791e-04 -1.8313766270734523e-05 0.0000000000000000e+00  -4.7367993738803564e-04 -2.1015546839089562e-05 0.0000000000000000e+00  -5.6694023166776347e-04 -2.3263307105150837e-05 0.0000000000000000e+00  -6.7386346761470468e-04 -2.4175580749555296e-05 0.0000000000000000e+00  0.0000000000000000e+00 0.0000000000000000e+00 0.0000000000000000e+00  -1.3110171720532454e-05 -6.8178139161943268e-07 0.0000000000000000e+00  -2.6718278850233784e-05 -1.3896390037400829e-06 0.0000000000000000e+00  -4.1340848914474409e-05 -2.1506989245767129e-06 0.0000000000000000e+00  -5.7532129329620002e-05 -2.9941896860421625e-06 0.0000000000000000e+00  -7.5904776749499000e-05 -3.9526267313301672e-06 0.0000000000000000e+00  -9.7152898397343315e-05 -5.0631537848744820e-06 0.0000000000000000e+00  -1.2207853890401475e-04 -6.3690780347491687e-06 0.0000000000000000e+00  -1.5162303373952789e-04 -7.9215689560422247e-06 0.0000000000000000e+00  -1.8690510436336302e-04 -9.7812848189788334e-06 0.0000000000000000e+00  -2.2926806329558785e-04 -1.2019140493255480e-05 0.0000000000000000e+00  -2.8033863820746955e-04 -1.4714081091688193e-05 0.0000000000000000e+00  -3.4209856383772802e-04 -1.7942655938355490e-05 0.0000000000000000e+00  -4.1696464241251107e-04 -2.1748771765090748e-05 0.0000000000000000e+00  -5.0785964661843159e-04 -2.6070255658505121e-05 0.0000000000000000e+00  -6.1823620658208605e-04 -3.0582575733838113e-05 0.0000000000000000e+00  -7.5201116957726837e-04 -3.4414062312692827e-05 0.0000000000000000e+00  0.0000000000000000e+00 0.0000000000000000e+00 0.0000000000000000e+00  -1.2917236461801223e-05 -6.8112053356186181e-07 0.0000000000000000e+00  -2.6332826022104030e-05 -1.3897740576878442e-06 0.0000000000000000e+00  -4.0763680538726266e-05 -2.1547737182178355e-06 0.0000000000000000e+00  -5.6766827821981942e-05 -3.0076746016542047e-06 0.0000000000000000e+00  -7.4961906493543074e-05 -3.9844428148845023e-06 0.0000000000000000e+00  -9.6057071323760082e-05 -5.1275442054611042e-06 0.0000000000000000e+00  -1.2088027147087823e-04 -6.4887034740841281e-06 0.0000000000000000e+00  -1.5041893112535437e-04 -8.1326881013256029e-06 0.0000000000000000e+00  -1.8587294312440291e-04 -1.0142574874631235e-05 0.0000000000000000e+00  -2.2872906898295655e-04 -1.2626930271292516e-05 0.0000000000000000e+00  -2.8086984585581199e-04 -1.5728762498019818e-05 0.0000000000000000e+00  -3.4473688004671215e-04 -1.9633808768246744e-05 0.0000000000000000e+00  -4.2357440659674089e-04 -2.4568700426741342e-05 0.0000000000000000e+00  -5.2177511531767461e-04 -3.0760923352374659e-05 0.0000000000000000e+00  -6.4532170954596140e-04 -3.8289645149232890e-05 0.0000000000000000e+00  -8.0230268668458589e-04 -4.6678496824328418e-05 0.0000000000000000e+00  0.0000000000000000e+00 0.0000000000000000e+00 0.0000000000000000e+00  -1.2222233582791394e-05 -6.5269485936606011e-07 0.0000000000000000e+00  -2.4922877386357188e-05 -1.3330169807616005e-06 0.0000000000000000e+00  -3.8597905244721322e-05 -2.0699855053187659e-06 0.0000000000000000e+00  -5.3783544666055276e-05 -2.8957371465551678e-06 0.0000000000000000e+00  -7.1079046493864234e-05 -3.8474854474204869e-06 0.0000000000000000e+00  -9.1173297514905035e-05 -4.9700760406038629e-06 0.0000000000000000e+00  -1.1487761969720968e-04 -6.3195611904365858e-06 0.0000000000000000e+00  -1.4316859573497350e-04 -7.9685090369748682e-06 0.0000000000000000e+00  -1.7724764724459666e-04 -1.0014278173209733e-05 0.0000000000000000e+00  -2.1862961970849133e-04 -1.2592340367953690e-05 0.0000000000000000e+00  -2.6928301855276045e-04 -1.5897963773232347e-05 0.0000000000000000e+00  -3.3186329735195854e-04 -2.0220735880348329e-05 0.0000000000000000e+00  -4.1011137213465811e-04 -2.5995179568334199e-05 0.0000000000000000e+00  -5.0952695281857193e-04 -3.3858399483036549e-05 0.0000000000000000e+00  -6.3841807825935556e-04 -4.4654737425442714e-05 0.0000000000000000e+00  -8.0924010898530973e-04 -5.9154336322074082e-05 0.0000000000000000e+00  0.0000000000000000e+00 0.0000000000000000e+00 0.0000000000000000e+00  -1.1046087741397558e-05 -5.9645955565045741e-07 0.0000000000000000e+00  -2.2530110473136165e-05 -1.2190987339034300e-06 0.0000000000000000e+00  -3.4905658079093577e-05 -1.8954535055019487e-06 0.0000000000000000e+00  -4.8664163182603999e-05 -2.6561960339551885e-06 0.0000000000000000e+00  -6.4356169883794876e-05 -3.5370977878687370e-06 0.0000000000000000e+00  -8.2616037184141762e-05 -4.5815901108129850e-06 0.0000000000000000e+00  -1.0419205387243320e-04 -5.8443696649720537e-06 0.0000000000000000e+00  -1.2998523648290948e-04 -7.3968716977863909e-06 0.0000000000000000e+00  -1.6110286220189345e-04 -9.3362155431965572e-06 0.0000000000000000e+00  -1.9893889047498505e-04 -1.1800847215938337e-05 0.0000000000000000e+00  -2.4530700481290154e-04 -1.4999402430484159e-05 0.0000000000000000e+00  -3.0268243421264373e-04 -1.9265765124623543e-05 0.0000000000000000e+00  -3.7467666154577416e-04 -2.5164971838124967e-05 0.0000000000000000e+00  -4.6701360628736570e-04 -3.3692076212023409e-05 0.0000000000000000e+00  -5.8950442682072256e-04 -4.6617315838859750e-05 0.0000000000000000e+00  -7.5929146843107251e-04 -6.7075474333376211e-05 0.0000000000000000e+00  0.0000000000000000e+00 0.0000000000000000e+00 0.0000000000000000e+00  -9.4299278656694253e-06 -5.1390004948447800e-07 0.0000000000000000e+00  -1.9237809199033029e-05 -1.0509713730159028e-06 0.0000000000000000e+00  -2.9814623358764563e-05 -1.6355667115977561e-06 0.0000000000000000e+00  -4.1584363602530965e-05 -2.2948332253937858e-06 0.0000000000000000e+00  -5.5022188197733218e-05 -3.0603867467610048e-06 0.0000000000000000e+00  -7.0674865245144638e-05 -3.9703843777327670e-06 0.0000000000000000e+00  -8.9184389082669111e-05 -5.0722527653236532e-06 0.0000000000000000e+00  -1.1131595355619105e-04 -6.4265573264821913e-06 0.0000000000000000e+00  -1.3799247281381198e-04 -8.1130742016196023e-06 0.0000000000000000e+00  -1.7034107498785009e-04 -1.0241612278685159e-05 0.0000000000000000e+00  -2.0976697300170905e-04 -1.2973952384580971e-05 0.0000000000000000e+00  -2.5809995152785187e-04 -1.6572944393732822e-05 0.0000000000000000e+00  -3.1794728071812313e-04 -2.1518768154694126e-05 0.0000000000000000e+00  -3.9365550134358256e-04 -2.8789515097823802e-05 0.0000000000000000e+00  -4.9411306719059403e-04 -4.0510790830827219e-05 0.0000000000000000e+00  -6.4041084744195494e-04 -6.0742055256816520e-05 0.0000000000000000e+00  0.0000000000000000e+00 0.0000000000000000e+00 0.0000000000000000e+00  -7.4339005902005443e-06 -4.0804005320296903e-07 0.0000000000000000e+00  -1.5168458892826343e-05 -8.3482695651970288e-07 0.0000000000000000e+00  -2.3514289475004424e-05 -1.3000177691018382e-06 0.0000000000000000e+00  -3.2808266733345868e-05 -1.8254544372932635e-06 0.0000000000000000e+00  -4.3427466295952090e-05 -2.4363567914159704e-06 0.0000000000000000e+00  -5.5803989253267289e-05 -3.1625988130572415e-06 0.0000000000000000e+00  -7.0440139267034899e-05 -4.0399789177752850e-06 0.0000000000000000e+00  -8.7922222503368489e-05 -5.1112354425310057e-06 0.0000000000000000e+00  -1.0892902169435699e-04 -6.4263149712158257e-06 0.0000000000000000e+00  -1.3422749435554134e-04 -8.0412262645194800e-06 0.0000000000000000e+00  -1.6464468576999879e-04 -1.0015572981065917e-05 0.0000000000000000e+00  -2.0100916586221701e-04 -1.2414143576181121e-05 0.0000000000000000e+00  -2.4410140362723901e-04 -1.5341416750244389e-05 0.0000000000000000e+00  -2.9487837098524398e-04 -1.9133578495436167e-05 0.0000000000000000e+00  -3.5628743267201036e-04 -2.5260895665526899e-05 0.0000000000000000e+00  -4.4417458913462111e-04 -4.1197554562530309e-05 0.0000000000000000e+00  0.0000000000000000e+00 0.0000000000000000e+00 0.0000000000000000e+00  -5.1349070376467568e-06 -2.8329013158676782e-07 0.0000000000000000e+00  -1.0479034010938345e-05 -5.7975858941602242e-07 0.0000000000000000e+00  -1.6248307620093350e-05 -9.0318442812159945e-07 0.0000000000000000e+00  -2.2676873360540413e-05 -1.2687995007611043e-06 0.0000000000000000e+00  -3.0026395175846971e-05 -1.6939754176440799e-06 0.0000000000000000e+00  -3.8595204006623131e-05 -2.1987432352374433e-06 0.0000000000000000e+00  -4.8725818689519286e-05 -2.8057674156238029e-06 0.0000000000000000e+00  -6.0806989829827159e-05 -3.5388399830463736e-06 0.0000000000000000e+00  -7.5261201981018414e-05 -4.4177011999893936e-06 0.0000000000000000e+00  -9.2497416843666998e-05 -5.4441684205385127e-06 0.0000000000000000e+00  -1.1278604393443720e-04 -6.5682990434052708e-06 0.0000000000000000e+00  -1.3597057819390214e-04 -7.6097264563593347e-06 0.0000000000000000e+00  -1.6086707594672355e-04 -8.0812209109962061e-06 0.0000000000000000e+00  -1.8417957629385080e-04 -6.8151841127560078e-06 0.0000000000000000e+00  -1.9918035200417266e-04 -1.3216161646493805e-06 0.0000000000000000e+00  -1.9751939205901303e-04 1.2309869974117584e-05 0.0000000000000000e+00  0.0000000000000000e+00 0.0000000000000000e+00 0.0000000000000000e+00  -2.6234723660159148e-06 -1.4517538173131438e-07 0.0000000000000000e+00  -5.3544805970321627e-06 -2.9715866730032604e-07 0.0000000000000000e+00  -8.3039637469138774e-06 -4.6305337179550016e-07 0.0000000000000000e+00  -1.1592256840679958e-05 -6.5067902417148585e-07 0.0000000000000000e+00  -1.5353757951718082e-05 -8.6886110702456015e-07 0.0000000000000000e+00  -1.9741220969960198e-05 -1.1275312107023992e-06 0.0000000000000000e+00  -2.4928408550850935e-05 -1.4372828832167573e-06 0.0000000000000000e+00  -3.1107770505965670e-05 -1.8074911122229433e-06 0.0000000000000000e+00  -3.8474800476281374e-05 -2.2407953972506395e-06 0.0000000000000000e+00  -4.7178485490018719e-05 -2.7185800655906269e-06 0.0000000000000000e+00  -5.7187394059455700e-05 -3.1646272871231422e-06 0.0000000000000000e+00  -6.7950371337057550e-05 -3.3580240322054637e-06 0.0000000000000000e+00  -7.7584232147956465e-05 -2.7403809451996324e-06 0.0000000000000000e+00  -8.1149220132947751e-05 -6.8588174214603964e-08 0.0000000000000000e+00  -6.8185574715406774e-05 6.8331233975751632e-06 0.0000000000000000e+00  -2.5033696833196298e-05 1.9597382509115662e-05 0.0000000000000000e+00  0.0000000000000000e+00 0.0000000000000000e+00 0.0000000000000000e+00  0.0000000000000000e+00 0.0000000000000000e+00 0.0000000000000000e+00  0.0000000000000000e+00 0.0000000000000000e+00 0.0000000000000000e+00  0.0000000000000000e+00 0.0000000000000000e+00 0.0000000000000000e+00  0.0000000000000000e+00 0.0000000000000000e+00 0.0000000000000000e+00  0.0000000000000000e+00 0.0