<?xml version="1.0"?>
<VTKFile type="UnstructuredGrid"  version="0.1"  >
<UnstructuredGrid>
<Piece  NumberOfPoints="289" NumberOfCells="512">
<Points>
<DataArray  type="Float64"  NumberOfComponents="3"  format="ascii">0 0 0  0.0625 0 0  0.125 0 0  0.1875 0 0  0.25 0 0  0.3125 0 0  0.375 0 0  0.4375 0 0  0.5 0 0  0.5625 0 0  0.625 0 0  0.6875 0 0  0.75 0 0  0.8125 0 0  0.875 0 0  0.9375 0 0  1 0 0  0 0.0625 0  0.06258441358265759 0.06248370767765059 0  0.1251718813157263 0.06246707672164658 0  0.1877655804468656 0.06244978505809679 0  0.2503688831279864 0.06243155518018239 0  0.3129854643167154 0.06241218372289167 0  0.3756194258040826 0.06239157896618305 0  0.438275456313042 0.06236980633700226 0  0.5009590749530799 0.06234713786382092 0  0.5636770741774917 0.06232409313903591 0  0.6264384575048856 0.06230144221871353 0  0.6892566553183218 0.06228010365127317 0  0.75215520872206 0.06226077767533346 0  0.8151834174425577 0.06224287427380647 0  0.8784624501392794 0.06222130105637769 0  0.9423310749883501 0.06217573481872028 0  1.007848933811021 0.06203035894787658 0  0 0.125 0  0.06266582881586752 0.1249677419865019 0  0.1253376984687013 0.1249347839369969 0  0.1880218966397833 0.1249004561012195 0  0.2507251091064807 0.1248641717632429 0  0.3134546391668811 0.1248254843948889 0  0.3762186554028183 0.1247841627340692 0  0.4390264965375101 0.1247402862031616 0  0.5018890954782523 0.1246943569421748 0  0.5648196609333767 0.1246474123305999 0  0.6278349268525814 0.1246010990053876 0  0.6909576550709576 0.1245576319201689 0  0.7542218337892329 0.1245195167378861 0  0.8176832226522943 0.1244889377906477 0  0.8814380877211069 0.1244672504569031 0  0.9456413637294361 0.1244582975924157 0  1.010434243716221 0.1244957791106935 0  0 0.1875 0  0.06274125107373553 0.1874524685830027 0  0.1254913635225791 0.1874038352283602 0  0.1882595636422005 0.1873530361497587 0  0.2510556803197369 0.1872991161381378 0  0.3138904738244848 0.1872413081678218 0  0.3767759972946135 0.187179143850696 0  0.4397260131554565 0.1871126030475873 0  0.5027565025756395 0.1870423057196707 0  0.56588633449855 0.1869697369991049 0  0.6291382012887744 0.1868974720778178 0  0.6925399447758992 0.1868293228766035 0  0.7561262037329702 0.1867702509732375 0  0.8199392048839346 0.1867257466773214 0  0.8840232815596893 0.1866999842908224 0  0.9483950297142741 0.1866903667899134 0  1.012945145134416 0.1866671441101529 0  0 0.25 0  0.06280786408082864 0.2499382929117411 0  0.1256271440325286 0.2498750304128189 0  0.1884697277638611 0.2498086938450976 0  0.2513483067669243 0.2497378777717607 0  0.3142768120623138 0.2496613820280887 0  0.377270885356108 0.2495783495631272 0  0.4403483960088395 0.2494884679533881 0  0.5035300068488372 0.2493922517109189 0  0.5668397657440725 0.2492914162395482 0  0.6303056199411123 0.2491893363133031 0  0.6939595227110893 0.2490915415994534 0  0.7578361944323266 0.2490061211435228 0  0.8219681085813967 0.2489437585178235 0  0.8863711009690214 0.2489168644160747 0  0.9510101440924463 0.2489370210622287 0  1.015734520124439 0.2490112074431157 0  0 0.3125 0  0.06286312461027292 0.3124256707169905 0  0.1257398549491607 0.3123492803749124 0  0.1886443603299994 0.312268790575934 0  0.2515918064041058 0.3121822514798231 0  0.3145988980376074 0.3120878898455814 0  0.3776844679358703 0.3119842568344291 0  0.4408701188803872 0.3118704653917713 0  0.5041809079944282 0.3117465543637901 0  0.5676460099953873 0.311614022417846 0  0.6312991709716367 0.3114765736350598 0  0.6951784802473582 0.311341096521599 0  0.7593243990266824 0.3112188373726178 0  0.8237739210963637 0.3111265944830049 0  0.8885473164046469 0.3110875252379217 0  0.9536236169758469 0.3111308836476388 0  1.018907068432043 0.3112899541124286 0  0 0.375 0  0.06290485498554199 0.3749151080989478 0  0.1258250463030804 0.3748276109673544 0  0.1887765449293343 0.3747348966054506 0  0.251776494201399 0.3746343805941525 0  0.3148438574818587 0.3745235668146939 0  0.378000135899608 0.3744001760212934 0  0.4412701785249006 0.3742623834111079 0  0.5046830960417327 0.3741092244777976 0  0.5682732532321697 0.3739412524215838 0  0.6320812237943461 0.3737615573438495 0  0.6961543866232637 0.3735772765658337 0  0.7605464498419258 0.3734017083892561 0  0.8253145840118205 0.373257028821799 0  0.8905123170066438 0.3731773042740645 0  0.9561770771834922 0.3732108914665839 0  1.022315891094153 0.3734204072889007 0  0 0.4375 0  0.0629313326803464 0.4374071474374015 0  0.1258791865508892 0.4373111377538567 0  0.1888607623829446 0.4372087615813125 0  0.251894578160792 0.4370967370138065 0  0.3150012098243634 0.4369717145362195 0  0.378204137145115 0.4368303460621589 0  0.4415307474497915 0.4366694654095035 0  0.5050135662138345 0.4364864568089304 0  0.5686918018752689 0.4362799334434002 0  0.6326133022650642 0.4360509137561921 0  0.6968369960271 0.4358047668417377 0  0.7614357877912873 0.4355542733657448 0  0.8264996478785804 0.4353241269465359 0  0.8921383785200591 0.4351568729911054 0  0.9584838460991869 0.4351193030302638 0  1.025694038588827 0.4353064967324682 0  0 0.5 0  0.06294137441231257 0.4999023364333626 0  0.1258998370882082 0.4998010048502544 0  0.1888931692365487 0.4996922259240547 0  0.2519405642342552 0.499572012987537 0  0.3150634334483431 0.4994360920516479 0  0.3782863510595437 0.4992798650540971 0  0.4416382258577766 0.4990984593263309 0  0.5051538430750125 0.4988869427100834 0  0.5688760184083551 0.498640847601155 0  0.6328587760153555 0.4983572553963901 0  0.697172229538438 0.4980368658191733 0  0.7619102073504653 0.4976877197406688 0  0.8272020171214204 0.4973314854145192 0  0.8932298175037341 0.4970131185771099 0  0.960252675318873 0.4968133202614002 0  1.028639155286366 0.4968588157104152 0  0 0.5625 0  0.06293440908845878 0.5624011796573363 0  0.1258858059949671 0.5622982853200309 0  0.1888718500942453 0.5621870655338941 0  0.2519116403715495 0.5620629061750727 0  0.3150265409083271 0.5619206430992032 0  0.3782411617683196 0.5617543778590169 0  0.441584605844717 0.5615573201058704 0  0.5050921812900616 0.5613217141988261 0  0.5688079605564491 0.5610389757420244 0  0.6327889265872203 0.5607002989360944 0  0.6971121241647871 0.5602982579170869 0  0.7618874006672808 0.5598304115136649 0  0.8272800103752077 0.5593067236518681 0  0.893548977493856 0.5587635260880519 0  0.9611068427787171 0.5582861707647077 0  1.030603281273186 0.5580353417335278 0  0 0.625 0  0.06291053128774417 0.6249040753943238 0  0.1258372624170565 0.6248038477810314 0  0.1887970099367507 0.6246947739676573 0  0.2518079802668129 0.624571796489232 0  0.3148905589838141 0.6244290420492187 0  0.3780682417907623 0.6242594672977282 0  0.4413688101042306 0.6240544403720839 0  0.5048259503064726 0.6238032633535593 0  0.5684817363418803 0.6234926861331744 0  0.6323908970151383 0.6231065767714289 0  0.6966288998055125 0.622626194769683 0  0.7613082138392638 0.6220321939344404 0  0.8266115331071746 0.6213110750816389 0  0.8928574496597208 0.6204721463207877 0  0.9606189959597208 0.6195854455808354 0  1.030907294490655 0.6188436696469803 0  0 0.6875 0  0.06287052621392392 0.6874112448336659 0  0.1257557910354874 0.6873182033584821 0  0.1886710680694283 0.6872163029543205 0  0.2516328966945793 0.6871003403625038 0  0.3146597824320688 0.6869640827273198 0  0.3777729950046035 0.6867997558021023 0  0.4409975222981904 0.6865973627056798 0  0.5043632959581696 0.686343761925289 0  0.5679069671059784 0.6860214232986243 0  0.6316749672522537 0.6856068004951713 0  0.6957298436969229 0.6850683917602669 0  0.7601651891332916 0.6843650900195796 0  0.8251428343440675 0.6834473191855361 0  0.8909845454557054 0.6822699771678481 0  0.958379337089262 0.6808463560054545 0  1.028763654308696 0.6794016465779572 0  0 0.75 0  0.06281585907032267 0.7499226648269283 0  0.1256443709703404 0.7498413568926856 0  0.1884986252032715 0.7497518006897816 0  0.2513927927779018 0.7496490412274184 0  0.3143427020781675 0.7495269915717251 0  0.3773664547943588 0.7493778200664823 0  0.4404850726644299 0.7491910791862901 0  0.5037231426252207 0.7489524273721814 0  0.5671094160837197 0.7486417135600657 0  0.6306774206228593 0.7482300648511214 0  0.6944667822182564 0.7476754246713265 0  0.7585286808423701 0.7469157753471756 0  0.8229489754870071 0.7458595433297178 0  0.8879369723473808 0.7443768095849368 0  0.9541303467091292 0.7423244209080867 0  1.023344696608121 0.7398248646441812 0  0 0.8125 0  0.06274862624219051 0.8124380181657196 0  0.1255072742653891 0.8123726932703043 0  0.1882862975067551 0.8123004021356182 0  0.2510969045793075 0.8122168847944589 0  0.3139515976247861 0.8121168050796772 0  0.3768646062865956 0.8119931339044083 0  0.4398522528521828 0.8118362360905047 0  0.5029330791119405 0.8116324673351258 0  0.5661273380142189 0.811361955733649 0  0.6294549891847468 0.8109949991371349 0  0.6929305140055425 0.8104860327113783 0  0.7565520053137508 0.8097630924003371 0  0.82028453029561 0.8087082607506776 0  0.8840643029525127 0.8071187911198258 0  0.948016733368214 0.8046308527818888 0  1.014232253094962 0.8006919979814398 0  0 0.875 0  0.06267147095095472 0.8749566751890846 0  0.1253498916149529 0.8749109304229973 0  0.1880424369199161 0.8748601295503207 0  0.250756880861543 0.8748011407775971 0  0.3135018980870179 0.8747299863681335 0  0.3762873484654298 0.8746413394628263 0  0.439124470863908 0.8745277598596555 0  0.502025783874169 0.8743784878150258 0  0.565004169558841 0.8741774835607941 0  0.6280698010900329 0.8739001589232501 0  0.6912214870436465 0.8735077805168112 0  0.7544236615086908 0.8729374874527898 0  0.8175470107753542 0.8720828563893392 0  0.8802216143606094 0.8707481074530328 0  0.9415128714088955 0.8685030591487438 0  0.9994616823797178 0.8640671319208392 0  0 0.9375 0  0.06258747005487222 0.9374777166139995 0  0.1251785015268716 0.9374541624879373 0  0.1877767720901743 0.9374279491052091 0  0.2503862744086879 0.9373974166249895 0  0.3130114772207377 0.9373604393973981 0  0.3756574811399979 0.937314142785586 0  0.438330130929561 0.
[...]
<PointData  Vectors="f_54"> 
<DataArray  type="Float64"  Name="f_54"  NumberOfComponents="3" format="ascii">0.0000000000000000e+00 0.0000000000000000e+00 0.0000000000000000e+00  0.0000000000000000e+00 0.0000000000000000e+00 0.0000000000000000e+00  0.0000000000000000e+00 0.0000000000000000e+00 0.0000000000000000e+00  0.0000000000000000e+00 0.0000000000000000e+00 0.0000000000000000e+00  0.0000000000000000e+00 0.0000000000000000e+00 0.0000000000000000e+00  0.0000000000000000e+00 0.0000000000000000e+00 0.0000000000000000e+00  0.0000000000000000e+00 0.0000000000000000e+00 0.0000000000000000e+00  0.0000000000000000e+00 0.0000000000000000e+00 0.0000000000000000e+00  0.0000000000000000e+00 0.0000000000000000e+00 0.0000000000000000e+00  0.0000000000000000e+00 0.0000000000000000e+00 0.0000000000000000e+00  0.0000000000000000e+00 0.0000000000000000e+00 0.0000000000000000e+00  0.0000000000000000e+00 0.0000000000000000e+00 0.0000000000000000e+00  0.0000000000000000e+00 0.0000000000000000e+00 0.0000000000000000e+00  0.0000000000000000e+00 0.0000000000000000e+00 0.0000000000000000e+00  0.0000000000000000e+00 0.0000000000000000e+00 0.0000000000000000e+00  0.0000000000000000e+00 0.0000000000000000e+00 0.0000000000000000e+00  0.0000000000000000e+00 0.0000000000000000e+00 0.0000000000000000e+00  0.0000000000000000e+00 0.0000000000000000e+00 0.0000000000000000e+00  -2.7677716959559355e-06 -1.0968675605866329e-07 0.0000000000000000e+00  -5.5973594856276170e-06 -2.1868793575121942e-07 0.0000000000000000e+00  -8.5487552557227065e-06 -3.2586390552802140e-07 0.0000000000000000e+00  -1.1674666822646657e-05 -4.2902834567358580e-07 0.0000000000000000e+00  -1.5015013669837239e-05 -5.2438786664826887e-07 0.0000000000000000e+00  -1.8588862661081653e-05 -6.0598692179297117e-07 0.0000000000000000e+00  -2.2382474811273923e-05 -6.6526333896661155e-07 0.0000000000000000e+00  -2.6331505686931625e-05 -6.9094843901571689e-07 0.0000000000000000e+00  -3.0294089649809242e-05 -6.6976423024428301e-07 0.0000000000000000e+00  -3.4008492806291872e-05 -5.8874055387750709e-07 0.0000000000000000e+00  -3.7021265244051166e-05 -4.4064412187980441e-07 0.0000000000000000e+00  -3.8550429354179904e-05 -2.3544264607266911e-07 0.0000000000000000e+00  -3.7184520351892917e-05 -2.4654150186557331e-08 0.0000000000000000e+00  -3.0112472679967350e-05 4.1100595957140135e-08 0.0000000000000000e+00  -1.0842272654200181e-05 -4.5323059960382585e-07 0.0000000000000000e+00  3.8832753153506815e-05 -2.8023292712588387e-06 0.0000000000000000e+00  0.0000000000000000e+00 0.0000000000000000e+00 0.0000000000000000e+00  -5.4798206948935625e-06 -2.2029090479157547e-07 0.0000000000000000e+00  -1.1087412365547845e-05 -4.3972705412809985e-07 0.0000000000000000e+00  -1.6947529664389024e-05 -6.5655798412803204e-07 0.0000000000000000e+00  -2.3171940706168295e-05 -8.6694745395747110e-07 0.0000000000000000e+00  -2.9849359347596667e-05 -1.0638045748316408e-06 0.0000000000000000e+00  -3.7030470136849843e-05 -1.2355455591506504e-06 0.0000000000000000e+00  -4.4705583131881418e-05 -1.3649414438346465e-06 0.0000000000000000e+00  -5.2771498073689924e-05 -1.4284367740017624e-06 0.0000000000000000e+00  -6.0982413290569140e-05 -1.3967152248523350e-06 0.0000000000000000e+00  -6.8876239297138592e-05 -1.2379166202957544e-06 0.0000000000000000e+00  -7.5660259587350385e-05 -9.2585351528596503e-07 0.0000000000000000e+00  -8.0023885250210758e-05 -4.5683437878574121e-07 0.0000000000000000e+00  -7.9812360637953326e-05 1.2022199902082740e-07 0.0000000000000000e+00  -7.1436541891306660e-05 6.5814297147607669e-07 0.0000000000000000e+00  -4.8868901711448206e-05 8.7383125304672803e-07 0.0000000000000000e+00  -2.6678351631826943e-06 5.0819641462280022e-07 0.0000000000000000e+00  0.0000000000000000e+00 0.0000000000000000e+00 0.0000000000000000e+00  -8.0686944780271601e-06 -3.3190622387215761e-07 0.0000000000000000e+00  -1.6337854761835032e-05 -6.6380583745614768e-07 0.0000000000000000e+00  -2.5004917969255449e-05 -9.9440444992847739e-07 0.0000000000000000e+00  -3.4251672903045223e-05 -1.3193592201758198e-06 0.0000000000000000e+00  -4.4231482468322716e-05 -1.6294550762714519e-06 0.0000000000000000e+00  -5.5049700028858822e-05 -1.9084998015975098e-06 0.0000000000000000e+00  -6.6733978913432912e-05 -2.1310383266573343e-06 0.0000000000000000e+00  -7.9190201811566650e-05 -2.2602629541212463e-06 0.0000000000000000e+00  -9.2138398427781400e-05 -2.2469974491001479e-06 0.0000000000000000e+00  -1.0502112302512608e-04 -2.0314772757925609e-06 0.0000000000000000e+00  -1.1687425685645552e-04 -1.5509515582562460e-06 0.0000000000000000e+00  -1.2614804682428265e-04 -7.5791087882515551e-07 0.0000000000000000e+00  -1.3047066172053735e-04 3.4429475226154281e-07 0.0000000000000000e+00  -1.2638509896708940e-04 1.6403298655538799e-06 0.0000000000000000e+00  -1.0926121939917088e-04 2.8067770579735509e-06 0.0000000000000000e+00  -7.4163893403870619e-05 3.1466881882426154e-06 0.0000000000000000e+00  0.0000000000000000e+00 0.0000000000000000e+00 0.0000000000000000e+00  -1.0460464336758190e-05 -4.4360687249833116e-07 0.0000000000000000e+00  -2.1201978597713537e-05 -8.8952166930282726e-07 0.0000000000000000e+00  -3.2504160324837640e-05 -1.3384866623918369e-06 0.0000000000000000e+00  -4.4632556706476750e-05 -1.7874491906627617e-06 0.0000000000000000e+00  -5.7825747793153479e-05 -2.2271029810901425e-06 0.0000000000000000e+00  -7.2274317902715972e-05 -2.6387803393059877e-06 0.0000000000000000e+00  -8.8087754670459817e-05 -2.9905989208468895e-06 0.0000000000000000e+00  -1.0524437487848468e-04 -3.2330008671508456e-06 0.0000000000000000e+00  -1.2351846573673120e-04 -3.2943250819083820e-06 0.0000000000000000e+00  -1.4237851222537220e-04 -3.0780333426676611e-06 0.0000000000000000e+00  -1.6085199110844092e-04 -2.4649602810691813e-06 0.0000000000000000e+00  -1.7735909873879682e-04 -1.3268045098810414e-06 0.0000000000000000e+00  -1.8953836014748806e-04 4.3880071342178342e-07 0.0000000000000000e+00  -1.9414111047993385e-04 2.8364110483846367e-06 0.0000000000000000e+00  -1.8719529800542375e-04 5.6461040257295077e-06 0.0000000000000000e+00  -1.6484001337502879e-04 8.2363752410994627e-06 0.0000000000000000e+00  0.0000000000000000e+00 0.0000000000000000e+00 0.0000000000000000e+00  -1.2573804037431654e-05 -5.5301214736753242e-07 0.0000000000000000e+00  -2.5516255335934367e-05 -1.1124406503924365e-06 0.0000000000000000e+00  -3.9198034123219814e-05 -1.6830640204724205e-06 0.0000000000000000e+00  -5.3982394113810922e-05 -2.2655502978116079e-06 0.0000000000000000e+00  -7.0215286359225250e-05 -2.8535300935762760e-06 0.0000000000000000e+00  -8.8206720667670128e-05 -3.4295364982862251e-06 0.0000000000000000e+00  -1.0819886378113064e-04 -3.9593673563599419e-06 0.0000000000000000e+00  -1.3031515070120430e-04 -4.3844821247625144e-06 0.0000000000000000e+00  -1.5448361908097791e-04 -4.6123436562069020e-06 0.0000000000000000e+00  -1.8032761624192959e-04 -4.5054637436248458e-06 0.0000000000000000e+00  -2.0701979258433393e-04 -3.8718761302813333e-06 0.0000000000000000e+00  -2.3310442758002291e-04 -2.4637643507007039e-06 0.0000000000000000e+00  -2.5631476182917765e-04 1.7684472893931397e-09 0.0000000000000000e+00  -2.7345415769951454e-04 3.7744571644681853e-06 0.0000000000000000e+00  -2.8047275572491817e-04 8.9162451426212401e-06 0.0000000000000000e+00  -2.7290531830550803e-04 1.5014271313720928e-05 0.0000000000000000e+00  0.0000000000000000e+00 0.0000000000000000e+00 0.0000000000000000e+00  -1.4321079736194839e-05 -6.5597764220827285e-07 0.0000000000000000e+00  -2.9102128389204220e-05 -1.3243807601956767e-06 0.0000000000000000e+00  -4.4810531978133304e-05 -2.0162333347341771e-06 0.0000000000000000e+00  -6.1918296328664391e-05 -2.7388227233176830e-06 0.0000000000000000e+00  -8.0898687255762794e-05 -3.4926892304048023e-06 0.0000000000000000e+00  -1.0221441533922129e-04 -4.2670009062907624e-06 0.0000000000000000e+00  -1.2629241973848254e-04 -5.0324128851100011e-06 0.0000000000000000e+00  -1.5347841438497205e-04 -5.7302221246991833e-06 0.0000000000000000e+00  -1.8396224145396348e-04 -6.2563985570959854e-06 0.0000000000000000e+00  -2.1766350255955733e-04 -6.4392229646972911e-06 0.0000000000000000e+00  -2.5406771479216032e-04 -6.0105708672554431e-06 0.0000000000000000e+00  -2.9200983070543595e-04 -4.5750048161824796e-06 0.0000000000000000e+00  -3.2941947585051558e-04 -1.5907311152619974e-06 0.0000000000000000e+00  -3.6307416063489467e-04 3.6039877363232126e-06 0.0000000000000000e+00  -3.8844195312382531e-04 1.1654789335269758e-05 0.0000000000000000e+00  -3.9967816722958255e-04 2.2849241340537779e-05 0.0000000000000000e+00  0.0000000000000000e+00 0.0000000000000000e+00 0.0000000000000000e+00  -1.5611788650745356e-05 -7.4650849238392813e-07 0.0000000000000000e+00  -3.1772755563413261e-05 -1.5131263589020163e-06 0.0000000000000000e+00  -4.9046587340640673e-05 -2.3191889251291837e-06 0.0000000000000000e+00  -6.8018722339784854e-05 -3.1815875154092468e-06 0.0000000000000000e+00  -8.9303089131978337e-05 -4.1123053972698804e-06 0.0000000000000000e+00  -1.1354203584511020e-04 -5.1140575198194964e-06 0.0000000000000000e+00  -1.4139445356878551e-04 -6.1726970346400497e-06 0.0000000000000000e+00  -1.7350423680748031e-04 -7.2442817640413324e-06 0.0000000000000000e+00  -2.1043723414549504e-04 -8.2335761366931754e-06 0.0000000000000000e+00  -2.5256998695836536e-04 -8.9593815104022189e-06 0.0000000000000000e+00  -2.9990921788690552e-04 -9.1010323155476578e-06 0.0000000000000000e+00  -3.5182093759770594e-04 -8.1216281172185689e-06 0.0000000000000000e+00  -4.0665935110971094e-04 -5.1720203749926584e-06 0.0000000000000000e+00  -4.6131654786133689e-04 9.9525354051095341e-07 0.0000000000000000e+00  -5.1075730973934922e-04 1.2019677580335738e-05 0.0000000000000000e+00  -5.4759673581975562e-04 2.9674048173565696e-05 0.0000000000000000e+00  0.0000000000000000e+00 0.0000000000000000e+00 0.0000000000000000e+00  -1.6358427820610920e-05 -8.1700090249998583e-07 0.0000000000000000e+00  -3.3344946264145394e-05 -1.6628205868399968e-06 0.0000000000000000e+00  -5.1610416959611758e-05 -2.5665411757125994e-06 0.0000000000000000e+00  -7.1848487409305754e-05 -3.5571049362671363e-06 0.0000000000000000e+00  -9.4815645084252528e-05 -4.6622104961153040e-06 0.0000000000000000e+00  -1.2134791414851455e-04 -5.9054701925602809e-06 0.0000000000000000e+00  -1.5237004513187860e-04 -7.3002936025647555e-06 0.0000000000000000e+00  -1.8888929121111935e-04 -8.8377291187655112e-06 0.0000000000000000e+00  -2.3195966099828571e-04 -1.0463326561109571e-05 0.0000000000000000e+00  -2.8259301514242701e-04 -1.2034438646544143e-05 0.0000000000000000e+00  -3.4158049131929576e-04 -1.3243762787941923e-05 0.0000000000000000e+00  -4.0917464443413545e-04 -1.3487869387809758e-05 0.0000000000000000e+00  -4.8458048752399364e-04 -1.1655631381070545e-05 0.0000000000000000e+00  -5.6523614905068303e-04 -5.8266171961076684e-06 0.0000000000000000e+00  -6.4595370680830102e-04 7.0630802568277864e-06 0.0000000000000000e+00  -7.1807476990035427e-04 3.1387168269446821e-05 0.0000000000000000e+00  0.0000000000000000e+00 0.0000000000000000e+00 0.0000000000000000e+00  -1.6484549416857672e-05 -8.5889556031547820e-07 0.0000000000000000e+00  -3.3655899151143110e-05 -1.7552497223358925e-06 0.0000000000000000e+00  -5.2232141722292875e-05 -2.7281446112538167e-06 0.0000000000000000e+00  -7.2996845195136674e-05 -3.8196798742731788e-06 0.0000000000000000e+00  -9.6834569275328620e-05 -5.0760468370272479e-06 0.0000000000000000e+00  -1.2476857330278926e-04 -6.5476442969460862e-06 0.0000000000000000e+00  -1.5799891231473042e-04 -8.2869935538039641e-06 0.0000000000000000e+00  -1.9793519478572872e-04 -1.0341820341144303e-05 0.0000000000000000e+00  -2.4621056032925968e-04 -1.2737839652244489e-05 0.0000000000000000e+00  -3.0464913656002386e-04 -1.5440064300094852e-05 0.0000000000000000e+00  -3.7513483385004181e-04 -1.8270168545614581e-05 0.0000000000000000e+00  -4.5929327104970974e-04 -2.0736277828183402e-05 0.0000000000000000e+00  -5.5786117043754157e-04 -2.1696752508189405e-05 0.0000000000000000e+00  -6.6962610926272071e-04 -1.8741173408908925e-05 0.0000000000000000e+00  -7.8998834329026409e-04 -7.1954077520396893e-06 0.0000000000000000e+00  -9.0960459377441045e-04 2.1108531879865467e-05 0.0000000000000000e+00  0.0000000000000000e+00 0.0000000000000000e+00 0.0000000000000000e+00  -1.5934358419640894e-05 -8.6375946553787716e-07 0.0000000000000000e+00  -3.2583522077263490e-05 -1.7720983217960800e-06 0.0000000000000000e+00  -5.0701080300358473e-05 -2.7726887010160069e-06 0.0000000000000000e+00  -7.1127087202336943e-05 -3.9197518418822943e-06 0.0000000000000000e+00  -9.4839181601094356e-05 -5.2778436909539518e-06 0.0000000000000000e+00  -1.2301331215137525e-04 -6.9260804506253192e-06 0.0000000000000000e+00  -1.5709651709080893e-04 -8.9624875821813813e-06 0.0000000000000000e+00  -1.9889169496341275e-04 -1.1507225448718769e-05 0.0000000000000000e+00  -2.5064750042981770e-04 -1.4701128191392282e-05 0.0000000000000000e+00  -3.1513035303383009e-04 -1.8690282751031382e-05 0.0000000000000000e+00  -3.9562067763946191e-04 -2.3573332067589103e-05 0.0000000000000000e+00  -4.9570735873076695e-04 -2.9253857733396918e-05 0.0000000000000000e+00  -6.1864147237687889e-04 -3.5058917529810920e-05 0.0000000000000000e+00  -7.6589423619135221e-04 -3.8813024089906904e-05 0.0000000000000000e+00  -9.3471056012895131e-04 -3.4818609347907789e-05 0.0000000000000000e+00  -1.1154008970802641e-03 -1.0376345449391483e-05 0.0000000000000000e+00  0.0000000000000000e+00 0.0000000000000000e+00 0.0000000000000000e+00  -1.4682754370985376e-05 -8.2470306460844686e-07 0.0000000000000000e+00  -3.0068126017927688e-05 -1.6980116011363184e-06 0.0000000000000000e+00  -4.6902433220437272e-05 -2.6728842140127186e-06 0.0000000000000000e+00  -6.6033557133224411e-05 -3.8119703376117547e-06 0.0000000000000000e+00  -8.8474843278772813e-05 -5.1940446593508081e-06 0.0000000000000000e+00  -1.1548677211907473e-04 -6.9225950572108601e-06 0.0000000000000000e+00  -1.4868477560303986e-04 -9.1376578557894312e-06 0.0000000000000000e+00  -1.9018269352170944e-04 -1.2032204966187161e-05 0.0000000000000000e+00  -2.4277985590856997e-04 -1.5874213900725509e-05 0.0000000000000000e+00  -3.1018965713697531e-04 -2.1033728848879365e-05 0.0000000000000000e+00  -3.9727384898754527e-04 -2.8006415950030505e-05 0.0000000000000000e+00  -5.1015525336465595e-04 -3.7396448903455544e-05 0.0000000000000000e+00  -6.5586248913786238e-04 -4.9720799167053644e-05 0.0000000000000000e+00  -8.4072592964630152e-04 -6.4554322825289577e-05 0.0000000000000000e+00  -1.0663982193632928e-03 -7.7518413504905622e-05 0.0000000000000000e+00  -1.3246199496949496e-03 -7.2551536141481218e-05 0.0000000000000000e+00  0.0000000000000000e+00 0.0000000000000000e+00 0.0000000000000000e+00  -1.2744285501787619e-05 -7.3790990488970201e-07 0.0000000000000000e+00  -2.6132267679187914e-05 -1.5239961183125400e-06 0.0000000000000000e+00  -4.0852159113332056e-05 -2.4114925261948594e-06 0.0000000000000000e+00  -5.7698647005036348e-05 -3.4652028472692702e-06 0.0000000000000000e+00  -7.7643212350477861e-05 -4.7697399210601865e-06 0.0000000000000000e+00  -1.0192901022450047e-04 -6.4413758698355458e-06 0.0000000000000000e+00  -1.3220494766486260e-04 -8.6459759432001433e-06 0.0000000000000000e+00  -1.7072024813748337e-04 -1.1627080179205959e-05 0.0000000000000000e+00  -2.2060958966849711e-04 -1.5751049418597868e-05 0.0000000000000000e+00  -2.8630694822829277e-04 -2.1581312123928248e-05 0.0000000000000000e+00  -3.7412082834630580e-04 -3.0002528613858203e-05 0.0000000000000000e+00  -4.9294070577880192e-04 -4.2426908340547320e-05 0.0000000000000000e+00  -6.5478613048724338e-04 -6.1104154240279243e-05 0.0000000000000000e+00  -8.7403852715340052e-04 -8.9336471908450630e-05 0.0000000000000000e+00  -1.1616503813667801e-03 -1.2970844829742723e-04 0.0000000000000000e+00  -1.5134168431850349e-03 -1.6748391515448622e-04 0.0000000000000000e+00  0.0000000000000000e+00 0.0000000000000000e+00 0.0000000000000000e+00  -1.0179204191274639e-05 -6.0394988227792310e-07 0.0000000000000000e+00  -2.0894763357445289e-05 -1.2504213999535045e-06 0.0000000000000000e+00  -3.2723176030662152e-05 -1.9868768977179578e-06 0.0000000000000000e+00  -4.6338911375491713e-05 -2.8722683315993936e-06 0.0000000000000000e+00  -6.2581586811548317e-05 -3.9855482662176262e-06 0.0000000000000000e+00  -8.2550406395984384e-05 -5.4383824446875965e-06 0.0000000000000000e+00  -1.0774456833624045e-04 -7.3952093428502764e-06 0.0000000000000000e+00  -1.4028038100061146e-04 -1.0106163369375044e-05 0.0000000000000000e+00  -1.8323674812366464e-04 -1.3963071357083940e-05 0.0000000000000000e+00  -2.4121587924953185e-04 -1.9598657372634251e-05 0.0000000000000000e+00  -3.2126026327910893e-04 -2.8072104331430676e-05 0.0000000000000000e+00  -4.3432884220890005e-04 -4.1243177047318610e-05 0.0000000000000000e+00  -5.9750805215918665e-04 -6.2601312626715211e-05 0.0000000000000000e+00  -8.3652026373080314e-04 -9.9281391570382971e-05 0.0000000000000000e+00  -1.1840354200567209e-03 -1.6715408747911917e-04 0.0000000000000000e+00  -1.6300710953720413e-03 -3.0057453154264861e-04 0.0000000000000000e+00  0.0000000000000000e+00 0.0000000000000000e+00 0.0000000000000000e+00  -7.0948585783401616e-06 -4.2851696318497704e-07 0.0000000000000000e+00  -1.4574822918256964e-05 -8.8878529369442300e-07 0.0000000000000000e+00  -2.2855400430635750e-05 -1.4164795065776385e-06 0.0000000000000000e+00  -3.2427312397960331e-05 -2.0564862759586909e-06 0.0000000000000000e+00  -4.3909461930562739e-05 -2.8698695020735224e-06 0.0000000000000000e+00  -5.8125585786667352e-05 -3.9444519339982903e-06 0.0000000000000000e+00  -7.6222391759545502e-05 -5.4117537852077805e-06 0.0000000000000000e+00  -9.9860685030118238e-05 -7.4750384297486475e-06 0.0000000000000000e+00  -1.3153781185666478e-04 -1.0456942737006340e-05 0.0000000000000000e+00  -1.7515343827744580e-04 -1.4882307880452712e-05 0.0000000000000000e+00  -2.3704012394047447e-04 -2.1626812853443910e-05 0.0000000000000000e+00  -3.2790451962135442e-04 -3.2200776803470876e-05 0.0000000000000000e+00  -4.6658014864003775e-04 -4.9373923314854230e-05 0.0000000000000000e+00  -6.8742724424115736e-04 -7.8960078623756393e-05 0.0000000000000000e+00  -1.0557229094797823e-03 -1.3658051550397991e-04 0.0000000000000000e+00  -1.7092275727591524e-03 -2.7708724554040059e-04 0.0000000000000000e+00  0.0000000000000000e+00 0.0000000000000000e+00 0.0000000000000000e+00  -3.6411741148039862e-06 -2.2231446836875208e-07 0.0000000000000000e+00  -7.4832621239283921e-06 -4.6157586970479164e-07 0.0000000000000000e+00  -1.1743485605583086e-05 -7.3688992837877035e-07 0.0000000000000000e+00  -1.6679740624870810e-05 -1.0724563852584265e-06 0.0000000000000000e+00  -2.2619672748414127e-05 -1.5014499717761656e-06 0.0000000000000000e+00  -3.0003445275835613e-05 -2.0719407869502760e-06 0.0000000000000000e+00  -3.9451020160277302e-05 -2.8563559196925157e-06 0.0000000000000000e+00  -5.1873879564241491e-05 -3.9669250237789433e-06 0.0000000000000000e+00  -6.8669967695579243e-05 -5.5808138295638360e-06 0.0000000000000000e+00  -9.2081045503779999e-05 -7.9791035683258644e-06 0.0000000000000000e+00  -1.2588060506488679e-04 -1.1596968976703359e-05 0.0000000000000000e+00  -1.7675389224563494e-04 -1.7037853522915180e-05 0.0000000000000000e+00  -2.5709115710952676e-04 -2.4788086605007163e-05 0.0000000000000000e+00  -3.9003314242412666e-04 -3.3448594670877003e-05 0.0000000000000000e+00  -6.1289908694770834e-04 -3.2336565843377372e-05 0.0000000000000000e+00  -9.4300574053141528e-04 1.5117475520894367e-05 0.0000000000000000e+00  0.0000000000000000e+00 0.0000000000000000e+00 0.0000000000000000e+00  0.0000000000000000e+00 0.0000000000000000e+00 0.0000000000000000e+00  0.0000000000000000e+00 0.0000000000000000e+00 0.0000000000000000e+00  0.0000000000000000e+00 0.0000000000000000e+00 0.0000000000000000e+00  0.0000000000000000e+00 0.0000000000000000e+00 0.0000000000000000e+00  0.0000000000000000e+00 0.0000000000000000e+00 0.00