<?xml version="1.0"?>
<VTKFile type="UnstructuredGrid"  version="0.1"  >
<UnstructuredGrid>
<Piece  NumberOfPoints="289" NumberOfCells="512">
<Points>
<DataArray  type="Float64"  NumberOfComponents="3"  format="ascii">0 0 0  0.0625 0 0  0.125 0 0  0.1875 0 0  0.25 0 0  0.3125 0 0  0.375 0 0  0.4375 0 0  0.5 0 0  0.5625 0 0  0.625 0 0  0.6875 0 0  0.75 0 0  0.8125 0 0  0.875 0 0  0.9375 0 0  1 0 0  0 0.0625 0  0.06259314596357449 0.06247896269905222 0  0.1251892300176739 0.06245749803059492 0  0.1877912662290891 0.06243520111105991 0  0.2504023369459242 0.06241173049579987 0  0.3130256177776677 0.06238685096467555 0  0.375664392156963 0.06236048897150676 0  0.4383220609797633 0.06233280233117622 0  0.5010021706965332 0.06230426121970836 0  0.5637085283164899 0.06227572848319816 0  0.6264455870052453 0.0622485100240673 0  0.689219591793735 0.06222431412878656 0  0.7520418287329973 0.06220499701062591 0  0.8149378258154975 0.06219183368399846 0  0.8779739874543988 0.06218366142178931 0  0.9413368448314695 0.06217196003987104 0  1.005572479075995 0.06212839247975346 0  0 0.125 0  0.06268340770225915 0.1249583370515683 0  0.1253726871877159 0.1249157871276361 0  0.1880738705343209 0.1248715040916901 0  0.2507931521331512 0.124824759503189 0  0.3135369536178159 0.124775024718317 0  0.376311968505586 0.124722080680496 0  0.4391251920266918 0.124666161254902 0  0.5019839650072272 0.1246081291714663 0  0.5648961150918144 0.1245496691229302 0  0.627870399256606 0.124493454831985 0  0.6909177053675253 0.1244431998185875 0  0.7540539521602951 0.1244034372165286 0  0.8173062954150855 0.1243788461422964 0  0.880723921724876 0.124373250494372 0  0.9443865426455114 0.1243903982578249 0  1.008359824276137 0.1244470928187481 0  0 0.1875 0  0.06276783657859915 0.187438589810739 0  0.1255444270013538 0.187375775825435 0  0.1883387777107996 0.1873102050100889 0  0.2511601842309588 0.1872406770939978 0  0.3140183531413843 0.187166257584981 0  0.3769234912535075 0.187086436644938 0  0.4398863571202998 0.1870013483635297 0  0.5029182820116029 0.1869120597710727 0  0.5660311920463686 0.1868209247326613 0  0.6292377019329995 0.1867319659674811 0  0.6925513787893912 0.1866511833909977 0  0.7559871573453663 0.1865865583063225 0  0.8195611327969534 0.1865472506709661 0  0.8832861497723052 0.1865407756174038 0  0.9471520039714741 0.1865645077313366 0  1.011067547455728 0.1865781206022541 0  0 0.25 0  0.06284355085819431 0.2499202438133739 0  0.1256986226070845 0.2498384945798285 0  0.1885770881989261 0.2497528069296586 0  0.2514912756584302 0.2496613930667452 0  0.3144541696343263 0.2495627513270071 0  0.3774795693686639 0.2494558603864307 0  0.4405821833089265 0.2493404669091937 0  0.503777634196945 0.2492174960357663 0  0.5670823330761898 0.2490896092766245 0  0.6305131346112428 0.2489619136898049 0  0.6940865463327957 0.2488427711946748 0  0.7578168706035615 0.2487445319580279 0  0.8217116743881275 0.2486837555758161 0  0.8857609621103208 0.2486799947146552 0  0.9499137888016738 0.248751577932932 0  1.014037744902359 0.2489078354584045 0  0 0.3125 0  0.06290779285740487 0.3124038922398161 0  0.1258296759744791 0.3123051295421544 0  0.188780196575534 0.3122010842556859 0  0.2517745662474017 0.3120892498870255 0  0.3148289711411455 0.3119673611846747 0  0.3779608383757457 0.3118335969127944 0  0.4411890297759768 0.311686908769585 0  0.5045339144460195 0.3115275333695547 0  0.5680172315498226 0.3113577585567924 0  0.6316615676099302 0.3111830240388743 0  0.6954890831503512 0.3110134235028351 0  0.759518735651969 0.3108656070281311 0  0.8237605640862896 0.3107648979740619 0  0.8882047954025638 0.3107470642364442 0  0.9528039102682829 0.3108586430533289 0  1.01745139198073 0.3111543537823651 0  0 0.375 0  0.06295800484791074 0.3748901978842507 0  0.1259323679671019 0.3747770260073651 0  0.1889400113109404 0.3746571012773547 0  0.2519987714597637 0.374527075858232 0  0.3151278503849884 0.3743837161882104 0  0.3783482406036842 0.374224072191757 0  0.44168310093639 0.3740457935254584 0  0.5051580388817237 0.3738476777805957 0  0.5688012171660874 0.3736305761861528 0  0.6326431262233022 0.3733988361536107 0  0.6967157174216033 0.373162519526565 0  0.7610503321734735 0.3729406709832132 0  0.825673498130059 0.3727658456277848 0  0.89059945113659 0.3726897909223272 0  0.9558190983105587 0.3727894412173156 0  1.02128889154234 0.3731712231904506 0  0 0.4375 0  0.06299192782392918 0.4373798727294146 0  0.1260020570870033 0.4372556509073794 0  0.1890492551269912 0.4371231657391102 0  0.2521535826885871 0.4369781464434065 0  0.3153369119855552 0.4368162201681232 0  0.3786235582613323 0.436632992498882 0  0.4420409230102946 0.436424270000156 0  0.5056201409193344 0.4361865271783484 0  0.5693967141593541 0.4359177876453893 0  0.6334111036139376 0.4356191960382444 0  0.6977092187347758 0.4352977153306305 0  0.7623426934329123 0.4349705860479657 0  0.8273687583415952 0.4346723510748911 0  0.8928495211956369 0.4344651349536161 0  0.9588509539703585 0.4344520071826429 0  1.025443953421166 0.4347914526003728 0  0 0.5 0  0.06300772351302027 0.4998736347371836 0  0.1260349291933923 0.4997425065477179 0  0.189101853919135 0.4996017012477274 0  0.2522302112401639 0.4994460224178521 0  0.3154439886186964 0.4992698755633999 0  0.3787703137501013 0.4990672005608244 0  0.4422404229060995 0.4988315031052974 0  0.5058907836457688 0.498556081680314 0  0.5697644698127591 0.4982346303089838 0  0.633912983409974 0.4978625482481344 0  0.6983989019629315 0.497439552040757 0  0.7633000356915868 0.4969746178782378 0  0.8287161955266595 0.4964948791888236 0  0.8947800835689931 0.4960605537976902 0  0.9616741140350856 0.4957870872819341 0  1.029656302321002 0.4958709981542189 0  0 0.5625 0  0.06300411424318161 0.5623721419423015 0  0.1260282882023735 0.5622389941961559 0  0.1890934013127623 0.562095031912566 0  0.252222063528836 0.5619342456297415 0  0.3154395807869606 0.5617498843512985 0  0.3787750515126354 0.5615341915328788 0  0.4422626649192323 0.561278154924605 0  0.5059433190403213 0.5609713276703616 0  0.5698667853266339 0.5606018541989662 0  0.6340948883331061 0.5601569929737112 0  0.6987066728398199 0.5596247572740368 0  0.7638074847446092 0.5589979657296972 0  0.8295454413015332 0.5582832692090045 0  0.8961406770610985 0.5575196614700016 0  0.9639340279545685 0.5568118882651827 0  1.033462153199548 0.5563772016587927 0  0 0.625 0  0.06298052849153146 0.624875908577094 0  0.1259808630541337 0.6247462361318914 0  0.1890216603834168 0.6246050894196804 0  0.2521254926448381 0.6244458988203481 0  0.3153179436905819 0.6242610171902765 0  0.3786288928169826 0.6240412406191542 0  0.4420940857512426 0.6237752255788203 0  0.5057571556303888 0.6234487873239052 0  0.5696724079765446 0.6230440993968639 0  0.6339090501060574 0.6225389138873332 0  0.6985584120230673 0.6219061928545775 0  0.7637476376043694 0.6211152686925666 0  0.829667186198532 0.6201375750400324 0  0.8966257270359724 0.618964653582325 0  0.9651521201666108 0.6176537859616246 0  1.036164280752603 0.616409693848327 0  0 0.6875 0  0.06293723368098407 0.6873852133372822 0  0.1258930926026241 0.6872648769059039 0  0.188887040547598 0.6871330746622317 0  0.2519405331362459 0.6869830728835608 0  0.3150781819821815 0.686806801983068 0  0.3783291485769435 0.6865941890450418 0  0.4417288803641947 0.6863322626946419 0  0.5053213560416272 0.6860039247886958 0  0.5691621412900859 0.6855862494312778 0  0.6333229216284019 0.6850481404465536 0  0.6978992086672083 0.6843472081048996 0  0.7630257640987764 0.6834260484472963 0  0.8289116922277154 0.6822097081366965 0  0.8959239372059097 0.6806130487151378 0  0.9647733430351497 0.678593664963243 0  1.036867933668024 0.6763321174698697 0  0 0.75 0  0.06287543373105582 0.7499000146945763 0  0.1257673411526637 0.749794895906215 0  0.1886929725028089 0.7496791279608677 0  0.2516715027265767 0.7495463250181799 0  0.3147251793712585 0.749388654845871 0  0.3778807242921658 0.7491960619036589 0  0.4411711016148857 0.7489551683111377 0  0.5046377890351187 0.7486476689561454 0  0.5683337348481908 0.7482479340348133 0  0.6323273298028705 0.7477193584688384 0  0.6967083264099778 0.7470086934632287 0  0.7615990876606842 0.7460370610084768 0  0.8271838465094214 0.7446855982848755 0  0.8938012968292007 0.7427744304147352 0  0.9622434334060309 0.7400532202772933 0  1.034411329536257 0.7364532442076369 0  0 0.8125 0  0.06279730838502859 0.8124198907214267 0  0.1256079958700358 0.8123354700053668 0  0.1884461013954906 0.8122420764558893 0  0.2513273524033155 0.8121342412557331 0  0.314270194705759 0.812005137028548 0  0.3772970789918682 0.8118458122394518 0  0.4404361146805807 0.8116440722290785 0  0.5037232012116819 0.8113827877824084 0  0.5672046898596583 0.8110372754534765 0  0.6309404285278389 0.8105711547260589 0  0.6950065819972754 0.8099296378567264 0  0.7594971315308919 0.8090282497253614 0  0.8245255104004174 0.8077326087482144 0  0.8902532350991262 0.805818637834431 0  0.9571370000300048 0.8028882524875497 0  1.027737699697735 0.7982096705691822 0  0 0.875 0  0.06270597519086672 0.8749440197722117 0  0.1254214044338299 0.8748849235276542 0  0.1881562285790045 0.8748193271175071 0  0.2509216616064955 0.8747432223217508 0  0.3137309871571131 0.8746515419375366 0  0.3766005820602314 0.8745375434121846 0  0.4395512753962714 0.8743918884106254 0  0.5026101569888013 0.8742012207716794 0  0.565812875709698 0.8739459189331016 0  0.6292061118176874 0.8735964895566968 0  0.6928486569799437 0.8731077186212578 0  0.7568056660664944 0.8724090108394611 0  0.8211198454216495 0.8713872687017129 0  0.885718294476781 0.8698492529187519 0  0.9501879411607509 0.8674050319636368 0  1.013595464447694 0.8630009481010652 0  0 0.9375 0  0.06260536326036813 0.9374712129315099 0  0.125215626974683 0.9374407912660091 0  0.1878359535591252 0.9374069549354199 0  0.2504721990012683 0.9373675835448416 0  0.3131313582256041 0.9373199761118605 0  0.3758221553032994 0.9372605061210675 0  0.4385558602731757 0.9371840986397586 
[...]
<PointData  Vectors="f_54"> 
<DataArray  type="Float64"  Name="f_54"  NumberOfComponents="3" format="ascii">0.0000000000000000e+00 0.0000000000000000e+00 0.0000000000000000e+00  0.0000000000000000e+00 0.0000000000000000e+00 0.0000000000000000e+00  0.0000000000000000e+00 0.0000000000000000e+00 0.0000000000000000e+00  0.0000000000000000e+00 0.0000000000000000e+00 0.0000000000000000e+00  0.0000000000000000e+00 0.0000000000000000e+00 0.0000000000000000e+00  0.0000000000000000e+00 0.0000000000000000e+00 0.0000000000000000e+00  0.0000000000000000e+00 0.0000000000000000e+00 0.0000000000000000e+00  0.0000000000000000e+00 0.0000000000000000e+00 0.0000000000000000e+00  0.0000000000000000e+00 0.0000000000000000e+00 0.0000000000000000e+00  0.0000000000000000e+00 0.0000000000000000e+00 0.0000000000000000e+00  0.0000000000000000e+00 0.0000000000000000e+00 0.0000000000000000e+00  0.0000000000000000e+00 0.0000000000000000e+00 0.0000000000000000e+00  0.0000000000000000e+00 0.0000000000000000e+00 0.0000000000000000e+00  0.0000000000000000e+00 0.0000000000000000e+00 0.0000000000000000e+00  0.0000000000000000e+00 0.0000000000000000e+00 0.0000000000000000e+00  0.0000000000000000e+00 0.0000000000000000e+00 0.0000000000000000e+00  0.0000000000000000e+00 0.0000000000000000e+00 0.0000000000000000e+00  0.0000000000000000e+00 0.0000000000000000e+00 0.0000000000000000e+00  2.9092845735560361e-06 -1.0093718126038266e-07 0.0000000000000000e+00  5.9279175825258983e-06 -2.0730525647589868e-07 0.0000000000000000e+00  9.1711875346961030e-06 -3.2496934925607352e-07 0.0000000000000000e+00  1.2762588167251947e-05 -4.6054580864173680e-07 0.0000000000000000e+00  1.6838478505619714e-05 -6.2181341896191612e-07 0.0000000000000000e+00  2.1553442487042773e-05 -8.1814752247637447e-07 0.0000000000000000e+00  2.7087034754093297e-05 -1.0609625546161997e-06 0.0000000000000000e+00  3.3653483092878171e-05 -1.3641408840054029e-06 0.0000000000000000e+00  4.1518233920508422e-05 -1.7444723397006238e-06 0.0000000000000000e+00  5.1031496430615609e-05 -2.2224040906398931e-06 0.0000000000000000e+00  6.2706700985385724e-05 -2.8245220542463832e-06 0.0000000000000000e+00  7.7425011670813673e-05 -3.5933638433521722e-06 0.0000000000000000e+00  9.7017016061992715e-05 -4.6256284746647362e-06 0.0000000000000000e+00  1.2605429613108985e-04 -6.2188764371414637e-06 0.0000000000000000e+00  1.7784288587258855e-04 -9.4461000388349555e-06 0.0000000000000000e+00  2.9676303228959208e-04 -1.8573044337739290e-05 0.0000000000000000e+00  0.0000000000000000e+00 0.0000000000000000e+00 0.0000000000000000e+00  5.7161799881291253e-06 -1.9669060041217868e-07 0.0000000000000000e+00  1.1648492864933422e-05 -4.0394282610803957e-07 0.0000000000000000e+00  1.8024731462101378e-05 -6.3317332625279322e-07 0.0000000000000000e+00  2.5089132790659643e-05 -8.9730397868066752e-07 0.0000000000000000e+00  3.3111608223068022e-05 -1.2116020662676193e-06 0.0000000000000000e+00  4.2398108905259441e-05 -1.5945860199242419e-06 0.0000000000000000e+00  5.3303011064622750e-05 -2.0689620483992422e-06 0.0000000000000000e+00  6.6245327499973443e-05 -2.6624924439586208e-06 0.0000000000000000e+00  8.1732774251582318e-05 -3.4086101608585779e-06 0.0000000000000000e+00  1.0040297262616482e-04 -4.3465140923741612e-06 0.0000000000000000e+00  1.2310302673820464e-04 -5.5204508035572870e-06 0.0000000000000000e+00  1.5105377759114317e-04 -6.9776854511930176e-06 0.0000000000000000e+00  1.8618606564920471e-04 -8.7616850430971771e-06 0.0000000000000000e+00  2.3173754167050316e-04 -1.0874165860460038e-05 0.0000000000000000e+00  2.9270925318552668e-04 -1.3040004074158400e-05 0.0000000000000000e+00  3.7204605048761318e-04 -1.3324842422886171e-05 0.0000000000000000e+00  0.0000000000000000e+00 0.0000000000000000e+00 0.0000000000000000e+00  8.3122282267628119e-06 -2.8208110937294998e-07 0.0000000000000000e+00  1.6940906835425745e-05 -5.7919412873864659e-07 0.0000000000000000e+00  2.6219283495858842e-05 -9.0760319175792935e-07 0.0000000000000000e+00  3.6505076816510655e-05 -1.2857993122408772e-06 0.0000000000000000e+00  4.8194034298037961e-05 -1.7357833195726626e-06 0.0000000000000000e+00  6.1734766435804961e-05 -2.2845039563823679e-06 0.0000000000000000e+00  7.7645425689434216e-05 -2.9654219286209522e-06 0.0000000000000000e+00  9.6532995965691474e-05 -3.8200424719580157e-06 0.0000000000000000e+00  1.1911629994704312e-04 -4.8989990063298414e-06 0.0000000000000000e+00  1.4625410366112527e-04 -6.2617467788133564e-06 0.0000000000000000e+00  1.7897834503500018e-04 -7.9728393464682944e-06 0.0000000000000000e+00  2.1852252185000339e-04 -1.0090380537095326e-05 0.0000000000000000e+00  2.6629041276151336e-04 -1.2636883070604795e-05 0.0000000000000000e+00  3.2354588394677429e-04 -1.5532338433427221e-05 0.0000000000000000e+00  3.9010011478200643e-04 -1.8466892529343309e-05 0.0000000000000000e+00  4.6015499612949790e-04 -2.0853819066851956e-05 0.0000000000000000e+00  0.0000000000000000e+00 0.0000000000000000e+00 0.0000000000000000e+00  1.0595997454312420e-05 -3.5261689922626936e-07 0.0000000000000000e+00  2.1598463444011109e-05 -7.2373542900699759e-07 0.0000000000000000e+00  3.3434938920676375e-05 -1.1333852113091914e-06 0.0000000000000000e+00  4.6565103518917951e-05 -1.6044508895545248e-06 0.0000000000000000e+00  6.1498467698258038e-05 -2.1643875355214769e-06 0.0000000000000000e+00  7.8813474192578967e-05 -2.8472508773316607e-06 0.0000000000000000e+00  9.9178174258837914e-05 -3.6960888949213129e-06 0.0000000000000000e+00  1.2337203193936132e-04 -4.7656104943408019e-06 0.0000000000000000e+00  1.5230692054851096e-04 -6.1247311414588989e-06 0.0000000000000000e+00  1.8704169859820285e-04 -7.8578815075169422e-06 0.0000000000000000e+00  2.2877556011750009e-04 -1.0062424410597394e-05 0.0000000000000000e+00  2.7878251198885251e-04 -1.2836346087843683e-05 0.0000000000000000e+00  3.3819494165290674e-04 -1.6244256330182743e-05 0.0000000000000000e+00  4.0742864596944763e-04 -2.0239325990419785e-05 0.0000000000000000e+00  4.8486057490412419e-04 -2.4504680469500681e-05 0.0000000000000000e+00  5.6436232301290332e-04 -2.8153534746527305e-05 0.0000000000000000e+00  0.0000000000000000e+00 0.0000000000000000e+00 0.0000000000000000e+00  1.2477091243006216e-05 -4.0483660875261635e-07 0.0000000000000000e+00  2.5436689397863271e-05 -8.3035468475001789e-07 0.0000000000000000e+00  3.9385574817997647e-05 -1.2989325151483041e-06 0.0000000000000000e+00  5.4869813850921313e-05 -1.8362442169985601e-06 0.0000000000000000e+00  7.2496472739799352e-05 -2.4733365947675216e-06 0.0000000000000000e+00  9.2957221868417015e-05 -3.2492415359853612e-06 0.0000000000000000e+00  1.1705397150757376e-04 -4.2143351011539209e-06 0.0000000000000000e+00  1.4572572445211064e-04 -5.4346244675867494e-06 0.0000000000000000e+00  1.8007365063230679e-04 -6.9969802424712267e-06 0.0000000000000000e+00  2.2137660563097399e-04 -9.0148330076005477e-06 0.0000000000000000e+00  2.7107924460945609e-04 -1.1632597362218296e-05 0.0000000000000000e+00  3.3071491493163937e-04 -1.5024266306294981e-05 0.0000000000000000e+00  4.0169012379016769e-04 -1.9375892451891735e-05 0.0000000000000000e+00  4.8480945904505143e-04 -2.4831359254667095e-05 0.0000000000000000e+00  5.7940643122227076e-04 -3.1365209828979897e-05 0.0000000000000000e+00  6.8213851956150525e-04 -3.8529266221338529e-05 0.0000000000000000e+00  0.0000000000000000e+00 0.0000000000000000e+00 0.0000000000000000e+00  1.3879920240197397e-05 -4.3659551082347479e-07 0.0000000000000000e+00  2.8300973912294127e-05 -8.9456732323382929e-07 0.0000000000000000e+00  4.3830520822095370e-05 -1.3969839075455048e-06 0.0000000000000000e+00  6.1081511251659910e-05 -1.9703469047277990e-06 0.0000000000000000e+00  8.0738017119624835e-05 -2.6468594716826226e-06 0.0000000000000000e+00  1.0358365152238745e-04 -3.4674535505801736e-06 0.0000000000000000e+00  1.3053358990257956e-04 -4.4860077781828845e-06 0.0000000000000000e+00  1.6267024921299002e-04 -5.7753560507400055e-06 0.0000000000000000e+00  2.0128109167952919e-04 -7.4358888922276132e-06 0.0000000000000000e+00  2.4789356642760085e-04 -9.6077073301828859e-06 0.0000000000000000e+00  3.0429542310926301e-04 -1.2487161172046493e-05 0.0000000000000000e+00  3.7251697300385640e-04 -1.6347581279850189e-05 0.0000000000000000e+00  4.5473624929084661e-04 -2.1560766867139638e-05 0.0000000000000000e+00  5.5306019663258995e-04 -2.8607849812250239e-05 0.0000000000000000e+00  6.6917634446549904e-04 -3.8052017261048013e-05 0.0000000000000000e+00  8.0404807230701663e-04 -5.0418511154497416e-05 0.0000000000000000e+00  0.0000000000000000e+00 0.0000000000000000e+00 0.0000000000000000e+00  1.4747121486852375e-05 -4.4725188083935806e-07 0.0000000000000000e+00  3.0073572773561265e-05 -9.1503915989685329e-07 0.0000000000000000e+00  4.6585471020017432e-05 -1.4253782734763561e-06 0.0000000000000000e+00  6.4939436633887733e-05 -2.0034475484155826e-06 0.0000000000000000e+00  8.5871370442483077e-05 -2.6797644150309332e-06 0.0000000000000000e+00  1.1022950295343176e-04 -3.4932476379911469e-06 0.0000000000000000e+00  1.3901350365648122e-04 -4.4957858532026091e-06 0.0000000000000000e+00  1.7342161481121159e-04 -5.7593330989370561e-06 0.0000000000000000e+00  2.1490773943235627e-04 -7.3872334493952839e-06 0.0000000000000000e+00  2.6524983795404275e-04 -9.5326079394192306e-06 0.0000000000000000e+00  3.2662944179908700e-04 -1.2428427526113687e-05 0.0000000000000000e+00  4.0171958830979257e-04 -1.6436480290843294e-05 0.0000000000000000e+00  4.9377768284101457e-04 -2.2125502616230790e-05 0.0000000000000000e+00  6.0675249376858820e-04 -3.0390765410417497e-05 0.0000000000000000e+00  7.4547571673530555e-04 -4.2625360736771434e-05 0.0000000000000000e+00  9.1619534039723760e-04 -6.0947901635019038e-05 0.0000000000000000e+00  0.0000000000000000e+00 0.0000000000000000e+00 0.0000000000000000e+00  1.5042449593717291e-05 -4.3770529924528043e-07 0.0000000000000000e+00  3.0679647598199725e-05 -8.9370500412911181e-07 0.0000000000000000e+00  4.7532217667730037e-05 -1.3873565643201111e-06 0.0000000000000000e+00  6.6274106726587633e-05 -1.9404551574827543e-06 0.0000000000000000e+00  8.7663451512191070e-05 -2.5789594105769778e-06 0.0000000000000000e+00  1.1257909112869078e-04 -3.3355263606414144e-06 0.0000000000000000e+00  1.4206575329545553e-04 -4.2535209549867633e-06 0.0000000000000000e+00  1.7739222472023711e-04 -5.3937130468354326e-06 0.0000000000000000e+00  2.2012886130824528e-04 -6.8459297787332597e-06 0.0000000000000000e+00  2.7225399277670456e-04 -8.7499697750535844e-06 0.0000000000000000e+00  3.3630370009151030e-04 -1.1334015542654134e-05 0.0000000000000000e+00  4.1558704145454707e-04 -1.4986245344192037e-05 0.0000000000000000e+00  5.1450148833114364e-04 -2.0389061703787629e-05 0.0000000000000000e+00  6.3901011192716434e-04 -2.8769341577088099e-05 0.0000000000000000e+00  7.9741752129321695e-04 -4.2359350280759041e-05 0.0000000000000000e+00  1.0018198494572887e-03 -6.5249062841507319e-05 0.0000000000000000e+00  0.0000000000000000e+00 0.0000000000000000e+00 0.0000000000000000e+00  1.4752885776621600e-05 -4.1024802369561065e-07 0.0000000000000000e+00  3.0091799182863865e-05 -8.3548459378173761e-07 0.0000000000000000e+00  4.6626301975883728e-05 -1.2911840779015268e-06 0.0000000000000000e+00  6.5019353018310299e-05 -1.7941450083045229e-06 0.0000000000000000e+00  8.6018492802180399e-05 -2.3634163508283753e-06 0.0000000000000000e+00  1.1049352035045111e-04 -3.0217027422492248e-06 0.0000000000000000e+00  1.3948462639352201e-04 -3.7977263441712247e-06 0.0000000000000000e+00  1.7426725075736266e-04 -4.7305143069119469e-06 0.0000000000000000e+00  2.1644404916372348e-04 -5.8776246134311047e-06 0.0000000000000000e+00  2.6808164332032527e-04 -7.3315833089372947e-06 0.0000000000000000e+00  3.3192246456474937e-04 -9.2537925234009307e-06 0.0000000000000000e+00  4.1172302550304929e-04 -1.1946305626361486e-05 0.0000000000000000e+00  5.1280276041660677e-04 -1.6006704457404132e-05 0.0000000000000000e+00  6.4293643616739646e-04 -2.2665383677734112e-05 0.0000000000000000e+00  8.1381145173780700e-04 -3.4516753752286348e-05 0.0000000000000000e+00  1.0435508847298964e-03 -5.7086100021570381e-05 0.0000000000000000e+00  0.0000000000000000e+00 0.0000000000000000e+00 0.0000000000000000e+00  1.3889670670653759e-05 -3.6821973324611827e-07 0.0000000000000000e+00  2.8332422944998722e-05 -7.4755848791970448e-07 0.0000000000000000e+00  4.3901331961769880e-05 -1.1489821838338264e-06 0.0000000000000000e+00  6.1219843618919918e-05 -1.5834663757011553e-06 0.0000000000000000e+00  8.0991114009014575e-05 -2.0619099415889035e-06 0.0000000000000000e+00  1.0403372185337018e-04 -2.5949918699228007e-06 0.0000000000000000e+00  1.3132789333740837e-04 -3.1930380895001744e-06 0.0000000000000000e+00  1.6407918991299348e-04 -3.8661512245944397e-06 0.0000000000000000e+00  2.0381204581483824e-04 -4.6253415174622099e-06 0.0000000000000000e+00  2.5251614594936955e-04 -5.4866733936970927e-06 0.0000000000000000e+00  3.1288929570618773e-04 -6.4838725530384499e-06 0.0000000000000000e+00  3.8875984299595860e-04 -7.7043132715860888e-06 0.0000000000000000e+00  4.8584253976185116e-04 -9.3900166605697471e-06 0.0000000000000000e+00  6.1309241912292374e-04 -1.2220336362330253e-05 0.0000000000000000e+00  7.8505086993168715e-04 -1.8092505360833712e-05 0.0000000000000000e+00  1.0257648393202183e-03 -3.2189289990658365e-05 0.0000000000000000e+00  0.0000000000000000e+00 0.0000000000000000e+00 0.0000000000000000e+00  1.2488012487064520e-05 -3.1550178555945653e-07 0.0000000000000000e+00  2.5473285041036450e-05 -6.3827127071509196e-07 0.0000000000000000e+00  3.9468763669995082e-05 -9.7485205071200795e-07 0.0000000000000000e+00  5.5031782783321346e-05 -1.3305629150884009e-06 0.0000000000000000e+00  7.2789447964756161e-05 -1.7084244374532160e-06 0.0000000000000000e+00  9.3469161741282161e-05 -2.1074437621361390e-06 0.0000000000000000e+00  1.1793758876319477e-04 -2.5198251205928520e-06 0.0000000000000000e+00  1.4725376273683744e-04 -2.9264108861757440e-06 0.0000000000000000e+00  1.8274711077481240e-04 -3.2892055401486085e-06 0.0000000000000000e+00  2.2614228655333559e-04 -3.5390901165158815e-06 0.0000000000000000e+00  2.7977780986439705e-04 -3.5558123727994292e-06 0.0000000000000000e+00  3.4702306351200090e-04 -3.1370481683919188e-06 0.0000000000000000e+00  4.3312840401995271e-04 -1.9601117240320465e-06 0.0000000000000000e+00  5.4701483052780079e-04 4.1529166325933063e-07 0.0000000000000000e+00  7.0491055767211682e-04 4.2476834842608013e-06 0.0000000000000000e+00  9.3667343086832806e-04 8.1851995933139821e-06 0.0000000000000000e+00  0.0000000000000000e+00 0.0000000000000000e+00 0.0000000000000000e+00  1.0605368768794505e-05 -2.5593671355173486e-07 0.0000000000000000e+00  2.1632034124204085e-05 -5.1584864925847176e-07 0.0000000000000000e+00  3.3512483549302562e-05 -7.8261074370460683e-07 0.0000000000000000e+00  4.6715340035552723e-05 -1.0570124938462453e-06 0.0000000000000000e+00  6.1765253996005993e-05 -1.3359896936616560e-06 0.0000000000000000e+00  7.9265893828732486e-05 -1.6097860220033887e-06 0.0000000000000000e+00  9.9927620274730417e-05 -1.8572343603646963e-06 0.0000000000000000e+00  1.2460241120211318e-04 -2.0377272939158326e-06 0.0000000000000000e+00  1.5433101634609783e-04 -2.0772051720401819e-06 0.0000000000000000e+00  1.9041386444402884e-04 -1.8428750043563971e-06 0.0000000000000000e+00  2.3453616600695417e-04 -1.0955393387639086e-06 0.0000000000000000e+00  2.8903433831361348e-04 6.0522351375409978e-07 0.0000000000000000e+00  3.5756291541062606e-04 4.1000231215462990e-06 0.0000000000000000e+00  4.4693845787882987e-04 1.1058471205188227e-05 0.0000000000000000e+00  5.7238098444737490e-04 2.4807097353031928e-05 0.0000000000000000e+00  7.6969654388003232e-04 5.0228067995072071e-05 0.0000000000000000e+00  0.0000000000000000e+00 0.0000000000000000e+00 0.0000000000000000e+00  8.3184189675825483e-06 -1.9279283137252082e-07 0.0000000000000000e+00  1.6965866034055471e-05 -3.8720162175563278e-07 0.0000000000000000e+00  2.6278471090614243e-05 -5.8364550958143203e-07 0.0000000000000000e+00  3.6619034836079167e-05 -7.8017967226472248e-07 0.0000000000000000e+00  4.8390862104761693e-05 -9.7051656083943210e-07 0.0000000000000000e+00  6.2052542857320221e-05 -1.1408583654853920e-06 0.0000000000000000e+00  7.8133344354090441e-05 -1.2646374249741689e-06 0.0000000000000000e+00  9.7247925570222800e-05 -1.2935790053081275e-06 0.0000000000000000e+00  1.2010721088322338e-04 -1.1421570369591387e-06 0.0000000000000000e+00  1.4751919332053935e-04 -6.5968186979239423e-07 0.0000000000000000e+00  1.8037109584081120e-04 4.2233615336307943e-07 0.0000000000000000e+00  2.1959721146176569e-04 2.5973672043159606e-06 0.0000000000000000e+00  2.6623842481964135e-04 6.8287195456391910e-06 0.0000000000000000e+00  3.2221468741045362e-04 1.5203353369284104e-05 0.0000000000000000e+00  3.9470340566517251e-04 3.3055849570590948e-05 0.0000000000000000e+00  5.1727581317337801e-04 7.8352017855479639e-05 0.0000000000000000e+00  0.0000000000000000e+00 0.0000000000000000e+00 0.0000000000000000e+00  5.7190680169528926e-06 -1.2839549854719743e-07 0.0000000000000000e+00  1.1663089307730709e-05 -2.5710064351292916e-07 0.0000000000000000e+00  1.8060867441854318e-05 -3.8542691440042663e-07 0.0000000000000000e+00  2.5158289701928515e-05 -5.1067663758893777e-07 0.0000000000000000e+00  3.3226534004136371e-05 -6.2648034941166556e-07 0.0000000000000000e+00  4.2569794212073107e-05 -7.2015915254939696e-07 0.0000000000000000e+00  5.3531006901325810e-05 -7.6840499924323689e-07 0.0000000000000000e+00  6.6491811915971708e-05 -7.3011164209064162e-07 0.0000000000000000e+00  8.1857759673523332e-05 -5.3441787933403610e-07 0.0000000000000000e+00  1.0000753398496579e-04 -6.0779540889309174e-08 0.0000000000000000e+00  1.2115619293675752e-04 8.9404190669529590e-07 0.0000000000000000e+00  1.4501768032073301e-04 2.6703274308275104e-06 0.0000000000000000e+00  1.7003349579134487e-04 5.8380457528750441e-06 0.0000000000000000e+00  1.9192701443571596e-04 1.1398260406905998e-05 0.0000000000000000e+00  2.0310427745724434e-04 2.1575380995228502e-05 0.0000000000000000e+00  2.0756820104980925e-04 4.4554455452661419e-05 0.0000000000000000e+00  0.0000000000000000e+00 0.0000000000000000e+00 0.0000000000000000e+00  2.9099628581905750e-06 -6.4010346140455308e-08 0.0000000000000000e+00  5.9336904176836665e-06 -1.2791971403586321e-07 0.0000000000000000e+00  9.1865064520135307e-06 -1.9106524338730143e-07 0.0000000000000000e+00  1.2791857857410169e-05 -2.5164428709486873e-07 0.0000000000000000e+00  1.6884927378416701e-05 -3.0578162299530901e-07 0.0000000000000000e+00  2.1615528084586194e-05 -3.4606650993953526e-07 0.0000000000000000e+00  2.7148967756893822e-05 -3.5920064693182476e-07 0.0000000000000000e+00  3.3661714283518904e-05 -3.2222063951639350e-07 0.0000000000000000e+00  4.1324136269844651e-05 -1.9658656959311196e-07 0.0000000000000000e+00  5.0250788299125949e-05 8.0391732320563712e-08 0.0000000000000000e+00  6.0365942039596072e-05 6.0525999095697758e-07 0.0000000000000000e+00  7.1033840862666696e-05 1.5074306041906669e-06 0.0000000000000000e+00  7.9988951673342867e-05 2.8807655948802472e-06 0.0000000000000000e+00  8.0104290217493853e-05 4.4064507699703920e-06 0.0000000000000000e+00  5.0361747462493153e-05 3.8146884034925506e-06 0.0000000000000000e+00  -5.4789946134021261e-05 -6.5769412086038685e-06 0.0000000000000000e+00  0.0000000000000000e+00 0.0000000000000000e+00 0.0000000000000000e+00  0.0000000000000000e+00 0.0000000000000000e+00 0.0000000000000000e+00  0.0000000000000000e+00 0.0000000000000000e+00 0.0000000000000000e+00  0.0000000000000000e+00 0.0000000000000000e+00 0.0000000000000000e+00  0.0000000000000000e+00 0.0000000000000000e+00 0.0000000000000000e+00  0.0000000000000000e+00 0.0000000000000000e+00 0.0000000000000000e+00  0.0000000000000000e+00 0.0000000000000000e+00 0.0000000000000000e+00  0.0000000000000000e+00 0.0000000000000000e+00 0.0000000000000000e+00  0.0000000000000000e+00 0.0000000000000000e+00 0.0000000000000000e+00  0.00000