<?xml version="1.0"?>
<VTKFile type="UnstructuredGrid"  version="0.1"  >
<UnstructuredGrid>
<Piece  NumberOfPoints="289" NumberOfCells="512">
<Points>
<DataArray  type="Float64"  NumberOfComponents="3"  format="ascii">0 0 0  0.0625 0 0  0.125 0 0  0.1875 0 0  0.25 0 0  0.3125 0 0  0.375 0 0  0.4375 0 0  0.5 0 0  0.5625 0 0  0.625 0 0  0.6875 0 0  0.75 0 0  0.8125 0 0  0.875 0 0  0.9375 0 0  1 0 0  0 0.0625 0  0.06254662855645503 0.06246417066558674 0  0.1250950015750553 0.06242767544747964 0  0.1876469231424011 0.06238988623958903 0  0.2502043437455375 0.0623502989588148 0  0.3127694537621691 0.062308614607847 0  0.3753448109154617 0.06226484196445015 0  0.4379335334066826 0.06221942346716747 0  0.5005396221572843 0.06217337699765372 0  0.5631685457640753 0.06212842927740982 0  0.6258283854055691 0.06208708633949708 0  0.6885322426805319 0.06205253574079563 0  0.7513036809923745 0.0620281935289546 0  0.8141899083687087 0.06201658007343119 0  0.8772956088680302 0.06201701511626713 0  0.9408722438086663 0.06202164984220288 0  1.005542870428606 0.06201649741421134 0  0 0.125 0  0.06259149100582258 0.1249289599717961 0  0.1251864265814319 0.1248565229147618 0  0.1877883757768425 0.1247813607612533 0  0.2504012073172741 0.1247023779973351 0  0.3130292806835349 0.1246188688091007 0  0.3756777036346853 0.1245307227971462 0  0.4383527127550323 0.1244386876551766 0  0.5010622829173379 0.1243446830822461 0  0.5638171706168555 0.1242521313484259 0  0.626632796658015 0.1241662167780821 0  0.6895327753451385 0.1240938988546017 0  0.7525556537153287 0.124043384826229 0  0.8157675765088342 0.1240226925285948 0  0.8792840347145937 0.1240372743357053 0  0.9432973080341807 0.1240888231358982 0  1.008074832653331 0.1241840689290851 0  0 0.1875 0  0.06263293266984928 0.1873951204807147 0  0.1252708904331372 0.1872879969281612 0  0.1879190867561803 0.1871764716480959 0  0.2505831763286712 0.1870586944775782 0  0.3132695319766828 0.1869333425850724 0  0.3759856079706012 0.1867999232933796 0  0.4387404539342811 0.1866591841935835 0  0.5015454870791776 0.1865136426853067 0  0.5644157034970706 0.1863682166089438 0  0.6273716211655505 0.1862308722213506 0  0.6904423807019807 0.1861130769704306 0  0.7536704426422787 0.1860295980157692 0  0.8171176476164442 0.1859966821992111 0  0.8808694003024726 0.186026375694357 0  0.94502531648289 0.1861105501216441 0  1.00965239306961 0.1861726314044616 0  0 0.25 0  0.06266942558283368 0.2498635178397035 0  0.1253452671256504 0.2497237954499994 0  0.1880341867143844 0.2495776744569448 0  0.2507434038793478 0.2494223244577432 0  0.3134810381851583 0.2492554991808721 0  0.3762565449830847 0.2490759154273306 0  0.4390813032642705 0.2488838051354431 0  0.5019694405271999 0.2486816913315255 0  0.5649390071254816 0.2484754242084724 0  0.6280136161999755 0.2482754638552123 0  0.6912245651541704 0.2480982720538304 0  0.7546130409664769 0.2479674023251147 0  0.8182308312389285 0.2479133148673661 0  0.882135358255362 0.2479698661741269 0  0.94637105104504 0.2481638228763083 0  1.010929201220276 0.2484944331935563 0  0 0.3125 0  0.06269961979100747 0.3123351611192179 0  0.1254067982100389 0.3121659305854777 0  0.188129387981857 0.3119879642597462 0  0.2508758829827666 0.3117971898669886 0  0.3136558050069276 0.3115900562349109 0  0.3764801837424838 0.3113639422988461 0  0.439362182698356 0.311117809177918 0  0.5023179377326605 0.3108532030689716 0  0.5653676751563652 0.3105757396798685 0  0.628537126326388 0.3102972049405998 0  0.6918590725346808 0.3100383499180392 0  0.7553743861552795 0.3098322514186813 0  0.8191310015106299 0.3097275932808546 0  0.8831779794493307 0.3097901937627099 0  0.9475518231596803 0.3100995943196377 0  1.012258880859481 0.3107365803602765 0  0 0.375 0  0.06272238431297684 0.3748112057021431 0  0.1254531781992653 0.3746167442744438 0  0.1882011207937296 0.3744109259708766 0  0.2509756408785991 0.3741881821896905 0  0.3137872675167588 0.3739432464710912 0  0.3766481334431786 0.3736715158044049 0  0.4395726265589756 0.3733697065896065 0  0.5025782637975738 0.373036976340923 0  0.5656868732011421 0.3726767623968745 0  0.6289261456200463 0.3722996882625613 0  0.6923314960361669 0.3719279759200204 0  0.7559478599815714 0.3716017801216171 0  0.819830480029487 0.3713874974157907 0  0.8840431747596174 0.3713870118902979 0  0.9486533549524143 0.3717447524439962 0  1.013728442772713 0.3726470954148419 0  0 0.4375 0  0.06273683961571484 0.4372929194677375 0  0.1254826204654085 0.437078848088698 0  0.1882466338709267 0.4368506654587925 0  0.2510388735100105 0.4366011204095274 0  0.3138704490663779 0.4363228693547346 0  0.3767540917474401 0.4360086826022004 0  0.4397048195663375 0.435651948377897 0  0.5027408737723337 0.4352476929414991 0  0.5658851038828294 0.4347944813593607 0  0.6291670644670794 0.4342977925733419 0  0.6926261655913053 0.4337757870774253 0  0.7563162180757955 0.4332687450518351 0  0.8203115172832516 0.4328535610604083 0  0.8847141981369206 0.4326638042392292 0  0.9496626458860524 0.4329129961084321 0  1.015344119243472 0.4339147857449528 0  0 0.5 0  0.06274238469626692 0.4997816057267454 0  0.1254939105614075 0.4995549706928423 0  0.1882640726091322 0.4993115876038118 0  0.2510630463053186 0.4990424784604581 0  0.3139020803821478 0.4987380155992104 0  0.3767939726751723 0.4983878518616361 0  0.439753709839962 0.4979810739285417 0  0.5027994314310996 0.4975067984263549 0  0.5659540331755309 0.4969556270318468 0  0.6292480025005375 0.496322736500365 0  0.6927245292764208 0.4956140123942059 0  0.7564485366111721 0.4948576493856359 0  0.8205217906181453 0.4941249065237531 0  0.885106062034139 0.4935641066700794 0  0.9504549824802241 0.4934482736848407 0  1.016956127343286 0.4942255417771505 0  0 0.5625 0  0.06273872108223298 0.5622784822189913 0  0.125486452012152 0.5620477081540604 0  0.188252543553211 0.5617980042784493 0  0.2510469753446201 0.5615188370424472 0  0.3138807022398811 0.5611983618774691 0  0.3767660559257495 0.5608229728342755 0  0.4397172781445397 0.5603769092906624 0  0.5027513690240824 0.559842066812654 0  0.5658896782825347 0.5591983537627088 0  0.6291611876177968 0.5584253523844771 0  0.692609449704886 0.5575069334265649 0  0.7563068882504619 0.5564423223809116 0  0.8203824697521953 0.5552706113480446 0  0.8850701642994144 0.5541205697464039 0  0.9507829561662691 0.553297614537234 0  1.018210634958699 0.5533997755098972 0  0 0.625 0  0.06272587396073311 0.624784524424038 0  0.125460304994899 0.6245591914901744 0  0.1882121647626956 0.6243135872672709 0  0.2509908835658742 0.6240360628052162 0  0.3138067300799707 0.6237129995119202 0  0.3766710944374649 0.6233279311103941 0  0.4395968112402557 0.6228604818145054 0  0.5025986549122435 0.6222851146277426 0  0.5656944106028478 0.6215697907404829 0  0.6289076221218354 0.6206749443776274 0  0.6922747750242503 0.6195540136046049 0  0.7558632173570299 0.6181590616340441 0  0.8198124872909373 0.6164611858616906 0  0.884419117810526 0.6145101418225709 0  0.9502833720751565 0.6125770914934836 0  1.018521102527156 0.6113858129569139 0  0 0.6875 0  0.06270420837552733 0.687300292092043 0  0.1254162140034836 0.6870907100029598 0  0.1881440951075558 0.6868607249917627 0  0.2508964156709542 0.6865982919842212 0  0.3136824348734569 0.686288881087937 0  0.3765122543140503 0.6859142189501478 0  0.4393968625656296 0.6854505860120977 0  0.5023480568983397 0.6848664630318015 0  0.5653783728824685 0.6841192614117586 0  0.6285017388839446 0.6831508542668583 0  0.6917374487194173 0.6818818540160817 0  0.7551253900281564 0.680205907022402 0  0.818773959143115 0.6779912105304228 0  0.8829888199762347 0.6751214217998769 0  0.9485398517835325 0.671701565831804 0  1.017096532527374 0.668602581484335 0  0 0.75 0  0.06267443700211288 0.7498257675792893 0  0.1253556188781974 0.7496423521046368 0  0.1880505363952493 0.749439887295308 0  0.2507666042417186 0.7492068798641264 0  0.3135118190094429 0.7489291220807452 0  0.3762948048152275 0.7485882084925887 0  0.4391246204255576 0.7481594107246012 0  0.5020100941982447 0.7476085295871064 0  0.5649583110563634 0.7468871137749836 0  0.627971847560534 0.7459250316763627 0  0.6910451639048178 0.7446186614928514 0  0.7541650549666421 0.7428117499436139 0  0.8173382226968822 0.7402648982131849 0  0.8807332628724144 0.7366169032102667 0  0.9452107445803901 0.7314285298069999 0  1.012816853655126 0.7253292260208847 0  0 0.8125 0  0.06263761572323523 0.8123602398227612 0  0.125280644526444 0.8122127393255861 0  0.1879347094638379 0.812049133625026 0  0.250605806175846 0.8118595431199412 0  0.3133004411931399 0.8116315305406295 0  0.3760256557574082 0.8113486356731446 0  0.4387887688343123 0.8109882076947771 0  0.5015964590056572 0.8105180840764639 0  0.5644523395160088 0.8098913615541948 0  0.6273512189642055 0.8090379365833136 0  0.6902664972741822 0.8078503113794143 0  0.753125192833647 0.8061583283984398 0  0.815769562064358 0.8036798915228883 0  0.877954616578279 0.799914583486847 0  0.9397624729143413 0.7939106034240695 0  1.005840007074096 0.7839290709757355 0  0 0.875 0  0.06259512352426459 0.8749022655810862 0  0.125194065609074 0.8747989262962227 0  0.1878008102517314 0.8746839003289411 0  0.2504196502770373 0.8745499353671834 0  0.3130553227430512 0.8743877872829753 0  0.3757130806225926 0.8741850453660858 0  0.4383985758913803 0.8739243630253173 0  0.5011172227399305 0.8735807039178732 0  0.5638721709679909 0.8731169631953007 0  0.6266585971820274 0.8724769086780954 0  0.6894482563743329 0.8715736608911052 0  0.7521484726273098 0.8702702241250214 0  0.8144961319403881 0.8683418752106867 0  0.8757997852905621 0.8653763166215835 0  0.9343924565317565 0.8604071135893681 0  0.9867927185159538 0.850470568210136 0  0 0.9375 0  0.06254862328708381 0.937449728685917 0  0.1250992400769151 0.9373965161349014 0  0.1876539426576382 0.9373371635001544 0  0.2502150176005358 0.9372678353762119 0  0.3127850503679551 0.9371836083465002 0  0.3753670262552026 0.9370778185879102 0  0.4379643893766788 0.93694106884
[...]
<PointData  Vectors="f_54"> 
<DataArray  type="Float64"  Name="f_54"  NumberOfComponents="3" format="ascii">0.0000000000000000e+00 0.0000000000000000e+00 0.0000000000000000e+00  0.0000000000000000e+00 0.0000000000000000e+00 0.0000000000000000e+00  0.0000000000000000e+00 0.0000000000000000e+00 0.0000000000000000e+00  0.0000000000000000e+00 0.0000000000000000e+00 0.0000000000000000e+00  0.0000000000000000e+00 0.0000000000000000e+00 0.0000000000000000e+00  0.0000000000000000e+00 0.0000000000000000e+00 0.0000000000000000e+00  0.0000000000000000e+00 0.0000000000000000e+00 0.0000000000000000e+00  0.0000000000000000e+00 0.0000000000000000e+00 0.0000000000000000e+00  0.0000000000000000e+00 0.0000000000000000e+00 0.0000000000000000e+00  0.0000000000000000e+00 0.0000000000000000e+00 0.0000000000000000e+00  0.0000000000000000e+00 0.0000000000000000e+00 0.0000000000000000e+00  0.0000000000000000e+00 0.0000000000000000e+00 0.0000000000000000e+00  0.0000000000000000e+00 0.0000000000000000e+00 0.0000000000000000e+00  0.0000000000000000e+00 0.0000000000000000e+00 0.0000000000000000e+00  0.0000000000000000e+00 0.0000000000000000e+00 0.0000000000000000e+00  0.0000000000000000e+00 0.0000000000000000e+00 0.0000000000000000e+00  0.0000000000000000e+00 0.0000000000000000e+00 0.0000000000000000e+00  0.0000000000000000e+00 0.0000000000000000e+00 0.0000000000000000e+00  4.6036469194281386e-06 1.4976501862610974e-07 0.0000000000000000e+00  9.3331222969194026e-06 2.9898670984047366e-07 0.0000000000000000e+00  1.4318048457178715e-05 4.4661268420364366e-07 0.0000000000000000e+00  1.9684985624948817e-05 5.9018624570007586e-07 0.0000000000000000e+00  2.5554480512483884e-05 7.2504121463560330e-07 0.0000000000000000e+00  3.2036022097737299e-05 8.4340435292444652e-07 0.0000000000000000e+00  3.9220122673385021e-05 9.3344282917240897e-07 0.0000000000000000e+00  4.7166821560169595e-05 9.7835717555877514e-07 0.0000000000000000e+00  5.5890369395749668e-05 9.5566715506495195e-07 0.0000000000000000e+00  6.5341439436629903e-05 8.3673845765925435e-07 0.0000000000000000e+00  7.5393255577479713e-05 5.8591170496896458e-07 0.0000000000000000e+00  8.5854347149448844e-05 1.5585686251836015e-07 0.0000000000000000e+00  9.6586288965414774e-05 -5.3413946337875767e-07 0.0000000000000000e+00  1.0800689615646662e-04 -1.6867112596747811e-06 0.0000000000000000e+00  1.2305155807088448e-04 -3.9750365308634470e-06 0.0000000000000000e+00  1.5515836260597397e-04 -9.9812657954107984e-06 0.0000000000000000e+00  0.0000000000000000e+00 0.0000000000000000e+00 0.0000000000000000e+00  9.0832096615995434e-06 3.0011794127342982e-07 0.0000000000000000e+00  1.8420427645809589e-05 5.9983235715300826e-07 0.0000000000000000e+00  2.8273447274168202e-05 8.9775790304413918e-07 0.0000000000000000e+00  3.8899442580449572e-05 1.1897681753528247e-06 0.0000000000000000e+00  5.0545881427820636e-05 1.4673819228885706e-06 0.0000000000000000e+00  6.3441276770075531e-05 1.7159102906252850e-06 0.0000000000000000e+00  7.7780074096727212e-05 1.9124201830650167e-06 0.0000000000000000e+00  9.3699853108199425e-05 2.0237264990491731e-06 0.0000000000000000e+00  1.1124917100235657e-04 2.0048488168936552e-06 0.0000000000000000e+00  1.3034517783945909e-04 1.7986050567992507e-06 0.0000000000000000e+00  1.5072226148132316e-04 1.3370969274981439e-06 0.0000000000000000e+00  1.7187703970851631e-04 5.4549744486889990e-07 0.0000000000000000e+00  1.9301761953369903e-04 -6.5175659779871157e-07 0.0000000000000000e+00  2.1299316706762557e-04 -2.3154219461194521e-06 0.0000000000000000e+00  2.2990284864091208e-04 -4.3975158021757223e-06 0.0000000000000000e+00  2.3831253855255370e-04 -6.0953666760700284e-06 0.0000000000000000e+00  0.0000000000000000e+00 0.0000000000000000e+00 0.0000000000000000e+00  1.3305742717897174e-05 4.5073402946861279e-07 0.0000000000000000e+00  2.6996781511574592e-05 9.0252608562460623e-07 0.0000000000000000e+00  4.1470483223959837e-05 1.3550681041730076e-06 0.0000000000000000e+00  5.7120855400425475e-05 1.8041543174965036e-06 0.0000000000000000e+00  7.4332917680615463e-05 2.2392847452030066e-06 0.0000000000000000e+00  9.3471019196275632e-05 2.6407787566625142e-06 0.0000000000000000e+00  1.1485838157061974e-04 2.9764048821221524e-06 0.0000000000000000e+00  1.3874458963631213e-04 3.1977823563427062e-06 0.0000000000000000e+00  1.6525710836832083e-04 3.2372630556142889e-06 0.0000000000000000e+00  1.9433199418519617e-04 3.0067624638413541e-06 0.0000000000000000e+00  2.2561685266781395e-04 2.4012022739783591e-06 0.0000000000000000e+00  2.5833227309667668e-04 1.3110661927895063e-06 0.0000000000000000e+00  2.9105507891628884e-04 -3.4839178919690550e-07 0.0000000000000000e+00  3.2131497860750895e-04 -2.5784162397514354e-06 0.0000000000000000e+00  3.4469966235358465e-04 -5.1921404346412680e-06 0.0000000000000000e+00  3.5278981914763926e-04 -7.7173257047458488e-06 0.0000000000000000e+00  0.0000000000000000e+00 0.0000000000000000e+00 0.0000000000000000e+00  1.7136274843021927e-05 5.9997276520671835e-07 0.0000000000000000e+00  3.4791598763671416e-05 1.2043256669191184e-06 0.0000000000000000e+00  5.3501738120680362e-05 1.8158466987904472e-06 0.0000000000000000e+00  7.3804332616750115e-05 2.4326178619156520e-06 0.0000000000000000e+00  9.6235076661437807e-05 3.0449383223938811e-06 0.0000000000000000e+00  1.2131640223135856e-04 3.6313696761931351e-06 0.0000000000000000e+00  1.4953498604433656e-04 4.1537309106623809e-06 0.0000000000000000e+00  1.8130333816827364e-04 4.5511313512320297e-06 0.0000000000000000e+00  2.1689932103471270e-04 4.7337174062636169e-06 0.0000000000000000e+00  2.5637537951558355e-04 4.5779994171178417e-06 0.0000000000000000e+00  2.9942547421984577e-04 3.9278453316730110e-06 0.0000000000000000e+00  3.4518933285097918e-04 2.6090679515377334e-06 0.0000000000000000e+00  3.9195454333053841e-04 4.7163025906292998e-07 0.0000000000000000e+00  4.3667952301380564e-04 -2.5180972745396982e-06 0.0000000000000000e+00  4.7421812916877089e-04 -6.1046802374366450e-06 0.0000000000000000e+00  4.9622015058540343e-04 -9.4597960746719661e-06 0.0000000000000000e+00  0.0000000000000000e+00 0.0000000000000000e+00 0.0000000000000000e+00  2.0438995602589581e-05 7.4435974796512957e-07 0.0000000000000000e+00  4.1530652420382222e-05 1.4986368368867007e-06 0.0000000000000000e+00  6.3949364589993362e-05 2.2711759473706223e-06 0.0000000000000000e+00  8.8381438430818404e-05 3.0653872921054230e-06 0.0000000000000000e+00  1.1552606948609559e-04 3.8762399712702599e-06 0.0000000000000000e+00  1.4608816086656492e-04 4.6853754136086793e-06 0.0000000000000000e+00  1.8075858592029456e-04 5.4543192052674410e-06 0.0000000000000000e+00  2.2017593239928861e-04 6.1153750108059422e-06 0.0000000000000000e+00  2.6486175604966528e-04 6.5602358597539381e-06 0.0000000000000000e+00  3.1511884590865852e-04 6.6275795870319514e-06 0.0000000000000000e+00  3.7087867368138373e-04 6.0937117269785485e-06 0.0000000000000000e+00  4.3147928772971480e-04 4.6759175419050356e-06 0.0000000000000000e+00  4.9534735926947120e-04 2.0680717508283389e-06 0.0000000000000000e+00  5.5955005883353854e-04 -1.9572295092916863e-06 0.0000000000000000e+00  6.1919352528528899e-04 -7.3300977504791649e-06 0.0000000000000000e+00  6.6673938734698810e-04 -1.3297260929901853e-05 0.0000000000000000e+00  0.0000000000000000e+00 0.0000000000000000e+00 0.0000000000000000e+00  2.3080302943135397e-05 8.7826187765007260e-07 0.0000000000000000e+00  4.6941770667209360e-05 1.7742545822535844e-06 0.0000000000000000e+00  7.2392609156213841e-05 2.7044936024105831e-06 0.0000000000000000e+00  1.0026808749822582e-04 3.6811794554085796e-06 0.0000000000000000e+00  1.3143967670373378e-04 4.7087344002676003e-06 0.0000000000000000e+00  1.6681651239513234e-04 5.7784586297646865e-06 0.0000000000000000e+00  2.0733446132988531e-04 6.8602931783034595e-06 0.0000000000000000e+00  2.5392598728528728e-04 7.8904028859714808e-06 0.0000000000000000e+00  3.0746138159368404e-04 8.7531729876616935e-06 0.0000000000000000e+00  3.6864904122123891e-04 9.2567211143304555e-06 0.0000000000000000e+00  4.3788010693316407e-04 9.1032560833111412e-06 0.0000000000000000e+00  5.1500240486814387e-04 7.8617528549849012e-06 0.0000000000000000e+00  5.9901262443612933e-04 4.9640403890689147e-06 0.0000000000000000e+00  6.8766709589034079e-04 -2.2955052174282576e-07 0.0000000000000000e+00  7.7703351512847037e-04 -8.2122846310808238e-06 0.0000000000000000e+00  8.6103519153124433e-04 -1.8838877921785350e-05 0.0000000000000000e+00  0.0000000000000000e+00 0.0000000000000000e+00 0.0000000000000000e+00  2.4934022182795174e-05 9.9386055201241514e-07 0.0000000000000000e+00  5.0765144150033685e-05 2.0151913528634126e-06 0.0000000000000000e+00  7.8422921427445821e-05 3.0910107440709929e-06 0.0000000000000000e+00  1.0888379367798059e-04 4.2457200056987347e-06 0.0000000000000000e+00  1.4319174146593084e-04 5.4984124376967395e-06 0.0000000000000000e+00  1.8247324722024831e-04 6.8580215385230600e-06 0.0000000000000000e+00  2.2794210390836135e-04 8.3148050648367052e-06 0.0000000000000000e+00  2.8088696453713538e-04 9.8258170589697967e-06 0.0000000000000000e+00  3.4263100458697927e-04 1.1290837844131366e-05 0.0000000000000000e+00  4.1444918363654944e-04 1.2513908898718265e-05 0.0000000000000000e+00  4.9742611675421895e-04 1.3145084763302641e-05 0.0000000000000000e+00  5.9224073327792412e-04 1.2600037581831345e-05 0.0000000000000000e+00  6.9888027153245779e-04 9.9680780481746670e-06 0.0000000000000000e+00  8.1632387223708040e-04 3.9524073988978655e-06 0.0000000000000000e+00  9.4229121162633066e-04 -7.0526934882745576e-06 0.0000000000000000e+00  1.0731921489340668e-03 -2.4569459381951100e-05 0.0000000000000000e+00  0.0000000000000000e+00 0.0000000000000000e+00 0.0000000000000000e+00  2.5888829736309530e-05 1.0815321671245192e-06 0.0000000000000000e+00  5.2768420097218101e-05 2.2013466191135475e-06 0.0000000000000000e+00  8.1667185886595114e-05 3.3984450339375890e-06 0.0000000000000000e+00  1.1368352310160204e-04 4.7120619688122972e-06 0.0000000000000000e+00  1.5002079216742126e-04 6.1806662913855421e-06 0.0000000000000000e+00  1.9202038887538076e-04 7.8390189860942865e-06 0.0000000000000000e+00  2.4118957803195143e-04 9.7115585920863169e-06 0.0000000000000000e+00  2.9921760432393075e-04 1.1798972576498322e-05 0.0000000000000000e+00  3.6796884696081397e-04 1.4052322154059038e-05 0.0000000000000000e+00  4.4943565840355215e-04 1.6324927432444839e-05 0.0000000000000000e+00  5.4562819673339112e-04 1.8285995395488831e-05 0.0000000000000000e+00  6.5838128064404314e-04 1.9272951330782421e-05 0.0000000000000000e+00  7.8908649607704819e-04 1.8058607249676422e-05 0.0000000000000000e+00  9.3844097953895919e-04 1.2533659276490524e-05 0.0000000000000000e+00  1.1064609507134070e-03 -6.2349219637295708e-07 0.0000000000000000e+00  1.2931825482031813e-03 -2.6160117406821204e-05 0.0000000000000000e+00  0.0000000000000000e+00 0.0000000000000000e+00 0.0000000000000000e+00  2.5857551471741289e-05 1.1307148424908550e-06 0.0000000000000000e+00  5.2766022762151900e-05 2.3102280448738797e-06 0.0000000000000000e+00  8.1818482513916282e-05 3.5895292651484398e-06 0.0000000000000000e+00  1.1420186838846811e-04 5.0236284869368141e-06 0.0000000000000000e+00  1.5124785996774334e-04 6.6731545434466259e-06 0.0000000000000000e+00  1.9448755931384786e-04 8.6049415113155739e-06 0.0000000000000000e+00  2.4570903052215538e-04 1.0890224815592279e-05 0.0000000000000000e+00  3.0701349828590025e-04 1.3597460201557220e-05 0.0000000000000000e+00  3.8086010781418652e-04 1.6773443915910921e-05 0.0000000000000000e+00  4.7007959548609390e-04 2.0399577316606036e-05 0.0000000000000000e+00  5.7782473894073651e-04 2.4296519684258808e-05 0.0000000000000000e+00  7.0741799252899368e-04 2.7925321745690286e-05 0.0000000000000000e+00  8.6208390542997755e-04 2.9994485439875405e-05 0.0000000000000000e+00  1.0446948496103728e-03 2.7751119304554445e-05 0.0000000000000000e+00  1.2580500126584393e-03 1.5885937788540163e-05 0.0000000000000000e+00  1.5069397267755472e-03 -1.4910371206168147e-05 0.0000000000000000e+00  0.0000000000000000e+00 0.0000000000000000e+00 0.0000000000000000e+00  2.4787577234991273e-05 1.1312608354313221e-06 0.0000000000000000e+00  5.0641242022002007e-05 2.3197761785399026e-06 0.0000000000000000e+00  7.8672347297720891e-05 3.6265285406159265e-06 0.0000000000000000e+00  1.1010723031839793e-04 5.1206635648528676e-06 0.0000000000000000e+00  1.4635345768712694e-04 6.8842397035303839e-06 0.0000000000000000e+00  1.8907726055807350e-04 9.0175949293140175e-06 0.0000000000000000e+00  2.4029516788075231e-04 1.1645049537595381e-05 0.0000000000000000e+00  3.0248059483932286e-04 1.4919627307442251e-05 0.0000000000000000e+00  3.7868038371451968e-04 1.9022793350575205e-05 0.0000000000000000e+00  4.7262379264022790e-04 2.4148335031424404e-05 0.0000000000000000e+00  5.8878323143479641e-04 3.0442036630863603e-05 0.0000000000000000e+00  7.3231282253791608e-04 3.7825171333859539e-05 0.0000000000000000e+00  9.0877607547603420e-04 4.5527430395726836e-05 0.0000000000000000e+00  1.1237123967509459e-03 5.0958727916257634e-05 0.0000000000000000e+00  1.3827609064133279e-03 4.7401612338665744e-05 0.0000000000000000e+00  1.6942674482362332e-03 2.0293198497533118e-05 0.0000000000000000e+00  0.0000000000000000e+00 0.0000000000000000e+00 0.0000000000000000e+00  2.2671184353434648e-05 1.0751474002810831e-06 0.0000000000000000e+00  4.6368646683798329e-05 2.2120642276932019e-06 0.0000000000000000e+00  7.2164829648876423e-05 3.4775127158493337e-06 0.0000000000000000e+00  1.0126115416291645e-04 4.9500150710424696e-06 0.0000000000000000e+00  1.3506619167873049e-04 6.7275979661633607e-06 0.0000000000000000e+00  1.7529307520414137e-04 8.9380985160977079e-06 0.0000000000000000e+00  2.2408463339105672e-04 1.1753385852432265e-05 0.0000000000000000e+00  2.8417534686407594e-04 1.5409216246183145e-05 0.0000000000000000e+00  3.5909688353386515e-04 2.0232477233083298e-05 0.0000000000000000e+00  4.5342324966507800e-04 2.6675767928651730e-05 0.0000000000000000e+00  5.7302122047869330e-04 3.5349839823246790e-05 0.0000000000000000e+00  7.2520296075407069e-04 4.7006285954078948e-05 0.0000000000000000e+00  9.1855935303241656e-04 6.2281343915883533e-05 0.0000000000000000e+00  1.1622057132081988e-03 8.0527806313686578e-05 0.0000000000000000e+00  1.4652545539277739e-03 9.5904125786094535e-05 0.0000000000000000e+00  1.8414434834676298e-03 9.2140781675260905e-05 0.0000000000000000e+00  0.0000000000000000e+00 0.0000000000000000e+00 0.0000000000000000e+00  1.9554169888864555e-05 9.5827236781016205e-07 0.0000000000000000e+00  4.0033447214973564e-05 1.9772955652042455e-06 0.0000000000000000e+00  6.2406899027696986e-05 3.1234524144620076e-06 0.0000000000000000e+00  8.7775010374696022e-05 4.4769343741036038e-06 0.0000000000000000e+00  1.1745286210738209e-04 6.1414202741366999e-06 0.0000000000000000e+00  1.5307931631060255e-04 8.2578787441136017e-06 0.0000000000000000e+00  1.9676669922790894e-04 1.1025344280252714e-05 0.0000000000000000e+00  2.5131100349491979e-04 1.4733472892478363e-05 0.0000000000000000e+00  3.2048865821080087e-04 1.9815417206277280e-05 0.0000000000000000e+00  4.0946764694449835e-04 2.6936765792214632e-05 0.0000000000000000e+00  5.2534263593504631e-04 3.7149450511850867e-05 0.0000000000000000e+00  6.7772268583286225e-04 5.2156808183699143e-05 0.0000000000000000e+00  8.7905034800752561e-04 7.4712022547275786e-05 0.0000000000000000e+00  1.1436918674056621e-03 1.0875962502136079e-04 0.0000000000000000e+00  1.4839135513545734e-03 1.5557562928076779e-04 0.0000000000000000e+00  1.9243297521082151e-03 1.7884277777046001e-04 0.0000000000000000e+00  0.0000000000000000e+00 0.0000000000000000e+00 0.0000000000000000e+00  1.5540967733690407e-05 7.8194739640566087e-07 0.0000000000000000e+00  3.1843794229121564e-05 1.6172270254215927e-06 0.0000000000000000e+00  4.9708301763563938e-05 2.5645643289438223e-06 0.0000000000000000e+00  7.0053243035177474e-05 3.6962322258549618e-06 0.0000000000000000e+00  9.3994334503816134e-05 5.1078542996139517e-06 0.0000000000000000e+00  1.2295109822314844e-04 6.9328198861506053e-06 0.0000000000000000e+00  1.5880124952361962e-04 9.3646841035945806e-06 0.0000000000000000e+00  2.0411236295421727e-04 1.2693493073460918e-05 0.0000000000000000e+00  2.6249839121833779e-04 1.7367334464096113e-05 0.0000000000000000e+00  3.3917507968312966e-04 2.4102762627282279e-05 0.0000000000000000e+00  4.4181841530435857e-04 3.4099399142903516e-05 0.0000000000000000e+00  5.8182828331687284e-04 4.9501933056912298e-05 0.0000000000000000e+00  7.7591711393968298e-04 7.4503469099780032e-05 0.0000000000000000e+00  1.0470103145743396e-03 1.1816859888494996e-04 0.0000000000000000e+00  1.4185942191818144e-03 2.0170202127468438e-04 0.0000000000000000e+00  1.8374140518068391e-03 3.7755550125207718e-04 0.0000000000000000e+00  0.0000000000000000e+00 0.0000000000000000e+00 0.0000000000000000e+00  1.0794515554882918e-05 5.5368291745932020e-07 0.0000000000000000e+00  2.2131998259168215e-05 1.1470636832616761e-06 0.0000000000000000e+00  3.4583448801578662e-05 1.8240661393854823e-06 0.0000000000000000e+00  4.8810445026509135e-05 2.6393838560360023e-06 0.0000000000000000e+00  6.5626207921031979e-05 3.6663693360741191e-06 0.0000000000000000e+00  8.6081883289710923e-05 5.0087130099879403e-06 0.0000000000000000e+00  1.1159625912110894e-04 6.8185342715565129e-06 0.0000000000000000e+00  1.4416049932820411e-04 9.3251099195079284e-06 0.0000000000000000e+00  1.8667482735785959e-04 1.2881140485013517e-05 0.0000000000000000e+00  2.4352249086260773e-04 1.8038261792367795e-05 0.0000000000000000e+00  3.2157767736568343e-04 2.5675063269361495e-05 0.0000000000000000e+00  4.3200826651149598e-04 3.7244353027630388e-05 0.0000000000000000e+00  5.9350192720250517e-04 5.5416853965485686e-05 0.0000000000000000e+00  8.3797780701619275e-04 8.6425511629341798e-05 0.0000000000000000e+00  1.2212367588910311e-03 1.4980202745706018e-04 0.0000000000000000e+00  1.8468817352353714e-03 3.1175652883764642e-04 0.0000000000000000e+00  0.0000000000000000e+00 0.0000000000000000e+00 0.0000000000000000e+00  5.5296712148496737e-06 2.8697127464550544e-07 0.0000000000000000e+00  1.1341668682553594e-05 5.9511082490950947e-07 0.0000000000000000e+00  1.7733180073863841e-05 9.4789710934277735e-07 0.0000000000000000e+00  2.5050305854594089e-05 1.3747408353962068e-06 0.0000000000000000e+00  3.3721576442673649e-05 1.9153335058660628e-06 0.0000000000000000e+00  4.4306210777155114e-05 2.6260420533790086e-06 0.0000000000000000e+00  5.7568421909536193e-05 3.5895779499835931e-06 0.0000000000000000e+00  7.4598318840870121e-05 4.9293917705466236e-06 0.0000000000000000e+00  9.7018675490042738e-05 6.8291935196091536e-06 0.0000000000000000e+00  1.2735540128249294e-04 9.5508992801245302e-06 0.0000000000000000e+00  1.6972740164874304e-04 1.3412271547756914e-05 0.0000000000000000e+00  2.3114535877746681e-04 1.8555844101161660e-05 0.0000000000000000e+00  3.2375525675828966e-04 2.3851243174205001e-05 0.0000000000000000e+00  4.6692363416700803e-04 2.2732111023100315e-05 0.0000000000000000e+00  6.7792836856746545e-04 -7.6656234826434064e-06 0.0000000000000000e+00  9.1805749568748738e-04 -1.0340549764937911e-04 0.0000000000000000e+00  0.0000000000000000e+00 0.0000000000000000e+00 0.0000000000000000e+00  0.0000000000000000e+00 0.0000000000000000e+00 0.0000000000000000e+00  0.0000000000000000e+00 0.0000000000000000e+00 0.0000000000000000e+00  0.0000000000000000e+00 0.0000000000000000e+00 0.0000000000000000e+00  0.0000000000000000e+00 0.0000000000000000e+00 0.0000000000000000e+00  0.0000000000000000e+00 0.0000000000000000e+00 0.0000000000000000e+00  0.0000000000000000e+00 0.0000000000000000e+00 0.0000000000000000e+00  0.0000000000000000e+00 0.0000000000000000e+00 0.0000000000000000e+00  0.0000000000000000e+00 0.0000000000000000e+00 0.0000000000000000e+00  0.0000000000000000e+00 0.0000000000000000e+00 0.0000000000000000e+00  0.0000000000000000e+00 0.0000000000000000e+00 0.0000000000000000e+00  0.0000000000000000e+00 0.0000000000000000e+00 0.000000