<?xml version="1.0"?>
<VTKFile type="UnstructuredGrid"  version="0.1"  >
<UnstructuredGrid>
<Piece  NumberOfPoints="289" NumberOfCells="512">
<Points>
<DataArray  type="Float64"  NumberOfComponents="3"  format="ascii">0 0 0  0.0625 0 0  0.125 0 0  0.1875 0 0  0.25 0 0  0.3125 0 0  0.375 0 0  0.4375 0 0  0.5 0 0  0.5625 0 0  0.625 0 0  0.6875 0 0  0.75 0 0  0.8125 0 0  0.875 0 0  0.9375 0 0  1 0 0  0 0.0625 0  0.0625137341233446 0.06247145221447064 0  0.1250288714364149 0.06244240102497664 0  0.1875469536040648 0.06241237940508708 0  0.250069870350711 0.06238102492300574 0  0.3126000846897506 0.0623481464237353 0  0.3751409311910908 0.06231380609024896 0  0.4376970357683025 0.06227841615659268 0  0.5002749446546134 0.06224284085733059 0  0.5628841421370014 0.06220847775471142 0  0.6255388649369252 0.06217726242059375 0  0.6882617229912857 0.0621514840800467 0  0.7510918215308369 0.06213318292292831 0  0.8141050868704638 0.06212260318741203 0  0.8774702415313907 0.06211423436220442 0  0.9416163315557837 0.06208552875371632 0  1.007779280258934 0.06196117036309982 0  0 0.125 0  0.06252604478447601 0.1249433802716271 0  0.1250547486005165 0.1248857001921739 0  0.1875890378657927 0.1248259669107447 0  0.2501325118462832 0.124763385211723 0  0.3126898790697945 0.1246974878084717 0  0.3752675336215064 0.1246283013575961 0  0.4378743556101646 0.1245565514598291 0  0.5005228744313541 0.124483895940067 0  0.5632310472028305 0.1244131485799769 0  0.6260251489841103 0.1243484071937397 0  0.6889447954410408 0.1242949223178061 0  0.7520521896728292 0.1242584409224142 0  0.8154495420237936 0.1242437177890711 0  0.8793100777616577 0.1242523782959696 0  0.943918958849232 0.124283597443897 0  1.009647443710608 0.1243567666248827 0  0 0.1875 0  0.06253572983446834 0.1874163546975253 0  0.1250750726906781 0.1873309950848942 0  0.1876220113892977 0.1872422942249844 0  0.2501814624134392 0.1871488902912129 0  0.3127598824228175 0.1870498713205569 0  0.3753660653083922 0.1869450233967631 0  0.4380122293339956 0.1868351575247489 0  0.500715534223434 0.1867225171555615 0  0.5635002328202529 0.1866112387134646 0  0.6264007582845218 0.1865077789645936 0  0.689466151522327 0.186421116771653 0  0.7527661643777795 0.1863623527938072 0  0.8163983711638919 0.1863429982669614 0  0.8804911746842368 0.1863704711346482 0  0.9451833799160246 0.186436631839626 0  1.010529444344023 0.1864833772332958 0  0 0.25 0  0.06254189394505108 0.2498910413645216 0  0.1250879289903496 0.2497795873126833 0  0.1876426781378983 0.2496632314205887 0  0.2502118113793558 0.2495398571467136 0  0.3128028132266602 0.2494078576809072 0  0.3754259272486224 0.249266452976577 0  0.4380954324200552 0.2491161404153651 0  0.5008313741445725 0.2489593113424337 0  0.5636618756666013 0.2488010465767065 0  0.6266261013061406 0.2486500533916659 0  0.6897777198229696 0.2485195956732171 0  0.7531880428451824 0.2484280502863604 0  0.816946253273993 0.2483983203910531 0  0.8811501704728506 0.2484546574143874 0  0.9458741683445244 0.2486146276735128 0  1.01109660413658 0.2488753117575784 0  0 0.3125 0  0.06254405677794836 0.312368229797071 0  0.1250922794718717 0.312233047355519 0  0.1876492777246987 0.3120911054547598 0  0.2502207986484413 0.3119393098584057 0  0.3128144846838149 0.3117750405802808 0  0.375440887378983 0.3115965038579261 0  0.4381148535043214 0.3114032795305388 0  0.5008574113965404 0.3111971431578929 0  0.5636982636043733 0.3109832507072586 0  0.6266788781033213 0.3107717586525422 0  0.6898558448930717 0.3105798772647018 0  0.7533034154595821 0.3104341507381603 0  0.8171126923635159 0.3103723156622236 0  0.881382773903454 0.3104433001165616 0  0.946197825705574 0.3107028829921498 0  1.011589719813261 0.311201952714213 0  0 0.375 0  0.06254221425458989 0.3748488397660959 0  0.1250880977361985 0.3746932363363215 0  0.1876417186394654 0.3745287559881058 0  0.2502081821398373 0.3743511026014734 0  0.3127943470548266 0.3741562905251356 0  0.3754098205613952 0.3739409701114037 0  0.4380683743008392 0.3737029993337308 0  0.5007899593271113 0.3734423968373739 0  0.5636035110440599 0.3731628663564042 0  0.6265506768564235 0.3728741392335828 0  0.6896903676575029 0.3725954042016032 0  0.7531034750465938 0.3723599872924044 0  0.8168960898863024 0.372221015377707 0  0.881198392843894 0.3722567516059954 0  0.9461566867958636 0.3725724517610236 0  1.011921930327531 0.3732934730205188 0  0 0.4375 0  0.06253684495914627 0.4373338979791728 0  0.1250763899847852 0.4371622664169904 0  0.1876216306072 0.4369794960797971 0  0.2501763485141817 0.4367799132454669 0  0.3127456928818241 0.4365578412318881 0  0.3753370434682731 0.4363078103695003 0  0.437961335416233 0.4360250276698074 0  0.5006351120721388 0.4357062891554774 0  0.5633836841236328 0.4353516313832238 0  0.6262458872626662 0.4349671855018806 0  0.6892809732355935 0.4345699072390986 0  0.7525779843491337 0.434195021969037 0  0.8162673320098975 0.4339068586187023 0  0.8805332377104442 0.4338126097585706 0  0.9456254256494667 0.4340756196096818 0  1.011873222644996 0.4349204472554308 0  0 0.5 0  0.06252885744076277 0.4998244784063071 0  0.1250590923226562 0.4996423840000822 0  0.1875922194866925 0.4994469461721824 0  0.2501301446865751 0.4992310489263522 0  0.3126755064209423 0.4989871149348017 0  0.3752322613956517 0.4987070940662737 0  0.4378067182548261 0.4983826602069848 0  0.5004093784963073 0.4980058118958126 0  0.5630582013766539 0.4975702389476844 0  0.6257843099800546 0.4970741113613931 0  0.6886417001043513 0.4965254368362652 0  0.7517230600130383 0.495951849715673 0  0.8151838787842532 0.4954174112430932 0  0.8792757522052635 0.4950486536021123 0  0.9443872267343039 0.4950680493598356 0  1.011092840173148 0.4958227360398693 0  0 0.5625 0  0.06251947809815259 0.5623216042898654 0  0.1250388408881475 0.5621357686429879 0  0.1875579119384545 0.5619347216853777 0  0.2500763977732233 0.5617100170110561 0  0.3125938899423875 0.5614521875594223 0  0.3751100045171296 0.5611504151054639 0  0.4376248428836323 0.5607922737416777 0  0.5001401645998637 0.5603636911074501 0  0.5626620693140134 0.5598494499671158 0  0.6252067452308065 0.5592349270939703 0  0.6878121608099147 0.5585105378994235 0  0.7505605618833135 0.5576818769694661 0  0.8136187530937882 0.5567912070055268 0  0.8773029922596812 0.5559591258629131 0  0.9421684212914028 0.5554535490099302 0  1.009111724780742 0.5557739930840964 0  0 0.625 0  0.0625100851283583 0.6248261173669277 0  0.1250186219007506 0.624644256451057 0  0.1875237888856812 0.6244459803550422 0  0.2500230938539083 0.624221851999113 0  0.3125129683042345 0.6239608419024872 0  0.3749883126507552 0.6236496260298372 0  0.4374420766416224 0.6232717488256644 0  0.4998651569387166 0.6228066644068827 0  0.5622473599361734 0.6222287796107766 0  0.624581224895938 0.6215069251675968 0  0.6868727239293393 0.6206054872459598 0  0.7491671859421212 0.6194905468135247 0  0.8116059323309633 0.6181497240655085 0  0.8745361800151974 0.6166462850276248 0  0.9386887255602051 0.6152427767635381 0  1.005405414476991 0.6146004214802311 0  0 0.6875 0  0.06250200304526088 0.6873385293354414 0  0.1250013279146565 0.6871690180796586 0  0.1874948373687714 0.6869828736777114 0  0.2499782261863977 0.6867702520423761 0  0.312445211380229 0.6865192556534874 0  0.374886426823781 0.6862148895635389 0  0.4372879193552459 0.6858376460735549 0  0.4996292239070375 0.6853615446496517 0  0.5618813095039171 0.6847514077993322 0  0.6240056517537638 0.6839591600726186 0  0.6859583371706934 0.6829192201878393 0  0.7477098570947053 0.6815444896885698 0  0.8093069776419025 0.6797303607807883 0  0.8710329243516562 0.6773968488025285 0  0.9337360711418168 0.6746737208047645 0  0.9992737827720033 0.6723628101267136 0  0 0.75 0  0.06249628420106487 0.7498588798367449 0  0.1249892746344732 0.7497102434558561 0  0.1874751033214439 0.7495459895656054 0  0.2499484147442552 0.7493566572569386 0  0.3124012589947335 0.7491305112502732 0  0.374821450128301 0.74885228744299 0  0.4371900520699635 0.7485013821131287 0  0.4994775090053559 0.7480491412935468 0  0.5616378170189678 0.7474546812185786 0  0.6236003262914547 0.746658260561798 0  0.6852603086294624 0.745570483725462 0  0.7464757596132533 0.7440544477025344 0  0.8070998500340824 0.7418974645504012 0  0.8671486061248519 0.7387796474400166 0  0.9273956756442432 0.734349231240111 0  0.9902074146206052 0.7294151027723854 0  0 0.8125 0  0.06249351564592046 0.8123866309283062 0  0.1249837632378987 0.8122669002525112 0  0.1874668930654478 0.8121339060501883 0  0.2499375298930644 0.8119794705889952 0  0.3123875838067573 0.8117932555699103 0  0.3748043934112977 0.8115615126684421 0  0.4371676822438533 0.8112652224646916 0  0.4994444177932911 0.8108772145502602 0  0.5615799586356645 0.8103575594955816 0  0.6234826904143865 0.8096459082740222 0  0.6849977220760701 0.8086480587586211 0  0.7458646854418195 0.8072104977591623 0  0.8056642916263294 0.8050671385616274 0  0.8638223142690289 0.8017169936766791 0  0.9200998409144775 0.7961297598331035 0  0.9790103031911627 0.7860128008569442 0  0 0.875 0  0.06249369602638793 0.8749206269706598 0  0.1249847926643379 0.8748366328699985 0  0.1874702218989736 0.8747429813046704 0  0.2499456754600196 0.8746336453658363 0  0.3124046094787974 0.8745009087767103 0  0.3748366397408306 0.8743343645893756 0  0.4372247986280288 0.8741194068540448 0  0.4995406342238806 0.8738348874172304 0  0.5617350956502379 0.8734494039216296 0  0.6237209047645327 0.8729153326237326 0  0.6853371784488218 0.8721590194886354 0  0.7462762819355376 0.8710635450715664 0  0.8059306186394362 0.8694323172146807 0  0.8630789128488869 0.8668845627958962 0  0.9153069425022055 0.8624760244524465 0  0.9582582652715378 0.8532642975940758 0  0 0.9375 0  0.06249622167953474 0.9374591394662272 0  0.1249910176381872 0.937415848561966 0  0.1874827051975187 0.9373674716507889 0  0.2499689172222519 0.9373108128926886 0  0.312446045970025 0.9372417519880442 0  0.3749083332334042 0.9371546907435624 0  0.437346283538336 0.93
[...]
<PointData  Vectors="f_54"> 
<DataArray  type="Float64"  Name="f_54"  NumberOfComponents="3" format="ascii">0.0000000000000000e+00 0.0000000000000000e+00 0.0000000000000000e+00  0.0000000000000000e+00 0.0000000000000000e+00 0.0000000000000000e+00  0.0000000000000000e+00 0.0000000000000000e+00 0.0000000000000000e+00  0.0000000000000000e+00 0.0000000000000000e+00 0.0000000000000000e+00  0.0000000000000000e+00 0.0000000000000000e+00 0.0000000000000000e+00  0.0000000000000000e+00 0.0000000000000000e+00 0.0000000000000000e+00  0.0000000000000000e+00 0.0000000000000000e+00 0.0000000000000000e+00  0.0000000000000000e+00 0.0000000000000000e+00 0.0000000000000000e+00  0.0000000000000000e+00 0.0000000000000000e+00 0.0000000000000000e+00  0.0000000000000000e+00 0.0000000000000000e+00 0.0000000000000000e+00  0.0000000000000000e+00 0.0000000000000000e+00 0.0000000000000000e+00  0.0000000000000000e+00 0.0000000000000000e+00 0.0000000000000000e+00  0.0000000000000000e+00 0.0000000000000000e+00 0.0000000000000000e+00  0.0000000000000000e+00 0.0000000000000000e+00 0.0000000000000000e+00  0.0000000000000000e+00 0.0000000000000000e+00 0.0000000000000000e+00  0.0000000000000000e+00 0.0000000000000000e+00 0.0000000000000000e+00  0.0000000000000000e+00 0.0000000000000000e+00 0.0000000000000000e+00  0.0000000000000000e+00 0.0000000000000000e+00 0.0000000000000000e+00  -4.1023028579808449e-06 -2.5079723589732121e-07 0.0000000000000000e+00  -8.3253012921667212e-06 -5.0408694047806076e-07 0.0000000000000000e+00  -1.2793607417809477e-05 -7.6180471848698859e-07 0.0000000000000000e+00  -1.7632274402706134e-05 -1.0242278938197436e-06 0.0000000000000000e+00  -2.2966319308082816e-05 -1.2889012625967787e-06 0.0000000000000000e+00  -2.8919252904893566e-05 -1.5492673858451321e-06 0.0000000000000000e+00  -3.5610511516300433e-05 -1.7929242169495487e-06 0.0000000000000000e+00  -4.3152219369153860e-05 -1.9994527614399656e-06 0.0000000000000000e+00  -5.1647180649536158e-05 -2.1377355442709761e-06 0.0000000000000000e+00  -6.1194059153883219e-05 -2.1624266891701359e-06 0.0000000000000000e+00  -7.1917368953528817e-05 -2.0080134341458628e-06 0.0000000000000000e+00  -8.4075577748561785e-05 -1.5741229390319325e-06 0.0000000000000000e+00  -9.8417823745252609e-05 -6.7770416906048934e-07 0.0000000000000000e+00  -1.1737590145244969e-04 1.1217103497474625e-06 0.0000000000000000e+00  -1.4931422378608076e-04 5.2055931451476232e-06 0.0000000000000000e+00  -2.2589230327387525e-04 1.6911738201420159e-05 0.0000000000000000e+00  0.0000000000000000e+00 0.0000000000000000e+00 0.0000000000000000e+00  -8.0819967531928307e-06 -4.9897804254448821e-07 0.0000000000000000e+00  -1.6405566273331702e-05 -1.0037383584256646e-06 0.0000000000000000e+00  -2.5220154058707725e-05 -1.5190364741587970e-06 0.0000000000000000e+00  -3.4776984011990584e-05 -2.0465102487007547e-06 0.0000000000000000e+00  -4.5328533086290921e-05 -2.5826185221231879e-06 0.0000000000000000e+00  -5.7125902567435754e-05 -3.1159630372132579e-06 0.0000000000000000e+00  -7.0413559034194822e-05 -3.6238249253074433e-06 0.0000000000000000e+00  -8.5421418650837407e-05 -4.0678224260165003e-06 0.0000000000000000e+00  -1.0235559046207731e-04 -4.3887296355065113e-06 0.0000000000000000e+00  -1.2139234748009313e-04 -4.5006612214112444e-06 0.0000000000000000e+00  -1.4268729014548642e-04 -4.2849145119837941e-06 0.0000000000000000e+00  -1.6642701672100994e-04 -3.5837193649070525e-06 0.0000000000000000e+00  -1.9297497285076026e-04 -2.1957604467195262e-06 0.0000000000000000e+00  -2.2315590284187383e-04 1.0606529898924270e-07 0.0000000000000000e+00  -2.5835064009625054e-04 3.3806328511136974e-06 0.0000000000000000e+00  -2.9710850538668305e-04 6.1470881391434622e-06 0.0000000000000000e+00  0.0000000000000000e+00 0.0000000000000000e+00 0.0000000000000000e+00  -1.1814750568971442e-05 -7.4101965642686863e-07 0.0000000000000000e+00  -2.3991478158148975e-05 -1.4925892707491951e-06 0.0000000000000000e+00  -3.6903996105406129e-05 -2.2639368614745458e-06 0.0000000000000000e+00  -5.0930849924191040e-05 -3.0601230392761776e-06 0.0000000000000000e+00  -6.6455562284467806e-05 -3.8791847441492665e-06 0.0000000000000000e+00  -8.3863578788214642e-05 -4.7082981869991951e-06 0.0000000000000000e+00  -1.0353464056921516e-04 -5.5186454238198907e-06 0.0000000000000000e+00  -1.2582928110648289e-04 -6.2587754499685952e-06 0.0000000000000000e+00  -1.5106825145374880e-04 -6.8465484106582569e-06 0.0000000000000000e+00  -1.7950375708828786e-04 -7.1604376654089397e-06 0.0000000000000000e+00  -2.1128022796128746e-04 -7.0324445577485937e-06 0.0000000000000000e+00  -2.4637469243895616e-04 -6.2481392439294837e-06 0.0000000000000000e+00  -2.8447343523701709e-04 -4.5670709981485847e-06 0.0000000000000000e+00  -3.2461942676020351e-04 -1.7957835719907173e-06 0.0000000000000000e+00  -3.6407857783501670e-04 2.0167814135172827e-06 0.0000000000000000e+00  -3.9493816230476295e-04 6.2220795783818665e-06 0.0000000000000000e+00  0.0000000000000000e+00 0.0000000000000000e+00 0.0000000000000000e+00  -1.5177446207557887e-05 -9.7194399274627508e-07 0.0000000000000000e+00  -3.0835307498594017e-05 -1.9611576274321516e-06 0.0000000000000000e+00  -4.7469797595888833e-05 -2.9835543665146335e-06 0.0000000000000000e+00  -6.5587127489029107e-05 -4.0504638103546343e-06 0.0000000000000000e+00  -8.5705824571053642e-05 -5.1653053315429696e-06 0.0000000000000000e+00  -1.0835472055162469e-04 -6.3188829321484663e-06 0.0000000000000000e+00  -1.3406452545632061e-04 -7.4827398768014539e-06 0.0000000000000000e+00  -1.6335025575230766e-04 -8.6000332570632908e-06 0.0000000000000000e+00  -1.9668070281722263e-04 -9.5736404301900874e-06 0.0000000000000000e+00  -2.3442888076882459e-04 -1.0252014143356341e-05 0.0000000000000000e+00  -2.7679184186166851e-04 -1.0415301814396774e-05 0.0000000000000000e+00  -3.2365376800872744e-04 -9.7686404342382990e-06 0.0000000000000000e+00  -3.7432990347720740e-04 -7.9583778354426265e-06 0.0000000000000000e+00  -4.2704818628417496e-04 -4.6427639005426692e-06 0.0000000000000000e+00  -4.7789456284711140e-04 3.3002891452439585e-07 0.0000000000000000e+00  -5.1895647430699255e-04 6.5767246493285023e-06 0.0000000000000000e+00  0.0000000000000000e+00 0.0000000000000000e+00 0.0000000000000000e+00  -1.8050071921171623e-05 -1.1848692797904824e-06 0.0000000000000000e+00  -3.6694360510722422e-05 -2.3958403644236362e-06 0.0000000000000000e+00  -5.6546839711639913e-05 -3.6579612667420304e-06 0.0000000000000000e+00  -7.8239598652809936e-05 -4.9921330568024719e-06 0.0000000000000000e+00  -1.0242899898293341e-04 -6.4118052503866802e-06 0.0000000000000000e+00  -1.2979695971390969e-04 -7.9179311354221934e-06 0.0000000000000000e+00  -1.6104469428220817e-04 -9.4912851386674308e-06 0.0000000000000000e+00  -1.9687513235845173e-04 -1.1081014717937246e-05 0.0000000000000000e+00  -2.3795857187824769e-04 -1.2588169206097308e-05 0.0000000000000000e+00  -2.8487324298316315e-04 -1.3843237769568284e-05 0.0000000000000000e+00  -3.3800704462738027e-04 -1.4578155108537088e-05 0.0000000000000000e+00  -3.9739588386188818e-04 -1.4397187970819195e-05 0.0000000000000000e+00  -4.6245352191255190e-04 -1.2759789395763521e-05 0.0000000000000000e+00  -5.3151740728436564e-04 -9.0039705334391631e-06 0.0000000000000000e+00  -6.0112470493815426e-04 -2.4587259406189870e-06 0.0000000000000000e+00  -6.6507248268544723e-04 7.2981632844757946e-06 0.0000000000000000e+00  0.0000000000000000e+00 0.0000000000000000e+00 0.0000000000000000e+00  -2.0318702682099533e-05 -1.3708797332690295e-06 0.0000000000000000e+00  -4.1336687321858240e-05 -2.7785529931844080e-06 0.0000000000000000e+00  -6.3776920866812688e-05 -4.2594444549352539e-06 0.0000000000000000e+00  -8.8391669282931960e-05 -5.8472909061259230e-06 0.0000000000000000e+00  -1.1597454049675251e-04 -7.5705283634158782e-06 0.0000000000000000e+00  -1.4736788391576608e-04 -9.4477602751424781e-06 0.0000000000000000e+00  -1.8346264738372520e-04 -1.1480076868617305e-05 0.0000000000000000e+00  -2.2518645133660667e-04 -1.3638376612586959e-05 0.0000000000000000e+00  -2.7347381155803490e-04 -1.5842991076932841e-05 0.0000000000000000e+00  -3.2921002735597656e-04 -1.7931967731028648e-05 0.0000000000000000e+00  -3.9313711369614646e-04 -1.9613893315314665e-05 0.0000000000000000e+00  -4.6570617793142006e-04 -2.0402721102820558e-05 0.0000000000000000e+00  -5.4685641938655323e-04 -1.9539012637335572e-05 0.0000000000000000e+00  -6.3570117055135225e-04 -1.5919121062110391e-05 0.0000000000000000e+00  -7.3012588301480524e-04 -8.0829751422512793e-06 0.0000000000000000e+00  -8.2640451567369763e-04 5.6596349609864899e-06 0.0000000000000000e+00  0.0000000000000000e+00 0.0000000000000000e+00 0.0000000000000000e+00  -2.1879756850211709e-05 -1.5193074506250353e-06 0.0000000000000000e+00  -4.4549508097692287e-05 -3.0872243966549583e-06 0.0000000000000000e+00  -6.8826748774259293e-05 -4.7530471786662091e-06 0.0000000000000000e+00  -9.5572242061532710e-05 -6.5659030090748543e-06 0.0000000000000000e+00  -1.2570998720309127e-04 -8.5736224935251483e-06 0.0000000000000000e+00  -1.6024373612128493e-04 -1.0819887038123900e-05 0.0000000000000000e+00  -2.0026735228893808e-04 -1.3338274122343018e-05 0.0000000000000000e+00  -2.4696478408538084e-04 -1.6140808273046490e-05 0.0000000000000000e+00  -3.0159352280741174e-04 -1.9196890742846294e-05 0.0000000000000000e+00  -3.6544352112154253e-04 -2.2395696103352879e-05 0.0000000000000000e+00  -4.3976275069259815e-04 -2.5481178191765175e-05 0.0000000000000000e+00  -5.2564323779863799e-04 -2.7944744161121439e-05 0.0000000000000000e+00  -6.2387166795226220e-04 -2.8860693979816746e-05 0.0000000000000000e+00  -7.3477203861989024e-04 -2.6663623120899909e-05 0.0000000000000000e+00  -8.5810974978385904e-04 -1.8905995800249648e-05 0.0000000000000000e+00  -9.9319483107039499e-04 -2.0808627247832731e-06 0.0000000000000000e+00  0.0000000000000000e+00 0.0000000000000000e+00 0.0000000000000000e+00  -2.2645553349868687e-05 -1.6184866711756866e-06 0.0000000000000000e+00  -4.6150485418485400e-05 -3.2973022937550053e-06 0.0000000000000000e+00  -7.1405219903308736e-05 -5.0987918274182186e-06 0.0000000000000000e+00  -9.9359304102009384e-05 -7.0885253867800339e-06 0.0000000000000000e+00  -1.3105097247604261e-04 -9.3364215904961799e-06 0.0000000000000000e+00  -1.6763553705116338e-04 -1.1916864970970333e-05 0.0000000000000000e+00  -2.1041054837611287e-04 -1.4906692792849307e-05 0.0000000000000000e+00  -2.6083392578515148e-04 -1.8378747104452274e-05 0.0000000000000000e+00  -3.2052897756937841e-04 -2.2386326260494673e-05 0.0000000000000000e+00  -3.9126804359066402e-04 -2.6929261105944204e-05 0.0000000000000000e+00  -4.7492648337658412e-04 -3.1883811613222422e-05 0.0000000000000000e+00  -5.7340609031674317e-04 -3.6864458523578140e-05 0.0000000000000000e+00  -6.8855196277504667e-04 -4.0967709077900626e-05 0.0000000000000000e+00  -8.2214327998717993e-04 -4.2341004879369552e-05 0.0000000000000000e+00  -9.7612968370181809e-04 -3.7558863379971441e-05 0.0000000000000000e+00  -1.1533779301904055e-03 -2.0874054724581963e-05 0.0000000000000000e+00  0.0000000000000000e+00 0.0000000000000000e+00 0.0000000000000000e+00  -2.2550964915329437e-05 -1.6569730799144255e-06 0.0000000000000000e+00  -4.6001497909756342e-05 -3.3842913426741481e-06 0.0000000000000000e+00  -7.1285221246808817e-05 -5.2557243232434091e-06 0.0000000000000000e+00  -9.9411032188843849e-05 -7.3520734974506946e-06 0.0000000000000000e+00  -1.3150315040123101e-04 -9.7650397728233732e-06 0.0000000000000000e+00  -1.6884341458636693e-04 -1.2601326890012421e-05 0.0000000000000000e+00  -2.1291500558793264e-04 -1.5986639953739207e-05 0.0000000000000000e+00  -2.6544480045831003e-04 -2.0068398950474251e-05 0.0000000000000000e+00  -3.2843848045290453e-04 -2.5013902912285055e-05 0.0000000000000000e+00  -4.0419860818550238e-04 -3.0995625653004940e-05 0.0000000000000000e+00  -4.9531344269205071e-04 -3.8143471846727018e-05 0.0000000000000000e+00  -6.0461120236618058e-04 -4.6417627737084061e-05 0.0000000000000000e+00  -7.3511173906589235e-04 -5.5304406195242770e-05 0.0000000000000000e+00  -8.9011687370210083e-04 -6.3164118356753496e-05 0.0000000000000000e+00  -1.0738064049820510e-03 -6.6039648672434800e-05 0.0000000000000000e+00  -1.2931026925509174e-03 -5.5868863236418065e-05 0.0000000000000000e+00  0.0000000000000000e+00 0.0000000000000000e+00 0.0000000000000000e+00  -2.1560692265642986e-05 -1.6251202089176001e-06 0.0000000000000000e+00  -4.4024000862190586e-05 -3.3271271150860087e-06 0.0000000000000000e+00  -6.8328669573651095e-05 -5.1875499561819379e-06 0.0000000000000000e+00  -9.5502880308581206e-05 -7.2984576901771173e-06 0.0000000000000000e+00  -1.2671441320257832e-04 -9.7690236667727321e-06 0.0000000000000000e+00  -1.6332754208225821e-04 -1.2733831679413101e-05 0.0000000000000000e+00  -2.0696788610894497e-04 -1.6363787911374737e-05 0.0000000000000000e+00  -2.5959453910816494e-04 -2.0880619227531217e-05 0.0000000000000000e+00  -3.2357487072704833e-04 -2.6575558187480323e-05 0.0000000000000000e+00  -4.0175044587398279e-04 -3.3830429481376569e-05 0.0000000000000000e+00  -4.9747300007091865e-04 -4.3130217859234263e-05 0.0000000000000000e+00  -6.1458487743835629e-04 -5.5026496940756839e-05 0.0000000000000000e+00  -7.5735070745865714e-04 -6.9924725714603730e-05 0.0000000000000000e+00  -9.3051358261742490e-04 -8.7357413813338871e-05 0.0000000000000000e+00  -1.1400908385499472e-03 -1.0413116467010157e-04 0.0000000000000000e+00  -1.3957495445841878e-03 -1.1097438032012736e-04 0.0000000000000000e+00  0.0000000000000000e+00 0.0000000000000000e+00 0.0000000000000000e+00  -1.9676399240360280e-05 -1.5167898160327168e-06 0.0000000000000000e+00  -4.0214445717093081e-05 -3.1119203129164327e-06 0.0000000000000000e+00  -6.2512492589561684e-05 -4.8691211463570125e-06 0.0000000000000000e+00  -8.7567650503070013e-05 -6.8850630761599552e-06 0.0000000000000000e+00  -1.1653389891150520e-04 -9.2778706296270261e-06 0.0000000000000000e+00  -1.5079207263807932e-04 -1.2198636854850935e-05 0.0000000000000000e+00  -1.9203598473257509e-04 -1.5847974259084035e-05 0.0000000000000000e+00  -2.4237801444134020e-04 -2.0500999122448675e-05 0.0000000000000000e+00  -3.0447385146172983e-04 -2.6546570499499712e-05 0.0000000000000000e+00  -3.8165658845807997e-04 -3.4550429069425246e-05 0.0000000000000000e+00  -4.7805038492414350e-04 -4.5355723488809995e-05 0.0000000000000000e+00  -5.9860170305762778e-04 -6.0227833242221184e-05 0.0000000000000000e+00  -7.4894672588391874e-04 -8.0983867423672462e-05 0.0000000000000000e+00  -9.3519363985367131e-04 -1.0971316351856103e-04 0.0000000000000000e+00  -1.1648589864621099e-03 -1.4642141467448381e-04 0.0000000000000000e+00  -1.4517006188251660e-03 -1.8480834434008819e-04 0.0000000000000000e+00  0.0000000000000000e+00 0.0000000000000000e+00 0.0000000000000000e+00  -1.6942684280156445e-05 -1.3308811970327036e-06 0.0000000000000000e+00  -3.4657627610622988e-05 -2.7353724005641815e-06 0.0000000000000000e+00  -5.3952196464572524e-05 -4.2925426890968270e-06 0.0000000000000000e+00  -7.5733907739887124e-05 -6.0950461997723226e-06 0.0000000000000000e+00  -1.0107206180302633e-04 -8.2582207309736377e-06 0.0000000000000000e+00  -1.3127604042968105e-04 -1.0932646492976953e-05 0.0000000000000000e+00  -1.6799834405953516e-04 -1.4322648325558186e-05 0.0000000000000000e+00  -2.1337197039407322e-04 -1.8715268421264599e-05 0.0000000000000000e+00  -2.7019135293579753e-04 -2.4528733191755023e-05 0.0000000000000000e+00  -3.4213893770027525e-04 -3.2399578879969532e-05 0.0000000000000000e+00  -4.3403407305112545e-04 -4.3350176081424374e-05 0.0000000000000000e+00  -5.5201384418481012e-04 -5.9125099960270090e-05 0.0000000000000000e+00  -7.0341222559942580e-04 -8.2862552182981204e-05 0.0000000000000000e+00  -8.9589779698902902e-04 -1.2028122640723158e-04 0.0000000000000000e+00  -1.1359170786438171e-03 -1.8025664276641467e-04 0.0000000000000000e+00  -1.4451042817226827e-03 -2.4930914528870118e-04 0.0000000000000000e+00  0.0000000000000000e+00 0.0000000000000000e+00 0.0000000000000000e+00  -1.3450670903243274e-05 -1.0723417655744561e-06 0.0000000000000000e+00  -2.7535331753371278e-05 -2.2070824623526835e-06 0.0000000000000000e+00  -4.2918644914007408e-05 -3.4714222156970955e-06 0.0000000000000000e+00  -6.0356242838759046e-05 -4.9447865523454548e-06 0.0000000000000000e+00  -8.0753050173319835e-05 -6.7269298345899927e-06 0.0000000000000000e+00  -1.0524097857709187e-04 -8.9489168743190045e-06 0.0000000000000000e+00  -1.3528750476469401e-04 -1.1788749294098406e-05 0.0000000000000000e+00  -1.7285189342277751e-04 -1.5494629023858331e-05 0.0000000000000000e+00  -2.2061255459490908e-04 -2.0421908175571733e-05 0.0000000000000000e+00  -2.8229426331888226e-04 -2.7098533635932179e-05 0.0000000000000000e+00  -3.6311576635916369e-04 -3.6360517776300904e-05 0.0000000000000000e+00  -4.7031850278796031e-04 -4.9680189946282578e-05 0.0000000000000000e+00  -6.1351815149736767e-04 -7.0047789473555257e-05 0.0000000000000000e+00  -8.0394666818278920e-04 -1.0446705596487289e-04 0.0000000000000000e+00  -1.0493335494058632e-03 -1.7190130956009475e-04 0.0000000000000000e+00  -1.3195076899634387e-03 -3.4980597433534723e-04 0.0000000000000000e+00  0.0000000000000000e+00 0.0000000000000000e+00 0.0000000000000000e+00  -9.3379627771815507e-06 -7.5239887978253313e-07 0.0000000000000000e+00  -1.9127435580745967e-05 -1.5501269165336172e-06 0.0000000000000000e+00  -2.9842967153963161e-05 -2.4420434634715618e-06 0.0000000000000000e+00  -4.2029079925602846e-05 -3.4861198799563029e-06 0.0000000000000000e+00  -5.6346710837448716e-05 -4.7552895293371577e-06 0.0000000000000000e+00  -7.3637577754876520e-05 -6.3449360910919215e-06 0.0000000000000000e+00  -9.5018813304450239e-05 -8.3823279120843456e-06 0.0000000000000000e+00  -1.2202829990562479e-04 -1.1037402224061217e-05 0.0000000000000000e+00  -1.5685519859850525e-04 -1.4531702400491557e-05 0.0000000000000000e+00  -2.0271349047151511e-04 -1.9136327595285827e-05 0.0000000000000000e+00  -2.6445097817565620e-04 -2.5140781648581252e-05 0.0000000000000000e+00  -3.4952336827882499e-04 -3.2781318445289503e-05 0.0000000000000000e+00  -4.6945228340151279e-04 -4.2241648827555266e-05 0.0000000000000000e+00  -6.4163368162012185e-04 -5.4407559957715290e-05 0.0000000000000000e+00  -8.9014352981204865e-04 -7.4521407919255937e-05 0.0000000000000000e+00  -1.2406009757056954e-03 -1.2253104783809326e-04 0.0000000000000000e+00  0.0000000000000000e+00 0.0000000000000000e+00 0.0000000000000000e+00  -4.7839425243444169e-06 -3.8791982853816281e-07 0.0000000000000000e+00  -9.8029837187812350e-06 -7.9969005281379057e-07 0.0000000000000000e+00  -1.5304685668532759e-05 -1.2610205758428629e-06 0.0000000000000000e+00  -2.1574928457963819e-05 -1.8024522765357854e-06 0.0000000000000000e+00  -2.8963985094245830e-05 -2.4623459650388486e-06 0.0000000000000000e+00  -3.7923700043579267e-05 -3.2904191491857240e-06 0.0000000000000000e+00  -4.9064180281774782e-05 -4.3512768269028395e-06 0.0000000000000000e+00  -6.3244984419257177e-05 -5.7253094800077103e-06 0.0000000000000000e+00  -8.1728369252629545e-05 -7.4976578396731501e-06 0.0000000000000000e+00  -1.0644504791017316e-04 -9.7048324624413999e-06 0.0000000000000000e+00  -1.4045674073952263e-04 -1.2142595815013327e-05 0.0000000000000000e+00  -1.8870345838608576e-04 -1.3740386906045677e-05 0.0000000000000000e+00  -2.5881861539575976e-04 -1.0689145742843079e-05 0.0000000000000000e+00  -3.5993423336095362e-04 8.2085336191891089e-06 0.0000000000000000e+00  -4.9118485970939230e-04 6.7032113458041754e-05 0.0000000000000000e+00  -6.1272105796128561e-04 1.8173042159467295e-04 0.0000000000000000e+00  0.0000000000000000e+00 0.0000000000000000e+00 0.0000000000000000e+00  0.0000000000000000e+00 0.0000000000000000e+00 0.0000000000000000e+00  0.0000000000000000e+00 0.0000000000000000e+00 0.0000000000000000e+00  0.0000000000000000e+00 0.0000000000000000e+00 0.0000000000000000e+00  0.0000000000000000e+00 0.0000000000000000e+00 0.0000000000000000e+00  0.0000000000000000e+00 0.000000000000