<?xml version="1.0"?>
<VTKFile type="UnstructuredGrid"  version="0.1"  >
<UnstructuredGrid>
<Piece  NumberOfPoints="289" NumberOfCells="512">
<Points>
<DataArray  type="Float64"  NumberOfComponents="3"  format="ascii">0 0 0  0.0625 0 0  0.125 0 0  0.1875 0 0  0.25 0 0  0.3125 0 0  0.375 0 0  0.4375 0 0  0.5 0 0  0.5625 0 0  0.625 0 0  0.6875 0 0  0.75 0 0  0.8125 0 0  0.875 0 0  0.9375 0 0  1 0 0  0 0.0625 0  0.06249816776703032 0.06247050209072701 0  0.1249972713963663 0.06244049031035328 0  0.1874983687729508 0.06240948914224644 0  0.2500028610517028 0.06237713369696055 0  0.3125127177172398 0.06234324034810412 0  0.3750307778890901 0.06230789389585988 0  0.4375611764063009 0.06227155086842656 0  0.5001099800966285 0.06223514985195493 0  0.5626862052085223 0.0622002034601124 0  0.6253035979230028 0.06216881753435736 0  0.68798411196662 0.0621435317903313 0  0.7507655509231023 0.06212677839529307 0  0.8137203543963356 0.06211953012902461 0  0.8770064951263282 0.06211804429442969 0  0.9410170392369862 0.06210531075194491 0  1.006853941996786 0.0620272933421742 0  0 0.125 0  0.06249538977139161 0.1249414911471553 0  0.1249925050372172 0.1248818981223778 0  0.1874933058394682 0.1248202078766625 0  0.2500004124567039 0.1247556162912313 0  0.3125175400781657 0.1246876660206383 0  0.3750500803045985 0.1246164224213596 0  0.4376059152124335 0.1245426915388233 0  0.5001966018202847 0.1244682699393055 0  0.5628391726695979 0.1243961886730472 0  0.6255590282683927 0.124330864951097 0  0.6883948887686097 0.1242779975024847 0  0.7514077751850251 0.1242439403637848 0  0.8146977350914638 0.124234242371778 0  0.8784334941664066 0.1242514579827493 0  0.9428925950338852 0.1242950871578966 0  1.008448668443845 0.1243788395110961 0  0 0.1875 0  0.06249094325180318 0.1874135519317005 0  0.1249841046638862 0.1873253470437766 0  0.1874820233293729 0.1872337205025015 0  0.2499881461028353 0.1871372875809909 0  0.3125074281003547 0.1870351387949688 0  0.3750471348577493 0.1869271021651759 0  0.4376179499178423 0.1868140891193215 0  0.5002355318813935 0.1866985269240951 0  0.5629227290462131 0.186584849943836 0  0.625712755327449 0.1864799611366747 0  0.6886537386731497 0.1863934636190746 0  0.7518150132775774 0.186337266172358 0  0.8152946570251629 0.1863238050610062 0  0.8792238269879747 0.1863612792701125 0  0.943750833845406 0.1864414678952596 0  1.00896029311039 0.1865040231438202 0  0 0.25 0  0.06248440450890196 0.2498873697960685 0  0.1249711054553103 0.2497721759766746 0  0.1874627668111169 0.2496519485565676 0  0.2499631024937731 0.2495245237550042 0  0.3124775791746579 0.2493882758114537 0  0.3750143608162306 0.2492424510894803 0  0.4375856070007108 0.2490876430488494 0  0.5002092576703457 0.248926442443684 0  0.5629114441105006 0.2487642771564757 0  0.6257296210323563 0.2486104026726829 0  0.6887163146326282 0.2484788862567226 0  0.751942768468353 0.2483891931696195 0  0.8155001606852246 0.2483655482151048 0  0.8794924383496804 0.2484335075146396 0  0.9440085539921772 0.2486112778024034 0  1.009057699623116 0.2488946362193821 0  0 0.3125 0  0.06247574891710085 0.3123637605577064 0  0.1249533914772727 0.3122240074930291 0  0.1874351858149046 0.3120772956387495 0  0.2499244496529279 0.3119204473096338 0  0.3124262886494461 0.3117507852773652 0  0.3749485971235917 0.3115665027873291 0  0.4375034569311104 0.3113672386237049 0  0.5001090759477383 0.3111549407649745 0  0.5627923926230048 0.3109351112483731 0  0.6255923713808139 0.3107185090207265 0  0.688563711751313 0.3105233076083619 0  0.7517799922904741 0.3103774863433889 0  0.8153339105757218 0.3103207606357833 0  0.8793302555948864 0.3104045114671535 0  0.9438659836389616 0.3106870583598384 0  1.008996911531472 0.3112210107414713 0  0 0.375 0  0.06246540036960412 0.3748436774780993 0  0.1249318078247688 0.3746827707257662 0  0.1874005351106627 0.3745127058538742 0  0.2498738129250474 0.3743290555366394 0  0.3123554552480848 0.3741277208752177 0  0.3748518180205283 0.373905272794345 0  0.4373732043904349 0.3736595508240534 0  0.4999359088026324 0.3733906613364766 0  0.5625651129444509 0.3731025750714242 0  0.6252987981643696 0.3728055842583665 0  0.6881926218049329 0.3725199042868321 0  0.7513251663743377 0.3722805938485831 0  0.8148019904998852 0.3721435146143534 0  0.8787557591651318 0.3721909464899443 0  0.9433399471107063 0.3725335312339232 0  1.008719092692716 0.3733029909206189 0  0 0.4375 0  0.0624542215738333 0.4373281868196739 0  0.1249081496221297 0.4371506597260616 0  0.1873616798161975 0.4369616221152328 0  0.2498153246991815 0.436755212538073 0  0.3122707150380108 0.4365255696662199 0  0.3747313935730341 0.4362670517300411 0  0.4372040898684496 0.4359747265456417 0  0.4997007564740428 0.4356453236104587 0  0.562241765137711 0.4352789596061648 0  0.6248607825356904 0.4348821256894781 0  0.6876118915367451 0.4344726498039996 0  0.7505793330460103 0.4340875291653933 0  0.8138895844388284 0.4337943656215185 0  0.8777243542581471 0.4337059547586761 0  0.9423326517835077 0.4339945098779521 0  1.008044560530977 0.4348974806000451 0  0 0.5 0  0.06244344094987882 0.4998184053254168 0  0.1248850178674117 0.4996300109536571 0  0.1873228865429459 0.4994278116075576 0  0.2497553684350336 0.4992044439084224 0  0.3121811785923403 0.4989520656283226 0  0.374599899477425 0.4986623427297482 0  0.4370129113378008 0.4983266518501904 0  0.4994251494377073 0.4979367017258843 0  0.5618483231385428 0.4974859520632401 0  0.6243066380304501 0.4969725189719482 0  0.6868466044772438 0.4964047769513929 0  0.7495530345890686 0.495811635815874 0  0.812573312856924 0.4952602563453415 0  0.8761505654155176 0.494883656030024 0  0.9406634624481819 0.4949164828811154 0  1.006672303414104 0.4957265836282053 0  0 0.5625 0  0.0624345166292865 0.562315397726442 0  0.1248655400414846 0.5621230927948064 0  0.1872893894716258 0.5619150383400249 0  0.2497019859722297 0.561682486083923 0  0.312098704329076 0.5614156260337632 0  0.37447435265915 0.561103240085051 0  0.4368234650205605 0.5607324293352333 0  0.4991413050023802 0.5602885625833175 0  0.5614263930575747 0.5597557794351226 0  0.623686140399734 0.5591187733067055 0  0.6859484929562377 0.558367392715396 0  0.7482844393957255 0.5575072140169177 0  0.8108482122510027 0.5565820857109852 0  0.8739414792254069 0.5557180948651059 0  0.9381001471586368 0.5551968293941895 0  1.00418965270694 0.5555462862552164 0  0 0.625 0  0.06242894480069042 0.6248200402277281 0  0.1248529660186937 0.6246318166592189 0  0.1872667353714265 0.6244265898927849 0  0.2496639248276541 0.6241945815722922 0  0.3120366169099733 0.6239243579632722 0  0.3743746407109136 0.623602097039327 0  0.4366649127485838 0.6232107108012063 0  0.498891064565159 0.6227288316905937 0  0.5610341161566459 0.6221297834618262 0  0.6230760197874333 0.621380966811144 0  0.685010141220032 0.6204449263597159 0  0.7468670676364234 0.6192855822415242 0  0.808771117586238 0.6178887590725572 0  0.8710493739965804 0.6163187467428669 0  0.9344055679822606 0.6148483315175625 0  1.000138107755776 0.6141701525618187 0  0 0.6875 0  0.06242802962865465 0.6873328658329709 0  0.1248501710831071 0.687157401526537 0  0.1872599455880344 0.6869647055136648 0  0.2496493474697964 0.6867445776731715 0  0.3120078243476106 0.6864846865555162 0  0.3743209198081037 0.6861694836404488 0  0.4365684603737516 0.6857787279371076 0  0.498722251633648 0.6852854349263645 0  0.560743573422552 0.6846530087606194 0  0.6225817554512906 0.6838313081007521 0  0.6841778198601085 0.6827516619625422 0  0.7454840051300115 0.6813223010348591 0  0.8065256905174478 0.6794318053457915 0  0.8675613328750004 0.6769919826867719 0  0.9294057770332191 0.6741307444363182 0  0.9938554979891543 0.6716675121799962 0  0 0.75 0  0.06243264474109503 0.7498539169228458 0  0.1248591278426025 0.7497000465928545 0  0.1872725893199688 0.7495299971748031 0  0.2496643209584025 0.7493339683194904 0  0.3120224394098103 0.7490998038404435 0  0.3743299670307291 0.7488116924836332 0  0.4365619554233082 0.7484482913641706 0  0.4986811363541181 0.7479799124803032 0  0.5606314660960903 0.7473641708629879 0  0.6223291451573949 0.746539045875467 0  0.6836523209114086 0.7454114831833905 0  0.7444372162326583 0.7438383257251671 0  0.8045107583591853 0.7415955846052779 0  0.8638602707213694 0.7383425867030602 0  0.9232299391486039 0.7336944383101881 0  0.9848889321930532 0.7285039742230882 0  0 0.8125 0  0.06244302875331071 0.8123826362560633 0  0.1248804409170515 0.8122586818188892 0  0.1873059308440624 0.8121209886729562 0  0.249711341841686 0.811961089333218 0  0.3120852705716975 0.8117682834315471 0  0.3744109377925427 0.811528349778911 0  0.4366627679873458 0.8112216311113881 0  0.4988007123743706 0.8108200743840694 0  0.5607606256045538 0.8102824969991104 0  0.6224378085078655 0.8095467037693413 0  0.6836592346325239 0.808515588986786 0  0.7441396566854118 0.8070305378831776 0  0.8034271118627963 0.8048150641554938 0  0.860909437170155 0.8013436142562346 0  0.916320291993693 0.7955184595673653 0  0.9742587852732386 0.7847650194568216 0  0 0.875 0  0.06245866371389944 0.8749178262056951 0  0.124913058337479 0.874830865253054 0  0.1873583659613525 0.8747339022481133 0  0.2497882790239029 0.8746206994426167 0  0.3121938414266596 0.8744832769342775 0  0.374561619454838 0.8743108856627998 0  0.4368706326790351 0.8740884676696695 0  0.4990869585584626 0.8737942792155545 0  0.5611538440828306 0.8733961568763519 0  0.6229728429994266 0.872845578017369 0  0.6843664611325967 0.8720680033724389 0  0.7450019136730546 0.8709459754763202 0  0.8042333964178273 0.8692828625839197 0  0.8607829503081696 0.8666960125925847 0  0.9121591528311339 0.8622253179536258 0  0.9539232504422385 0.8528625802535487 0  0 0.9375 0  0.06247827899072173 0.9374576960418183 0  0.1249542636058415 0.9374128744165837 0  0.187425359230738 0.9373627856810389 0  0.2498881504393284 0.9373041231094608 0  0.3123377531982964 0.9372326280868993 0  0.374766775702266 0.9371425248014352 0  0.4371635366664899 0.937025675844
[...]
<PointData  Vectors="f_54"> 
<DataArray  type="Float64"  Name="f_54"  NumberOfComponents="3" format="ascii">0.0000000000000000e+00 0.0000000000000000e+00 0.0000000000000000e+00  0.0000000000000000e+00 0.0000000000000000e+00 0.0000000000000000e+00  0.0000000000000000e+00 0.0000000000000000e+00 0.0000000000000000e+00  0.0000000000000000e+00 0.0000000000000000e+00 0.0000000000000000e+00  0.0000000000000000e+00 0.0000000000000000e+00 0.0000000000000000e+00  0.0000000000000000e+00 0.0000000000000000e+00 0.0000000000000000e+00  0.0000000000000000e+00 0.0000000000000000e+00 0.0000000000000000e+00  0.0000000000000000e+00 0.0000000000000000e+00 0.0000000000000000e+00  0.0000000000000000e+00 0.0000000000000000e+00 0.0000000000000000e+00  0.0000000000000000e+00 0.0000000000000000e+00 0.0000000000000000e+00  0.0000000000000000e+00 0.0000000000000000e+00 0.0000000000000000e+00  0.0000000000000000e+00 0.0000000000000000e+00 0.0000000000000000e+00  0.0000000000000000e+00 0.0000000000000000e+00 0.0000000000000000e+00  0.0000000000000000e+00 0.0000000000000000e+00 0.0000000000000000e+00  0.0000000000000000e+00 0.0000000000000000e+00 0.0000000000000000e+00  0.0000000000000000e+00 0.0000000000000000e+00 0.0000000000000000e+00  0.0000000000000000e+00 0.0000000000000000e+00 0.0000000000000000e+00  0.0000000000000000e+00 0.0000000000000000e+00 0.0000000000000000e+00  -3.4834026746530507e-06 -2.1021733340434558e-07 0.0000000000000000e+00  -7.0756949326793150e-06 -4.2315115590428288e-07 0.0000000000000000e+00  -1.0890163524474685e-05 -6.4113223566990473e-07 0.0000000000000000e+00  -1.5042587974698114e-05 -8.6525420886666602e-07 0.0000000000000000e+00  -1.9652175383534716e-05 -1.0945437534408598e-06 0.0000000000000000e+00  -2.4842023322088598e-05 -1.3248643747409969e-06 0.0000000000000000e+00  -3.0739247686021844e-05 -1.5474606113144891e-06 0.0000000000000000e+00  -3.7475555899682565e-05 -1.7470379352468083e-06 0.0000000000000000e+00  -4.5190785199077076e-05 -1.8992033675044240e-06 0.0000000000000000e+00  -5.4046679646157208e-05 -1.9667698932548344e-06 0.0000000000000000e+00  -6.4271725366306051e-05 -1.8931599234239547e-06 0.0000000000000000e+00  -7.6298893766533921e-05 -1.5864343907520748e-06 0.0000000000000000e+00  -9.1191666195142957e-05 -8.7001091276270247e-07 0.0000000000000000e+00  -1.1202396428271931e-04 6.9103087988768145e-07 0.0000000000000000e+00  -1.4870899234245677e-04 4.4577152680509546e-06 0.0000000000000000e+00  -2.3728973390611975e-04 1.5616181904840550e-05 0.0000000000000000e+00  0.0000000000000000e+00 0.0000000000000000e+00 0.0000000000000000e+00  -6.8544335890188496e-06 -4.1750409054067181e-07 0.0000000000000000e+00  -1.3925595736625491e-05 -8.4102716887411434e-07 0.0000000000000000e+00  -2.1438899562654832e-05 -1.2758906061007700e-06 0.0000000000000000e+00  -2.9625259860599722e-05 -1.7251183324776491e-06 0.0000000000000000e+00  -3.8723175785989587e-05 -2.1878674544948957e-06 0.0000000000000000e+00  -4.8979714021864129e-05 -2.6573233638763366e-06 0.0000000000000000e+00  -6.0650303844372795e-05 -3.1178750579347020e-06 0.0000000000000000e+00  -7.3997896334456517e-05 -3.5414037677201376e-06 0.0000000000000000e+00  -8.9293688678646757e-05 -3.8825515412920283e-06 0.0000000000000000e+00  -1.0682559308782929e-04 -4.0728451791648011e-06 0.0000000000000000e+00  -1.2692978200758682e-04 -4.0134135586328164e-06 0.0000000000000000e+00  -1.5008018412913414e-04 -3.5656935544031357e-06 0.0000000000000000e+00  -1.7710468445654388e-04 -2.5406568633111677e-06 0.0000000000000000e+00  -2.0960826910875664e-04 -7.0436651924925244e-07 0.0000000000000000e+00  -2.5032937052567956e-04 2.0544025629956152e-06 0.0000000000000000e+00  -3.0007908776315126e-04 4.4294888669969872e-06 0.0000000000000000e+00  0.0000000000000000e+00 0.0000000000000000e+00 0.0000000000000000e+00  -1.0002282106877069e-05 -6.1836253403897296e-07 0.0000000000000000e+00  -2.0326649444215760e-05 -1.2471235922760198e-06 0.0000000000000000e+00  -3.1307909532674440e-05 -1.8958148619491228e-06 0.0000000000000000e+00  -4.3290310345234558e-05 -2.5709592838714862e-06 0.0000000000000000e+00  -5.6631201425625149e-05 -3.2739445046679107e-06 0.0000000000000000e+00  -7.1702824057523295e-05 -3.9980851155367235e-06 0.0000000000000000e+00  -8.8891544060456707e-05 -4.7245735198491393e-06 0.0000000000000000e+00  -1.0859391006483924e-04 -5.4170569199575355e-06 0.0000000000000000e+00  -1.3120917645737456e-04 -6.0147391724711921e-06 0.0000000000000000e+00  -1.5712828596549266e-04 -6.4243419375951970e-06 0.0000000000000000e+00  -1.8671870011065545e-04 -6.5123051961725543e-06 0.0000000000000000e+00  -2.2029778065890045e-04 -6.1011276120703365e-06 0.0000000000000000e+00  -2.5805478548458148e-04 -4.9801636421131071e-06 0.0000000000000000e+00  -2.9975510093645182e-04 -2.9575514977963694e-06 0.0000000000000000e+00  -3.4364319513560204e-04 -1.1701843804313430e-08 0.0000000000000000e+00  -3.8289509540093570e-04 3.4408865690118058e-06 0.0000000000000000e+00  0.0000000000000000e+00 0.0000000000000000e+00 0.0000000000000000e+00  -1.2819291361381426e-05 -8.0824071795096479e-07 0.0000000000000000e+00  -2.6061606795094585e-05 -1.6326544705076724e-06 0.0000000000000000e+00  -4.0166383616747453e-05 -2.4885826356292574e-06 0.0000000000000000e+00  -5.5587791084934920e-05 -3.3881628365807765e-06 0.0000000000000000e+00  -7.2800738373843602e-05 -4.3379292035232281e-06 0.0000000000000000e+00  -9.2304348364201285e-05 -5.3353291804837422e-06 0.0000000000000000e+00  -1.1462154929533568e-04 -6.3636834804811443e-06 0.0000000000000000e+00  -1.4029284617960837e-04 -7.3850898970246638e-06 0.0000000000000000e+00  -1.6986122840807727e-04 -8.3308961777357245e-06 0.0000000000000000e+00  -2.0384271654055812e-04 -9.0898859973347727e-06 0.0000000000000000e+00  -2.4267092262577101e-04 -9.4957438481818904e-06 0.0000000000000000e+00  -2.8658810364878227e-04 -9.3186904543380175e-06 0.0000000000000000e+00  -3.3541518276180562e-04 -8.2731925900735837e-06 0.0000000000000000e+00  -3.8804226100848285e-04 -6.0667176992393739e-06 0.0000000000000000e+00  -4.4132192291964500e-04 -2.5333175700992290e-06 0.0000000000000000e+00  -4.8798963479591124e-04 2.0916148648013200e-06 0.0000000000000000e+00  0.0000000000000000e+00 0.0000000000000000e+00 0.0000000000000000e+00  -1.5203235279287713e-05 -9.8123497982617472e-07 0.0000000000000000e+00  -3.0923371817123607e-05 -1.9858774463666942e-06 0.0000000000000000e+00  -4.7697000357257126e-05 -3.0367900121185631e-06 0.0000000000000000e+00  -6.6082401041265201e-05 -4.1541008497938340e-06 0.0000000000000000e+00  -8.6668991896246227e-05 -5.3529296119056823e-06 0.0000000000000000e+00  -1.1008400655109131e-04 -6.6398130321039506e-06 0.0000000000000000e+00  -1.3699465512947645e-04 -8.0071342572698317e-06 0.0000000000000000e+00  -1.6810303665237594e-04 -9.4246512703463325e-06 0.0000000000000000e+00  -2.0412933442809340e-04 -1.0827052585695076e-05 0.0000000000000000e+00  -2.4577553037904792e-04 -1.2096561607959653e-05 0.0000000000000000e+00  -2.9365524701515180e-04 -1.3040478983440412e-05 0.0000000000000000e+00  -3.4816185531259369e-04 -1.3366232315726776e-05 0.0000000000000000e+00  -4.0922126773080457e-04 -1.2662697039656848e-05 0.0000000000000000e+00  -4.7583570017147475e-04 -1.0408007950732154e-05 0.0000000000000000e+00  -5.4529730503270670e-04 -6.0394042346792425e-06 0.0000000000000000e+00  -6.1206697102918813e-04 8.7312641416090338e-07 0.0000000000000000e+00  0.0000000000000000e+00 0.0000000000000000e+00 0.0000000000000000e+00  -1.7060212824233852e-05 -1.1300478345116751e-06 0.0000000000000000e+00  -3.4720648373370408e-05 -2.2919426501314129e-06 0.0000000000000000e+00  -5.3604015441278468e-05 -3.5175444499805914e-06 0.0000000000000000e+00  -7.4363383300766309e-05 -4.8372066572401668e-06 0.0000000000000000e+00  -9.7696315100436216e-05 -6.2781369421429017e-06 0.0000000000000000e+00  -1.2435664250912655e-04 -7.8613985146502089e-06 0.0000000000000000e+00  -1.5516216392187366e-04 -9.5966575037516338e-06 0.0000000000000000e+00  -1.9099550288278623e-04 -1.1473302997178942e-05 0.0000000000000000e+00  -2.3279371193332072e-04 -1.3445877214435078e-05 0.0000000000000000e+00  -2.8151954349731100e-04 -1.5410904363453140e-05 0.0000000000000000e+00  -3.3810291572688756e-04 -1.7171530106331161e-05 0.0000000000000000e+00  -4.0333394141535840e-04 -1.8386901918165041e-05 0.0000000000000000e+00  -4.7767849677704007e-04 -1.8507232533131023e-05 0.0000000000000000e+00  -5.6097814024160930e-04 -1.6706615140574738e-05 0.0000000000000000e+00  -6.5201079742667782e-04 -1.1846134304619360e-05 0.0000000000000000e+00  -7.4798885995237764e-04 -2.5232839008769892e-06 0.0000000000000000e+00  0.0000000000000000e+00 0.0000000000000000e+00 0.0000000000000000e+00  -1.8308249806096244e-05 -1.2462639715173937e-06 0.0000000000000000e+00  -3.7285131260081363e-05 -2.5334074797015736e-06 0.0000000000000000e+00  -5.7624000149039014e-05 -3.9031260664997912e-06 0.0000000000000000e+00  -8.0058618964467637e-05 -5.3975810293109148e-06 0.0000000000000000e+00  -1.0538309474598487e-04 -7.0589627998082726e-06 0.0000000000000000e+00  -1.3447058349951697e-04 -8.9279190560292084e-06 0.0000000000000000e+00  -1.6828948861497055e-04 -1.1039910085367494e-05 0.0000000000000000e+00  -2.0791499802889622e-04 -1.3417825627872985e-05 0.0000000000000000e+00  -2.5453262024776962e-04 -1.6057916860294506e-05 0.0000000000000000e+00  -3.0942896444240321e-04 -1.8903959733059841e-05 0.0000000000000000e+00  -3.7396366583648013e-04 -2.1801337161112658e-05 0.0000000000000000e+00  -4.4951589373319709e-04 -2.4418826806240744e-05 0.0000000000000000e+00  -5.3740128339566605e-04 -2.6123851088364837e-05 0.0000000000000000e+00  -6.3876546318393838e-04 -2.5803493529798080e-05 0.0000000000000000e+00  -7.5449183202698760e-04 -2.1647426590895351e-05 0.0000000000000000e+00  -8.8524468367525571e-04 -1.0941731600872922e-05 0.0000000000000000e+00  0.0000000000000000e+00 0.0000000000000000e+00 0.0000000000000000e+00  -1.8881573067279202e-05 -1.3209749535735235e-06 0.0000000000000000e+00  -3.8480227605487128e-05 -2.6915021144514743e-06 0.0000000000000000e+00  -5.9539354971952908e-05 -4.1629104591387909e-06 0.0000000000000000e+00  -8.2853402301461392e-05 -5.7895318477737801e-06 0.0000000000000000e+00  -1.0929431554948377e-04 -7.6299738642897012e-06 0.0000000000000000e+00  -1.3983852148620436e-04 -9.7478512119344108e-06 0.0000000000000000e+00  -1.7559393785294543e-04 -1.2211292714070354e-05 0.0000000000000000e+00  -2.1782584062176430e-04 -1.5089759185700253e-05 0.0000000000000000e+00  -2.6797970703945433e-04 -1.8445093612523939e-05 0.0000000000000000e+00  -3.2769887864264250e-04 -2.2310474884325465e-05 0.0000000000000000e+00  -3.9883632122249935e-04 -2.6644710882092935e-05 0.0000000000000000e+00  -4.8346565352078543e-04 -3.1238434914784438e-05 0.0000000000000000e+00  -5.8391202813547454e-04 -3.5533348446130795e-05 0.0000000000000000e+00  -7.0285624319997532e-04 -3.8303939315151257e-05 0.0000000000000000e+00  -8.4362776240094284e-04 -3.7166701243163278e-05 0.0000000000000000e+00  -1.0109172286220124e-03 -2.7937214945119399e-05 0.0000000000000000e+00  0.0000000000000000e+00 0.0000000000000000e+00 0.0000000000000000e+00  -1.8735353496236883e-05 -1.3457288134880416e-06 0.0000000000000000e+00  -3.8210928892340103e-05 -2.7481207220705566e-06 0.0000000000000000e+00  -5.9194087381346810e-05 -4.2665832794978012e-06 0.0000000000000000e+00  -8.2513316520660526e-05 -5.9662560744392514e-06 0.0000000000000000e+00  -1.0909120315225247e-04 -7.9212637701542586e-06 0.0000000000000000e+00  -1.3998022445608393e-04 -1.0218354513007279e-05 0.0000000000000000e+00  -1.7640183133394132e-04 -1.2960857668924421e-05 0.0000000000000000e+00  -2.1978880406265208e-04 -1.6272430530267964e-05 0.0000000000000000e+00  -2.7183034275211774e-04 -2.0298812895342515e-05 0.0000000000000000e+00  -3.3451951058367910e-04 -2.5202598685843776e-05 0.0000000000000000e+00  -4.1020562911701024e-04 -3.1138180114487533e-05 0.0000000000000000e+00  -5.0166549109621511e-04 -3.8175983291536687e-05 0.0000000000000000e+00  -6.1223838874419458e-04 -4.6108064817591141e-05 0.0000000000000000e+00  -7.4613994271076648e-04 -5.4007909665960105e-05 0.0000000000000000e+00  -9.0920434919036341e-04 -5.9373048825953326e-05 0.0000000000000000e+00  -1.1106528215172726e-03 -5.6700038339357435e-05 0.0000000000000000e+00  0.0000000000000000e+00 0.0000000000000000e+00 0.0000000000000000e+00  -1.7850535310095256e-05 -1.3137064156471674e-06 0.0000000000000000e+00  -3.6434062399299754e-05 -2.6883498615869126e-06 0.0000000000000000e+00  -5.6510666543229972e-05 -4.1883941962708270e-06 0.0000000000000000e+00  -7.8909542226512848e-05 -5.8864295891919798e-06 0.0000000000000000e+00  -1.0456763649930562e-04 -7.8682642350187140e-06 0.0000000000000000e+00  -1.3457371298989312e-04 -1.0239442061935676e-05 0.0000000000000000e+00  -1.7021949925596157e-04 -1.3133979782929925e-05 0.0000000000000000e+00  -2.1305921128493096e-04 -1.6726373109773419e-05 0.0000000000000000e+00  -2.6497805608653702e-04 -2.1248008383709709e-05 0.0000000000000000e+00  -3.2826972622236161e-04 -2.7008158062960249e-05 0.0000000000000000e+00  -4.0572478746345799e-04 -3.4414798041332086e-05 0.0000000000000000e+00  -5.0074457461283313e-04 -4.3972667150839942e-05 0.0000000000000000e+00  -6.1754252461132325e-04 -5.6181240505675315e-05 0.0000000000000000e+00  -7.6162721340726177e-04 -7.1115027016049892e-05 0.0000000000000000e+00  -9.4098660021891785e-04 -8.7262573303239333e-05 0.0000000000000000e+00  -1.1683841571520565e-03 -9.9157478057135070e-05 0.0000000000000000e+00  0.0000000000000000e+00 0.0000000000000000e+00 0.0000000000000000e+00  -1.6238211543835908e-05 -1.2209477869434943e-06 0.0000000000000000e+00  -3.3167803504433036e-05 -2.5031595269292400e-06 0.0000000000000000e+00  -5.1506176830031640e-05 -3.9118385190016018e-06 0.0000000000000000e+00  -7.2044032268741908e-05 -5.5218165345793437e-06 0.0000000000000000e+00  -9.5687769362166403e-05 -7.4238490338610499e-06 0.0000000000000000e+00  -1.2350996636657050e-04 -9.7331152792814903e-06 0.0000000000000000e+00  -1.5681104178807609e-04 -1.2601462271506956e-05 0.0000000000000000e+00  -1.9719513125365494e-04 -1.6236030226134944e-05 0.0000000000000000e+00  -2.4666231794259741e-04 -2.0928931067409847e-05 0.0000000000000000e+00  -3.0771703067819072e-04 -2.7106118432749740e-05 0.0000000000000000e+00  -3.8348926915273584e-04 -3.5408192893086009e-05 0.0000000000000000e+00  -4.7786892245256794e-04 -4.6816237877778348e-05 0.0000000000000000e+00  -5.9570027070465379e-04 -6.2803172864455282e-05 0.0000000000000000e+00  -7.4331486654505936e-04 -8.5298642708675989e-05 0.0000000000000000e+00  -9.3051884211544538e-04 -1.1547441295328599e-04 0.0000000000000000e+00  -1.1748441488693305e-03 -1.5202598077174604e-04 0.0000000000000000e+00  0.0000000000000000e+00 0.0000000000000000e+00 0.0000000000000000e+00  -1.3942892810460731e-05 -1.0673967838621616e-06 0.0000000000000000e+00  -2.8499069810285417e-05 -2.1917388501881834e-06 0.0000000000000000e+00  -4.4305536746935401e-05 -3.4338390956637783e-06 0.0000000000000000e+00  -6.2071306284842319e-05 -4.8643443551067941e-06 0.0000000000000000e+00  -8.2620456602812219e-05 -6.5702134615652029e-06 0.0000000000000000e+00  -1.0694552437683434e-04 -8.6635477350240220e-06 0.0000000000000000e+00  -1.3627598530978316e-04 -1.1294466413648228e-05 0.0000000000000000e+00  -1.7216735215948233e-04 -1.4671157202818439e-05 0.0000000000000000e+00  -2.1661623851233132e-04 -1.9093463582563137e-05 0.0000000000000000e+00  -2.7220355620912254e-04 -2.5013791456610416e-05 0.0000000000000000e+00  -3.4225800582683637e-04 -3.3155942633947783e-05 0.0000000000000000e+00  -4.3101150580117392e-04 -4.4758440145512655e-05 0.0000000000000000e+00  -5.4370159649887130e-04 -6.2075215667727740e-05 0.0000000000000000e+00  -6.8669913647283589e-04 -8.9326885831413991e-05 0.0000000000000000e+00  -8.6896699435205197e-04 -1.3360576164217047e-04 0.0000000000000000e+00  -1.1189345009027306e-03 -1.8834178273282793e-04 0.0000000000000000e+00  0.0000000000000000e+00 0.0000000000000000e+00 0.0000000000000000e+00  -1.1043965383811217e-05 -8.5753267514070836e-07 0.0000000000000000e+00  -2.2587270529749836e-05 -1.7629382760916829e-06 0.0000000000000000e+00  -3.5149233819197631e-05 -2.7674022934022446e-06 0.0000000000000000e+00  -4.9313056739174157e-05 -3.9307618856311558e-06 0.0000000000000000e+00  -6.5765277234977845e-05 -5.3270760381615325e-06 0.0000000000000000e+00  -8.5346625936739349e-05 -7.0519669304393277e-06 0.0000000000000000e+00  -1.0912049339616072e-04 -9.2327324775768215e-06 0.0000000000000000e+00  -1.3846749702052652e-04 -1.2042890510830743e-05 0.0000000000000000e+00  -1.7521704453279447e-04 -1.5724616794304271e-05 0.0000000000000000e+00  -2.2182722544643527e-04 -2.0628121382200914e-05 0.0000000000000000e+00  -2.8161616102961504e-04 -2.7294841175515839e-05 0.0000000000000000e+00  -3.5901318641873184e-04 -3.6666757129924041e-05 0.0000000000000000e+00  -4.5969598381622817e-04 -5.0669201095558376e-05 0.0000000000000000e+00  -5.9023284019400367e-04 -7.3919078239076535e-05 0.0000000000000000e+00  -7.5623854898507160e-04 -1.1944925285237402e-04 0.0000000000000000e+00  -9.5133303040169988e-04 -2.4429393415120493e-04 0.0000000000000000e+00  0.0000000000000000e+00 0.0000000000000000e+00 0.0000000000000000e+00  -7.6546695169451563e-06 -6.0042923397799701e-07 0.0000000000000000e+00  -1.5662896474106737e-05 -1.2354365363753868e-06 0.0000000000000000e+00  -2.4392892459690896e-05 -1.9419847320234771e-06 0.0000000000000000e+00  -3.4261262340732596e-05 -2.7633706302819629e-06 0.0000000000000000e+00  -4.5763776413937972e-05 -3.7531133868081687e-06 0.0000000000000000e+00  -5.9516437989800492e-05 -4.9796678442744291e-06 0.0000000000000000e+00  -7.6313315547093445e-05 -6.5318270274576254e-06 0.0000000000000000e+00  -9.7211210518228732e-05 -8.5236810677185027e-06 0.0000000000000000e+00  -1.2365693579758963e-04 -1.1095450589776448e-05 0.0000000000000000e+00  -1.5768119240410573e-04 -1.4400941709313988e-05 0.0000000000000000e+00  -2.0219237576629611e-04 -1.8563431109884751e-05 0.0000000000000000e+00  -2.6140704315805359e-04 -2.3581047938365059e-05 0.0000000000000000e+00  -3.4143136953799775e-04 -2.9234080209608369e-05 0.0000000000000000e+00  -4.5090773977090654e-04 -3.5387486103492391e-05 0.0000000000000000e+00  -6.0127690506284756e-04 -4.3989926747366553e-05 0.0000000000000000e+00  -8.0579809073244688e-04 -6.5800209914719952e-05 0.0000000000000000e+00  0.0000000000000000e+00 0.0000000000000000e+00 0.0000000000000000e+00  -3.9180912968887074e-06 -3.0920996207576818e-07 0.0000000000000000e+00  -8.0197119845462227e-06 -6.3655850689485750e-07 0.0000000000000000e+00  -1.2496235910849090e-05 -1.0014242176420551e-06 0.0000000000000000e+00  -1.7565353152100867e-05 -1.4265068299614486e-06 0.0000000000000000e+00  -2.3488190143940601e-05 -1.9397618573683023e-06 0.0000000000000000e+00  -3.0592777699775151e-05 -2.5764860570115179e-06 0.0000000000000000e+00  -3.9308274882440618e-05 -3.3808880384100306e-06 0.0000000000000000e+00  -5.0217355673260189e-05 -4.4046919971221473e-06 0.0000000000000000e+00  -6.4139373517682730e-05 -5.6949046073536979e-06 0.0000000000000000e+00  -8.2264710548495771e-05 -7.2465204390621546e-06 0.0000000000000000e+00  -1.0636553494772846e-04 -8.8470447275326671e-06 0.0000000000000000e+00  -1.3907092577405611e-04 -9.6001673408172501e-06 0.0000000000000000e+00  -1.8392719536147232e-04 -6.5802263006686718e-06 0.0000000000000000e+00  -2.4380766492754441e-04 8.2584979809682693e-06 0.0000000000000000e+00  -3.1347451063952757e-04 5.0875846941882698e-05 0.0000000000000000e+00  -3.6724586154651971e-04 1.2895026202367000e-04 0.0000000000000000e+00  0.0000000000000000e+00 0.0000000000000000e+00 0.0000000000000000e+00  0.0000000000000000e+00 0.0000000000000000e+00 0.0000000000000000e+00  0.0000000000000000e+00 0.0000000000000000e+00 0.0000000000000000e+00  0.0000000000000000e+00 0.0000000000000000e+00 0.0000000000000000e+00  0.0000000000000000e+00 0.0000000000000000e+00 0.0000000000000000e+00  0.0000000000000000e+00 0.00000000