<?xml version="1.0"?>
<VTKFile type="UnstructuredGrid"  version="0.1"  >
<UnstructuredGrid>
<Piece  NumberOfPoints="289" NumberOfCells="512">
<Points>
<DataArray  type="Float64"  NumberOfComponents="3"  format="ascii">0 0 0  0.0625 0 0  0.125 0 0  0.1875 0 0  0.25 0 0  0.3125 0 0  0.375 0 0  0.4375 0 0  0.5 0 0  0.5625 0 0  0.625 0 0  0.6875 0 0  0.75 0 0  0.8125 0 0  0.875 0 0  0.9375 0 0  1 0 0  0 0.0625 0  0.06254521876170445 0.06247218786550141 0  0.1250919551279641 0.06244386241261479 0  0.1876417655312235 0.06241454388945253 0  0.2501962829607538 0.06238385034640406 0  0.3127572627543897 0.0623515615463042 0  0.3753266430543242 0.06231769970645436 0  0.4379066380536652 0.06228262826876655 0  0.5004999031296871 0.06224716304814735 0  0.5631098574620136 0.06221267722150187 0  0.6257413575077345 0.06218115935499401 0  0.6884021786659643 0.06215514859879931 0  0.7511064444172127 0.06213742256913297 0  0.813882965024787 0.06213026261694372 0  0.8767962685494937 0.06213413490990621 0  0.9399993984114837 0.06214620156023031 0  1.00384874849119 0.06216654589170816 0  0 0.125 0  0.06258889530813602 0.1249448607675709 0  0.1251808091197175 0.1248886447629553 0  0.1877788440207966 0.1248303369204889 0  0.250386268083257 0.1247691056501133 0  0.3130066142233704 0.1247044266652567 0  0.3756438094098342 0.1246362444507544 0  0.4383023662563765 0.1245651776955497 0  0.5009877026583226 0.1244927639154766 0  0.5637067221611147 0.1244217160301871 0  0.6264689229973475 0.1243561226114532 0  0.68928857107398 0.1243014563755582 0  0.7521889621800701 0.1242641643129595 0  0.8152104969763312 0.1242505492851293 0  0.8784243558265767 0.1242648641464175 0  0.9419488526341897 0.1243078893171915 0  1.005948021301019 0.1243808496968133 0  0 0.1875 0  0.06262955561301459 0.1874185950810623 0  0.1252635696090672 0.1873354599716358 0  0.1879066332336963 0.187248942964726 0  0.2505635961912151 0.1871576353499964 0  0.3132397188293349 0.187060544635107 0  0.3759408622735699 0.1869573319298698 0  0.4386737520422684 0.1868486318165407 0  0.5014463798021587 0.186736463110978 0  0.564268657632942 0.1866247144410413 0  0.627153515586523 0.1865196363084016 0  0.6901187222959277 0.1864301682049422 0  0.7531897060645529 0.186367730559232 0  0.8164031640446267 0.1863447017505004 0  0.8798091705841073 0.1863697801377606 0  0.9434640473994055 0.1864352114335557 0  1.007399987281585 0.1864794653345477 0  0 0.25 0  0.06266579431695547 0.2498940554895982 0  0.1253373792895838 0.2497856110204672 0  0.1880207280259949 0.249672243945889 0  0.2507221631987566 0.2495517917352298 0  0.3134485574628359 0.2494225541517256 0  0.3762075725067726 0.2492835902169591 0  0.439007966489022 0.2491351481390295 0  0.5018600159590906 0.248979265782782 0  0.5647761160034578 0.2488205664710987 0  0.6277716236322634 0.2486672338960326 0  0.6908659382073405 0.2485320498886713 0  0.7540835224890554 0.2484331618520226 0  0.8174537504884146 0.2483938081946888 0  0.8810067160397628 0.2484394179624157 0  0.9447597848279792 0.2485893816089887 0  1.008690544369452 0.2488416236223382 0  0 0.3125 0  0.06269630751983785 0.3123720195729801 0  0.1253995841570116 0.3122406478935017 0  0.1881170296766545 0.3121025453731701 0  0.2508562799560642 0.3119545902055433 0  0.3136256516599437 0.311794075949692 0  0.3764344238602828 0.3116190324893008 0  0.4392931802680423 0.311428733762976 0  0.5022142424844092 0.3112244732363543 0  0.5652122217623514 0.311010703705771 0  0.6283046788394574 0.3107966381480848 0  0.6915127511366376 0.3105983615512104 0  0.7548612799845676 0.3104413451080605 0  0.818377332412031 0.3103628699249324 0  0.8820851916814189 0.3104131194525229 0  0.9459961036929682 0.3106526223719889 0  1.010096182521782 0.311143012696479 0  0 0.375 0  0.06271992599529302 0.3748533810878493 0  0.1254478012009337 0.3747023818172037 0  0.1881918501102255 0.3745426184872381 0  0.2509608141338231 0.3743698093244087 0  0.3137642383294926 0.3741799199356378 0  0.3766127963302331 0.3739694482168412 0  0.4395186781801379 0.3737359359280715 0  0.5024960746478069 0.3734788361785316 0  0.5655617947058845 0.3732009249012709 0  0.6287360309425638 0.3729105167528192 0  0.6920431993929104 0.3726248099775744 0  0.7555125610861777 0.3723746725003323 0  0.819177944184709 0.3722109328360309 0  0.8830755207276777 0.3722114758594851 0  0.9472391670601744 0.3724869090912883 0  1.011696610454374 0.3731805310435019 0  0 0.4375 0  0.06273565158396327 0.4373391246560658 0  0.1254799914977268 0.4371728404273527 0  0.1882420217866781 0.4369956497531026 0  0.2510313345638873 0.4368019623377997 0  0.3138584381104412 0.4365861306854577 0  0.3767351265547449 0.4363426160131316 0  0.4396749276843521 0.4360663836606791 0  0.5026936884668792 0.435753693157663 0  0.5658103980277392 0.4354035561680717 0  0.6290484029545228 0.4350203039321678 0  0.6924372252326991 0.4346179451561383 0  0.7560152042010562 0.4342272687681101 0  0.819833071358533 0.4339067682081946 0  0.8839582892795342 0.4337579361819583 0  0.9484798632069412 0.43394351785118 0  1.013514921521769 0.4347040203748977 0  0 0.5 0  0.06274269941198445 0.499830266604469 0  0.125494544811173 0.499654150775252 0  0.1882650251226632 0.4994650710153784 0  0.2510642812726647 0.4992560894927244 0  0.3139034651547504 0.4990197794340794 0  0.3767951473393846 0.4987481781475138 0  0.4397538208492233 0.4984329130077375 0  0.5027965983809264 0.4980656664329381 0  0.5659443024613097 0.497639290755948 0  0.6292233407712616 0.4971501460543927 0  0.6926690862191505 0.4966026918965086 0  0.756331950297169 0.4960181003560917 0  0.8202878067478051 0.4954496157343671 0  0.8846544338678533 0.4950078936512552 0  0.9496145736096679 0.4948974603859325 0  1.015445363485582 0.4954575984455876 0  0 0.5625 0  0.06274054673225282 0.5623277611759882 0  0.1254903779190406 0.5621483459519965 0  0.1882591384073581 0.5619542563762349 0  0.251057171439472 0.5617373351772555 0  0.3138958988449237 0.5614884218604299 0  0.3767882475425356 0.5611970113756936 0  0.4397491733971968 0.5608509590384222 0  0.5027964034679613 0.5604363429299095 0  0.5659516835392562 0.5599377374707299 0  0.6292431836849476 0.5593394520022295 0  0.6927104554291749 0.5586289180566107 0  0.7564146613648615 0.5578047006339387 0  0.8204587193872745 0.5568940557138767 0  0.8850236372164421 0.5559885679448511 0  0.9504260933500356 0.5553076923795598 0  1.017196021247629 0.5552881901095743 0  0 0.625 0  0.06272898608544315 0.624832378256994 0  0.12546704232058 0.6246571059463927 0  0.1882236036889469 0.6244660965061365 0  0.2510088308607256 0.6242503107543738 0  0.313833997399769 0.6239991915461445 0  0.376711908783286 0.6236999900754516 0  0.4396573868948291 0.6233369538403736 0  0.5026879175424479 0.6228903718923849 0  0.5658247435715766 0.6223355506710085 0  0.6290951750974139 0.6216420083426213 0  0.6925380792548342 0.6207737529450428 0  0.7562171459003106 0.6196930583204017 0  0.820251543339359 0.6183742401716272 0  0.8848805533116786 0.6168437390051823 0  0.9505815272016768 0.6152778436991208 0  1.018249217837348 0.6141737538576107 0  0 0.6875 0  0.06270817706757799 0.6873445671252104 0  0.1254248300788565 0.6871814622260898 0  0.1881587911667654 0.6870024951712871 0  0.2509196234184045 0.6867983011850001 0  0.3137180033584637 0.6865575912780109 0  0.3765661137146286 0.6862661803037213 0  0.439478040201667 0.685905675485359 0  0.5024701813939945 0.6854516688441875 0  0.5655617837371909 0.6848712324224994 0  0.6287761163377086 0.6841194971104977 0  0.6921441122158585 0.6831352383650794 0  0.7557161246950499 0.68183624116585 0  0.8195973995852793 0.6801189943867347 0  0.8840441576485318 0.6778829254608547 0  0.9496786832888919 0.6751578651051323 0  1.017872266425558 0.6724772778266963 0  0 0.75 0  0.06267868827566839 0.7498643284490759 0  0.1253648615066265 0.7497215139015677 0  0.1880663384720071 0.749563868476816 0  0.250791646492064 0.7493824392911345 0  0.3135503920889554 0.7491661627787458 0  0.3763536289707679 0.7489007129838395 0  0.4392141734015059 0.7485668545268814 0  0.5021467518550277 0.7481380088820396 0  0.5651677734270486 0.7475765699935202 0  0.6282944908892738 0.7468282064398426 0  0.6915438312005371 0.7458128566946688 0  0.7549341965579812 0.744410217527394 0  0.818506130484666 0.7424365352579032 0  0.8824230881747017 0.7396133081469142 0  0.9473471194421013 0.7355807313405514 0  1.015039575779276 0.7305687258874703 0  0 0.8125 0  0.06264151966389939 0.8123911211621743 0  0.1252891361975072 0.8122762148385094 0  0.1879492405157363 0.8121487524892133 0  0.2506288684079736 0.8120010238693353 0  0.3133360498049845 0.8118233222325092 0  0.3760801662142715 0.8116028002956935 0  0.4388722522823043 0.8113217788219445 0  0.5017250514019663 0.8109551573057695 0  0.5646523403730799 0.8104663431102801 0  0.627666389503497 0.8098006861977544 0  0.6907711641640553 0.8088745398099019 0  0.7539472085007982 0.8075560596896522 0  0.8171262902987385 0.805628563483174 0  0.8801875180290113 0.8027128086372608 0  0.9432416534759801 0.798091786536819 0  1.009448895548754 0.7903810860809448 0  0 0.875 0  0.06259809576922862 0.8749238294481662 0  0.125200528944233 0.8748432895921062 0  0.187811866243228 0.8747536266525796 0  0.2504371916057131 0.8746491707751933 0  0.3130824056218234 0.8745226915687021 0  0.3757545621841971 0.8743644758022771 0  0.4384622100756134 0.8741609367744098 0  0.5012155970038797 0.8738924457399442 0  0.5640262746367761 0.8735298732667695 0  0.6269047392894463 0.873028988003048 0  0.6898522174510814 0.8723212674090649 0  0.7528358015963957 0.8712983880940277 0  0.8157181759436553 0.8697831955711254 0  0.8780715488028785 0.867458372637316 0  0.9387360626993292 0.8636180389340465 0  0.9950195531884894 0.8561367222475076 0  0 0.9375 0  0.06255022202529302 0.9374608068015692 0  0.1251027133934763 0.9374193184263826 0  0.1876598751190685 0.9373730312324527 0  0.250224411343331 0.9373189419371358 0  0.3127995190567318 0.9372531919837306 0  0.3753891262689887 0.937170552796774 0  0.4379981892503568 0.937063640183258
[...]
<PointData  Vectors="f_54"> 
<DataArray  type="Float64"  Name="f_54"  NumberOfComponents="3" format="ascii">0.0000000000000000e+00 0.0000000000000000e+00 0.0000000000000000e+00  0.0000000000000000e+00 0.0000000000000000e+00 0.0000000000000000e+00  0.0000000000000000e+00 0.0000000000000000e+00 0.0000000000000000e+00  0.0000000000000000e+00 0.0000000000000000e+00 0.0000000000000000e+00  0.0000000000000000e+00 0.0000000000000000e+00 0.0000000000000000e+00  0.0000000000000000e+00 0.0000000000000000e+00 0.0000000000000000e+00  0.0000000000000000e+00 0.0000000000000000e+00 0.0000000000000000e+00  0.0000000000000000e+00 0.0000000000000000e+00 0.0000000000000000e+00  0.0000000000000000e+00 0.0000000000000000e+00 0.0000000000000000e+00  0.0000000000000000e+00 0.0000000000000000e+00 0.0000000000000000e+00  0.0000000000000000e+00 0.0000000000000000e+00 0.0000000000000000e+00  0.0000000000000000e+00 0.0000000000000000e+00 0.0000000000000000e+00  0.0000000000000000e+00 0.0000000000000000e+00 0.0000000000000000e+00  0.0000000000000000e+00 0.0000000000000000e+00 0.0000000000000000e+00  0.0000000000000000e+00 0.0000000000000000e+00 0.0000000000000000e+00  0.0000000000000000e+00 0.0000000000000000e+00 0.0000000000000000e+00  0.0000000000000000e+00 0.0000000000000000e+00 0.0000000000000000e+00  0.0000000000000000e+00 0.0000000000000000e+00 0.0000000000000000e+00  4.7406577607522028e-06 6.2390871574718672e-08 0.0000000000000000e+00  9.6183689709108721e-06 1.2295002472707866e-07 0.0000000000000000e+00  1.4773967391390124e-05 1.7941257480285421e-07 0.0000000000000000e+00  2.0347253292562990e-05 2.2851112284133791e-07 0.0000000000000000e+00  2.6475187892503259e-05 2.6542807630373016e-07 0.0000000000000000e+00  3.3288224003567245e-05 2.8322427838018356e-07 0.0000000000000000e+00  4.0904116735690802e-05 2.7229452687239276e-07 0.0000000000000000e+00  4.9418759887645375e-05 2.1995067866980446e-07 0.0000000000000000e+00  5.8894405685742584e-05 1.1026250585284215e-07 0.0000000000000000e+00  6.9348205835171350e-05 -7.5823662652081587e-08 0.0000000000000000e+00  8.0751882580214641e-05 -3.6071539156993716e-07 0.0000000000000000e+00  9.3078016662418480e-05 -7.7389440994358460e-07 0.0000000000000000e+00  1.0651023523528987e-04 -1.3713718092253150e-06 0.0000000000000000e+00  1.2222413619915383e-04 -2.3169453941863052e-06 0.0000000000000000e+00  1.4524809174388568e-04 -4.2054366912392307e-06 0.0000000000000000e+00  1.9550793737276235e-04 -9.3908799312600428e-06 0.0000000000000000e+00  0.0000000000000000e+00 0.0000000000000000e+00 0.0000000000000000e+00  9.3470671968099692e-06 1.2664201263475944e-07 0.0000000000000000e+00  1.8969572211662907e-05 2.5010183387288580e-07 0.0000000000000000e+00  2.9150735009416605e-05 3.6635054231497979e-07 0.0000000000000000e+00  4.0173070409508623e-05 4.6937699648229192e-07 0.0000000000000000e+00  5.2315506952485270e-05 5.5007237720398522e-07 0.0000000000000000e+00  6.5846763511401380e-05 5.9502419342092244e-07 0.0000000000000000e+00  8.1013457372574484e-05 5.8530932887827426e-07 0.0000000000000000e+00  9.8021406851647331e-05 4.9550824276650298e-07 0.0000000000000000e+00  1.1700906232389740e-04 2.9334169220401196e-07 0.0000000000000000e+00  1.3801366485781494e-04 -5.9490442240680396e-08 0.0000000000000000e+00  1.6093499896271024e-04 -6.0464846899047857e-07 0.0000000000000000e+00  1.8551052814655248e-04 -1.3823116164509295e-06 0.0000000000000000e+00  2.1132767484351305e-04 -2.4235843841002443e-06 0.0000000000000000e+00  2.3787684062484595e-04 -3.7308826274292165e-06 0.0000000000000000e+00  2.6432976679379225e-04 -5.1690681809114663e-06 0.0000000000000000e+00  2.8654082064815143e-04 -5.7711254583761465e-06 0.0000000000000000e+00  0.0000000000000000e+00 0.0000000000000000e+00 0.0000000000000000e+00  1.3677072850679197e-05 1.9403500815329637e-07 0.0000000000000000e+00  2.7769104422929547e-05 3.8448930636733219e-07 0.0000000000000000e+00  4.2703188968628554e-05 5.6657560822968795e-07 0.0000000000000000e+00  5.8908591703009173e-05 7.3262739777352970e-07 0.0000000000000000e+00  7.6814245366141047e-05 8.7039955702332109e-07 0.0000000000000000e+00  9.6840775044112169e-05 9.6112333035492748e-07 0.0000000000000000e+00  1.1938448736023665e-04 9.7739392013506356e-07 0.0000000000000000e+00  1.4479017677494381e-04 8.8118799575714327e-07 0.0000000000000000e+00  1.7330895260896743e-04 6.2269079771696040e-07 0.0000000000000000e+00  2.0503644708920265e-04 1.4123365369448199e-07 0.0000000000000000e+00  2.3982480883640912e-04 -6.2941126378575906e-07 0.0000000000000000e+00  2.7715492684256179e-04 -1.7477427922093404e-06 0.0000000000000000e+00  3.1592965010106229e-04 -3.2375738706793895e-06 0.0000000000000000e+00  3.5406231810616423e-04 -5.0394367403522626e-06 0.0000000000000000e+00  3.8748467065404641e-04 -6.9401307477190053e-06 0.0000000000000000e+00  4.0769003769676758e-04 -8.5933744944296098e-06 0.0000000000000000e+00  0.0000000000000000e+00 0.0000000000000000e+00 0.0000000000000000e+00  1.7588292400911730e-05 2.6489309353353831e-07 0.0000000000000000e+00  3.5730749653212247e-05 5.2717923445842182e-07 0.0000000000000000e+00  5.4998472788725810e-05 7.8279013533739995e-07 0.0000000000000000e+00  7.5971194359247319e-05 1.0240728020111417e-06 0.0000000000000000e+00  9.9237334682050044e-05 1.2375324412889433e-06 0.0000000000000000e+00  1.2538733459016541e-04 1.4010518294323738e-06 0.0000000000000000e+00  1.5499673906819197e-04 1.4805491123397179e-06 0.0000000000000000e+00  1.8859426939995879e-04 1.4262825811276307e-06 0.0000000000000000e+00  2.2660836153554558e-04 1.1695293681196557e-06 0.0000000000000000e+00  2.6928289939392633e-04 6.2137147152677313e-07 0.0000000000000000e+00  3.1654777885824415e-04 -3.2285706683087528e-07 0.0000000000000000e+00  3.6781895631420454e-04 -1.7668505865063212e-06 0.0000000000000000e+00  4.2167800792906321e-04 -3.7730723141587324e-06 0.0000000000000000e+00  4.7533178686732770e-04 -6.2817416876621719e-06 0.0000000000000000e+00  5.2368769292266044e-04 -8.9668010123199668e-06 0.0000000000000000e+00  5.5794718541459377e-04 -1.0999681622590216e-05 0.0000000000000000e+00  0.0000000000000000e+00 0.0000000000000000e+00 0.0000000000000000e+00  2.0939998855452760e-05 3.3816884810393615e-07 0.0000000000000000e+00  4.2569848760729599e-05 6.7639110277102657e-07 0.0000000000000000e+00  6.5601603492390051e-05 1.0131797088871605e-06 0.0000000000000000e+00  9.0766693355304721e-05 1.3431178456314380e-06 0.0000000000000000e+00  1.1882131781235607e-04 1.6541740433386071e-06 0.0000000000000000e+00  1.5054473520747507e-04 1.9241006533742150e-06 0.0000000000000000e+00  1.8672630839481022e-04 2.1156163831803824e-06 0.0000000000000000e+00  2.2813538147526983e-04 2.1702168309708491e-06 0.0000000000000000e+00  2.7546553355229796e-04 2.0009018647884422e-06 0.0000000000000000e+00  3.2924115150815203e-04 1.4852032989758422e-06 0.0000000000000000e+00  3.8966892187268780e-04 4.6226085509524577e-07 0.0000000000000000e+00  4.5640854095215031e-04 -1.2577014649802480e-06 0.0000000000000000e+00  5.2822438672340936e-04 -3.8551291807759272e-06 0.0000000000000000e+00  6.0246609890189239e-04 -7.4058155102864878e-06 0.0000000000000000e+00  6.7433495189459685e-04 -1.1687046607738456e-05 0.0000000000000000e+00  7.3600333563450537e-04 -1.5841033180066072e-05 0.0000000000000000e+00  0.0000000000000000e+00 0.0000000000000000e+00 0.0000000000000000e+00  2.3596664005073845e-05 4.1114436686241938e-07 0.0000000000000000e+00  4.8010062940136992e-05 8.2681748331810149e-07 0.0000000000000000e+00  7.4084762830035404e-05 1.2501851521131296e-06 0.0000000000000000e+00  1.0269987572321112e-04 1.6807125861160886e-06 0.0000000000000000e+00  1.3478285665140621e-04 2.1113540027308311e-06 0.0000000000000000e+00  1.7131705285950476e-04 2.5243987890032451e-06 0.0000000000000000e+00  2.1333880782026243e-04 2.8852828608362098e-06 0.0000000000000000e+00  2.6191774117345320e-04 3.1335316307717655e-06 0.0000000000000000e+00  3.1811078395477851e-04 3.1700241900288076e-06 0.0000000000000000e+00  3.8287659655805018e-04 2.8403440606347202e-06 0.0000000000000000e+00  4.5693237812345627e-04 1.9159763611740298e-06 0.0000000000000000e+00  5.4053073431504768e-04 8.0242293414150780e-08 0.0000000000000000e+00  6.3313268437353593e-04 -3.0629853468583901e-06 0.0000000000000000e+00  7.3295965982278304e-04 -7.9189850282640907e-06 0.0000000000000000e+00  8.3643287269142544e-04 -1.4699472408593712e-05 0.0000000000000000e+00  9.3756026345693274e-04 -2.2977687835805789e-05 0.0000000000000000e+00  0.0000000000000000e+00 0.0000000000000000e+00 0.0000000000000000e+00  2.5433418485398809e-05 4.7932203670439091e-07 0.0000000000000000e+00  5.1794248309984681e-05 9.6931099932537009e-07 0.0000000000000000e+00  8.0043460936114234e-05 1.4797734138570121e-06 0.0000000000000000e+00  1.1119554007126525e-04 2.0178233263219997e-06 0.0000000000000000e+00  1.4634358645265025e-04 2.5854619657225035e-06 0.0000000000000000e+00  1.8668053366661775e-04 3.1755218380482480e-06 0.0000000000000000e+00  2.3351295230631042e-04 3.7648659786389294e-06 0.0000000000000000e+00  2.8826149408248640e-04 4.3031420866845482e-06 0.0000000000000000e+00  3.5243855353979126e-04 4.6945919491438527e-06 0.0000000000000000e+00  4.2758928973484996e-04 4.7695883564351519e-06 0.0000000000000000e+00  5.1517768443782241e-04 4.2424449697854869e-06 0.0000000000000000e+00  6.1639768929398428e-04 2.6547114875210888e-06 0.0000000000000000e+00  7.3189706209595155e-04 -6.8654334410994849e-07 0.0000000000000000e+00  8.6142825297601255e-04 -6.7393859982306823e-06 0.0000000000000000e+00  1.0034940096118245e-03 -1.6637885982790293e-05 0.0000000000000000e+00  1.1551214554172571e-03 -3.1314839227035683e-05 0.0000000000000000e+00  0.0000000000000000e+00 0.0000000000000000e+00 0.0000000000000000e+00  2.6343400781922378e-05 5.3659595536919013e-07 0.0000000000000000e+00  5.3699485045784193e-05 1.0911442349989309e-06 0.0000000000000000e+00  8.3119891723944836e-05 1.6815843816165884e-06 0.0000000000000000e+00  1.1573099338477227e-04 2.3250532404725234e-06 0.0000000000000000e+00  1.5277247248698841e-04 3.0365500950357547e-06 0.0000000000000000e+00  1.9563599353975439e-04 3.8260330973467054e-06 0.0000000000000000e+00  2.4590202598331949e-04 4.6925999820944576e-06 0.0000000000000000e+00  3.0537044586972565e-04 5.6133487252861563e-06 0.0000000000000000e+00  3.7607671443416958e-04 6.5226745790033683e-06 0.0000000000000000e+00  4.6028005049614533e-04 7.2747256616062713e-06 0.0000000000000000e+00  5.6040410275769506e-04 7.5772306570476674e-06 0.0000000000000000e+00  6.7890861377880478e-04 6.8797397546089425e-06 0.0000000000000000e+00  8.1808467475293458e-04 4.1980633951025536e-06 0.0000000000000000e+00  9.7982171907307178e-04 -2.1275680338931701e-06 0.0000000000000000e+00  1.1655250784831815e-03 -1.4690286422865401e-05 0.0000000000000000e+00  1.3765757126681833e-03 -3.7167211361042036e-05 0.0000000000000000e+00  0.0000000000000000e+00 0.0000000000000000e+00 0.0000000000000000e+00  2.6246604271108204e-05 5.7577990324025137e-07 0.0000000000000000e+00  5.3555548016009570e-05 1.1770354012791479e-06 0.0000000000000000e+00  8.3032584807781045e-05 1.8303557648752020e-06 0.0000000000000000e+00  1.1587918636575867e-04 2.5641914443034977e-06 0.0000000000000000e+00  1.5344535759129077e-04 3.4093334331539315e-06 0.0000000000000000e+00  1.9728804410508747e-04 4.3984393473255086e-06 0.0000000000000000e+00  2.4923583097572502e-04 5.5634533529809145e-06 0.0000000000000000e+00  3.1145870143274535e-04 6.9285110393103441e-06 0.0000000000000000e+00  3.8653787543995176e-04 8.4933669571419070e-06 0.0000000000000000e+00  4.7752426445191702e-04 1.0197243033617227e-05 0.0000000000000000e+00  5.8796476279472220e-04 1.1842902359400374e-05 0.0000000000000000e+00  7.2186750556200649e-04 1.2942060662582138e-05 0.0000000000000000e+00  8.8358815400338213e-04 1.2413144079659717e-05 0.0000000000000000e+00  1.0777032202921089e-03 8.0295454620749361e-06 0.0000000000000000e+00  1.3092167048540373e-03 -4.4778473196463937e-06 0.0000000000000000e+00  1.5851147646630676e-03 -3.2703277876081793e-05 0.0000000000000000e+00  0.0000000000000000e+00 0.0000000000000000e+00 0.0000000000000000e+00  2.5099425942307197e-05 5.8951436115452754e-07 0.0000000000000000e+00  5.1265237331245251e-05 1.2110287535801747e-06 0.0000000000000000e+00  7.9610015729966502e-05 1.8988884738473366e-06 0.0000000000000000e+00  1.1135949951690960e-04 2.6923455418304946e-06 0.0000000000000000e+00  1.4791833786228215e-04 3.6383581995304331e-06 0.0000000000000000e+00  1.9094794743989147e-04 4.7946201092553912e-06 0.0000000000000000e+00  2.4246092405109818e-04 6.2324467596398255e-06 0.0000000000000000e+00  3.0493593055693630e-04 8.0382708222964666e-06 0.0000000000000000e+00  3.8145458750454651e-04 1.0310341719180802e-05 0.0000000000000000e+00  4.7585555764713161e-04 1.3141930702158914e-05 0.0000000000000000e+00  5.9288788391412143e-04 1.6569348943513929e-05 0.0000000000000000e+00  7.3832479286312189e-04 2.0431495769850294e-05 0.0000000000000000e+00  9.1898430628867766e-04 2.4014014653313821e-05 0.0000000000000000e+00  1.1426674897205714e-03 2.5201243497500417e-05 0.0000000000000000e+00  1.4184152095197545e-03 1.8664436512058602e-05 0.0000000000000000e+00  1.7585651786845716e-03 -7.4308385425450466e-06 0.0000000000000000e+00  0.0000000000000000e+00 0.0000000000000000e+00 0.0000000000000000e+00  2.2903732066187015e-05 5.7148088725229921e-07 0.0000000000000000e+00  4.6824120433533620e-05 1.1791121864541884e-06 0.0000000000000000e+00  7.2824321288175582e-05 1.8624613908083272e-06 0.0000000000000000e+00  1.0209079133905034e-04 2.6687731899469119e-06 0.0000000000000000e+00  1.3600806616257665e-04 3.6580820350037785e-06 0.0000000000000000e+00  1.7625212019934056e-04 4.9100422895211582e-06 0.0000000000000000e+00  2.2491130532124358e-04 6.5333420850581775e-06 0.0000000000000000e+00  2.8464598550086639e-04 8.6787218230771559e-06 0.0000000000000000e+00  3.5889933650023255e-04 1.1556427663794383e-05 0.0000000000000000e+00  4.5216958080788495e-04 1.5457236680098901e-05 0.0000000000000000e+00  5.7034194579191856e-04 2.0768916684739369e-05 0.0000000000000000e+00  7.2104584469676644e-04 2.7952940115657478e-05 0.0000000000000000e+00  9.1394050241144862e-04 3.7350965688505018e-05 0.0000000000000000e+00  1.1607938459350026e-03 4.8374322509931583e-05 0.0000000000000000e+00  1.4756709912722096e-03 5.6819062334698227e-05 0.0000000000000000e+00  1.8780201379444911e-03 4.9836972153012979e-05 0.0000000000000000e+00  0.0000000000000000e+00 0.0000000000000000e+00 0.0000000000000000e+00  1.9713964471010400e-05 5.1773600502026801e-07 0.0000000000000000e+00  4.0336532250561253e-05 1.0721803220796398e-06 0.0000000000000000e+00  6.2819909543672538e-05 1.7040777034115041e-06 0.0000000000000000e+00  8.8238935406331675e-05 2.4635779670648042e-06 0.0000000000000000e+00  1.1786817565426326e-04 3.4169627218224985e-06 0.0000000000000000e+00  1.5328240650667961e-04 4.6563613415228619e-06 0.0000000000000000e+00  1.9649384130544168e-04 6.3145306460071200e-06 0.0000000000000000e+00  2.5014529336163496e-04 8.5881709517422316e-06 0.0000000000000000e+00  3.1778646711806002e-04 1.1775859580202546e-05 0.0000000000000000e+00  4.0426937121712655e-04 1.6341591796955202e-05 0.0000000000000000e+00  5.1630199103387339e-04 2.3023721932725663e-05 0.0000000000000000e+00  6.6317635589610948e-04 3.3020785730221967e-05 0.0000000000000000e+00  8.5758541523043381e-04 4.8272436771035099e-05 0.0000000000000000e+00  1.1161603546365494e-03 7.1601602861647641e-05 0.0000000000000000e+00  1.4590028173494328e-03 1.0446718990953424e-04 0.0000000000000000e+00  1.9168961384402161e-03 1.2609506598895934e-04 0.0000000000000000e+00  0.0000000000000000e+00 0.0000000000000000e+00 0.0000000000000000e+00  1.5640713129071416e-05 4.2787885137659435e-07 0.0000000000000000e+00  3.2024348678209376e-05 8.8870219002972521e-07 0.0000000000000000e+00  4.9930901884854719e-05 1.4193933894419887e-06 0.0000000000000000e+00  7.0249170994731989e-05 2.0663461581873747e-06 0.0000000000000000e+00  9.4047180724337950e-05 2.8924543002638631e-06 0.0000000000000000e+00  1.2266718442808540e-04 3.9876330946283305e-06 0.0000000000000000e+00  1.5786103703804491e-04 5.4854468383708114e-06 0.0000000000000000e+00  2.0199103513335957e-04 7.5904682631773545e-06 0.0000000000000000e+00  2.5833701832484845e-04 1.0625109307668313e-05 0.0000000000000000e+00  3.3157609339135995e-04 1.5113818466795039e-05 0.0000000000000000e+00  4.2853942812725194e-04 2.1945127598829090e-05 0.0000000000000000e+00  5.5939327003852782e-04 3.2713368724010712e-05 0.0000000000000000e+00  7.3938064100550972e-04 5.0518870690016295e-05 0.0000000000000000e+00  9.9091821190661826e-04 8.2020295214137536e-05 0.0000000000000000e+00  1.3434370634319421e-03 1.4296621047337637e-04 0.0000000000000000e+00  1.7976325633766018e-03 2.7330980328962233e-04 0.0000000000000000e+00  0.0000000000000000e+00 0.0000000000000000e+00 0.0000000000000000e+00  1.0849376450156408e-05 3.0573675508418922e-07 0.0000000000000000e+00  2.2225339199470454e-05 6.3635399257282862e-07 0.0000000000000000e+00  3.4681479146741566e-05 1.0199090369732274e-06 0.0000000000000000e+00  4.8852996067130489e-05 1.4921143598113142e-06 0.0000000000000000e+00  6.5510657035549910e-05 2.1021161136028427e-06 0.0000000000000000e+00  8.5635431917681243e-05 2.9212478131919413e-06 0.0000000000000000e+00  1.1052822069530092e-04 4.0569433608925887e-06 0.0000000000000000e+00  1.4197918004530858e-04 5.6754935161101913e-06 0.0000000000000000e+00  1.8254017953859788e-04 8.0400060024158115e-06 0.0000000000000000e+00  2.3598043617368295e-04 1.1574925985529065e-05 0.0000000000000000e+00  3.0807666657993129e-04 1.6979370319988902e-05 0.0000000000000000e+00  4.0803073167310652e-04 2.5444045319473566e-05 0.0000000000000000e+00  5.5110521696275893e-04 3.9160932889250053e-05 0.0000000000000000e+00  7.6383927421743705e-04 6.2962701308884173e-05 0.0000000000000000e+00  1.0962008985506016e-03 1.1102163266695717e-04 0.0000000000000000e+00  1.6587718975913956e-03 2.3408347834076484e-04 0.0000000000000000e+00  0.0000000000000000e+00 0.0000000000000000e+00 0.0000000000000000e+00  5.5530890163348484e-06 1.5932459799236011e-07 0.0000000000000000e+00  1.1379029722046019e-05 3.3202586408645233e-07 0.0000000000000000e+00  1.7764850509577830e-05 5.3323620987992386e-07 0.0000000000000000e+00  2.5041201833392586e-05 7.8234520962323509e-07 0.0000000000000000e+00  3.3611545739833648e-05 1.1062270755385935e-06 0.0000000000000000e+00  4.3993107604522403e-05 1.5441239287576643e-06 0.0000000000000000e+00  5.6878157570974247e-05 2.1553105274733170e-06 0.0000000000000000e+00  7.3230690455365301e-05 3.0311729020200696e-06 0.0000000000000000e+00  9.4446331193163670e-05 4.3135136134558338e-06 0.0000000000000000e+00  1.2262865895415676e-04 6.2184834670568894e-06 0.0000000000000000e+00  1.6108426946391416e-04 9.0506762048450561e-06 0.0000000000000000e+00  2.1521829377510695e-04 1.3123800365312467e-05 0.0000000000000000e+00  2.9402198367317194e-04 1.8220614614659671e-05 0.0000000000000000e+00  4.1140004484486580e-04 2.1170654351031722e-05 0.0000000000000000e+00  5.7996588337281239e-04 7.7146774192096038e-06 0.0000000000000000e+00  7.7159044601469193e-04 -5.6258888417987529e-05 0.0000000000000000e+00  0.0000000000000000e+00 0.0000000000000000e+00 0.0000000000000000e+00  0.0000000000000000e+00 0.0000000000000000e+00 0.0000000000000000e+00  0.0000000000000000e+00 0.0000000000000000e+00 0.0000000000000000e+00  0.0000000000000000e+00 0.0000000000000000e+00 0.0000000000000000e+00  0.0000000000000000e+00 0.0000000000000000e+00 0.0000000000000000e+00  0.0000000000000000e+00 0.0000000000000000e+00 0.0000000000000000e+00  0.0000000000000000e+00 0.0000000000000000e+00 0.0000000000000000e+00  0.0000000000000000e+00 0.0000000000000000e+00 0.0000000000000000e+00  0.0000000000000000e+00 0.0000000000000000e+00 0.0000000000000000e+00  0.0000000000000000e+00 0.0000000000000000e+00 0.0000000000000000e+00  0.0000000000000000e+00 0.0000000000000000e+00 0.0000000000000000e+00  0.0000000000000000e+00 0.00000000000