<?xml version="1.0"?>
<VTKFile type="UnstructuredGrid"  version="0.1"  >
<UnstructuredGrid>
<Piece  NumberOfPoints="545" NumberOfCells="1024">
<Points>
<DataArray  type="Float64"  NumberOfComponents="3"  format="ascii">0 0 0  0.0625 0 0  0.125 0 0  0.1875 0 0  0.25 0 0  0.3125 0 0  0.375 0 0  0.4375 0 0  0.5 0 0  0.5625 0 0  0.625 0 0  0.6875 0 0  0.75 0 0  0.8125 0 0  0.875 0 0  0.9375 0 0  1 0 0  0 0.0625 0  0.0625 0.0625 0  0.125 0.0625 0  0.1875 0.0625 0  0.25 0.0625 0  0.3125 0.0625 0  0.375 0.0625 0  0.4375 0.0625 0  0.5 0.0625 0  0.5625 0.0625 0  0.625 0.0625 0  0.6875 0.0625 0  0.75 0.0625 0  0.8125 0.0625 0  0.875 0.0625 0  0.9375 0.0625 0  1 0.0625 0  0 0.125 0  0.0625 0.125 0  0.125 0.125 0  0.1875 0.125 0  0.25 0.125 0  0.3125 0.125 0  0.375 0.125 0  0.4375 0.125 0  0.5 0.125 0  0.5625 0.125 0  0.625 0.125 0  0.6875 0.125 0  0.75 0.125 0  0.8125 0.125 0  0.875 0.125 0  0.9375 0.125 0  1 0.125 0  0 0.1875 0  0.0625 0.1875 0  0.125 0.1875 0  0.1875 0.1875 0  0.25 0.1875 0  0.3125 0.1875 0  0.375 0.1875 0  0.4375 0.1875 0  0.5 0.1875 0  0.5625 0.1875 0  0.625 0.1875 0  0.6875 0.1875 0  0.75 0.1875 0  0.8125 0.1875 0  0.875 0.1875 0  0.9375 0.1875 0  1 0.1875 0  0 0.25 0  0.0625 0.25 0  0.125 0.25 0  0.1875 0.25 0  0.25 0.25 0  0.3125 0.25 0  0.375 0.25 0  0.4375 0.25 0  0.5 0.25 0  0.5625 0.25 0  0.625 0.25 0  0.6875 0.25 0  0.75 0.25 0  0.8125 0.25 0  0.875 0.25 0  0.9375 0.25 0  1 0.25 0  0 0.3125 0  0.0625 0.3125 0  0.125 0.3125 0  0.1875 0.3125 0  0.25 0.3125 0  0.3125 0.3125 0  0.375 0.3125 0  0.4375 0.3125 0  0.5 0.3125 0  0.5625 0.3125 0  0.625 0.3125 0  0.6875 0.3125 0  0.75 0.3125 0  0.8125 0.3125 0  0.875 0.3125 0  0.9375 0.3125 0  1 0.3125 0  0 0.375 0  0.0625 0.375 0  0.125 0.375 0  0.1875 0.375 0  0.25 0.375 0  0.3125 0.375 0  0.375 0.375 0  0.4375 0.375 0  0.5 0.375 0  0.5625 0.375 0  0.625 0.375 0  0.6875 0.375 0  0.75 0.375 0  0.8125 0.375 0  0.875 0.375 0  0.9375 0.375 0  1 0.375 0  0 0.4375 0  0.0625 0.4375 0  0.125 0.4375 0  0.1875 0.4375 0  0.25 0.4375 0  0.3125 0.4375 0  0.375 0.4375 0  0.4375 0.4375 0  0.5 0.4375 0  0.5625 0.4375 0  0.625 0.4375 0  0.6875 0.4375 0  0.75 0.4375 0  0.8125 0.4375 0  0.875 0.4375 0  0.9375 0.4375 0  1 0.4375 0  0 0.5 0  0.0625 0.5 0  0.125 0.5 0  0.1875 0.5 0  0.25 0.5 0  0.3125 0.5 0  0.375 0.5 0  0.4375 0.5 0  0.5 0.5 0  0.5625 0.5 0  0.625 0.5 0  0.6875 0.5 0  0.75 0.5 0  0.8125 0.5 0  0.875 0.5 0  0.9375 0.5 0  1 0.5 0  0 0.5625 0  0.0625 0.5625 0  0.125 0.5625 0  0.1875 0.5625 0  0.25 0.5625 0  0.3125 0.5625 0  0.375 0.5625 0  0.4375 0.5625 0  0.5 0.5625 0  0.5625 0.5625 0  0.625 0.5625 0  0.6875 0.5625 0  0.75 0.5625 0  0.8125 0.5625 0  0.875 0.5625 0  0.9375 0.5625 0  1 0.5625 0  0 0.625 0  0.0625 0.625 0  0.125 0.625 0  0.1875 0.625 0  0.25 0.625 0  0.3125 0.625 0  0.375 0.625 0  0.4375 0.625 0  0.5 0.625 0  0.5625 0.625 0  0.625 0.625 0  0.6875 0.625 0  0.75 0.625 0  0.8125 0.625 0  0.875 0.625 0  0.9375 0.625 0  1 0.625 0  0 0.6875 0  0.0625 0.6875 0  0.125 0.6875 0  0.1875 0.6875 0  0.25 0.6875 0  0.3125 0.6875 0  0.375 0.6875 0  0.4375 0.6875 0  0.5 0.6875 0  0.5625 0.6875 0  0.625 0.6875 0  0.6875 0.6875 0  0.75 0.6875 0  0.8125 0.6875 0  0.875 0.6875 0  0.9375 0.6875 0  1 0.6875 0  0 0.75 0  0.0625 0.75 0  0.125 0.75 0  0.1875 0.75 0  0.25 0.75 0  0.3125 0.75 0  0.375 0.75 0  0.4375 0.75 0  0.5 0.75 0  0.5625 0.75 0  0.625 0.75 0  0.6875 0.75 0  0.75 0.75 0  0.8125 0.75 0  0.875 0.75 0  0.9375 0.75 0  1 0.75 0  0 0.8125 0  0.0625 0.8125 0  0.125 0.8125 0  0.1875 0.8125 0  0.25 0.8125 0  0.3125 0.8125 0  0.375 0.8125 0  0.4375 0.8125 0  0.5 0.8125 0  0.5625 0.8125 0  0.625 0.8125 0  0.6875 0.8125 0  0.75 0.8125 0  0.8125 0.8125 0  0.875 0.8125 0  0.9375 0.8125 0  1 0.8125 0  0 0.875 0  0.0625 0.875 0  0.125 0.875 0  0.1875 0.875 0  0.25 0.875 0  0.3125 0.875 0  0.375 0.875 0  0.4375 0.875 0  0.5 0.875 0  0.5625 0.875 0  0.625 0.875 0  0.6875 0.875 0  0.75 0.875 0  0.8125 0.875 0  0.875 0.875 0  0.9375 0.875 0  1 0.875 0  0 0.9375 0  0.0625 0.9375 0  0.125 0.9375 0  0.1875 0.9375 0  0.25 0.9375 0  0.3125 0.9375 0  0.375 0.9375 0  0.4375 0.9375 0  0.5 0.9375 0  0.5625 0.9375 0  0.625 0.9375 0  0.6875 0.9375 0  0.75 0.9375 0  0.8125 0.9375 0  0.875 0.9375 0  0.9375 0.9375 0  1 0.9375 0  0 1 0  0.0625 1 0  0.125 1 0  0.1875 1 0  0.25 1 0  0.3125 1 0  0.375 1 0  0.4375 1 0  0.5 1 0  0.5625 1 0  0.625 1 0  0.6875 1 0  0.75 1 0  0.8125 1 0  0.875 1 0  0.9375 1 0  1 1 0  0.03125 0.03125 0  0.09375 0.03125 0  0.15625 0.03125 0  0.21875 0.03125 0  0.28125 0.03125 0  0.34375 0.03125 0  0.40625 0.03125 0  0.46875 0.03125 0  0.53125 0.03125 0  0.59375 0.03125 0  0.65625 0.03125 0  0.71875 0.03125 0  0.78125 0.03125 0  0.84375 0.03125 0  0.90625 0.03125 0  0.96875 0.03125 0  0.03125 0.09375 0  0.09375 0.09375 0  0.15625 0.09375 0  0.21875 0.09375 0  0.28125 0.09375 0  0.34375 0.09375 0  0.40625 0.09375 0  0.46875 0.09375 0  0.53125 0.09375 0  0.59375 0.09375 0  0.65625 0.09375 0  0.71875 0.09375 0  0.78125 0.09375 0  0.84375 0.09375 0  0.90625 0.09375 0  0.96875 0.09375 0  0.03125 0.15625 0  0.09375 0.15625 0  0.15625 0.15625 0  0.21875 0.15625 0  0.28125 0.15625 0  0.34375 0.15625 0  0.40625 0.15625 0  0.46875 0.15625 0  0.53125 0.15625 0  0.59375 0.15625 0  0.65625 0.15625 0  0.71875 0.15625 0  0.78125 0.15625 0  0.84375 0.15625 0  0.90625 0.15625 0  0.96875 0.15625 0  0.03125 0.21875 0  0.09375 0.21875 0  0.15625 0.21875 0  0.21875 0.21875 0  0.28125 0.21875 0  0.34375 0.21875 0  0.40625 0.21875 0  0.46875 0.21875 0  0.53125 0.21875 0  0.59375 0.21875 0  0.65625 0.21875 0  0.71875 0.21875 0  0.78125 0.21875 0  0.84375 0.21875 0  0.90625 0.21875 0  0.96875 0.21875 0  0.03125 0.28125 0  0.09375 0.28125 0  0.15625 0.28125 0  0.21875 0.28125 0  0.28125 0.28125 0  0.34375 0.28125 0  0.40625 0.28125 0  0.46875 0.28125 0  0.53125 0.28125 0  0.59375 0.28125 0  0.65625 0.28125 0  0.71875 0.28125 0  0.78125 0.28125 0  0.84375 0.28125 0  0.90625 0.28125 0  0.96875 0.28125 0  0.03125 0.34375 0  0.09375 0.34375 0  0.15625 0.34375 0  0.21875 0.34375 0  0.28125 0.34375 0  0.34375 0.34375 0  0.40625 0.34375 0  0.46875 0.34375 0  0.53125 0.34375 0  0.59375 0.34375 0  0.65625 0.34375 0  0.71875 0.34375 0  0.78125 0.34375 0  0.84375 0.34375 0  0.90625 0.34375 0  0.96875 0.34375 0  0.03125 0.40625 0  0.09375 0.40625 0  0.15625 0.40625 0  0.21875 0.40625 0  0.28125 0.40625 0  0.34375 0.40625 0  0.40625 0.40625 0  0.46875 0.40625 0  0.53125 0.40625 0  0.59375 0.40625 0  0.65625 0.40625 0  0.71875 0.40625 0  0.78125 0.40625 0  0.84375 0.40625 0  0.90625 0.40625 0  0.96875 0.40625 0  0.03125 0.46875 0  0.09375 0.46875 0  0.15625 0.46875 0  0.21875 0.46875 0  0.28125 0.46875 0  0.34375 0.46875 0  0.40625 0.46875 0  0.46875 0.46875 0  0.53125 0.46875 0  0.59375 0.46875 0  0.65625 0.46875 0  0.71875 0.46875 0  0.78125 0.46875 0  0.84375 0.46875 0  0.90625 0.46875 0  0.96875 0.46875 0  0.03125 0.53125 0  0.09375 0.53125 0  0.15625 0.53125 0  0.21875 0.53125 0  0.28125 0.53125 0  0.34375 0.53125 0  0.40625 0.53125 0  0.46875 0.53125 0  0.53125 0.53125 0  0.59375 0.53125 0  0.65625 0.53125 0  0.71875 0.53125 0  0.78125 0.53125 0  0.84375 0.53125 0  0.90625 0.53125 0  0.96875 0.53125 0  0.03125 0.59375 0  0.09375 0.59375 0  0.15625 0.59375 0  0.21875 0.59375 0  0.28125 0.59375 0  0.34375 0.59375 0  0.40625 0.59375 0  0.46875 0.59375 0  0.53125 0.59375 0  0.59375 0.59375 0  0.65625 0.59375 0  0.71875 0.59375 0  0.78125 0.59375 0  0.84375 0.59375 0  0.90625 0.59375 0  0.96875 0.59375 0  0.03125 0.65625 0  0.09375 0.65625 0  0.15625 0.65625 0  0.21875 0.65625 0  0.28125 0.65625 0  0.34375 0.65625 0  0.40625 0.65625 0  0.46875 0.65625 0  0.53125 0.65625 0  0.59375 0.65625 0  0.65625 0.65625 0  0.71875 0.65625 0  0.78125 0.65625 0  0.84375 0.65625 0  0.90625 0.65625 0  0.96875 0.65625 0  0.03125 0.71875 0  0.09375 0.71875 0  0.15625 0.71875 0  0.21875 0.71875 0  0.28125 0.71875 0  0.34375 0.71875 0  0.40625 0.71875 0  0.46875 0.71875 0  0.53125 0.71875 0  0.59375 0.71875 0  0.65625 0.71875 0  0.71875 0.71875 0  0.78125 0.71875 0  0.84375 0.71875 0  0.90625 0.71875 0  0.96875 0.71875 0  0.03125 0.78125 0  0.09375 0.78125 0  0.15625 0.78125 0  0.21875 0.78125 0  0.28125 0.78125 0  0.34375 0.78125 0  0.40625 0.78125 0  0.46875 0.78125 0  0.53125 0.78125 0  0.59375 0.78125 0  0.65625 0.78125 0  0.71875 0.78125 0  0.78125 0.78125 0  0.84375 0.78125 0  0.90625 0.78125 0  0.96875 0.78125 0  0.03125 0.84375 0  0.09375 0.84375 0  0.15625 0.84375 0  0.21875 0.84375 0  0.28125 0.84375 0  0.34375 0.84375 0  0.40625 0.84375 0  0.46875 0.84375 0  0.53125 0.84375 0  0.59375 0.84375 0  0.65625 0.84375 0  0.71875 0.84375 0  0.78125 0.84375 0  0.84375 0.84375 0  0.90625 0.84375 0  0.96875 0.84375 0  0.03125 0.90625 0  0.09375 0.90625 0  0.15625 0.90625 0  0.21875 0.90625 0  0.28125 0.90625 0  0.34375 0.90625 0  0.40625 0.90625 0  0.46875 0.90625 0  0.53125 0.90625 0  0.59375 0.90625 0  0.65625 0.90625 0  0.71875 0.90625 0  0.78125 0.90625 0  0.84375 0.90625 0  0.90625 0.90625 0  0.96875 0.90625 0  0.03125 0.96875 0  0.09375 0.96875 0  0.15625 0.96875 0  0.21875 0.96875 0  0.28125 0.96875 0  0.34375 0.96875 0  0.40625 0.96875 0  0.46875 0.96875 0  0.53125 0.96875 0  0.59375 0.96875 0  0.65625 0.96875 0  0.71875 0.96875 0  0.78125 0.96875 0  0.84375 0.96875 0  0.90625 0.96875 0  0.96875 0.96875 0  </DataArray>
</Points>
<Cells>
[...]
<PointData  Vectors="f_8-0"> 
<DataArray  type="Float64"  Name="f_8-0"  NumberOfComponents="3" format="ascii">0.0000000000000000e+00 0.0000000000000000e+00 0.0000000000000000e+00  0.0000000000000000e+00 0.0000000000000000e+00 0.0000000000000000e+00  0.0000000000000000e+00 0.0000000000000000e+00 0.0000000000000000e+00  0.0000000000000000e+00 0.0000000000000000e+00 0.0000000000000000e+00  0.0000000000000000e+00 0.0000000000000000e+00 0.0000000000000000e+00  0.0000000000000000e+00 0.0000000000000000e+00 0.0000000000000000e+00  0.0000000000000000e+00 0.0000000000000000e+00 0.0000000000000000e+00  0.0000000000000000e+00 0.0000000000000000e+00 0.0000000000000000e+00  0.0000000000000000e+00 0.0000000000000000e+00 0.0000000000000000e+00  0.0000000000000000e+00 0.0000000000000000e+00 0.0000000000000000e+00  0.0000000000000000e+00 0.0000000000000000e+00 0.0000000000000000e+00  0.0000000000000000e+00 0.0000000000000000e+00 0.0000000000000000e+00  0.0000000000000000e+00 0.0000000000000000e+00 0.0000000000000000e+00  0.0000000000000000e+00 0.0000000000000000e+00 0.0000000000000000e+00  0.0000000000000000e+00 0.0000000000000000e+00 0.0000000000000000e+00  0.0000000000000000e+00 0.0000000000000000e+00 0.0000000000000000e+00  0.0000000000000000e+00 0.0000000000000000e+00 0.0000000000000000e+00  0.0000000000000000e+00 0.0000000000000000e+00 0.0000000000000000e+00  -8.7463590598186528e-04 8.7333985339684581e-04 0.0000000000000000e+00  -3.1942999063962981e-03 1.5622134467074655e-03 0.0000000000000000e+00  -6.2537028849016102e-03 1.7685944352799239e-03 0.0000000000000000e+00  -9.3637533504746101e-03 1.6472162508183788e-03 0.0000000000000000e+00  -1.2082447710316507e-02 1.3450507157121779e-03 0.0000000000000000e+00  -1.4161981128990569e-02 9.4481794398393088e-04 0.0000000000000000e+00  -1.5464995685327217e-02 4.9056667751823488e-04 0.0000000000000000e+00  -1.5919087959092422e-02 1.0482512642156397e-05 0.0000000000000000e+00  -1.5498794850289432e-02 -4.7203442962306155e-04 0.0000000000000000e+00  -1.4221762722197726e-02 -9.3299948338455125e-04 0.0000000000000000e+00  -1.2154512910277379e-02 -1.3425295028377600e-03 0.0000000000000000e+00  -9.4321690434252276e-03 -1.6539766028527401e-03 0.0000000000000000e+00  -6.3050553638215922e-03 -1.7816261337660925e-03 0.0000000000000000e+00  -3.2223171032648586e-03 -1.5760638255807589e-03 0.0000000000000000e+00  -8.8274284594199381e-04 -8.8187297637274331e-04 0.0000000000000000e+00  0.0000000000000000e+00 0.0000000000000000e+00 0.0000000000000000e+00  0.0000000000000000e+00 0.0000000000000000e+00 0.0000000000000000e+00  -1.6491615177219555e-03 3.2511947428359379e-03 0.0000000000000000e+00  -5.5039972727358001e-03 5.2932641702887369e-03 0.0000000000000000e+00  -1.0303711965798592e-02 5.9010335341507045e-03 0.0000000000000000e+00  -1.5109188203260789e-02 5.4949968616223232e-03 0.0000000000000000e+00  -1.9299616966696631e-02 4.4941311233796886e-03 0.0000000000000000e+00  -2.2504263868554298e-02 3.1592143511578602e-03 0.0000000000000000e+00  -2.4511433200065547e-02 1.6393882495491490e-03 0.0000000000000000e+00  -2.5209518293014547e-02 3.2126381022013776e-05 0.0000000000000000e+00  -2.4559859283234127e-02 -1.5825468002213584e-03 0.0000000000000000e+00  -2.2590069345985658e-02 -3.1228322671578469e-03 0.0000000000000000e+00  -1.9403384924586948e-02 -4.4861000032978627e-03 0.0000000000000000e+00  -1.5208213429706957e-02 -5.5153240098340878e-03 0.0000000000000000e+00  -1.0378673991021721e-02 -5.9406972397432270e-03 0.0000000000000000e+00  -5.5454706154041498e-03 -5.3359874952165235e-03 0.0000000000000000e+00  -1.6613729864198735e-03 -3.2787955246658721e-03 0.0000000000000000e+00  0.0000000000000000e+00 0.0000000000000000e+00 0.0000000000000000e+00  0.0000000000000000e+00 0.0000000000000000e+00 0.0000000000000000e+00  -2.1405118453119262e-03 6.7028039712023974e-03 0.0000000000000000e+00  -7.0680582641654685e-03 1.0423953015172288e-02 0.0000000000000000e+00  -1.3078325989854088e-02 1.1454677650400109e-02 0.0000000000000000e+00  -1.9014103250370035e-02 1.0622201077288021e-02 0.0000000000000000e+00  -2.4150307239123179e-02 8.6757934646272666e-03 0.0000000000000000e+00  -2.8060416240149905e-02 6.0941568939199388e-03 0.0000000000000000e+00  -3.0503583866184503e-02 3.1605936176409125e-03 0.0000000000000000e+00  -3.1354717694427124e-02 6.1645337943537964e-05 0.0000000000000000e+00  -3.0570178191780029e-02 -3.0513869127952427e-03 0.0000000000000000e+00  -2.8178706647127273e-02 -6.0239148216838468e-03 0.0000000000000000e+00  -2.4293853844107701e-02 -8.6597731494658398e-03 0.0000000000000000e+00  -1.9151528553239816e-02 -1.0660767198616502e-02 0.0000000000000000e+00  -1.3182423206634411e-02 -1.1530899323856975e-02 0.0000000000000000e+00  -7.1252496546187032e-03 -1.0506705746369447e-02 0.0000000000000000e+00  -2.1569164926533808e-03 -6.7568218803822772e-03 0.0000000000000000e+00  0.0000000000000000e+00 0.0000000000000000e+00 0.0000000000000000e+00  0.0000000000000000e+00 0.0000000000000000e+00 0.0000000000000000e+00  -2.5509383696137003e-03 1.0949467376821767e-02 0.0000000000000000e+00  -8.4412784137756266e-03 1.6671642307627785e-02 0.0000000000000000e+00  -1.5578956108399624e-02 1.8131050444843304e-02 0.0000000000000000e+00  -2.2558190688399725e-02 1.6723755398997363e-02 0.0000000000000000e+00  -2.8538741874022285e-02 1.3615144669458833e-02 0.0000000000000000e+00  -3.3056223070354301e-02 9.5438680084791623e-03 0.0000000000000000e+00  -3.5866630989869856e-02 4.9464684349689904e-03 0.0000000000000000e+00  -3.6850902226123569e-02 1.0418047607005554e-04 0.0000000000000000e+00  -3.5966643143639780e-02 -4.7614954424600479e-03 0.0000000000000000e+00  -3.3234701044251219e-02 -9.4239022928419292e-03 0.0000000000000000e+00  -2.8756832566158796e-02 -1.3586440058600560e-02 0.0000000000000000e+00  -2.2768665014720753e-02 -1.6788067692177763e-02 0.0000000000000000e+00  -1.5739605162941036e-02 -1.8260643495394097e-02 0.0000000000000000e+00  -8.5300285031933900e-03 -1.6813501311265824e-02 0.0000000000000000e+00  -2.5764333523048380e-03 -1.1042245953207708e-02 0.0000000000000000e+00  0.0000000000000000e+00 0.0000000000000000e+00 0.0000000000000000e+00  0.0000000000000000e+00 0.0000000000000000e+00 0.0000000000000000e+00  -3.0488434763761194e-03 1.6013323428571348e-02 0.0000000000000000e+00  -1.0096852883922822e-02 2.4109239044742783e-02 0.0000000000000000e+00  -1.8584592431892595e-02 2.6008791876951116e-02 0.0000000000000000e+00  -2.6790165700052875e-02 2.3841492441444533e-02 0.0000000000000000e+00  -3.3729260430247959e-02 1.9314191769960989e-02 0.0000000000000000e+00  -3.8909169098469247e-02 1.3491819348937242e-02 0.0000000000000000e+00  -4.2109250414230359e-02 6.9865446474070055e-03 0.0000000000000000e+00  -4.3239489297071040e-02 1.6977403277793833e-04 0.0000000000000000e+00  -4.2266444718535155e-02 -6.6839659516004001e-03 0.0000000000000000e+00  -3.9191682520494875e-02 -1.3292800569642438e-02 0.0000000000000000e+00  -3.4078254376744346e-02 -1.9262699100803748e-02 0.0000000000000000e+00  -2.7131565052373078e-02 -2.3943455210300776e-02 0.0000000000000000e+00  -1.8849132891980144e-02 -2.6221535137861178e-02 0.0000000000000000e+00  -1.0245381616069390e-02 -2.4345701813210406e-02 0.0000000000000000e+00  -3.0922958636156986e-03 -1.6169424396086610e-02 0.0000000000000000e+00  0.0000000000000000e+00 0.0000000000000000e+00 0.0000000000000000e+00  0.0000000000000000e+00 0.0000000000000000e+00 0.0000000000000000e+00  -3.7521040148939065e-03 2.2155088482501098e-02 0.0000000000000000e+00  -1.2386490315357757e-02 3.3082047676382134e-02 0.0000000000000000e+00  -2.2659463121369971e-02 3.5396141414513103e-02 0.0000000000000000e+00  -3.2414511336749698e-02 3.2186240546350935e-02 0.0000000000000000e+00  -4.0498249760337383e-02 2.5886255397943817e-02 0.0000000000000000e+00  -4.6423089065173749e-02 1.7986744314935247e-02 0.0000000000000000e+00  -5.0042624185328795e-02 9.3016263456283770e-03 0.0000000000000000e+00  -5.1335377482222257e-02 2.7293956351713062e-04 0.0000000000000000e+00  -5.0290407148498299e-02 -8.8123505313974382e-03 0.0000000000000000e+00  -4.6872867220870078e-02 -1.7657928875242250e-02 0.0000000000000000e+00  -4.1062495670840200e-02 -2.5791202062912598e-02 0.0000000000000000e+00  -3.2977209926312923e-02 -3.2342054355767924e-02 0.0000000000000000e+00  -2.3104869574924292e-02 -3.5741129877464160e-02 0.0000000000000000e+00  -1.2642109391437751e-02 -3.3475640366988926e-02 0.0000000000000000e+00  -3.8285564339015222e-03 -2.2420031026061098e-02 0.0000000000000000e+00  0.0000000000000000e+00 0.0000000000000000e+00 0.0000000000000000e+00  0.0000000000000000e+00 0.0000000000000000e+00 0.0000000000000000e+00  -4.7843793752818681e-03 2.9837744951175676e-02 0.0000000000000000e+00  -1.5663228051398716e-02 4.4158858676509427e-02 0.0000000000000000e+00  -2.8320844722286610e-02 4.6741371912132373e-02 0.0000000000000000e+00  -3.9990514206458744e-02 4.2014233320374163e-02 0.0000000000000000e+00  -4.9355691275309095e-02 3.3430107562407489e-02 0.0000000000000000e+00  -5.6025874225643923e-02 2.3044155020199419e-02 0.0000000000000000e+00  -6.0028416214323206e-02 1.1890784168352125e-02 0.0000000000000000e+00  -6.1478355353406233e-02 4.3321736105728526e-04 0.0000000000000000e+00  -6.0410733823693379e-02 -1.1107701081505116e-02 0.0000000000000000e+00  -5.6729541165914298e-02 -2.2501558470271823e-02 0.0000000000000000e+00  -5.0257635894851868e-02 -3.3249622293462906e-02 0.0000000000000000e+00  -4.0914539997947967e-02 -4.2240603350620139e-02 0.0000000000000000e+00  -2.9074185914819087e-02 -4.7294523925430251e-02 0.0000000000000000e+00  -1.6108398090588432e-02 -4.4816166819799656e-02 0.0000000000000000e+00  -4.9211132865934568e-03 -3.0293606215336288e-02 0.0000000000000000e+00  0.0000000000000000e+00 0.0000000000000000e+00 0.0000000000000000e+00  0.0000000000000000e+00 0.0000000000000000e+00 0.0000000000000000e+00  -6.3307197685321687e-03 3.9774630654336868e-02 0.0000000000000000e+00  -2.0390983362645301e-02 5.8126627563309191e-02 0.0000000000000000e+00  -3.6135080503756967e-02 6.0546057283170515e-02 0.0000000000000000e+00  -4.9975844145694767e-02 5.3491189919464346e-02 0.0000000000000000e+00  -6.0538500755772988e-02 4.1893910478084363e-02 0.0000000000000000e+00  -6.7731699193960118e-02 2.8543768082769014e-02 0.0000000000000000e+00  -7.1926208098908886e-02 1.4677019769426215e-02 0.0000000000000000e+00  -7.3474107340915334e-02 6.7380820564911885e-04 0.0000000000000000e+00  -7.2491096801800131e-02 -1.3445097241217700e-02 0.0000000000000000e+00  -6.8791361003100848e-02 -2.7654294408795160e-02 0.0000000000000000e+00  -6.1937763219728256e-02 -4.1545215016763420e-02 0.0000000000000000e+00  -5.1464255293311133e-02 -5.3791137503579049e-02 0.0000000000000000e+00  -3.7400042626747225e-02 -6.1414530932277812e-02 0.0000000000000000e+00  -2.1169856581532608e-02 -5.9224456620617157e-02 0.0000000000000000e+00  -6.5788521573595495e-03 -4.0569567712464283e-02 0.0000000000000000e+00  0.0000000000000000e+00 0.0000000000000000e+00 0.0000000000000000e+00  0.0000000000000000e+00 0.0000000000000000e+00 0.0000000000000000e+00  -8.6702371199692992e-03 5.3029864943075884e-02 0.0000000000000000e+00  -2.7118513959776294e-02 7.5942606419035524e-02 0.0000000000000000e+00  -4.6506737209415713e-02 7.7160907887645028e-02 0.0000000000000000e+00  -6.2313709778073968e-02 6.6442362332624863e-02 0.0000000000000000e+00  -7.3457040836460291e-02 5.0866025176193423e-02 0.0000000000000000e+00  -8.0516528314790434e-02 3.4091734211694917e-02 0.0000000000000000e+00  -8.4439925307298824e-02 1.7437938678994593e-02 0.0000000000000000e+00  -8.5927143971365180e-02 1.0132156171032518e-03 0.0000000000000000e+00  -8.5212258361415549e-02 -1.5557795895237196e-02 0.0000000000000000e+00  -8.2003125339117952e-02 -3.2660949533035451e-02 0.0000000000000000e+00  -7.5501307056667175e-02 -5.0194493851375255e-02 0.0000000000000000e+00  -6.4603882219486208e-02 -6.6767999757487193e-02 0.0000000000000000e+00  -4.8569700658816391e-02 -7.8468238438678894e-02 0.0000000000000000e+00  -2.8465482061453908e-02 -7.7757866205156470e-02 0.0000000000000000e+00  -9.1227131638218998e-03 -5.4428989515451241e-02 0.0000000000000000e+00  0.0000000000000000e+00 0.0000000000000000e+00 0.0000000000000000e+00  0.0000000000000000e+00 0.0000000000000000e+00 0.0000000000000000e+00  -1.2097903944288639e-02 7.1041452600309446e-02 0.0000000000000000e+00  -3.5976632967717824e-02 9.8363660050360693e-02 0.0000000000000000e+00  -5.8594378842734399e-02 9.6217798333910864e-02 0.0000000000000000e+00  -7.4907323764479838e-02 7.9849756236805056e-02 0.0000000000000000e+00  -8.4956451437064665e-02 5.9247220003737541e-02 0.0000000000000000e+00  -9.0516351654205587e-02 3.8844046421323504e-02 0.0000000000000000e+00  -9.3309455231655944e-02 1.9723783218655068e-02 0.0000000000000000e+00  -9.4423714012606463e-02 1.4418795088964463e-03 0.0000000000000000e+00  -9.4224305124288407e-02 -1.6999047274035575e-02 0.0000000000000000e+00  -9.2341005703678689e-02 -3.6635656455144529e-02 0.0000000000000000e+00  -8.7610230094153529e-02 -5.8000024306023509e-02 0.0000000000000000e+00  -7.8101931894159787e-02 -8.0030799508888376e-02 0.0000000000000000e+00  -6.1716983030600456e-02 -9.8031935806280501e-02 0.0000000000000000e+00  -3.8193568877305781e-02 -1.0127024936580933e-01 0.0000000000000000e+00  -1.2902911919703271e-02 -7.3495709600052028e-02 0.0000000000000000e+00  0.0000000000000000e+00 0.0000000000000000e+00 0.0000000000000000e+00  0.0000000000000000e+00 0.0000000000000000e+00 0.0000000000000000e+00  -1.6458133325590072e-02 9.5033951252627369e-02 0.0000000000000000e+00  -4.4872073974943742e-02 1.2461937883557547e-01 0.0000000000000000e+00  -6.7211128977979415e-02 1.1528315761699780e-01 0.0000000000000000e+00  -7.9918910077243457e-02 9.1010521048829368e-02 0.0000000000000000e+00  -8.5514739617358407e-02 6.4861214291368360e-02 0.0000000000000000e+00  -8.7320428950342519e-02 4.1364924444229421e-02 0.0000000000000000e+00  -8.7702871734862464e-02 2.0804458162433207e-02 0.0000000000000000e+00  -8.7953005251514824e-02 1.8794250935443219e-03 0.0000000000000000e+00  -8.8502737934273171e-02 -1.7178129494731791e-02 0.0000000000000000e+00  -8.9012323877031355e-02 -3.8211775279068126e-02 0.0000000000000000e+00  -8.8205743702859954e-02 -6.2730431642627593e-02 0.0000000000000000e+00  -8.3538118121340710e-02 -9.0680800249633459e-02 0.0000000000000000e+00  -7.1210059847361160e-02 -1.1743754681617845e-01 0.0000000000000000e+00  -4.8091715908951470e-02 -1.2894916949967078e-01 0.0000000000000000e+00  -1.7772611577100993e-02 -9.9196707088525335e-02 0.0000000000000000e+00  0.0000000000000000e+00 0.0000000000000000e+00 0.0000000000000000e+00  0.0000000000000000e+00 0.0000000000000000e+00 0.0000000000000000e+00  -1.9862863317710273e-02 1.2401048482930002e-01 0.0000000000000000e+00  -4.5060287444427485e-02 1.4880910441048226e-01 0.0000000000000000e+00  -5.6926916895570383e-02 1.2762431598211860e-01 0.0000000000000000e+00  -5.7944026552078406e-02 9.4725133782916804e-02 0.0000000000000000e+00  -5.4067815294900907e-02 6.4367787079374864e-02 0.0000000000000000e+00  -4.9354358489716726e-02 3.9752357789646975e-02 0.0000000000000000e+00  -4.5935861849526416e-02 1.9760163404875637e-02 0.0000000000000000e+00  -4.4757387243779999e-02 2.1366776598229806e-03 0.0000000000000000e+00  -4.6130623269439550e-02 -1.5545540457690129e-02 0.0000000000000000e+00  -4.9925818343619248e-02 -3.5810891159282064e-02 0.0000000000000000e+00  -5.5356297248613795e-02 -6.1223934783227338e-02 0.0000000000000000e+00  -6.0306680201215809e-02 -9.3403700921926194e-02 0.0000000000000000e+00  -6.0336569400723239e-02 -1.2949752761522537e-01 0.0000000000000000e+00  -4.8518627885686179e-02 -1.5438822003254660e-01 0.0000000000000000e+00  -2.1601215541036781e-02 -1.3051304364368305e-01 0.0000000000000000e+00  0.0000000000000000e+00 0.0000000000000000e+00 0.0000000000000000e+00  0.0000000000000000e+00 0.0000000000000000e+00 0.0000000000000000e+00  -1.4815076312697212e-02 1.4660885254275224e-01 0.0000000000000000e+00  -1.3529924502669981e-02 1.5426962516836656e-01 0.0000000000000000e+00  4.0797361410329731e-03 1.2113707121585697e-01 0.0000000000000000e+00  2.4575729546079100e-02 8.4124457869157884e-02 0.0000000000000000e+00  4.2215777772336240e-02 5.4351953028499288e-02 0.0000000000000000e+00  5.5081849149712286e-02 3.2433224196964969e-02 0.0000000000000000e+00  6.2864515267072762e-02 1.5899625097831809e-02 0.0000000000000000e+00  6.5730869616593440e-02 1.9639829170205111e-03 0.0000000000000000e+00  6.3744355427676952e-02 -1.1941693093769495e-02 0.0000000000000000e+00  5.6680517741419224e-02 -2.8463212713272842e-02 0.0000000000000000e+00  4.4138774457453969e-02 -5.0680993690367750e-02 0.0000000000000000e+00  2.6126263038930991e-02 -8.1706090582165256e-02 0.0000000000000000e+00  4.4516024908181533e-03 -1.2180263125398713e-01 0.0000000000000000e+00  -1.4553742726696205e-02 -1.5981259535800374e-01 0.0000000000000000e+00  -1.5940990336362929e-02 -1.5495965245148149e-01 0.0000000000000000e+00  0.0000000000000000e+00 0.0000000000000000e+00 0.0000000000000000e+00  0.0000000000000000e+00 0.0000000000000000e+00 0.0000000000000000e+00  3.3867026599518117e-02 1.2315592511949534e-01 0.0000000000000000e+00  1.0796230651370370e-01 1.1552785334430277e-01 0.0000000000000000e+00  1.6632945133357976e-01 8.5061497765614835e-02 0.0000000000000000e+00  2.0879885946783286e-01 5.5919583900469062e-02 0.0000000000000000e+00  2.3795862693438011e-01 3.4441618437040501e-02 0.0000000000000000e+00  2.5650038690722787e-01 1.9866320003419900e-02 0.0000000000000000e+00  2.6693554157457899e-01 9.5828220516035768e-03 0.0000000000000000e+00  2.7083028158570577e-01 1.2703460911012245e-03 0.0000000000000000e+00  2.6871477558151025e-01 -6.9756051335760055e-03 0.0000000000000000e+00  2.6005684864149620e-01 -1.7086472917235387e-02 0.0000000000000000e+00  2.4317850841191219e-01 -3.1527765826823796e-02 0.0000000000000000e+00  2.1521861388558200e-01 -5.3379077279557444e-02 0.0000000000000000e+00  1.7281491691687556e-01 -8.4448913019588387e-02 0.0000000000000000e+00  1.1303086728303234e-01 -1.1915118171606918e-01 0.0000000000000000e+00  3.6122192136303043e-02 -1.3030391275697309e-01 0.0000000000000000e+00  0.0000000000000000e+00 0.0000000000000000e+00 0.0000000000000000e+00  0.0000000000000000e+00 0.0000000000000000e+00 0.0000000000000000e+00  3.5993344544240208e-01 -5.5978124852020439e-04 0.0000000000000000e+00  4.4374858783603932e-01 3.6694346039798452e-02 0.0000000000000000e+00  5.0363547532127095e-01 3.0492008982158519e-02 0.0000000000000000e+00  5.4591731544298661e-01 1.9392270882658529e-02 0.0000000000000000e+00  5.7219643084065863e-01 1.1442991923332257e-02 0.0000000000000000e+00  5.8769560357498773e-01 6.3918512671896667e-03 0.0000000000000000e+00  5.9599473356894239e-01 3.0270492079691926e-03 0.0000000000000000e+00  5.9905188761302086e-01 3.9621321808615110e-04 0.0000000000000000e+00  5.9749391113574501e-01 -2.2055209262373410e-03 0.0000000000000000e+00  5.9079617600818091e-01 -5.4797315005119798e-03 0.0000000000000000e+00  5.7708086492200128e-01 -1.0389928814803417e-02 0.0000000000000000e+00  5.5267681809782265e-01 -1.8279735322207422e-02 0.0000000000000000e+00  5.1186750954167848e-01 -2.9918869643759366e-02 0.0000000000000000e+00  4.5116191289937135e-01 -3.8475970722088998e-02 0.0000000000000000e+00  3.6467851360383835e-01 -5.0672345086700309e-03 0.0000000000000000e+00  0.0000000000000000e+00 0.0000000000000000e+00 0.0000000000000000e+00  1.0000000000000000e+00 0.0000000000000000e+00 0.0000000000000000e+00  1.0000000000000000e+00 0.0000000000000000e+00 0.0000000000000000e+00  1.0000000000000000e+00 0.0000000000000000e+00 0.0000000000000000e+00  1.0000000000000000e+00 0.0000000000000000e+00 0.0000000000000000e+00  1.0000000000000000e+00 0.0000000000000000e+00 0.0000000000000000e+00  1.0000000000000000e+00 0.0000000000000000e+00 0.0000000000000000e+00  1.0000000000000000e+00 0.0000000000000000e+00 0.0000000000000000e+00  1.0000000000000000e+00 0.0000000000000000e+00 0.0000000000000000e+00  