<?xml version="1.0"?>
<VTKFile type="UnstructuredGrid"  version="0.1"  >
<UnstructuredGrid>
<Piece  NumberOfPoints="545" NumberOfCells="1024">
<Points>
<DataArray  type="Float64"  NumberOfComponents="3"  format="ascii">0 0 0  0.0625 0 0  0.125 0 0  0.1875 0 0  0.25 0 0  0.3125 0 0  0.375 0 0  0.4375 0 0  0.5 0 0  0.5625 0 0  0.625 0 0  0.6875 0 0  0.75 0 0  0.8125 0 0  0.875 0 0  0.9375 0 0  1 0 0  0 0.0625 0  0.0625 0.0625 0  0.125 0.0625 0  0.1875 0.0625 0  0.25 0.0625 0  0.3125 0.0625 0  0.375 0.0625 0  0.4375 0.0625 0  0.5 0.0625 0  0.5625 0.0625 0  0.625 0.0625 0  0.6875 0.0625 0  0.75 0.0625 0  0.8125 0.0625 0  0.875 0.0625 0  0.9375 0.0625 0  1 0.0625 0  0 0.125 0  0.0625 0.125 0  0.125 0.125 0  0.1875 0.125 0  0.25 0.125 0  0.3125 0.125 0  0.375 0.125 0  0.4375 0.125 0  0.5 0.125 0  0.5625 0.125 0  0.625 0.125 0  0.6875 0.125 0  0.75 0.125 0  0.8125 0.125 0  0.875 0.125 0  0.9375 0.125 0  1 0.125 0  0 0.1875 0  0.0625 0.1875 0  0.125 0.1875 0  0.1875 0.1875 0  0.25 0.1875 0  0.3125 0.1875 0  0.375 0.1875 0  0.4375 0.1875 0  0.5 0.1875 0  0.5625 0.1875 0  0.625 0.1875 0  0.6875 0.1875 0  0.75 0.1875 0  0.8125 0.1875 0  0.875 0.1875 0  0.9375 0.1875 0  1 0.1875 0  0 0.25 0  0.0625 0.25 0  0.125 0.25 0  0.1875 0.25 0  0.25 0.25 0  0.3125 0.25 0  0.375 0.25 0  0.4375 0.25 0  0.5 0.25 0  0.5625 0.25 0  0.625 0.25 0  0.6875 0.25 0  0.75 0.25 0  0.8125 0.25 0  0.875 0.25 0  0.9375 0.25 0  1 0.25 0  0 0.3125 0  0.0625 0.3125 0  0.125 0.3125 0  0.1875 0.3125 0  0.25 0.3125 0  0.3125 0.3125 0  0.375 0.3125 0  0.4375 0.3125 0  0.5 0.3125 0  0.5625 0.3125 0  0.625 0.3125 0  0.6875 0.3125 0  0.75 0.3125 0  0.8125 0.3125 0  0.875 0.3125 0  0.9375 0.3125 0  1 0.3125 0  0 0.375 0  0.0625 0.375 0  0.125 0.375 0  0.1875 0.375 0  0.25 0.375 0  0.3125 0.375 0  0.375 0.375 0  0.4375 0.375 0  0.5 0.375 0  0.5625 0.375 0  0.625 0.375 0  0.6875 0.375 0  0.75 0.375 0  0.8125 0.375 0  0.875 0.375 0  0.9375 0.375 0  1 0.375 0  0 0.4375 0  0.0625 0.4375 0  0.125 0.4375 0  0.1875 0.4375 0  0.25 0.4375 0  0.3125 0.4375 0  0.375 0.4375 0  0.4375 0.4375 0  0.5 0.4375 0  0.5625 0.4375 0  0.625 0.4375 0  0.6875 0.4375 0  0.75 0.4375 0  0.8125 0.4375 0  0.875 0.4375 0  0.9375 0.4375 0  1 0.4375 0  0 0.5 0  0.0625 0.5 0  0.125 0.5 0  0.1875 0.5 0  0.25 0.5 0  0.3125 0.5 0  0.375 0.5 0  0.4375 0.5 0  0.5 0.5 0  0.5625 0.5 0  0.625 0.5 0  0.6875 0.5 0  0.75 0.5 0  0.8125 0.5 0  0.875 0.5 0  0.9375 0.5 0  1 0.5 0  0 0.5625 0  0.0625 0.5625 0  0.125 0.5625 0  0.1875 0.5625 0  0.25 0.5625 0  0.3125 0.5625 0  0.375 0.5625 0  0.4375 0.5625 0  0.5 0.5625 0  0.5625 0.5625 0  0.625 0.5625 0  0.6875 0.5625 0  0.75 0.5625 0  0.8125 0.5625 0  0.875 0.5625 0  0.9375 0.5625 0  1 0.5625 0  0 0.625 0  0.0625 0.625 0  0.125 0.625 0  0.1875 0.625 0  0.25 0.625 0  0.3125 0.625 0  0.375 0.625 0  0.4375 0.625 0  0.5 0.625 0  0.5625 0.625 0  0.625 0.625 0  0.6875 0.625 0  0.75 0.625 0  0.8125 0.625 0  0.875 0.625 0  0.9375 0.625 0  1 0.625 0  0 0.6875 0  0.0625 0.6875 0  0.125 0.6875 0  0.1875 0.6875 0  0.25 0.6875 0  0.3125 0.6875 0  0.375 0.6875 0  0.4375 0.6875 0  0.5 0.6875 0  0.5625 0.6875 0  0.625 0.6875 0  0.6875 0.6875 0  0.75 0.6875 0  0.8125 0.6875 0  0.875 0.6875 0  0.9375 0.6875 0  1 0.6875 0  0 0.75 0  0.0625 0.75 0  0.125 0.75 0  0.1875 0.75 0  0.25 0.75 0  0.3125 0.75 0  0.375 0.75 0  0.4375 0.75 0  0.5 0.75 0  0.5625 0.75 0  0.625 0.75 0  0.6875 0.75 0  0.75 0.75 0  0.8125 0.75 0  0.875 0.75 0  0.9375 0.75 0  1 0.75 0  0 0.8125 0  0.0625 0.8125 0  0.125 0.8125 0  0.1875 0.8125 0  0.25 0.8125 0  0.3125 0.8125 0  0.375 0.8125 0  0.4375 0.8125 0  0.5 0.8125 0  0.5625 0.8125 0  0.625 0.8125 0  0.6875 0.8125 0  0.75 0.8125 0  0.8125 0.8125 0  0.875 0.8125 0  0.9375 0.8125 0  1 0.8125 0  0 0.875 0  0.0625 0.875 0  0.125 0.875 0  0.1875 0.875 0  0.25 0.875 0  0.3125 0.875 0  0.375 0.875 0  0.4375 0.875 0  0.5 0.875 0  0.5625 0.875 0  0.625 0.875 0  0.6875 0.875 0  0.75 0.875 0  0.8125 0.875 0  0.875 0.875 0  0.9375 0.875 0  1 0.875 0  0 0.9375 0  0.0625 0.9375 0  0.125 0.9375 0  0.1875 0.9375 0  0.25 0.9375 0  0.3125 0.9375 0  0.375 0.9375 0  0.4375 0.9375 0  0.5 0.9375 0  0.5625 0.9375 0  0.625 0.9375 0  0.6875 0.9375 0  0.75 0.9375 0  0.8125 0.9375 0  0.875 0.9375 0  0.9375 0.9375 0  1 0.9375 0  0 1 0  0.0625 1 0  0.125 1 0  0.1875 1 0  0.25 1 0  0.3125 1 0  0.375 1 0  0.4375 1 0  0.5 1 0  0.5625 1 0  0.625 1 0  0.6875 1 0  0.75 1 0  0.8125 1 0  0.875 1 0  0.9375 1 0  1 1 0  0.03125 0.03125 0  0.09375 0.03125 0  0.15625 0.03125 0  0.21875 0.03125 0  0.28125 0.03125 0  0.34375 0.03125 0  0.40625 0.03125 0  0.46875 0.03125 0  0.53125 0.03125 0  0.59375 0.03125 0  0.65625 0.03125 0  0.71875 0.03125 0  0.78125 0.03125 0  0.84375 0.03125 0  0.90625 0.03125 0  0.96875 0.03125 0  0.03125 0.09375 0  0.09375 0.09375 0  0.15625 0.09375 0  0.21875 0.09375 0  0.28125 0.09375 0  0.34375 0.09375 0  0.40625 0.09375 0  0.46875 0.09375 0  0.53125 0.09375 0  0.59375 0.09375 0  0.65625 0.09375 0  0.71875 0.09375 0  0.78125 0.09375 0  0.84375 0.09375 0  0.90625 0.09375 0  0.96875 0.09375 0  0.03125 0.15625 0  0.09375 0.15625 0  0.15625 0.15625 0  0.21875 0.15625 0  0.28125 0.15625 0  0.34375 0.15625 0  0.40625 0.15625 0  0.46875 0.15625 0  0.53125 0.15625 0  0.59375 0.15625 0  0.65625 0.15625 0  0.71875 0.15625 0  0.78125 0.15625 0  0.84375 0.15625 0  0.90625 0.15625 0  0.96875 0.15625 0  0.03125 0.21875 0  0.09375 0.21875 0  0.15625 0.21875 0  0.21875 0.21875 0  0.28125 0.21875 0  0.34375 0.21875 0  0.40625 0.21875 0  0.46875 0.21875 0  0.53125 0.21875 0  0.59375 0.21875 0  0.65625 0.21875 0  0.71875 0.21875 0  0.78125 0.21875 0  0.84375 0.21875 0  0.90625 0.21875 0  0.96875 0.21875 0  0.03125 0.28125 0  0.09375 0.28125 0  0.15625 0.28125 0  0.21875 0.28125 0  0.28125 0.28125 0  0.34375 0.28125 0  0.40625 0.28125 0  0.46875 0.28125 0  0.53125 0.28125 0  0.59375 0.28125 0  0.65625 0.28125 0  0.71875 0.28125 0  0.78125 0.28125 0  0.84375 0.28125 0  0.90625 0.28125 0  0.96875 0.28125 0  0.03125 0.34375 0  0.09375 0.34375 0  0.15625 0.34375 0  0.21875 0.34375 0  0.28125 0.34375 0  0.34375 0.34375 0  0.40625 0.34375 0  0.46875 0.34375 0  0.53125 0.34375 0  0.59375 0.34375 0  0.65625 0.34375 0  0.71875 0.34375 0  0.78125 0.34375 0  0.84375 0.34375 0  0.90625 0.34375 0  0.96875 0.34375 0  0.03125 0.40625 0  0.09375 0.40625 0  0.15625 0.40625 0  0.21875 0.40625 0  0.28125 0.40625 0  0.34375 0.40625 0  0.40625 0.40625 0  0.46875 0.40625 0  0.53125 0.40625 0  0.59375 0.40625 0  0.65625 0.40625 0  0.71875 0.40625 0  0.78125 0.40625 0  0.84375 0.40625 0  0.90625 0.40625 0  0.96875 0.40625 0  0.03125 0.46875 0  0.09375 0.46875 0  0.15625 0.46875 0  0.21875 0.46875 0  0.28125 0.46875 0  0.34375 0.46875 0  0.40625 0.46875 0  0.46875 0.46875 0  0.53125 0.46875 0  0.59375 0.46875 0  0.65625 0.46875 0  0.71875 0.46875 0  0.78125 0.46875 0  0.84375 0.46875 0  0.90625 0.46875 0  0.96875 0.46875 0  0.03125 0.53125 0  0.09375 0.53125 0  0.15625 0.53125 0  0.21875 0.53125 0  0.28125 0.53125 0  0.34375 0.53125 0  0.40625 0.53125 0  0.46875 0.53125 0  0.53125 0.53125 0  0.59375 0.53125 0  0.65625 0.53125 0  0.71875 0.53125 0  0.78125 0.53125 0  0.84375 0.53125 0  0.90625 0.53125 0  0.96875 0.53125 0  0.03125 0.59375 0  0.09375 0.59375 0  0.15625 0.59375 0  0.21875 0.59375 0  0.28125 0.59375 0  0.34375 0.59375 0  0.40625 0.59375 0  0.46875 0.59375 0  0.53125 0.59375 0  0.59375 0.59375 0  0.65625 0.59375 0  0.71875 0.59375 0  0.78125 0.59375 0  0.84375 0.59375 0  0.90625 0.59375 0  0.96875 0.59375 0  0.03125 0.65625 0  0.09375 0.65625 0  0.15625 0.65625 0  0.21875 0.65625 0  0.28125 0.65625 0  0.34375 0.65625 0  0.40625 0.65625 0  0.46875 0.65625 0  0.53125 0.65625 0  0.59375 0.65625 0  0.65625 0.65625 0  0.71875 0.65625 0  0.78125 0.65625 0  0.84375 0.65625 0  0.90625 0.65625 0  0.96875 0.65625 0  0.03125 0.71875 0  0.09375 0.71875 0  0.15625 0.71875 0  0.21875 0.71875 0  0.28125 0.71875 0  0.34375 0.71875 0  0.40625 0.71875 0  0.46875 0.71875 0  0.53125 0.71875 0  0.59375 0.71875 0  0.65625 0.71875 0  0.71875 0.71875 0  0.78125 0.71875 0  0.84375 0.71875 0  0.90625 0.71875 0  0.96875 0.71875 0  0.03125 0.78125 0  0.09375 0.78125 0  0.15625 0.78125 0  0.21875 0.78125 0  0.28125 0.78125 0  0.34375 0.78125 0  0.40625 0.78125 0  0.46875 0.78125 0  0.53125 0.78125 0  0.59375 0.78125 0  0.65625 0.78125 0  0.71875 0.78125 0  0.78125 0.78125 0  0.84375 0.78125 0  0.90625 0.78125 0  0.96875 0.78125 0  0.03125 0.84375 0  0.09375 0.84375 0  0.15625 0.84375 0  0.21875 0.84375 0  0.28125 0.84375 0  0.34375 0.84375 0  0.40625 0.84375 0  0.46875 0.84375 0  0.53125 0.84375 0  0.59375 0.84375 0  0.65625 0.84375 0  0.71875 0.84375 0  0.78125 0.84375 0  0.84375 0.84375 0  0.90625 0.84375 0  0.96875 0.84375 0  0.03125 0.90625 0  0.09375 0.90625 0  0.15625 0.90625 0  0.21875 0.90625 0  0.28125 0.90625 0  0.34375 0.90625 0  0.40625 0.90625 0  0.46875 0.90625 0  0.53125 0.90625 0  0.59375 0.90625 0  0.65625 0.90625 0  0.71875 0.90625 0  0.78125 0.90625 0  0.84375 0.90625 0  0.90625 0.90625 0  0.96875 0.90625 0  0.03125 0.96875 0  0.09375 0.96875 0  0.15625 0.96875 0  0.21875 0.96875 0  0.28125 0.96875 0  0.34375 0.96875 0  0.40625 0.96875 0  0.46875 0.96875 0  0.53125 0.96875 0  0.59375 0.96875 0  0.65625 0.96875 0  0.71875 0.96875 0  0.78125 0.96875 0  0.84375 0.96875 0  0.90625 0.96875 0  0.96875 0.96875 0  </DataArray>
</Points>
<Cells>
[...]
<PointData  Vectors="f_8-0"> 
<DataArray  type="Float64"  Name="f_8-0"  NumberOfComponents="3" format="ascii">0.0000000000000000e+00 0.0000000000000000e+00 0.0000000000000000e+00  0.0000000000000000e+00 0.0000000000000000e+00 0.0000000000000000e+00  0.0000000000000000e+00 0.0000000000000000e+00 0.0000000000000000e+00  0.0000000000000000e+00 0.0000000000000000e+00 0.0000000000000000e+00  0.0000000000000000e+00 0.0000000000000000e+00 0.0000000000000000e+00  0.0000000000000000e+00 0.0000000000000000e+00 0.0000000000000000e+00  0.0000000000000000e+00 0.0000000000000000e+00 0.0000000000000000e+00  0.0000000000000000e+00 0.0000000000000000e+00 0.0000000000000000e+00  0.0000000000000000e+00 0.0000000000000000e+00 0.0000000000000000e+00  0.0000000000000000e+00 0.0000000000000000e+00 0.0000000000000000e+00  0.0000000000000000e+00 0.0000000000000000e+00 0.0000000000000000e+00  0.0000000000000000e+00 0.0000000000000000e+00 0.0000000000000000e+00  0.0000000000000000e+00 0.0000000000000000e+00 0.0000000000000000e+00  0.0000000000000000e+00 0.0000000000000000e+00 0.0000000000000000e+00  0.0000000000000000e+00 0.0000000000000000e+00 0.0000000000000000e+00  0.0000000000000000e+00 0.0000000000000000e+00 0.0000000000000000e+00  0.0000000000000000e+00 0.0000000000000000e+00 0.0000000000000000e+00  0.0000000000000000e+00 0.0000000000000000e+00 0.0000000000000000e+00  -7.6553008632579184e-04 7.6901010731520705e-04 0.0000000000000000e+00  -3.6387792723572392e-03 2.0385773868776443e-03 0.0000000000000000e+00  -8.3583573125298877e-03 2.8539769461341171e-03 0.0000000000000000e+00  -1.3986519034217713e-02 3.0823108788012978e-03 0.0000000000000000e+00  -1.9524309081148022e-02 2.7933053740272040e-03 0.0000000000000000e+00  -2.4131479918885552e-02 2.1063325131806484e-03 0.0000000000000000e+00  -2.7188632040898376e-02 1.1487678642410017e-03 0.0000000000000000e+00  -2.8309574569733632e-02 4.6515034998461300e-05 0.0000000000000000e+00  -2.7343988089731871e-02 -1.0730479758480924e-03 0.0000000000000000e+00  -2.4386434448458175e-02 -2.0746838581181962e-03 0.0000000000000000e+00  -1.9792461221786156e-02 -2.8122718753135129e-03 0.0000000000000000e+00  -1.4190023855001746e-02 -3.1349874289110587e-03 0.0000000000000000e+00  -8.4626229420288347e-03 -2.9086736353355078e-03 0.0000000000000000e+00  -3.6634669820697907e-03 -2.0672021927261408e-03 0.0000000000000000e+00  -7.6156849814311086e-04 -7.6745206862744461e-04 0.0000000000000000e+00  0.0000000000000000e+00 0.0000000000000000e+00 0.0000000000000000e+00  0.0000000000000000e+00 0.0000000000000000e+00 0.0000000000000000e+00  -2.1294244188510042e-03 3.7070852399265814e-03 0.0000000000000000e+00  -7.9986155884183927e-03 7.7355120044412650e-03 0.0000000000000000e+00  -1.6521497314988778e-02 1.0280300662216016e-02 0.0000000000000000e+00  -2.6232442269387191e-02 1.0934582181196648e-02 0.0000000000000000e+00  -3.5614991683690568e-02 9.8588376739056106e-03 0.0000000000000000e+00  -4.3359212344233330e-02 7.4191647659806745e-03 0.0000000000000000e+00  -4.8480125092156476e-02 4.0405668069629251e-03 0.0000000000000000e+00  -5.0357470801145825e-02 1.5911301248373749e-04 0.0000000000000000e+00  -4.8749606655015335e-02 -3.7788789172181368e-03 0.0000000000000000e+00  -4.3809273514580249e-02 -7.3022800947620146e-03 0.0000000000000000e+00  -3.6104890729172882e-02 -9.9109668863466387e-03 0.0000000000000000e+00  -2.6628684671997895e-02 -1.1104830776565407e-02 0.0000000000000000e+00  -1.6753114684850471e-02 -1.0468485979142147e-02 0.0000000000000000e+00  -8.0807621962860083e-03 -7.8485097081129711e-03 0.0000000000000000e+00  -2.1376539510529697e-03 -3.7221457326714917e-03 0.0000000000000000e+00  0.0000000000000000e+00 0.0000000000000000e+00 0.0000000000000000e+00  0.0000000000000000e+00 0.0000000000000000e+00 0.0000000000000000e+00  -3.3872273279556952e-03 8.9912705671251463e-03 0.0000000000000000e+00  -1.2129727196000284e-02 1.6821091809669859e-02 0.0000000000000000e+00  -2.4158035673317653e-02 2.1476921291362690e-02 0.0000000000000000e+00  -3.7406372165869645e-02 2.2457246848021639e-02 0.0000000000000000e+00  -4.9953861837946881e-02 2.0086833238948384e-02 0.0000000000000000e+00  -6.0196068037440702e-02 1.5059488863715101e-02 0.0000000000000000e+00  -6.6939875896605300e-02 8.1947361095299348e-03 0.0000000000000000e+00  -6.9434169925397735e-02 3.4250994409474038e-04 0.0000000000000000e+00  -6.7378721280606707e-02 -7.6246116817620850e-03 0.0000000000000000e+00  -6.0941713279133752e-02 -1.4786430566779127e-02 0.0000000000000000e+00  -5.0791256471044530e-02 -2.0168775956557115e-02 0.0000000000000000e+00  -3.8118979323914580e-02 -2.2802510148609411e-02 0.0000000000000000e+00  -2.4611331296553088e-02 -2.1887822794098816e-02 0.0000000000000000e+00  -1.2319304365989143e-02 -1.7098713327179185e-02 0.0000000000000000e+00  -3.4200662617290037e-03 -9.0620453613520884e-03 0.0000000000000000e+00  0.0000000000000000e+00 0.0000000000000000e+00 0.0000000000000000e+00  0.0000000000000000e+00 0.0000000000000000e+00 0.0000000000000000e+00  -4.5594147794240421e-03 1.6485856027741694e-02 0.0000000000000000e+00  -1.6095577345758269e-02 2.9180127994949873e-02 0.0000000000000000e+00  -3.1560556730178969e-02 3.6208144396604650e-02 0.0000000000000000e+00  -4.8202691695467065e-02 3.7270590926919471e-02 0.0000000000000000e+00  -6.3688347679597523e-02 3.3042171455905912e-02 0.0000000000000000e+00  -7.6187121278371697e-02 2.4662876396554359e-02 0.0000000000000000e+00  -8.4389527426243144e-02 1.3424768147857773e-02 0.0000000000000000e+00  -8.7481713950297801e-02 6.4408698856102946e-04 0.0000000000000000e+00  -8.5121706680071116e-02 -1.2338603205205204e-02 0.0000000000000000e+00  -7.7450688548140759e-02 -2.4105337933845394e-02 0.0000000000000000e+00  -6.5146757219330831e-02 -3.3134603012760062e-02 0.0000000000000000e+00  -4.9497458447976102e-02 -3.7877322346932266e-02 0.0000000000000000e+00  -3.2439617963993729e-02 -3.6993260529131614e-02 0.0000000000000000e+00  -1.6505830883456217e-02 -2.9771196485154489e-02 0.0000000000000000e+00  -4.6493724854725325e-03 -1.6694223523851307e-02 0.0000000000000000e+00  0.0000000000000000e+00 0.0000000000000000e+00 0.0000000000000000e+00  0.0000000000000000e+00 0.0000000000000000e+00 0.0000000000000000e+00  -5.7598230724428276e-03 2.6160374247322198e-02 0.0000000000000000e+00  -2.0156038355124500e-02 4.4821814950978041e-02 0.0000000000000000e+00  -3.9103694958568372e-02 5.4446914836590220e-02 0.0000000000000000e+00  -5.9101363865273517e-02 5.5258146380884943e-02 0.0000000000000000e+00  -7.7397807395126708e-02 4.8546899648302173e-02 0.0000000000000000e+00  -9.1995771458036862e-02 3.6068685099958135e-02 0.0000000000000000e+00  -1.0155385577713401e-01 1.9667418740900357e-02 0.0000000000000000e+00  -1.0526086966224044e-01 1.1406917979337606e-03 0.0000000000000000e+00  -1.0274878875655286e-01 -1.7718285359984220e-02 0.0000000000000000e+00  -9.4087037805261717e-02 -3.5000897420798281e-02 0.0000000000000000e+00  -7.9870410695069768e-02 -4.8596847417583390e-02 0.0000000000000000e+00  -6.1376929057689246e-02 -5.6251544649595892e-02 0.0000000000000000e+00  -4.0731553433945973e-02 -5.5855384486940045e-02 0.0000000000000000e+00  -2.0978754559481127e-02 -4.5993359537940072e-02 0.0000000000000000e+00  -5.9670016187029669e-03 -2.6672863746491235e-02 0.0000000000000000e+00  0.0000000000000000e+00 0.0000000000000000e+00 0.0000000000000000e+00  0.0000000000000000e+00 0.0000000000000000e+00 0.0000000000000000e+00  -7.0725496322512332e-03 3.8134581869309514e-02 0.0000000000000000e+00  -2.4488375809649680e-02 6.3848179404987104e-02 0.0000000000000000e+00  -4.6947495445303425e-02 7.6182674867005085e-02 0.0000000000000000e+00  -7.0137988941344223e-02 7.6273039573581669e-02 0.0000000000000000e+00  -9.0938771045013550e-02 6.6374534172081126e-02 0.0000000000000000e+00  -1.0730263039880887e-01 4.9072768501328558e-02 0.0000000000000000e+00  -1.1798724449862724e-01 2.6838792049451901e-02 0.0000000000000000e+00  -1.2228103309656137e-01 1.9227504946952708e-03 0.0000000000000000e+00  -1.1982105302331478e-01 -2.3510964446757751e-02 0.0000000000000000e+00  -1.1055599124919933e-01 -4.7138530031222266e-02 0.0000000000000000e+00  -9.4874118662233442e-02 -6.6265958602859804e-02 0.0000000000000000e+00  -7.3879716835639153e-02 -7.7805245204922199e-02 0.0000000000000000e+00  -4.9745233173841760e-02 -7.8579420804564426e-02 0.0000000000000000e+00  -2.5990866648554500e-02 -6.6031233235128689e-02 0.0000000000000000e+00  -7.4862294971922063e-03 -3.9249987350543150e-02 0.0000000000000000e+00  0.0000000000000000e+00 0.0000000000000000e+00 0.0000000000000000e+00  0.0000000000000000e+00 0.0000000000000000e+00 0.0000000000000000e+00  -8.5345049340212094e-03 5.2609063069601156e-02 0.0000000000000000e+00  -2.9098055293753016e-02 8.6330434517647936e-02 0.0000000000000000e+00  -5.4874466966136737e-02 1.0121131808906120e-01 0.0000000000000000e+00  -8.0697200769803398e-02 9.9864501071131859e-02 0.0000000000000000e+00  -1.0322206210710269e-01 8.5970980638326241e-02 0.0000000000000000e+00  -1.2057989146181605e-01 6.3198308999885336e-02 0.0000000000000000e+00  -1.3184530564336605e-01 3.4693880918907342e-02 0.0000000000000000e+00  -1.3656007721717617e-01 3.0654853831420807e-03 0.0000000000000000e+00  -1.3442815620395349e-01 -2.9321382397293663e-02 0.0000000000000000e+00  -1.2523051231212848e-01 -5.9900924560759856e-02 0.0000000000000000e+00  -1.0898524966656681e-01 -8.5487582671885123e-02 0.0000000000000000e+00  -8.6360964540423441e-02 -1.0207234379796837e-01 0.0000000000000000e+00  -5.9290317071780473e-02 -1.0506033773787531e-01 0.0000000000000000e+00  -3.1595820599487727e-02 -9.0143911937700244e-02 0.0000000000000000e+00  -9.2691818703560611e-03 -5.4801105522637637e-02 0.0000000000000000e+00  0.0000000000000000e+00 0.0000000000000000e+00 0.0000000000000000e+00  0.0000000000000000e+00 0.0000000000000000e+00 0.0000000000000000e+00  -1.0138595802414789e-02 6.9771098742393747e-02 0.0000000000000000e+00  -3.3775991191209394e-02 1.1210713807254688e-01 0.0000000000000000e+00  -6.2151265222076840e-02 1.2884193079088108e-01 0.0000000000000000e+00  -8.9280878453894805e-02 1.2494807118436914e-01 0.0000000000000000e+00  -1.1192477960265033e-01 1.0615001244647268e-01 0.0000000000000000e+00  -1.2878324439981623e-01 7.7458266707151571e-02 0.0000000000000000e+00  -1.3957083291599345e-01 4.2676986391173323e-02 0.0000000000000000e+00  -1.4429606701080050e-01 4.5794666390795357e-03 0.0000000000000000e+00  -1.4282943840658757e-01 -3.4548453928547086e-02 0.0000000000000000e+00  -1.3475840989620991e-01 -7.2201292993814684e-02 0.0000000000000000e+00  -1.1954781489742912e-01 -1.0493914368594975e-01 0.0000000000000000e+00  -9.7064868056752338e-02 -1.2786570030678632e-01 0.0000000000000000e+00  -6.8504279766896700e-02 -1.3462312123376199e-01 0.0000000000000000e+00  -3.7561001096461800e-02 -1.1832779271398636e-01 0.0000000000000000e+00  -1.1318833078813930e-02 -7.3709125901395070e-02 0.0000000000000000e+00  0.0000000000000000e+00 0.0000000000000000e+00 0.0000000000000000e+00  0.0000000000000000e+00 0.0000000000000000e+00 0.0000000000000000e+00  -1.1839844241468462e-02 8.9686977320345709e-02 0.0000000000000000e+00  -3.8029931442875156e-02 1.4048647976317488e-01 0.0000000000000000e+00  -6.7307582721217590e-02 1.5747520488697925e-01 0.0000000000000000e+00  -9.3160253058467257e-02 1.4938958522903853e-01 0.0000000000000000e+00  -1.1309953296406053e-01 1.2476381349405687e-01 0.0000000000000000e+00  -1.2698635954561571e-01 9.0128779342474041e-02 0.0000000000000000e+00  -1.3556980895739740e-01 4.9780601250860229e-02 0.0000000000000000e+00  -1.3955382191594276e-01 6.3408375352773877e-03 0.0000000000000000e+00  -1.3909779591006996e-01 -3.8372396982331830e-02 0.0000000000000000e+00  -1.3362367413393167e-01 -8.2348196649849201e-02 0.0000000000000000e+00  -1.2191377992204291e-01 -1.2232745128604366e-01 0.0000000000000000e+00  -1.0263270678998881e-01 -1.5281040994254766e-01 0.0000000000000000e+00  -7.5502453915450712e-02 -1.6549508206602065e-01 0.0000000000000000e+00  -4.3222826615170899e-02 -1.4991439724537559e-01 0.0000000000000000e+00  -1.3563475956562480e-02 -9.6202637791437187e-02 0.0000000000000000e+00  0.0000000000000000e+00 0.0000000000000000e+00 0.0000000000000000e+00  0.0000000000000000e+00 0.0000000000000000e+00 0.0000000000000000e+00  -1.3546120338152513e-02 1.1215801919527311e-01 0.0000000000000000e+00  -4.0866189851400649e-02 1.6974570752089047e-01 0.0000000000000000e+00  -6.7629338120659160e-02 1.8398651364524538e-01 0.0000000000000000e+00  -8.7731934021606561e-02 1.6952173903466602e-01 0.0000000000000000e+00  -1.0059887110318112e-01 1.3843206921151424e-01 0.0000000000000000e+00  -1.0798078924423132e-01 9.8629226339847081e-02 0.0000000000000000e+00  -1.1197993060376013e-01 5.4482137801492983e-02 0.0000000000000000e+00  -1.1411442225335093e-01 8.0213551607057117e-03 0.0000000000000000e+00  -1.1492129767613769e-01 -3.9833220544567512e-02 0.0000000000000000e+00  -1.1377336730987402e-01 -8.8059415683828995e-02 0.0000000000000000e+00  -1.0883501985795868e-01 -1.3420397841029399e-01 0.0000000000000000e+00  -9.7343442106062647e-02 -1.7284477642998322e-01 0.0000000000000000e+00  -7.6714956580490851e-02 -1.9405917894074221e-01 0.0000000000000000e+00  -4.7151575593368696e-02 -1.8289554340358508e-01 0.0000000000000000e+00  -1.5809566790352138e-02 -1.2210458917840504e-01 0.0000000000000000e+00  0.0000000000000000e+00 0.0000000000000000e+00 0.0000000000000000e+00  0.0000000000000000e+00 0.0000000000000000e+00 0.0000000000000000e+00  -1.5003139965145112e-02 1.3632660444493991e-01 0.0000000000000000e+00  -4.0055078122010826e-02 1.9617464869236556e-01 0.0000000000000000e+00  -5.7864603398940999e-02 2.0282125538178364e-01 0.0000000000000000e+00  -6.5246057615780756e-02 1.7975226073822817e-01 0.0000000000000000e+00  -6.5209734495699265e-02 1.4256923767511567e-01 0.0000000000000000e+00  -6.1905798932070634e-02 9.9718224509112996e-02 0.0000000000000000e+00  -5.8692755170104832e-02 5.4897205316406225e-02 0.0000000000000000e+00  -5.7702995683033755e-02 9.0731683283885485e-03 0.0000000000000000e+00  -5.9805076114348259e-02 -3.8046945749674210e-02 0.0000000000000000e+00  -6.4531671820118763e-02 -8.6794512550390765e-02 0.0000000000000000e+00  -6.9852345065056387e-02 -1.3617471053363356e-01 0.0000000000000000e+00  -7.1934697650304136e-02 -1.8194597108565858e-01 0.0000000000000000e+00  -6.5495439105325862e-02 -2.1387564158095509e-01 0.0000000000000000e+00  -4.6266408193012261e-02 -2.1273648886647503e-01 0.0000000000000000e+00  -1.7561746092750047e-02 -1.5023505264466400e-01 0.0000000000000000e+00  0.0000000000000000e+00 0.0000000000000000e+00 0.0000000000000000e+00  0.0000000000000000e+00 0.0000000000000000e+00 0.0000000000000000e+00  -1.5194616445590177e-02 1.5974273980891976e-01 0.0000000000000000e+00  -2.9499899727476565e-02 2.1181827900983557e-01 0.0000000000000000e+00  -2.7072486256156991e-02 2.0501156725787625e-01 0.0000000000000000e+00  -1.2470971120692672e-02 1.7283981148293401e-01 0.0000000000000000e+00  6.4532804907257955e-03 1.3221278088494526e-01 0.0000000000000000e+00  2.3862239459696906e-02 9.0332521358217885e-02 0.0000000000000000e+00  3.6103546771873940e-02 4.9336641599884275e-02 0.0000000000000000e+00  4.1124937282969169e-02 8.8599184383506262e-03 0.0000000000000000e+00  3.8000227930002205e-02 -3.2570683972922204e-02 0.0000000000000000e+00  2.6807730574140914e-02 -7.6596298539679003e-02 0.0000000000000000e+00  8.9664303483243148e-03 -1.2397928268857661e-01 0.0000000000000000e+00  -1.1956846779828608e-02 -1.7279372767029763e-01 0.0000000000000000e+00  -2.9237872574588444e-02 -2.1492357161735898e-01 0.0000000000000000e+00  -3.3079086037139799e-02 -2.2991264813839729e-01 0.0000000000000000e+00  -1.7314531333171766e-02 -1.7719230444795023e-01 0.0000000000000000e+00  0.0000000000000000e+00 0.0000000000000000e+00 0.0000000000000000e+00  0.0000000000000000e+00 0.0000000000000000e+00 0.0000000000000000e+00  -8.2665927957306859e-03 1.7195852441002243e-01 0.0000000000000000e+00  8.9100585203213227e-03 2.0078845479685736e-01 0.0000000000000000e+00  4.8156055184194031e-02 1.7887934786958437e-01 0.0000000000000000e+00  9.2417073493475707e-02 1.4227038246709164e-01 0.0000000000000000e+00  1.3252889200338439e-01 1.0439571024986416e-01 0.0000000000000000e+00  1.6390090893202136e-01 6.9361424022253398e-02 0.0000000000000000e+00  1.8441088737753727e-01 3.7378356500715401e-02 0.0000000000000000e+00  1.9312402501614001e-01 7.0132150091557332e-03 0.0000000000000000e+00  1.8950580798417854e-01 -2.3832552240181624e-02 0.0000000000000000e+00  1.7315348432730998e-01 -5.7464671940647617e-02 0.0000000000000000e+00  1.4404787176603095e-01 -9.5912463152797653e-02 0.0000000000000000e+00  1.0350047173321286e-01 -1.3976920934467307e-01 0.0000000000000000e+00  5.5984256005510109e-02 -1.8520282489080675e-01 0.0000000000000000e+00  1.2027850618779326e-02 -2.1662922120516359e-01 0.0000000000000000e+00  -8.2576831451936679e-03 -1.9030664188605276e-01 0.0000000000000000e+00  0.0000000000000000e+00 0.0000000000000000e+00 0.0000000000000000e+00  0.0000000000000000e+00 0.0000000000000000e+00 0.0000000000000000e+00  4.0397710053485247e-02 1.3647377625683349e-01 0.0000000000000000e+00  1.3050401086148722e-01 1.4168010674278700e-01 0.0000000000000000e+00  2.1209016679750889e-01 1.1782810652243092e-01 0.0000000000000000e+00  2.8041062974146069e-01 8.8759240497529604e-02 0.0000000000000000e+00  3.3375984531322844e-01 6.2353729012272902e-02 0.0000000000000000e+00  3.7181994072026819e-01 4.0150570111134341e-02 0.0000000000000000e+00  3.9544553104164520e-01 2.1209878310576590e-02 0.0000000000000000e+00  4.0542975657835045e-01 3.9411521106174074e-03 0.0000000000000000e+00  4.0193938688993858e-01 -1.3433198285601525e-02 0.0000000000000000e+00  3.8426519217753374e-01 -3.2824831116392464e-02 0.0000000000000000e+00  3.5086169632785008e-01 -5.6262514680489796e-02 0.0000000000000000e+00  2.9979054716442272e-01 -8.5482178856083238e-02 0.0000000000000000e+00  2.3010324870801036e-01 -1.1992928292286052e-01 0.0000000000000000e+00  1.4325568196524952e-01 -1.5134238874599018e-01 0.0000000000000000e+00  4.5463021041585720e-02 -1.5003443181811912e-01 0.0000000000000000e+00  0.0000000000000000e+00 0.0000000000000000e+00 0.0000000000000000e+00  0.0000000000000000e+00 0.0000000000000000e+00 0.0000000000000000e+00  3.5069078354989391e-01 4.7002994755184274e-03 0.0000000000000000e+00  4.4506066277933759e-01 4.4834278215644424e-02 0.0000000000000000e+00  5.2164104808621237e-01 4.0568082503158513e-02 0.0000000000000000e+00  5.8246158041451657e-01 2.9370095457895779e-02 0.0000000000000000e+00  6.2575812995938340e-01 1.9763460964428825e-02 0.0000000000000000e+00  6.5460274058694756e-01 1.2299161635052340e-02 0.0000000000000000e+00  6.7163911598853709e-01 6.3153675488660087e-03 0.0000000000000000e+00  6.7856870648465095e-01 1.0607216557778458e-03 0.0000000000000000e+00  6.7595596490814258e-01 -4.1784364798581617e-03 0.0000000000000000e+00  6.6319205978981077e-01 -1.0149712132174528e-02 0.0000000000000000e+00  6.3837591022879603e-01 -1.7729474411508881e-02 0.0000000000000000e+00  5.9825740024130325e-01 -2.7877150347339893e-02 0.0000000000000000e+00  5.3856628079635860e-01 -4.0646946323682626e-02 0.0000000000000000e+00  4.5873991236627937e-01 -4.8446223178235402e-02 0.0000000000000000e+00  3.5794990401716931e-01 -1.2225117782247918e-02 0.0000000000000000e+00  0.0000000000000000e+00 0.0000000000000000e+00 0.0000000000000000e+00  1.0000000000000000e+00 0.0000000000000000e+00 0.0000000000000000e+00  9.9999999999999989e-01 0.0000000000000000e+00 0.0000000000000000e+00  1.0000000000000000e+00 0.0000000000000000e+00 0.0000000000000000e+00  1.0000000000000000e+00 0.0000000000000000e+00 0.0000000000000000e+00  1.0000000000000000e+00 0.0000000000000000e+00 0.0000000000000000e+00  1.0000000000000000e+00 0.0000000000000000e+00 0.0000000000000000e+00  1.0000000000000000e+00 0.0000000000000000e+00 0.0000000000000000e+00  1.0000000000000000e+00 0.0000000000000000e+00 0.0000000000000000e+00  9.99999999