<?xml version="1.0"?>
<VTKFile type="UnstructuredGrid"  version="0.1"  >
<UnstructuredGrid>
<Piece  NumberOfPoints="545" NumberOfCells="1024">
<Points>
<DataArray  type="Float64"  NumberOfComponents="3"  format="ascii">0 0 0  0.0625 0 0  0.125 0 0  0.1875 0 0  0.25 0 0  0.3125 0 0  0.375 0 0  0.4375 0 0  0.5 0 0  0.5625 0 0  0.625 0 0  0.6875 0 0  0.75 0 0  0.8125 0 0  0.875 0 0  0.9375 0 0  1 0 0  0 0.0625 0  0.0625 0.0625 0  0.125 0.0625 0  0.1875 0.0625 0  0.25 0.0625 0  0.3125 0.0625 0  0.375 0.0625 0  0.4375 0.0625 0  0.5 0.0625 0  0.5625 0.0625 0  0.625 0.0625 0  0.6875 0.0625 0  0.75 0.0625 0  0.8125 0.0625 0  0.875 0.0625 0  0.9375 0.0625 0  1 0.0625 0  0 0.125 0  0.0625 0.125 0  0.125 0.125 0  0.1875 0.125 0  0.25 0.125 0  0.3125 0.125 0  0.375 0.125 0  0.4375 0.125 0  0.5 0.125 0  0.5625 0.125 0  0.625 0.125 0  0.6875 0.125 0  0.75 0.125 0  0.8125 0.125 0  0.875 0.125 0  0.9375 0.125 0  1 0.125 0  0 0.1875 0  0.0625 0.1875 0  0.125 0.1875 0  0.1875 0.1875 0  0.25 0.1875 0  0.3125 0.1875 0  0.375 0.1875 0  0.4375 0.1875 0  0.5 0.1875 0  0.5625 0.1875 0  0.625 0.1875 0  0.6875 0.1875 0  0.75 0.1875 0  0.8125 0.1875 0  0.875 0.1875 0  0.9375 0.1875 0  1 0.1875 0  0 0.25 0  0.0625 0.25 0  0.125 0.25 0  0.1875 0.25 0  0.25 0.25 0  0.3125 0.25 0  0.375 0.25 0  0.4375 0.25 0  0.5 0.25 0  0.5625 0.25 0  0.625 0.25 0  0.6875 0.25 0  0.75 0.25 0  0.8125 0.25 0  0.875 0.25 0  0.9375 0.25 0  1 0.25 0  0 0.3125 0  0.0625 0.3125 0  0.125 0.3125 0  0.1875 0.3125 0  0.25 0.3125 0  0.3125 0.3125 0  0.375 0.3125 0  0.4375 0.3125 0  0.5 0.3125 0  0.5625 0.3125 0  0.625 0.3125 0  0.6875 0.3125 0  0.75 0.3125 0  0.8125 0.3125 0  0.875 0.3125 0  0.9375 0.3125 0  1 0.3125 0  0 0.375 0  0.0625 0.375 0  0.125 0.375 0  0.1875 0.375 0  0.25 0.375 0  0.3125 0.375 0  0.375 0.375 0  0.4375 0.375 0  0.5 0.375 0  0.5625 0.375 0  0.625 0.375 0  0.6875 0.375 0  0.75 0.375 0  0.8125 0.375 0  0.875 0.375 0  0.9375 0.375 0  1 0.375 0  0 0.4375 0  0.0625 0.4375 0  0.125 0.4375 0  0.1875 0.4375 0  0.25 0.4375 0  0.3125 0.4375 0  0.375 0.4375 0  0.4375 0.4375 0  0.5 0.4375 0  0.5625 0.4375 0  0.625 0.4375 0  0.6875 0.4375 0  0.75 0.4375 0  0.8125 0.4375 0  0.875 0.4375 0  0.9375 0.4375 0  1 0.4375 0  0 0.5 0  0.0625 0.5 0  0.125 0.5 0  0.1875 0.5 0  0.25 0.5 0  0.3125 0.5 0  0.375 0.5 0  0.4375 0.5 0  0.5 0.5 0  0.5625 0.5 0  0.625 0.5 0  0.6875 0.5 0  0.75 0.5 0  0.8125 0.5 0  0.875 0.5 0  0.9375 0.5 0  1 0.5 0  0 0.5625 0  0.0625 0.5625 0  0.125 0.5625 0  0.1875 0.5625 0  0.25 0.5625 0  0.3125 0.5625 0  0.375 0.5625 0  0.4375 0.5625 0  0.5 0.5625 0  0.5625 0.5625 0  0.625 0.5625 0  0.6875 0.5625 0  0.75 0.5625 0  0.8125 0.5625 0  0.875 0.5625 0  0.9375 0.5625 0  1 0.5625 0  0 0.625 0  0.0625 0.625 0  0.125 0.625 0  0.1875 0.625 0  0.25 0.625 0  0.3125 0.625 0  0.375 0.625 0  0.4375 0.625 0  0.5 0.625 0  0.5625 0.625 0  0.625 0.625 0  0.6875 0.625 0  0.75 0.625 0  0.8125 0.625 0  0.875 0.625 0  0.9375 0.625 0  1 0.625 0  0 0.6875 0  0.0625 0.6875 0  0.125 0.6875 0  0.1875 0.6875 0  0.25 0.6875 0  0.3125 0.6875 0  0.375 0.6875 0  0.4375 0.6875 0  0.5 0.6875 0  0.5625 0.6875 0  0.625 0.6875 0  0.6875 0.6875 0  0.75 0.6875 0  0.8125 0.6875 0  0.875 0.6875 0  0.9375 0.6875 0  1 0.6875 0  0 0.75 0  0.0625 0.75 0  0.125 0.75 0  0.1875 0.75 0  0.25 0.75 0  0.3125 0.75 0  0.375 0.75 0  0.4375 0.75 0  0.5 0.75 0  0.5625 0.75 0  0.625 0.75 0  0.6875 0.75 0  0.75 0.75 0  0.8125 0.75 0  0.875 0.75 0  0.9375 0.75 0  1 0.75 0  0 0.8125 0  0.0625 0.8125 0  0.125 0.8125 0  0.1875 0.8125 0  0.25 0.8125 0  0.3125 0.8125 0  0.375 0.8125 0  0.4375 0.8125 0  0.5 0.8125 0  0.5625 0.8125 0  0.625 0.8125 0  0.6875 0.8125 0  0.75 0.8125 0  0.8125 0.8125 0  0.875 0.8125 0  0.9375 0.8125 0  1 0.8125 0  0 0.875 0  0.0625 0.875 0  0.125 0.875 0  0.1875 0.875 0  0.25 0.875 0  0.3125 0.875 0  0.375 0.875 0  0.4375 0.875 0  0.5 0.875 0  0.5625 0.875 0  0.625 0.875 0  0.6875 0.875 0  0.75 0.875 0  0.8125 0.875 0  0.875 0.875 0  0.9375 0.875 0  1 0.875 0  0 0.9375 0  0.0625 0.9375 0  0.125 0.9375 0  0.1875 0.9375 0  0.25 0.9375 0  0.3125 0.9375 0  0.375 0.9375 0  0.4375 0.9375 0  0.5 0.9375 0  0.5625 0.9375 0  0.625 0.9375 0  0.6875 0.9375 0  0.75 0.9375 0  0.8125 0.9375 0  0.875 0.9375 0  0.9375 0.9375 0  1 0.9375 0  0 1 0  0.0625 1 0  0.125 1 0  0.1875 1 0  0.25 1 0  0.3125 1 0  0.375 1 0  0.4375 1 0  0.5 1 0  0.5625 1 0  0.625 1 0  0.6875 1 0  0.75 1 0  0.8125 1 0  0.875 1 0  0.9375 1 0  1 1 0  0.03125 0.03125 0  0.09375 0.03125 0  0.15625 0.03125 0  0.21875 0.03125 0  0.28125 0.03125 0  0.34375 0.03125 0  0.40625 0.03125 0  0.46875 0.03125 0  0.53125 0.03125 0  0.59375 0.03125 0  0.65625 0.03125 0  0.71875 0.03125 0  0.78125 0.03125 0  0.84375 0.03125 0  0.90625 0.03125 0  0.96875 0.03125 0  0.03125 0.09375 0  0.09375 0.09375 0  0.15625 0.09375 0  0.21875 0.09375 0  0.28125 0.09375 0  0.34375 0.09375 0  0.40625 0.09375 0  0.46875 0.09375 0  0.53125 0.09375 0  0.59375 0.09375 0  0.65625 0.09375 0  0.71875 0.09375 0  0.78125 0.09375 0  0.84375 0.09375 0  0.90625 0.09375 0  0.96875 0.09375 0  0.03125 0.15625 0  0.09375 0.15625 0  0.15625 0.15625 0  0.21875 0.15625 0  0.28125 0.15625 0  0.34375 0.15625 0  0.40625 0.15625 0  0.46875 0.15625 0  0.53125 0.15625 0  0.59375 0.15625 0  0.65625 0.15625 0  0.71875 0.15625 0  0.78125 0.15625 0  0.84375 0.15625 0  0.90625 0.15625 0  0.96875 0.15625 0  0.03125 0.21875 0  0.09375 0.21875 0  0.15625 0.21875 0  0.21875 0.21875 0  0.28125 0.21875 0  0.34375 0.21875 0  0.40625 0.21875 0  0.46875 0.21875 0  0.53125 0.21875 0  0.59375 0.21875 0  0.65625 0.21875 0  0.71875 0.21875 0  0.78125 0.21875 0  0.84375 0.21875 0  0.90625 0.21875 0  0.96875 0.21875 0  0.03125 0.28125 0  0.09375 0.28125 0  0.15625 0.28125 0  0.21875 0.28125 0  0.28125 0.28125 0  0.34375 0.28125 0  0.40625 0.28125 0  0.46875 0.28125 0  0.53125 0.28125 0  0.59375 0.28125 0  0.65625 0.28125 0  0.71875 0.28125 0  0.78125 0.28125 0  0.84375 0.28125 0  0.90625 0.28125 0  0.96875 0.28125 0  0.03125 0.34375 0  0.09375 0.34375 0  0.15625 0.34375 0  0.21875 0.34375 0  0.28125 0.34375 0  0.34375 0.34375 0  0.40625 0.34375 0  0.46875 0.34375 0  0.53125 0.34375 0  0.59375 0.34375 0  0.65625 0.34375 0  0.71875 0.34375 0  0.78125 0.34375 0  0.84375 0.34375 0  0.90625 0.34375 0  0.96875 0.34375 0  0.03125 0.40625 0  0.09375 0.40625 0  0.15625 0.40625 0  0.21875 0.40625 0  0.28125 0.40625 0  0.34375 0.40625 0  0.40625 0.40625 0  0.46875 0.40625 0  0.53125 0.40625 0  0.59375 0.40625 0  0.65625 0.40625 0  0.71875 0.40625 0  0.78125 0.40625 0  0.84375 0.40625 0  0.90625 0.40625 0  0.96875 0.40625 0  0.03125 0.46875 0  0.09375 0.46875 0  0.15625 0.46875 0  0.21875 0.46875 0  0.28125 0.46875 0  0.34375 0.46875 0  0.40625 0.46875 0  0.46875 0.46875 0  0.53125 0.46875 0  0.59375 0.46875 0  0.65625 0.46875 0  0.71875 0.46875 0  0.78125 0.46875 0  0.84375 0.46875 0  0.90625 0.46875 0  0.96875 0.46875 0  0.03125 0.53125 0  0.09375 0.53125 0  0.15625 0.53125 0  0.21875 0.53125 0  0.28125 0.53125 0  0.34375 0.53125 0  0.40625 0.53125 0  0.46875 0.53125 0  0.53125 0.53125 0  0.59375 0.53125 0  0.65625 0.53125 0  0.71875 0.53125 0  0.78125 0.53125 0  0.84375 0.53125 0  0.90625 0.53125 0  0.96875 0.53125 0  0.03125 0.59375 0  0.09375 0.59375 0  0.15625 0.59375 0  0.21875 0.59375 0  0.28125 0.59375 0  0.34375 0.59375 0  0.40625 0.59375 0  0.46875 0.59375 0  0.53125 0.59375 0  0.59375 0.59375 0  0.65625 0.59375 0  0.71875 0.59375 0  0.78125 0.59375 0  0.84375 0.59375 0  0.90625 0.59375 0  0.96875 0.59375 0  0.03125 0.65625 0  0.09375 0.65625 0  0.15625 0.65625 0  0.21875 0.65625 0  0.28125 0.65625 0  0.34375 0.65625 0  0.40625 0.65625 0  0.46875 0.65625 0  0.53125 0.65625 0  0.59375 0.65625 0  0.65625 0.65625 0  0.71875 0.65625 0  0.78125 0.65625 0  0.84375 0.65625 0  0.90625 0.65625 0  0.96875 0.65625 0  0.03125 0.71875 0  0.09375 0.71875 0  0.15625 0.71875 0  0.21875 0.71875 0  0.28125 0.71875 0  0.34375 0.71875 0  0.40625 0.71875 0  0.46875 0.71875 0  0.53125 0.71875 0  0.59375 0.71875 0  0.65625 0.71875 0  0.71875 0.71875 0  0.78125 0.71875 0  0.84375 0.71875 0  0.90625 0.71875 0  0.96875 0.71875 0  0.03125 0.78125 0  0.09375 0.78125 0  0.15625 0.78125 0  0.21875 0.78125 0  0.28125 0.78125 0  0.34375 0.78125 0  0.40625 0.78125 0  0.46875 0.78125 0  0.53125 0.78125 0  0.59375 0.78125 0  0.65625 0.78125 0  0.71875 0.78125 0  0.78125 0.78125 0  0.84375 0.78125 0  0.90625 0.78125 0  0.96875 0.78125 0  0.03125 0.84375 0  0.09375 0.84375 0  0.15625 0.84375 0  0.21875 0.84375 0  0.28125 0.84375 0  0.34375 0.84375 0  0.40625 0.84375 0  0.46875 0.84375 0  0.53125 0.84375 0  0.59375 0.84375 0  0.65625 0.84375 0  0.71875 0.84375 0  0.78125 0.84375 0  0.84375 0.84375 0  0.90625 0.84375 0  0.96875 0.84375 0  0.03125 0.90625 0  0.09375 0.90625 0  0.15625 0.90625 0  0.21875 0.90625 0  0.28125 0.90625 0  0.34375 0.90625 0  0.40625 0.90625 0  0.46875 0.90625 0  0.53125 0.90625 0  0.59375 0.90625 0  0.65625 0.90625 0  0.71875 0.90625 0  0.78125 0.90625 0  0.84375 0.90625 0  0.90625 0.90625 0  0.96875 0.90625 0  0.03125 0.96875 0  0.09375 0.96875 0  0.15625 0.96875 0  0.21875 0.96875 0  0.28125 0.96875 0  0.34375 0.96875 0  0.40625 0.96875 0  0.46875 0.96875 0  0.53125 0.96875 0  0.59375 0.96875 0  0.65625 0.96875 0  0.71875 0.96875 0  0.78125 0.96875 0  0.84375 0.96875 0  0.90625 0.96875 0  0.96875 0.96875 0  </DataArray>
</Points>
<Cells>
[...]
<PointData  Vectors="f_8-0"> 
<DataArray  type="Float64"  Name="f_8-0"  NumberOfComponents="3" format="ascii">0.0000000000000000e+00 0.0000000000000000e+00 0.0000000000000000e+00  0.0000000000000000e+00 0.0000000000000000e+00 0.0000000000000000e+00  0.0000000000000000e+00 0.0000000000000000e+00 0.0000000000000000e+00  0.0000000000000000e+00 0.0000000000000000e+00 0.0000000000000000e+00  0.0000000000000000e+00 0.0000000000000000e+00 0.0000000000000000e+00  0.0000000000000000e+00 0.0000000000000000e+00 0.0000000000000000e+00  0.0000000000000000e+00 0.0000000000000000e+00 0.0000000000000000e+00  0.0000000000000000e+00 0.0000000000000000e+00 0.0000000000000000e+00  0.0000000000000000e+00 0.0000000000000000e+00 0.0000000000000000e+00  0.0000000000000000e+00 0.0000000000000000e+00 0.0000000000000000e+00  0.0000000000000000e+00 0.0000000000000000e+00 0.0000000000000000e+00  0.0000000000000000e+00 0.0000000000000000e+00 0.0000000000000000e+00  0.0000000000000000e+00 0.0000000000000000e+00 0.0000000000000000e+00  0.0000000000000000e+00 0.0000000000000000e+00 0.0000000000000000e+00  0.0000000000000000e+00 0.0000000000000000e+00 0.0000000000000000e+00  0.0000000000000000e+00 0.0000000000000000e+00 0.0000000000000000e+00  0.0000000000000000e+00 0.0000000000000000e+00 0.0000000000000000e+00  0.0000000000000000e+00 0.0000000000000000e+00 0.0000000000000000e+00  -9.1181751875235139e-04 9.0742607339930402e-04 0.0000000000000000e+00  -2.8691094479046395e-03 1.2771282586309426e-03 0.0000000000000000e+00  -5.0937605992003509e-03 1.2781132512221596e-03 0.0000000000000000e+00  -7.1757899271857883e-03 1.1226990501189138e-03 0.0000000000000000e+00  -8.9227622364413863e-03 8.9278177476178797e-04 0.0000000000000000e+00  -1.0232697529375995e-02 6.1876535513787935e-04 0.0000000000000000e+00  -1.1043790160548406e-02 3.1750955677588928e-04 0.0000000000000000e+00  -1.1320909282732971e-02 2.7292375605888174e-06 0.0000000000000000e+00  -1.1052034725440625e-02 -3.1256928899662422e-04 0.0000000000000000e+00  -1.0247612050842951e-02 -6.1528509177651209e-04 0.0000000000000000e+00  -8.9414908272530715e-03 -8.9142845850851294e-04 0.0000000000000000e+00  -7.1947558842858344e-03 -1.1237102005378044e-03 0.0000000000000000e+00  -5.1094435160343628e-03 -1.2811793944833901e-03 0.0000000000000000e+00  -2.8789799744478534e-03 -1.2813095589477832e-03 0.0000000000000000e+00  -9.1535406481284775e-04 -9.1103029672497246e-04 0.0000000000000000e+00  0.0000000000000000e+00 0.0000000000000000e+00 0.0000000000000000e+00  0.0000000000000000e+00 0.0000000000000000e+00 0.0000000000000000e+00  -1.3728266266288531e-03 2.9262895259166387e-03 0.0000000000000000e+00  -4.1705054325966223e-03 3.9649215315303446e-03 0.0000000000000000e+00  -7.2710263817593497e-03 3.9632130412057976e-03 0.0000000000000000e+00  -1.0161632579656781e-02 3.4889777783332723e-03 0.0000000000000000e+00  -1.2587457218642758e-02 2.7768958706648520e-03 0.0000000000000000e+00  -1.4405665332064633e-02 1.9244408266897986e-03 0.0000000000000000e+00  -1.5530571258986877e-02 9.8690440250666367e-04 0.0000000000000000e+00  -1.5914534621530845e-02 7.7254848298736305e-06 0.0000000000000000e+00  -1.5541498157575903e-02 -9.7292268199895696e-04 0.0000000000000000e+00  -1.4425447370489168e-02 -1.9146001232555336e-03 0.0000000000000000e+00  -1.2612326984922243e-02 -2.7730899416679245e-03 0.0000000000000000e+00  -1.0186854837402502e-02 -3.4918776550866447e-03 0.0000000000000000e+00  -7.2919223539402124e-03 -3.9719291542260546e-03 0.0000000000000000e+00  -4.1836786719512530e-03 -3.9767940464532888e-03 0.0000000000000000e+00  -1.3775165957714225e-03 -2.9366150432469586e-03 0.0000000000000000e+00  0.0000000000000000e+00 0.0000000000000000e+00 0.0000000000000000e+00  0.0000000000000000e+00 0.0000000000000000e+00 0.0000000000000000e+00  -1.6098583975353480e-03 5.4944791268978638e-03 0.0000000000000000e+00  -4.8960534106709790e-03 7.3058028082421860e-03 0.0000000000000000e+00  -8.5107684058198744e-03 7.2718402666160781e-03 0.0000000000000000e+00  -1.1857587134902986e-02 6.3949444084149308e-03 0.0000000000000000e+00  -1.4652617316646424e-02 5.0855666527221599e-03 0.0000000000000000e+00  -1.6739794012966817e-02 3.5212525251270294e-03 0.0000000000000000e+00  -1.8027858207799299e-02 1.8046051763292569e-03 0.0000000000000000e+00  -1.8467595587867938e-02 1.4277681317773170e-05 0.0000000000000000e+00  -1.8042546645129134e-02 -1.7787459935587214e-03 0.0000000000000000e+00  -1.6766436736404794e-02 -3.5030067424902944e-03 0.0000000000000000e+00  -1.4686202566043203e-02 -5.0784530706854038e-03 0.0000000000000000e+00  -1.1891741437070748e-02 -6.4002516119012623e-03 0.0000000000000000e+00  -8.5391073070030677e-03 -7.2879692000522404e-03 0.0000000000000000e+00  -4.9138839432286705e-03 -7.3278441489202945e-03 0.0000000000000000e+00  -1.6161499852473981e-03 -5.5136857706161481e-03 0.0000000000000000e+00  0.0000000000000000e+00 0.0000000000000000e+00 0.0000000000000000e+00  0.0000000000000000e+00 0.0000000000000000e+00 0.0000000000000000e+00  -1.8468648462460770e-03 8.4641786219519892e-03 0.0000000000000000e+00  -5.6314928343095382e-03 1.1161744267288517e-02 0.0000000000000000e+00  -9.7807468784541513e-03 1.1064479839894073e-02 0.0000000000000000e+00  -1.3594997748740727e-02 9.7032758565390592e-03 0.0000000000000000e+00  -1.6754717172698740e-02 7.6979182600512633e-03 0.0000000000000000e+00  -1.9097251177087330e-02 5.3195215896216707e-03 0.0000000000000000e+00  -2.0535763550953788e-02 2.7233250457918729e-03 0.0000000000000000e+00  -2.1027102965836014e-02 2.3464932103101823e-05 0.0000000000000000e+00  -2.0557078592532585e-02 -2.6807627034617395e-03 0.0000000000000000e+00  -1.9136037789086523e-02 -5.2893390869642740e-03 0.0000000000000000e+00  -1.6803838154802613e-02 -7.6859623934226757e-03 0.0000000000000000e+00  -1.3645205943676872e-02 -9.7118339519990833e-03 0.0000000000000000e+00  -9.8225875298262339e-03 -1.1091072521954553e-02 0.0000000000000000e+00  -5.6578845509247782e-03 -1.1198276208038246e-02 0.0000000000000000e+00  -1.8561738949501763e-03 -8.4960187306428406e-03 0.0000000000000000e+00  0.0000000000000000e+00 0.0000000000000000e+00 0.0000000000000000e+00  0.0000000000000000e+00 0.0000000000000000e+00 0.0000000000000000e+00  -2.1731565638261605e-03 1.1917144475079237e-02 0.0000000000000000e+00  -6.6251766967405333e-03 1.5640828196225091e-02 0.0000000000000000e+00  -1.1478778174245478e-02 1.5439209456908173e-02 0.0000000000000000e+00  -1.5894769549038408e-02 1.3481689797881957e-02 0.0000000000000000e+00  -1.9507841888113556e-02 1.0651195215961256e-02 0.0000000000000000e+00  -2.2155389850647685e-02 7.3355677017130526e-03 0.0000000000000000e+00  -2.3767813385141969e-02 3.7489661132782087e-03 0.0000000000000000e+00  -2.4318647459506286e-02 3.7055024624210450e-05 0.0000000000000000e+00  -2.3799808460367791e-02 -3.6815843282896120e-03 0.0000000000000000e+00  -2.2213895862323068e-02 -7.2873784775824334e-03 0.0000000000000000e+00  -1.9582471000088222e-02 -1.0631589739091308e-02 0.0000000000000000e+00  -1.5971677303313565e-02 -1.3494726759447830e-02 0.0000000000000000e+00  -1.1543359775518363e-02 -1.5481380110440720e-02 0.0000000000000000e+00  -6.6661440050783958e-03 -1.5699313640211914e-02 0.0000000000000000e+00  -2.1876401818538924e-03 -1.1968244015450427e-02 0.0000000000000000e+00  0.0000000000000000e+00 0.0000000000000000e+00 0.0000000000000000e+00  0.0000000000000000e+00 0.0000000000000000e+00 0.0000000000000000e+00  -2.6392130689247822e-03 1.6046555065216364e-02 0.0000000000000000e+00  -8.0254152386034731e-03 2.0970820049855655e-02 0.0000000000000000e+00  -1.3835196138809295e-02 2.0586810675890986e-02 0.0000000000000000e+00  -1.9033171701827705e-02 1.7859722056547695e-02 0.0000000000000000e+00  -2.3203222249529455e-02 1.4018445394681511e-02 0.0000000000000000e+00  -2.6203023029836240e-02 9.6036099513600523e-03 0.0000000000000000e+00  -2.8005987627158731e-02 4.8946839121376791e-03 0.0000000000000000e+00  -2.8621479636488336e-02 5.7493476659181635e-05 0.0000000000000000e+00  -2.8054286847929072e-02 -4.7897232411613705e-03 0.0000000000000000e+00  -2.6291994441576212e-02 -9.5275355814525599e-03 0.0000000000000000e+00  -2.3317961746237782e-02 -1.3986180024554208e-02 0.0000000000000000e+00  -1.9152922582892151e-02 -1.7878658994356977e-02 0.0000000000000000e+00  -1.3936972062824529e-02 -2.0652584034868412e-02 0.0000000000000000e+00  -8.0905561191167829e-03 -2.1063563867402605e-02 0.0000000000000000e+00  -2.6623244784678996e-03 -1.6128048864127685e-02 0.0000000000000000e+00  0.0000000000000000e+00 0.0000000000000000e+00 0.0000000000000000e+00  0.0000000000000000e+00 0.0000000000000000e+00 0.0000000000000000e+00  -3.3091492434111536e-03 2.1138867693656308e-02 0.0000000000000000e+00  -1.0010092304621796e-02 2.7476677689209517e-02 0.0000000000000000e+00  -1.7104437632025869e-02 2.6751101822300279e-02 0.0000000000000000e+00  -2.3278775269599466e-02 2.2974130125963773e-02 0.0000000000000000e+00  -2.8078824400234761e-02 1.7853123684273914e-02 0.0000000000000000e+00  -3.1432716269657802e-02 1.2132594340587924e-02 0.0000000000000000e+00  -3.3406859436368737e-02 6.1577460488849616e-03 0.0000000000000000e+00  -3.4079369274587254e-02 8.8103446843514481e-05 0.0000000000000000e+00  -3.3479079322193107e-02 -5.9959394290386835e-03 0.0000000000000000e+00  -3.1567219508323134e-02 -1.2012915535044971e-02 0.0000000000000000e+00  -2.8255179914902208e-02 -1.7799150485249226e-02 0.0000000000000000e+00  -2.3466472089203414e-02 -2.2999777742168454e-02 0.0000000000000000e+00  -1.7267033959482019e-02 -2.6852489043647867e-02 0.0000000000000000e+00  -1.0115689570478169e-02 -2.7623723817552980e-02 0.0000000000000000e+00  -3.3468474203362875e-03 -2.1269412782895816e-02 0.0000000000000000e+00  0.0000000000000000e+00 0.0000000000000000e+00 0.0000000000000000e+00  0.0000000000000000e+00 0.0000000000000000e+00 0.0000000000000000e+00  -4.2985667050958309e-03 2.7623643389775940e-02 0.0000000000000000e+00  -1.2876150418773172e-02 3.5607983741901120e-02 0.0000000000000000e+00  -2.1669212386419810e-02 3.4211401465671185e-02 0.0000000000000000e+00  -2.8981828081458140e-02 2.8920597838818791e-02 0.0000000000000000e+00  -3.4387636730862578e-02 2.2135609397758844e-02 0.0000000000000000e+00  -3.7994349535635456e-02 1.4864988936881256e-02 0.0000000000000000e+00  -4.0048163844549921e-02 7.4979859156980829e-03 0.0000000000000000e+00  -4.0745104455109232e-02 1.3312896053339530e-04 0.0000000000000000e+00  -4.0153750182067238e-02 -7.2513367038219614e-03 0.0000000000000000e+00  -3.8194177773524088e-02 -1.4677053700255151e-02 0.0000000000000000e+00  -3.4656186935154501e-02 -2.2043236857386222e-02 0.0000000000000000e+00  -2.9276336957568472e-02 -2.8950611311579329e-02 0.0000000000000000e+00  -2.1932216711566685e-02 -3.4365198098941278e-02 0.0000000000000000e+00  -1.3051230261664467e-02 -3.5841995721896121e-02 0.0000000000000000e+00  -4.3618584797729832e-03 -2.7835308498253993e-02 0.0000000000000000e+00  0.0000000000000000e+00 0.0000000000000000e+00 0.0000000000000000e+00  0.0000000000000000e+00 0.0000000000000000e+00 0.0000000000000000e+00  -5.8346511536875320e-03 3.6190110219264111e-02 0.0000000000000000e+00  -1.7147454948712625e-02 4.5989227017788452e-02 0.0000000000000000e+00  -2.8106940241707911e-02 4.3229759066407414e-02 0.0000000000000000e+00  -3.6560545959559966e-02 3.5656930837426049e-02 0.0000000000000000e+00  -4.2318977395631285e-02 2.6684884017048039e-02 0.0000000000000000e+00  -4.5882047817590560e-02 1.7618391263631270e-02 0.0000000000000000e+00  -4.7802517923634415e-02 8.8100489440591460e-03 0.0000000000000000e+00  -4.8450655483973315e-02 1.9715632721812481e-04 0.0000000000000000e+00  -4.7950704009201074e-02 -8.4402475385147672e-03 0.0000000000000000e+00  -4.6168971063921774e-02 -1.7324637335925323e-02 0.0000000000000000e+00  -4.2718588177723338e-02 -2.6523131782998331e-02 0.0000000000000000e+00  -3.7018854475636645e-02 -3.5678954398948921e-02 0.0000000000000000e+00  -2.8536221219004485e-02 -4.3455780683834891e-02 0.0000000000000000e+00  -1.7445555787472918e-02 -4.6363188494782555e-02 0.0000000000000000e+00  -5.9452388349118908e-03 -3.6540058523920081e-02 0.0000000000000000e+00  0.0000000000000000e+00 0.0000000000000000e+00 0.0000000000000000e+00  0.0000000000000000e+00 0.0000000000000000e+00 0.0000000000000000e+00  -8.3642076052606266e-03 4.8011826278834040e-02 0.0000000000000000e+00  -2.3657386377557328e-02 5.9408845858229746e-02 0.0000000000000000e+00  -3.7059464991527361e-02 5.3854618444250463e-02 0.0000000000000000e+00  -4.6157586483426515e-02 4.2785369163416909e-02 0.0000000000000000e+00  -5.1542646587273533e-02 3.1010661862383080e-02 0.0000000000000000e+00  -5.4442943865778977e-02 2.0008131246307050e-02 0.0000000000000000e+00  -5.5843344451588117e-02 9.8920326184196022e-03 0.0000000000000000e+00  -5.6313524271399316e-02 2.8291687569036199e-04 0.0000000000000000e+00  -5.6036333703716329e-02 -9.3526099089565398e-03 0.0000000000000000e+00  -5.4828536225968380e-02 -1.9555446606846969e-02 0.0000000000000000e+00  -5.2107260988149114e-02 -3.0724286043922140e-02 0.0000000000000000e+00  -4.6848365149719039e-02 -4.2761105375884470e-02 0.0000000000000000e+00  -3.7755368632521720e-02 -5.4164708552457558e-02 0.0000000000000000e+00  -2.4175536649130112e-02 -6.0003792162445342e-02 0.0000000000000000e+00  -8.5668111854644048e-03 -4.8606841323576094e-02 0.0000000000000000e+00  0.0000000000000000e+00 0.0000000000000000e+00 0.0000000000000000e+00  0.0000000000000000e+00 0.0000000000000000e+00 0.0000000000000000e+00  -1.2628253805849044e-02 6.4942639931538676e-02 0.0000000000000000e+00  -3.3115052162145060e-02 7.6440479092108299e-02 0.0000000000000000e+00  -4.8019212271209817e-02 6.5287234444187270e-02 0.0000000000000000e+00  -5.6002349813205968e-02 4.9125696999759078e-02 0.0000000000000000e+00  -5.9454874718243997e-02 3.4115377965343592e-02 0.0000000000000000e+00  -6.0644111908770795e-02 2.1379632146624399e-02 0.0000000000000000e+00  -6.0949632405720718e-02 1.0427710921950906e-02 0.0000000000000000e+00  -6.1054135213696896e-02 3.8558905430857932e-04 0.0000000000000000e+00  -6.1165954170201771e-02 -9.6775381624776956e-03 0.0000000000000000e+00  -6.1095604061279778e-02 -2.0706664914858300e-02 0.0000000000000000e+00  -6.0163781595116095e-02 -3.3618298175352349e-02 0.0000000000000000e+00  -5.6953357719755890e-02 -4.8964407248164192e-02 0.0000000000000000e+00  -4.9085005861566326e-02 -6.5647097784799768e-02 0.0000000000000000e+00  -3.4003640881396298e-02 -7.7361247549172216e-02 0.0000000000000000e+00  -1.3010724824285596e-02 -6.5976313687621482e-02 0.0000000000000000e+00  0.0000000000000000e+00 0.0000000000000000e+00 0.0000000000000000e+00  0.0000000000000000e+00 0.0000000000000000e+00 0.0000000000000000e+00  -1.8978942517512126e-02 8.9250324037099538e-02 0.0000000000000000e+00  -4.2502770456772088e-02 9.5223860455422749e-02 0.0000000000000000e+00  -5.3925527566042540e-02 7.4386860057857621e-02 0.0000000000000000e+00  -5.6532487712844720e-02 5.2130073413750151e-02 0.0000000000000000e+00  -5.5461835328350681e-02 3.4377378700686974e-02 0.0000000000000000e+00  -5.3559356594445405e-02 2.0838426794593173e-02 0.0000000000000000e+00  -5.2113090780655902e-02 1.0019290458850581e-02 0.0000000000000000e+00  -5.1637419523631288e-02 4.8156240797654404e-04 0.0000000000000000e+00  -5.2278111399323340e-02 -9.0610777538323497e-03 0.0000000000000000e+00  -5.3931785274511861e-02 -1.9913627038312117e-02 0.0000000000000000e+00  -5.6120114401018883e-02 -3.3579126967527954e-02 0.0000000000000000e+00  -5.7554299055504174e-02 -5.1676145899717744e-02 0.0000000000000000e+00  -5.5278683884871331e-02 -7.4648056377006777e-02 0.0000000000000000e+00  -4.3839656893761847e-02 -9.6502993042612145e-02 0.0000000000000000e+00  -1.9668846644535526e-02 -9.1066294662792147e-02 0.0000000000000000e+00  0.0000000000000000e+00 0.0000000000000000e+00 0.0000000000000000e+00  0.0000000000000000e+00 0.0000000000000000e+00 0.0000000000000000e+00  -2.0839594013193897e-02 1.1557411731643770e-01 0.0000000000000000e+00  -3.0149746134232314e-02 1.0536497864891028e-01 0.0000000000000000e+00  -2.4085067534924821e-02 7.3797045471516012e-02 0.0000000000000000e+00  -1.4691144216137760e-02 4.7838638558919323e-02 0.0000000000000000e+00  -6.3298874877119873e-03 2.9904758847973948e-02 0.0000000000000000e+00  -2.4517348996980556e-04 1.7532657721768072e-02 0.0000000000000000e+00  3.3608994130013324e-03 8.3230925425339820e-03 0.0000000000000000e+00  4.5631558766433327e-03 5.1545022124414961e-04 0.0000000000000000e+00  3.3966615412227221e-03 -7.2745156582705436e-03 0.0000000000000000e+00  -2.1971438733522390e-04 -1.6446608546138733e-02 0.0000000000000000e+00  -6.4209223776776634e-03 -2.8825013396930374e-02 0.0000000000000000e+00  -1.5077390532101907e-02 -4.6977725183035612e-02 0.0000000000000000e+00  -2.4934432115911412e-02 -7.3681925714182986e-02 0.0000000000000000e+00  -3.1377068093635718e-02 -1.0679606972795425e-01 0.0000000000000000e+00  -2.1673692277380620e-02 -1.1832640047036977e-01 0.0000000000000000e+00  0.0000000000000000e+00 0.0000000000000000e+00 0.0000000000000000e+00  0.0000000000000000e+00 0.0000000000000000e+00 0.0000000000000000e+00  2.8219406827372825e-02 1.0411396136589667e-01 0.0000000000000000e+00  8.5902601590708338e-02 8.3377298166552302e-02 0.0000000000000000e+00  1.2312410707254555e-01 5.4336673010177444e-02 0.0000000000000000e+00  1.4712470657401486e-01 3.3307191759928197e-02 0.0000000000000000e+00  1.6275978543558017e-01 1.9903070895289188e-02 0.0000000000000000e+00  1.7243100683391874e-01 1.1346354299713717e-02 0.0000000000000000e+00  1.7774454721356478e-01 5.3382793727116684e-03 0.0000000000000000e+00  1.7955300402488544e-01 4.1347113534560771e-04 0.0000000000000000e+00  1.7812726457716779e-01 -4.4818007025712531e-03 0.0000000000000000e+00  1.7319529976789691e-01 -1.0405847644939884e-02 0.0000000000000000e+00  1.6387603659971894e-01 -1.8855883164258729e-02 0.0000000000000000e+00  1.4848223616173695e-01 -3.2258331177674938e-02 0.0000000000000000e+00  1.2443008491202825e-01 -5.3816968068528662e-02 0.0000000000000000e+00  8.7045005549144419e-02 -8.4455971641567609e-02 0.0000000000000000e+00  2.9059436838494698e-02 -1.0694482382384300e-01 0.0000000000000000e+00  0.0000000000000000e+00 0.0000000000000000e+00 0.0000000000000000e+00  0.0000000000000000e+00 0.0000000000000000e+00 0.0000000000000000e+00  3.6415229909152674e-01 -1.1564656621500004e-02 0.0000000000000000e+00  4.3215913156579183e-01 2.5213237827344290e-02 0.0000000000000000e+00  4.7279657272447578e-01 2.0333673611480627e-02 0.0000000000000000e+00  4.9947009536716441e-01 1.2275127268135231e-02 0.0000000000000000e+00  5.1521815365055645e-01 7.1146936505487677e-03 0.0000000000000000e+00  5.2437104037807547e-01 3.9750311875696902e-03 0.0000000000000000e+00  5.2922450888498351e-01 1.8612791108088807e-03 0.0000000000000000e+00  5.3091264392482562e-01 1.6799459922203192e-04 0.0000000000000000e+00  5.2977806241725955e-01 -1.5097736403043404e-03 0.0000000000000000e+00  5.2552698913699036e-01 -3.5752390628181955e-03 0.0000000000000000e+00  5.1707611429704126e-01 -6.6325462874511545e-03 0.0000000000000000e+00  5.0212114345728431e-01 -1.1710721328997446e-02 0.0000000000000000e+00  4.7626532183036158e-01 -1.9924968902769586e-02 0.0000000000000000e+00  4.3533807490757570e-01 -2.6281099907614687e-02 0.0000000000000000e+00  3.6699477260816626e-01 6.7275471024630272e-03 0.0000000000000000e+00  0.0000000000000000e+00 0.0000000000000000e+00 0.0000000000000000e+00  1.0000000000000000e+00 0.0000000000000000e+00 0.0000000000000000e+00  1.0000000000000000e+00 0.0000000000000000e+00 0.0000000000000000e+00  1.0000000000000000e+00 0.0000000000000000e+00 0.0000000000000000e+00  1.0000000000000000e+00 0.0000000000000000e+00 0.0000000000000000e+00  1.0000000000000000e+00 0.0000000000000000e+00 0.0000000000000000e+00  1.0000000000000000e+00 0.0000000000000000e+00 0.0000000000000000e+00  1.0000000000000000e+00 0.0000000000000000e+00 0.0000000000000000e+00  1.0000000000000000e+00 0.0000000000000000e+00 0.000000000000000