<?xml version="1.0"?>
<VTKFile type="UnstructuredGrid"  version="0.1"  >
<UnstructuredGrid>
<Piece  NumberOfPoints="545" NumberOfCells="1024">
<Points>
<DataArray  type="Float64"  NumberOfComponents="3"  format="ascii">0 0 0  0.0625 0 0  0.125 0 0  0.1875 0 0  0.25 0 0  0.3125 0 0  0.375 0 0  0.4375 0 0  0.5 0 0  0.5625 0 0  0.625 0 0  0.6875 0 0  0.75 0 0  0.8125 0 0  0.875 0 0  0.9375 0 0  1 0 0  0 0.0625 0  0.0625 0.0625 0  0.125 0.0625 0  0.1875 0.0625 0  0.25 0.0625 0  0.3125 0.0625 0  0.375 0.0625 0  0.4375 0.0625 0  0.5 0.0625 0  0.5625 0.0625 0  0.625 0.0625 0  0.6875 0.0625 0  0.75 0.0625 0  0.8125 0.0625 0  0.875 0.0625 0  0.9375 0.0625 0  1 0.0625 0  0 0.125 0  0.0625 0.125 0  0.125 0.125 0  0.1875 0.125 0  0.25 0.125 0  0.3125 0.125 0  0.375 0.125 0  0.4375 0.125 0  0.5 0.125 0  0.5625 0.125 0  0.625 0.125 0  0.6875 0.125 0  0.75 0.125 0  0.8125 0.125 0  0.875 0.125 0  0.9375 0.125 0  1 0.125 0  0 0.1875 0  0.0625 0.1875 0  0.125 0.1875 0  0.1875 0.1875 0  0.25 0.1875 0  0.3125 0.1875 0  0.375 0.1875 0  0.4375 0.1875 0  0.5 0.1875 0  0.5625 0.1875 0  0.625 0.1875 0  0.6875 0.1875 0  0.75 0.1875 0  0.8125 0.1875 0  0.875 0.1875 0  0.9375 0.1875 0  1 0.1875 0  0 0.25 0  0.0625 0.25 0  0.125 0.25 0  0.1875 0.25 0  0.25 0.25 0  0.3125 0.25 0  0.375 0.25 0  0.4375 0.25 0  0.5 0.25 0  0.5625 0.25 0  0.625 0.25 0  0.6875 0.25 0  0.75 0.25 0  0.8125 0.25 0  0.875 0.25 0  0.9375 0.25 0  1 0.25 0  0 0.3125 0  0.0625 0.3125 0  0.125 0.3125 0  0.1875 0.3125 0  0.25 0.3125 0  0.3125 0.3125 0  0.375 0.3125 0  0.4375 0.3125 0  0.5 0.3125 0  0.5625 0.3125 0  0.625 0.3125 0  0.6875 0.3125 0  0.75 0.3125 0  0.8125 0.3125 0  0.875 0.3125 0  0.9375 0.3125 0  1 0.3125 0  0 0.375 0  0.0625 0.375 0  0.125 0.375 0  0.1875 0.375 0  0.25 0.375 0  0.3125 0.375 0  0.375 0.375 0  0.4375 0.375 0  0.5 0.375 0  0.5625 0.375 0  0.625 0.375 0  0.6875 0.375 0  0.75 0.375 0  0.8125 0.375 0  0.875 0.375 0  0.9375 0.375 0  1 0.375 0  0 0.4375 0  0.0625 0.4375 0  0.125 0.4375 0  0.1875 0.4375 0  0.25 0.4375 0  0.3125 0.4375 0  0.375 0.4375 0  0.4375 0.4375 0  0.5 0.4375 0  0.5625 0.4375 0  0.625 0.4375 0  0.6875 0.4375 0  0.75 0.4375 0  0.8125 0.4375 0  0.875 0.4375 0  0.9375 0.4375 0  1 0.4375 0  0 0.5 0  0.0625 0.5 0  0.125 0.5 0  0.1875 0.5 0  0.25 0.5 0  0.3125 0.5 0  0.375 0.5 0  0.4375 0.5 0  0.5 0.5 0  0.5625 0.5 0  0.625 0.5 0  0.6875 0.5 0  0.75 0.5 0  0.8125 0.5 0  0.875 0.5 0  0.9375 0.5 0  1 0.5 0  0 0.5625 0  0.0625 0.5625 0  0.125 0.5625 0  0.1875 0.5625 0  0.25 0.5625 0  0.3125 0.5625 0  0.375 0.5625 0  0.4375 0.5625 0  0.5 0.5625 0  0.5625 0.5625 0  0.625 0.5625 0  0.6875 0.5625 0  0.75 0.5625 0  0.8125 0.5625 0  0.875 0.5625 0  0.9375 0.5625 0  1 0.5625 0  0 0.625 0  0.0625 0.625 0  0.125 0.625 0  0.1875 0.625 0  0.25 0.625 0  0.3125 0.625 0  0.375 0.625 0  0.4375 0.625 0  0.5 0.625 0  0.5625 0.625 0  0.625 0.625 0  0.6875 0.625 0  0.75 0.625 0  0.8125 0.625 0  0.875 0.625 0  0.9375 0.625 0  1 0.625 0  0 0.6875 0  0.0625 0.6875 0  0.125 0.6875 0  0.1875 0.6875 0  0.25 0.6875 0  0.3125 0.6875 0  0.375 0.6875 0  0.4375 0.6875 0  0.5 0.6875 0  0.5625 0.6875 0  0.625 0.6875 0  0.6875 0.6875 0  0.75 0.6875 0  0.8125 0.6875 0  0.875 0.6875 0  0.9375 0.6875 0  1 0.6875 0  0 0.75 0  0.0625 0.75 0  0.125 0.75 0  0.1875 0.75 0  0.25 0.75 0  0.3125 0.75 0  0.375 0.75 0  0.4375 0.75 0  0.5 0.75 0  0.5625 0.75 0  0.625 0.75 0  0.6875 0.75 0  0.75 0.75 0  0.8125 0.75 0  0.875 0.75 0  0.9375 0.75 0  1 0.75 0  0 0.8125 0  0.0625 0.8125 0  0.125 0.8125 0  0.1875 0.8125 0  0.25 0.8125 0  0.3125 0.8125 0  0.375 0.8125 0  0.4375 0.8125 0  0.5 0.8125 0  0.5625 0.8125 0  0.625 0.8125 0  0.6875 0.8125 0  0.75 0.8125 0  0.8125 0.8125 0  0.875 0.8125 0  0.9375 0.8125 0  1 0.8125 0  0 0.875 0  0.0625 0.875 0  0.125 0.875 0  0.1875 0.875 0  0.25 0.875 0  0.3125 0.875 0  0.375 0.875 0  0.4375 0.875 0  0.5 0.875 0  0.5625 0.875 0  0.625 0.875 0  0.6875 0.875 0  0.75 0.875 0  0.8125 0.875 0  0.875 0.875 0  0.9375 0.875 0  1 0.875 0  0 0.9375 0  0.0625 0.9375 0  0.125 0.9375 0  0.1875 0.9375 0  0.25 0.9375 0  0.3125 0.9375 0  0.375 0.9375 0  0.4375 0.9375 0  0.5 0.9375 0  0.5625 0.9375 0  0.625 0.9375 0  0.6875 0.9375 0  0.75 0.9375 0  0.8125 0.9375 0  0.875 0.9375 0  0.9375 0.9375 0  1 0.9375 0  0 1 0  0.0625 1 0  0.125 1 0  0.1875 1 0  0.25 1 0  0.3125 1 0  0.375 1 0  0.4375 1 0  0.5 1 0  0.5625 1 0  0.625 1 0  0.6875 1 0  0.75 1 0  0.8125 1 0  0.875 1 0  0.9375 1 0  1 1 0  0.03125 0.03125 0  0.09375 0.03125 0  0.15625 0.03125 0  0.21875 0.03125 0  0.28125 0.03125 0  0.34375 0.03125 0  0.40625 0.03125 0  0.46875 0.03125 0  0.53125 0.03125 0  0.59375 0.03125 0  0.65625 0.03125 0  0.71875 0.03125 0  0.78125 0.03125 0  0.84375 0.03125 0  0.90625 0.03125 0  0.96875 0.03125 0  0.03125 0.09375 0  0.09375 0.09375 0  0.15625 0.09375 0  0.21875 0.09375 0  0.28125 0.09375 0  0.34375 0.09375 0  0.40625 0.09375 0  0.46875 0.09375 0  0.53125 0.09375 0  0.59375 0.09375 0  0.65625 0.09375 0  0.71875 0.09375 0  0.78125 0.09375 0  0.84375 0.09375 0  0.90625 0.09375 0  0.96875 0.09375 0  0.03125 0.15625 0  0.09375 0.15625 0  0.15625 0.15625 0  0.21875 0.15625 0  0.28125 0.15625 0  0.34375 0.15625 0  0.40625 0.15625 0  0.46875 0.15625 0  0.53125 0.15625 0  0.59375 0.15625 0  0.65625 0.15625 0  0.71875 0.15625 0  0.78125 0.15625 0  0.84375 0.15625 0  0.90625 0.15625 0  0.96875 0.15625 0  0.03125 0.21875 0  0.09375 0.21875 0  0.15625 0.21875 0  0.21875 0.21875 0  0.28125 0.21875 0  0.34375 0.21875 0  0.40625 0.21875 0  0.46875 0.21875 0  0.53125 0.21875 0  0.59375 0.21875 0  0.65625 0.21875 0  0.71875 0.21875 0  0.78125 0.21875 0  0.84375 0.21875 0  0.90625 0.21875 0  0.96875 0.21875 0  0.03125 0.28125 0  0.09375 0.28125 0  0.15625 0.28125 0  0.21875 0.28125 0  0.28125 0.28125 0  0.34375 0.28125 0  0.40625 0.28125 0  0.46875 0.28125 0  0.53125 0.28125 0  0.59375 0.28125 0  0.65625 0.28125 0  0.71875 0.28125 0  0.78125 0.28125 0  0.84375 0.28125 0  0.90625 0.28125 0  0.96875 0.28125 0  0.03125 0.34375 0  0.09375 0.34375 0  0.15625 0.34375 0  0.21875 0.34375 0  0.28125 0.34375 0  0.34375 0.34375 0  0.40625 0.34375 0  0.46875 0.34375 0  0.53125 0.34375 0  0.59375 0.34375 0  0.65625 0.34375 0  0.71875 0.34375 0  0.78125 0.34375 0  0.84375 0.34375 0  0.90625 0.34375 0  0.96875 0.34375 0  0.03125 0.40625 0  0.09375 0.40625 0  0.15625 0.40625 0  0.21875 0.40625 0  0.28125 0.40625 0  0.34375 0.40625 0  0.40625 0.40625 0  0.46875 0.40625 0  0.53125 0.40625 0  0.59375 0.40625 0  0.65625 0.40625 0  0.71875 0.40625 0  0.78125 0.40625 0  0.84375 0.40625 0  0.90625 0.40625 0  0.96875 0.40625 0  0.03125 0.46875 0  0.09375 0.46875 0  0.15625 0.46875 0  0.21875 0.46875 0  0.28125 0.46875 0  0.34375 0.46875 0  0.40625 0.46875 0  0.46875 0.46875 0  0.53125 0.46875 0  0.59375 0.46875 0  0.65625 0.46875 0  0.71875 0.46875 0  0.78125 0.46875 0  0.84375 0.46875 0  0.90625 0.46875 0  0.96875 0.46875 0  0.03125 0.53125 0  0.09375 0.53125 0  0.15625 0.53125 0  0.21875 0.53125 0  0.28125 0.53125 0  0.34375 0.53125 0  0.40625 0.53125 0  0.46875 0.53125 0  0.53125 0.53125 0  0.59375 0.53125 0  0.65625 0.53125 0  0.71875 0.53125 0  0.78125 0.53125 0  0.84375 0.53125 0  0.90625 0.53125 0  0.96875 0.53125 0  0.03125 0.59375 0  0.09375 0.59375 0  0.15625 0.59375 0  0.21875 0.59375 0  0.28125 0.59375 0  0.34375 0.59375 0  0.40625 0.59375 0  0.46875 0.59375 0  0.53125 0.59375 0  0.59375 0.59375 0  0.65625 0.59375 0  0.71875 0.59375 0  0.78125 0.59375 0  0.84375 0.59375 0  0.90625 0.59375 0  0.96875 0.59375 0  0.03125 0.65625 0  0.09375 0.65625 0  0.15625 0.65625 0  0.21875 0.65625 0  0.28125 0.65625 0  0.34375 0.65625 0  0.40625 0.65625 0  0.46875 0.65625 0  0.53125 0.65625 0  0.59375 0.65625 0  0.65625 0.65625 0  0.71875 0.65625 0  0.78125 0.65625 0  0.84375 0.65625 0  0.90625 0.65625 0  0.96875 0.65625 0  0.03125 0.71875 0  0.09375 0.71875 0  0.15625 0.71875 0  0.21875 0.71875 0  0.28125 0.71875 0  0.34375 0.71875 0  0.40625 0.71875 0  0.46875 0.71875 0  0.53125 0.71875 0  0.59375 0.71875 0  0.65625 0.71875 0  0.71875 0.71875 0  0.78125 0.71875 0  0.84375 0.71875 0  0.90625 0.71875 0  0.96875 0.71875 0  0.03125 0.78125 0  0.09375 0.78125 0  0.15625 0.78125 0  0.21875 0.78125 0  0.28125 0.78125 0  0.34375 0.78125 0  0.40625 0.78125 0  0.46875 0.78125 0  0.53125 0.78125 0  0.59375 0.78125 0  0.65625 0.78125 0  0.71875 0.78125 0  0.78125 0.78125 0  0.84375 0.78125 0  0.90625 0.78125 0  0.96875 0.78125 0  0.03125 0.84375 0  0.09375 0.84375 0  0.15625 0.84375 0  0.21875 0.84375 0  0.28125 0.84375 0  0.34375 0.84375 0  0.40625 0.84375 0  0.46875 0.84375 0  0.53125 0.84375 0  0.59375 0.84375 0  0.65625 0.84375 0  0.71875 0.84375 0  0.78125 0.84375 0  0.84375 0.84375 0  0.90625 0.84375 0  0.96875 0.84375 0  0.03125 0.90625 0  0.09375 0.90625 0  0.15625 0.90625 0  0.21875 0.90625 0  0.28125 0.90625 0  0.34375 0.90625 0  0.40625 0.90625 0  0.46875 0.90625 0  0.53125 0.90625 0  0.59375 0.90625 0  0.65625 0.90625 0  0.71875 0.90625 0  0.78125 0.90625 0  0.84375 0.90625 0  0.90625 0.90625 0  0.96875 0.90625 0  0.03125 0.96875 0  0.09375 0.96875 0  0.15625 0.96875 0  0.21875 0.96875 0  0.28125 0.96875 0  0.34375 0.96875 0  0.40625 0.96875 0  0.46875 0.96875 0  0.53125 0.96875 0  0.59375 0.96875 0  0.65625 0.96875 0  0.71875 0.96875 0  0.78125 0.96875 0  0.84375 0.96875 0  0.90625 0.96875 0  0.96875 0.96875 0  </DataArray>
</Points>
<Cells>
[...]
<PointData  Vectors="f_8-0"> 
<DataArray  type="Float64"  Name="f_8-0"  NumberOfComponents="3" format="ascii">0.0000000000000000e+00 0.0000000000000000e+00 0.0000000000000000e+00  0.0000000000000000e+00 0.0000000000000000e+00 0.0000000000000000e+00  0.0000000000000000e+00 0.0000000000000000e+00 0.0000000000000000e+00  0.0000000000000000e+00 0.0000000000000000e+00 0.0000000000000000e+00  0.0000000000000000e+00 0.0000000000000000e+00 0.0000000000000000e+00  0.0000000000000000e+00 0.0000000000000000e+00 0.0000000000000000e+00  0.0000000000000000e+00 0.0000000000000000e+00 0.0000000000000000e+00  0.0000000000000000e+00 0.0000000000000000e+00 0.0000000000000000e+00  0.0000000000000000e+00 0.0000000000000000e+00 0.0000000000000000e+00  0.0000000000000000e+00 0.0000000000000000e+00 0.0000000000000000e+00  0.0000000000000000e+00 0.0000000000000000e+00 0.0000000000000000e+00  0.0000000000000000e+00 0.0000000000000000e+00 0.0000000000000000e+00  0.0000000000000000e+00 0.0000000000000000e+00 0.0000000000000000e+00  0.0000000000000000e+00 0.0000000000000000e+00 0.0000000000000000e+00  0.0000000000000000e+00 0.0000000000000000e+00 0.0000000000000000e+00  0.0000000000000000e+00 0.0000000000000000e+00 0.0000000000000000e+00  0.0000000000000000e+00 0.0000000000000000e+00 0.0000000000000000e+00  0.0000000000000000e+00 0.0000000000000000e+00 0.0000000000000000e+00  -8.2041316032026789e-04 8.2384603405921263e-04 0.0000000000000000e+00  -4.0230121401525426e-03 2.2827084633272603e-03 0.0000000000000000e+00  -9.3835010719022765e-03 3.2533805160484862e-03 0.0000000000000000e+00  -1.5855930717196782e-02 3.5556034714588412e-03 0.0000000000000000e+00  -2.2285170744153929e-02 3.2512432681648259e-03 0.0000000000000000e+00  -2.7673324481163185e-02 2.4681098212689413e-03 0.0000000000000000e+00  -3.1267247120669146e-02 1.3520206829501584e-03 0.0000000000000000e+00  -3.2588556829255974e-02 5.5083751596700642e-05 0.0000000000000000e+00  -3.1449330307258293e-02 -1.2634633202197770e-03 0.0000000000000000e+00  -2.7968615438513179e-02 -2.4340951773306574e-03 0.0000000000000000e+00  -2.2588425764362496e-02 -3.2784866567516432e-03 0.0000000000000000e+00  -1.6075523845765792e-02 -3.6211281409986294e-03 0.0000000000000000e+00  -9.4840226432133436e-03 -3.3168471722149935e-03 0.0000000000000000e+00  -4.0357129773778829e-03 -2.3109347775312392e-03 0.0000000000000000e+00  -8.0987144737204217e-04 -8.1639799846634428e-04 0.0000000000000000e+00  0.0000000000000000e+00 0.0000000000000000e+00 0.0000000000000000e+00  0.0000000000000000e+00 0.0000000000000000e+00 0.0000000000000000e+00  -2.3826439735915713e-03 4.0974129860760176e-03 0.0000000000000000e+00  -9.0240317243351995e-03 8.7383072953337252e-03 0.0000000000000000e+00  -1.8767793653412600e-02 1.1769725849338884e-02 0.0000000000000000e+00  -2.9969892366303180e-02 1.2646725417905031e-02 0.0000000000000000e+00  -4.0877547314231592e-02 1.1495095033694966e-02 0.0000000000000000e+00  -4.9937549449408189e-02 8.7034601852773400e-03 0.0000000000000000e+00  -5.5955067313952625e-02 4.7582604908581834e-03 0.0000000000000000e+00  -5.8164587564666949e-02 1.8636107765534300e-04 0.0000000000000000e+00  -5.6266093459487625e-02 -4.4552024561132306e-03 0.0000000000000000e+00  -5.0452336127155030e-02 -8.5773796124395882e-03 0.0000000000000000e+00  -4.1428197483024370e-02 -1.1571375846338144e-02 0.0000000000000000e+00  -3.0401307830193753e-02 -1.2856791095584007e-02 0.0000000000000000e+00  -1.9004372493684467e-02 -1.1987313980851419e-02 0.0000000000000000e+00  -9.0945282294386375e-03 -8.8536627856312267e-03 0.0000000000000000e+00  -2.3825768787367366e-03 -4.0963103666016255e-03 0.0000000000000000e+00  0.0000000000000000e+00 0.0000000000000000e+00 0.0000000000000000e+00  0.0000000000000000e+00 0.0000000000000000e+00 0.0000000000000000e+00  -3.8259756057961954e-03 1.0064717555460963e-02 0.0000000000000000e+00  -1.3744394500622460e-02 1.9080902626622341e-02 0.0000000000000000e+00  -2.7474140190964738e-02 2.4617973138426293e-02 0.0000000000000000e+00  -4.2699112260704941e-02 2.5970039362475727e-02 0.0000000000000000e+00  -5.7213968532111525e-02 2.3400810386867529e-02 0.0000000000000000e+00  -6.9129286004062263e-02 1.7643478844207690e-02 0.0000000000000000e+00  -7.7006107001415913e-02 9.6338422318203859e-03 0.0000000000000000e+00  -7.9922415137678712e-02 3.9743926349452652e-04 0.0000000000000000e+00  -7.7508620436159484e-02 -8.9783795356208288e-03 0.0000000000000000e+00  -6.9978500879931307e-02 -1.7345940702752430e-02 0.0000000000000000e+00  -5.8157975831023362e-02 -2.3523582051111186e-02 0.0000000000000000e+00  -4.3488324623900246e-02 -2.6391122435625913e-02 0.0000000000000000e+00  -2.7960281871944475e-02 -2.5091529049938308e-02 0.0000000000000000e+00  -1.3934249964748039e-02 -1.9373092930933918e-02 0.0000000000000000e+00  -3.8523066384484926e-03 -1.0110949188076793e-02 0.0000000000000000e+00  0.0000000000000000e+00 0.0000000000000000e+00 0.0000000000000000e+00  0.0000000000000000e+00 0.0000000000000000e+00 0.0000000000000000e+00  -5.1215203196307681e-03 1.8520572784874404e-02 0.0000000000000000e+00  -1.8101721113966303e-02 3.3082252351876104e-02 0.0000000000000000e+00  -3.5573464010236110e-02 4.1403315691208253e-02 0.0000000000000000e+00  -5.4480278196603692e-02 4.2957495936180465e-02 0.0000000000000000e+00  -7.2179395069285890e-02 3.8348459177562411e-02 0.0000000000000000e+00  -8.6542798391060743e-02 2.8778336277382861e-02 0.0000000000000000e+00  -9.6006469428595129e-02 1.5715202814344308e-02 0.0000000000000000e+00  -9.9578671950664110e-02 7.4260333576037240e-04 0.0000000000000000e+00  -9.6842748928018543e-02 -1.4471446661280305e-02 0.0000000000000000e+00  -8.7982257403539169e-02 -2.8162807924599787e-02 0.0000000000000000e+00  -7.3832826734727020e-02 -3.8494828703775484e-02 0.0000000000000000e+00  -5.5936410960578477e-02 -4.3687757162531475e-02 0.0000000000000000e+00  -3.6548693618381096e-02 -4.2306173448242931e-02 0.0000000000000000e+00  -1.8545517236575840e-02 -3.3721709188684001e-02 0.0000000000000000e+00  -5.2135195223628559e-03 -1.8707019763270456e-02 0.0000000000000000e+00  0.0000000000000000e+00 0.0000000000000000e+00 0.0000000000000000e+00  0.0000000000000000e+00 0.0000000000000000e+00 0.0000000000000000e+00  -6.3607516059618419e-03 2.9301599928758120e-02 0.0000000000000000e+00  -2.2273603533527218e-02 5.0556594421839282e-02 0.0000000000000000e+00  -4.3289752484286785e-02 6.1876732325170235e-02 0.0000000000000000e+00  -6.5587819232234071e-02 6.3269446487105932e-02 0.0000000000000000e+00  -8.6112326043889589e-02 5.5962433141544594e-02 0.0000000000000000e+00  -1.0258171835355046e-01 4.1801547648970878e-02 0.0000000000000000e+00  -1.1341312743495618e-01 2.2865933728606003e-02 0.0000000000000000e+00  -1.1762495653828320e-01 1.3091336830134673e-03 0.0000000000000000e+00  -1.1477348357301456e-01 -2.0639397848010221e-02 0.0000000000000000e+00  -1.0496022213022360e-01 -4.0609537623260257e-02 0.0000000000000000e+00  -8.8919771268610961e-02 -5.6069107491070538e-02 0.0000000000000000e+00  -6.8164585706777817e-02 -6.4448782822765699e-02 0.0000000000000000e+00  -4.5125179497830341e-02 -6.3492381441883031e-02 0.0000000000000000e+00  -2.3194475998901089e-02 -5.1850180157165075e-02 0.0000000000000000e+00  -6.5894786380452843e-03 -2.9821283637842595e-02 0.0000000000000000e+00  0.0000000000000000e+00 0.0000000000000000e+00 0.0000000000000000e+00  0.0000000000000000e+00 0.0000000000000000e+00 0.0000000000000000e+00  -7.6151958999495497e-03 4.2360319357463434e-02 0.0000000000000000e+00  -2.6390509018634600e-02 7.1355098875679160e-02 0.0000000000000000e+00  -5.0691994034892329e-02 8.5749540174773001e-02 0.0000000000000000e+00  -7.5923982954349670e-02 8.6491633630359568e-02 0.0000000000000000e+00  -9.8701985231766209e-02 7.5788767029185869e-02 0.0000000000000000e+00  -1.1673495385054618e-01 5.6345281785179287e-02 0.0000000000000000e+00  -1.2857294133335426e-01 3.0920123101629879e-02 0.0000000000000000e+00  -1.3335520524153716e-01 2.1966534613473625e-03 0.0000000000000000e+00  -1.3064714411943282e-01 -2.7129808069456855e-02 0.0000000000000000e+00  -1.2041429867082853e-01 -5.4172639859127042e-02 0.0000000000000000e+00  -1.0315192009451900e-01 -7.5719491010870540e-02 0.0000000000000000e+00  -8.0154576108458345e-02 -8.8285831463320225e-02 0.0000000000000000e+00  -5.3855315834546863e-02 -8.8487503391201427e-02 0.0000000000000000e+00  -2.8089436450117647e-02 -7.3793577711833869e-02 0.0000000000000000e+00  -8.0828455469218619e-03 -4.3558603083081703e-02 0.0000000000000000e+00  0.0000000000000000e+00 0.0000000000000000e+00 0.0000000000000000e+00  0.0000000000000000e+00 0.0000000000000000e+00 0.0000000000000000e+00  -8.9200621180836829e-03 5.7715686831564743e-02 0.0000000000000000e+00  -3.0452073173193060e-02 9.5273771417028807e-02 0.0000000000000000e+00  -5.7550499810693621e-02 1.1251200780851850e-01 0.0000000000000000e+00  -8.4853324934169902e-02 1.1188069623187408e-01 0.0000000000000000e+00  -1.0883039213456773e-01 9.7025172594820158e-02 0.0000000000000000e+00  -1.2743640407193441e-01 7.1752884382684817e-02 0.0000000000000000e+00  -1.3959299356978219e-01 3.9538937454069070e-02 0.0000000000000000e+00  -1.4472853954287543e-01 3.4828731482595956e-03 0.0000000000000000e+00  -1.4248634321988221e-01 -3.3447260360561344e-02 0.0000000000000000e+00  -1.3264684466614102e-01 -6.8045693212552757e-02 0.0000000000000000e+00  -1.1528985686470300e-01 -9.6532570638257514e-02 0.0000000000000000e+00  -9.1206862233441599e-02 -1.1443247211068087e-01 0.0000000000000000e+00  -6.2512286119811258e-02 -1.1688229418185977e-01 0.0000000000000000e+00  -3.3266392400814235e-02 -9.9549188052732440e-02 0.0000000000000000e+00  -9.7513124230402936e-03 -6.0131298364765738e-02 0.0000000000000000e+00  0.0000000000000000e+00 0.0000000000000000e+00 0.0000000000000000e+00  0.0000000000000000e+00 0.0000000000000000e+00 0.0000000000000000e+00  -1.0282878110875141e-02 7.5384990690254852e-02 0.0000000000000000e+00  -3.4300157110642465e-02 1.2189378536961736e-01 0.0000000000000000e+00  -6.3227632569008305e-02 1.4118550497436752e-01 0.0000000000000000e+00  -9.1015775766571091e-02 1.3807364700767294e-01 0.0000000000000000e+00  -1.1434574718042381e-01 1.1824517050526873e-01 0.0000000000000000e+00  -1.3183290300061457e-01 8.6858156499014197e-02 0.0000000000000000e+00  -1.4311278577453707e-01 4.8066277610170287e-02 0.0000000000000000e+00  -1.4813114357221849e-01 5.1683936109900141e-03 0.0000000000000000e+00  -1.4671782377511255e-01 -3.8906132236211748e-02 0.0000000000000000e+00  -1.3844380511762633e-01 -8.0968030264317856e-02 0.0000000000000000e+00  -1.2278248071567888e-01 -1.1693829596079447e-01 0.0000000000000000e+00  -9.9637797856148694e-02 -1.4140759343307321e-01 0.0000000000000000e+00  -7.0276866388280346e-02 -1.4769964291547893e-01 0.0000000000000000e+00  -3.8513106992572217e-02 -1.2885194795661639e-01 0.0000000000000000e+00  -1.1603091037700330e-02 -7.9759284562951560e-02 0.0000000000000000e+00  0.0000000000000000e+00 0.0000000000000000e+00 0.0000000000000000e+00  0.0000000000000000e+00 0.0000000000000000e+00 0.0000000000000000e+00  -1.1693933443615752e-02 9.5310630013212327e-02 0.0000000000000000e+00  -3.7561676301508085e-02 1.5033601213557954e-01 0.0000000000000000e+00  -6.6474927215630794e-02 1.6995747703793815e-01 0.0000000000000000e+00  -9.2003779646067763e-02 1.6272324274376315e-01 0.0000000000000000e+00  -1.1170400979856390e-01 1.3710923543598760e-01 0.0000000000000000e+00  -1.2545850060501626e-01 9.9785650160976333e-02 0.0000000000000000e+00  -1.3402657293806017e-01 5.5399327486865553e-02 0.0000000000000000e+00  -1.3811343245215962e-01 7.1025578169558049e-03 0.0000000000000000e+00  -1.3786779126961651e-01 -4.2638198057741092e-02 0.0000000000000000e+00  -1.3268428463174883e-01 -9.1124903120298181e-02 0.0000000000000000e+00  -1.2129947524766679e-01 -1.3445458093119581e-01 0.0000000000000000e+00  -1.0231910779751392e-01 -1.6660178342700521e-01 0.0000000000000000e+00  -7.5408487779672947e-02 -1.7891834881700239e-01 0.0000000000000000e+00  -4.3235798339605835e-02 -1.6081331805710827e-01 0.0000000000000000e+00  -1.3585000276444563e-02 -1.0253110020783644e-01 0.0000000000000000e+00  0.0000000000000000e+00 0.0000000000000000e+00 0.0000000000000000e+00  0.0000000000000000e+00 0.0000000000000000e+00 0.0000000000000000e+00  -1.3116563930324772e-02 1.1725352379170166e-01 0.0000000000000000e+00  -3.9426044253175550e-02 1.7881392543349950e-01 0.0000000000000000e+00  -6.4914978947903573e-02 1.9562101447673155e-01 0.0000000000000000e+00  -8.3699674954855391e-02 1.8206647477116256e-01 0.0000000000000000e+00  -9.5369727420606301e-02 1.5013677331728015e-01 0.0000000000000000e+00  -1.0180960564064194e-01 1.0786163525579728e-01 0.0000000000000000e+00  -1.0522975444500524e-01 5.9941813303585070e-02 0.0000000000000000e+00  -1.0722294289010334e-01 8.9136189096079947e-03 0.0000000000000000e+00  -1.0835401574498821e-01 -4.3688671852795881e-02 0.0000000000000000e+00  -1.0796510050705561e-01 -9.6196277542567446e-02 0.0000000000000000e+00  -1.0412668210680852e-01 -1.4555196521423769e-01 0.0000000000000000e+00  -9.3925146740507684e-02 -1.8583605568113323e-01 0.0000000000000000e+00  -7.4589259828658425e-02 -2.0678386210089070e-01 0.0000000000000000e+00  -4.6129113140278455e-02 -1.9329373781061340e-01 0.0000000000000000e+00  -1.5537213565218217e-02 -1.2818023418468166e-01 0.0000000000000000e+00  0.0000000000000000e+00 0.0000000000000000e+00 0.0000000000000000e+00  0.0000000000000000e+00 0.0000000000000000e+00 0.0000000000000000e+00  -1.4364255798125039e-02 1.4042859133263280e-01 0.0000000000000000e+00  -3.7882219424942354e-02 2.0371554723007279e-01 0.0000000000000000e+00  -5.3692962330181372e-02 2.1270978027083751e-01 0.0000000000000000e+00  -5.8924673152181042e-02 1.9057029820207014e-01 0.0000000000000000e+00  -5.6853101596551325e-02 1.5276749339073736e-01 0.0000000000000000e+00  -5.1867872159859899e-02 1.0783870719362684e-01 0.0000000000000000e+00  -4.7533248454826142e-02 5.9777542231735342e-02 0.0000000000000000e+00  -4.6131379196897151e-02 1.0002266119736473e-02 0.0000000000000000e+00  -4.8600603643698857e-02 -4.1237991845341194e-02 0.0000000000000000e+00  -5.4446164440459667e-02 -9.3710922598118779e-02 0.0000000000000000e+00  -6.1507119374534874e-02 -1.4590037162761710e-01 0.0000000000000000e+00  -6.5725326622699934e-02 -1.9313578997121142e-01 0.0000000000000000e+00  -6.1519378591187217e-02 -2.2488189467962669e-01 0.0000000000000000e+00  -4.4287162270335426e-02 -2.2176143052129121e-01 0.0000000000000000e+00  -1.7013027745532393e-02 -1.5551663229750193e-01 0.0000000000000000e+00  0.0000000000000000e+00 0.0000000000000000e+00 0.0000000000000000e+00  0.0000000000000000e+00 0.0000000000000000e+00 0.0000000000000000e+00  -1.4484660838372307e-02 1.6257727328274296e-01 0.0000000000000000e+00  -2.7035168933439324e-02 2.1735086177195048e-01 0.0000000000000000e+00  -2.2227838637783361e-02 2.1251858363326540e-01 0.0000000000000000e+00  -4.9672584387337329e-03 1.8121664218473041e-01 0.0000000000000000e+00  1.6559926526067092e-02 1.4020584980522499e-01 0.0000000000000000e+00  3.6188013648459555e-02 9.6756184517264643e-02 0.0000000000000000e+00  4.9974620863643057e-02 5.3250428126119270e-02 0.0000000000000000e+00  5.5653202538207956e-02 9.6929842111444977e-03 0.0000000000000000e+00  5.2191684708214774e-02 -3.4953238574226095e-02 0.0000000000000000e+00  3.9690432756684497e-02 -8.1884162576945557e-02 0.0000000000000000e+00  1.9722217212325002e-02 -1.3145708227505631e-01 0.0000000000000000e+00  -3.8721926889014983e-03 -1.8141649661169934e-01 0.0000000000000000e+00  -2.3999749337636201e-02 -2.2341179292673535e-01 0.0000000000000000e+00  -3.0436452286036662e-02 -2.3686374351889714e-01 0.0000000000000000e+00  -1.6569269408748099e-02 -1.8123292379686140e-01 0.0000000000000000e+00  0.0000000000000000e+00 0.0000000000000000e+00 0.0000000000000000e+00  0.0000000000000000e+00 0.0000000000000000e+00 0.0000000000000000e+00  -7.6491098928272135e-03 1.7352590758959588e-01 0.0000000000000000e+00  1.1134617158632705e-02 2.0421418907576769e-01 0.0000000000000000e+00  5.2712943496784716e-02 1.8376432747452992e-01 0.0000000000000000e+00  9.9712136578466531e-02 1.4785457586037470e-01 0.0000000000000000e+00  1.4259769043721399e-01 1.0978985220509119e-01 0.0000000000000000e+00  1.7639643806352670e-01 7.3727015448001032e-02 0.0000000000000000e+00  1.9864450229595373e-01 4.0059380330649944e-02 0.0000000000000000e+00  2.0815682665515822e-01 7.6194171311692654e-03 0.0000000000000000e+00  2.0427545299017352e-01 -2.5386590846640623e-02 0.0000000000000000e+00  1.8661812896407592e-01 -6.0960278213682828e-02 0.0000000000000000e+00  1.5532897283829547e-01 -1.0086022836996154e-01 0.0000000000000000e+00  1.1200905016579002e-01 -1.4546338942961340e-01 0.0000000000000000e+00  6.1518677754259739e-02 -1.9078420533030954e-01 0.0000000000000000e+00  1.4835246759805961e-02 -2.2115496238834220e-01 0.0000000000000000e+00  -7.4539900345622495e-03 -1.9286525045380595e-01 0.0000000000000000e+00  0.0000000000000000e+00 0.0000000000000000e+00 0.0000000000000000e+00  0.0000000000000000e+00 0.0000000000000000e+00 0.0000000000000000e+00  4.0806798570377584e-02 1.3711768941490005e-01 0.0000000000000000e+00  1.3208107891166773e-01 1.4329475204685682e-01 0.0000000000000000e+00  2.1553645942151517e-01 1.2029593922820196e-01 0.0000000000000000e+00  2.8619603087503265e-01 9.1657175647734526e-02 0.0000000000000000e+00  3.4199771121885264e-01 6.5180367971597181e-02 0.0000000000000000e+00  3.8224313273990224e-01 4.2442705032195438e-02 0.0000000000000000e+00  4.0745503482973267e-01 2.2614180612970138e-02 0.0000000000000000e+00  4.1819072315952016e-01 4.2549906467455349e-03 0.0000000000000000e+00  4.1450662620760631e-01 -1.4246105084337943e-02 0.0000000000000000e+00  3.9571853267517143e-01 -3.4639617178831843e-02 0.0000000000000000e+00  3.6043460910867237e-01 -5.8814663378428680e-02 0.0000000000000000e+00  3.0697936303649626e-01 -8.8398236146273637e-02 0.0000000000000000e+00  2.3475121292618523e-01 -1.2275646706268892e-01 0.0000000000000000e+00  1.4560426627628920e-01 -1.5357821664003971e-01 0.0000000000000000e+00  4.6127681852834945e-02 -1.5125109409340542e-01 0.0000000000000000e+00  0.0000000000000000e+00 0.0000000000000000e+00 0.0000000000000000e+00  0.0000000000000000e+00 0.0000000000000000e+00 0.0000000000000000e+00  3.5043292536510479e-01 4.7287220620503114e-03 0.0000000000000000e+00  4.4533910589385267e-01 4.5260575013148431e-02 0.0000000000000000e+00  5.2302163579243932e-01 4.1265466499999848e-02 0.0000000000000000e+00  5.8529453241052742e-01 3.0206718652545154e-02 0.0000000000000000e+00  6.3015158106342639e-01 2.0582675153865831e-02 0.0000000000000000e+00  6.6039420317826281e-01 1.2958954566615687e-02 0.0000000000000000e+00  6.7843809175924674e-01 6.7117807938581507e-03 0.0000000000000000e+00  6.8583268527485786e-01 1.1375161712739760e-03 0.0000000000000000e+00  6.8307947662840729e-01 -4.4272799367754160e-03 0.0000000000000000e+00  6.6959695871978608e-01 -1.0683299948599616e-02 0.0000000000000000e+00  6.4359290103900124e-01 -1.8467667457181796e-02 0.0000000000000000e+00  6.0199281594329646e-01 -2.8710160906834981e-02 0.0000000000000000e+00  5.4074848694478683e-01 -4.1445175453123269e-02 0.0000000000000000e+00  4.5953563796673558e-01 -4.9048944644593431e-02 0.0000000000000000e+00  3.5785726324463535e-01 -1.2389771996650289e-02 0.0000000000000000e+00  0.0000000000000000e+00 0.0000000000000000e+00 0.0000000000000000e+00  1.0000000000000000e+00 0.0000000000000000e+00 0.0000000000000000e+00  1.0000000000000000e+00 0.0000000000000000e+00 0.0000000000000000e+00  1.0000000000000000e+00 0.0000000000000000e+00 0.0000000000000000e+00  1.0000000000000000e+00 0.0000000000000000e+00 0.0000000000000000e+00  1.0000000000000000e+00 0.0000000000000000e+00 0.0000000000000000e+00  1.0000000000000000e+00 0.0000000000000000e+00 0.0000000000000000e+00  1.0000000000000000e+00 0.0000000000000000e+00 0.0000000000000000e+00  1.0000000000000000e+00 0.0000000000000000e+00 0.0000000000000000e+00  1.00000000