<?xml version="1.0"?>
<VTKFile type="UnstructuredGrid"  version="0.1"  >
<UnstructuredGrid>
<Piece  NumberOfPoints="545" NumberOfCells="1024">
<Points>
<DataArray  type="Float64"  NumberOfComponents="3"  format="ascii">0 0 0  0.0625 0 0  0.125 0 0  0.1875 0 0  0.25 0 0  0.3125 0 0  0.375 0 0  0.4375 0 0  0.5 0 0  0.5625 0 0  0.625 0 0  0.6875 0 0  0.75 0 0  0.8125 0 0  0.875 0 0  0.9375 0 0  1 0 0  0 0.0625 0  0.0625 0.0625 0  0.125 0.0625 0  0.1875 0.0625 0  0.25 0.0625 0  0.3125 0.0625 0  0.375 0.0625 0  0.4375 0.0625 0  0.5 0.0625 0  0.5625 0.0625 0  0.625 0.0625 0  0.6875 0.0625 0  0.75 0.0625 0  0.8125 0.0625 0  0.875 0.0625 0  0.9375 0.0625 0  1 0.0625 0  0 0.125 0  0.0625 0.125 0  0.125 0.125 0  0.1875 0.125 0  0.25 0.125 0  0.3125 0.125 0  0.375 0.125 0  0.4375 0.125 0  0.5 0.125 0  0.5625 0.125 0  0.625 0.125 0  0.6875 0.125 0  0.75 0.125 0  0.8125 0.125 0  0.875 0.125 0  0.9375 0.125 0  1 0.125 0  0 0.1875 0  0.0625 0.1875 0  0.125 0.1875 0  0.1875 0.1875 0  0.25 0.1875 0  0.3125 0.1875 0  0.375 0.1875 0  0.4375 0.1875 0  0.5 0.1875 0  0.5625 0.1875 0  0.625 0.1875 0  0.6875 0.1875 0  0.75 0.1875 0  0.8125 0.1875 0  0.875 0.1875 0  0.9375 0.1875 0  1 0.1875 0  0 0.25 0  0.0625 0.25 0  0.125 0.25 0  0.1875 0.25 0  0.25 0.25 0  0.3125 0.25 0  0.375 0.25 0  0.4375 0.25 0  0.5 0.25 0  0.5625 0.25 0  0.625 0.25 0  0.6875 0.25 0  0.75 0.25 0  0.8125 0.25 0  0.875 0.25 0  0.9375 0.25 0  1 0.25 0  0 0.3125 0  0.0625 0.3125 0  0.125 0.3125 0  0.1875 0.3125 0  0.25 0.3125 0  0.3125 0.3125 0  0.375 0.3125 0  0.4375 0.3125 0  0.5 0.3125 0  0.5625 0.3125 0  0.625 0.3125 0  0.6875 0.3125 0  0.75 0.3125 0  0.8125 0.3125 0  0.875 0.3125 0  0.9375 0.3125 0  1 0.3125 0  0 0.375 0  0.0625 0.375 0  0.125 0.375 0  0.1875 0.375 0  0.25 0.375 0  0.3125 0.375 0  0.375 0.375 0  0.4375 0.375 0  0.5 0.375 0  0.5625 0.375 0  0.625 0.375 0  0.6875 0.375 0  0.75 0.375 0  0.8125 0.375 0  0.875 0.375 0  0.9375 0.375 0  1 0.375 0  0 0.4375 0  0.0625 0.4375 0  0.125 0.4375 0  0.1875 0.4375 0  0.25 0.4375 0  0.3125 0.4375 0  0.375 0.4375 0  0.4375 0.4375 0  0.5 0.4375 0  0.5625 0.4375 0  0.625 0.4375 0  0.6875 0.4375 0  0.75 0.4375 0  0.8125 0.4375 0  0.875 0.4375 0  0.9375 0.4375 0  1 0.4375 0  0 0.5 0  0.0625 0.5 0  0.125 0.5 0  0.1875 0.5 0  0.25 0.5 0  0.3125 0.5 0  0.375 0.5 0  0.4375 0.5 0  0.5 0.5 0  0.5625 0.5 0  0.625 0.5 0  0.6875 0.5 0  0.75 0.5 0  0.8125 0.5 0  0.875 0.5 0  0.9375 0.5 0  1 0.5 0  0 0.5625 0  0.0625 0.5625 0  0.125 0.5625 0  0.1875 0.5625 0  0.25 0.5625 0  0.3125 0.5625 0  0.375 0.5625 0  0.4375 0.5625 0  0.5 0.5625 0  0.5625 0.5625 0  0.625 0.5625 0  0.6875 0.5625 0  0.75 0.5625 0  0.8125 0.5625 0  0.875 0.5625 0  0.9375 0.5625 0  1 0.5625 0  0 0.625 0  0.0625 0.625 0  0.125 0.625 0  0.1875 0.625 0  0.25 0.625 0  0.3125 0.625 0  0.375 0.625 0  0.4375 0.625 0  0.5 0.625 0  0.5625 0.625 0  0.625 0.625 0  0.6875 0.625 0  0.75 0.625 0  0.8125 0.625 0  0.875 0.625 0  0.9375 0.625 0  1 0.625 0  0 0.6875 0  0.0625 0.6875 0  0.125 0.6875 0  0.1875 0.6875 0  0.25 0.6875 0  0.3125 0.6875 0  0.375 0.6875 0  0.4375 0.6875 0  0.5 0.6875 0  0.5625 0.6875 0  0.625 0.6875 0  0.6875 0.6875 0  0.75 0.6875 0  0.8125 0.6875 0  0.875 0.6875 0  0.9375 0.6875 0  1 0.6875 0  0 0.75 0  0.0625 0.75 0  0.125 0.75 0  0.1875 0.75 0  0.25 0.75 0  0.3125 0.75 0  0.375 0.75 0  0.4375 0.75 0  0.5 0.75 0  0.5625 0.75 0  0.625 0.75 0  0.6875 0.75 0  0.75 0.75 0  0.8125 0.75 0  0.875 0.75 0  0.9375 0.75 0  1 0.75 0  0 0.8125 0  0.0625 0.8125 0  0.125 0.8125 0  0.1875 0.8125 0  0.25 0.8125 0  0.3125 0.8125 0  0.375 0.8125 0  0.4375 0.8125 0  0.5 0.8125 0  0.5625 0.8125 0  0.625 0.8125 0  0.6875 0.8125 0  0.75 0.8125 0  0.8125 0.8125 0  0.875 0.8125 0  0.9375 0.8125 0  1 0.8125 0  0 0.875 0  0.0625 0.875 0  0.125 0.875 0  0.1875 0.875 0  0.25 0.875 0  0.3125 0.875 0  0.375 0.875 0  0.4375 0.875 0  0.5 0.875 0  0.5625 0.875 0  0.625 0.875 0  0.6875 0.875 0  0.75 0.875 0  0.8125 0.875 0  0.875 0.875 0  0.9375 0.875 0  1 0.875 0  0 0.9375 0  0.0625 0.9375 0  0.125 0.9375 0  0.1875 0.9375 0  0.25 0.9375 0  0.3125 0.9375 0  0.375 0.9375 0  0.4375 0.9375 0  0.5 0.9375 0  0.5625 0.9375 0  0.625 0.9375 0  0.6875 0.9375 0  0.75 0.9375 0  0.8125 0.9375 0  0.875 0.9375 0  0.9375 0.9375 0  1 0.9375 0  0 1 0  0.0625 1 0  0.125 1 0  0.1875 1 0  0.25 1 0  0.3125 1 0  0.375 1 0  0.4375 1 0  0.5 1 0  0.5625 1 0  0.625 1 0  0.6875 1 0  0.75 1 0  0.8125 1 0  0.875 1 0  0.9375 1 0  1 1 0  0.03125 0.03125 0  0.09375 0.03125 0  0.15625 0.03125 0  0.21875 0.03125 0  0.28125 0.03125 0  0.34375 0.03125 0  0.40625 0.03125 0  0.46875 0.03125 0  0.53125 0.03125 0  0.59375 0.03125 0  0.65625 0.03125 0  0.71875 0.03125 0  0.78125 0.03125 0  0.84375 0.03125 0  0.90625 0.03125 0  0.96875 0.03125 0  0.03125 0.09375 0  0.09375 0.09375 0  0.15625 0.09375 0  0.21875 0.09375 0  0.28125 0.09375 0  0.34375 0.09375 0  0.40625 0.09375 0  0.46875 0.09375 0  0.53125 0.09375 0  0.59375 0.09375 0  0.65625 0.09375 0  0.71875 0.09375 0  0.78125 0.09375 0  0.84375 0.09375 0  0.90625 0.09375 0  0.96875 0.09375 0  0.03125 0.15625 0  0.09375 0.15625 0  0.15625 0.15625 0  0.21875 0.15625 0  0.28125 0.15625 0  0.34375 0.15625 0  0.40625 0.15625 0  0.46875 0.15625 0  0.53125 0.15625 0  0.59375 0.15625 0  0.65625 0.15625 0  0.71875 0.15625 0  0.78125 0.15625 0  0.84375 0.15625 0  0.90625 0.15625 0  0.96875 0.15625 0  0.03125 0.21875 0  0.09375 0.21875 0  0.15625 0.21875 0  0.21875 0.21875 0  0.28125 0.21875 0  0.34375 0.21875 0  0.40625 0.21875 0  0.46875 0.21875 0  0.53125 0.21875 0  0.59375 0.21875 0  0.65625 0.21875 0  0.71875 0.21875 0  0.78125 0.21875 0  0.84375 0.21875 0  0.90625 0.21875 0  0.96875 0.21875 0  0.03125 0.28125 0  0.09375 0.28125 0  0.15625 0.28125 0  0.21875 0.28125 0  0.28125 0.28125 0  0.34375 0.28125 0  0.40625 0.28125 0  0.46875 0.28125 0  0.53125 0.28125 0  0.59375 0.28125 0  0.65625 0.28125 0  0.71875 0.28125 0  0.78125 0.28125 0  0.84375 0.28125 0  0.90625 0.28125 0  0.96875 0.28125 0  0.03125 0.34375 0  0.09375 0.34375 0  0.15625 0.34375 0  0.21875 0.34375 0  0.28125 0.34375 0  0.34375 0.34375 0  0.40625 0.34375 0  0.46875 0.34375 0  0.53125 0.34375 0  0.59375 0.34375 0  0.65625 0.34375 0  0.71875 0.34375 0  0.78125 0.34375 0  0.84375 0.34375 0  0.90625 0.34375 0  0.96875 0.34375 0  0.03125 0.40625 0  0.09375 0.40625 0  0.15625 0.40625 0  0.21875 0.40625 0  0.28125 0.40625 0  0.34375 0.40625 0  0.40625 0.40625 0  0.46875 0.40625 0  0.53125 0.40625 0  0.59375 0.40625 0  0.65625 0.40625 0  0.71875 0.40625 0  0.78125 0.40625 0  0.84375 0.40625 0  0.90625 0.40625 0  0.96875 0.40625 0  0.03125 0.46875 0  0.09375 0.46875 0  0.15625 0.46875 0  0.21875 0.46875 0  0.28125 0.46875 0  0.34375 0.46875 0  0.40625 0.46875 0  0.46875 0.46875 0  0.53125 0.46875 0  0.59375 0.46875 0  0.65625 0.46875 0  0.71875 0.46875 0  0.78125 0.46875 0  0.84375 0.46875 0  0.90625 0.46875 0  0.96875 0.46875 0  0.03125 0.53125 0  0.09375 0.53125 0  0.15625 0.53125 0  0.21875 0.53125 0  0.28125 0.53125 0  0.34375 0.53125 0  0.40625 0.53125 0  0.46875 0.53125 0  0.53125 0.53125 0  0.59375 0.53125 0  0.65625 0.53125 0  0.71875 0.53125 0  0.78125 0.53125 0  0.84375 0.53125 0  0.90625 0.53125 0  0.96875 0.53125 0  0.03125 0.59375 0  0.09375 0.59375 0  0.15625 0.59375 0  0.21875 0.59375 0  0.28125 0.59375 0  0.34375 0.59375 0  0.40625 0.59375 0  0.46875 0.59375 0  0.53125 0.59375 0  0.59375 0.59375 0  0.65625 0.59375 0  0.71875 0.59375 0  0.78125 0.59375 0  0.84375 0.59375 0  0.90625 0.59375 0  0.96875 0.59375 0  0.03125 0.65625 0  0.09375 0.65625 0  0.15625 0.65625 0  0.21875 0.65625 0  0.28125 0.65625 0  0.34375 0.65625 0  0.40625 0.65625 0  0.46875 0.65625 0  0.53125 0.65625 0  0.59375 0.65625 0  0.65625 0.65625 0  0.71875 0.65625 0  0.78125 0.65625 0  0.84375 0.65625 0  0.90625 0.65625 0  0.96875 0.65625 0  0.03125 0.71875 0  0.09375 0.71875 0  0.15625 0.71875 0  0.21875 0.71875 0  0.28125 0.71875 0  0.34375 0.71875 0  0.40625 0.71875 0  0.46875 0.71875 0  0.53125 0.71875 0  0.59375 0.71875 0  0.65625 0.71875 0  0.71875 0.71875 0  0.78125 0.71875 0  0.84375 0.71875 0  0.90625 0.71875 0  0.96875 0.71875 0  0.03125 0.78125 0  0.09375 0.78125 0  0.15625 0.78125 0  0.21875 0.78125 0  0.28125 0.78125 0  0.34375 0.78125 0  0.40625 0.78125 0  0.46875 0.78125 0  0.53125 0.78125 0  0.59375 0.78125 0  0.65625 0.78125 0  0.71875 0.78125 0  0.78125 0.78125 0  0.84375 0.78125 0  0.90625 0.78125 0  0.96875 0.78125 0  0.03125 0.84375 0  0.09375 0.84375 0  0.15625 0.84375 0  0.21875 0.84375 0  0.28125 0.84375 0  0.34375 0.84375 0  0.40625 0.84375 0  0.46875 0.84375 0  0.53125 0.84375 0  0.59375 0.84375 0  0.65625 0.84375 0  0.71875 0.84375 0  0.78125 0.84375 0  0.84375 0.84375 0  0.90625 0.84375 0  0.96875 0.84375 0  0.03125 0.90625 0  0.09375 0.90625 0  0.15625 0.90625 0  0.21875 0.90625 0  0.28125 0.90625 0  0.34375 0.90625 0  0.40625 0.90625 0  0.46875 0.90625 0  0.53125 0.90625 0  0.59375 0.90625 0  0.65625 0.90625 0  0.71875 0.90625 0  0.78125 0.90625 0  0.84375 0.90625 0  0.90625 0.90625 0  0.96875 0.90625 0  0.03125 0.96875 0  0.09375 0.96875 0  0.15625 0.96875 0  0.21875 0.96875 0  0.28125 0.96875 0  0.34375 0.96875 0  0.40625 0.96875 0  0.46875 0.96875 0  0.53125 0.96875 0  0.59375 0.96875 0  0.65625 0.96875 0  0.71875 0.96875 0  0.78125 0.96875 0  0.84375 0.96875 0  0.90625 0.96875 0  0.96875 0.96875 0  </DataArray>
</Points>
<Cells>
[...]
<PointData  Vectors="f_8-0"> 
<DataArray  type="Float64"  Name="f_8-0"  NumberOfComponents="3" format="ascii">0.0000000000000000e+00 0.0000000000000000e+00 0.0000000000000000e+00  0.0000000000000000e+00 0.0000000000000000e+00 0.0000000000000000e+00  0.0000000000000000e+00 0.0000000000000000e+00 0.0000000000000000e+00  0.0000000000000000e+00 0.0000000000000000e+00 0.0000000000000000e+00  0.0000000000000000e+00 0.0000000000000000e+00 0.0000000000000000e+00  0.0000000000000000e+00 0.0000000000000000e+00 0.0000000000000000e+00  0.0000000000000000e+00 0.0000000000000000e+00 0.0000000000000000e+00  0.0000000000000000e+00 0.0000000000000000e+00 0.0000000000000000e+00  0.0000000000000000e+00 0.0000000000000000e+00 0.0000000000000000e+00  0.0000000000000000e+00 0.0000000000000000e+00 0.0000000000000000e+00  0.0000000000000000e+00 0.0000000000000000e+00 0.0000000000000000e+00  0.0000000000000000e+00 0.0000000000000000e+00 0.0000000000000000e+00  0.0000000000000000e+00 0.0000000000000000e+00 0.0000000000000000e+00  0.0000000000000000e+00 0.0000000000000000e+00 0.0000000000000000e+00  0.0000000000000000e+00 0.0000000000000000e+00 0.0000000000000000e+00  0.0000000000000000e+00 0.0000000000000000e+00 0.0000000000000000e+00  0.0000000000000000e+00 0.0000000000000000e+00 0.0000000000000000e+00  0.0000000000000000e+00 0.0000000000000000e+00 0.0000000000000000e+00  -8.4728229464481829e-04 8.4702610895574391e-04 0.0000000000000000e+00  -3.2380926083592065e-03 1.6227729762595454e-03 0.0000000000000000e+00  -6.5298911064710962e-03 1.9167685648416599e-03 0.0000000000000000e+00  -9.9857608967219482e-03 1.8365627689638233e-03 0.0000000000000000e+00  -1.3072246786488885e-02 1.5248938720613006e-03 0.0000000000000000e+00  -1.5463126144355452e-02 1.0810339301451457e-03 0.0000000000000000e+00  -1.6972398361553339e-02 5.6481844511576621e-04 0.0000000000000000e+00  -1.7502761704278193e-02 1.4542324849719353e-05 0.0000000000000000e+00  -1.7019860006864469e-02 -5.3942758908581386e-04 0.0000000000000000e+00  -1.5546094660018026e-02 -1.0657012501981142e-03 0.0000000000000000e+00  -1.3170215935524044e-02 -1.5230581574023137e-03 0.0000000000000000e+00  -1.0075898720260270e-02 -1.8473780542639534e-03 0.0000000000000000e+00  -6.5946010969867488e-03 -1.9349380743159488e-03 0.0000000000000000e+00  -3.2712819436157437e-03 -1.6402379327618715e-03 0.0000000000000000e+00  -8.5608899248459068e-04 -8.5644061231387591e-04 0.0000000000000000e+00  0.0000000000000000e+00 0.0000000000000000e+00 0.0000000000000000e+00  0.0000000000000000e+00 0.0000000000000000e+00 0.0000000000000000e+00  -1.7055269134272704e-03 3.2942230178615124e-03 0.0000000000000000e+00  -5.8381841386266125e-03 5.6286709221850962e-03 0.0000000000000000e+00  -1.1158605187464114e-02 6.5094040634560979e-03 0.0000000000000000e+00  -1.6634794732050526e-02 6.2224624450713415e-03 0.0000000000000000e+00  -2.1503858700563941e-02 5.1722972433952026e-03 0.0000000000000000e+00  -2.5272898082581909e-02 3.6700469880607280e-03 0.0000000000000000e+00  -2.7651289628869542e-02 1.9167087000644420e-03 0.0000000000000000e+00  -2.8485443888895200e-02 4.5638950424082350e-05 0.0000000000000000e+00  -2.7721656860652991e-02 -1.8369142870504353e-03 0.0000000000000000e+00  -2.5396231532877820e-02 -3.6215368622899364e-03 0.0000000000000000e+00  -2.1650192809145836e-02 -5.1658266188423117e-03 0.0000000000000000e+00  -1.6770500713079478e-02 -6.2555731191660654e-03 0.0000000000000000e+00  -1.1257303186127268e-02 -6.5659720799066991e-03 0.0000000000000000e+00  -5.8899273705339539e-03 -5.6841485874801444e-03 0.0000000000000000e+00  -1.7197253171089158e-03 -3.3262277287097151e-03 0.0000000000000000e+00  0.0000000000000000e+00 0.0000000000000000e+00 0.0000000000000000e+00  0.0000000000000000e+00 0.0000000000000000e+00 0.0000000000000000e+00  -2.2985109557244737e-03 6.9904762821534662e-03 0.0000000000000000e+00  -7.7444838634618627e-03 1.1307114812950894e-02 0.0000000000000000e+00  -1.4580242642039104e-02 1.2840268000768873e-02 0.0000000000000000e+00  -2.1499826589532870e-02 1.2200785242660016e-02 0.0000000000000000e+00  -2.7594220902061498e-02 1.0120897069663785e-02 0.0000000000000000e+00  -3.2286547194106410e-02 7.1749157891970988e-03 0.0000000000000000e+00  -3.5239972989394186e-02 3.7452692230708286e-03 0.0000000000000000e+00  -3.6278230151269311e-02 8.9198909437561766e-05 0.0000000000000000e+00  -3.5338915180969051e-02 -3.5890346705000653e-03 0.0000000000000000e+00  -3.2460535110094418e-02 -7.0792171641295377e-03 0.0000000000000000e+00  -2.7801647801181363e-02 -1.0106981031119879e-02 0.0000000000000000e+00  -2.1693161617446419e-02 -1.2264579766862540e-02 0.0000000000000000e+00  -1.4721238536002280e-02 -1.2951052890754135e-02 0.0000000000000000e+00  -7.8179858649237537e-03 -1.1417092436909275e-02 0.0000000000000000e+00  -2.3180903682309567e-03 -7.0550348755505496e-03 0.0000000000000000e+00  0.0000000000000000e+00 0.0000000000000000e+00 0.0000000000000000e+00  0.0000000000000000e+00 0.0000000000000000e+00 0.0000000000000000e+00  -2.8001907364232663e-03 1.1662869324523760e-02 0.0000000000000000e+00  -9.4405149313842758e-03 1.8383394992153048e-02 0.0000000000000000e+00  -1.7701960923675725e-02 2.0606590424051746e-02 0.0000000000000000e+00  -2.5966516274622535e-02 1.9446724245407745e-02 0.0000000000000000e+00  -3.3166365324362110e-02 1.6067886048042858e-02 0.0000000000000000e+00  -3.8663629108252225e-02 1.1364666568201917e-02 0.0000000000000000e+00  -4.2109015011137091e-02 5.9293269126982047e-03 0.0000000000000000e+00  -4.3329089872670846e-02 1.5323209917793062e-04 0.0000000000000000e+00  -4.2260602495192305e-02 -5.6601430494048564e-03 0.0000000000000000e+00  -3.8931747420518803e-02 -1.1197850525485387e-02 0.0000000000000000e+00  -3.3488885879417958e-02 -1.6040814495094508e-02 0.0000000000000000e+00  -2.6270453405048907e-02 -1.9554577268942084e-02 0.0000000000000000e+00  -1.7926216288519391e-02 -2.0798312018967618e-02 0.0000000000000000e+00  -9.5586611749677464e-03 -1.8576178099779433e-02 0.0000000000000000e+00  -2.8318736928907265e-03 -1.1776798921816803e-02 0.0000000000000000e+00  0.0000000000000000e+00 0.0000000000000000e+00 0.0000000000000000e+00  0.0000000000000000e+00 0.0000000000000000e+00 0.0000000000000000e+00  -3.3862812104734773e-03 1.7323115253912835e-02 0.0000000000000000e+00  -1.1420548525390300e-02 2.6928054345976421e-02 0.0000000000000000e+00  -2.1342266225909578e-02 2.9886520334753759e-02 0.0000000000000000e+00  -3.1144341720286611e-02 2.7996276758154932e-02 0.0000000000000000e+00  -3.9565693505573145e-02 2.3003741897275932e-02 0.0000000000000000e+00  -4.5919074937276372e-02 1.6211232432000660e-02 0.0000000000000000e+00  -4.9875782776039213e-02 8.4537932255800037e-03 0.0000000000000000e+00  -5.1294092901857428e-02 2.5402163603744130e-04 0.0000000000000000e+00  -5.0119098901230306e-02 -8.0054071510486276e-03 0.0000000000000000e+00  -4.6353103627139784e-02 -1.5928075281902022e-02 0.0000000000000000e+00  -4.0094845992666946e-02 -2.2949948316966461e-02 0.0000000000000000e+00  -3.1651836570749207e-02 -2.8169584482376865e-02 0.0000000000000000e+00  -2.1724713384179480e-02 -3.0207126164993030e-02 0.0000000000000000e+00  -1.1627199479752607e-02 -2.7257665362361221e-02 0.0000000000000000e+00  -3.4435296622095115e-03 -1.7521491764507569e-02 0.0000000000000000e+00  0.0000000000000000e+00 0.0000000000000000e+00 0.0000000000000000e+00  0.0000000000000000e+00 0.0000000000000000e+00 0.0000000000000000e+00  -4.1989792503058440e-03 2.4250391743705951e-02 0.0000000000000000e+00  -1.4104290198291181e-02 3.7317580589628432e-02 0.0000000000000000e+00  -2.6172167801975087e-02 4.1017828161542633e-02 0.0000000000000000e+00  -3.7871059225682700e-02 3.8077900578937091e-02 0.0000000000000000e+00  -4.7716747710727793e-02 3.1046781372539450e-02 0.0000000000000000e+00  -5.5011996908366015e-02 2.1762510519269588e-02 0.0000000000000000e+00  -5.9510240143187836e-02 1.1341297177568372e-02 0.0000000000000000e+00  -6.1149797150637848e-02 4.1555793303809632e-04 0.0000000000000000e+00  -5.9900300361760909e-02 -1.0602605731236555e-02 0.0000000000000000e+00  -5.5715674934928058e-02 -2.1283085772887404e-02 0.0000000000000000e+00  -4.8590074140928551e-02 -3.0936237080889786e-02 0.0000000000000000e+00  -3.8728286049485881e-02 -3.8346267512175208e-02 0.0000000000000000e+00  -2.6836148963267505e-02 -4.1547345872308815e-02 0.0000000000000000e+00  -1.4474525111855107e-02 -3.7881487285898789e-02 0.0000000000000000e+00  -4.3054175384435569e-03 -2.4601172938308994e-02 0.0000000000000000e+00  0.0000000000000000e+00 0.0000000000000000e+00 0.0000000000000000e+00  0.0000000000000000e+00 0.0000000000000000e+00 0.0000000000000000e+00  -5.3837974742718493e-03 3.2965655871110194e-02 0.0000000000000000e+00  -1.7898509000332612e-02 5.0189966255334721e-02 0.0000000000000000e+00  -3.2777273851425676e-02 5.4500061644277495e-02 0.0000000000000000e+00  -4.6768158488028566e-02 4.9971099633840568e-02 0.0000000000000000e+00  -5.8172514081869041e-02 4.0296657264750520e-02 0.0000000000000000e+00  -6.6391276807054006e-02 2.8026523411672166e-02 0.0000000000000000e+00  -7.1378736138992233e-02 1.4589105938150056e-02 0.0000000000000000e+00  -7.3235616261076233e-02 6.6944085106634727e-04 0.0000000000000000e+00  -7.1984794669252561e-02 -1.3387711428749803e-02 0.0000000000000000e+00  -6.7500926779915579e-02 -2.7217862465448883e-02 0.0000000000000000e+00  -5.9582163970285179e-02 -4.0066521020925852e-02 0.0000000000000000e+00  -4.8193931539132782e-02 -5.0366244321508852e-02 0.0000000000000000e+00  -3.3920460571700749e-02 -5.5362031941147020e-02 0.0000000000000000e+00  -1.8560222660757509e-02 -5.1155406905913990e-02 0.0000000000000000e+00  -5.5817234722306706e-03 -3.3594170719920109e-02 0.0000000000000000e+00  0.0000000000000000e+00 0.0000000000000000e+00 0.0000000000000000e+00  0.0000000000000000e+00 0.0000000000000000e+00 0.0000000000000000e+00  -7.1258549174362156e-03 4.4256692828572072e-02 0.0000000000000000e+00  -2.3239194740425448e-02 6.6395946760916924e-02 0.0000000000000000e+00  -4.1633172201594335e-02 7.0854863394236273e-02 0.0000000000000000e+00  -5.8120794507001736e-02 6.3818519982057745e-02 0.0000000000000000e+00  -7.0915039038363506e-02 5.0654435984856014e-02 0.0000000000000000e+00  -7.9747385723241165e-02 3.4836975743198016e-02 0.0000000000000000e+00  -8.4970659525055559e-02 1.8096640268703730e-02 0.0000000000000000e+00  -8.6967939862468979e-02 1.0501416719978325e-03 0.0000000000000000e+00  -8.5858568982701819e-02 -1.6188657672461356e-02 0.0000000000000000e+00  -8.1405049768396173e-02 -3.3492390446234678e-02 0.0000000000000000e+00  -7.3086340409552419e-02 -5.0180422085227300e-02 0.0000000000000000e+00  -6.0404746617250107e-02 -6.4351860278867454e-02 0.0000000000000000e+00  -4.3548043167146881e-02 -7.2219700935786682e-02 0.0000000000000000e+00  -2.4400735025470226e-02 -6.8034932276164264e-02 0.0000000000000000e+00  -7.4899052386583542e-03 -4.5387409600228919e-02 0.0000000000000000e+00  0.0000000000000000e+00 0.0000000000000000e+00 0.0000000000000000e+00  0.0000000000000000e+00 0.0000000000000000e+00 0.0000000000000000e+00  -9.6362347031632850e-03 5.9199756257005819e-02 0.0000000000000000e+00  -3.0429985888151889e-02 8.6836684487504007e-02 0.0000000000000000e+00  -5.2678133331708475e-02 9.0309876004366005e-02 0.0000000000000000e+00  -7.1194007811149776e-02 7.9284954268115590e-02 0.0000000000000000e+00  -8.4500951276700847e-02 6.1547225179028782e-02 0.0000000000000000e+00  -9.3072544607814986e-02 4.1671557753447233e-02 0.0000000000000000e+00  -9.7921865079678830e-02 2.1570349961904049e-02 0.0000000000000000e+00  -9.9842752799617879e-02 1.5768275044176405e-03 0.0000000000000000e+00  -9.9099065797559893e-02 -1.8661388841094015e-02 0.0000000000000000e+00  -9.5327960924895871e-02 -3.9505241364692134e-02 0.0000000000000000e+00  -8.7577913581553229e-02 -6.0605540185959095e-02 0.0000000000000000e+00  -7.4603511999222383e-02 -7.9892923710692371e-02 0.0000000000000000e+00  -5.5710448215691107e-02 -9.2363456466634491e-02 0.0000000000000000e+00  -3.2385544386094450e-02 -8.9552185232724402e-02 0.0000000000000000e+00  -1.0286565855499641e-02 -6.1215927374423808e-02 0.0000000000000000e+00  0.0000000000000000e+00 0.0000000000000000e+00 0.0000000000000000e+00  0.0000000000000000e+00 0.0000000000000000e+00 0.0000000000000000e+00  -1.3002245128932617e-02 7.9004299956316207e-02 0.0000000000000000e+00  -3.8970931936053672e-02 1.1188258848515828e-01 0.0000000000000000e+00  -6.4000689777359690e-02 1.1205647066359717e-01 0.0000000000000000e+00  -8.2456030241269837e-02 9.4932750106778832e-02 0.0000000000000000e+00  -9.4072761270508787e-02 7.1524253520553305e-02 0.0000000000000000e+00  -1.0062038186506740e-01 4.7430380553483906e-02 0.0000000000000000e+00  -1.0397798377700301e-01 2.4414304319300233e-02 0.0000000000000000e+00  -1.0539088292744184e-01 2.2121604343757176e-03 0.0000000000000000e+00  -1.0528610098513699e-01 -2.0258951530800345e-02 0.0000000000000000e+00  -1.0322066511052577e-01 -4.4133627347229983e-02 0.0000000000000000e+00  -9.7829519380188898e-02 -6.9775292495365196e-02 0.0000000000000000e+00  -8.6932071099957653e-02 -9.5383139388329999e-02 0.0000000000000000e+00  -6.8320536198394524e-02 -1.1488343177735687e-01 0.0000000000000000e+00  -4.2001014667721055e-02 -1.1616272607011284e-01 0.0000000000000000e+00  -1.4093885255219100e-02 -8.2499468036808507e-02 0.0000000000000000e+00  0.0000000000000000e+00 0.0000000000000000e+00 0.0000000000000000e+00  0.0000000000000000e+00 0.0000000000000000e+00 0.0000000000000000e+00  -1.6786131392127288e-02 1.0422839512008536e-01 0.0000000000000000e+00  -4.5993571599636657e-02 1.3986153046949884e-01 0.0000000000000000e+00  -6.9164304205049196e-02 1.3277276328678603e-01 0.0000000000000000e+00  -8.2451675666661353e-02 1.0730950229328319e-01 0.0000000000000000e+00  -8.8249150158529202e-02 7.7841187413884141e-02 0.0000000000000000e+00  -8.9981637947977158e-02 5.0290344290120220e-02 0.0000000000000000e+00  -9.0231462959335651e-02 2.5674621348685412e-02 0.0000000000000000e+00  -9.0475975645561618e-02 2.8046781588096019e-03 0.0000000000000000e+00  -9.1231622035602603e-02 -2.0297994901469500e-02 0.0000000000000000e+00  -9.2113388789907810e-02 -4.5718685225818526e-02 0.0000000000000000e+00  -9.1660558121862343e-02 -7.4921123462338673e-02 0.0000000000000000e+00  -8.7040740883266937e-02 -1.0712418969117268e-01 0.0000000000000000e+00  -7.4204224782089115e-02 -1.3611054365088071e-01 0.0000000000000000e+00  -5.0015894448513593e-02 -1.4603814320918143e-01 0.0000000000000000e+00  -1.8417924831084048e-02 -1.0994335070319329e-01 0.0000000000000000e+00  0.0000000000000000e+00 0.0000000000000000e+00 0.0000000000000000e+00  0.0000000000000000e+00 0.0000000000000000e+00 0.0000000000000000e+00  -1.9269002048744932e-02 1.3303869741444216e-01 0.0000000000000000e+00  -4.3173603228906086e-02 1.6373556754235868e-01 0.0000000000000000e+00  -5.3286379073312969e-02 1.4460930566002245e-01 0.0000000000000000e+00  -5.2389353831528589e-02 1.1031164322376358e-01 0.0000000000000000e+00  -4.6659991308941266e-02 7.6521161978567342e-02 0.0000000000000000e+00  -4.0377369456686782e-02 4.7946990418714738e-02 0.0000000000000000e+00  -3.5881164736969555e-02 2.4202816231311729e-02 0.0000000000000000e+00  -3.4260774595039740e-02 3.0689289324586466e-03 0.0000000000000000e+00  -3.5903160605985571e-02 -1.8189580101803510e-02 0.0000000000000000e+00  -4.0688080691146447e-02 -4.2449209336223273e-02 0.0000000000000000e+00  -4.7750164484564400e-02 -7.2355380536141226e-02 0.0000000000000000e+00  -5.4769849032418383e-02 -1.0889473746293984e-01 0.0000000000000000e+00  -5.6975976016403876e-02 -1.4759493737426657e-01 0.0000000000000000e+00  -4.7019695897267781e-02 -1.7139721307423400e-01 0.0000000000000000e+00  -2.1222424782026038e-02 -1.4151371345782260e-01 0.0000000000000000e+00  0.0000000000000000e+00 0.0000000000000000e+00 0.0000000000000000e+00  0.0000000000000000e+00 0.0000000000000000e+00 0.0000000000000000e+00  -1.3556314827263511e-02 1.5401021136657528e-01 0.0000000000000000e+00  -9.1845937538301992e-03 1.6643583534127987e-01 0.0000000000000000e+00  1.2718180015285767e-02 1.3486848757505046e-01 0.0000000000000000e+00  3.7687687461028366e-02 9.6565009953456390e-02 0.0000000000000000e+00  5.9245339145447176e-02 6.3846225349913133e-02 0.0000000000000000e+00  7.5097284370508485e-02 3.8686223523679134e-02 0.0000000000000000e+00  8.4801300719177797e-02 1.9242694234605878e-02 0.0000000000000000e+00  8.8500792552795637e-02 2.7021879838563874e-03 0.0000000000000000e+00  8.6237712468864608e-02 -1.3829000837751609e-02 0.0000000000000000e+00  7.7721072473665095e-02 -3.3364525144995154e-02 0.0000000000000000e+00  6.2468742954607269e-02 -5.9138140125200640e-02 0.0000000000000000e+00  4.0517526084387585e-02 -9.3802840027556469e-02 0.0000000000000000e+00  1.4027265948967573e-02 -1.3628449051915470e-01 0.0000000000000000e+00  -9.7944788455322108e-03 -1.7382364557920349e-01 0.0000000000000000e+00  -1.4642822895392670e-02 -1.6439254105577311e-01 0.0000000000000000e+00  0.0000000000000000e+00 0.0000000000000000e+00 0.0000000000000000e+00  0.0000000000000000e+00 0.0000000000000000e+00 0.0000000000000000e+00  3.7293106745794016e-02 1.2758056761732914e-01 0.0000000000000000e+00  1.1603574673870344e-01 1.2307525995817925e-01 0.0000000000000000e+00  1.8007491837625125e-01 9.3391532716936468e-02 0.0000000000000000e+00  2.2833308648666142e-01 6.3329792496253340e-02 0.0000000000000000e+00  2.6238502031769356e-01 3.9947652846709390e-02 0.0000000000000000e+00  2.8446035247892620e-01 2.3383868674529726e-02 0.0000000000000000e+00  2.9706863939117673e-01 1.1416879213313566e-02 0.0000000000000000e+00  3.0190540418517658e-01 1.6716338423201566e-03 0.0000000000000000e+00  2.9955888267040254e-01 -7.9984492147033379e-03 0.0000000000000000e+00  2.8940658867454916e-01 -1.9790285317445210e-02 0.0000000000000000e+00  2.6956550296570025e-01 -3.6308693103907101e-02 0.0000000000000000e+00  2.3703011325804726e-01 -6.0393484174527751e-02 0.0000000000000000e+00  1.8870634149623328e-01 -9.3054877863719507e-02 0.0000000000000000e+00  1.2261630801821605e-01 -1.2781816204156224e-01 0.0000000000000000e+00  4.0193282491192646e-02 -1.3617061357906982e-01 0.0000000000000000e+00  0.0000000000000000e+00 0.0000000000000000e+00 0.0000000000000000e+00  0.0000000000000000e+00 0.0000000000000000e+00 0.0000000000000000e+00  3.4391134730757994e-01 1.5079830813469160e-03 0.0000000000000000e+00  4.3013834655468297e-01 3.9226048487024164e-02 0.0000000000000000e+00  4.9465933624784753e-01 3.3179261592960106e-02 0.0000000000000000e+00  5.4153287054815757e-01 2.1697728702756252e-02 0.0000000000000000e+00  5.7150035011115452e-01 1.3090662496674890e-02 0.0000000000000000e+00  5.8951720168218791e-01 7.3979359905204031e-03 0.0000000000000000e+00  5.9927843342306397e-01 3.5261623501983337e-03 0.0000000000000000e+00  6.0293994753951352e-01 4.8745714997328439e-04 0.0000000000000000e+00  6.0121923763894158e-01 -2.5155423456593188e-03 0.0000000000000000e+00  5.9352055054351660e-01 -6.2815809211804723e-03 0.0000000000000000e+00  5.7775942773833744e-01 -1.1833023424759332e-02 0.0000000000000000e+00  5.5006518074073907e-01 -2.0448834534050945e-02 0.0000000000000000e+00  5.0478617603795584e-01 -3.2658088936955307e-02 0.0000000000000000e+00  4.3909657269955393e-01 -4.1323563703195086e-02 0.0000000000000000e+00  3.4954643826431370e-01 -7.4795626357666871e-03 0.0000000000000000e+00  0.0000000000000000e+00 0.0000000000000000e+00 0.0000000000000000e+00  1.0000000000000000e+00 0.0000000000000000e+00 0.0000000000000000e+00  1.0000000000000000e+00 0.0000000000000000e+00 0.0000000000000000e+00  1.0000000000000000e+00 0.0000000000000000e+00 0.0000000000000000e+00  1.0000000000000000e+00 0.0000000000000000e+00 0.0000000000000000e+00  1.0000000000000000e+00 0.0000000000000000e+00 0.0000000000000000e+00  1.0000000000000000e+00 0.0000000000000000e+00 0.0000000000000000e+00  1.0000000000000000e+00 0.0000000000000000e+00 0.0000000000000000e+00  1.0000000000000000e+00 0.0000000000000000e+00 0.0000000000000000e+00  1