<?xml version="1.0"?>
<VTKFile type="UnstructuredGrid"  version="0.1"  >
<UnstructuredGrid>
<Piece  NumberOfPoints="545" NumberOfCells="1024">
<Points>
<DataArray  type="Float64"  NumberOfComponents="3"  format="ascii">0 0 0  0.0625 0 0  0.125 0 0  0.1875 0 0  0.25 0 0  0.3125 0 0  0.375 0 0  0.4375 0 0  0.5 0 0  0.5625 0 0  0.625 0 0  0.6875 0 0  0.75 0 0  0.8125 0 0  0.875 0 0  0.9375 0 0  1 0 0  0 0.0625 0  0.0625 0.0625 0  0.125 0.0625 0  0.1875 0.0625 0  0.25 0.0625 0  0.3125 0.0625 0  0.375 0.0625 0  0.4375 0.0625 0  0.5 0.0625 0  0.5625 0.0625 0  0.625 0.0625 0  0.6875 0.0625 0  0.75 0.0625 0  0.8125 0.0625 0  0.875 0.0625 0  0.9375 0.0625 0  1 0.0625 0  0 0.125 0  0.0625 0.125 0  0.125 0.125 0  0.1875 0.125 0  0.25 0.125 0  0.3125 0.125 0  0.375 0.125 0  0.4375 0.125 0  0.5 0.125 0  0.5625 0.125 0  0.625 0.125 0  0.6875 0.125 0  0.75 0.125 0  0.8125 0.125 0  0.875 0.125 0  0.9375 0.125 0  1 0.125 0  0 0.1875 0  0.0625 0.1875 0  0.125 0.1875 0  0.1875 0.1875 0  0.25 0.1875 0  0.3125 0.1875 0  0.375 0.1875 0  0.4375 0.1875 0  0.5 0.1875 0  0.5625 0.1875 0  0.625 0.1875 0  0.6875 0.1875 0  0.75 0.1875 0  0.8125 0.1875 0  0.875 0.1875 0  0.9375 0.1875 0  1 0.1875 0  0 0.25 0  0.0625 0.25 0  0.125 0.25 0  0.1875 0.25 0  0.25 0.25 0  0.3125 0.25 0  0.375 0.25 0  0.4375 0.25 0  0.5 0.25 0  0.5625 0.25 0  0.625 0.25 0  0.6875 0.25 0  0.75 0.25 0  0.8125 0.25 0  0.875 0.25 0  0.9375 0.25 0  1 0.25 0  0 0.3125 0  0.0625 0.3125 0  0.125 0.3125 0  0.1875 0.3125 0  0.25 0.3125 0  0.3125 0.3125 0  0.375 0.3125 0  0.4375 0.3125 0  0.5 0.3125 0  0.5625 0.3125 0  0.625 0.3125 0  0.6875 0.3125 0  0.75 0.3125 0  0.8125 0.3125 0  0.875 0.3125 0  0.9375 0.3125 0  1 0.3125 0  0 0.375 0  0.0625 0.375 0  0.125 0.375 0  0.1875 0.375 0  0.25 0.375 0  0.3125 0.375 0  0.375 0.375 0  0.4375 0.375 0  0.5 0.375 0  0.5625 0.375 0  0.625 0.375 0  0.6875 0.375 0  0.75 0.375 0  0.8125 0.375 0  0.875 0.375 0  0.9375 0.375 0  1 0.375 0  0 0.4375 0  0.0625 0.4375 0  0.125 0.4375 0  0.1875 0.4375 0  0.25 0.4375 0  0.3125 0.4375 0  0.375 0.4375 0  0.4375 0.4375 0  0.5 0.4375 0  0.5625 0.4375 0  0.625 0.4375 0  0.6875 0.4375 0  0.75 0.4375 0  0.8125 0.4375 0  0.875 0.4375 0  0.9375 0.4375 0  1 0.4375 0  0 0.5 0  0.0625 0.5 0  0.125 0.5 0  0.1875 0.5 0  0.25 0.5 0  0.3125 0.5 0  0.375 0.5 0  0.4375 0.5 0  0.5 0.5 0  0.5625 0.5 0  0.625 0.5 0  0.6875 0.5 0  0.75 0.5 0  0.8125 0.5 0  0.875 0.5 0  0.9375 0.5 0  1 0.5 0  0 0.5625 0  0.0625 0.5625 0  0.125 0.5625 0  0.1875 0.5625 0  0.25 0.5625 0  0.3125 0.5625 0  0.375 0.5625 0  0.4375 0.5625 0  0.5 0.5625 0  0.5625 0.5625 0  0.625 0.5625 0  0.6875 0.5625 0  0.75 0.5625 0  0.8125 0.5625 0  0.875 0.5625 0  0.9375 0.5625 0  1 0.5625 0  0 0.625 0  0.0625 0.625 0  0.125 0.625 0  0.1875 0.625 0  0.25 0.625 0  0.3125 0.625 0  0.375 0.625 0  0.4375 0.625 0  0.5 0.625 0  0.5625 0.625 0  0.625 0.625 0  0.6875 0.625 0  0.75 0.625 0  0.8125 0.625 0  0.875 0.625 0  0.9375 0.625 0  1 0.625 0  0 0.6875 0  0.0625 0.6875 0  0.125 0.6875 0  0.1875 0.6875 0  0.25 0.6875 0  0.3125 0.6875 0  0.375 0.6875 0  0.4375 0.6875 0  0.5 0.6875 0  0.5625 0.6875 0  0.625 0.6875 0  0.6875 0.6875 0  0.75 0.6875 0  0.8125 0.6875 0  0.875 0.6875 0  0.9375 0.6875 0  1 0.6875 0  0 0.75 0  0.0625 0.75 0  0.125 0.75 0  0.1875 0.75 0  0.25 0.75 0  0.3125 0.75 0  0.375 0.75 0  0.4375 0.75 0  0.5 0.75 0  0.5625 0.75 0  0.625 0.75 0  0.6875 0.75 0  0.75 0.75 0  0.8125 0.75 0  0.875 0.75 0  0.9375 0.75 0  1 0.75 0  0 0.8125 0  0.0625 0.8125 0  0.125 0.8125 0  0.1875 0.8125 0  0.25 0.8125 0  0.3125 0.8125 0  0.375 0.8125 0  0.4375 0.8125 0  0.5 0.8125 0  0.5625 0.8125 0  0.625 0.8125 0  0.6875 0.8125 0  0.75 0.8125 0  0.8125 0.8125 0  0.875 0.8125 0  0.9375 0.8125 0  1 0.8125 0  0 0.875 0  0.0625 0.875 0  0.125 0.875 0  0.1875 0.875 0  0.25 0.875 0  0.3125 0.875 0  0.375 0.875 0  0.4375 0.875 0  0.5 0.875 0  0.5625 0.875 0  0.625 0.875 0  0.6875 0.875 0  0.75 0.875 0  0.8125 0.875 0  0.875 0.875 0  0.9375 0.875 0  1 0.875 0  0 0.9375 0  0.0625 0.9375 0  0.125 0.9375 0  0.1875 0.9375 0  0.25 0.9375 0  0.3125 0.9375 0  0.375 0.9375 0  0.4375 0.9375 0  0.5 0.9375 0  0.5625 0.9375 0  0.625 0.9375 0  0.6875 0.9375 0  0.75 0.9375 0  0.8125 0.9375 0  0.875 0.9375 0  0.9375 0.9375 0  1 0.9375 0  0 1 0  0.0625 1 0  0.125 1 0  0.1875 1 0  0.25 1 0  0.3125 1 0  0.375 1 0  0.4375 1 0  0.5 1 0  0.5625 1 0  0.625 1 0  0.6875 1 0  0.75 1 0  0.8125 1 0  0.875 1 0  0.9375 1 0  1 1 0  0.03125 0.03125 0  0.09375 0.03125 0  0.15625 0.03125 0  0.21875 0.03125 0  0.28125 0.03125 0  0.34375 0.03125 0  0.40625 0.03125 0  0.46875 0.03125 0  0.53125 0.03125 0  0.59375 0.03125 0  0.65625 0.03125 0  0.71875 0.03125 0  0.78125 0.03125 0  0.84375 0.03125 0  0.90625 0.03125 0  0.96875 0.03125 0  0.03125 0.09375 0  0.09375 0.09375 0  0.15625 0.09375 0  0.21875 0.09375 0  0.28125 0.09375 0  0.34375 0.09375 0  0.40625 0.09375 0  0.46875 0.09375 0  0.53125 0.09375 0  0.59375 0.09375 0  0.65625 0.09375 0  0.71875 0.09375 0  0.78125 0.09375 0  0.84375 0.09375 0  0.90625 0.09375 0  0.96875 0.09375 0  0.03125 0.15625 0  0.09375 0.15625 0  0.15625 0.15625 0  0.21875 0.15625 0  0.28125 0.15625 0  0.34375 0.15625 0  0.40625 0.15625 0  0.46875 0.15625 0  0.53125 0.15625 0  0.59375 0.15625 0  0.65625 0.15625 0  0.71875 0.15625 0  0.78125 0.15625 0  0.84375 0.15625 0  0.90625 0.15625 0  0.96875 0.15625 0  0.03125 0.21875 0  0.09375 0.21875 0  0.15625 0.21875 0  0.21875 0.21875 0  0.28125 0.21875 0  0.34375 0.21875 0  0.40625 0.21875 0  0.46875 0.21875 0  0.53125 0.21875 0  0.59375 0.21875 0  0.65625 0.21875 0  0.71875 0.21875 0  0.78125 0.21875 0  0.84375 0.21875 0  0.90625 0.21875 0  0.96875 0.21875 0  0.03125 0.28125 0  0.09375 0.28125 0  0.15625 0.28125 0  0.21875 0.28125 0  0.28125 0.28125 0  0.34375 0.28125 0  0.40625 0.28125 0  0.46875 0.28125 0  0.53125 0.28125 0  0.59375 0.28125 0  0.65625 0.28125 0  0.71875 0.28125 0  0.78125 0.28125 0  0.84375 0.28125 0  0.90625 0.28125 0  0.96875 0.28125 0  0.03125 0.34375 0  0.09375 0.34375 0  0.15625 0.34375 0  0.21875 0.34375 0  0.28125 0.34375 0  0.34375 0.34375 0  0.40625 0.34375 0  0.46875 0.34375 0  0.53125 0.34375 0  0.59375 0.34375 0  0.65625 0.34375 0  0.71875 0.34375 0  0.78125 0.34375 0  0.84375 0.34375 0  0.90625 0.34375 0  0.96875 0.34375 0  0.03125 0.40625 0  0.09375 0.40625 0  0.15625 0.40625 0  0.21875 0.40625 0  0.28125 0.40625 0  0.34375 0.40625 0  0.40625 0.40625 0  0.46875 0.40625 0  0.53125 0.40625 0  0.59375 0.40625 0  0.65625 0.40625 0  0.71875 0.40625 0  0.78125 0.40625 0  0.84375 0.40625 0  0.90625 0.40625 0  0.96875 0.40625 0  0.03125 0.46875 0  0.09375 0.46875 0  0.15625 0.46875 0  0.21875 0.46875 0  0.28125 0.46875 0  0.34375 0.46875 0  0.40625 0.46875 0  0.46875 0.46875 0  0.53125 0.46875 0  0.59375 0.46875 0  0.65625 0.46875 0  0.71875 0.46875 0  0.78125 0.46875 0  0.84375 0.46875 0  0.90625 0.46875 0  0.96875 0.46875 0  0.03125 0.53125 0  0.09375 0.53125 0  0.15625 0.53125 0  0.21875 0.53125 0  0.28125 0.53125 0  0.34375 0.53125 0  0.40625 0.53125 0  0.46875 0.53125 0  0.53125 0.53125 0  0.59375 0.53125 0  0.65625 0.53125 0  0.71875 0.53125 0  0.78125 0.53125 0  0.84375 0.53125 0  0.90625 0.53125 0  0.96875 0.53125 0  0.03125 0.59375 0  0.09375 0.59375 0  0.15625 0.59375 0  0.21875 0.59375 0  0.28125 0.59375 0  0.34375 0.59375 0  0.40625 0.59375 0  0.46875 0.59375 0  0.53125 0.59375 0  0.59375 0.59375 0  0.65625 0.59375 0  0.71875 0.59375 0  0.78125 0.59375 0  0.84375 0.59375 0  0.90625 0.59375 0  0.96875 0.59375 0  0.03125 0.65625 0  0.09375 0.65625 0  0.15625 0.65625 0  0.21875 0.65625 0  0.28125 0.65625 0  0.34375 0.65625 0  0.40625 0.65625 0  0.46875 0.65625 0  0.53125 0.65625 0  0.59375 0.65625 0  0.65625 0.65625 0  0.71875 0.65625 0  0.78125 0.65625 0  0.84375 0.65625 0  0.90625 0.65625 0  0.96875 0.65625 0  0.03125 0.71875 0  0.09375 0.71875 0  0.15625 0.71875 0  0.21875 0.71875 0  0.28125 0.71875 0  0.34375 0.71875 0  0.40625 0.71875 0  0.46875 0.71875 0  0.53125 0.71875 0  0.59375 0.71875 0  0.65625 0.71875 0  0.71875 0.71875 0  0.78125 0.71875 0  0.84375 0.71875 0  0.90625 0.71875 0  0.96875 0.71875 0  0.03125 0.78125 0  0.09375 0.78125 0  0.15625 0.78125 0  0.21875 0.78125 0  0.28125 0.78125 0  0.34375 0.78125 0  0.40625 0.78125 0  0.46875 0.78125 0  0.53125 0.78125 0  0.59375 0.78125 0  0.65625 0.78125 0  0.71875 0.78125 0  0.78125 0.78125 0  0.84375 0.78125 0  0.90625 0.78125 0  0.96875 0.78125 0  0.03125 0.84375 0  0.09375 0.84375 0  0.15625 0.84375 0  0.21875 0.84375 0  0.28125 0.84375 0  0.34375 0.84375 0  0.40625 0.84375 0  0.46875 0.84375 0  0.53125 0.84375 0  0.59375 0.84375 0  0.65625 0.84375 0  0.71875 0.84375 0  0.78125 0.84375 0  0.84375 0.84375 0  0.90625 0.84375 0  0.96875 0.84375 0  0.03125 0.90625 0  0.09375 0.90625 0  0.15625 0.90625 0  0.21875 0.90625 0  0.28125 0.90625 0  0.34375 0.90625 0  0.40625 0.90625 0  0.46875 0.90625 0  0.53125 0.90625 0  0.59375 0.90625 0  0.65625 0.90625 0  0.71875 0.90625 0  0.78125 0.90625 0  0.84375 0.90625 0  0.90625 0.90625 0  0.96875 0.90625 0  0.03125 0.96875 0  0.09375 0.96875 0  0.15625 0.96875 0  0.21875 0.96875 0  0.28125 0.96875 0  0.34375 0.96875 0  0.40625 0.96875 0  0.46875 0.96875 0  0.53125 0.96875 0  0.59375 0.96875 0  0.65625 0.96875 0  0.71875 0.96875 0  0.78125 0.96875 0  0.84375 0.96875 0  0.90625 0.96875 0  0.96875 0.96875 0  </DataArray>
</Points>
<Cells>
[...]
<PointData  Vectors="f_8-0"> 
<DataArray  type="Float64"  Name="f_8-0"  NumberOfComponents="3" format="ascii">0.0000000000000000e+00 0.0000000000000000e+00 0.0000000000000000e+00  0.0000000000000000e+00 0.0000000000000000e+00 0.0000000000000000e+00  0.0000000000000000e+00 0.0000000000000000e+00 0.0000000000000000e+00  0.0000000000000000e+00 0.0000000000000000e+00 0.0000000000000000e+00  0.0000000000000000e+00 0.0000000000000000e+00 0.0000000000000000e+00  0.0000000000000000e+00 0.0000000000000000e+00 0.0000000000000000e+00  0.0000000000000000e+00 0.0000000000000000e+00 0.0000000000000000e+00  0.0000000000000000e+00 0.0000000000000000e+00 0.0000000000000000e+00  0.0000000000000000e+00 0.0000000000000000e+00 0.0000000000000000e+00  0.0000000000000000e+00 0.0000000000000000e+00 0.0000000000000000e+00  0.0000000000000000e+00 0.0000000000000000e+00 0.0000000000000000e+00  0.0000000000000000e+00 0.0000000000000000e+00 0.0000000000000000e+00  0.0000000000000000e+00 0.0000000000000000e+00 0.0000000000000000e+00  0.0000000000000000e+00 0.0000000000000000e+00 0.0000000000000000e+00  0.0000000000000000e+00 0.0000000000000000e+00 0.0000000000000000e+00  0.0000000000000000e+00 0.0000000000000000e+00 0.0000000000000000e+00  0.0000000000000000e+00 0.0000000000000000e+00 0.0000000000000000e+00  0.0000000000000000e+00 0.0000000000000000e+00 0.0000000000000000e+00  -7.7107606962241730e-04 7.7454648696425612e-04 0.0000000000000000e+00  -3.6848809273805189e-03 2.0691818568028108e-03 0.0000000000000000e+00  -8.4876515047082549e-03 2.9063660411116398e-03 0.0000000000000000e+00  -1.4228369143785221e-02 3.1458591533545370e-03 0.0000000000000000e+00  -1.9887042899722533e-02 2.8557257219974878e-03 0.0000000000000000e+00  -2.4601405235288410e-02 2.1561934181981023e-03 0.0000000000000000e+00  -2.7732990834640509e-02 1.1771029354397443e-03 0.0000000000000000e+00  -2.8882279112458532e-02 4.8055781079916748e-05 0.0000000000000000e+00  -2.7893394541266259e-02 -1.0989950494460330e-03 0.0000000000000000e+00  -2.4864274965275854e-02 -2.1238704423858319e-03 0.0000000000000000e+00  -2.0162757005742778e-02 -2.8758369491242168e-03 0.0000000000000000e+00  -1.4436515031130741e-02 -3.2006244971835504e-03 0.0000000000000000e+00  -8.5930445934317683e-03 -2.9627477380484231e-03 0.0000000000000000e+00  -3.7086685722002607e-03 -2.0981581838216946e-03 0.0000000000000000e+00  -7.6635862404819471e-04 -7.7232394753020675e-04 0.0000000000000000e+00  0.0000000000000000e+00 0.0000000000000000e+00 0.0000000000000000e+00  0.0000000000000000e+00 0.0000000000000000e+00 0.0000000000000000e+00  -2.1615523617213041e-03 3.7541723647459267e-03 0.0000000000000000e+00  -8.1319870975254602e-03 7.8649141978194888e-03 0.0000000000000000e+00  -1.6818972316648223e-02 1.0478486328166956e-02 0.0000000000000000e+00  -2.6733727506080888e-02 1.1166697985972800e-02 0.0000000000000000e+00  -3.6327290493313520e-02 1.0083576732835178e-02 0.0000000000000000e+00  -4.4255351679464414e-02 7.5973815657394018e-03 0.0000000000000000e+00  -4.9502763314942771e-02 4.1413413040205724e-03 0.0000000000000000e+00  -5.1428078853214799e-02 1.6433570265632548e-04 0.0000000000000000e+00  -4.9780891314441321e-02 -3.8714160178757568e-03 0.0000000000000000e+00  -4.4719406571488214e-02 -7.4777619093357927e-03 0.0000000000000000e+00  -3.6831502062522607e-02 -1.0138955574770868e-02 0.0000000000000000e+00  -2.7140242015697705e-02 -1.1343599493769783e-02 0.0000000000000000e+00  -1.7055159611823013e-02 -1.0672554890351195e-02 0.0000000000000000e+00  -8.2145374793756460e-03 -7.9799154922269109e-03 0.0000000000000000e+00  -2.1691819906697629e-03 -3.7678429208837837e-03 0.0000000000000000e+00  0.0000000000000000e+00 0.0000000000000000e+00 0.0000000000000000e+00  0.0000000000000000e+00 0.0000000000000000e+00 0.0000000000000000e+00  -3.4468883848269272e-03 9.1292146255026359e-03 0.0000000000000000e+00  -1.2351687341027741e-02 1.7121557997861782e-02 0.0000000000000000e+00  -2.4618259098944738e-02 2.1903479771564868e-02 0.0000000000000000e+00  -3.8146442271286454e-02 2.2941254859556785e-02 0.0000000000000000e+00  -5.0974915252725683e-02 2.0548468530677117e-02 0.0000000000000000e+00  -6.1457976921818973e-02 1.5422830406141610e-02 0.0000000000000000e+00  -6.8366435968107986e-02 8.3995855429640654e-03 0.0000000000000000e+00  -7.0923731096123627e-02 3.5356932863201253e-04 0.0000000000000000e+00  -6.8818922471306498e-02 -7.8116521922087668e-03 0.0000000000000000e+00  -6.2226370763700613e-02 -1.5142840564006421e-02 0.0000000000000000e+00  -5.1836977708501396e-02 -2.0635718310453272e-02 0.0000000000000000e+00  -3.8878805195975419e-02 -2.3299567118506202e-02 0.0000000000000000e+00  -2.5082786432298255e-02 -2.2327248490767063e-02 0.0000000000000000e+00  -1.2544875752526365e-02 -1.7405252498218435e-02 0.0000000000000000e+00  -3.4798443684052019e-03 -9.1989180986337717e-03 0.0000000000000000e+00  0.0000000000000000e+00 0.0000000000000000e+00 0.0000000000000000e+00  0.0000000000000000e+00 0.0000000000000000e+00 0.0000000000000000e+00  -4.6404263100446293e-03 1.6758956149566323e-02 0.0000000000000000e+00  -1.6386382919699256e-02 2.9714653633657793e-02 0.0000000000000000e+00  -3.2145632133186414e-02 3.6930509219465342e-02 0.0000000000000000e+00  -4.9122346010966648e-02 3.8070233487739358e-02 0.0000000000000000e+00  -6.4937125600653262e-02 3.3795127219438684e-02 0.0000000000000000e+00  -7.7714984878342719e-02 2.5251902677989668e-02 0.0000000000000000e+00  -8.6107918025992838e-02 1.3756790540759654e-02 0.0000000000000000e+00  -8.9274759191840594e-02 6.6428134784672990e-04 0.0000000000000000e+00  -8.6861572371034673e-02 -1.2637415653235073e-02 0.0000000000000000e+00  -7.9015224753087310e-02 -2.4679547656523682e-02 0.0000000000000000e+00  -6.6437079088310994e-02 -3.3894246386201816e-02 0.0000000000000000e+00  -5.0452919710074762e-02 -3.8698757195110622e-02 0.0000000000000000e+00  -3.3047874432683276e-02 -3.7739787671123723e-02 0.0000000000000000e+00  -1.6806569109520508e-02 -3.0320203828737641e-02 0.0000000000000000e+00  -4.7321759606917231e-03 -1.6968989239231812e-02 0.0000000000000000e+00  0.0000000000000000e+00 0.0000000000000000e+00 0.0000000000000000e+00  0.0000000000000000e+00 0.0000000000000000e+00 0.0000000000000000e+00  -5.8518768729012554e-03 2.6597979996549528e-02 0.0000000000000000e+00  -2.0481170226153089e-02 4.5631068933986677e-02 0.0000000000000000e+00  -3.9748489952975467e-02 5.5506580611478680e-02 0.0000000000000000e+00  -6.0103375044090857e-02 5.6410631862519878e-02 0.0000000000000000e+00  -7.8747374708651577e-02 4.9621817495530400e-02 0.0000000000000000e+00  -9.3638811947537051e-02 3.6906317207454076e-02 0.0000000000000000e+00  -1.0339827291910869e-01 2.0140947408261143e-02 0.0000000000000000e+00  -1.0718736465829053e-01 1.1748582210631903e-03 0.0000000000000000e+00  -1.0462544719715348e-01 -1.8134534901313653e-02 0.0000000000000000e+00  -9.5786167170604300e-02 -3.5810019423477300e-02 0.0000000000000000e+00  -8.1285652878137479e-02 -4.9678201831883428e-02 0.0000000000000000e+00  -6.2438574494142828e-02 -5.7437414028439548e-02 0.0000000000000000e+00  -4.1418244786706845e-02 -5.6956709181880401e-02 0.0000000000000000e+00  -2.1324516887182544e-02 -4.6832504916768457e-02 0.0000000000000000e+00  -6.0640338102886104e-03 -2.7119472535728537e-02 0.0000000000000000e+00  0.0000000000000000e+00 0.0000000000000000e+00 0.0000000000000000e+00  0.0000000000000000e+00 0.0000000000000000e+00 0.0000000000000000e+00  -7.1619493675525205e-03 3.8743856894015070e-02 0.0000000000000000e+00  -2.4801346005342177e-02 6.4939078414295290e-02 0.0000000000000000e+00  -4.7563992345806751e-02 7.7583281396562676e-02 0.0000000000000000e+00  -7.1091439883728305e-02 7.7778859960345351e-02 0.0000000000000000e+00  -9.2219254964336417e-02 6.7770603352428627e-02 0.0000000000000000e+00  -1.0886005639288607e-01 5.0159159326127176e-02 0.0000000000000000e+00  -1.1973719020598318e-01 2.7456661665624642e-02 0.0000000000000000e+00  -1.2411413074961031e-01 1.9769096701053920e-03 0.0000000000000000e+00  -1.2161551118290682e-01 -2.4036501113739759e-02 0.0000000000000000e+00  -1.1219209992643295e-01 -4.8174834850575894e-02 0.0000000000000000e+00  -9.6249314165204075e-02 -6.7665150419219125e-02 0.0000000000000000e+00  -7.4922805190033387e-02 -7.9358650051475049e-02 0.0000000000000000e+00  -5.0428579667126543e-02 -8.0046744556738131e-02 0.0000000000000000e+00  -2.6339771179014707e-02 -6.7177177633844454e-02 0.0000000000000000e+00  -7.5855823682674274e-03 -3.9882976997559605e-02 0.0000000000000000e+00  0.0000000000000000e+00 0.0000000000000000e+00 0.0000000000000000e+00  0.0000000000000000e+00 0.0000000000000000e+00 0.0000000000000000e+00  -8.6053996679286149e-03 5.3369677596648749e-02 0.0000000000000000e+00  -2.9345226544479502e-02 8.7667858347775338e-02 0.0000000000000000e+00  -5.5361167150902654e-02 1.0290942103421186e-01 0.0000000000000000e+00  -8.1451035458092680e-02 1.0167871078265497e-01 0.0000000000000000e+00  -1.0423716764176980e-01 8.7648547461035259e-02 0.0000000000000000e+00  -1.2181905694189067e-01 6.4505210166345930e-02 0.0000000000000000e+00  -1.3324422463794658e-01 3.5443851878081585e-02 0.0000000000000000e+00  -1.3803428986535668e-01 3.1456529738028917e-03 0.0000000000000000e+00  -1.3588224842247193e-01 -2.9932672783274234e-02 0.0000000000000000e+00  -1.2656873548752412e-01 -6.1127232902246240e-02 0.0000000000000000e+00  -1.1012275240691631e-01 -8.7160251662566551e-02 0.0000000000000000e+00  -8.7235044526532482e-02 -1.0394949140206003e-01 0.0000000000000000e+00  -5.9871287668938740e-02 -1.0685758209598563e-01 0.0000000000000000e+00  -3.1897113862330594e-02 -9.1572921776526470e-02 0.0000000000000000e+00  -9.3564474948089234e-03 -5.5610054201918620e-02 0.0000000000000000e+00  0.0000000000000000e+00 0.0000000000000000e+00 0.0000000000000000e+00  0.0000000000000000e+00 0.0000000000000000e+00 0.0000000000000000e+00  -1.0175545894098354e-02 7.0633541971847791e-02 0.0000000000000000e+00  -3.3905516200705928e-02 1.1361159151994857e-01 0.0000000000000000e+00  -6.2410215758136489e-02 1.3074423069681082e-01 0.0000000000000000e+00  -8.9688928399455581e-02 1.2697719609875135e-01 0.0000000000000000e+00  -1.1248354466152476e-01 1.0802732726788351e-01 0.0000000000000000e+00  -1.2947623721816809e-01 7.8925839333949130e-02 0.0000000000000000e+00  -1.4036535812371506e-01 4.3528930165296180e-02 0.0000000000000000e+00  -1.4514687872580276e-01 4.6896187415069734e-03 0.0000000000000000e+00  -1.4368350488669229e-01 -3.5207363619123709e-02 0.0000000000000000e+00  -1.3556019954404044e-01 -7.3550068805636762e-02 0.0000000000000000e+00  -1.2024491231615560e-01 -1.0679763081665744e-01 0.0000000000000000e+00  -9.7614198276589945e-02 -1.2997141185214287e-01 0.0000000000000000e+00  -6.8879488035625075e-02 -1.3666154168832784e-01 0.0000000000000000e+00  -3.7761267131289619e-02 -1.1997069336804239e-01 0.0000000000000000e+00  -1.1378715828840071e-02 -7.4655345138862642e-02 0.0000000000000000e+00  0.0000000000000000e+00 0.0000000000000000e+00 0.0000000000000000e+00  0.0000000000000000e+00 0.0000000000000000e+00 0.0000000000000000e+00  -1.1831703159853543e-02 9.0576834148872534e-02 0.0000000000000000e+00  -3.8004538460283878e-02 1.4204079751672016e-01 0.0000000000000000e+00  -6.7267994693862451e-02 1.5944559528656099e-01 0.0000000000000000e+00  -9.3115558637638082e-02 1.5149752209377565e-01 0.0000000000000000e+00  -1.1305994296885849e-01 1.2672097775001112e-01 0.0000000000000000e+00  -1.2696071280422841e-01 9.1667274556746989e-02 0.0000000000000000e+00  -1.3556484913781613e-01 5.0685906034842999e-02 0.0000000000000000e+00  -1.3957405373050522e-01 6.4802587661590147e-03 0.0000000000000000e+00  -1.3914499821161025e-01 -3.9030461141870816e-02 0.0000000000000000e+00  -1.3369575876016171e-01 -8.3726778738198906e-02 0.0000000000000000e+00  -1.2200340576847785e-01 -1.2424619463396595e-01 0.0000000000000000e+00  -1.0272673947103619e-01 -1.5500292472683530e-01 0.0000000000000000e+00  -7.5583793832240023e-02 -1.6763694952973116e-01 0.0000000000000000e+00  -4.3275794363815900e-02 -1.5165886053569416e-01 0.0000000000000000e+00  -1.3582512493424657e-02 -9.7220049286555976e-02 0.0000000000000000e+00  0.0000000000000000e+00 0.0000000000000000e+00 0.0000000000000000e+00  0.0000000000000000e+00 0.0000000000000000e+00 0.0000000000000000e+00  -1.3490488508626795e-02 1.1298776068584045e-01 0.0000000000000000e+00  -4.0677213951461288e-02 1.7121257228969133e-01 0.0000000000000000e+00  -6.7272747425421234e-02 1.8586454590076509e-01 0.0000000000000000e+00  -8.7202797487590397e-02 1.7154619168639451e-01 0.0000000000000000e+00  -9.9913600156812499e-02 1.4032374098110315e-01 0.0000000000000000e+00  -1.0717304818253728e-01 1.0012701694910441e-01 0.0000000000000000e+00  -1.1109759787958283e-01 5.5376538226893444e-02 0.0000000000000000e+00  -1.1321548524455946e-01 8.1820583467778728e-03 0.0000000000000000e+00  -1.1406770164494805e-01 -4.0439436755969220e-02 0.0000000000000000e+00  -1.1302295522238348e-01 -8.9362265912181257e-02 0.0000000000000000e+00  -1.0823259525600522e-01 -1.3603480810766752e-01 0.0000000000000000e+00  -9.6912665801710915e-02 -1.7495213805445584e-01 0.0000000000000000e+00  -7.6453278320571208e-02 -1.9613306170966169e-01 0.0000000000000000e+00  -4.7030340814052572e-02 -1.8459813757416244e-01 0.0000000000000000e+00  -1.5779656170267508e-02 -1.2310644632088372e-01 0.0000000000000000e+00  0.0000000000000000e+00 0.0000000000000000e+00 0.0000000000000000e+00  0.0000000000000000e+00 0.0000000000000000e+00 0.0000000000000000e+00  -1.4909872737253398e-02 1.3701461666472411e-01 0.0000000000000000e+00  -3.9732549555839075e-02 1.9742334476478363e-01 0.0000000000000000e+00  -5.7242277681803150e-02 2.0445034426037173e-01 0.0000000000000000e+00  -6.4300771095694945e-02 1.8153033745973007e-01 0.0000000000000000e+00  -6.3958120556380310e-02 1.4424545635376324e-01 0.0000000000000000e+00  -6.0400157012601874e-02 1.0105635732498897e-01 0.0000000000000000e+00  -5.7016431537285570e-02 5.5707885137953765e-02 0.0000000000000000e+00  -5.5962442174662931e-02 9.2387117474387014e-03 0.0000000000000000e+00  -5.8118075146766812e-02 -3.8557534908628822e-02 0.0000000000000000e+00  -6.3012636899948196e-02 -8.7920998616740756e-02 0.0000000000000000e+00  -6.8596423500768500e-02 -1.3777094682289476e-01 0.0000000000000000e+00  -7.1002798646526075e-02 -1.8379349377915824e-01 0.0000000000000000e+00  -6.4902554013203786e-02 -2.1570342859215355e-01 0.0000000000000000e+00  -4.5975227909218798e-02 -2.1424481845084148e-01 0.0000000000000000e+00  -1.7483820963017656e-02 -1.5112746305503436e-01 0.0000000000000000e+00  0.0000000000000000e+00 0.0000000000000000e+00 0.0000000000000000e+00  0.0000000000000000e+00 0.0000000000000000e+00 0.0000000000000000e+00  -1.5087507063311554e-02 1.6023461748511650e-01 0.0000000000000000e+00  -2.9116400260005386e-02 2.1275613535392596e-01 0.0000000000000000e+00  -2.6307633657679016e-02 2.0627071560339733e-01 0.0000000000000000e+00  -1.1280704873233157e-02 1.7423816834480327e-01 0.0000000000000000e+00  8.0597688544526858e-03 1.3354508328123507e-01 0.0000000000000000e+00  2.5824367139219984e-02 9.1404667399628464e-02 0.0000000000000000e+00  3.8314836935839265e-02 4.9994059208635852e-02 0.0000000000000000e+00  4.3444414408800834e-02 9.0074847687514441e-03 0.0000000000000000e+00  4.0269189414520089e-02 -3.2957704946152702e-02 0.0000000000000000e+00  2.8869902529064680e-02 -7.7469936437369311e-02 0.0000000000000000e+00  1.0689034172594383e-02 -1.2522415756947872e-01 0.0000000000000000e+00  -1.0663601573697003e-02 -1.7423831159962039e-01 0.0000000000000000e+00  -2.8404894428173497e-02 -2.1635544917105623e-01 0.0000000000000000e+00  -3.2667149210194958e-02 -2.3109670389508080e-01 0.0000000000000000e+00  -1.7203720282088938e-02 -1.7789276457927988e-01 0.0000000000000000e+00  0.0000000000000000e+00 0.0000000000000000e+00 0.0000000000000000e+00  0.0000000000000000e+00 0.0000000000000000e+00 0.0000000000000000e+00  -8.1673029146420006e-03 1.7224001250253398e-01 0.0000000000000000e+00  9.2847308478650539e-03 2.0138202795993473e-01 0.0000000000000000e+00  4.8925511096011398e-02 1.7971033834973171e-01 0.0000000000000000e+00  9.3642547760004344e-02 1.4321357351934311e-01 0.0000000000000000e+00  1.3421366270593285e-01 1.0530458665048915e-01 0.0000000000000000e+00  1.6598753994291213e-01 7.0097280568909223e-02 0.0000000000000000e+00  1.8678643457469302e-01 3.7832605661110866e-02 0.0000000000000000e+00  1.9563443777295056e-01 7.1205172146327766e-03 0.0000000000000000e+00  1.9197615081036512e-01 -2.4087938971787487e-02 0.0000000000000000e+00  1.7541113059843269e-01 -5.8048471114391126e-02 0.0000000000000000e+00  1.4594580698996551e-01 -9.6744878866783998e-02 0.0000000000000000e+00  1.0493812884916998e-01 -1.4073289636272818e-01 0.0000000000000000e+00  5.6922687143143059e-02 -1.8615407752761354e-01 0.0000000000000000e+00  1.2498855178662957e-02 -2.1741230249341320e-01 0.0000000000000000e+00  -8.1322635919660827e-03 -1.9075926149724115e-01 0.0000000000000000e+00  0.0000000000000000e+00 0.0000000000000000e+00 0.0000000000000000e+00  0.0000000000000000e+00 0.0000000000000000e+00 0.0000000000000000e+00  4.0451899901661384e-02 1.3669364410326676e-01 0.0000000000000000e+00  1.3085548851790113e-01 1.4195091771930340e-01 0.0000000000000000e+00  2.1276644820806170e-01 1.1824411959208983e-01 0.0000000000000000e+00  2.8148040135267116e-01 8.9249750503250569e-02 0.0000000000000000e+00  3.3524239916713999e-01 6.2831480859360370e-02 0.0000000000000000e+00  3.7366965615761744e-01 4.0537755292792639e-02 0.0000000000000000e+00  3.9756220096176792e-01 2.1447573434497883e-02 0.0000000000000000e+00  4.0767387200610783e-01 3.9952621340499476e-03 0.0000000000000000e+00  4.0415254273191586e-01 -1.3569539147411293e-02 0.0000000000000000e+00  3.8629222009644532e-01 -3.3131826061175727e-02 0.0000000000000000e+00  3.5257193681220872e-01 -5.6696629786391894e-02 0.0000000000000000e+00  3.0109586248121173e-01 -8.5980238793522540e-02 0.0000000000000000e+00  2.3097371004991893e-01 -1.2041028725800368e-01 0.0000000000000000e+00  1.4371881744134429e-01 -1.5171830631380995e-01 0.0000000000000000e+00  4.5509445625596258e-02 -1.5035920454433460e-01 0.0000000000000000e+00  0.0000000000000000e+00 0.0000000000000000e+00 0.0000000000000000e+00  0.0000000000000000e+00 0.0000000000000000e+00 0.0000000000000000e+00  3.4989883799372218e-01 4.3919098768949501e-03 0.0000000000000000e+00  4.4406750773745818e-01 4.4879875921227851e-02 0.0000000000000000e+00  5.2085011298378325e-01 4.0680366903044447e-02 0.0000000000000000e+00  5.8191880912489347e-01 2.9506791115959316e-02 0.0000000000000000e+00  6.2547814825203740e-01 1.9898876176153997e-02 0.0000000000000000e+00  6.5455887423727765e-01 1.2408361443955931e-02 0.0000000000000000e+00  6.7176564339805511e-01 6.3805075341611195e-03 0.0000000000000000e+00  6.7877430757030321e-01 1.0720175005436991e-03 0.0000000000000000e+00  6.7613832133998242e-01 -4.2224605091641318e-03 0.0000000000000000e+00  6.6325268700193951e-01 -1.0242757261357207e-02 0.0000000000000000e+00  6.3823375947518401e-01 -1.7858541390581260e-02 0.0000000000000000e+00  5.9786120668525966e-01 -2.8023405436831527e-02 0.0000000000000000e+00  5.3789770828564709e-01 -4.0785879222511791e-02 0.0000000000000000e+00  4.5782360964295216e-01 -4.8490623253157415e-02 0.0000000000000000e+00  3.5721483378034968e-01 -1.1896814013572165e-02 0.0000000000000000e+00  0.0000000000000000e+00 0.0000000000000000e+00 0.0000000000000000e+00  1.0000000000000000e+00 0.0000000000000000e+00 0.0000000000000000e+00  1.0000000000000000e+00 0.0000000000000000e+00 0.0000000000000000e+00  1.0000000000000000e+00 0.0000000000000000e+00 0.0000000000000000e+00  1.0000000000000000e+00 0.0000000000000000e+00 0.0000000000000000e+00  1.0000000000000000e+00 0.0000000000000000e+00 0.0000000000000000e+00  9.9999999999999989e-01 0.0000000000000000e+00 0.0000000000000000e+00  1.0000000000000000e+00 0.0000000000000000e+00 0.0000000000000000e+00  1.0000000000000000e+00 0.0000000000000000e+00 0.0000000000000000e+00  9.99999999