<?xml version="1.0"?>
<VTKFile type="UnstructuredGrid"  version="0.1"  >
<UnstructuredGrid>
<Piece  NumberOfPoints="545" NumberOfCells="1024">
<Points>
<DataArray  type="Float64"  NumberOfComponents="3"  format="ascii">0 0 0  0.0625 0 0  0.125 0 0  0.1875 0 0  0.25 0 0  0.3125 0 0  0.375 0 0  0.4375 0 0  0.5 0 0  0.5625 0 0  0.625 0 0  0.6875 0 0  0.75 0 0  0.8125 0 0  0.875 0 0  0.9375 0 0  1 0 0  0 0.0625 0  0.0625 0.0625 0  0.125 0.0625 0  0.1875 0.0625 0  0.25 0.0625 0  0.3125 0.0625 0  0.375 0.0625 0  0.4375 0.0625 0  0.5 0.0625 0  0.5625 0.0625 0  0.625 0.0625 0  0.6875 0.0625 0  0.75 0.0625 0  0.8125 0.0625 0  0.875 0.0625 0  0.9375 0.0625 0  1 0.0625 0  0 0.125 0  0.0625 0.125 0  0.125 0.125 0  0.1875 0.125 0  0.25 0.125 0  0.3125 0.125 0  0.375 0.125 0  0.4375 0.125 0  0.5 0.125 0  0.5625 0.125 0  0.625 0.125 0  0.6875 0.125 0  0.75 0.125 0  0.8125 0.125 0  0.875 0.125 0  0.9375 0.125 0  1 0.125 0  0 0.1875 0  0.0625 0.1875 0  0.125 0.1875 0  0.1875 0.1875 0  0.25 0.1875 0  0.3125 0.1875 0  0.375 0.1875 0  0.4375 0.1875 0  0.5 0.1875 0  0.5625 0.1875 0  0.625 0.1875 0  0.6875 0.1875 0  0.75 0.1875 0  0.8125 0.1875 0  0.875 0.1875 0  0.9375 0.1875 0  1 0.1875 0  0 0.25 0  0.0625 0.25 0  0.125 0.25 0  0.1875 0.25 0  0.25 0.25 0  0.3125 0.25 0  0.375 0.25 0  0.4375 0.25 0  0.5 0.25 0  0.5625 0.25 0  0.625 0.25 0  0.6875 0.25 0  0.75 0.25 0  0.8125 0.25 0  0.875 0.25 0  0.9375 0.25 0  1 0.25 0  0 0.3125 0  0.0625 0.3125 0  0.125 0.3125 0  0.1875 0.3125 0  0.25 0.3125 0  0.3125 0.3125 0  0.375 0.3125 0  0.4375 0.3125 0  0.5 0.3125 0  0.5625 0.3125 0  0.625 0.3125 0  0.6875 0.3125 0  0.75 0.3125 0  0.8125 0.3125 0  0.875 0.3125 0  0.9375 0.3125 0  1 0.3125 0  0 0.375 0  0.0625 0.375 0  0.125 0.375 0  0.1875 0.375 0  0.25 0.375 0  0.3125 0.375 0  0.375 0.375 0  0.4375 0.375 0  0.5 0.375 0  0.5625 0.375 0  0.625 0.375 0  0.6875 0.375 0  0.75 0.375 0  0.8125 0.375 0  0.875 0.375 0  0.9375 0.375 0  1 0.375 0  0 0.4375 0  0.0625 0.4375 0  0.125 0.4375 0  0.1875 0.4375 0  0.25 0.4375 0  0.3125 0.4375 0  0.375 0.4375 0  0.4375 0.4375 0  0.5 0.4375 0  0.5625 0.4375 0  0.625 0.4375 0  0.6875 0.4375 0  0.75 0.4375 0  0.8125 0.4375 0  0.875 0.4375 0  0.9375 0.4375 0  1 0.4375 0  0 0.5 0  0.0625 0.5 0  0.125 0.5 0  0.1875 0.5 0  0.25 0.5 0  0.3125 0.5 0  0.375 0.5 0  0.4375 0.5 0  0.5 0.5 0  0.5625 0.5 0  0.625 0.5 0  0.6875 0.5 0  0.75 0.5 0  0.8125 0.5 0  0.875 0.5 0  0.9375 0.5 0  1 0.5 0  0 0.5625 0  0.0625 0.5625 0  0.125 0.5625 0  0.1875 0.5625 0  0.25 0.5625 0  0.3125 0.5625 0  0.375 0.5625 0  0.4375 0.5625 0  0.5 0.5625 0  0.5625 0.5625 0  0.625 0.5625 0  0.6875 0.5625 0  0.75 0.5625 0  0.8125 0.5625 0  0.875 0.5625 0  0.9375 0.5625 0  1 0.5625 0  0 0.625 0  0.0625 0.625 0  0.125 0.625 0  0.1875 0.625 0  0.25 0.625 0  0.3125 0.625 0  0.375 0.625 0  0.4375 0.625 0  0.5 0.625 0  0.5625 0.625 0  0.625 0.625 0  0.6875 0.625 0  0.75 0.625 0  0.8125 0.625 0  0.875 0.625 0  0.9375 0.625 0  1 0.625 0  0 0.6875 0  0.0625 0.6875 0  0.125 0.6875 0  0.1875 0.6875 0  0.25 0.6875 0  0.3125 0.6875 0  0.375 0.6875 0  0.4375 0.6875 0  0.5 0.6875 0  0.5625 0.6875 0  0.625 0.6875 0  0.6875 0.6875 0  0.75 0.6875 0  0.8125 0.6875 0  0.875 0.6875 0  0.9375 0.6875 0  1 0.6875 0  0 0.75 0  0.0625 0.75 0  0.125 0.75 0  0.1875 0.75 0  0.25 0.75 0  0.3125 0.75 0  0.375 0.75 0  0.4375 0.75 0  0.5 0.75 0  0.5625 0.75 0  0.625 0.75 0  0.6875 0.75 0  0.75 0.75 0  0.8125 0.75 0  0.875 0.75 0  0.9375 0.75 0  1 0.75 0  0 0.8125 0  0.0625 0.8125 0  0.125 0.8125 0  0.1875 0.8125 0  0.25 0.8125 0  0.3125 0.8125 0  0.375 0.8125 0  0.4375 0.8125 0  0.5 0.8125 0  0.5625 0.8125 0  0.625 0.8125 0  0.6875 0.8125 0  0.75 0.8125 0  0.8125 0.8125 0  0.875 0.8125 0  0.9375 0.8125 0  1 0.8125 0  0 0.875 0  0.0625 0.875 0  0.125 0.875 0  0.1875 0.875 0  0.25 0.875 0  0.3125 0.875 0  0.375 0.875 0  0.4375 0.875 0  0.5 0.875 0  0.5625 0.875 0  0.625 0.875 0  0.6875 0.875 0  0.75 0.875 0  0.8125 0.875 0  0.875 0.875 0  0.9375 0.875 0  1 0.875 0  0 0.9375 0  0.0625 0.9375 0  0.125 0.9375 0  0.1875 0.9375 0  0.25 0.9375 0  0.3125 0.9375 0  0.375 0.9375 0  0.4375 0.9375 0  0.5 0.9375 0  0.5625 0.9375 0  0.625 0.9375 0  0.6875 0.9375 0  0.75 0.9375 0  0.8125 0.9375 0  0.875 0.9375 0  0.9375 0.9375 0  1 0.9375 0  0 1 0  0.0625 1 0  0.125 1 0  0.1875 1 0  0.25 1 0  0.3125 1 0  0.375 1 0  0.4375 1 0  0.5 1 0  0.5625 1 0  0.625 1 0  0.6875 1 0  0.75 1 0  0.8125 1 0  0.875 1 0  0.9375 1 0  1 1 0  0.03125 0.03125 0  0.09375 0.03125 0  0.15625 0.03125 0  0.21875 0.03125 0  0.28125 0.03125 0  0.34375 0.03125 0  0.40625 0.03125 0  0.46875 0.03125 0  0.53125 0.03125 0  0.59375 0.03125 0  0.65625 0.03125 0  0.71875 0.03125 0  0.78125 0.03125 0  0.84375 0.03125 0  0.90625 0.03125 0  0.96875 0.03125 0  0.03125 0.09375 0  0.09375 0.09375 0  0.15625 0.09375 0  0.21875 0.09375 0  0.28125 0.09375 0  0.34375 0.09375 0  0.40625 0.09375 0  0.46875 0.09375 0  0.53125 0.09375 0  0.59375 0.09375 0  0.65625 0.09375 0  0.71875 0.09375 0  0.78125 0.09375 0  0.84375 0.09375 0  0.90625 0.09375 0  0.96875 0.09375 0  0.03125 0.15625 0  0.09375 0.15625 0  0.15625 0.15625 0  0.21875 0.15625 0  0.28125 0.15625 0  0.34375 0.15625 0  0.40625 0.15625 0  0.46875 0.15625 0  0.53125 0.15625 0  0.59375 0.15625 0  0.65625 0.15625 0  0.71875 0.15625 0  0.78125 0.15625 0  0.84375 0.15625 0  0.90625 0.15625 0  0.96875 0.15625 0  0.03125 0.21875 0  0.09375 0.21875 0  0.15625 0.21875 0  0.21875 0.21875 0  0.28125 0.21875 0  0.34375 0.21875 0  0.40625 0.21875 0  0.46875 0.21875 0  0.53125 0.21875 0  0.59375 0.21875 0  0.65625 0.21875 0  0.71875 0.21875 0  0.78125 0.21875 0  0.84375 0.21875 0  0.90625 0.21875 0  0.96875 0.21875 0  0.03125 0.28125 0  0.09375 0.28125 0  0.15625 0.28125 0  0.21875 0.28125 0  0.28125 0.28125 0  0.34375 0.28125 0  0.40625 0.28125 0  0.46875 0.28125 0  0.53125 0.28125 0  0.59375 0.28125 0  0.65625 0.28125 0  0.71875 0.28125 0  0.78125 0.28125 0  0.84375 0.28125 0  0.90625 0.28125 0  0.96875 0.28125 0  0.03125 0.34375 0  0.09375 0.34375 0  0.15625 0.34375 0  0.21875 0.34375 0  0.28125 0.34375 0  0.34375 0.34375 0  0.40625 0.34375 0  0.46875 0.34375 0  0.53125 0.34375 0  0.59375 0.34375 0  0.65625 0.34375 0  0.71875 0.34375 0  0.78125 0.34375 0  0.84375 0.34375 0  0.90625 0.34375 0  0.96875 0.34375 0  0.03125 0.40625 0  0.09375 0.40625 0  0.15625 0.40625 0  0.21875 0.40625 0  0.28125 0.40625 0  0.34375 0.40625 0  0.40625 0.40625 0  0.46875 0.40625 0  0.53125 0.40625 0  0.59375 0.40625 0  0.65625 0.40625 0  0.71875 0.40625 0  0.78125 0.40625 0  0.84375 0.40625 0  0.90625 0.40625 0  0.96875 0.40625 0  0.03125 0.46875 0  0.09375 0.46875 0  0.15625 0.46875 0  0.21875 0.46875 0  0.28125 0.46875 0  0.34375 0.46875 0  0.40625 0.46875 0  0.46875 0.46875 0  0.53125 0.46875 0  0.59375 0.46875 0  0.65625 0.46875 0  0.71875 0.46875 0  0.78125 0.46875 0  0.84375 0.46875 0  0.90625 0.46875 0  0.96875 0.46875 0  0.03125 0.53125 0  0.09375 0.53125 0  0.15625 0.53125 0  0.21875 0.53125 0  0.28125 0.53125 0  0.34375 0.53125 0  0.40625 0.53125 0  0.46875 0.53125 0  0.53125 0.53125 0  0.59375 0.53125 0  0.65625 0.53125 0  0.71875 0.53125 0  0.78125 0.53125 0  0.84375 0.53125 0  0.90625 0.53125 0  0.96875 0.53125 0  0.03125 0.59375 0  0.09375 0.59375 0  0.15625 0.59375 0  0.21875 0.59375 0  0.28125 0.59375 0  0.34375 0.59375 0  0.40625 0.59375 0  0.46875 0.59375 0  0.53125 0.59375 0  0.59375 0.59375 0  0.65625 0.59375 0  0.71875 0.59375 0  0.78125 0.59375 0  0.84375 0.59375 0  0.90625 0.59375 0  0.96875 0.59375 0  0.03125 0.65625 0  0.09375 0.65625 0  0.15625 0.65625 0  0.21875 0.65625 0  0.28125 0.65625 0  0.34375 0.65625 0  0.40625 0.65625 0  0.46875 0.65625 0  0.53125 0.65625 0  0.59375 0.65625 0  0.65625 0.65625 0  0.71875 0.65625 0  0.78125 0.65625 0  0.84375 0.65625 0  0.90625 0.65625 0  0.96875 0.65625 0  0.03125 0.71875 0  0.09375 0.71875 0  0.15625 0.71875 0  0.21875 0.71875 0  0.28125 0.71875 0  0.34375 0.71875 0  0.40625 0.71875 0  0.46875 0.71875 0  0.53125 0.71875 0  0.59375 0.71875 0  0.65625 0.71875 0  0.71875 0.71875 0  0.78125 0.71875 0  0.84375 0.71875 0  0.90625 0.71875 0  0.96875 0.71875 0  0.03125 0.78125 0  0.09375 0.78125 0  0.15625 0.78125 0  0.21875 0.78125 0  0.28125 0.78125 0  0.34375 0.78125 0  0.40625 0.78125 0  0.46875 0.78125 0  0.53125 0.78125 0  0.59375 0.78125 0  0.65625 0.78125 0  0.71875 0.78125 0  0.78125 0.78125 0  0.84375 0.78125 0  0.90625 0.78125 0  0.96875 0.78125 0  0.03125 0.84375 0  0.09375 0.84375 0  0.15625 0.84375 0  0.21875 0.84375 0  0.28125 0.84375 0  0.34375 0.84375 0  0.40625 0.84375 0  0.46875 0.84375 0  0.53125 0.84375 0  0.59375 0.84375 0  0.65625 0.84375 0  0.71875 0.84375 0  0.78125 0.84375 0  0.84375 0.84375 0  0.90625 0.84375 0  0.96875 0.84375 0  0.03125 0.90625 0  0.09375 0.90625 0  0.15625 0.90625 0  0.21875 0.90625 0  0.28125 0.90625 0  0.34375 0.90625 0  0.40625 0.90625 0  0.46875 0.90625 0  0.53125 0.90625 0  0.59375 0.90625 0  0.65625 0.90625 0  0.71875 0.90625 0  0.78125 0.90625 0  0.84375 0.90625 0  0.90625 0.90625 0  0.96875 0.90625 0  0.03125 0.96875 0  0.09375 0.96875 0  0.15625 0.96875 0  0.21875 0.96875 0  0.28125 0.96875 0  0.34375 0.96875 0  0.40625 0.96875 0  0.46875 0.96875 0  0.53125 0.96875 0  0.59375 0.96875 0  0.65625 0.96875 0  0.71875 0.96875 0  0.78125 0.96875 0  0.84375 0.96875 0  0.90625 0.96875 0  0.96875 0.96875 0  </DataArray>
</Points>
<Cells>
[...]
<PointData  Vectors="f_8-0"> 
<DataArray  type="Float64"  Name="f_8-0"  NumberOfComponents="3" format="ascii">0.0000000000000000e+00 0.0000000000000000e+00 0.0000000000000000e+00  0.0000000000000000e+00 0.0000000000000000e+00 0.0000000000000000e+00  0.0000000000000000e+00 0.0000000000000000e+00 0.0000000000000000e+00  0.0000000000000000e+00 0.0000000000000000e+00 0.0000000000000000e+00  0.0000000000000000e+00 0.0000000000000000e+00 0.0000000000000000e+00  0.0000000000000000e+00 0.0000000000000000e+00 0.0000000000000000e+00  0.0000000000000000e+00 0.0000000000000000e+00 0.0000000000000000e+00  0.0000000000000000e+00 0.0000000000000000e+00 0.0000000000000000e+00  0.0000000000000000e+00 0.0000000000000000e+00 0.0000000000000000e+00  0.0000000000000000e+00 0.0000000000000000e+00 0.0000000000000000e+00  0.0000000000000000e+00 0.0000000000000000e+00 0.0000000000000000e+00  0.0000000000000000e+00 0.0000000000000000e+00 0.0000000000000000e+00  0.0000000000000000e+00 0.0000000000000000e+00 0.0000000000000000e+00  0.0000000000000000e+00 0.0000000000000000e+00 0.0000000000000000e+00  0.0000000000000000e+00 0.0000000000000000e+00 0.0000000000000000e+00  0.0000000000000000e+00 0.0000000000000000e+00 0.0000000000000000e+00  0.0000000000000000e+00 0.0000000000000000e+00 0.0000000000000000e+00  0.0000000000000000e+00 0.0000000000000000e+00 0.0000000000000000e+00  -7.5594497031024853e-04 7.5876184426423659e-04 0.0000000000000000e+00  -3.3711011123899208e-03 1.8360119270051001e-03 0.0000000000000000e+00  -7.4860513866991845e-03 2.4670513973418682e-03 0.0000000000000000e+00  -1.2250546933517056e-02 2.5904956250593445e-03 0.0000000000000000e+00  -1.6833089569261307e-02 2.2979325410081015e-03 0.0000000000000000e+00  -2.0578623770704258e-02 1.7050254219806722e-03 0.0000000000000000e+00  -2.3031485451113946e-02 9.1893692277546376e-04 0.0000000000000000e+00  -2.3920609413331326e-02 3.3619390180520873e-05 0.0000000000000000e+00  -2.3143549137957437e-02 -8.6322995081349659e-04 0.0000000000000000e+00  -2.0765450125492621e-02 -1.6790816713852055e-03 0.0000000000000000e+00  -1.7035672366628000e-02 -2.3073360789018734e-03 0.0000000000000000e+00  -1.2413150244367505e-02 -2.6255566742775572e-03 0.0000000000000000e+00  -7.5796276108460736e-03 -2.5073691938800823e-03 0.0000000000000000e+00  -3.4030422549323463e-03 -1.8615162470946214e-03 0.0000000000000000e+00  -7.5849805495119141e-04 -7.6297453244226023e-04 0.0000000000000000e+00  0.0000000000000000e+00 0.0000000000000000e+00 0.0000000000000000e+00  0.0000000000000000e+00 0.0000000000000000e+00 0.0000000000000000e+00  -1.9156877698157575e-03 3.4306526656615287e-03 0.0000000000000000e+00  -7.0413379925866769e-03 6.8122636764435113e-03 0.0000000000000000e+00  -1.4292926820767982e-02 8.7697899598293792e-03 0.0000000000000000e+00  -2.2375136462508764e-02 9.1032889624388762e-03 0.0000000000000000e+00  -3.0038547895258987e-02 8.0496989375482136e-03 0.0000000000000000e+00  -3.6266546604318002e-02 5.9672177902282608e-03 0.0000000000000000e+00  -4.0335486957354685e-02 3.2132148490717819e-03 0.0000000000000000e+00  -4.1809663849964089e-02 1.1323149688438206e-04 0.0000000000000000e+00  -4.0524196222846656e-02 -3.0242839758136595e-03 0.0000000000000000e+00  -3.6584904607452520e-02 -5.8755575719379042e-03 0.0000000000000000e+00  -3.0391655389435335e-02 -8.0748578102364747e-03 0.0000000000000000e+00  -2.2670053173339592e-02 -9.2159609058461156e-03 0.0000000000000000e+00  -1.4475599161014445e-02 -8.9055556702895521e-03 0.0000000000000000e+00  -7.1149351113333420e-03 -6.9056545926605914e-03 0.0000000000000000e+00  -1.9277830001321070e-03 -3.4564016267030883e-03 0.0000000000000000e+00  0.0000000000000000e+00 0.0000000000000000e+00 0.0000000000000000e+00  0.0000000000000000e+00 0.0000000000000000e+00 0.0000000000000000e+00  -2.9298444085326765e-03 8.0353543216317436e-03 0.0000000000000000e+00  -1.0372245576253400e-02 1.4550708157523923e-02 0.0000000000000000e+00  -2.0434768130868024e-02 1.8112526151181158e-02 0.0000000000000000e+00  -3.1329948568183975e-02 1.8541614290268699e-02 0.0000000000000000e+00  -4.1485473479146114e-02 1.6293109144366293e-02 0.0000000000000000e+00  -4.9660159047508458e-02 1.2043587108528580e-02 0.0000000000000000e+00  -5.4980722414355337e-02 6.4811449144541369e-03 0.0000000000000000e+00  -5.6922458245443064e-02 2.3974362367512164e-04 0.0000000000000000e+00  -5.5281772445063361e-02 -6.0777885569901257e-03 0.0000000000000000e+00  -5.0174489728169999e-02 -1.1838991536593879e-02 0.0000000000000000e+00  -4.2068736471944319e-02 -1.6331487841465066e-02 0.0000000000000000e+00  -3.1833987214229829e-02 -1.8769708257069657e-02 0.0000000000000000e+00  -2.0763420231075587e-02 -1.8402843739443644e-02 0.0000000000000000e+00  -1.0516029773212591e-02 -1.4765445870613545e-02 0.0000000000000000e+00  -2.9576841026907976e-03 -8.1089908366116497e-03 0.0000000000000000e+00  0.0000000000000000e+00 0.0000000000000000e+00 0.0000000000000000e+00  0.0000000000000000e+00 0.0000000000000000e+00 0.0000000000000000e+00  -3.8772547516869012e-03 1.4421323113734244e-02 0.0000000000000000e+00  -1.3597274408918615e-02 2.4931720000961471e-02 0.0000000000000000e+00  -2.6466567089045323e-02 3.0296606234121885e-02 0.0000000000000000e+00  -4.0122012978289330e-02 3.0604379746810035e-02 0.0000000000000000e+00  -5.2647525015348542e-02 2.6689778784536100e-02 0.0000000000000000e+00  -6.2622710134203161e-02 1.9652656350979639e-02 0.0000000000000000e+00  -6.9092023409984327e-02 1.0577878411275136e-02 0.0000000000000000e+00  -7.1492904831894466e-02 4.4636822839157696e-04 0.0000000000000000e+00  -6.9595893697188702e-02 -9.8194114628273790e-03 0.0000000000000000e+00  -6.3495019486192183e-02 -1.9248357527760673e-02 0.0000000000000000e+00  -5.3659595010687428e-02 -2.6728745305100977e-02 0.0000000000000000e+00  -4.1027138679058696e-02 -3.1007115317127458e-02 0.0000000000000000e+00  -2.7087296868126370e-02 -3.0844489239737771e-02 0.0000000000000000e+00  -1.3891269674618343e-02 -2.5368187949464775e-02 0.0000000000000000e+00  -3.9434307611624104e-03 -1.4597132372644437e-02 0.0000000000000000e+00  0.0000000000000000e+00 0.0000000000000000e+00 0.0000000000000000e+00  0.0000000000000000e+00 0.0000000000000000e+00 0.0000000000000000e+00  -4.9119185820493457e-03 2.2628419842678479e-02 0.0000000000000000e+00  -1.7118810871535432e-02 3.8074223184867070e-02 0.0000000000000000e+00  -3.3027657564577095e-02 4.5430549287397169e-02 0.0000000000000000e+00  -4.9606454297587359e-02 4.5321299355085803e-02 0.0000000000000000e+00  -6.4564399261570163e-02 3.9197057185517928e-02 0.0000000000000000e+00  -7.6335785094971464e-02 2.8734336675412437e-02 0.0000000000000000e+00  -8.3945279644932078e-02 1.5486271323919616e-02 0.0000000000000000e+00  -8.6843285052477556e-02 7.9177164777328177e-04 0.0000000000000000e+00  -8.4786584035749776e-02 -1.4125819539850940e-02 0.0000000000000000e+00  -7.7811559126628363e-02 -2.7969813365443894e-02 0.0000000000000000e+00  -6.6315372600179889e-02 -3.9199521437979438e-02 0.0000000000000000e+00  -5.1224748155272733e-02 -4.5988875959936906e-02 0.0000000000000000e+00  -3.4190670163735365e-02 -4.6414088903029199e-02 0.0000000000000000e+00  -1.7709433343587828e-02 -3.8921705675533977e-02 0.0000000000000000e+00  -5.0614883067251438e-03 -2.3022791112833244e-02 0.0000000000000000e+00  0.0000000000000000e+00 0.0000000000000000e+00 0.0000000000000000e+00  0.0000000000000000e+00 0.0000000000000000e+00 0.0000000000000000e+00  -6.1611483166495182e-03 3.2925744617154536e-02 0.0000000000000000e+00  -2.1265559952119765e-02 5.4314590799165098e-02 0.0000000000000000e+00  -4.0567732623355862e-02 6.3772817917595800e-02 0.0000000000000000e+00  -6.0247893726262373e-02 6.2810439119712833e-02 0.0000000000000000e+00  -7.7643941274902331e-02 5.3817080419803452e-02 0.0000000000000000e+00  -9.1126750878307697e-02 3.9249496177321569e-02 0.0000000000000000e+00  -9.9804947078313472e-02 2.1203191000430541e-02 0.0000000000000000e+00  -1.0322050566990647e-01 1.3519119561775752e-03 0.0000000000000000e+00  -1.0114056302863111e-01 -1.8852787031669510e-02 0.0000000000000000e+00  -9.3501252346285715e-02 -3.7857058411149641e-02 0.0000000000000000e+00  -8.0524722972871901e-02 -5.3696954875060987e-02 0.0000000000000000e+00  -6.2995505725109383e-02 -6.3859601677973318e-02 0.0000000000000000e+00  -4.2627255093249286e-02 -6.5468387509218920e-02 0.0000000000000000e+00  -2.2372790347126199e-02 -5.5896110484812273e-02 0.0000000000000000e+00  -6.4657488845650717e-03 -3.3759163939606603e-02 0.0000000000000000e+00  0.0000000000000000e+00 0.0000000000000000e+00 0.0000000000000000e+00  0.0000000000000000e+00 0.0000000000000000e+00 0.0000000000000000e+00  -7.7059615277538934e-03 4.5745387618092499e-02 0.0000000000000000e+00  -2.6189885736764142e-02 7.4085398348505499e-02 0.0000000000000000e+00  -4.9145063655762038e-02 8.5529924716906819e-02 0.0000000000000000e+00  -7.1839848555669314e-02 8.3020946660902734e-02 0.0000000000000000e+00  -9.1328561057577820e-02 7.0339475124846729e-02 0.0000000000000000e+00  -1.0610150668582304e-01 5.0973300342022569e-02 0.0000000000000000e+00  -1.1553407494563644e-01 2.7617233780014308e-02 0.0000000000000000e+00  -1.1938844140757703e-01 2.2010467651663534e-03 0.0000000000000000e+00  -1.1749090364947692e-01 -2.3743686964733311e-02 0.0000000000000000e+00  -1.0963259918665887e-01 -4.8556752335359374e-02 0.0000000000000000e+00  -9.5717310116526053e-02 -6.9927328383834531e-02 0.0000000000000000e+00  -7.6165089040943004e-02 -8.4566670408297934e-02 0.0000000000000000e+00  -5.2522918415518052e-02 -8.8312703786796648e-02 0.0000000000000000e+00  -2.8099491905120146e-02 -7.6893367879238492e-02 0.0000000000000000e+00  -8.2656651941053344e-03 -4.7387510022091885e-02 0.0000000000000000e+00  0.0000000000000000e+00 0.0000000000000000e+00 0.0000000000000000e+00  0.0000000000000000e+00 0.0000000000000000e+00 0.0000000000000000e+00  -9.5689484401235408e-03 6.1574655584307074e-02 0.0000000000000000e+00  -3.1774799055399726e-02 9.7686005619733549e-02 0.0000000000000000e+00  -5.8193055883584019e-02 1.1053186061743875e-01 0.0000000000000000e+00  -8.3129663711910398e-02 1.0537705838540970e-01 0.0000000000000000e+00  -1.0361840239291085e-01 8.8020074422002645e-02 0.0000000000000000e+00  -1.1860991837519268e-01 6.3251090295622814e-02 0.0000000000000000e+00  -1.2802839071430380e-01 3.4361780788275474e-02 0.0000000000000000e+00  -1.3203811860187431e-01 3.3726162067390501e-03 0.0000000000000000e+00  -1.3060475503004967e-01 -2.8349839776629571e-02 0.0000000000000000e+00  -1.2334511906979728e-01 -5.9301160499385580e-02 0.0000000000000000e+00  -1.0967841421200425e-01 -8.7024009718777884e-02 0.0000000000000000e+00  -8.9335712846671494e-02 -1.0746331456468937e-01 0.0000000000000000e+00  -6.3266028379143247e-02 -1.1482320756648565e-01 0.0000000000000000e+00  -3.4794099308208558e-02 -1.0238152204188447e-01 0.0000000000000000e+00  -1.0506191852120964e-02 -6.4580895349816828e-02 0.0000000000000000e+00  0.0000000000000000e+00 0.0000000000000000e+00 0.0000000000000000e+00  0.0000000000000000e+00 0.0000000000000000e+00 0.0000000000000000e+00  -1.1697624554321365e-02 8.0800119375790749e-02 0.0000000000000000e+00  -3.7494191118021047e-02 1.2490832121765212e-01 0.0000000000000000e+00  -6.6172151400362839e-02 1.3772599563859858e-01 0.0000000000000000e+00  -9.1288686409474976e-02 1.2828448485176963e-01 0.0000000000000000e+00  -1.1044886164895580e-01 1.0518966211513940e-01 0.0000000000000000e+00  -1.2360720633238909e-01 7.4730602173086136e-02 0.0000000000000000e+00  -1.3158959230529926e-01 4.0656077072641579e-02 0.0000000000000000e+00  -1.3515718031665591e-01 4.7966495473024326e-03 0.0000000000000000e+00  -1.3451393556355509e-01 -3.1985338484010493e-02 0.0000000000000000e+00  -1.2912091829538630e-01 -6.8717920357544010e-02 0.0000000000000000e+00  -1.1779262266925566e-01 -1.0317308243563340e-01 0.0000000000000000e+00  -9.9202949047217437e-02 -1.3076243849446589e-01 0.0000000000000000e+00  -7.3029509220511366e-02 -1.4384422993198126e-01 0.0000000000000000e+00  -4.1835553371500724e-02 -1.3223465120990049e-01 0.0000000000000000e+00  -1.3132301130827065e-02 -8.5912158049828283e-02 0.0000000000000000e+00  0.0000000000000000e+00 0.0000000000000000e+00 0.0000000000000000e+00  0.0000000000000000e+00 0.0000000000000000e+00 0.0000000000000000e+00  -1.3933774043243252e-02 1.0347584047541224e-01 0.0000000000000000e+00  -4.2131841942643605e-02 1.5440833380709032e-01 0.0000000000000000e+00  -6.9956807709856017e-02 1.6442398997655644e-01 0.0000000000000000e+00  -9.1121368832603883e-02 1.4852140013034928e-01 0.0000000000000000e+00  -1.0493066062695336e-01 1.1887893411767279e-01 0.0000000000000000e+00  -1.1303604236175317e-01 8.3166506021668238e-02 0.0000000000000000e+00  -1.1744882692326929e-01 4.5200962160559743e-02 0.0000000000000000e+00  -1.1961653247609177e-01 6.2283917990079533e-03 0.0000000000000000e+00  -1.2004874035167071e-01 -3.3764310786421788e-02 0.0000000000000000e+00  -1.1815461975391935e-01 -7.4761009554603367e-02 0.0000000000000000e+00  -1.1220697654867876e-01 -1.1531114314447030e-01 0.0000000000000000e+00  -9.9611784308425641e-02 -1.5089971381812434e-01 0.0000000000000000e+00  -7.7978693555985953e-02 -1.7230325479099093e-01 0.0000000000000000e+00  -4.7671255144546780e-02 -1.6494237663742745e-01 0.0000000000000000e+00  -1.5920126491086501e-02 -1.1153334122595200e-01 0.0000000000000000e+00  0.0000000000000000e+00 0.0000000000000000e+00 0.0000000000000000e+00  0.0000000000000000e+00 0.0000000000000000e+00 0.0000000000000000e+00  -1.5892872023671002e-02 1.2881784542473748e-01 0.0000000000000000e+00  -4.3037355300569180e-02 1.8259648940026041e-01 0.0000000000000000e+00  -6.3533736761671858e-02 1.8523877797789295e-01 0.0000000000000000e+00  -7.3787854628356034e-02 1.6069969563504843e-01 0.0000000000000000e+00  -7.6475509659648236e-02 1.2471915827835243e-01 0.0000000000000000e+00  -7.5437392494659875e-02 8.5518038802497323e-02 0.0000000000000000e+00  -7.3754341737698972e-02 4.6270579684091311e-02 0.0000000000000000e+00  -7.3345619165389203e-02 7.2166080333805850e-03 0.0000000000000000e+00  -7.4969656378592223e-02 -3.2782187138301042e-02 0.0000000000000000e+00  -7.8183040497792719e-02 -7.4954802962820102e-02 0.0000000000000000e+00  -8.1128701609992013e-02 -1.1919793902652100e-01 0.0000000000000000e+00  -8.0290553042409868e-02 -1.6208764716305266e-01 0.0000000000000000e+00  -7.0810257900850437e-02 -1.9405060986937503e-01 0.0000000000000000e+00  -4.8889075748923309e-02 -1.9626153203291485e-01 0.0000000000000000e+00  -1.8282550132222970e-02 -1.4047607512454749e-01 0.0000000000000000e+00  0.0000000000000000e+00 0.0000000000000000e+00 0.0000000000000000e+00  0.0000000000000000e+00 0.0000000000000000e+00 0.0000000000000000e+00  -1.6393128480897017e-02 1.5417944220658270e-01 0.0000000000000000e+00  -3.3590836504913672e-02 2.0126427668945673e-01 0.0000000000000000e+00  -3.5024135179101724e-02 1.9098080237720388e-01 0.0000000000000000e+00  -2.4708049889949350e-02 1.5742152412560076e-01 0.0000000000000000e+00  -9.9725543579752308e-03 1.1765669311316659e-01 0.0000000000000000e+00  3.8547661832807919e-03 7.8688858074475398e-02 0.0000000000000000e+00  1.3576703947314077e-02 4.2196393361962285e-02 0.0000000000000000e+00  1.7484612069108955e-02 7.1982624820218525e-03 0.0000000000000000e+00  1.4835437356970627e-02 -2.8472408568858729e-02 0.0000000000000000e+00  5.6963178836365461e-03 -6.7177418618427590e-02 0.0000000000000000e+00  -8.7351121016045544e-03 -1.1038734272084770e-01 0.0000000000000000e+00  -2.5318623856623666e-02 -1.5682849030374657e-01 0.0000000000000000e+00  -3.7930859665064535e-02 -1.9892712051380768e-01 0.0000000000000000e+00  -3.7487001287031009e-02 -2.1659016198174041e-01 0.0000000000000000e+00  -1.8566417043558311e-02 -1.6931998453823469e-01 0.0000000000000000e+00  0.0000000000000000e+00 0.0000000000000000e+00 0.0000000000000000e+00  0.0000000000000000e+00 0.0000000000000000e+00 0.0000000000000000e+00  -9.4037031610654607e-03 1.6862741743753201e-01 0.0000000000000000e+00  4.8217854282165112e-03 1.9388790055544353e-01 0.0000000000000000e+00  3.9829578315276150e-02 1.6934911026880808e-01 0.0000000000000000e+00  7.9172124514897954e-02 1.3161378040791819e-01 0.0000000000000000e+00  1.1434108801803360e-01 9.4259681854850064e-02 0.0000000000000000e+00  1.4140604491874426e-01 6.1226676196710773e-02 0.0000000000000000e+00  1.5882219527690533e-01 3.2369720948781038e-02 0.0000000000000000e+00  1.6607758043798782e-01 5.8017379808578363e-03 0.0000000000000000e+00  1.6285777952971597e-01 -2.1067315303418176e-02 0.0000000000000000e+00  1.4875064668597002e-01 -5.1039558535815648e-02 0.0000000000000000e+00  1.2348917527431127e-01 -8.6624433283953334e-02 0.0000000000000000e+00  8.7906407322822941e-02 -1.2885633659097337e-01 0.0000000000000000e+00  4.5793906529445670e-02 -1.7427903527737862e-01 0.0000000000000000e+00  6.8531447412102393e-03 -2.0757488259794438e-01 0.0000000000000000e+00  -9.7280965044184275e-03 -1.8505144507106197e-01 0.0000000000000000e+00  0.0000000000000000e+00 0.0000000000000000e+00 0.0000000000000000e+00  0.0000000000000000e+00 0.0000000000000000e+00 0.0000000000000000e+00  3.9480946834928990e-02 1.3506465060305284e-01 0.0000000000000000e+00  1.2725057601627984e-01 1.3823656408192131e-01 0.0000000000000000e+00  2.0515443707613634e-01 1.1283300191906864e-01 0.0000000000000000e+00  2.6895580523367713e-01 8.3075252205698613e-02 0.0000000000000000e+00  3.1765324684193208e-01 5.6922055668134242e-02 0.0000000000000000e+00  3.5161512031071596e-01 3.5797238186297667e-02 0.0000000000000000e+00  3.7227648027719429e-01 1.8542732206073251e-02 0.0000000000000000e+00  3.8083598098268356e-01 3.3075467872329739e-03 0.0000000000000000e+00  3.7765756597530348e-01 -1.1954852132192191e-02 0.0000000000000000e+00  3.6200954023208265e-01 -2.9419062858504375e-02 0.0000000000000000e+00  3.3210548109900784e-01 -5.1363348267880242e-02 0.0000000000000000e+00  2.8555912502958980e-01 -7.9750847119057444e-02 0.0000000000000000e+00  2.2079167575721934e-01 -1.1422500275071819e-01 0.0000000000000000e+00  1.3847228342189111e-01 -1.4668162139397922e-01 0.0000000000000000e+00  4.3995866022265510e-02 -1.4748662758099668e-01 0.0000000000000000e+00  0.0000000000000000e+00 0.0000000000000000e+00 0.0000000000000000e+00  0.0000000000000000e+00 0.0000000000000000e+00 0.0000000000000000e+00  3.4997197507463262e-01 4.2878398584917394e-03 0.0000000000000000e+00  4.4298106899392159e-01 4.3853471422575771e-02 0.0000000000000000e+00  5.1724991356895655e-01 3.9122506023641333e-02 0.0000000000000000e+00  5.7515262163585812e-01 2.7700919752182016e-02 0.0000000000000000e+00  6.1539388593309030e-01 1.8169886626335684e-02 0.0000000000000000e+00  6.4155089203338422e-01 1.1033500686503979e-02 0.0000000000000000e+00  6.5666569392442431e-01 5.5551334813323068e-03 0.0000000000000000e+00  6.6269956311658140e-01 9.0112996210234080e-04 0.0000000000000000e+00  6.6032851011861438e-01 -3.7225920397719091e-03 0.0000000000000000e+00  6.4890976670577871e-01 -9.1394496354975357e-03 0.0000000000000000e+00  6.2637029061561478e-01 -1.6296108704363179e-02 0.0000000000000000e+00  5.8916022808362301e-01 -2.6215239657946754e-02 0.0000000000000000e+00  5.3259103134111963e-01 -3.9006083089115559e-02 0.0000000000000000e+00  4.5562579281588778e-01 -4.7092329488196180e-02 0.0000000000000000e+00  3.5695537527644056e-01 -1.1562607576502581e-02 0.0000000000000000e+00  0.0000000000000000e+00 0.0000000000000000e+00 0.0000000000000000e+00  1.0000000000000000e+00 0.0000000000000000e+00 0.0000000000000000e+00  1.0000000000000000e+00 0.0000000000000000e+00 0.0000000000000000e+00  1.0000000000000000e+00 0.0000000000000000e+00 0.0000000000000000e+00  1.0000000000000000e+00 0.0000000000000000e+00 0.0000000000000000e+00  9.9999999999999989e-01 0.0000000000000000e+00 0.0000000000000000e+00  1.0000000000000000e+00 0.0000000000000000e+00 0.0000000000000000e+00  1.0000000000000000e+00 0.0000000000000000e+00 0.0000000000000000e+00  1.0000000000000000e+00 0.0000000000000000e+00 0.0000000000000000e+00  1.000000