<?xml version="1.0"?>
<VTKFile type="UnstructuredGrid"  version="0.1"  >
<UnstructuredGrid>
<Piece  NumberOfPoints="1369" NumberOfCells="2560">
<Points>
<DataArray  type="Float64"  NumberOfComponents="3"  format="ascii">0 0 0  0.75 0 0  1.5 0 0  2.25 0 0  3 0 0  3.75 0 0  4.5 0 0  5.25 0 0  6 0 0  6.75 0 0  7.5 0 0  8.25 0 0  9 0 0  9.75 0 0  10.5 0 0  11.25 0 0  12 0 0  12.75 0 0  13.5 0 0  14.25 0 0  15 0 0  15.75 0 0  16.5 0 0  17.25 0 0  18 0 0  18.75 0 0  19.5 0 0  20.25 0 0  21 0 0  21.75 0 0  22.5 0 0  23.25 0 0  24 0 0  24.75 0 0  25.5 0 0  26.25 0 0  27 0 0  27.75 0 0  28.5 0 0  29.25 0 0  30 0 0  30.75 0 0  31.5 0 0  32.25 0 0  33 0 0  33.75 0 0  34.5 0 0  35.25 0 0  36 0 0  36.75 0 0  37.5 0 0  38.25 0 0  39 0 0  39.75 0 0  40.5 0 0  41.25 0 0  42 0 0  42.75 0 0  43.5 0 0  44.25 0 0  45 0 0  45.75 0 0  46.5 0 0  47.25 0 0  48 0 0  48.75 0 0  49.5 0 0  50.25 0 0  51 0 0  51.75 0 0  52.5 0 0  53.25 0 0  54 0 0  54.75 0 0  55.5 0 0  56.25 0 0  57 0 0  57.75 0 0  58.5 0 0  59.25 0 0  60 0 0  0 0.5 0  0.75 0.5 0  1.5 0.5 0  2.25 0.5 0  3 0.5 0  3.75 0.5 0  4.5 0.5 0  5.25 0.5 0  6 0.5 0  6.75 0.5 0  7.5 0.5 0  8.25 0.5 0  9 0.5 0  9.75 0.5 0  10.5 0.5 0  11.25 0.5 0  12 0.5 0  12.75 0.5 0  13.5 0.5 0  14.25 0.5 0  15 0.5 0  15.75 0.5 0  16.5 0.5 0  17.25 0.5 0  18 0.5 0  18.75 0.5 0  19.5 0.5 0  20.25 0.5 0  21 0.5 0  21.75 0.5 0  22.5 0.5 0  23.25 0.5 0  24 0.5 0  24.75 0.5 0  25.5 0.5 0  26.25 0.5 0  27 0.5 0  27.75 0.5 0  28.5 0.5 0  29.25 0.5 0  30 0.5 0  30.75 0.5 0  31.5 0.5 0  32.25 0.5 0  33 0.5 0  33.75 0.5 0  34.5 0.5 0  35.25 0.5 0  36 0.5 0  36.75 0.5 0  37.5 0.5 0  38.25 0.5 0  39 0.5 0  39.75 0.5 0  40.5 0.5 0  41.25 0.5 0  42 0.5 0  42.75 0.5 0  43.5 0.5 0  44.25 0.5 0  45 0.5 0  45.75 0.5 0  46.5 0.5 0  47.25 0.5 0  48 0.5 0  48.75 0.5 0  49.5 0.5 0  50.25 0.5 0  51 0.5 0  51.75 0.5 0  52.5 0.5 0  53.25 0.5 0  54 0.5 0  54.75 0.5 0  55.5 0.5 0  56.25 0.5 0  57 0.5 0  57.75 0.5 0  58.5 0.5 0  59.25 0.5 0  60 0.5 0  0 1 0  0.75 1 0  1.5 1 0  2.25 1 0  3 1 0  3.75 1 0  4.5 1 0  5.25 1 0  6 1 0  6.75 1 0  7.5 1 0  8.25 1 0  9 1 0  9.75 1 0  10.5 1 0  11.25 1 0  12 1 0  12.75 1 0  13.5 1 0  14.25 1 0  15 1 0  15.75 1 0  16.5 1 0  17.25 1 0  18 1 0  18.75 1 0  19.5 1 0  20.25 1 0  21 1 0  21.75 1 0  22.5 1 0  23.25 1 0  24 1 0  24.75 1 0  25.5 1 0  26.25 1 0  27 1 0  27.75 1 0  28.5 1 0  29.25 1 0  30 1 0  30.75 1 0  31.5 1 0  32.25 1 0  33 1 0  33.75 1 0  34.5 1 0  35.25 1 0  36 1 0  36.75 1 0  37.5 1 0  38.25 1 0  39 1 0  39.75 1 0  40.5 1 0  41.25 1 0  42 1 0  42.75 1 0  43.5 1 0  44.25 1 0  45 1 0  45.75 1 0  46.5 1 0  47.25 1 0  48 1 0  48.75 1 0  49.5 1 0  50.25 1 0  51 1 0  51.75 1 0  52.5 1 0  53.25 1 0  54 1 0  54.75 1 0  55.5 1 0  56.25 1 0  57 1 0  57.75 1 0  58.5 1 0  59.25 1 0  60 1 0  0 1.5 0  0.75 1.5 0  1.5 1.5 0  2.25 1.5 0  3 1.5 0  3.75 1.5 0  4.5 1.5 0  5.25 1.5 0  6 1.5 0  6.75 1.5 0  7.5 1.5 0  8.25 1.5 0  9 1.5 0  9.75 1.5 0  10.5 1.5 0  11.25 1.5 0  12 1.5 0  12.75 1.5 0  13.5 1.5 0  14.25 1.5 0  15 1.5 0  15.75 1.5 0  16.5 1.5 0  17.25 1.5 0  18 1.5 0  18.75 1.5 0  19.5 1.5 0  20.25 1.5 0  21 1.5 0  21.75 1.5 0  22.5 1.5 0  23.25 1.5 0  24 1.5 0  24.75 1.5 0  25.5 1.5 0  26.25 1.5 0  27 1.5 0  27.75 1.5 0  28.5 1.5 0  29.25 1.5 0  30 1.5 0  30.75 1.5 0  31.5 1.5 0  32.25 1.5 0  33 1.5 0  33.75 1.5 0  34.5 1.5 0  35.25 1.5 0  36 1.5 0  36.75 1.5 0  37.5 1.5 0  38.25 1.5 0  39 1.5 0  39.75 1.5 0  40.5 1.5 0  41.25 1.5 0  42 1.5 0  42.75 1.5 0  43.5 1.5 0  44.25 1.5 0  45 1.5 0  45.75 1.5 0  46.5 1.5 0  47.25 1.5 0  48 1.5 0  48.75 1.5 0  49.5 1.5 0  50.25 1.5 0  51 1.5 0  51.75 1.5 0  52.5 1.5 0  53.25 1.5 0  54 1.5 0  54.75 1.5 0  55.5 1.5 0  56.25 1.5 0  57 1.5 0  57.75 1.5 0  58.5 1.5 0  59.25 1.5 0  60 1.5 0  0 2 0  0.75 2 0  1.5 2 0  2.25 2 0  3 2 0  3.75 2 0  4.5 2 0  5.25 2 0  6 2 0  6.75 2 0  7.5 2 0  8.25 2 0  9 2 0  9.75 2 0  10.5 2 0  11.25 2 0  12 2 0  12.75 2 0  13.5 2 0  14.25 2 0  15 2 0  15.75 2 0  16.5 2 0  17.25 2 0  18 2 0  18.75 2 0  19.5 2 0  20.25 2 0  21 2 0  21.75 2 0  22.5 2 0  23.25 2 0  24 2 0  24.75 2 0  25.5 2 0  26.25 2 0  27 2 0  27.75 2 0  28.5 2 0  29.25 2 0  30 2 0  30.75 2 0  31.5 2 0  32.25 2 0  33 2 0  33.75 2 0  34.5 2 0  35.25 2 0  36 2 0  36.75 2 0  37.5 2 0  38.25 2 0  39 2 0  39.75 2 0  40.5 2 0  41.25 2 0  42 2 0  42.75 2 0  43.5 2 0  44.25 2 0  45 2 0  45.75 2 0  46.5 2 0  47.25 2 0  48 2 0  48.75 2 0  49.5 2 0  50.25 2 0  51 2 0  51.75 2 0  52.5 2 0  53.25 2 0  54 2 0  54.75 2 0  55.5 2 0  56.25 2 0  57 2 0  57.75 2 0  58.5 2 0  59.25 2 0  60 2 0  0 2.5 0  0.75 2.5 0  1.5 2.5 0  2.25 2.5 0  3 2.5 0  3.75 2.5 0  4.5 2.5 0  5.25 2.5 0  6 2.5 0  6.75 2.5 0  7.5 2.5 0  8.25 2.5 0  9 2.5 0  9.75 2.5 0  10.5 2.5 0  11.25 2.5 0  12 2.5 0  12.75 2.5 0  13.5 2.5 0  14.25 2.5 0  15 2.5 0  15.75 2.5 0  16.5 2.5 0  17.25 2.5 0  18 2.5 0  18.75 2.5 0  19.5 2.5 0  20.25 2.5 0  21 2.5 0  21.75 2.5 0  22.5 2.5 0  23.25 2.5 0  24 2.5 0  24.75 2.5 0  25.5 2.5 0  26.25 2.5 0  27 2.5 0  27.75 2.5 0  28.5 2.5 0  29.25 2.5 0  30 2.5 0  30.75 2.5 0  31.5 2.5 0  32.25 2.5 0  33 2.5 0  33.75 2.5 0  34.5 2.5 0  35.25 2.5 0  36 2.5 0  36.75 2.5 0  37.5 2.5 0  38.25 2.5 0  39 2.5 0  39.75 2.5 0  40.5 2.5 0  41.25 2.5 0  42 2.5 0  42.75 2.5 0  43.5 2.5 0  44.25 2.5 0  45 2.5 0  45.75 2.5 0  46.5 2.5 0  47.25 2.5 0  48 2.5 0  48.75 2.5 0  49.5 2.5 0  50.25 2.5 0  51 2.5 0  51.75 2.5 0  52.5 2.5 0  53.25 2.5 0  54 2.5 0  54.75 2.5 0  55.5 2.5 0  56.25 2.5 0  57 2.5 0  57.75 2.5 0  58.5 2.5 0  59.25 2.5 0  60 2.5 0  0 3 0  0.75 3 0  1.5 3 0  2.25 3 0  3 3 0  3.75 3 0  4.5 3 0  5.25 3 0  6 3 0  6.75 3 0  7.5 3 0  8.25 3 0  9 3 0  9.75 3 0  10.5 3 0  11.25 3 0  12 3 0  12.75 3 0  13.5 3 0  14.25 3 0  15 3 0  15.75 3 0  16.5 3 0  17.25 3 0  18 3 0  18.75 3 0  19.5 3 0  20.25 3 0  21 3 0  21.75 3 0  22.5 3 0  23.25 3 0  24 3 0  24.75 3 0  25.5 3 0  26.25 3 0  27 3 0  27.75 3 0  28.5 3 0  29.25 3 0  30 3 0  30.75 3 0  31.5 3 0  32.25 3 0  33 3 0  33.75 3 0  34.5 3 0  35.25 3 0  36 3 0  36.75 3 0  37.5 3 0  38.25 3 0  39 3 0  39.75 3 0  40.5 3 0  41.25 3 0  42 3 0  42.75 3 0  43.5 3 0  44.25 3 0  45 3 0  45.75 3 0  46.5 3 0  47.25 3 0  48 3 0  48.75 3 0  49.5 3 0  50.25 3 0  51 3 0  51.75 3 0  52.5 3 0  53.25 3 0  54 3 0  54.75 3 0  55.5 3 0  56.25 3 0  57 3 0  57.75 3 0  58.5 3 0  59.25 3 0  60 3 0  0 3.5 0  0.75 3.5 0  1.5 3.5 0  2.25 3.5 0  3 3.5 0  3.75 3.5 0  4.5 3.5 0  5.25 3.5 0  6 3.5 0  6.75 3.5 0  7.5 3.5 0  8.25 3.5 0  9 3.5 0  9.75 3.5 0  10.5 3.5 0  11.25 3.5 0  12 3.5 0  12.75 3.5 0  13.5 3.5 0  14.25 3.5 0  15 3.5 0  15.75 3.5 0  16.5 3.5 0  17.25 3.5 0  18 3.5 0  18.75 3.5 0  19.5 3.5 0  20.25 3.5 0  21 3.5 0  21.75 3.5 0  22.5 3.5 0  23.25 3.5 0  24 3.5 0  24.75 3.5 0  25.5 3.5 0  26.25 3.5 0  27 3.5 0  27.75 3.5 0  28.5 3.5 0  29.25 3.5 0  30 3.5 0  30.75 3.5 0  31.5 3.5 0  32.25 3.5 0  33 3.5 0  33.75 3.5 0  34.5 3.5 0  35.25 3.5 0  36 3.5 0  36.75 3.5 0  37.5 3.5 0  38.25 3.5 0  39 3.5 0  39.75 3.5 0  40.5 3.5 0  41.25 3.5 0  42 3.5 0  42.75 3.5 0  43.5 3.5 0  44.25 3.5 0  45 3.5 0  45.75 3.5 0  46.5 3.5 0  47.25 3.5 0  48 3.5 0  48.75 3.5 0  49.5 3.5 0  50.25 3.5 0  51 3.5 0  51.75 3.5 0  52.5 3.5 0  53.25 3.5 0  54 3.5 0  54.75 3.5 0  55.5 3.5 0  56.25 3.5 0  57 3.5 0  57.75 3.5 0  58.5 3.5 0  59.25 3.5 0  60 3.5 0  0 4 0  0.75 4 0  1.5 4 0  2.25 4 0  3 4 0  3.75 4 0  4.5 4 0  5.25 4 0  6 4 0  6.75 4 0  7.5 4 0  8.25 4 0  9 4 0  9.75 4 0  10.5 4 0  11.25 4 0  12 4 0  12.75 4 0  13.5 4 0  14.25 4 0  15 4 0  15.75 4 0  16.5 4 0  17.25 4 0  18 4 0  18.75 4 0  19.5 4 0  20.25 4 0  21 4 0  21.75 4 0  22.5 4 0  23.25 4 0  24 4 0  24.75 4 0  25.5 4 0  26.25 4 0  27 4 0  27.75 4 0  28.5 4 0  29.25 4 0  30 4 0  30.75 4 0  31.5 4 0  32.25 4 0  33 4 0  33.75 4 0  34.5 4 0  35.25 4 0  36 4 0  36.75 4 0  37.5 4 0  38.25 4 0  39 4 0  39.75 4 0  40.5 4 0  41.25 4 0  42 4 0  42.75 4 0  43.5 4 0  44.25 4 0  45 4 0  45.75 4 0  46.5 4 0  47.25 4 0  48 4 0  48.75 4 0  49.5 4 0  50.25 4 0  51 4 0  51.75 4 0  52.5 4 0  53.25 4 0  54 4 0  54.75 4 0  55.5 4 0  56.25 4 0  57 4 0  57.75 4 0  58.5 4 0  59.25 4 0  60 4 0  0.375 0.25 0  1.125 0.25 0  1.875 0.25 0  2.625 0.25 0  3.375 0.25 0  4.125 0.25 0  4.875 0.25 0  5.625 0.25 0  6.375 0.25 0  7.125 0.25 0  7.875 0.25 0  8.625 0.25 0  9.375 0.25 0  10.125 0.25 0  10.875 0.25 0  11.625 0.25 0  12.375 0.25 0  13.125 0.25 0  13.875 0.25 0  14.625 0.25 0  15.375 0.25 0  16.125 0.25 0  16.875 0.25 0  17.625 0.25 0  18.375 0.25 0  19.125 0.25 0  19.875 0.25 0  20.625 0.25 0  21.375 0.25 0  22.125 0.25 0  22.875 0.25 0  23.625 0.25 0  24.375 0.25 0  25.125 0.25 0  25.875 0.25 0  26.625 0.25 0  27.375 0.25 0  28.125 0.25 0  28.875 0.25 0  29.625 0.25 0  30.375 0.25 0  31.125 0.25 0  31.875 0.25 0  32.625 0.25 0  33.375 0.25 0  34.125 0.25 0  34.875 0.25 0  35.625 0.25 0  36.375 0.25 0  37.125 0.25 0  37.875 0.25 0  38.625 0.25 0  39.375 0.25 0  40.125 0.25 0  40.875 0.25 0  41.625 0.25 0  42.375 0.25 0  43.125 0.25 0  43.875 0.25 0  44.625 0.25 0  45.375 0.25 0  46.125 0.25 0  46.875 0.25 0  47.625 0.25 0  48.375 0.25 0  49.125 0.25 0  49.875 0.25 0  50.625 0.25 0  51.375 0.25 0  52.125 0.25 0  52.875 0.25 0  53.625 0.25 0  54.375 0.25 0  55.125 0.25 0  55.875 0.25 0  56.625 0.25 0  57.375 0.25 0  58.125 0.25 0  58.875 0.25 0  59.625 0.25 0  0.375 0.75 0  1.125 0.75 0  1.875 0.75 0  2.625 0.75 0  3.375 0.75 0  4.125 0.75 0  4.875 0.75 0  5.625 0.75 0  6.375 0.75 0  7.125 0.75 0  7.875 0.75 0  8.625 0.75 0  9.375 0.75 0  10.125 0.75 0  10.875 0.75 0  11.625 0.75 0  12.375 0.75 0  13.125 0.75 0  13.875 0.75 0  14.625 0.75 0  15.375 0.75 0  16.125 0.75 0  16.875 0.75 0  17.625 0.75 0  18.375 0.75 0  19.125 0.75 0  19.875 0.75 0  20.625 0.75 0  21.375 0.75 0  22.125 0.75 0  22.875 0.75 0  23.625 0.75 0  24.375 0.75 0  25.125 0.75 0  25.875 0.75 0  26.625 0.75 0  27.375 0.75 0  28.125 0.75 0  28.875 0.75 0  29.625 0.75 0  30.375 0.75 0  31.125 0.75 0  31.875 0.75 0  32.625 0.75 0  33.375 0.75 0  34.125 0.75 0  34.875 0.75 0  35.625 0.75 0  36.375 0.75 0  37.125 0.75 0  37.875 0.75 0  38.625 0.75 0  39.375 0.75 0  40.125 0.75 0  40
[...]
<PointData  Scalars="f_8-1"> 
<DataArray  type="Float64"  Name="f_8-1"  format="ascii">-1.1849324400710884e+01  -1.1703804369100711e+01  -1.1555872359363700e+01  -1.1407838015444055e+01  -1.1259752916157028e+01  -1.1111633534825842e+01  -1.0963490168555506e+01  -1.0815330860688837e+01  -1.0667162389873237e+01  -1.0518989325391114e+01  -1.0370814196589256e+01  -1.0222639486803962e+01  -1.0074467752071136e+01  -9.9263004687435217e+00  -9.7781373878492293e+00  -9.6299773343982551e+00  -9.4818190596006726e+00  -9.3336616954636877e+00  -9.1855047449972744e+00  -9.0373479729805322e+00  -8.8891912735871195e+00  -8.7410346059064992e+00  -8.5928779517449225e+00  -8.4447213045347915e+00  -8.2965646604766992e+00  -8.1484080182788059e+00  -8.0002513768856698e+00  -7.8520947360213516e+00  -7.7039380953574810e+00  -7.5557814548460005e+00  -7.4076248143814389e+00  -7.2594681739609292e+00  -7.1113115335506629e+00  -6.9631548931529519e+00  -6.8149982527574826e+00  -6.6668416123653564e+00  -6.5186849719738902e+00  -6.3705283315831549e+00  -6.2223716911927545e+00  -6.0742150508024073e+00  -5.9260584104122751e+00  -5.7779017700220487e+00  -5.6297451296319503e+00  -5.4815884892417692e+00  -5.3334318488516663e+00  -5.1852752084615217e+00  -5.0371185680714099e+00  -4.8889619276812706e+00  -4.7408052872911366e+00  -4.5926486469009911e+00  -4.4444920065108482e+00  -4.2963353661206805e+00  -4.1481787257304932e+00  -4.0000220853402624e+00  -3.8518654449499223e+00  -3.7037088045593434e+00  -3.5555521641683021e+00  -3.4073955237762492e+00  -3.2592388833821855e+00  -3.1110822429837750e+00  -2.9629256025766315e+00  -2.8147689621508891e+00  -2.6666123216880018e+00  -2.5184556811454120e+00  -2.3702990404522852e+00  -2.2221423994041447e+00  -2.0739857578454468e+00  -1.9258291143860269e+00  -1.7776724708311267e+00  -1.6295158115607262e+00  -1.4813591850792982e+00  -1.3332023632741006e+00  -1.1850461837840949e+00  -1.0368872929510971e+00  -8.8873782564437598e-01  -7.4055409809158046e-01  -5.9248078336431764e-01  -4.4406185821981425e-01  -2.9660870811182016e-01  -1.4664599724492700e-01  -2.0127718248218202e-03  -1.1852167279745757e+01  -1.1703744808935495e+01  -1.1555821377592681e+01  -1.1407774705277596e+01  -1.1259690726580660e+01  -1.1111575231550351e+01  -1.0963435033533067e+01  -1.0815277962212207e+01  -1.0667110527017114e+01  -1.0518938108158052e+01  -1.0370763343922221e+01  -1.0222588227683355e+01  -1.0074415576099540e+01  -9.9262474682708177e+00  -9.7780839122939991e+00  -9.6299236627832734e+00  -9.4817653341012331e+00  -9.3336079642677099e+00  -9.1854510187058054e+00  -9.0372942498789453e+00  -8.8891375520218219e+00  -8.7409808844867776e+00  -8.5928242303676114e+00  -8.4446675829843265e+00  -8.2965109389097123e+00  -8.1483542966323252e+00  -8.0001976552465237e+00  -7.8520410143513972e+00  -7.7038843736962770e+00  -7.5557277331724224e+00  -7.4075710927131038e+00  -7.2594144522875510e+00  -7.1112578118798107e+00  -6.9631011714801057e+00  -6.8149445310856978e+00  -6.6667878906928326e+00  -6.5186312503017536e+00  -6.3704746099107714e+00  -6.2223179695204918e+00  -6.0741613291300833e+00  -5.9260046887399689e+00  -5.7778480483497399e+00  -5.6296914079596325e+00  -5.4815347675694621e+00  -5.3333781271793557e+00  -5.1852214867892075e+00  -5.0370648463990975e+00  -4.8889082060089573e+00  -4.7407515656188242e+00  -4.5925949252286822e+00  -4.4444382848385411e+00  -4.2962816444483742e+00  -4.1481250040581950e+00  -3.9999683636679837e+00  -3.8518117232776810e+00  -3.7036550828871881e+00  -3.5554984424962961e+00  -3.4073418021046069e+00  -3.2591851617112186e+00  -3.1110285213143523e+00  -2.9628718809101553e+00  -2.8147152404910134e+00  -2.6665586000404762e+00  -2.5184019595272122e+00  -2.3702453188789505e+00  -2.2220886779832010e+00  -2.0739320364743330e+00  -1.9257753941987243e+00  -1.7776187484667132e+00  -1.6294621035775338e+00  -1.4813054295811614e+00  -1.3331488153505668e+00  -1.1849918784794762e+00  -1.0368358586384050e+00  -8.8867634971025367e-01  -7.4052642532440083e-01  -5.9234759185733099e-01  -4.4423048166231022e-01  -2.9598031625442150e-01  -1.4781061860481570e-01  5.6716791927475868e-04  -1.1852266993674798e+01  -1.1703922622669511e+01  -1.1555819273585376e+01  -1.1407748504525095e+01  -1.1259660914795916e+01  -1.1111546015699991e+01  -1.0963407114010051e+01  -1.0815250946958145e+01  -1.0667083822103651e+01  -1.0518911560003010e+01  -1.0370736991991773e+01  -1.0222561135577555e+01  -1.0074387298745529e+01  -9.9262184129340092e+00  -9.7780546529345767e+00  -9.6298944773247754e+00  -9.4817362810501589e+00  -9.3335790055762278e+00  -9.1854221132260729e+00  -9.0372653677841637e+00  -8.8891086800827619e+00  -8.7409520160219980e+00  -8.5927953635079106e+00  -8.4446387166055761e+00  -8.2964820728748254e+00  -8.1483254306831263e+00  -8.0001687893973941e+00  -7.8520121485186021e+00  -7.7038555078947075e+00  -7.5556988673734660e+00  -7.4075422269235016e+00  -7.2593855864984613e+00  -7.1112289460931244e+00  -6.9630723056937907e+00  -6.8149156652997300e+00  -6.6667590249072353e+00  -6.5186023845160053e+00  -6.3704457441253268e+00  -6.2222891037348500e+00  -6.0741324633446325e+00  -5.9259758229543866e+00  -5.7778191825642606e+00  -5.6296625421740751e+00  -5.4815059017839669e+00  -5.3333492613938027e+00  -5.1851926210037016e+00  -5.0370359806135649e+00  -4.8888793402234354e+00  -4.7407226998333023e+00  -4.5925660594431674e+00  -4.4444094190530219e+00  -4.2962527786628648e+00  -4.1480961382726962e+00  -3.9999394978825173e+00  -3.8517828574922568e+00  -3.7036262171018683e+00  -3.5554695767111899e+00  -3.4073129363199723e+00  -3.2591562959275167e+00  -3.1109996555326571e+00  -2.9628430151325240e+00  -2.8146863747218367e+00  -2.6665297342888041e+00  -2.5183730938101392e+00  -2.3702164532383256e+00  -2.2220598124704196e+00  -2.0739031713339946e+00  -1.9257465293248566e+00  -1.7775898861007191e+00  -1.6294332383196011e+00  -1.4812765897369211e+00  -1.3331199084357288e+00  -1.1849632739558356e+00  -1.0368063423966292e+00  -8.8865008124008982e-01  -7.4049123427462649e-01  -5.9233812620987925e-01  -4.4416812376973441e-01  -2.9602670499674727e-01  -1.4783596242103128e-01  -3.9945861973708235e-05  -1.1852254444269466e+01  -1.1704011363822154e+01  -1.1555873837127308e+01  -1.1407778088709158e+01  -1.1259681123665247e+01  -1.1111565544228515e+01  -1.0963428575613625e+01  -1.0815275123446874e+01  -1.0667110252224711e+01  -1.0518939378377290e+01  -1.0370765692839537e+01  -1.0222590841344752e+01  -1.0074417488878533e+01  -9.9262484136550260e+00  -9.7780841069473929e+00  -9.6299234289961415e+00  -9.4817648956492082e+00  -9.3336074461044767e+00  -9.1854504727902224e+00  -9.0372936966160342e+00  -8.8891369962914233e+00  -8.7409803281783702e+00  -8.5928236734509671e+00  -8.4446670258523380e+00  -8.2965103815095844e+00  -8.1483537391570273e+00  -8.0001970976744978e+00  -7.8520404567639259e+00  -7.7038838160765772e+00  -7.5557271755523123e+00  -7.4075705350820442e+00  -7.2594138946580165e+00  -7.1112572542464747e+00  -6.9631006138477405e+00  -6.8149439734520429e+00  -6.6667873330595917e+00  -6.5186306926681210e+00  -6.3704740522772543e+00  -6.2223174118868920e+00  -6.0741607714964800e+00  -5.9260041311063647e+00  -5.7778474907161037e+00  -5.6296908503260186e+00  -5.4815342099358304e+00  -5.3333775695457453e+00  -5.1852209291555766e+00  -5.0370642887654720e+00  -4.8889076483753255e+00  -4.7407510079852040e+00  -4.5925943675950647e+00  -4.4444377272049254e+00  -4.2962810868147683e+00  -4.1481244464245970e+00  -3.9999678060344022e+00  -3.8518111656441283e+00  -3.7036545252537012e+00  -3.5554978848629610e+00  -3.4073412444715858e+00  -3.2591846040788623e+00  -3.1110279636833380e+00  -2.9628713232819890e+00  -2.8147146828685892e+00  -2.6665580424302826e+00  -2.5184014019407992e+00  -2.3702447613462891e+00  -2.2220881205395226e+00  -2.0739314792982246e+00  -1.9257748372109704e+00  -1.7776181933492157e+00  -1.6294615463811541e+00  -1.4813048920134251e+00  -1.3331482287425256e+00  -1.1849915319731195e+00  -1.0368348374842724e+00  -8.8867798251716246e-01  -7.4052152088619139e-01  -5.9236459499165417e-01  -4.4421312206234370e-01  -2.9606889336671077e-01  -1.4800386503985596e-01  1.7547673954610893e-05  -1.1852246944817571e+01  -1.1704034891044550e+01  -1.1555886346407791e+01  -1.1407781964161607e+01  -1.1259680981466355e+01  -1.1111564487798432e+01  -1.0963428565584884e+01  -1.0815276085713439e+01  -1.0667112425504738e+01  -1.0518942216152476e+01  -1.0370768966416280e+01  -1.0222594669657763e+01  -1.0074421899702676e+01  -9.9262529118058360e+00  -9.7780883680207982e+00  -9.6299273651394177e+00  -9.4817686008700424e+00  -9.3336110130655463e+00  -9.1854539770173815e+00  -9.0372971717216455e+00  -8.8891404615508041e+00  -8.7409837885785038e+00  -8.5928271325877965e+00  -8.4446704839241491e+00  -8.2965138393893838e+00  -8.1483571967119079e+00  -8.0002005552046036e+00  -7.8520439141855896e+00  -7.7038872735026702e+00  -7.5557306329417235e+00  -7.4075739924768893e+00  -7.2594173520407121e+00  -7.1112607116318056e+00  -6.9631040712294077e+00  -6.8149474308344669e+00  -6.6667907904412136e+00  -6.5186341500497278e+00  -6.3704775096588930e+00  -6.2223208692683016e+00  -6.0741642288780753e+00  -5.9260075884877441e+00  -5.7778509480976554e+00  -5.6296943077074317e+00  -5.4815376673173448e+00  -5.3333810269271709e+00  -5.1852243865370662e+00  -5.0370677461469118e+00  -4.8889111057567973e+00  -4.7407544653666536e+00  -4.5925978249765231e+00  -4.4444411845863829e+00  -4.2962845441962285e+00  -4.1481279038060572e+00  -3.9999712634158517e+00  -3.8518146230255561e+00  -3.7036579826350930e+00  -3.5555013422442858e+00  -3.4073447018527516e+00  -3.2591880614596969e+00  -3.1110314210634984e+00  -2.9628747806607532e+00  -2.8147181402444867e+00  -2.6665614998003142e+00  -2.5184048592988710e+00  -2.3702482186804876e+00  -2.2220915778245596e+00  -2.0739349364919115e+00  -1.9257782942011346e+00  -1.7776216500448507e+00  -1.6294650021537531e+00  -1.4813083474880768e+00  -1.3331516790538431e+00  -1.1849949911882802e+00  -1.0368382630221658e+00  -8.8868155057274012e-01  -7.4052491679972932e-01  -5.9236959511035536e-01  -4.4421845209998506e-01  -2.9609095773021699e-01  -1.4801134166389288e-01  -1.3341429113301023e-05  -1.1852254444269461e+01  -1.1704011363822188e+01  -1.1555873837127328e+01  -1.1407778088709183e+01  -1.1259681123665269e+01  -1.1111565544228506e+01  -1.0963428575613625e+01  -1.0815275123446874e+01  -1.0667110252224719e+01  -1.0518939378377297e+01  -1.0370765692839544e+01  -1.0222590841344751e+01  -1.0074417488878565e+01  -9.9262484136550562e+00  -9.7780841069474072e+00  -9.6299234289961539e+00  -9.4817648956492437e+00  -9.3336074461045069e+00  -9.1854504727902402e+00  -9.0372936966160502e+00  -8.8891369962914339e+00  -8.7409803281783702e+00  -8.5928236734509724e+00  -8.4446670258523167e+00  -8.2965103815095826e+00  -8.1483537391570255e+00  -8.0001970976745174e+00  -7.8520404567639375e+00  -7.7038838160765621e+00  -7.5557271755523114e+00  -7.4075705350820193e+00  -7.2594138946579827e+00  -7.1112572542464649e+00  -6.9631006138477387e+00  -6.8149439734520376e+00  -6.6667873330595970e+00  -6.5186306926681530e+00  -6.3704740522772951e+00  -6.2223174118869249e+00  -6.0741607714964871e+00  -5.9260041311063674e+00  -5.7778474907161188e+00  -5.6296908503260354e+00  -5.4815342099358526e+00  -5.3333775695457453e+00  -5.1852209291555837e+00  -5.0370642887654569e+00  -4.8889076483753282e+00  -4.7407510079852075e+00  -4.5925943675950505e+00  -4.4444377272049325e+00  -4.2962810868147718e+00  -4.1481244464246103e+00  -3.9999678060344164e+00  -3.8518111656441292e+00  -3.7036545252537079e+00  -3.5554978848629739e+00  -3.4073412444715934e+00  -3.2591846040788641e+00  -3.1110279636833318e+00  -2.9628713232819854e+00  -2.8147146828685861e+00  -2.6665580424302755e+00  -2.5184014019407925e+00  -2.3702447613462860e+00  -2.2220881205395129e+00  -2.0739314792982224e+00  -1.9257748372109682e+00  -1.7776181933492081e+00  -1.6294615463811479e+00  -1.4813048920134266e+00  -1.3331482287425314e+00  -1.1849915319731199e+00  -1.0368348374842749e+00  -8.8867798251716434e-01  -7.4052152088619094e-01  -5.9236459499165328e-01  -4.4421312206234337e-01  -2.9606889336671210e-01  -1.4800386503985671e-01  1.7547673954786696e-05  -1.1852266993674801e+01  -1.1703922622669550e+01  -1.1555819273585438e+01  -1.1407748504525159e+01  -1.1259660914795907e+01  -1.1111546015699982e+01  -1.0963407114010064e+01  -1.0815250946958141e+01  -1.0667083822103624e+01  -1.0518911560003044e+01  -1.0370736991991807e+01  -1.0222561135577584e+01  -1.0074387298745595e+01  -9.9262184129340589e+00  -9.7780546529345962e+00  -9.6298944773247896e+00  -9.4817362810501891e+00  -9.3335790055762562e+00  -9.1854221132261280e+00  -9.0372653677841868e+00  -8.8891086800827761e+00  -8.7409520160220300e+00  -8.5927953635079337e+00  -8.4446387166055832e+00  -8.2964820728748254e+00  -8.1483254306831263e+00  -8.0001687893974314e+00  -7.8520121485185985e+00  -7.7038555078946942e+00  -7.5556988673734287e+00  -7.4075422269234643e+00  -7.2593855864984125e+00  -7.1112289460931057e+00  -6.9630723056937622e+00  -6.8149156652997354e+00  -6.6667590249072539e+00  -6.5186023845160594e+00  -6.3704457441253695e+00  -6.2222891037349060e+00  -6.0741324633446565e+00  -5.9259758229543964e+00  -5.7778191825642713e+00  -5.6296625421740982e+00  -5.4815059017839776e+00  -5.3333492613938356e+00  -5.1851926210037069e+00  -5.0370359806135632e+00  -4.8888793402234434e+00  -4.7407226998333210e+00  -4.5925660594431559e+00  -4.4444094190530263e+00  -4.2962527786628852e+00  -4.1480961382727193e+00  -3.9999394978825284e+00  -3.8517828574922697e+00  -3.7036262171018812e+00  -3.5554695767112037e+00  -3.4073129363199901e+00  -3.2591562959275220e+00  -3.1109996555326545e+00  -2.9628430151325196e+00  -2.8146863747218283e+00  -2.6665297342887899e+00  -2.5183730938101228e+00  -2.3702164532383101e+00  -2.2220598124704130e+00  -2.0739031713339831e+00  -1.9257465293248526e+00  -1.7775898861007038e+00  -1.6294332383195966e+00  -1.4812765897369291e+00  -1.3331199084357355e+00  -1.1849632739558371e+00  -1.0368063423966347e+00  -8.8865008124009393e-01  -7.4049123427462682e-01  -5.9233812620988080e-01  -4.4416812376973480e-01  -2.9602670499674899e-01  -1.4783596242103383e-01  -3.9945861973539337e-05  -1.1852167279745782e+01  -1.1703744808935509e+01  -1.1555821377592727e+01  -1.1407774705277639e+01  -1.1259690726580668e+01  -1.1111575231550358e+01  -1.0963435033533093e+01  -1.0815277962212210e+01  -1.0667110527017117e+01  -1.0518938108158077e+01  -1.0370763343922231e+01  -1.0222588227683401e+01  -1.0074415576099579e+01  -9.9262474682708248e+00  -9.7780839122940293e+00  -9.6299236627833125e+00  -9.4817653341012669e+00  -9.3336079642677632e+00  -9.1854510187058303e+00  -9.0372942498789879e+00  -8.8891375520218503e+00  -8.7409808844868486e+00  -8.5928242303676523e+00  -8.4446675829843656e+00  -8.2965109389097265e+00  -8.1483542966323430e+00  -8.0001976552465344e+00  -7.8520410143513830e+00  -7.7038843736962548e+00  -7.5557277331723958e+00  -7.4075710927130780e+00  -7.2594144522875164e+00  -7.1112578118797831e+00  -6.9631011714800781e+00  -6.8149445310857129e+00  -6.6667878906928504e+00  -6.5186312503018042e+00  -6.3704746099108318e+00  -6.2223179695205584e+00  -6.0741613291301420e+00  -5.9260046887399884e+00  -5.7778480483497452e+00  -5.6296914079596281e+00  -5.4815347675694666e+00  -5.3333781271793752e+00  -5.1852214867892359e+00  -5.0370648463991179e+00  -4.8889082060089724e+00  -4.7407515656188490e+00  -4.5925949252287053e+00  -4.4444382848385571e+00  -4.2962816444483964e+00  -4.1481250040582216e+00  -3.9999683636680001e+00  -3.8518117232776907e+00  -3.7036550828871926e+00  -3.5554984424963068e+00  -3.4073418021046149e+00  -3.2591851617112222e+00  -3.1110285213143531e+00  -2.9628718809101575e+00  -2.8147152404910063e+00  -2.6665586000404682e+00  -2.5184019595272047e+00  -2.3702453188789492e+00  -2.2220886779832023e+00  -2.0739320364743290e+00  -1.9257753941987203e+00  -1.7776187484667094e+00  -1.6294621035775327e+00  -1.4813054295811632e+00  -1.3331488153505688e+00  -1.1849918784794824e+00  -1.0368358586384081e+00  -8.8867634971025811e-01  -7.4052642532440305e-01  -5.9234759185732855e-01  -4.4423048166230983e-01  -2.9598031625442239e-01  -1.4781061860481720e-01  5.6716791927470327e-04  -1.1849324400710850e+01  -1.1703804369100720e+01  -1.1555872359363734e+01  -1.1407838015444080e+01  -1.1259752916157041e+01  -1.1111633534825831e+01  -1.0963490168555522e+01  -1.0815330860688851e+01  -1.0667162389873260e+01  -1.0518989325391120e+01  -1.0370814196589297e+01  -1.0222639486803976e+01  -1.0074467752071152e+01  -9.9263004687435448e+00  -9.7781373878492648e+00  -9.6299773343982764e+00  -9.4818190596007152e+00  -9.3336616954637321e+00  -9.1855047449973029e+00  -9.0373479729805855e+00  -8.8891912735871497e+00  -8.7410346059065791e+00  -8.5928779517449385e+00  -8.4447213045348324e+00  -8.2965646604767329e+00  -8.1484080182788468e+00  -8.0002513768856804e+00  -7.8520947360212965e+00  -7.7039380953574454e+00  -7.5557814548459712e+00  -7.4076248143814274e+00  -7.2594681739609026e+00  -7.1113115335506398e+00  -6.9631548931529341e+00  -6.8149982527574799e+00  -6.6668416123653946e+00  -6.5186849719739230e+00  -6.3705283315832038e+00  -6.2223716911928060e+00  -6.0742150508024562e+00  -5.9260584104123062e+00  -5.7779017700220656e+00  -5.6297451296319281e+00  -5.4815884892417781e+00  -5.3334318488516859e+00  -5.1852752084615474e+00  -5.0371185680714321e+00  -4.8889619276812750e+00  -4.7408052872911544e+00  -4.5926486469010177e+00  -4.4444920065108660e+00  -4.2963353661207018e+00  -4.1481787257305340e+00  -4.0000220853402739e+00  -3.8518654449499286e+00  -3.7037088045593443e+00  -3.5555521641683123e+00  -3.4073955237762643e+00  -3.2592388833821841e+00  -3.1110822429837683e+00  -2.9629256025766271e+00  -2.8147689621508847e+00  -2.6666123216879929e+00  -2.5184556811454053e+00  -2.3702990404522861e+00  -2.2221423994041358e+00  -2.0739857578454357e+00  -1.9258291143860171e+00  -1.7776724708311260e+00  -1.6295158115607251e+00  -1.4813591850793011e+00  -1.3332023632741012e+00  -1.1850461837841031e+00  -1.0368872929510973e+00  -8.8873782564437886e-01  -7.4055409809158323e-01  -5.9248078336431653e-01  -4.4406185821981453e-01  -2.9660870811182116e-01  -1.4664599724492780e-01  -2.0127718248219286e-03  -1.1777334503749078e+01  -1.1629715764669264e+01  -1.1481719729021657e+01  -1.1333656885434788e+01  -1.1185555796577315e+01  -1.1037426797990488e+01  -1.0889277377647007e+01  -1.0741114812713278e+01  -1.0592944673935586e+01  -1.0444771099288056e+01  -1.0296596366829473e+01  -1.0148422855038294e+01  -1.0000252820613817e+01  -9.8520872076826187e+00  -9.7039253834868884e+00  -9.5557661045258691e+00  -9.4076082411037127e+00  -9.2594510716337588e+00  -9.1112942067817979e+00  -8.9631374705367790e+00  -8.8149807864246750e+00  -8.6668241253276310e+00  -8.5186674743646282e+00  -8.3705108286475483e+00  -8.2223541854199507e+00  -8.0741975436013611e+00  -7.9260409024432716e+00  -7.7778842616734227e+00  -7.6297276210782021e+00  -7.4815709805881978e+00  -7.3334143401443121e+00  -7.1852576997278241e+00  -7.0371010593240069e+00  -6.8889444189267106e+00  -6.7407877785332966e+00  -6.5926311381410594e+00  -6.4444744977502477e+00  -6.2963178573594272e+00  -6.1481612169692319e+00  -6.0000045765788537e+00  -5.8518479361887676e+00  -5.7036912957985386e+00  -5.5555346554084402e+00  -5.4073780150182751e+00  -5.2592213746281793e+00  -5.1110647342380338e+00  -4.9629080938479193e+00  -4.8147514534577756e+00  -4.6665948130676389e+00  -4.5184381726774951e+00  -4.3702815322873443e+00  -4.2221248918971659e+00  -4.0739682515069680e+00  -3.9258116111166887e+00  -3.7776549707262537e+00  -3.6294983303354811e+00  -3.4813416899440179e+00  -3.3331850495511257e+00  -3.1850284091552563e+00  -3.0368717687532008e+00  -2.8887151283383345e+00  -2.7405584878970668e+00  -2.5924018474014363e+00  -2.4442452067949199e+00  -2.2960885659613481e+00  -2.1479319246737627e+00  -1.9997752824499337e+00  -1.85161863843686