<?xml version="1.0"?>
<VTKFile type="UnstructuredGrid"  version="0.1"  >
<UnstructuredGrid>
<Piece  NumberOfPoints="1369" NumberOfCells="2560">
<Points>
<DataArray  type="Float64"  NumberOfComponents="3"  format="ascii">0 0 0  0.75 0 0  1.5 0 0  2.25 0 0  3 0 0  3.75 0 0  4.5 0 0  5.25 0 0  6 0 0  6.75 0 0  7.5 0 0  8.25 0 0  9 0 0  9.75 0 0  10.5 0 0  11.25 0 0  12 0 0  12.75 0 0  13.5 0 0  14.25 0 0  15 0 0  15.75 0 0  16.5 0 0  17.25 0 0  18 0 0  18.75 0 0  19.5 0 0  20.25 0 0  21 0 0  21.75 0 0  22.5 0 0  23.25 0 0  24 0 0  24.75 0 0  25.5 0 0  26.25 0 0  27 0 0  27.75 0 0  28.5 0 0  29.25 0 0  30 0 0  30.75 0 0  31.5 0 0  32.25 0 0  33 0 0  33.75 0 0  34.5 0 0  35.25 0 0  36 0 0  36.75 0 0  37.5 0 0  38.25 0 0  39 0 0  39.75 0 0  40.5 0 0  41.25 0 0  42 0 0  42.75 0 0  43.5 0 0  44.25 0 0  45 0 0  45.75 0 0  46.5 0 0  47.25 0 0  48 0 0  48.75 0 0  49.5 0 0  50.25 0 0  51 0 0  51.75 0 0  52.5 0 0  53.25 0 0  54 0 0  54.75 0 0  55.5 0 0  56.25 0 0  57 0 0  57.75 0 0  58.5 0 0  59.25 0 0  60 0 0  0 0.5 0  0.75 0.5 0  1.5 0.5 0  2.25 0.5 0  3 0.5 0  3.75 0.5 0  4.5 0.5 0  5.25 0.5 0  6 0.5 0  6.75 0.5 0  7.5 0.5 0  8.25 0.5 0  9 0.5 0  9.75 0.5 0  10.5 0.5 0  11.25 0.5 0  12 0.5 0  12.75 0.5 0  13.5 0.5 0  14.25 0.5 0  15 0.5 0  15.75 0.5 0  16.5 0.5 0  17.25 0.5 0  18 0.5 0  18.75 0.5 0  19.5 0.5 0  20.25 0.5 0  21 0.5 0  21.75 0.5 0  22.5 0.5 0  23.25 0.5 0  24 0.5 0  24.75 0.5 0  25.5 0.5 0  26.25 0.5 0  27 0.5 0  27.75 0.5 0  28.5 0.5 0  29.25 0.5 0  30 0.5 0  30.75 0.5 0  31.5 0.5 0  32.25 0.5 0  33 0.5 0  33.75 0.5 0  34.5 0.5 0  35.25 0.5 0  36 0.5 0  36.75 0.5 0  37.5 0.5 0  38.25 0.5 0  39 0.5 0  39.75 0.5 0  40.5 0.5 0  41.25 0.5 0  42 0.5 0  42.75 0.5 0  43.5 0.5 0  44.25 0.5 0  45 0.5 0  45.75 0.5 0  46.5 0.5 0  47.25 0.5 0  48 0.5 0  48.75 0.5 0  49.5 0.5 0  50.25 0.5 0  51 0.5 0  51.75 0.5 0  52.5 0.5 0  53.25 0.5 0  54 0.5 0  54.75 0.5 0  55.5 0.5 0  56.25 0.5 0  57 0.5 0  57.75 0.5 0  58.5 0.5 0  59.25 0.5 0  60 0.5 0  0 1 0  0.75 1 0  1.5 1 0  2.25 1 0  3 1 0  3.75 1 0  4.5 1 0  5.25 1 0  6 1 0  6.75 1 0  7.5 1 0  8.25 1 0  9 1 0  9.75 1 0  10.5 1 0  11.25 1 0  12 1 0  12.75 1 0  13.5 1 0  14.25 1 0  15 1 0  15.75 1 0  16.5 1 0  17.25 1 0  18 1 0  18.75 1 0  19.5 1 0  20.25 1 0  21 1 0  21.75 1 0  22.5 1 0  23.25 1 0  24 1 0  24.75 1 0  25.5 1 0  26.25 1 0  27 1 0  27.75 1 0  28.5 1 0  29.25 1 0  30 1 0  30.75 1 0  31.5 1 0  32.25 1 0  33 1 0  33.75 1 0  34.5 1 0  35.25 1 0  36 1 0  36.75 1 0  37.5 1 0  38.25 1 0  39 1 0  39.75 1 0  40.5 1 0  41.25 1 0  42 1 0  42.75 1 0  43.5 1 0  44.25 1 0  45 1 0  45.75 1 0  46.5 1 0  47.25 1 0  48 1 0  48.75 1 0  49.5 1 0  50.25 1 0  51 1 0  51.75 1 0  52.5 1 0  53.25 1 0  54 1 0  54.75 1 0  55.5 1 0  56.25 1 0  57 1 0  57.75 1 0  58.5 1 0  59.25 1 0  60 1 0  0 1.5 0  0.75 1.5 0  1.5 1.5 0  2.25 1.5 0  3 1.5 0  3.75 1.5 0  4.5 1.5 0  5.25 1.5 0  6 1.5 0  6.75 1.5 0  7.5 1.5 0  8.25 1.5 0  9 1.5 0  9.75 1.5 0  10.5 1.5 0  11.25 1.5 0  12 1.5 0  12.75 1.5 0  13.5 1.5 0  14.25 1.5 0  15 1.5 0  15.75 1.5 0  16.5 1.5 0  17.25 1.5 0  18 1.5 0  18.75 1.5 0  19.5 1.5 0  20.25 1.5 0  21 1.5 0  21.75 1.5 0  22.5 1.5 0  23.25 1.5 0  24 1.5 0  24.75 1.5 0  25.5 1.5 0  26.25 1.5 0  27 1.5 0  27.75 1.5 0  28.5 1.5 0  29.25 1.5 0  30 1.5 0  30.75 1.5 0  31.5 1.5 0  32.25 1.5 0  33 1.5 0  33.75 1.5 0  34.5 1.5 0  35.25 1.5 0  36 1.5 0  36.75 1.5 0  37.5 1.5 0  38.25 1.5 0  39 1.5 0  39.75 1.5 0  40.5 1.5 0  41.25 1.5 0  42 1.5 0  42.75 1.5 0  43.5 1.5 0  44.25 1.5 0  45 1.5 0  45.75 1.5 0  46.5 1.5 0  47.25 1.5 0  48 1.5 0  48.75 1.5 0  49.5 1.5 0  50.25 1.5 0  51 1.5 0  51.75 1.5 0  52.5 1.5 0  53.25 1.5 0  54 1.5 0  54.75 1.5 0  55.5 1.5 0  56.25 1.5 0  57 1.5 0  57.75 1.5 0  58.5 1.5 0  59.25 1.5 0  60 1.5 0  0 2 0  0.75 2 0  1.5 2 0  2.25 2 0  3 2 0  3.75 2 0  4.5 2 0  5.25 2 0  6 2 0  6.75 2 0  7.5 2 0  8.25 2 0  9 2 0  9.75 2 0  10.5 2 0  11.25 2 0  12 2 0  12.75 2 0  13.5 2 0  14.25 2 0  15 2 0  15.75 2 0  16.5 2 0  17.25 2 0  18 2 0  18.75 2 0  19.5 2 0  20.25 2 0  21 2 0  21.75 2 0  22.5 2 0  23.25 2 0  24 2 0  24.75 2 0  25.5 2 0  26.25 2 0  27 2 0  27.75 2 0  28.5 2 0  29.25 2 0  30 2 0  30.75 2 0  31.5 2 0  32.25 2 0  33 2 0  33.75 2 0  34.5 2 0  35.25 2 0  36 2 0  36.75 2 0  37.5 2 0  38.25 2 0  39 2 0  39.75 2 0  40.5 2 0  41.25 2 0  42 2 0  42.75 2 0  43.5 2 0  44.25 2 0  45 2 0  45.75 2 0  46.5 2 0  47.25 2 0  48 2 0  48.75 2 0  49.5 2 0  50.25 2 0  51 2 0  51.75 2 0  52.5 2 0  53.25 2 0  54 2 0  54.75 2 0  55.5 2 0  56.25 2 0  57 2 0  57.75 2 0  58.5 2 0  59.25 2 0  60 2 0  0 2.5 0  0.75 2.5 0  1.5 2.5 0  2.25 2.5 0  3 2.5 0  3.75 2.5 0  4.5 2.5 0  5.25 2.5 0  6 2.5 0  6.75 2.5 0  7.5 2.5 0  8.25 2.5 0  9 2.5 0  9.75 2.5 0  10.5 2.5 0  11.25 2.5 0  12 2.5 0  12.75 2.5 0  13.5 2.5 0  14.25 2.5 0  15 2.5 0  15.75 2.5 0  16.5 2.5 0  17.25 2.5 0  18 2.5 0  18.75 2.5 0  19.5 2.5 0  20.25 2.5 0  21 2.5 0  21.75 2.5 0  22.5 2.5 0  23.25 2.5 0  24 2.5 0  24.75 2.5 0  25.5 2.5 0  26.25 2.5 0  27 2.5 0  27.75 2.5 0  28.5 2.5 0  29.25 2.5 0  30 2.5 0  30.75 2.5 0  31.5 2.5 0  32.25 2.5 0  33 2.5 0  33.75 2.5 0  34.5 2.5 0  35.25 2.5 0  36 2.5 0  36.75 2.5 0  37.5 2.5 0  38.25 2.5 0  39 2.5 0  39.75 2.5 0  40.5 2.5 0  41.25 2.5 0  42 2.5 0  42.75 2.5 0  43.5 2.5 0  44.25 2.5 0  45 2.5 0  45.75 2.5 0  46.5 2.5 0  47.25 2.5 0  48 2.5 0  48.75 2.5 0  49.5 2.5 0  50.25 2.5 0  51 2.5 0  51.75 2.5 0  52.5 2.5 0  53.25 2.5 0  54 2.5 0  54.75 2.5 0  55.5 2.5 0  56.25 2.5 0  57 2.5 0  57.75 2.5 0  58.5 2.5 0  59.25 2.5 0  60 2.5 0  0 3 0  0.75 3 0  1.5 3 0  2.25 3 0  3 3 0  3.75 3 0  4.5 3 0  5.25 3 0  6 3 0  6.75 3 0  7.5 3 0  8.25 3 0  9 3 0  9.75 3 0  10.5 3 0  11.25 3 0  12 3 0  12.75 3 0  13.5 3 0  14.25 3 0  15 3 0  15.75 3 0  16.5 3 0  17.25 3 0  18 3 0  18.75 3 0  19.5 3 0  20.25 3 0  21 3 0  21.75 3 0  22.5 3 0  23.25 3 0  24 3 0  24.75 3 0  25.5 3 0  26.25 3 0  27 3 0  27.75 3 0  28.5 3 0  29.25 3 0  30 3 0  30.75 3 0  31.5 3 0  32.25 3 0  33 3 0  33.75 3 0  34.5 3 0  35.25 3 0  36 3 0  36.75 3 0  37.5 3 0  38.25 3 0  39 3 0  39.75 3 0  40.5 3 0  41.25 3 0  42 3 0  42.75 3 0  43.5 3 0  44.25 3 0  45 3 0  45.75 3 0  46.5 3 0  47.25 3 0  48 3 0  48.75 3 0  49.5 3 0  50.25 3 0  51 3 0  51.75 3 0  52.5 3 0  53.25 3 0  54 3 0  54.75 3 0  55.5 3 0  56.25 3 0  57 3 0  57.75 3 0  58.5 3 0  59.25 3 0  60 3 0  0 3.5 0  0.75 3.5 0  1.5 3.5 0  2.25 3.5 0  3 3.5 0  3.75 3.5 0  4.5 3.5 0  5.25 3.5 0  6 3.5 0  6.75 3.5 0  7.5 3.5 0  8.25 3.5 0  9 3.5 0  9.75 3.5 0  10.5 3.5 0  11.25 3.5 0  12 3.5 0  12.75 3.5 0  13.5 3.5 0  14.25 3.5 0  15 3.5 0  15.75 3.5 0  16.5 3.5 0  17.25 3.5 0  18 3.5 0  18.75 3.5 0  19.5 3.5 0  20.25 3.5 0  21 3.5 0  21.75 3.5 0  22.5 3.5 0  23.25 3.5 0  24 3.5 0  24.75 3.5 0  25.5 3.5 0  26.25 3.5 0  27 3.5 0  27.75 3.5 0  28.5 3.5 0  29.25 3.5 0  30 3.5 0  30.75 3.5 0  31.5 3.5 0  32.25 3.5 0  33 3.5 0  33.75 3.5 0  34.5 3.5 0  35.25 3.5 0  36 3.5 0  36.75 3.5 0  37.5 3.5 0  38.25 3.5 0  39 3.5 0  39.75 3.5 0  40.5 3.5 0  41.25 3.5 0  42 3.5 0  42.75 3.5 0  43.5 3.5 0  44.25 3.5 0  45 3.5 0  45.75 3.5 0  46.5 3.5 0  47.25 3.5 0  48 3.5 0  48.75 3.5 0  49.5 3.5 0  50.25 3.5 0  51 3.5 0  51.75 3.5 0  52.5 3.5 0  53.25 3.5 0  54 3.5 0  54.75 3.5 0  55.5 3.5 0  56.25 3.5 0  57 3.5 0  57.75 3.5 0  58.5 3.5 0  59.25 3.5 0  60 3.5 0  0 4 0  0.75 4 0  1.5 4 0  2.25 4 0  3 4 0  3.75 4 0  4.5 4 0  5.25 4 0  6 4 0  6.75 4 0  7.5 4 0  8.25 4 0  9 4 0  9.75 4 0  10.5 4 0  11.25 4 0  12 4 0  12.75 4 0  13.5 4 0  14.25 4 0  15 4 0  15.75 4 0  16.5 4 0  17.25 4 0  18 4 0  18.75 4 0  19.5 4 0  20.25 4 0  21 4 0  21.75 4 0  22.5 4 0  23.25 4 0  24 4 0  24.75 4 0  25.5 4 0  26.25 4 0  27 4 0  27.75 4 0  28.5 4 0  29.25 4 0  30 4 0  30.75 4 0  31.5 4 0  32.25 4 0  33 4 0  33.75 4 0  34.5 4 0  35.25 4 0  36 4 0  36.75 4 0  37.5 4 0  38.25 4 0  39 4 0  39.75 4 0  40.5 4 0  41.25 4 0  42 4 0  42.75 4 0  43.5 4 0  44.25 4 0  45 4 0  45.75 4 0  46.5 4 0  47.25 4 0  48 4 0  48.75 4 0  49.5 4 0  50.25 4 0  51 4 0  51.75 4 0  52.5 4 0  53.25 4 0  54 4 0  54.75 4 0  55.5 4 0  56.25 4 0  57 4 0  57.75 4 0  58.5 4 0  59.25 4 0  60 4 0  0.375 0.25 0  1.125 0.25 0  1.875 0.25 0  2.625 0.25 0  3.375 0.25 0  4.125 0.25 0  4.875 0.25 0  5.625 0.25 0  6.375 0.25 0  7.125 0.25 0  7.875 0.25 0  8.625 0.25 0  9.375 0.25 0  10.125 0.25 0  10.875 0.25 0  11.625 0.25 0  12.375 0.25 0  13.125 0.25 0  13.875 0.25 0  14.625 0.25 0  15.375 0.25 0  16.125 0.25 0  16.875 0.25 0  17.625 0.25 0  18.375 0.25 0  19.125 0.25 0  19.875 0.25 0  20.625 0.25 0  21.375 0.25 0  22.125 0.25 0  22.875 0.25 0  23.625 0.25 0  24.375 0.25 0  25.125 0.25 0  25.875 0.25 0  26.625 0.25 0  27.375 0.25 0  28.125 0.25 0  28.875 0.25 0  29.625 0.25 0  30.375 0.25 0  31.125 0.25 0  31.875 0.25 0  32.625 0.25 0  33.375 0.25 0  34.125 0.25 0  34.875 0.25 0  35.625 0.25 0  36.375 0.25 0  37.125 0.25 0  37.875 0.25 0  38.625 0.25 0  39.375 0.25 0  40.125 0.25 0  40.875 0.25 0  41.625 0.25 0  42.375 0.25 0  43.125 0.25 0  43.875 0.25 0  44.625 0.25 0  45.375 0.25 0  46.125 0.25 0  46.875 0.25 0  47.625 0.25 0  48.375 0.25 0  49.125 0.25 0  49.875 0.25 0  50.625 0.25 0  51.375 0.25 0  52.125 0.25 0  52.875 0.25 0  53.625 0.25 0  54.375 0.25 0  55.125 0.25 0  55.875 0.25 0  56.625 0.25 0  57.375 0.25 0  58.125 0.25 0  58.875 0.25 0  59.625 0.25 0  0.375 0.75 0  1.125 0.75 0  1.875 0.75 0  2.625 0.75 0  3.375 0.75 0  4.125 0.75 0  4.875 0.75 0  5.625 0.75 0  6.375 0.75 0  7.125 0.75 0  7.875 0.75 0  8.625 0.75 0  9.375 0.75 0  10.125 0.75 0  10.875 0.75 0  11.625 0.75 0  12.375 0.75 0  13.125 0.75 0  13.875 0.75 0  14.625 0.75 0  15.375 0.75 0  16.125 0.75 0  16.875 0.75 0  17.625 0.75 0  18.375 0.75 0  19.125 0.75 0  19.875 0.75 0  20.625 0.75 0  21.375 0.75 0  22.125 0.75 0  22.875 0.75 0  23.625 0.75 0  24.375 0.75 0  25.125 0.75 0  25.875 0.75 0  26.625 0.75 0  27.375 0.75 0  28.125 0.75 0  28.875 0.75 0  29.625 0.75 0  30.375 0.75 0  31.125 0.75 0  31.875 0.75 0  32.625 0.75 0  33.375 0.75 0  34.125 0.75 0  34.875 0.75 0  35.625 0.75 0  36.375 0.75 0  37.125 0.75 0  37.875 0.75 0  38.625 0.75 0  39.375 0.75 0  40.125 0.75 0  40
[...]
<PointData  Scalars="f_8-1"> 
<DataArray  type="Float64"  Name="f_8-1"  format="ascii">-1.8780891184153268e+00  -1.8538231437810577e+00  -1.8303326554616459e+00  -1.8068552805377445e+00  -1.7833878191325772e+00  -1.7599236058565164e+00  -1.7364611429121046e+00  -1.7129999365573210e+00  -1.6895398127413974e+00  -1.6660808439287733e+00  -1.6426230825325541e+00  -1.6191663026266436e+00  -1.5957100502248358e+00  -1.5722539089280707e+00  -1.5487976499244469e+00  -1.5253412214372872e+00  -1.5018846610164578e+00  -1.4784280265037260e+00  -1.4549713617433706e+00  -1.4315146913193608e+00  -1.4080580249539658e+00  -1.3846013646180944e+00  -1.3611447089914244e+00  -1.3376880562443829e+00  -1.3142314048777175e+00  -1.2907747540425623e+00  -1.2673181033318208e+00  -1.2438614526543066e+00  -1.2204048020351077e+00  -1.1969481515494103e+00  -1.1734915012500517e+00  -1.1500348511667566e+00  -1.1265782012955234e+00  -1.1031215516156154e+00  -1.0796649020935787e+00  -1.0562082526956791e+00  -1.0327516033901329e+00  -1.0092949541518983e+00  -9.8583830496167346e-01  -9.6238165580638724e-01  -9.3892500667734824e-01  -9.1546835756945755e-01  -8.9201170847987277e-01  -8.6855505940719102e-01  -8.4509841035102617e-01  -8.2164176131077871e-01  -7.9818511228719236e-01  -7.7472846327775502e-01  -7.5127181428634560e-01  -7.2781516530138202e-01  -7.0435851634386060e-01  -6.8090186736180114e-01  -6.5744521846091786e-01  -6.3398856940405124e-01  -6.1053192069209039e-01  -5.8707527124620684e-01  -5.6361862334458568e-01  -5.4016197218963580e-01  -5.1670532777074452e-01  -4.9324866947669599e-01  -4.6979203934841535e-01  -4.4633535268055136e-01  -4.2287877776550126e-01  -3.9942198542284241e-01  -3.7596560816463315e-01  -3.5250845454591101e-01  -3.2905271632349187e-01  -3.0559445731065493e-01  -2.8214050130985951e-01  -2.5867927788266371e-01  -2.3522924250180852e-01  -2.1176121370792472e-01  -1.8831809845518266e-01  -1.6484291410365262e-01  -1.4142333518703315e-01  -1.1796906380428973e-01  -9.4529997836929724e-02  -7.1060400287751929e-02  -4.7330572735336876e-02  -2.4286012784255167e-02  1.1103412182289891e-03  -1.8771958503510897e+00  -1.8538307554337938e+00  -1.8303214236778893e+00  -1.8068506282937047e+00  -1.7833851064355772e+00  -1.7599218356754138e+00  -1.7364598594900917e+00  -1.7129989025727950e+00  -1.6895389075614478e+00  -1.6660799861755049e+00  -1.6426221771248464e+00  -1.6191652360753543e+00  -1.5957087461717261e+00  -1.5722523568825555e+00  -1.5487958924992373e+00  -1.5253393197786105e+00  -1.5018826701968211e+00  -1.4784259851881982e+00  -1.4549692932190144e+00  -1.4315126079058309e+00  -1.4080559327153563e+00  -1.3845992664422639e+00  -1.3611426064205434e+00  -1.3376859502729270e+00  -1.3142292962916202e+00  -1.2907726434953306e+00  -1.2673159913632595e+00  -1.2438593396859809e+00  -1.2204026883795889e+00  -1.1969460374261109e+00  -1.1734893868057630e+00  -1.1500327364966285e+00  -1.1265760864596805e+00  -1.1031194366529653e+00  -1.0796627870301210e+00  -1.0562061375505982e+00  -1.0327494881784813e+00  -1.0092928388864257e+00  -9.8583618965321707e-01  -9.6237954046429663e-01  -9.3892289130937834e-01  -9.1546624218203210e-01  -8.9200959307793259e-01  -8.6855294399479388e-01  -8.4509629493059524e-01  -8.2163964588523331e-01  -7.9818299685586680e-01  -7.7472634784574390e-01  -7.5126969884476980e-01  -7.2781304987023621e-01  -7.0435640088071017e-01  -6.8089975195613694e-01  -6.5744310292435193e-01  -6.3398645412850740e-01  -6.1052980486824859e-01  -5.8707315652919778e-01  -5.6361650638463212e-01  -5.4015985969425573e-01  -5.1670320646902479e-01  -4.9324656530092598e-01  -4.6978990230574574e-01  -4.4633327778512716e-01  -4.2287658716067122e-01  -3.9942000671624833e-01  -3.7596324811380133e-01  -3.5250676783655838e-01  -3.2904986452048096e-01  -3.0559357517553570e-01  -2.8213637874060954e-01  -2.5868033589702499e-01  -2.3522242654197387e-01  -2.1176609943902050e-01  -1.8830773563638842e-01  -1.6485262379818200e-01  -1.4141341951191178e-01  -1.1796392625380034e-01  -9.4522009517191197e-02  -7.0949415621176237e-02  -4.7452220983135965e-02  -2.3735318536421277e-02  -2.0708525082361866e-04  -1.8772146241415064e+00  -1.8537798569395096e+00  -1.8303070405329849e+00  -1.8068340710616235e+00  -1.7833661538742205e+00  -1.7599011153875144e+00  -1.7364380289998647e+00  -1.7129764040732434e+00  -1.6895160008294907e+00  -1.6660566778736023e+00  -1.6425983500019008e+00  -1.6191408950399531e+00  -1.5956840681722342e+00  -1.5722275647637565e+00  -1.5487711452027306e+00  -1.5253146843706149e+00  -1.5018581490150449e+00  -1.4784015514830893e+00  -1.4549449161934380e+00  -1.4314882633155501e+00  -1.4080316051140622e+00  -1.3845749472477484e+00  -1.3611182914950037e+00  -1.3376616377887713e+00  -1.3142049855177371e+00  -1.2907483340741099e+00  -1.2672916830600325e+00  -1.2438350322697589e+00  -1.2203783816356750e+00  -1.1969217311557057e+00  -1.1734650808507456e+00  -1.1500084307360396e+00  -1.1265517808132510e+00  -1.1030951310693058e+00  -1.0796384814815867e+00  -1.0561818320228504e+00  -1.0327251826661099e+00  -1.0092685333873850e+00  -9.8581188416720666e-01  -9.6235523499077946e-01  -9.3889858584763430e-01  -9.1544193673060770e-01  -8.9198528763537877e-01  -8.6852863855884110e-01  -8.4507198950027096e-01  -8.2161534045682061e-01  -7.9815869143184315e-01  -7.7470204241592000e-01  -7.5124539342648189e-01  -7.2778874442366071e-01  -7.0433209548613351e-01  -6.8087544644649567e-01  -6.5741879763942224e-01  -6.3396214838389153e-01  -6.1050550002588910e-01  -5.8704884992042161e-01  -5.6359220316162317e-01  -5.4013555008773317e-01  -5.1667890865521082e-01  -4.9322224618275268e-01  -4.6976562075227735e-01  -4.4630893177264663e-01  -4.2285234858545295e-01  -3.9939559460165042e-01  -3.7593910736738539e-01  -3.5248221593060652e-01  -3.2902591834696487e-01  -3.0556875930041150e-01  -2.8211282079899402e-01  -2.5865508898528650e-01  -2.3519989749705603e-01  -2.1174094049591749e-01  -1.8828803432499647e-01  -1.6482892184947220e-01  -1.4138509789028050e-01  -1.1791794342480032e-01  -9.4450525399210852e-02  -7.0883063070690949e-02  -4.7358275647384512e-02  -2.3672572795934529e-02  -4.5843169143456594e-06  -1.8772131466505764e+00  -1.8537565304537778e+00  -1.8302889635607689e+00  -1.8068174016364960e+00  -1.7833481979222636e+00  -1.7598819502653276e+00  -1.7364180510170786e+00  -1.7129559205458884e+00  -1.6894951955521285e+00  -1.6660355665417006e+00  -1.6425768708105231e+00  -1.6191190705245326e+00  -1.5956620291781201e+00  -1.5722054638897505e+00  -1.5487490874048793e+00  -1.5252927119526893e+00  -1.5018362611415714e+00  -1.4783797282606921e+00  -1.4549231353039973e+00  -1.4314665071622594e+00  -1.4080098623095632e+00  -1.3845532113365751e+00  -1.3610965592383710e+00  -1.3376399076839185e+00  -1.3141832568987681e+00  -1.2907266065975214e+00  -1.2672699564966008e+00  -1.2438133064186045e+00  -1.2203566563174328e+00  -1.1969000062136237e+00  -1.1734433561604896e+00  -1.1499867062048639e+00  -1.1265300563784659e+00  -1.1030734066911765e+00  -1.0796167571375221e+00  -1.0561601077008800e+00  -1.0327034583606858e+00  -1.0092468090959263e+00  -9.8579015988843854e-01  -9.6233351072361184e-01  -9.3887686159081618e-01  -9.1542021248281114e-01  -8.9196356339478577e-01  -8.6850691432436444e-01  -8.4505026526920179e-01  -8.2159361623021554e-01  -7.9813696720306948e-01  -7.7468031819524463e-01  -7.5122366918907402e-01  -7.2776702021882655e-01  -7.0431037121004569e-01  -6.8085372231050822e-01  -6.5739707321511864e-01  -6.3394042452841459e-01  -6.1048377504758111e-01  -5.8702712711252170e-01  -5.6357047621654088e-01  -5.4011383088418863e-01  -5.1665717524372679e-01  -4.9320053830515076e-01  -4.6974386802933354e-01  -4.4628725593614488e-01  -4.2283054425146654e-01  -3.9937399961520625e-01  -3.7591717966805177e-01  -3.5246080593365847e-01  -3.2900371751013241e-01  -3.0554776310199694e-01  -2.8209003077919270e-01  -2.5863511122473570e-01  -2.3517599611871798e-01  -2.1172364944711433e-01  -1.8826242822352990e-01  -1.6481507077527166e-01  -1.4134969898035282e-01  -1.1789474576575262e-01  -9.4390481847403743e-02  -7.0846951149816539e-02  -4.7292320713706058e-02  -2.3615402191486640e-02  -5.4014195403893548e-05  -1.8772073672951055e+00  -1.8537552337822500e+00  -1.8302888856243478e+00  -1.8068185375664416e+00  -1.7833494427520582e+00  -1.7598830304884838e+00  -1.7364189769221925e+00  -1.7129567467889943e+00  -1.6894959458404621e+00  -1.6660362656353969e+00  -1.6425775322247786e+00  -1.6191196798562446e+00  -1.5956625730042731e+00  -1.5722059529850889e+00  -1.5487495459677039e+00  -1.5252931620519257e+00  -1.5018367150704075e+00  -1.4783801900389149e+00  -1.4549236042006384e+00  -1.4314669809984761e+00  -1.4080103389687040e+00  -1.3845536893904253e+00  -1.3610970378628733e+00  -1.3376403865069511e+00  -1.3141837357755068e+00  -1.2907270855007269e+00  -1.2672704354282729e+00  -1.2438137853885007e+00  -1.2203571353257436e+00  -1.1969004852560314e+00  -1.1734438352277530e+00  -1.1499871852882118e+00  -1.1265305354698434e+00  -1.1030738857852012e+00  -1.0796172362306948e+00  -1.0561605867917028e+00  -1.0327039374487188e+00  -1.0092472881815322e+00  -9.8579063897219310e-01  -9.6233398980617280e-01  -9.3887734067275153e-01  -9.1542069156442740e-01  -8.9196404247655880e-01  -8.6850739340591376e-01  -8.4505074435161598e-01  -8.2159409531116423e-01  -7.9813744628732508e-01  -7.7468079727240846e-01  -7.5122414828059814e-01  -7.2776749927973083e-01  -7.0431085033261354e-01  -6.8085420130628926e-01  -6.5739755246396869e-01  -6.3394090327312147e-01  -6.1048425477829482e-01  -5.8702760493666140e-01  -5.6357095766740606e-01  -5.4011430554287809e-01  -5.1665766240369926e-01  -4.9320100286509377e-01  -4.6974437268785552e-01  -4.4628769078981151e-01  -4.2283109834718025e-01  -3.9937435366248097e-01  -3.7591786380653008e-01  -3.5246095321384341e-01  -3.2900472815249682e-01  -3.0554740212184167e-01  -2.8209184031127005e-01  -2.5863357445066754e-01  -2.3517964507635028e-01  -2.1171977543825413e-01  -1.8826934721586464e-01  -1.6480715910033536e-01  -1.4135777061778265e-01  -1.1787948398183946e-01  -9.4388029496807191e-02  -7.0841365398348968e-02  -4.7264295662666538e-02  -2.3648223776795547e-02  1.2106756123445584e-05  -1.8772131466505848e+00  -1.8537565304537651e+00  -1.8302889635607809e+00  -1.8068174016364895e+00  -1.7833481979222687e+00  -1.7598819502653233e+00  -1.7364180510170799e+00  -1.7129559205458915e+00  -1.6894951955521336e+00  -1.6660355665417030e+00  -1.6425768708105233e+00  -1.6191190705245282e+00  -1.5956620291781269e+00  -1.5722054638897525e+00  -1.5487490874048770e+00  -1.5252927119526798e+00  -1.5018362611415743e+00  -1.4783797282606914e+00  -1.4549231353039986e+00  -1.4314665071622592e+00  -1.4080098623095636e+00  -1.3845532113365766e+00  -1.3610965592383715e+00  -1.3376399076839169e+00  -1.3141832568987735e+00  -1.2907266065975227e+00  -1.2672699564966050e+00  -1.2438133064185981e+00  -1.2203566563174384e+00  -1.1969000062136244e+00  -1.1734433561604940e+00  -1.1499867062048712e+00  -1.1265300563784668e+00  -1.1030734066911854e+00  -1.0796167571375188e+00  -1.0561601077008855e+00  -1.0327034583606864e+00  -1.0092468090959350e+00  -9.8579015988843233e-01  -9.6233351072361795e-01  -9.3887686159081962e-01  -9.1542021248280425e-01  -8.9196356339478355e-01  -8.6850691432436633e-01  -8.4505026526919524e-01  -8.2159361623021865e-01  -7.9813696720306271e-01  -7.7468031819524075e-01  -7.5122366918907491e-01  -7.2776702021882500e-01  -7.0431037121004758e-01  -6.8085372231050778e-01  -6.5739707321512042e-01  -6.3394042452841470e-01  -6.1048377504757989e-01  -5.8702712711251748e-01  -5.6357047621654155e-01  -5.4011383088418352e-01  -5.1665717524372790e-01  -4.9320053830515020e-01  -4.6974386802933027e-01  -4.4628725593614899e-01  -4.2283054425146333e-01  -3.9937399961520487e-01  -3.7591717966805083e-01  -3.5246080593365586e-01  -3.2900371751013324e-01  -3.0554776310199688e-01  -2.8209003077919093e-01  -2.5863511122473937e-01  -2.3517599611871937e-01  -2.1172364944711689e-01  -1.8826242822352876e-01  -1.6481507077527285e-01  -1.4134969898034852e-01  -1.1789474576575047e-01  -9.4390481847398941e-02  -7.0846951149814041e-02  -4.7292320713705725e-02  -2.3615402191488465e-02  -5.4014195403667166e-05  -1.8772146241415006e+00  -1.8537798569395214e+00  -1.8303070405329878e+00  -1.8068340710616275e+00  -1.7833661538742165e+00  -1.7599011153875168e+00  -1.7364380289998536e+00  -1.7129764040732609e+00  -1.6895160008294854e+00  -1.6660566778736159e+00  -1.6425983500018919e+00  -1.6191408950399666e+00  -1.5956840681722397e+00  -1.5722275647637631e+00  -1.5487711452027282e+00  -1.5253146843706042e+00  -1.5018581490150442e+00  -1.4784015514830864e+00  -1.4549449161934425e+00  -1.4314882633155417e+00  -1.4080316051140718e+00  -1.3845749472477393e+00  -1.3611182914950080e+00  -1.3376616377887636e+00  -1.3142049855177531e+00  -1.2907483340741106e+00  -1.2672916830600287e+00  -1.2438350322697649e+00  -1.2203783816356764e+00  -1.1969217311557128e+00  -1.1734650808507505e+00  -1.1500084307360479e+00  -1.1265517808132515e+00  -1.1030951310693187e+00  -1.0796384814815820e+00  -1.0561818320228555e+00  -1.0327251826661195e+00  -1.0092685333873908e+00  -9.8581188416720356e-01  -9.6235523499078779e-01  -9.3889858584763086e-01  -9.1544193673060359e-01  -8.9198528763537555e-01  -8.6852863855884055e-01  -8.4507198950026274e-01  -8.2161534045682516e-01  -7.9815869143183860e-01  -7.7470204241591234e-01  -7.5124539342648389e-01  -7.2778874442366148e-01  -7.0433209548613263e-01  -6.8087544644649911e-01  -6.5741879763942135e-01  -6.3396214838389409e-01  -6.1050550002588511e-01  -5.8704884992041384e-01  -5.6359220316162151e-01  -5.4013555008772507e-01  -5.1667890865520893e-01  -4.9322224618275151e-01  -4.6976562075227923e-01  -4.4630893177264463e-01  -4.2285234858545423e-01  -3.9939559460164176e-01  -3.7593910736738473e-01  -3.5248221593060219e-01  -3.2902591834696709e-01  -3.0556875930041244e-01  -2.8211282079899475e-01  -2.5865508898528861e-01  -2.3519989749706066e-01  -2.1174094049591974e-01  -1.8828803432499747e-01  -1.6482892184947295e-01  -1.4138509789028014e-01  -1.1791794342479500e-01  -9.4450525399208216e-02  -7.0883063070691171e-02  -4.7358275647378274e-02  -2.3672572795933156e-02  -4.5843169149519452e-06  -1.8771958503511024e+00  -1.8538307554337845e+00  -1.8303214236779375e+00  -1.8068506282936803e+00  -1.7833851064356032e+00  -1.7599218356753887e+00  -1.7364598594901461e+00  -1.7129989025727839e+00  -1.6895389075614693e+00  -1.6660799861754827e+00  -1.6426221771248730e+00  -1.6191652360753395e+00  -1.5957087461717456e+00  -1.5722523568825604e+00  -1.5487958924992131e+00  -1.5253393197786169e+00  -1.5018826701968089e+00  -1.4784259851882220e+00  -1.4549692932190019e+00  -1.4315126079058316e+00  -1.4080559327153339e+00  -1.3845992664422877e+00  -1.3611426064205181e+00  -1.3376859502729641e+00  -1.3142292962916078e+00  -1.2907726434953339e+00  -1.2673159913632657e+00  -1.2438593396859694e+00  -1.2204026883795835e+00  -1.1969460374261309e+00  -1.1734893868057752e+00  -1.1500327364966192e+00  -1.1265760864597127e+00  -1.1031194366529584e+00  -1.0796627870301270e+00  -1.0562061375506095e+00  -1.0327494881784980e+00  -1.0092928388864284e+00  -9.8583618965321840e-01  -9.6237954046428487e-01  -9.3892289130938322e-01  -9.1546624218201755e-01  -8.9200959307793959e-01  -8.6855294399478433e-01  -8.4509629493060534e-01  -8.2163964588521743e-01  -7.9818299685586902e-01  -7.7472634784573613e-01  -7.5126969884477224e-01  -7.2781304987022544e-01  -7.0435640088070339e-01  -6.8089975195615404e-01  -6.5744310292434138e-01  -6.3398645412850163e-01  -6.1052980486825670e-01  -5.8707315652919156e-01  -5.6361650638461913e-01  -5.4015985969425495e-01  -5.1670320646901291e-01  -4.9324656530093325e-01  -4.6978990230574191e-01  -4.4633327778513987e-01  -4.2287658716066107e-01  -3.9942000671624439e-01  -3.7596324811379306e-01  -3.5250676783656493e-01  -3.2904986452048385e-01  -3.0559357517553892e-01  -2.8213637874060016e-01  -2.5868033589703437e-01  -2.3522242654197725e-01  -2.1176609943902330e-01  -1.8830773563639125e-01  -1.6485262379818355e-01  -1.4141341951191572e-01  -1.1796392625380027e-01  -9.4522009517187672e-02  -7.0949415621164288e-02  -4.7452220983129442e-02  -2.3735318536419258e-02  -2.0708525082436432e-04  -1.8780891184153252e+00  -1.8538231437810628e+00  -1.8303326554616790e+00  -1.8068552805377358e+00  -1.7833878191325905e+00  -1.7599236058565191e+00  -1.7364611429121539e+00  -1.7129999365573108e+00  -1.6895398127414147e+00  -1.6660808439287642e+00  -1.6426230825325780e+00  -1.6191663026266325e+00  -1.5957100502248571e+00  -1.5722539089280767e+00  -1.5487976499244140e+00  -1.5253412214372930e+00  -1.5018846610164693e+00  -1.4784280265037353e+00  -1.4549713617433666e+00  -1.4315146913193457e+00  -1.4080580249539683e+00  -1.3846013646180981e+00  -1.3611447089914186e+00  -1.3376880562444085e+00  -1.3142314048777113e+00  -1.2907747540425760e+00  -1.2673181033318113e+00  -1.2438614526542948e+00  -1.2204048020351070e+00  -1.1969481515494453e+00  -1.1734915012500551e+00  -1.1500348511667602e+00  -1.1265782012955481e+00  -1.1031215516156088e+00  -1.0796649020935865e+00  -1.0562082526956857e+00  -1.0327516033901398e+00  -1.0092949541519076e+00  -9.8583830496168101e-01  -9.6238165580637136e-01  -9.3892500667734990e-01  -9.1546835756944978e-01  -8.9201170847987277e-01  -8.6855505940719058e-01  -8.4509841035103528e-01  -8.2164176131076350e-01  -7.9818511228719224e-01  -7.7472846327774536e-01  -7.5127181428634771e-01  -7.2781516530136892e-01  -7.0435851634385727e-01  -6.8090186736182057e-01  -6.5744521846089976e-01  -6.3398856940404624e-01  -6.1053192069209805e-01  -5.8707527124620262e-01  -5.6361862334457136e-01  -5.4016197218963347e-01  -5.1670532777074019e-01  -4.9324866947669771e-01  -4.6979203934841429e-01  -4.4633535268056163e-01  -4.2287877776549532e-01  -3.9942198542283575e-01  -3.7596560816462354e-01  -3.5250845454591789e-01  -3.2905271632349747e-01  -3.0559445731065416e-01  -2.8214050130985324e-01  -2.5867927788267214e-01  -2.3522924250181007e-01  -2.1176121370792955e-01  -1.8831809845518291e-01  -1.6484291410365889e-01  -1.4142333518703507e-01  -1.1796906380428814e-01  -9.4529997836924812e-02  -7.1060400287742881e-02  -4.7330572735331193e-02  -2.4286012784253092e-02  1.1103412182298848e-03  -1.8655901162781554e+00  -1.8420067297016600e+00  -1.8185264282890254e+00  -1.7950581781196473e+00  -1.7715939674599128e+00  -1.7481314423343253e+00  -1.7246700464685349e+00  -1.7012096183704846e+00  -1.6777502058339826e+00  -1.6542919123691893e+00  -1.6308346523539923e+00  -1.6073780706219996e+00  -1.5839217478668990e+00  -1.5604653993800908e+00  -1.5370089221475585e+00  -1.5135523270290934e+00  -1.4900956631885751e+00  -1.4666389736519296e+00  -1.4431822835248296e+00  -1.4197256025375991e+00  -1.3962689318813488e+00  -1.3728122692476123e+00  -1.3493556118132823e+00  -1.3258989573343740e+00  -1.3024423043991642e+00  -1.2789856522483993e+00  -1.2555290005471258e+00  -1.2320723491818142e+00  -1.2086156981317511e+00  -1.1851590473987805e+00  -1.1617023969747595e+00  -1.1382457468359475e+00  -1.1147890969443643e+00  -1.0913324472567081e+00  -1.0678757977291882e+00  -1.0444191483234657e+00  -1.0209624990077304e+00  -9.9750584975800272e-01  -9.7404920055674082e-01  -9.5059255139210153e-01  -9.2713590225620290e-01  -9.0367925314424913e-01  -8.8022260405324415e-01  -8.5676595498159391e-01  -8.3330930592813490e-01  -8.0985265689237496e-01  -7.8639600787303188e-01  -7.6293935887028175e-01  -7.3948270988037801e-01  -7.1602606090682963e-01  -6.9256941193650667e-01  -6.6911276298998068e-01  -6.4565611401666501e-01  -6.2219946511202329e-01  -5.9874281607342128e-01  -5.7528616729896631e-01  -5.5182951799346258e-01  -5.2837286969948571e-01  -5.0491621945684695e-01  -4.8145957282659435e-01  -4.5800291955984374e-01  -4.3454627812150509e-01  -4.1108961599598565e-01  -3.8763298903132498e-01  -3.6417630332223699e-01  -3.4071971237929677e-01  -3.1726296372881291e-01  -2.9380644652731