<?xml version="1.0"?>
<VTKFile type="UnstructuredGrid"  version="0.1"  >
<UnstructuredGrid>
<Piece  NumberOfPoints="1369" NumberOfCells="2560">
<Points>
<DataArray  type="Float64"  NumberOfComponents="3"  format="ascii">0 0 0  0.75 0 0  1.5 0 0  2.25 0 0  3 0 0  3.75 0 0  4.5 0 0  5.25 0 0  6 0 0  6.75 0 0  7.5 0 0  8.25 0 0  9 0 0  9.75 0 0  10.5 0 0  11.25 0 0  12 0 0  12.75 0 0  13.5 0 0  14.25 0 0  15 0 0  15.75 0 0  16.5 0 0  17.25 0 0  18 0 0  18.75 0 0  19.5 0 0  20.25 0 0  21 0 0  21.75 0 0  22.5 0 0  23.25 0 0  24 0 0  24.75 0 0  25.5 0 0  26.25 0 0  27 0 0  27.75 0 0  28.5 0 0  29.25 0 0  30 0 0  30.75 0 0  31.5 0 0  32.25 0 0  33 0 0  33.75 0 0  34.5 0 0  35.25 0 0  36 0 0  36.75 0 0  37.5 0 0  38.25 0 0  39 0 0  39.75 0 0  40.5 0 0  41.25 0 0  42 0 0  42.75 0 0  43.5 0 0  44.25 0 0  45 0 0  45.75 0 0  46.5 0 0  47.25 0 0  48 0 0  48.75 0 0  49.5 0 0  50.25 0 0  51 0 0  51.75 0 0  52.5 0 0  53.25 0 0  54 0 0  54.75 0 0  55.5 0 0  56.25 0 0  57 0 0  57.75 0 0  58.5 0 0  59.25 0 0  60 0 0  0 0.5 0  0.75 0.5 0  1.5 0.5 0  2.25 0.5 0  3 0.5 0  3.75 0.5 0  4.5 0.5 0  5.25 0.5 0  6 0.5 0  6.75 0.5 0  7.5 0.5 0  8.25 0.5 0  9 0.5 0  9.75 0.5 0  10.5 0.5 0  11.25 0.5 0  12 0.5 0  12.75 0.5 0  13.5 0.5 0  14.25 0.5 0  15 0.5 0  15.75 0.5 0  16.5 0.5 0  17.25 0.5 0  18 0.5 0  18.75 0.5 0  19.5 0.5 0  20.25 0.5 0  21 0.5 0  21.75 0.5 0  22.5 0.5 0  23.25 0.5 0  24 0.5 0  24.75 0.5 0  25.5 0.5 0  26.25 0.5 0  27 0.5 0  27.75 0.5 0  28.5 0.5 0  29.25 0.5 0  30 0.5 0  30.75 0.5 0  31.5 0.5 0  32.25 0.5 0  33 0.5 0  33.75 0.5 0  34.5 0.5 0  35.25 0.5 0  36 0.5 0  36.75 0.5 0  37.5 0.5 0  38.25 0.5 0  39 0.5 0  39.75 0.5 0  40.5 0.5 0  41.25 0.5 0  42 0.5 0  42.75 0.5 0  43.5 0.5 0  44.25 0.5 0  45 0.5 0  45.75 0.5 0  46.5 0.5 0  47.25 0.5 0  48 0.5 0  48.75 0.5 0  49.5 0.5 0  50.25 0.5 0  51 0.5 0  51.75 0.5 0  52.5 0.5 0  53.25 0.5 0  54 0.5 0  54.75 0.5 0  55.5 0.5 0  56.25 0.5 0  57 0.5 0  57.75 0.5 0  58.5 0.5 0  59.25 0.5 0  60 0.5 0  0 1 0  0.75 1 0  1.5 1 0  2.25 1 0  3 1 0  3.75 1 0  4.5 1 0  5.25 1 0  6 1 0  6.75 1 0  7.5 1 0  8.25 1 0  9 1 0  9.75 1 0  10.5 1 0  11.25 1 0  12 1 0  12.75 1 0  13.5 1 0  14.25 1 0  15 1 0  15.75 1 0  16.5 1 0  17.25 1 0  18 1 0  18.75 1 0  19.5 1 0  20.25 1 0  21 1 0  21.75 1 0  22.5 1 0  23.25 1 0  24 1 0  24.75 1 0  25.5 1 0  26.25 1 0  27 1 0  27.75 1 0  28.5 1 0  29.25 1 0  30 1 0  30.75 1 0  31.5 1 0  32.25 1 0  33 1 0  33.75 1 0  34.5 1 0  35.25 1 0  36 1 0  36.75 1 0  37.5 1 0  38.25 1 0  39 1 0  39.75 1 0  40.5 1 0  41.25 1 0  42 1 0  42.75 1 0  43.5 1 0  44.25 1 0  45 1 0  45.75 1 0  46.5 1 0  47.25 1 0  48 1 0  48.75 1 0  49.5 1 0  50.25 1 0  51 1 0  51.75 1 0  52.5 1 0  53.25 1 0  54 1 0  54.75 1 0  55.5 1 0  56.25 1 0  57 1 0  57.75 1 0  58.5 1 0  59.25 1 0  60 1 0  0 1.5 0  0.75 1.5 0  1.5 1.5 0  2.25 1.5 0  3 1.5 0  3.75 1.5 0  4.5 1.5 0  5.25 1.5 0  6 1.5 0  6.75 1.5 0  7.5 1.5 0  8.25 1.5 0  9 1.5 0  9.75 1.5 0  10.5 1.5 0  11.25 1.5 0  12 1.5 0  12.75 1.5 0  13.5 1.5 0  14.25 1.5 0  15 1.5 0  15.75 1.5 0  16.5 1.5 0  17.25 1.5 0  18 1.5 0  18.75 1.5 0  19.5 1.5 0  20.25 1.5 0  21 1.5 0  21.75 1.5 0  22.5 1.5 0  23.25 1.5 0  24 1.5 0  24.75 1.5 0  25.5 1.5 0  26.25 1.5 0  27 1.5 0  27.75 1.5 0  28.5 1.5 0  29.25 1.5 0  30 1.5 0  30.75 1.5 0  31.5 1.5 0  32.25 1.5 0  33 1.5 0  33.75 1.5 0  34.5 1.5 0  35.25 1.5 0  36 1.5 0  36.75 1.5 0  37.5 1.5 0  38.25 1.5 0  39 1.5 0  39.75 1.5 0  40.5 1.5 0  41.25 1.5 0  42 1.5 0  42.75 1.5 0  43.5 1.5 0  44.25 1.5 0  45 1.5 0  45.75 1.5 0  46.5 1.5 0  47.25 1.5 0  48 1.5 0  48.75 1.5 0  49.5 1.5 0  50.25 1.5 0  51 1.5 0  51.75 1.5 0  52.5 1.5 0  53.25 1.5 0  54 1.5 0  54.75 1.5 0  55.5 1.5 0  56.25 1.5 0  57 1.5 0  57.75 1.5 0  58.5 1.5 0  59.25 1.5 0  60 1.5 0  0 2 0  0.75 2 0  1.5 2 0  2.25 2 0  3 2 0  3.75 2 0  4.5 2 0  5.25 2 0  6 2 0  6.75 2 0  7.5 2 0  8.25 2 0  9 2 0  9.75 2 0  10.5 2 0  11.25 2 0  12 2 0  12.75 2 0  13.5 2 0  14.25 2 0  15 2 0  15.75 2 0  16.5 2 0  17.25 2 0  18 2 0  18.75 2 0  19.5 2 0  20.25 2 0  21 2 0  21.75 2 0  22.5 2 0  23.25 2 0  24 2 0  24.75 2 0  25.5 2 0  26.25 2 0  27 2 0  27.75 2 0  28.5 2 0  29.25 2 0  30 2 0  30.75 2 0  31.5 2 0  32.25 2 0  33 2 0  33.75 2 0  34.5 2 0  35.25 2 0  36 2 0  36.75 2 0  37.5 2 0  38.25 2 0  39 2 0  39.75 2 0  40.5 2 0  41.25 2 0  42 2 0  42.75 2 0  43.5 2 0  44.25 2 0  45 2 0  45.75 2 0  46.5 2 0  47.25 2 0  48 2 0  48.75 2 0  49.5 2 0  50.25 2 0  51 2 0  51.75 2 0  52.5 2 0  53.25 2 0  54 2 0  54.75 2 0  55.5 2 0  56.25 2 0  57 2 0  57.75 2 0  58.5 2 0  59.25 2 0  60 2 0  0 2.5 0  0.75 2.5 0  1.5 2.5 0  2.25 2.5 0  3 2.5 0  3.75 2.5 0  4.5 2.5 0  5.25 2.5 0  6 2.5 0  6.75 2.5 0  7.5 2.5 0  8.25 2.5 0  9 2.5 0  9.75 2.5 0  10.5 2.5 0  11.25 2.5 0  12 2.5 0  12.75 2.5 0  13.5 2.5 0  14.25 2.5 0  15 2.5 0  15.75 2.5 0  16.5 2.5 0  17.25 2.5 0  18 2.5 0  18.75 2.5 0  19.5 2.5 0  20.25 2.5 0  21 2.5 0  21.75 2.5 0  22.5 2.5 0  23.25 2.5 0  24 2.5 0  24.75 2.5 0  25.5 2.5 0  26.25 2.5 0  27 2.5 0  27.75 2.5 0  28.5 2.5 0  29.25 2.5 0  30 2.5 0  30.75 2.5 0  31.5 2.5 0  32.25 2.5 0  33 2.5 0  33.75 2.5 0  34.5 2.5 0  35.25 2.5 0  36 2.5 0  36.75 2.5 0  37.5 2.5 0  38.25 2.5 0  39 2.5 0  39.75 2.5 0  40.5 2.5 0  41.25 2.5 0  42 2.5 0  42.75 2.5 0  43.5 2.5 0  44.25 2.5 0  45 2.5 0  45.75 2.5 0  46.5 2.5 0  47.25 2.5 0  48 2.5 0  48.75 2.5 0  49.5 2.5 0  50.25 2.5 0  51 2.5 0  51.75 2.5 0  52.5 2.5 0  53.25 2.5 0  54 2.5 0  54.75 2.5 0  55.5 2.5 0  56.25 2.5 0  57 2.5 0  57.75 2.5 0  58.5 2.5 0  59.25 2.5 0  60 2.5 0  0 3 0  0.75 3 0  1.5 3 0  2.25 3 0  3 3 0  3.75 3 0  4.5 3 0  5.25 3 0  6 3 0  6.75 3 0  7.5 3 0  8.25 3 0  9 3 0  9.75 3 0  10.5 3 0  11.25 3 0  12 3 0  12.75 3 0  13.5 3 0  14.25 3 0  15 3 0  15.75 3 0  16.5 3 0  17.25 3 0  18 3 0  18.75 3 0  19.5 3 0  20.25 3 0  21 3 0  21.75 3 0  22.5 3 0  23.25 3 0  24 3 0  24.75 3 0  25.5 3 0  26.25 3 0  27 3 0  27.75 3 0  28.5 3 0  29.25 3 0  30 3 0  30.75 3 0  31.5 3 0  32.25 3 0  33 3 0  33.75 3 0  34.5 3 0  35.25 3 0  36 3 0  36.75 3 0  37.5 3 0  38.25 3 0  39 3 0  39.75 3 0  40.5 3 0  41.25 3 0  42 3 0  42.75 3 0  43.5 3 0  44.25 3 0  45 3 0  45.75 3 0  46.5 3 0  47.25 3 0  48 3 0  48.75 3 0  49.5 3 0  50.25 3 0  51 3 0  51.75 3 0  52.5 3 0  53.25 3 0  54 3 0  54.75 3 0  55.5 3 0  56.25 3 0  57 3 0  57.75 3 0  58.5 3 0  59.25 3 0  60 3 0  0 3.5 0  0.75 3.5 0  1.5 3.5 0  2.25 3.5 0  3 3.5 0  3.75 3.5 0  4.5 3.5 0  5.25 3.5 0  6 3.5 0  6.75 3.5 0  7.5 3.5 0  8.25 3.5 0  9 3.5 0  9.75 3.5 0  10.5 3.5 0  11.25 3.5 0  12 3.5 0  12.75 3.5 0  13.5 3.5 0  14.25 3.5 0  15 3.5 0  15.75 3.5 0  16.5 3.5 0  17.25 3.5 0  18 3.5 0  18.75 3.5 0  19.5 3.5 0  20.25 3.5 0  21 3.5 0  21.75 3.5 0  22.5 3.5 0  23.25 3.5 0  24 3.5 0  24.75 3.5 0  25.5 3.5 0  26.25 3.5 0  27 3.5 0  27.75 3.5 0  28.5 3.5 0  29.25 3.5 0  30 3.5 0  30.75 3.5 0  31.5 3.5 0  32.25 3.5 0  33 3.5 0  33.75 3.5 0  34.5 3.5 0  35.25 3.5 0  36 3.5 0  36.75 3.5 0  37.5 3.5 0  38.25 3.5 0  39 3.5 0  39.75 3.5 0  40.5 3.5 0  41.25 3.5 0  42 3.5 0  42.75 3.5 0  43.5 3.5 0  44.25 3.5 0  45 3.5 0  45.75 3.5 0  46.5 3.5 0  47.25 3.5 0  48 3.5 0  48.75 3.5 0  49.5 3.5 0  50.25 3.5 0  51 3.5 0  51.75 3.5 0  52.5 3.5 0  53.25 3.5 0  54 3.5 0  54.75 3.5 0  55.5 3.5 0  56.25 3.5 0  57 3.5 0  57.75 3.5 0  58.5 3.5 0  59.25 3.5 0  60 3.5 0  0 4 0  0.75 4 0  1.5 4 0  2.25 4 0  3 4 0  3.75 4 0  4.5 4 0  5.25 4 0  6 4 0  6.75 4 0  7.5 4 0  8.25 4 0  9 4 0  9.75 4 0  10.5 4 0  11.25 4 0  12 4 0  12.75 4 0  13.5 4 0  14.25 4 0  15 4 0  15.75 4 0  16.5 4 0  17.25 4 0  18 4 0  18.75 4 0  19.5 4 0  20.25 4 0  21 4 0  21.75 4 0  22.5 4 0  23.25 4 0  24 4 0  24.75 4 0  25.5 4 0  26.25 4 0  27 4 0  27.75 4 0  28.5 4 0  29.25 4 0  30 4 0  30.75 4 0  31.5 4 0  32.25 4 0  33 4 0  33.75 4 0  34.5 4 0  35.25 4 0  36 4 0  36.75 4 0  37.5 4 0  38.25 4 0  39 4 0  39.75 4 0  40.5 4 0  41.25 4 0  42 4 0  42.75 4 0  43.5 4 0  44.25 4 0  45 4 0  45.75 4 0  46.5 4 0  47.25 4 0  48 4 0  48.75 4 0  49.5 4 0  50.25 4 0  51 4 0  51.75 4 0  52.5 4 0  53.25 4 0  54 4 0  54.75 4 0  55.5 4 0  56.25 4 0  57 4 0  57.75 4 0  58.5 4 0  59.25 4 0  60 4 0  0.375 0.25 0  1.125 0.25 0  1.875 0.25 0  2.625 0.25 0  3.375 0.25 0  4.125 0.25 0  4.875 0.25 0  5.625 0.25 0  6.375 0.25 0  7.125 0.25 0  7.875 0.25 0  8.625 0.25 0  9.375 0.25 0  10.125 0.25 0  10.875 0.25 0  11.625 0.25 0  12.375 0.25 0  13.125 0.25 0  13.875 0.25 0  14.625 0.25 0  15.375 0.25 0  16.125 0.25 0  16.875 0.25 0  17.625 0.25 0  18.375 0.25 0  19.125 0.25 0  19.875 0.25 0  20.625 0.25 0  21.375 0.25 0  22.125 0.25 0  22.875 0.25 0  23.625 0.25 0  24.375 0.25 0  25.125 0.25 0  25.875 0.25 0  26.625 0.25 0  27.375 0.25 0  28.125 0.25 0  28.875 0.25 0  29.625 0.25 0  30.375 0.25 0  31.125 0.25 0  31.875 0.25 0  32.625 0.25 0  33.375 0.25 0  34.125 0.25 0  34.875 0.25 0  35.625 0.25 0  36.375 0.25 0  37.125 0.25 0  37.875 0.25 0  38.625 0.25 0  39.375 0.25 0  40.125 0.25 0  40.875 0.25 0  41.625 0.25 0  42.375 0.25 0  43.125 0.25 0  43.875 0.25 0  44.625 0.25 0  45.375 0.25 0  46.125 0.25 0  46.875 0.25 0  47.625 0.25 0  48.375 0.25 0  49.125 0.25 0  49.875 0.25 0  50.625 0.25 0  51.375 0.25 0  52.125 0.25 0  52.875 0.25 0  53.625 0.25 0  54.375 0.25 0  55.125 0.25 0  55.875 0.25 0  56.625 0.25 0  57.375 0.25 0  58.125 0.25 0  58.875 0.25 0  59.625 0.25 0  0.375 0.75 0  1.125 0.75 0  1.875 0.75 0  2.625 0.75 0  3.375 0.75 0  4.125 0.75 0  4.875 0.75 0  5.625 0.75 0  6.375 0.75 0  7.125 0.75 0  7.875 0.75 0  8.625 0.75 0  9.375 0.75 0  10.125 0.75 0  10.875 0.75 0  11.625 0.75 0  12.375 0.75 0  13.125 0.75 0  13.875 0.75 0  14.625 0.75 0  15.375 0.75 0  16.125 0.75 0  16.875 0.75 0  17.625 0.75 0  18.375 0.75 0  19.125 0.75 0  19.875 0.75 0  20.625 0.75 0  21.375 0.75 0  22.125 0.75 0  22.875 0.75 0  23.625 0.75 0  24.375 0.75 0  25.125 0.75 0  25.875 0.75 0  26.625 0.75 0  27.375 0.75 0  28.125 0.75 0  28.875 0.75 0  29.625 0.75 0  30.375 0.75 0  31.125 0.75 0  31.875 0.75 0  32.625 0.75 0  33.375 0.75 0  34.125 0.75 0  34.875 0.75 0  35.625 0.75 0  36.375 0.75 0  37.125 0.75 0  37.875 0.75 0  38.625 0.75 0  39.375 0.75 0  40.125 0.75 0  40
[...]
<PointData  Scalars="f_8-1"> 
<DataArray  type="Float64"  Name="f_8-1"  format="ascii">3.7089672209178408e+00  3.6613082207440111e+00  3.6145907560115820e+00  3.5682511735278895e+00  3.5217754946549826e+00  3.4755699586111981e+00  3.4291924653760071e+00  3.3829233131510819e+00  3.3365459866832814e+00  3.2902332100562965e+00  3.2438753031350078e+00  3.1975475458052274e+00  3.1512014598827012e+00  3.1048666579387478e+00  3.0585253773060286e+00  3.0121877719335983e+00  2.9658481594045556e+00  2.9195096245026897e+00  2.8731705251690927e+00  2.8268317176041227e+00  2.7804927620717881e+00  2.7341538809582548e+00  2.6878149630132908e+00  2.6414760632174294e+00  2.5951371546041537e+00  2.5487982502688431e+00  2.5024593438847074e+00  2.4561204384828268e+00  2.4097815326157992e+00  2.3634426269697220e+00  2.3171037212199703e+00  2.2707648155191102e+00  2.2244259097954973e+00  2.1780870040825597e+00  2.1317480983646711e+00  2.0854091926490965e+00  2.0390702869324602e+00  1.9927313812163119e+00  1.9463924754999427e+00  1.9000535697836944e+00  1.8537146640673816e+00  1.8073757583511225e+00  1.7610368526348326e+00  1.7146979469185168e+00  1.6683590412022136e+00  1.6220201354859372e+00  1.5756812297696545e+00  1.5293423240533752e+00  1.4830034183370731e+00  1.4366645126207536e+00  1.3903256069045178e+00  1.3439867011881570e+00  1.2976477954720300e+00  1.2513088897554732e+00  1.2049699840394534e+00  1.1586310783218179e+00  1.1122921726042025e+00  1.0659532668791638e+00  1.0196143611455355e+00  9.7327545537464211e-01  9.2693654954460980e-01  8.8059764356211478e-01  8.3425873739108103e-01  7.8791983105779495e-01  7.4158092562014644e-01  6.9524202502863564e-01  6.4890314258134429e-01  6.0256431253728782e-01  5.5622561194351228e-01  5.0988717812507178e-01  4.6354919636559816e-01  4.1721177663620512e-01  3.7087469976894571e-01  3.2453720242412892e-01  2.7819837954206317e-01  2.3185806458553612e-01  1.8551689607188793e-01  1.3917561113858942e-01  9.2834421998441038e-02  4.6497888245796141e-02  -1.5979251148406926e-04  3.7080894294655704e+00  3.6616107954823138e+00  3.6146734300990961e+00  3.5683112813346893e+00  3.5218469598863735e+00  3.4755514778041903e+00  3.4292332057084569e+00  3.3829088211522111e+00  3.3365750496737072e+00  3.2902320493750361e+00  3.2438953112509354e+00  3.1975539170114264e+00  3.1512164784425005e+00  3.1048764211949331e+00  3.0585382696203967e+00  3.0121988506152340e+00  2.9658602712726996e+00  2.9195211599386890e+00  2.8731823777089480e+00  2.8268433987553983e+00  2.7805045347784776e+00  2.7341656054995860e+00  2.6878267126476665e+00  2.6414877999520461e+00  2.5951488979172459e+00  2.5488099902659753e+00  2.5024710855425267e+00  2.4561321793174344e+00  2.4097932738564385e+00  2.3634543680119275e+00  2.3171154623587982e+00  2.2707765566112865e+00  2.2244376509101396e+00  2.1780987451864671e+00  2.1317598394737085e+00  2.0854209337556924e+00  2.0390820280402213e+00  1.9927431223235290e+00  1.9464042166074118e+00  1.9000653108910435e+00  1.8537264051747906e+00  1.8073874994584955e+00  1.7610485937422211e+00  1.7147096880259101e+00  1.6683707823096114e+00  1.6220318765933057e+00  1.5756929708770522e+00  1.5293540651607260e+00  1.4830151594444620e+00  1.4366762537280429e+00  1.3903373480118262e+00  1.3439984422951943e+00  1.2976595365789694e+00  1.2513206308615570e+00  1.2049817251446719e+00  1.1586428194241876e+00  1.1123039137022164e+00  1.0659650079667906e+00  1.0196261022137938e+00  9.7328719640120820e-01  9.2694829048335214e-01  8.8060938430628199e-01  8.3427047768090601e-01  7.8793157025376837e-01  7.4159266207761443e-01  6.9525375467473949e-01  6.4891485561148288e-01  6.0257598742738661e-01  5.5623720589415160e-01  5.0989861922646107e-01  4.6356038932347282e-01  4.1722264856548186e-01  3.7088528334856213e-01  3.2454768260534750e-01  2.7820898119861937e-01  2.3186894204793065e-01  1.8552820889984614e-01  1.3918763426410261e-01  9.2848532177912765e-02  4.6497185685936700e-02  4.7308894927877852e-05  3.7080939408212061e+00  3.6616705212021170e+00  3.6148298520298887e+00  3.5684405915175574e+00  3.5219361381826331e+00  3.4756187947048676e+00  3.4292588343590817e+00  3.3829446786625743e+00  3.3365977266101545e+00  3.2902669542761380e+00  3.2439232014115755e+00  3.1975876199390698e+00  3.1512464160980813e+00  3.1049090851979799e+00  3.0585690948876341e+00  3.0122309269789089e+00  2.9658915332628495e+00  2.9195529436442738e+00  2.8732138402200493e+00  2.8268750552553827e+00  2.7805360780676129e+00  2.7341972137422652e+00  2.6878582846684789e+00  2.6415193918950108e+00  2.5951804791560957e+00  2.5488415771947635e+00  2.5025026695048984e+00  2.4561637648140060e+00  2.4098248585724882e+00  2.3634859531228236e+00  2.3171470472727993e+00  2.2708081416231249e+00  2.2244692358739955e+00  2.1781303301738109e+00  2.1317914244496801e+00  2.0854525187371835e+00  2.0391136130190692e+00  1.9927747073036413e+00  1.9464358015869359e+00  1.9000968958708429e+00  1.8537579901544647e+00  1.8074190844382283e+00  1.7610801787219146e+00  1.7147412730056251e+00  1.6684023672893313e+00  1.6220634615730569e+00  1.5757245558567958e+00  1.5293856501405396e+00  1.4830467444243378e+00  1.4367078387082075e+00  1.3903689329923090e+00  1.3440300272767827e+00  1.2976911215621116e+00  1.2513522158491286e+00  1.2050133101396934e+00  1.1586744044375668e+00  1.1123354987506453e+00  1.0659965930956790e+00  1.0196576875079202e+00  9.7331878206443101e-01  9.2697987693122974e-01  8.8064097247906392e-01  8.3430206952852604e-01  7.8796316993719129e-01  7.4162427784242557e-01  6.9528540233042335e-01  6.4894656226329395e-01  6.0260779377459983e-01  5.5626915712153679e-01  5.0993073264296751e-01  4.6359258132634351e-01  4.1725464385143507e-01  3.7091660545111899e-01  3.2457789913999741e-01  2.7823793298356531e-01  2.3189618943443790e-01  1.8555195780778597e-01  1.3920362479370596e-01  9.2846144527191102e-02  4.6462544022557943e-02  7.2784096037668400e-06  3.7082018971223967e+00  3.6615888808401382e+00  3.6150050649582122e+00  3.5684437814991368e+00  3.5220399402592828e+00  3.4756201142644838e+00  3.4293032817174618e+00  3.3829438734965374e+00  3.3366242413553948e+00  3.2902753451727049e+00  3.2439448888150988e+00  3.1976010379231634e+00  3.1512656024249535e+00  3.1049245438192150e+00  3.0585870455539443e+00  3.0122472661073880e+00  2.9659089119266633e+00  2.9195696711060113e+00  2.8732309697016367e+00  2.8268919436707072e+00  2.7805531085946122e+00  2.7342141626863632e+00  2.6878752797119487e+00  2.6415363614794627e+00  2.5951974626119538e+00  2.5488585532379169e+00  2.5025196494657487e+00  2.4561807427380247e+00  2.4098418375461867e+00  2.3635029315631222e+00  2.3171640259823190e+00  2.2708251201984253e+00  2.2244862145158799e+00  2.1781473087830170e+00  2.1318084030748641e+00  2.0854694973546422e+00  2.0391305916402560e+00  1.9927916859230448e+00  1.9464527802071987e+00  1.9001138744906991e+00  1.8537749687745140e+00  1.8074360630581845e+00  1.7610971573419125e+00  1.7147582516256032e+00  1.6684193459093282e+00  1.6220804401930671e+00  1.5757415344768115e+00  1.5294026287606017e+00  1.4830637230444725e+00  1.4367248173285410e+00  1.3903859116129773e+00  1.3440470058982432e+00  1.2977081001850557e+00  1.2513691944754277e+00  1.2050302887726458e+00  1.1586913830851178e+00  1.1123524774283422e+00  1.0660135718391355e+00  1.0196746663910856e+00  9.7333576125259613e-01  9.2699685677567256e-01  8.8065795374576450e-01  8.3431905382301741e-01  7.8798016059069731e-01  7.4164128141020758e-01  6.9530243104973311e-01  6.4896363681741542e-01  6.0262494456121352e-01  5.5628641797129941e-01  5.0994811809042939e-01  4.6361003657534822e-01  4.1727197857210174e-01  3.7093347729651527e-01  3.2459396351226633e-01  2.7825299248866620e-01  2.3190980381582157e-01  1.8556268298954123e-01  1.3920826618223919e-01  9.2839330483593843e-02  4.6442677329068149e-02  5.4720984008984121e-06  3.7081932994473479e+00  3.6616043389250343e+00  3.6149886914870710e+00  3.5684963458958268e+00  3.5220138762350164e+00  3.4756560441785291e+00  3.4292781063898090e+00  3.3829595017333451e+00  3.3366078940197768e+00  3.2902814110532366e+00  3.2439357141126579e+00  3.1976022235710722e+00  3.1512600553157641e+00  3.1049233735986448e+00  3.0585830986734828e+00  3.0122450669001455e+00  2.9659056314935528e+00  2.9195670511718403e+00  2.8732279532629637e+00  2.8268891616608243e+00  2.7805501904741496e+00  2.7342113223495743e+00  2.6878723956982586e+00  2.6415335016244454e+00  2.5951945896072131e+00  2.5488556872944033e+00  2.5025167797838814e+00  2.4561778750121452e+00  2.4098389688094279e+00  2.3635000633435888e+00  2.3171611575009448e+00  2.2708222518484869e+00  2.2244833461005586e+00  2.1781444403999886e+00  2.1318055346760225e+00  2.0854666289634975e+00  2.0391277232453922e+00  1.9927888175299748e+00  1.9464499118132668e+00  1.9001110060971798e+00  1.8537721003807976e+00  1.8074331946645523e+00  1.7610942889482439e+00  1.7147553832319624e+00  1.6684164775156769e+00  1.6220775717994149e+00  1.5757386660831638e+00  1.5293997603669691e+00  1.4830608546508655e+00  1.4367219489349841e+00  1.3903830432195257e+00  1.3440441375049896e+00  1.2977052317922848e+00  1.2513663260835186e+00  1.2050274203828151e+00  1.1586885146992829e+00  1.1123496090516809e+00  1.0660107034812372e+00  1.0196717980753467e+00  9.7333289302597803e-01  9.2699398874599470e-01  8.8065508613400090e-01  8.3431618710583177e-01  7.8797729570516817e-01  7.4163842016317660e-01  6.9529957650173302e-01  6.4896079352021807e-01  6.0262211728099335e-01  5.5628360765511053e-01  5.0994531243545627e-01  4.6360719891396884e-01  4.1726904928200370e-01  3.7093041261798676e-01  3.2459075306478907e-01  2.7824956233557735e-01  2.3190594554657562e-01  1.8555797643783808e-01  1.3920181714374072e-01  9.2830001202729565e-02  4.6431350099390478e-02  1.1239809481245613e-05  3.7082018971224024e+00  3.6615888808401258e+00  3.6150050649582175e+00  3.5684437814991385e+00  3.5220399402592859e+00  3.4756201142644851e+00  3.4293032817174680e+00  3.3829438734965400e+00  3.3366242413553895e+00  3.2902753451727134e+00  3.2439448888150837e+00  3.1976010379231563e+00  3.1512656024249486e+00  3.1049245438192252e+00  3.0585870455539421e+00  3.0122472661073898e+00  2.9659089119266557e+00  2.9195696711060175e+00  2.8732309697016456e+00  2.8268919436707121e+00  2.7805531085946136e+00  2.7342141626863734e+00  2.6878752797119567e+00  2.6415363614794662e+00  2.5951974626119561e+00  2.5488585532379178e+00  2.5025196494657433e+00  2.4561807427380158e+00  2.4098418375461890e+00  2.3635029315631240e+00  2.3171640259823230e+00  2.2708251201984213e+00  2.2244862145158715e+00  2.1781473087830157e+00  2.1318084030748716e+00  2.0854694973546364e+00  2.0391305916402640e+00  1.9927916859230508e+00  1.9464527802072018e+00  1.9001138744907045e+00  1.8537749687745133e+00  1.8074360630581732e+00  1.7610971573419127e+00  1.7147582516256137e+00  1.6684193459093357e+00  1.6220804401930606e+00  1.5757415344768053e+00  1.5294026287606033e+00  1.4830637230444734e+00  1.4367248173285470e+00  1.3903859116129733e+00  1.3440470058982426e+00  1.2977081001850550e+00  1.2513691944754199e+00  1.2050302887726474e+00  1.1586913830851169e+00  1.1123524774283444e+00  1.0660135718391386e+00  1.0196746663910825e+00  9.7333576125260102e-01  9.2699685677567589e-01  8.8065795374576394e-01  8.3431905382301896e-01  7.8798016059069942e-01  7.4164128141020513e-01  6.9530243104973144e-01  6.4896363681741964e-01  6.0262494456121085e-01  5.5628641797130163e-01  5.0994811809043017e-01  4.6361003657534999e-01  4.1727197857209830e-01  3.7093347729651721e-01  3.2459396351226011e-01  2.7825299248866475e-01  2.3190980381580772e-01  1.8556268298953521e-01  1.3920826618224050e-01  9.2839330483591331e-02  4.6442677329068816e-02  5.4720984012379842e-06  3.7080939408212066e+00  3.6616705212021219e+00  3.6148298520298923e+00  3.5684405915175526e+00  3.5219361381826433e+00  3.4756187947048640e+00  3.4292588343590937e+00  3.3829446786625814e+00  3.3365977266101616e+00  3.2902669542761442e+00  3.2439232014115573e+00  3.1975876199390538e+00  3.1512464160980693e+00  3.1049090851979759e+00  3.0585690948876301e+00  3.0122309269789147e+00  2.9658915332628446e+00  2.9195529436442720e+00  2.8732138402200578e+00  2.8268750552553898e+00  2.7805360780676227e+00  2.7341972137422799e+00  2.6878582846684953e+00  2.6415193918950233e+00  2.5951804791561059e+00  2.5488415771947701e+00  2.5025026695048953e+00  2.4561637648139945e+00  2.4098248585724860e+00  2.3634859531228183e+00  2.3171470472728015e+00  2.2708081416231249e+00  2.2244692358739875e+00  2.1781303301738024e+00  2.1317914244496823e+00  2.0854525187371826e+00  2.0391136130190732e+00  1.9927747073036490e+00  1.9464358015869456e+00  1.9000968958708591e+00  1.8537579901544683e+00  1.8074190844382201e+00  1.7610801787219141e+00  1.7147412730056284e+00  1.6684023672893429e+00  1.6220634615730580e+00  1.5757245558567892e+00  1.5293856501405343e+00  1.4830467444243356e+00  1.4367078387082166e+00  1.3903689329923099e+00  1.3440300272767838e+00  1.2976911215621059e+00  1.2513522158491190e+00  1.2050133101396903e+00  1.1586744044375643e+00  1.1123354987506469e+00  1.0659965930956823e+00  1.0196576875079237e+00  9.7331878206443656e-01  9.2697987693123596e-01  8.8064097247906725e-01  8.3430206952852792e-01  7.8796316993719162e-01  7.4162427784242513e-01  6.9528540233042380e-01  6.4894656226329206e-01  6.0260779377460261e-01  5.5626915712153946e-01  5.0993073264297029e-01  4.6359258132634507e-01  4.1725464385143546e-01  3.7091660545111566e-01  3.2457789914000607e-01  2.7823793298356225e-01  2.3189618943442727e-01  1.8555195780777919e-01  1.3920362479370788e-01  9.2846144527193822e-02  4.6462544022558158e-02  7.2784096049777040e-06  3.7080894294655655e+00  3.6616107954823240e+00  3.6146734300990961e+00  3.5683112813346809e+00  3.5218469598863940e+00  3.4755514778041912e+00  3.4292332057084591e+00  3.3829088211522298e+00  3.3365750496737161e+00  3.2902320493750357e+00  3.2438953112509261e+00  3.1975539170114029e+00  3.1512164784424761e+00  3.1048764211949162e+00  3.0585382696203927e+00  3.0121988506152464e+00  2.9658602712727111e+00  2.9195211599386699e+00  2.8731823777089609e+00  2.8268433987553965e+00  2.7805045347785042e+00  2.7341656054996015e+00  2.6878267126476940e+00  2.6414877999520723e+00  2.5951488979172677e+00  2.5488099902659758e+00  2.5024710855425369e+00  2.4561321793174207e+00  2.4097932738564318e+00  2.3634543680119209e+00  2.3171154623587924e+00  2.2707765566112883e+00  2.2244376509101356e+00  2.1780987451864520e+00  2.1317598394737014e+00  2.0854209337557017e+00  2.0390820280402178e+00  1.9927431223235375e+00  1.9464042166074298e+00  1.9000653108910626e+00  1.8537264051748024e+00  1.8073874994584913e+00  1.7610485937422105e+00  1.7147096880259081e+00  1.6683707823096261e+00  1.6220318765933248e+00  1.5756929708770442e+00  1.5293540651607140e+00  1.4830151594444585e+00  1.4366762537280502e+00  1.3903373480118386e+00  1.3439984422951892e+00  1.2976595365789612e+00  1.2513206308615530e+00  1.2049817251446620e+00  1.1586428194241865e+00  1.1123039137022117e+00  1.0659650079667937e+00  1.0196261022138033e+00  9.7328719640121075e-01  9.2694829048336347e-01  8.8060938430628621e-01  8.3427047768090867e-01  7.8793157025376359e-01  7.4159266207762697e-01  6.9525375467473394e-01  6.4891485561148177e-01  6.0257598742738960e-01  5.5623720589415726e-01  5.0989861922645840e-01  4.6356038932347321e-01  4.1722264856547836e-01  3.7088528334857807e-01  3.2454768260535255e-01  2.7820898119861492e-01  2.3186894204792477e-01  1.8552820889983512e-01  1.3918763426410558e-01  9.2848532177912182e-02  4.6497185685943007e-02  4.7308894925106306e-05  3.7089672209178266e+00  3.6613082207440319e+00  3.6145907560115820e+00  3.5682511735278886e+00  3.5217754946550013e+00  3.4755699586112017e+00  3.4291924653760075e+00  3.3829233131511067e+00  3.3365459866832867e+00  3.2902332100563045e+00  3.2438753031349847e+00  3.1975475458051990e+00  3.1512014598826736e+00  3.1048666579387389e+00  3.0585253773060228e+00  3.0121877719336099e+00  2.9658481594045627e+00  2.9195096245026773e+00  2.8731705251691091e+00  2.8268317176041311e+00  2.7804927620718130e+00  2.7341538809582757e+00  2.6878149630133268e+00  2.6414760632174552e+00  2.5951371546041742e+00  2.5487982502688533e+00  2.5024593438847087e+00  2.4561204384828108e+00  2.4097815326157943e+00  2.3634426269697131e+00  2.3171037212199650e+00  2.2707648155191134e+00  2.2244259097954946e+00  2.1780870040825420e+00  2.1317480983646711e+00  2.0854091926490965e+00  2.0390702869324615e+00  1.9927313812163263e+00  1.9463924754999613e+00  1.9000535697837138e+00  1.8537146640673967e+00  1.8073757583511145e+00  1.7610368526348177e+00  1.7146979469185251e+00  1.6683590412022344e+00  1.6220201354859491e+00  1.5756812297696501e+00  1.5293423240533566e+00  1.4830034183370731e+00  1.4366645126207644e+00  1.3903256069045249e+00  1.3439867011881532e+00  1.2976477954720278e+00  1.2513088897554649e+00  1.2049699840394441e+00  1.1586310783218168e+00  1.1122921726042014e+00  1.0659532668791665e+00  1.0196143611455446e+00  9.7327545537464977e-01  9.2693654954461902e-01  8.8059764356212056e-01  8.3425873739108081e-01  7.8791983105779362e-01  7.4158092562015854e-01  6.9524202502863397e-01  6.4890314258134496e-01  6.0256431253728715e-01  5.5622561194351661e-01  5.0988717812507078e-01  4.6354919636559705e-01  4.1721177663620340e-01  3.7087469976896303e-01  3.2453720242413320e-01  2.7819837954205906e-01  2.3185806458552746e-01  1.8551689607188046e-01  1.3917561113858923e-01  9.2834421998441857e-02  4.6497888245803531e-02  -1.5979251148551989e-04  3.6850541057207047e+00  3.6381182272906596e+00  3.5915456447597580e+00  3.5451064318101970e+00  3.4987627896921660e+00  3.4524609035251834e+00  3.4061428454936018e+00  3.3598158703260110e+00  3.3134746077235930e+00  3.2671366446365067e+00  3.2207959755349505e+00  3.1744575389909144e+00  3.1281180952277352e+00  3.0817794407841403e+00  3.0354403510258043e+00  2.9891015488772070e+00  2.9427625764951513e+00  2.8964237083786504e+00  2.8500847798596141e+00  2.8037458865439970e+00  2.7574069736517499e+00  2.7110680716972535e+00  2.6647291638885768e+00  2.6183902592356012e+00  2.5720513529466080e+00  2.5257124475139445e+00  2.4793735416487133e+00  2.4330346360046069e+00  2.3866957302511240e+00  2.3403568245525066e+00  2.2940179188272301e+00  2.2476790131151301e+00  2.2013401073967342e+00  2.1550012016814093e+00  2.1086622959646162e+00  2.0623233902485532e+00  2.0159844845321433e+00  1.9696455788158893e+00  1.9233066730995729e+00  1.8769677673832965e+00  1.8306288616670063e+00  1.7842899559507372e+00  1.7379510502344371e+00  1.6916121445181334e+00  1.6452732388018190e+00  1.5989343330855570e+00  1.5525954273692395e+00  1.5062565216529644e+00  1.4599176159365610e+00  1.4135787102202622e+00  1.3672398045036751e+00  1.3209008987871826e+00  1.2745619930698451e+00  1.2282230873521360e+00  1.1818841816315742e+00  1.1355452759071532e+00  1.0892063701705939e+00  1.0428674644101541e+00  9.9652855859107736e-01  9.5018965264620969e-01  9.0385074642695229e-01  8.5751183965343081e-01  8.1117293185789352e-01  7.6483402250128929e-01  7.1849511182156511e-01  6.7215620369075424e-01  6.2581731336773938e-01  5.7947848286991455e-01  5.3313980437443043e-01  4.8680143366496581e-01  4.4046354768375512e-01  3.9412616912643078e-01  3.4778890218275033e-01  3.0145093809738138e-01  2.5511174173428514e-01  2.0877168771968863e-01  1.6243186214266464e-01  1.1609391295792823e-01  6.9760423273980271e-02  2.3416306225430564e-02  3.6847678919466631e+00  3.6382179486810835e+00  3.5916387997184773e+00  3.5451274006415385e+00  3.4987904693992746e+00  3.4524267901905508e+00  3.4061204924298147e+00  3.3597784459538667e+00  3.3134462870090511e+00  3.2671045840588189e+00  3.2207667263856932e+00  3.1744270364400888e+00  3.1280884414225336e+00  3.0817493053462983e+00  3.0354105378374414e+00  2.9890715331967179e+00  2.9427326938953740e+00  2.8963937432752394e+00  2.8500548662804714e+00  2.8037159425032807e+00  2.7573770475927