<?xml version="1.0"?>
<VTKFile type="UnstructuredGrid"  version="0.1"  >
<UnstructuredGrid>
<Piece  NumberOfPoints="1369" NumberOfCells="2560">
<Points>
<DataArray  type="Float64"  NumberOfComponents="3"  format="ascii">0 0 0  0.75 0 0  1.5 0 0  2.25 0 0  3 0 0  3.75 0 0  4.5 0 0  5.25 0 0  6 0 0  6.75 0 0  7.5 0 0  8.25 0 0  9 0 0  9.75 0 0  10.5 0 0  11.25 0 0  12 0 0  12.75 0 0  13.5 0 0  14.25 0 0  15 0 0  15.75 0 0  16.5 0 0  17.25 0 0  18 0 0  18.75 0 0  19.5 0 0  20.25 0 0  21 0 0  21.75 0 0  22.5 0 0  23.25 0 0  24 0 0  24.75 0 0  25.5 0 0  26.25 0 0  27 0 0  27.75 0 0  28.5 0 0  29.25 0 0  30 0 0  30.75 0 0  31.5 0 0  32.25 0 0  33 0 0  33.75 0 0  34.5 0 0  35.25 0 0  36 0 0  36.75 0 0  37.5 0 0  38.25 0 0  39 0 0  39.75 0 0  40.5 0 0  41.25 0 0  42 0 0  42.75 0 0  43.5 0 0  44.25 0 0  45 0 0  45.75 0 0  46.5 0 0  47.25 0 0  48 0 0  48.75 0 0  49.5 0 0  50.25 0 0  51 0 0  51.75 0 0  52.5 0 0  53.25 0 0  54 0 0  54.75 0 0  55.5 0 0  56.25 0 0  57 0 0  57.75 0 0  58.5 0 0  59.25 0 0  60 0 0  0 0.5 0  0.75 0.5 0  1.5 0.5 0  2.25 0.5 0  3 0.5 0  3.75 0.5 0  4.5 0.5 0  5.25 0.5 0  6 0.5 0  6.75 0.5 0  7.5 0.5 0  8.25 0.5 0  9 0.5 0  9.75 0.5 0  10.5 0.5 0  11.25 0.5 0  12 0.5 0  12.75 0.5 0  13.5 0.5 0  14.25 0.5 0  15 0.5 0  15.75 0.5 0  16.5 0.5 0  17.25 0.5 0  18 0.5 0  18.75 0.5 0  19.5 0.5 0  20.25 0.5 0  21 0.5 0  21.75 0.5 0  22.5 0.5 0  23.25 0.5 0  24 0.5 0  24.75 0.5 0  25.5 0.5 0  26.25 0.5 0  27 0.5 0  27.75 0.5 0  28.5 0.5 0  29.25 0.5 0  30 0.5 0  30.75 0.5 0  31.5 0.5 0  32.25 0.5 0  33 0.5 0  33.75 0.5 0  34.5 0.5 0  35.25 0.5 0  36 0.5 0  36.75 0.5 0  37.5 0.5 0  38.25 0.5 0  39 0.5 0  39.75 0.5 0  40.5 0.5 0  41.25 0.5 0  42 0.5 0  42.75 0.5 0  43.5 0.5 0  44.25 0.5 0  45 0.5 0  45.75 0.5 0  46.5 0.5 0  47.25 0.5 0  48 0.5 0  48.75 0.5 0  49.5 0.5 0  50.25 0.5 0  51 0.5 0  51.75 0.5 0  52.5 0.5 0  53.25 0.5 0  54 0.5 0  54.75 0.5 0  55.5 0.5 0  56.25 0.5 0  57 0.5 0  57.75 0.5 0  58.5 0.5 0  59.25 0.5 0  60 0.5 0  0 1 0  0.75 1 0  1.5 1 0  2.25 1 0  3 1 0  3.75 1 0  4.5 1 0  5.25 1 0  6 1 0  6.75 1 0  7.5 1 0  8.25 1 0  9 1 0  9.75 1 0  10.5 1 0  11.25 1 0  12 1 0  12.75 1 0  13.5 1 0  14.25 1 0  15 1 0  15.75 1 0  16.5 1 0  17.25 1 0  18 1 0  18.75 1 0  19.5 1 0  20.25 1 0  21 1 0  21.75 1 0  22.5 1 0  23.25 1 0  24 1 0  24.75 1 0  25.5 1 0  26.25 1 0  27 1 0  27.75 1 0  28.5 1 0  29.25 1 0  30 1 0  30.75 1 0  31.5 1 0  32.25 1 0  33 1 0  33.75 1 0  34.5 1 0  35.25 1 0  36 1 0  36.75 1 0  37.5 1 0  38.25 1 0  39 1 0  39.75 1 0  40.5 1 0  41.25 1 0  42 1 0  42.75 1 0  43.5 1 0  44.25 1 0  45 1 0  45.75 1 0  46.5 1 0  47.25 1 0  48 1 0  48.75 1 0  49.5 1 0  50.25 1 0  51 1 0  51.75 1 0  52.5 1 0  53.25 1 0  54 1 0  54.75 1 0  55.5 1 0  56.25 1 0  57 1 0  57.75 1 0  58.5 1 0  59.25 1 0  60 1 0  0 1.5 0  0.75 1.5 0  1.5 1.5 0  2.25 1.5 0  3 1.5 0  3.75 1.5 0  4.5 1.5 0  5.25 1.5 0  6 1.5 0  6.75 1.5 0  7.5 1.5 0  8.25 1.5 0  9 1.5 0  9.75 1.5 0  10.5 1.5 0  11.25 1.5 0  12 1.5 0  12.75 1.5 0  13.5 1.5 0  14.25 1.5 0  15 1.5 0  15.75 1.5 0  16.5 1.5 0  17.25 1.5 0  18 1.5 0  18.75 1.5 0  19.5 1.5 0  20.25 1.5 0  21 1.5 0  21.75 1.5 0  22.5 1.5 0  23.25 1.5 0  24 1.5 0  24.75 1.5 0  25.5 1.5 0  26.25 1.5 0  27 1.5 0  27.75 1.5 0  28.5 1.5 0  29.25 1.5 0  30 1.5 0  30.75 1.5 0  31.5 1.5 0  32.25 1.5 0  33 1.5 0  33.75 1.5 0  34.5 1.5 0  35.25 1.5 0  36 1.5 0  36.75 1.5 0  37.5 1.5 0  38.25 1.5 0  39 1.5 0  39.75 1.5 0  40.5 1.5 0  41.25 1.5 0  42 1.5 0  42.75 1.5 0  43.5 1.5 0  44.25 1.5 0  45 1.5 0  45.75 1.5 0  46.5 1.5 0  47.25 1.5 0  48 1.5 0  48.75 1.5 0  49.5 1.5 0  50.25 1.5 0  51 1.5 0  51.75 1.5 0  52.5 1.5 0  53.25 1.5 0  54 1.5 0  54.75 1.5 0  55.5 1.5 0  56.25 1.5 0  57 1.5 0  57.75 1.5 0  58.5 1.5 0  59.25 1.5 0  60 1.5 0  0 2 0  0.75 2 0  1.5 2 0  2.25 2 0  3 2 0  3.75 2 0  4.5 2 0  5.25 2 0  6 2 0  6.75 2 0  7.5 2 0  8.25 2 0  9 2 0  9.75 2 0  10.5 2 0  11.25 2 0  12 2 0  12.75 2 0  13.5 2 0  14.25 2 0  15 2 0  15.75 2 0  16.5 2 0  17.25 2 0  18 2 0  18.75 2 0  19.5 2 0  20.25 2 0  21 2 0  21.75 2 0  22.5 2 0  23.25 2 0  24 2 0  24.75 2 0  25.5 2 0  26.25 2 0  27 2 0  27.75 2 0  28.5 2 0  29.25 2 0  30 2 0  30.75 2 0  31.5 2 0  32.25 2 0  33 2 0  33.75 2 0  34.5 2 0  35.25 2 0  36 2 0  36.75 2 0  37.5 2 0  38.25 2 0  39 2 0  39.75 2 0  40.5 2 0  41.25 2 0  42 2 0  42.75 2 0  43.5 2 0  44.25 2 0  45 2 0  45.75 2 0  46.5 2 0  47.25 2 0  48 2 0  48.75 2 0  49.5 2 0  50.25 2 0  51 2 0  51.75 2 0  52.5 2 0  53.25 2 0  54 2 0  54.75 2 0  55.5 2 0  56.25 2 0  57 2 0  57.75 2 0  58.5 2 0  59.25 2 0  60 2 0  0 2.5 0  0.75 2.5 0  1.5 2.5 0  2.25 2.5 0  3 2.5 0  3.75 2.5 0  4.5 2.5 0  5.25 2.5 0  6 2.5 0  6.75 2.5 0  7.5 2.5 0  8.25 2.5 0  9 2.5 0  9.75 2.5 0  10.5 2.5 0  11.25 2.5 0  12 2.5 0  12.75 2.5 0  13.5 2.5 0  14.25 2.5 0  15 2.5 0  15.75 2.5 0  16.5 2.5 0  17.25 2.5 0  18 2.5 0  18.75 2.5 0  19.5 2.5 0  20.25 2.5 0  21 2.5 0  21.75 2.5 0  22.5 2.5 0  23.25 2.5 0  24 2.5 0  24.75 2.5 0  25.5 2.5 0  26.25 2.5 0  27 2.5 0  27.75 2.5 0  28.5 2.5 0  29.25 2.5 0  30 2.5 0  30.75 2.5 0  31.5 2.5 0  32.25 2.5 0  33 2.5 0  33.75 2.5 0  34.5 2.5 0  35.25 2.5 0  36 2.5 0  36.75 2.5 0  37.5 2.5 0  38.25 2.5 0  39 2.5 0  39.75 2.5 0  40.5 2.5 0  41.25 2.5 0  42 2.5 0  42.75 2.5 0  43.5 2.5 0  44.25 2.5 0  45 2.5 0  45.75 2.5 0  46.5 2.5 0  47.25 2.5 0  48 2.5 0  48.75 2.5 0  49.5 2.5 0  50.25 2.5 0  51 2.5 0  51.75 2.5 0  52.5 2.5 0  53.25 2.5 0  54 2.5 0  54.75 2.5 0  55.5 2.5 0  56.25 2.5 0  57 2.5 0  57.75 2.5 0  58.5 2.5 0  59.25 2.5 0  60 2.5 0  0 3 0  0.75 3 0  1.5 3 0  2.25 3 0  3 3 0  3.75 3 0  4.5 3 0  5.25 3 0  6 3 0  6.75 3 0  7.5 3 0  8.25 3 0  9 3 0  9.75 3 0  10.5 3 0  11.25 3 0  12 3 0  12.75 3 0  13.5 3 0  14.25 3 0  15 3 0  15.75 3 0  16.5 3 0  17.25 3 0  18 3 0  18.75 3 0  19.5 3 0  20.25 3 0  21 3 0  21.75 3 0  22.5 3 0  23.25 3 0  24 3 0  24.75 3 0  25.5 3 0  26.25 3 0  27 3 0  27.75 3 0  28.5 3 0  29.25 3 0  30 3 0  30.75 3 0  31.5 3 0  32.25 3 0  33 3 0  33.75 3 0  34.5 3 0  35.25 3 0  36 3 0  36.75 3 0  37.5 3 0  38.25 3 0  39 3 0  39.75 3 0  40.5 3 0  41.25 3 0  42 3 0  42.75 3 0  43.5 3 0  44.25 3 0  45 3 0  45.75 3 0  46.5 3 0  47.25 3 0  48 3 0  48.75 3 0  49.5 3 0  50.25 3 0  51 3 0  51.75 3 0  52.5 3 0  53.25 3 0  54 3 0  54.75 3 0  55.5 3 0  56.25 3 0  57 3 0  57.75 3 0  58.5 3 0  59.25 3 0  60 3 0  0 3.5 0  0.75 3.5 0  1.5 3.5 0  2.25 3.5 0  3 3.5 0  3.75 3.5 0  4.5 3.5 0  5.25 3.5 0  6 3.5 0  6.75 3.5 0  7.5 3.5 0  8.25 3.5 0  9 3.5 0  9.75 3.5 0  10.5 3.5 0  11.25 3.5 0  12 3.5 0  12.75 3.5 0  13.5 3.5 0  14.25 3.5 0  15 3.5 0  15.75 3.5 0  16.5 3.5 0  17.25 3.5 0  18 3.5 0  18.75 3.5 0  19.5 3.5 0  20.25 3.5 0  21 3.5 0  21.75 3.5 0  22.5 3.5 0  23.25 3.5 0  24 3.5 0  24.75 3.5 0  25.5 3.5 0  26.25 3.5 0  27 3.5 0  27.75 3.5 0  28.5 3.5 0  29.25 3.5 0  30 3.5 0  30.75 3.5 0  31.5 3.5 0  32.25 3.5 0  33 3.5 0  33.75 3.5 0  34.5 3.5 0  35.25 3.5 0  36 3.5 0  36.75 3.5 0  37.5 3.5 0  38.25 3.5 0  39 3.5 0  39.75 3.5 0  40.5 3.5 0  41.25 3.5 0  42 3.5 0  42.75 3.5 0  43.5 3.5 0  44.25 3.5 0  45 3.5 0  45.75 3.5 0  46.5 3.5 0  47.25 3.5 0  48 3.5 0  48.75 3.5 0  49.5 3.5 0  50.25 3.5 0  51 3.5 0  51.75 3.5 0  52.5 3.5 0  53.25 3.5 0  54 3.5 0  54.75 3.5 0  55.5 3.5 0  56.25 3.5 0  57 3.5 0  57.75 3.5 0  58.5 3.5 0  59.25 3.5 0  60 3.5 0  0 4 0  0.75 4 0  1.5 4 0  2.25 4 0  3 4 0  3.75 4 0  4.5 4 0  5.25 4 0  6 4 0  6.75 4 0  7.5 4 0  8.25 4 0  9 4 0  9.75 4 0  10.5 4 0  11.25 4 0  12 4 0  12.75 4 0  13.5 4 0  14.25 4 0  15 4 0  15.75 4 0  16.5 4 0  17.25 4 0  18 4 0  18.75 4 0  19.5 4 0  20.25 4 0  21 4 0  21.75 4 0  22.5 4 0  23.25 4 0  24 4 0  24.75 4 0  25.5 4 0  26.25 4 0  27 4 0  27.75 4 0  28.5 4 0  29.25 4 0  30 4 0  30.75 4 0  31.5 4 0  32.25 4 0  33 4 0  33.75 4 0  34.5 4 0  35.25 4 0  36 4 0  36.75 4 0  37.5 4 0  38.25 4 0  39 4 0  39.75 4 0  40.5 4 0  41.25 4 0  42 4 0  42.75 4 0  43.5 4 0  44.25 4 0  45 4 0  45.75 4 0  46.5 4 0  47.25 4 0  48 4 0  48.75 4 0  49.5 4 0  50.25 4 0  51 4 0  51.75 4 0  52.5 4 0  53.25 4 0  54 4 0  54.75 4 0  55.5 4 0  56.25 4 0  57 4 0  57.75 4 0  58.5 4 0  59.25 4 0  60 4 0  0.375 0.25 0  1.125 0.25 0  1.875 0.25 0  2.625 0.25 0  3.375 0.25 0  4.125 0.25 0  4.875 0.25 0  5.625 0.25 0  6.375 0.25 0  7.125 0.25 0  7.875 0.25 0  8.625 0.25 0  9.375 0.25 0  10.125 0.25 0  10.875 0.25 0  11.625 0.25 0  12.375 0.25 0  13.125 0.25 0  13.875 0.25 0  14.625 0.25 0  15.375 0.25 0  16.125 0.25 0  16.875 0.25 0  17.625 0.25 0  18.375 0.25 0  19.125 0.25 0  19.875 0.25 0  20.625 0.25 0  21.375 0.25 0  22.125 0.25 0  22.875 0.25 0  23.625 0.25 0  24.375 0.25 0  25.125 0.25 0  25.875 0.25 0  26.625 0.25 0  27.375 0.25 0  28.125 0.25 0  28.875 0.25 0  29.625 0.25 0  30.375 0.25 0  31.125 0.25 0  31.875 0.25 0  32.625 0.25 0  33.375 0.25 0  34.125 0.25 0  34.875 0.25 0  35.625 0.25 0  36.375 0.25 0  37.125 0.25 0  37.875 0.25 0  38.625 0.25 0  39.375 0.25 0  40.125 0.25 0  40.875 0.25 0  41.625 0.25 0  42.375 0.25 0  43.125 0.25 0  43.875 0.25 0  44.625 0.25 0  45.375 0.25 0  46.125 0.25 0  46.875 0.25 0  47.625 0.25 0  48.375 0.25 0  49.125 0.25 0  49.875 0.25 0  50.625 0.25 0  51.375 0.25 0  52.125 0.25 0  52.875 0.25 0  53.625 0.25 0  54.375 0.25 0  55.125 0.25 0  55.875 0.25 0  56.625 0.25 0  57.375 0.25 0  58.125 0.25 0  58.875 0.25 0  59.625 0.25 0  0.375 0.75 0  1.125 0.75 0  1.875 0.75 0  2.625 0.75 0  3.375 0.75 0  4.125 0.75 0  4.875 0.75 0  5.625 0.75 0  6.375 0.75 0  7.125 0.75 0  7.875 0.75 0  8.625 0.75 0  9.375 0.75 0  10.125 0.75 0  10.875 0.75 0  11.625 0.75 0  12.375 0.75 0  13.125 0.75 0  13.875 0.75 0  14.625 0.75 0  15.375 0.75 0  16.125 0.75 0  16.875 0.75 0  17.625 0.75 0  18.375 0.75 0  19.125 0.75 0  19.875 0.75 0  20.625 0.75 0  21.375 0.75 0  22.125 0.75 0  22.875 0.75 0  23.625 0.75 0  24.375 0.75 0  25.125 0.75 0  25.875 0.75 0  26.625 0.75 0  27.375 0.75 0  28.125 0.75 0  28.875 0.75 0  29.625 0.75 0  30.375 0.75 0  31.125 0.75 0  31.875 0.75 0  32.625 0.75 0  33.375 0.75 0  34.125 0.75 0  34.875 0.75 0  35.625 0.75 0  36.375 0.75 0  37.125 0.75 0  37.875 0.75 0  38.625 0.75 0  39.375 0.75 0  40.125 0.75 0  40
[...]
<PointData  Scalars="f_8-1"> 
<DataArray  type="Float64"  Name="f_8-1"  format="ascii">1.1850248372246865e+01  1.1705617157176240e+01  1.1555645956825675e+01  1.1408199175280581e+01  1.1259777574545351e+01  1.1111705614804260e+01  1.0963521479929524e+01  1.0815372258986093e+01  1.0667213397043795e+01  1.0519057322054719e+01  1.0370900587525284e+01  1.0222744056892608e+01  1.0074587493399671e+01  9.9264309470030412e+00  9.7782744011216796e+00  9.6301178574690542e+00  9.4819613144831916e+00  9.3338047719422637e+00  9.1856482295985113e+00  9.0374916873590934e+00  8.8893351451698237e+00  8.7411786030058405e+00  8.5930220608546044e+00  8.4448655187094683e+00  8.2967089765673574e+00  8.1485524344265983e+00  8.0003958922865035e+00  7.8522393501467889e+00  7.7040828080072563e+00  7.5559262658675710e+00  7.4077697237280367e+00  7.2596131815887945e+00  7.1114566394496270e+00  6.9633000973101833e+00  6.8151435551707991e+00  6.6669870130313518e+00  6.5188304708917117e+00  6.3706739287519749e+00  6.2225173866122043e+00  6.0743608444727695e+00  5.9262043023330406e+00  5.7780477601933473e+00  5.6298912180534666e+00  5.4817346759139056e+00  5.3335781337740711e+00  5.1854215916339470e+00  5.0372650494935591e+00  4.8891085073510476e+00  4.7409519652077465e+00  4.5927954230560530e+00  4.4446388808998138e+00  4.2964823387134352e+00  4.1483257965018092e+00  4.0001692541841019e+00  3.8520127117422556e+00  3.7038561689234699e+00  3.5556996255571343e+00  3.4075430808188107e+00  3.2593865337767967e+00  3.1112299814091386e+00  2.9630734186124550e+00  2.8149168306283641e+00  2.6667601840160251e+00  2.5186033896733058e+00  2.3704462449636803e+00  2.2222883085545666e+00  2.0741287828992934e+00  1.9259664664280780e+00  1.7778001310896954e+00  1.6296293395446491e+00  1.4814553537682664e+00  1.3332807015431791e+00  1.1851079695064555e+00  1.0369396470140748e+00  8.8878008257538366e-01  7.4063592536526202e-01  5.9251511598761053e-01  4.4442803373809237e-01  2.9639185289889164e-01  1.4845936756242523e-01  2.9416835405249387e-03  1.1852826430019572e+01  1.1704450647059327e+01  1.1556278037966708e+01  1.1408028738470724e+01  1.1259912023785215e+01  1.1111733024920255e+01  1.0963583323444087e+01  1.0815423833165672e+01  1.0667267921574703e+01  1.0519111066736000e+01  1.0370954547895087e+01  1.0222797968350829e+01  1.0074641420144628e+01  9.9264848716266894e+00  9.7783283270784604e+00  9.6301717835262846e+00  9.4820152407280514e+00  9.3338586982484291e+00  9.1857021559434706e+00  9.0375456137209795e+00  8.8893890715408705e+00  8.7412325293810156e+00  8.5930759872321030e+00  8.4449194450880061e+00  8.2967629029463943e+00  8.1486063608058590e+00  8.0004498186659543e+00  7.8522932765262503e+00  7.7041367343868039e+00  7.5559801922470928e+00  7.4078236501075079e+00  7.2596671079683439e+00  7.1115105658292901e+00  6.9633540236896412e+00  6.8151974815504373e+00  6.6670409394108860e+00  6.5188843972712736e+00  6.3707278551314994e+00  6.2225713129916720e+00  6.0744147708524050e+00  5.9262582287125580e+00  5.7781016865729118e+00  5.6299451444329094e+00  5.4817886022935776e+00  5.3336320601534553e+00  5.1854755180136873e+00  5.0373189758726964e+00  4.8891624337311486e+00  4.7410058915861546e+00  4.5928493494368192e+00  4.4446928072763336e+00  4.2965362650951375e+00  4.1483797228732753e+00  4.0002231805652997e+00  3.8520666380988922e+00  3.7039100952933341e+00  3.5557535518659948e+00  3.4075970071324986e+00  3.2594404599610360e+00  3.1112839076682488e+00  2.9631273450395645e+00  2.8149707585106474e+00  2.6668141150423579e+00  2.5186573261695031e+00  2.3705001793914220e+00  2.2223422010037219e+00  2.0741825072872437e+00  1.9260197605267060e+00  1.7778526377789174e+00  1.6296809073401497e+00  1.4815064298182135e+00  1.3333320942778017e+00  1.1851600299105398e+00  1.0369927097322800e+00  8.8883533033313000e-01  7.4069430487916355e-01  5.9257731269468339e-01  4.4449132278160686e-01  2.9644276909675799e-01  1.4851870586023322e-01  9.2621976250057783e-05  1.1852218952741728e+01  1.1704425932290073e+01  1.1556232562289853e+01  1.1408091807554021e+01  1.1259921591608990e+01  1.1111768674487026e+01  1.0963609846518439e+01  1.0815453688289466e+01  1.0667296835938361e+01  1.0519140295275166e+01  1.0370983707228561e+01  1.0222827154721960e+01  1.0074670603770098e+01  9.9265140580706763e+00  9.7783575139044530e+00  9.6302009708034255e+00  9.4820444281722569e+00  9.3338878857906273e+00  9.1857313435317174e+00  9.0375748013325641e+00  8.8894182591641062e+00  8.7412617170099356e+00  8.5931051748639060e+00  8.4449486327212355e+00  8.2967920905801478e+00  8.1486355484399375e+00  8.0004790063003028e+00  7.8523224641606220e+00  7.7041659220212608e+00  7.5560093798815791e+00  7.4078528377419310e+00  7.2596962956028310e+00  7.1115397534637887e+00  6.9633832113239551e+00  6.8152266691848542e+00  6.6670701270452160e+00  6.5189135849057038e+00  6.3707570427659297e+00  6.2226005006260596e+00  6.0744439584868930e+00  5.9262874163471100e+00  5.7781308742073092e+00  5.6299743320674942e+00  5.4818177899280327e+00  5.3336612477881324e+00  5.1855047056481833e+00  5.0373481635074864e+00  4.8891916213660886e+00  4.7410350792213674e+00  4.5928785370737346e+00  4.4447219949131735e+00  4.2965654527392658e+00  4.1484089105177882e+00  4.0002523682348112e+00  3.8520958257772127e+00  3.7039392830534767e+00  3.5557827396870807e+00  3.4076261952397102e+00  3.2594696484467076e+00  3.1113130974899073e+00  2.9631565377174987e+00  2.8149999598059847e+00  2.6668433365348476e+00  2.5186865951208550e+00  2.3705295356442884e+00  2.2223716878315627e+00  2.0742120885264006e+00  1.9260491983061814e+00  1.7778813784041096e+00  1.6297084676811096e+00  1.4815331339064977e+00  1.3333589282809770e+00  1.1851870634025223e+00  1.0370200121211810e+00  8.8886350760608390e-01  7.4072375511629662e-01  5.9260732069246203e-01  4.4451762049627580e-01  2.9644473267340843e-01  1.4833919530789391e-01  -5.6324854145833936e-06  1.1852277776055585e+01  1.1704256401932710e+01  1.1556191240091463e+01  1.1408046607762788e+01  1.1259895201194562e+01  1.1111738287839323e+01  1.0963581906374426e+01  1.0815425126063991e+01  1.0667268519553518e+01  1.0519111913173191e+01  1.0370955343957142e+01  1.0222798785259380e+01  1.0074642235128847e+01  9.9264856887230621e+00  9.7783291444573024e+00  9.6301726012352731e+00  9.4820160585559528e+00  9.3338595161470188e+00  9.1857029738738341e+00  9.0375464316684671e+00  8.8893898894965240e+00  8.7412333473411952e+00  8.5930768051938777e+00  8.4449202630505429e+00  8.2967637209093557e+00  8.1486071787689145e+00  8.0004506366291590e+00  7.8522940944897330e+00  7.7041375523500344e+00  7.5559810102106111e+00  7.4078244680712677e+00  7.2596679259317289e+00  7.1115113837920907e+00  6.9633548416528006e+00  6.8151982995133187e+00  6.6670417573738412e+00  6.5188852152342411e+00  6.3707286730947601e+00  6.2225721309551929e+00  6.0744155888155404e+00  5.9262590466759422e+00  5.7781025045363110e+00  5.6299459623966523e+00  5.4817894202569546e+00  5.3336328781171591e+00  5.1854763359770528e+00  5.0373197938363976e+00  4.8891632516936960e+00  4.7410067095498780e+00  4.5928501673973283e+00  4.4446936252393501e+00  4.2965370830494214e+00  4.1483805408304413e+00  4.0002239984973569e+00  3.8520674560275241e+00  3.7039109131482806e+00  3.5557543696844003e+00  3.4075978247492440e+00  3.2594412774688206e+00  3.1112847247439990e+00  2.9631281618704306e+00  2.8149715736390326e+00  2.6668149248716078e+00  2.5186581135715058e+00  2.3705008997066366e+00  2.2223427421584319e+00  2.0741826622592989e+00  1.9260192133418452e+00  1.7778511377686805e+00  1.6296786338969222e+00  1.4815043032637112e+00  1.3333310082436864e+00  1.1851604627194077e+00  1.0369955975042526e+00  8.8884177050304769e-01  7.4070390607856817e-01  5.9258683712341753e-01  4.4448788284863744e-01  2.9639000027186280e-01  1.4825048805513286e-01  5.6412590947675886e-06  1.1852246443692172e+01  1.1704248886077021e+01  1.1556168858068844e+01  1.1408041222402527e+01  1.1259890002924958e+01  1.1111734730760729e+01  1.0963578157875169e+01  1.0815421525264494e+01  1.0667264882390542e+01  1.0519108285279136e+01  1.0370951710436321e+01  1.0222795151350867e+01  1.0074638600177700e+01  9.9264820534227933e+00  9.7783255089170353e+00  9.6301689655842111e+00  9.4820124228446421e+00  9.3338558804059115e+00  9.1856993381175371e+00  9.0375427959045780e+00  8.8893862537289170e+00  8.7412297115717159e+00  8.5930731694234197e+00  8.4449166272795804e+00  8.2967600851381000e+00  8.1486035429977228e+00  8.0004470008577826e+00  7.8522904587182039e+00  7.7041339165786660e+00  7.5559773744391689e+00  7.4078208322997661e+00  7.2596642901601900e+00  7.1115077480206041e+00  6.9633512058812350e+00  6.8151946637416509e+00  6.6670381216021815e+00  6.5188815794627191e+00  6.3707250373232007e+00  6.2225684951837232e+00  6.0744119530439740e+00  5.9262554109045356e+00  5.7780988687647961e+00  5.6299423266253079e+00  5.4817857844854769e+00  5.3336292423457135e+00  5.1854727002055441e+00  5.0373161580643213e+00  4.8891596159224235e+00  4.7410030737755733e+00  4.5928465316261704e+00  4.4446899894579559e+00  4.2965334472756140e+00  4.1483769050257981e+00  4.0002203627051136e+00  3.8520638201447679e+00  3.7039072772677035e+00  3.5557507335333165e+00  3.4075941884942638e+00  3.2594376403303218e+00  3.1112810867016178e+00  2.9631245198114917e+00  2.8149679236675418e+00  2.6668112501077568e+00  2.5186543846385954e+00  2.3704970467140276e+00  2.2223386752278156e+00  2.0741782773520225e+00  1.9260145665623596e+00  1.7778465193458461e+00  1.6296745623748627e+00  1.4815008213339615e+00  1.3333279751408176e+00  1.1851580448645327e+00  1.0369943797540278e+00  8.8884149427959092e-01  7.4070467035254861e-01  5.9258669810222042e-01  4.4448380794342773e-01  2.9637732979342685e-01  1.4822682491101685e-01  1.3067156809810979e-05  1.1852277776055583e+01  1.1704256401932783e+01  1.1556191240091533e+01  1.1408046607762836e+01  1.1259895201194540e+01  1.1111738287839414e+01  1.0963581906374747e+01  1.0815425126064396e+01  1.0667268519553803e+01  1.0519111913173424e+01  1.0370955343957169e+01  1.0222798785259448e+01  1.0074642235128891e+01  9.9264856887231261e+00  9.7783291444575866e+00  9.6301726012353868e+00  9.4820160585562121e+00  9.3338595161471840e+00  9.1857029738740863e+00  9.0375464316686749e+00  8.8893898894967762e+00  8.7412333473413319e+00  8.5930768051940074e+00  8.4449202630506495e+00  8.2967637209093876e+00  8.1486071787690513e+00  8.0004506366292087e+00  7.8522940944896238e+00  7.7041375523500601e+00  7.5559810102106058e+00  7.4078244680711505e+00  7.2596679259316010e+00  7.1115113837920436e+00  6.9633548416525786e+00  6.8151982995130354e+00  6.6670417573735721e+00  6.5188852152341079e+00  6.3707286730946606e+00  6.2225721309550606e+00  6.0744155888155049e+00  5.9262590466758782e+00  5.7781025045364007e+00  5.6299459623967003e+00  5.4817894202571145e+00  5.3336328781172151e+00  5.1854763359770821e+00  5.0373197938364127e+00  4.8891632516937262e+00  4.7410067095498691e+00  4.5928501673974109e+00  4.4446936252394043e+00  4.2965370830495031e+00  4.1483805408305399e+00  4.0002239984973835e+00  3.8520674560274837e+00  3.7039109131482029e+00  3.5557543696842799e+00  3.4075978247491556e+00  3.2594412774688304e+00  3.1112847247439634e+00  2.9631281618704350e+00  2.8149715736390246e+00  2.6668149248716331e+00  2.5186581135715320e+00  2.3705008997066694e+00  2.2223427421584612e+00  2.0741826622593353e+00  1.9260192133418890e+00  1.7778511377686841e+00  1.6296786338969664e+00  1.4815043032637354e+00  1.3333310082437200e+00  1.1851604627193921e+00  1.0369955975042837e+00  8.8884177050306068e-01  7.4070390607857750e-01  5.9258683712342286e-01  4.4448788284864016e-01  2.9639000027186330e-01  1.4825048805513255e-01  5.6412590948132073e-06  1.1852218952741723e+01  1.1704425932290198e+01  1.1556232562290294e+01  1.1408091807554360e+01  1.1259921591609080e+01  1.1111768674487250e+01  1.0963609846518924e+01  1.0815453688290509e+01  1.0667296835939068e+01  1.0519140295275530e+01  1.0370983707228770e+01  1.0222827154721879e+01  1.0074670603770327e+01  9.9265140580707403e+00  9.7783575139047869e+00  9.6302009708046175e+00  9.4820444281728804e+00  9.3338878857914072e+00  9.1857313435318488e+00  9.0375748013330579e+00  8.8894182591645876e+00  8.7412617170107190e+00  8.5931051748642862e+00  8.4449486327213350e+00  8.2967920905802970e+00  8.1486355484400192e+00  8.0004790063002158e+00  7.8523224641606317e+00  7.7041659220211036e+00  7.5560093798816359e+00  7.4078528377421602e+00  7.2596962956026285e+00  7.1115397534631164e+00  6.9633832113235909e+00  6.8152266691840859e+00  6.6670701270445987e+00  6.5189135849051612e+00  6.3707570427656615e+00  6.2226005006261378e+00  6.0744439584865271e+00  5.9262874163470300e+00  5.7781308742074140e+00  5.6299743320678814e+00  5.4818177899281828e+00  5.3336612477884220e+00  5.1855047056483867e+00  5.0373481635076347e+00  4.8891916213661624e+00  4.7410350792213984e+00  4.5928785370737808e+00  4.4447219949133761e+00  4.2965654527394674e+00  4.1484089105180280e+00  4.0002523682348414e+00  3.8520958257771079e+00  3.7039392830532774e+00  3.5557827396868249e+00  3.4076261952395637e+00  3.2594696484465930e+00  3.1113130974897678e+00  2.9631565377174485e+00  2.8149999598061282e+00  2.6668433365349906e+00  2.5186865951208697e+00  2.3705295356442480e+00  2.2223716878316626e+00  2.0742120885265027e+00  1.9260491983062689e+00  1.7778813784042384e+00  1.6297084676810445e+00  1.4815331339065698e+00  1.3333589282810192e+00  1.1851870634027057e+00  1.0370200121212132e+00  8.8886350760611110e-01  7.4072375511631372e-01  5.9260732069247080e-01  4.4451762049628035e-01  2.9644473267341015e-01  1.4833919530789433e-01  -5.6324854145749741e-06  1.1852826430019565e+01  1.1704450647059485e+01  1.1556278037967104e+01  1.1408028738471058e+01  1.1259912023785482e+01  1.1111733024920580e+01  1.0963583323444590e+01  1.0815423833166681e+01  1.0667267921575490e+01  1.0519111066736428e+01  1.0370954547895316e+01  1.0222797968350855e+01  1.0074641420144850e+01  9.9264848716268332e+00  9.7783283270788761e+00  9.6301717835274907e+00  9.4820152407288631e+00  9.3338586982493279e+00  9.1857021559438135e+00  9.0375456137215142e+00  8.8893890715414052e+00  8.7412325293818558e+00  8.5930759872325471e+00  8.4449194450882619e+00  8.2967629029464778e+00  8.1486063608058910e+00  8.0004498186659045e+00  7.8522932765262299e+00  7.7041367343866591e+00  7.5559801922471639e+00  7.4078236501076784e+00  7.2596671079681681e+00  7.1115105658286231e+00  6.9633540236891225e+00  6.8151974815496050e+00  6.6670409394101426e+00  6.5188843972706492e+00  6.3707278551311814e+00  6.2225713129916356e+00  6.0744147708520959e+00  5.9262582287125021e+00  5.7781016865730033e+00  5.6299451444333242e+00  5.4817886022937934e+00  5.3336320601537865e+00  5.1854755180139200e+00  5.0373189758728651e+00  4.8891624337312152e+00  4.7410058915862514e+00  4.5928493494368752e+00  4.4446928072765468e+00  4.2965362650953649e+00  4.1483797228734920e+00  4.0002231805653476e+00  3.8520666380988162e+00  3.7039100952931467e+00  3.5557535518657253e+00  3.4075970071323116e+00  3.2594404599608531e+00  3.1112839076681089e+00  2.9631273450394988e+00  2.8149707585107770e+00  2.6668141150425044e+00  2.5186573261695422e+00  2.3705001793913985e+00  2.2223422010038116e+00  2.0741825072873450e+00  1.9260197605268159e+00  1.7778526377790469e+00  1.6296809073401124e+00  1.4815064298182823e+00  1.3333320942778728e+00  1.1851600299106955e+00  1.0369927097323499e+00  8.8883533033317030e-01  7.4069430487918286e-01  5.9257731269469449e-01  4.4449132278161552e-01  2.9644276909676132e-01  1.4851870586023458e-01  9.2621976249806289e-05  1.1850248372246869e+01  1.1705617157176434e+01  1.1555645956826025e+01  1.1408199175280906e+01  1.1259777574545714e+01  1.1111705614804618e+01  1.0963521479930050e+01  1.0815372258986875e+01  1.0667213397044589e+01  1.0519057322055186e+01  1.0370900587525552e+01  1.0222744056892674e+01  1.0074587493399875e+01  9.9264309470032259e+00  9.7782744011222125e+00  9.6301178574700366e+00  9.4819613144841561e+00  9.3338047719430772e+00  9.1856482295990176e+00  9.0374916873596174e+00  8.8893351451704099e+00  8.7411786030065937e+00  8.5930220608550805e+00  8.4448655187097810e+00  8.2967089765674356e+00  8.1485524344266000e+00  8.0003958922864893e+00  7.8522393501467302e+00  7.7040828080071488e+00  7.5559262658676252e+00  7.4077697237281352e+00  7.2596131815886187e+00  7.1114566394490879e+00  6.9633000973095704e+00  6.8151435551700619e+00  6.6669870130305977e+00  6.5188304708911016e+00  6.3706739287516339e+00  6.2225173866120720e+00  6.0743608444725607e+00  5.9262043023329580e+00  5.7780477601934548e+00  5.6298912180538094e+00  5.4817346759141952e+00  5.3335781337743722e+00  5.1854215916341762e+00  5.0372650494937279e+00  4.8891085073511311e+00  4.7409519652078416e+00  4.5927954230561170e+00  4.4446388809000048e+00  4.2964823387136724e+00  4.1483257965019851e+00  4.0001692541841667e+00  3.8520127117421832e+00  3.7038561689232994e+00  3.5556996255568838e+00  3.4075430808186198e+00  3.2593865337766013e+00  3.1112299814089934e+00  2.9630734186123981e+00  2.8149168306284666e+00  2.6667601840161623e+00  2.5186033896733564e+00  2.3704462449636834e+00  2.2222883085546399e+00  2.0741287828993866e+00  1.9259664664281904e+00  1.7778001310897975e+00  1.6296293395446606e+00  1.4814553537683093e+00  1.3332807015432682e+00  1.1851079695065714e+00  1.0369396470141512e+00  8.8878008257542496e-01  7.4063592536527889e-01  5.9251511598762507e-01  4.4442803373809986e-01  2.9639185289889591e-01  1.4845936756242664e-01  2.9416835405255051e-03  1.1779637614914396e+01  1.1630332657603493e+01  1.1482248588938575e+01  1.1334051002264216e+01  1.1185898496372136e+01  1.1037738801059762e+01  1.0889581808932951e+01  1.0741424966440182e+01  1.0593268271085210e+01  1.0445111666224149e+01  1.0296955087407694e+01  1.0148798528408568e+01  1.0000641977177283e+01  9.8524854305615257e+00  9.7043288861208055e+00  9.5561723428328040e+00  9.4080158001162193e+00  9.2598592576899676e+00  9.1117027154080450e+00  8.9635461731980310e+00  8.8153896310236313e+00  8.6672330888671159e+00  8.5190765467194822e+00  8.3709200045761829e+00  8.2227634624348216e+00  8.0746069202944710e+00  7.9264503781546232e+00  7.7782938360150053e+00  7.6301372938753866e+00  7.4819807517357999e+00  7.3338242095963544e+00  7.1856676674572268e+00  7.0375111253178977e+00  6.8893545831784992e+00  6.7411980410390777e+00  6.5930414988995167e+00  6.4448849567598288e+00  6.2967284146200431e+00  6.1485718724805123e+00  6.0004153303408696e+00  5.8522587882012340e+00  5.7041022460613071e+00  5.5559457039217843e+00  5.4077891617818468e+00  5.2596326196421712e+00  5.1114760775015053e+00  4.9633195353604469e+00  4.8151629932169211e+00  4.6670064510697520e+00  4.5188499089149188e+00  4.3706933667429375e+00  4.2225368245427433e+00  4.0743802822729291e+00  3.9262237398902662e+00  3.7780671972385669e+00  3.6299106541331732e+00  3.4817541100055998e+00  3.3335975640634747e+00  3.1854410141445446e+00  3.0372844564607382e+00  2.8891278806509240e+00  2.7409712630947873e+00  2.5928145399030980e+00  2.4446575606422480e+00  2.2964999825282542e+00  2.1483411498360465e+00  2.0001799931719026e+00  1.8520152568726835e+00  1.7038461653060719e+00  1.5556734446701339e+00  1.4074992711317040e+00  1.2593261072659034e+00  1.1111562097135550e+00  9.6299355276885423e-01  8.1484359270366902e-01  6.6671345525728110e-01  5.1861064447209149e-01  3.7054587065127181e-01  2.2254859641760338e-01  7.4932239397843381e-02  1.1778015505066291e+01  1.1630311904851744e+01  1.1482021902652727e+01  1.1333900346242263e+01  1.1185722666655030e+01  1.1037570313996635e+01  1.0889411697292566e+01  1.0741255358853197e+01  1.0593098608266095e+01  1.0444942044064941e+01  1.0296785471203897e+01  1.0148628918330484e+01  1.0000472369632478e+01  9.8523158244407050e+00  9.7041592807038519e+00  9.5560027377785950e+00  9.4078461952441401e+00  9.2596896529096870e+00  9.1115331106735731e+00  8.9633765684862059e+00  8.8152200263231