<?xml version="1.0"?>
<VTKFile type="UnstructuredGrid"  version="0.1"  >
<UnstructuredGrid>
<Piece  NumberOfPoints="1369" NumberOfCells="2560">
<Points>
<DataArray  type="Float64"  NumberOfComponents="3"  format="ascii">0 0 0  0.75 0 0  1.5 0 0  2.25 0 0  3 0 0  3.75 0 0  4.5 0 0  5.25 0 0  6 0 0  6.75 0 0  7.5 0 0  8.25 0 0  9 0 0  9.75 0 0  10.5 0 0  11.25 0 0  12 0 0  12.75 0 0  13.5 0 0  14.25 0 0  15 0 0  15.75 0 0  16.5 0 0  17.25 0 0  18 0 0  18.75 0 0  19.5 0 0  20.25 0 0  21 0 0  21.75 0 0  22.5 0 0  23.25 0 0  24 0 0  24.75 0 0  25.5 0 0  26.25 0 0  27 0 0  27.75 0 0  28.5 0 0  29.25 0 0  30 0 0  30.75 0 0  31.5 0 0  32.25 0 0  33 0 0  33.75 0 0  34.5 0 0  35.25 0 0  36 0 0  36.75 0 0  37.5 0 0  38.25 0 0  39 0 0  39.75 0 0  40.5 0 0  41.25 0 0  42 0 0  42.75 0 0  43.5 0 0  44.25 0 0  45 0 0  45.75 0 0  46.5 0 0  47.25 0 0  48 0 0  48.75 0 0  49.5 0 0  50.25 0 0  51 0 0  51.75 0 0  52.5 0 0  53.25 0 0  54 0 0  54.75 0 0  55.5 0 0  56.25 0 0  57 0 0  57.75 0 0  58.5 0 0  59.25 0 0  60 0 0  0 0.5 0  0.75 0.5 0  1.5 0.5 0  2.25 0.5 0  3 0.5 0  3.75 0.5 0  4.5 0.5 0  5.25 0.5 0  6 0.5 0  6.75 0.5 0  7.5 0.5 0  8.25 0.5 0  9 0.5 0  9.75 0.5 0  10.5 0.5 0  11.25 0.5 0  12 0.5 0  12.75 0.5 0  13.5 0.5 0  14.25 0.5 0  15 0.5 0  15.75 0.5 0  16.5 0.5 0  17.25 0.5 0  18 0.5 0  18.75 0.5 0  19.5 0.5 0  20.25 0.5 0  21 0.5 0  21.75 0.5 0  22.5 0.5 0  23.25 0.5 0  24 0.5 0  24.75 0.5 0  25.5 0.5 0  26.25 0.5 0  27 0.5 0  27.75 0.5 0  28.5 0.5 0  29.25 0.5 0  30 0.5 0  30.75 0.5 0  31.5 0.5 0  32.25 0.5 0  33 0.5 0  33.75 0.5 0  34.5 0.5 0  35.25 0.5 0  36 0.5 0  36.75 0.5 0  37.5 0.5 0  38.25 0.5 0  39 0.5 0  39.75 0.5 0  40.5 0.5 0  41.25 0.5 0  42 0.5 0  42.75 0.5 0  43.5 0.5 0  44.25 0.5 0  45 0.5 0  45.75 0.5 0  46.5 0.5 0  47.25 0.5 0  48 0.5 0  48.75 0.5 0  49.5 0.5 0  50.25 0.5 0  51 0.5 0  51.75 0.5 0  52.5 0.5 0  53.25 0.5 0  54 0.5 0  54.75 0.5 0  55.5 0.5 0  56.25 0.5 0  57 0.5 0  57.75 0.5 0  58.5 0.5 0  59.25 0.5 0  60 0.5 0  0 1 0  0.75 1 0  1.5 1 0  2.25 1 0  3 1 0  3.75 1 0  4.5 1 0  5.25 1 0  6 1 0  6.75 1 0  7.5 1 0  8.25 1 0  9 1 0  9.75 1 0  10.5 1 0  11.25 1 0  12 1 0  12.75 1 0  13.5 1 0  14.25 1 0  15 1 0  15.75 1 0  16.5 1 0  17.25 1 0  18 1 0  18.75 1 0  19.5 1 0  20.25 1 0  21 1 0  21.75 1 0  22.5 1 0  23.25 1 0  24 1 0  24.75 1 0  25.5 1 0  26.25 1 0  27 1 0  27.75 1 0  28.5 1 0  29.25 1 0  30 1 0  30.75 1 0  31.5 1 0  32.25 1 0  33 1 0  33.75 1 0  34.5 1 0  35.25 1 0  36 1 0  36.75 1 0  37.5 1 0  38.25 1 0  39 1 0  39.75 1 0  40.5 1 0  41.25 1 0  42 1 0  42.75 1 0  43.5 1 0  44.25 1 0  45 1 0  45.75 1 0  46.5 1 0  47.25 1 0  48 1 0  48.75 1 0  49.5 1 0  50.25 1 0  51 1 0  51.75 1 0  52.5 1 0  53.25 1 0  54 1 0  54.75 1 0  55.5 1 0  56.25 1 0  57 1 0  57.75 1 0  58.5 1 0  59.25 1 0  60 1 0  0 1.5 0  0.75 1.5 0  1.5 1.5 0  2.25 1.5 0  3 1.5 0  3.75 1.5 0  4.5 1.5 0  5.25 1.5 0  6 1.5 0  6.75 1.5 0  7.5 1.5 0  8.25 1.5 0  9 1.5 0  9.75 1.5 0  10.5 1.5 0  11.25 1.5 0  12 1.5 0  12.75 1.5 0  13.5 1.5 0  14.25 1.5 0  15 1.5 0  15.75 1.5 0  16.5 1.5 0  17.25 1.5 0  18 1.5 0  18.75 1.5 0  19.5 1.5 0  20.25 1.5 0  21 1.5 0  21.75 1.5 0  22.5 1.5 0  23.25 1.5 0  24 1.5 0  24.75 1.5 0  25.5 1.5 0  26.25 1.5 0  27 1.5 0  27.75 1.5 0  28.5 1.5 0  29.25 1.5 0  30 1.5 0  30.75 1.5 0  31.5 1.5 0  32.25 1.5 0  33 1.5 0  33.75 1.5 0  34.5 1.5 0  35.25 1.5 0  36 1.5 0  36.75 1.5 0  37.5 1.5 0  38.25 1.5 0  39 1.5 0  39.75 1.5 0  40.5 1.5 0  41.25 1.5 0  42 1.5 0  42.75 1.5 0  43.5 1.5 0  44.25 1.5 0  45 1.5 0  45.75 1.5 0  46.5 1.5 0  47.25 1.5 0  48 1.5 0  48.75 1.5 0  49.5 1.5 0  50.25 1.5 0  51 1.5 0  51.75 1.5 0  52.5 1.5 0  53.25 1.5 0  54 1.5 0  54.75 1.5 0  55.5 1.5 0  56.25 1.5 0  57 1.5 0  57.75 1.5 0  58.5 1.5 0  59.25 1.5 0  60 1.5 0  0 2 0  0.75 2 0  1.5 2 0  2.25 2 0  3 2 0  3.75 2 0  4.5 2 0  5.25 2 0  6 2 0  6.75 2 0  7.5 2 0  8.25 2 0  9 2 0  9.75 2 0  10.5 2 0  11.25 2 0  12 2 0  12.75 2 0  13.5 2 0  14.25 2 0  15 2 0  15.75 2 0  16.5 2 0  17.25 2 0  18 2 0  18.75 2 0  19.5 2 0  20.25 2 0  21 2 0  21.75 2 0  22.5 2 0  23.25 2 0  24 2 0  24.75 2 0  25.5 2 0  26.25 2 0  27 2 0  27.75 2 0  28.5 2 0  29.25 2 0  30 2 0  30.75 2 0  31.5 2 0  32.25 2 0  33 2 0  33.75 2 0  34.5 2 0  35.25 2 0  36 2 0  36.75 2 0  37.5 2 0  38.25 2 0  39 2 0  39.75 2 0  40.5 2 0  41.25 2 0  42 2 0  42.75 2 0  43.5 2 0  44.25 2 0  45 2 0  45.75 2 0  46.5 2 0  47.25 2 0  48 2 0  48.75 2 0  49.5 2 0  50.25 2 0  51 2 0  51.75 2 0  52.5 2 0  53.25 2 0  54 2 0  54.75 2 0  55.5 2 0  56.25 2 0  57 2 0  57.75 2 0  58.5 2 0  59.25 2 0  60 2 0  0 2.5 0  0.75 2.5 0  1.5 2.5 0  2.25 2.5 0  3 2.5 0  3.75 2.5 0  4.5 2.5 0  5.25 2.5 0  6 2.5 0  6.75 2.5 0  7.5 2.5 0  8.25 2.5 0  9 2.5 0  9.75 2.5 0  10.5 2.5 0  11.25 2.5 0  12 2.5 0  12.75 2.5 0  13.5 2.5 0  14.25 2.5 0  15 2.5 0  15.75 2.5 0  16.5 2.5 0  17.25 2.5 0  18 2.5 0  18.75 2.5 0  19.5 2.5 0  20.25 2.5 0  21 2.5 0  21.75 2.5 0  22.5 2.5 0  23.25 2.5 0  24 2.5 0  24.75 2.5 0  25.5 2.5 0  26.25 2.5 0  27 2.5 0  27.75 2.5 0  28.5 2.5 0  29.25 2.5 0  30 2.5 0  30.75 2.5 0  31.5 2.5 0  32.25 2.5 0  33 2.5 0  33.75 2.5 0  34.5 2.5 0  35.25 2.5 0  36 2.5 0  36.75 2.5 0  37.5 2.5 0  38.25 2.5 0  39 2.5 0  39.75 2.5 0  40.5 2.5 0  41.25 2.5 0  42 2.5 0  42.75 2.5 0  43.5 2.5 0  44.25 2.5 0  45 2.5 0  45.75 2.5 0  46.5 2.5 0  47.25 2.5 0  48 2.5 0  48.75 2.5 0  49.5 2.5 0  50.25 2.5 0  51 2.5 0  51.75 2.5 0  52.5 2.5 0  53.25 2.5 0  54 2.5 0  54.75 2.5 0  55.5 2.5 0  56.25 2.5 0  57 2.5 0  57.75 2.5 0  58.5 2.5 0  59.25 2.5 0  60 2.5 0  0 3 0  0.75 3 0  1.5 3 0  2.25 3 0  3 3 0  3.75 3 0  4.5 3 0  5.25 3 0  6 3 0  6.75 3 0  7.5 3 0  8.25 3 0  9 3 0  9.75 3 0  10.5 3 0  11.25 3 0  12 3 0  12.75 3 0  13.5 3 0  14.25 3 0  15 3 0  15.75 3 0  16.5 3 0  17.25 3 0  18 3 0  18.75 3 0  19.5 3 0  20.25 3 0  21 3 0  21.75 3 0  22.5 3 0  23.25 3 0  24 3 0  24.75 3 0  25.5 3 0  26.25 3 0  27 3 0  27.75 3 0  28.5 3 0  29.25 3 0  30 3 0  30.75 3 0  31.5 3 0  32.25 3 0  33 3 0  33.75 3 0  34.5 3 0  35.25 3 0  36 3 0  36.75 3 0  37.5 3 0  38.25 3 0  39 3 0  39.75 3 0  40.5 3 0  41.25 3 0  42 3 0  42.75 3 0  43.5 3 0  44.25 3 0  45 3 0  45.75 3 0  46.5 3 0  47.25 3 0  48 3 0  48.75 3 0  49.5 3 0  50.25 3 0  51 3 0  51.75 3 0  52.5 3 0  53.25 3 0  54 3 0  54.75 3 0  55.5 3 0  56.25 3 0  57 3 0  57.75 3 0  58.5 3 0  59.25 3 0  60 3 0  0 3.5 0  0.75 3.5 0  1.5 3.5 0  2.25 3.5 0  3 3.5 0  3.75 3.5 0  4.5 3.5 0  5.25 3.5 0  6 3.5 0  6.75 3.5 0  7.5 3.5 0  8.25 3.5 0  9 3.5 0  9.75 3.5 0  10.5 3.5 0  11.25 3.5 0  12 3.5 0  12.75 3.5 0  13.5 3.5 0  14.25 3.5 0  15 3.5 0  15.75 3.5 0  16.5 3.5 0  17.25 3.5 0  18 3.5 0  18.75 3.5 0  19.5 3.5 0  20.25 3.5 0  21 3.5 0  21.75 3.5 0  22.5 3.5 0  23.25 3.5 0  24 3.5 0  24.75 3.5 0  25.5 3.5 0  26.25 3.5 0  27 3.5 0  27.75 3.5 0  28.5 3.5 0  29.25 3.5 0  30 3.5 0  30.75 3.5 0  31.5 3.5 0  32.25 3.5 0  33 3.5 0  33.75 3.5 0  34.5 3.5 0  35.25 3.5 0  36 3.5 0  36.75 3.5 0  37.5 3.5 0  38.25 3.5 0  39 3.5 0  39.75 3.5 0  40.5 3.5 0  41.25 3.5 0  42 3.5 0  42.75 3.5 0  43.5 3.5 0  44.25 3.5 0  45 3.5 0  45.75 3.5 0  46.5 3.5 0  47.25 3.5 0  48 3.5 0  48.75 3.5 0  49.5 3.5 0  50.25 3.5 0  51 3.5 0  51.75 3.5 0  52.5 3.5 0  53.25 3.5 0  54 3.5 0  54.75 3.5 0  55.5 3.5 0  56.25 3.5 0  57 3.5 0  57.75 3.5 0  58.5 3.5 0  59.25 3.5 0  60 3.5 0  0 4 0  0.75 4 0  1.5 4 0  2.25 4 0  3 4 0  3.75 4 0  4.5 4 0  5.25 4 0  6 4 0  6.75 4 0  7.5 4 0  8.25 4 0  9 4 0  9.75 4 0  10.5 4 0  11.25 4 0  12 4 0  12.75 4 0  13.5 4 0  14.25 4 0  15 4 0  15.75 4 0  16.5 4 0  17.25 4 0  18 4 0  18.75 4 0  19.5 4 0  20.25 4 0  21 4 0  21.75 4 0  22.5 4 0  23.25 4 0  24 4 0  24.75 4 0  25.5 4 0  26.25 4 0  27 4 0  27.75 4 0  28.5 4 0  29.25 4 0  30 4 0  30.75 4 0  31.5 4 0  32.25 4 0  33 4 0  33.75 4 0  34.5 4 0  35.25 4 0  36 4 0  36.75 4 0  37.5 4 0  38.25 4 0  39 4 0  39.75 4 0  40.5 4 0  41.25 4 0  42 4 0  42.75 4 0  43.5 4 0  44.25 4 0  45 4 0  45.75 4 0  46.5 4 0  47.25 4 0  48 4 0  48.75 4 0  49.5 4 0  50.25 4 0  51 4 0  51.75 4 0  52.5 4 0  53.25 4 0  54 4 0  54.75 4 0  55.5 4 0  56.25 4 0  57 4 0  57.75 4 0  58.5 4 0  59.25 4 0  60 4 0  0.375 0.25 0  1.125 0.25 0  1.875 0.25 0  2.625 0.25 0  3.375 0.25 0  4.125 0.25 0  4.875 0.25 0  5.625 0.25 0  6.375 0.25 0  7.125 0.25 0  7.875 0.25 0  8.625 0.25 0  9.375 0.25 0  10.125 0.25 0  10.875 0.25 0  11.625 0.25 0  12.375 0.25 0  13.125 0.25 0  13.875 0.25 0  14.625 0.25 0  15.375 0.25 0  16.125 0.25 0  16.875 0.25 0  17.625 0.25 0  18.375 0.25 0  19.125 0.25 0  19.875 0.25 0  20.625 0.25 0  21.375 0.25 0  22.125 0.25 0  22.875 0.25 0  23.625 0.25 0  24.375 0.25 0  25.125 0.25 0  25.875 0.25 0  26.625 0.25 0  27.375 0.25 0  28.125 0.25 0  28.875 0.25 0  29.625 0.25 0  30.375 0.25 0  31.125 0.25 0  31.875 0.25 0  32.625 0.25 0  33.375 0.25 0  34.125 0.25 0  34.875 0.25 0  35.625 0.25 0  36.375 0.25 0  37.125 0.25 0  37.875 0.25 0  38.625 0.25 0  39.375 0.25 0  40.125 0.25 0  40.875 0.25 0  41.625 0.25 0  42.375 0.25 0  43.125 0.25 0  43.875 0.25 0  44.625 0.25 0  45.375 0.25 0  46.125 0.25 0  46.875 0.25 0  47.625 0.25 0  48.375 0.25 0  49.125 0.25 0  49.875 0.25 0  50.625 0.25 0  51.375 0.25 0  52.125 0.25 0  52.875 0.25 0  53.625 0.25 0  54.375 0.25 0  55.125 0.25 0  55.875 0.25 0  56.625 0.25 0  57.375 0.25 0  58.125 0.25 0  58.875 0.25 0  59.625 0.25 0  0.375 0.75 0  1.125 0.75 0  1.875 0.75 0  2.625 0.75 0  3.375 0.75 0  4.125 0.75 0  4.875 0.75 0  5.625 0.75 0  6.375 0.75 0  7.125 0.75 0  7.875 0.75 0  8.625 0.75 0  9.375 0.75 0  10.125 0.75 0  10.875 0.75 0  11.625 0.75 0  12.375 0.75 0  13.125 0.75 0  13.875 0.75 0  14.625 0.75 0  15.375 0.75 0  16.125 0.75 0  16.875 0.75 0  17.625 0.75 0  18.375 0.75 0  19.125 0.75 0  19.875 0.75 0  20.625 0.75 0  21.375 0.75 0  22.125 0.75 0  22.875 0.75 0  23.625 0.75 0  24.375 0.75 0  25.125 0.75 0  25.875 0.75 0  26.625 0.75 0  27.375 0.75 0  28.125 0.75 0  28.875 0.75 0  29.625 0.75 0  30.375 0.75 0  31.125 0.75 0  31.875 0.75 0  32.625 0.75 0  33.375 0.75 0  34.125 0.75 0  34.875 0.75 0  35.625 0.75 0  36.375 0.75 0  37.125 0.75 0  37.875 0.75 0  38.625 0.75 0  39.375 0.75 0  40.125 0.75 0  40
[...]
<PointData  Scalars="f_8-1"> 
<DataArray  type="Float64"  Name="f_8-1"  format="ascii">-3.7083636312263426e+00  -3.6617206997964620e+00  -3.6153875955331594e+00  -3.5690455926749709e+00  -3.5227018790255835e+00  -3.4763576557093687e+00  -3.4300139157370495e+00  -3.3836710964020096e+00  -3.3373295594514212e+00  -3.2909894765068834e+00  -3.2446504491876254e+00  -3.1983118204797294e+00  -3.1519731068531716e+00  -3.1056341432228920e+00  -3.0592949579571020e+00  -3.0129556377083229e+00  -2.9666162522085004e+00  -2.9202768419177798e+00  -2.8739374244219529e+00  -2.8275980060650028e+00  -2.7812585881769998e+00  -2.7349191708080443e+00  -2.6885797536608425e+00  -2.6422403365890252e+00  -2.5959009194994840e+00  -2.5495615023832414e+00  -2.5032220852376752e+00  -2.4568826680749245e+00  -2.4105432509008935e+00  -2.3642038337215401e+00  -2.3178644165395479e+00  -2.2715249993565423e+00  -2.2251855821734443e+00  -2.1788461649904325e+00  -2.1325067478077835e+00  -2.0861673306254054e+00  -2.0398279134433963e+00  -1.9934884962616071e+00  -1.9471490790801178e+00  -1.9008096618987929e+00  -1.8544702447176853e+00  -1.8081308275367103e+00  -1.7617914103558734e+00  -1.7154519931751222e+00  -1.6691125759945276e+00  -1.6227731588138308e+00  -1.5764337416335858e+00  -1.5300943244525220e+00  -1.4837549072734806e+00  -1.4374154900900071e+00  -1.3910760729164859e+00  -1.3447366557209046e+00  -1.2983972385742688e+00  -1.2520578213196520e+00  -1.2057184043021780e+00  -1.1593789867662281e+00  -1.1130395703564302e+00  -1.0667001515138845e+00  -1.0203607378837811e+00  -9.7402131316432783e-01  -9.2768191179545789e-01  -8.8134246171617814e-01  -8.3500311192390164e-01  -7.8866355821282186e-01  -7.4232441210421940e-01  -6.9598446448353535e-01  -6.4964605638045048e-01  -6.0330474920278210e-01  -5.5696870724599612e-01  -5.1062325917719875e-01  -4.6429355409018613e-01  -4.1793731880583640e-01  -3.7162151342828814e-01  -3.2524501144212736e-01  -2.7896826009706960e-01  -2.3258848390121312e-01  -1.8638416607165920e-01  -1.3991249747958767e-01  -9.3576599216851852e-02  -4.6880234105363607e-02  7.5131717825847877e-04  -3.7081583532186939e+00  -3.6617204787185913e+00  -3.6153725463998549e+00  -3.5690328816487282e+00  -3.5226900909500838e+00  -3.4763464928761127e+00  -3.4300031470725822e+00  -3.3836605631443173e+00  -3.3373191428047582e+00  -3.2909790172830844e+00  -3.2446397751714358e+00  -3.1983008426922241e+00  -3.1519618439065709e+00  -3.1056226712592863e+00  -3.0592833567201447e+00  -3.0129439655858299e+00  -2.9666045442027156e+00  -2.9202651164827627e+00  -2.8739256904833335e+00  -2.8275862678012755e+00  -2.7812468475459649e+00  -2.7349074288036923e+00  -2.6885680108166916e+00  -2.6422285932269882e+00  -2.5958891758117235e+00  -2.5495497584945648e+00  -2.5032103412225415e+00  -2.4568709239824122e+00  -2.4105315067591957e+00  -2.3641920895496962e+00  -2.3178526723480801e+00  -2.2715132551529291e+00  -2.2251738379616701e+00  -2.1788344207735246e+00  -2.1324950035873429e+00  -2.0861555864026937e+00  -2.0398161692190802e+00  -1.9934767520362489e+00  -1.9471373348539982e+00  -1.9007979176721825e+00  -1.8544585004906968e+00  -1.8081190833094851e+00  -1.7617796661284320e+00  -1.7154402489476213e+00  -1.6691008317667553e+00  -1.6227614145863800e+00  -1.5764219974052149e+00  -1.5300825802260107e+00  -1.4837431630427680e+00  -1.4374037458683546e+00  -1.3910643286751150e+00  -1.3447249115220219e+00  -1.2983854942842383e+00  -1.2520460772238011e+00  -1.2057066597955006e+00  -1.1593672431220738e+00  -1.1130278249168051e+00  -1.0666884097779648e+00  -1.0203489885855197e+00  -9.7400957914054631e-01  -9.2767014729394504e-01  -8.8133075724843279e-01  -8.3499129090146029e-01  -7.8865196004805516e-01  -7.4231239502620139e-01  -6.9597322076611234e-01  -6.4963341349917370e-01  -6.0329458425574412e-01  -5.5695426368425649e-01  -5.1061602508581272e-01  -4.6427462654233881e-01  -4.1793696600960778e-01  -3.7159376505359926e-01  -3.2525778815344486e-01  -2.7892812898908775e-01  -2.3260899038812860e-01  -1.8631365283088366e-01  -1.3985737936676834e-01  -9.3489367811528876e-02  -4.6587648446543124e-02  -1.1139833395262149e-04  -3.7081959800444131e+00  -3.6617551877565027e+00  -3.6153753267377269e+00  -3.5690174546617222e+00  -3.5226669589848605e+00  -3.4763197955833705e+00  -3.4299747241617227e+00  -3.3836312466534779e+00  -3.3372891092405723e+00  -3.2909481548977815e+00  -3.2446082002162622e+00  -3.1982688905861547e+00  -3.1519298345034739e+00  -3.1055907744550999e+00  -3.0592516138063015e+00  -3.0129123510453599e+00  -2.9665730169316373e+00  -2.9202336413040517e+00  -2.8738942442136390e+00  -2.8275548367337664e+00  -2.7812154244024123e+00  -2.7348760097636582e+00  -2.6885365939898191e+00  -2.6421971776110960e+00  -2.5958577608971463e+00  -2.5495183439859841e+00  -2.5031789269600719e+00  -2.4568395098657705e+00  -2.4105000927324132e+00  -2.3641606755764260e+00  -2.3178212584080637e+00  -2.2714818412328150e+00  -2.2251424240540598e+00  -2.1788030068735096e+00  -2.1324635896921782e+00  -2.0861241725105151e+00  -2.0397847553288582e+00  -1.9934453381472659e+00  -1.9471059209658192e+00  -1.9007665037845305e+00  -1.8544270866033981e+00  -1.8080876694223966e+00  -1.7617482522415704e+00  -1.7154088350606898e+00  -1.6690694178802672e+00  -1.6227300006991174e+00  -1.5763905835197811e+00  -1.5300511663367158e+00  -1.4837117491618126e+00  -1.4373723319696161e+00  -1.3910329148141871e+00  -1.3446934975815374e+00  -1.2983540805098137e+00  -1.2520146631061464e+00  -1.2056752463800380e+00  -1.1593358282873605e+00  -1.1129964129143048e+00  -1.0666569922080977e+00  -1.0203175817872210e+00  -9.7397815189122861e-01  -9.2763875811079211e-01  -8.8129929886832292e-01  -8.3495995525085120e-01  -7.8862041301054020e-01  -7.4228120149750831e-01  -6.9594145628927373e-01  -6.4960254318822996e-01  -6.0326236660826771e-01  -5.5692405124868860e-01  -5.1058298926745660e-01  -4.6424592085346938e-01  -4.1790284937328920e-01  -3.7156931108990532e-01  -3.2522279212972743e-01  -2.7890285826683264e-01  -2.3254584428355909e-01  -1.8622763872335518e-01  -1.3973389736542732e-01  -9.3338825549154958e-02  -4.6526395049272772e-02  -9.8951490706720248e-05  -3.7081980490217150e+00  -3.6617735254944366e+00  -3.6153817268021582e+00  -3.5690131598992729e+00  -3.5226569424899545e+00  -3.4763070339891469e+00  -3.4299606208713485e+00  -3.3836164377398843e+00  -3.3372737681601743e+00  -3.2909322576369777e+00  -3.2445918413374302e+00  -3.1982522922834780e+00  -3.1519132016518721e+00  -3.1055742171559149e+00  -3.0592351598967760e+00  -3.0128959852830040e+00  -2.9665567123816019e+00  -2.9202173742360826e+00  -2.8738779983500220e+00  -2.8275386022612801e+00  -2.7811991959208346e+00  -2.7348597844225169e+00  -2.6885203703319211e+00  -2.6421809548780009e+00  -2.5958415386914075e+00  -2.5495021220869551e+00  -2.5031627052440832e+00  -2.4568232882593333e+00  -2.4104838711925489e+00  -2.3641444540767722e+00  -2.3178050369330490e+00  -2.2714656197728162e+00  -2.2251262026033536e+00  -2.1787867854285339e+00  -2.1324473682508014e+00  -2.0861079510714240e+00  -2.0397685338912184e+00  -1.9934291167105651e+00  -1.9470896995297307e+00  -1.9007502823488525e+00  -1.8544108651679567e+00  -1.8080714479871773e+00  -1.7617320308063704e+00  -1.7153926136257935e+00  -1.6690531964449304e+00  -1.6227137792648945e+00  -1.5763743620832606e+00  -1.5300349449052066e+00  -1.4836955277196511e+00  -1.4373561105500887e+00  -1.3910166933470205e+00  -1.3446772762138819e+00  -1.2983378589362877e+00  -1.2519984419544072e+00  -1.2056590243739171e+00  -1.1593196079912307e+00  -1.1129801892425704e+00  -1.0666407751034979e+00  -1.0203013521192004e+00  -9.7396194583697693e-01  -9.2762250856677897e-01  -8.8128312774958961e-01  -8.3494364607493687e-01  -7.8860434110695032e-01  -7.4226473263571435e-01  -6.9592563594716217e-01  -6.4958569134499355e-01  -6.0324713419423803e-01  -5.5690634352718704e-01  -5.1056916305556233e-01  -4.6422636211475299e-01  -4.1789275000881937e-01  -3.7154576229753716e-01  -3.2522046270194022e-01  -2.7886397787041062e-01  -2.3254181063448456e-01  -1.8613449402088689e-01  -1.3972456122468033e-01  -9.3181078860680028e-02  -4.6591429939927487e-02  -1.1680668669126822e-05  -3.7081932003180627e+00  -3.6617840018288592e+00  -3.6153907254420230e+00  -3.5690197427967960e+00  -3.5226620316119774e+00  -3.4763113931091545e+00  -3.4299646408230875e+00  -3.3836202762390593e+00  -3.3372775036677318e+00  -3.2909359354636369e+00  -3.2445954431424435e+00  -3.1982558055053780e+00  -3.1519166498132480e+00  -3.1055776370579800e+00  -3.0592385771461323e+00  -3.0128994108266927e+00  -2.9665601475254668e+00  -2.9202208167433104e+00  -2.8738814454698156e+00  -2.8275420519923391e+00  -2.7812026470130289e+00  -2.7348632362118974e+00  -2.6885238224680981e+00  -2.6421844071955856e+00  -2.5958449911036561e+00  -2.5495055745531530e+00  -2.5031661577404227e+00  -2.4568267407739901e+00  -2.4104873237177205e+00  -2.3641479066084772e+00  -2.3178084894684829e+00  -2.2714690723105817e+00  -2.2251296551424424e+00  -2.1787902379684518e+00  -2.1324508207911821e+00  -2.0861114036121071e+00  -2.0397719864320596e+00  -1.9934325692515202e+00  -1.9470931520707511e+00  -1.9007537348898977e+00  -1.8544143177090571e+00  -1.8080749005282359e+00  -1.7617354833475320e+00  -1.7153960661667551e+00  -1.6690566489863510e+00  -1.6227172318053267e+00  -1.5763778146258278e+00  -1.5300383974432028e+00  -1.4836989802673561e+00  -1.4373595630773197e+00  -1.3910201459171097e+00  -1.3446807286949976e+00  -1.2983413116004174e+00  -1.2520018942459086e+00  -1.2056624774157847e+00  -1.1593230595401496e+00  -1.1129836437237841e+00  -1.0666442239058962e+00  -1.0203048117557392e+00  -9.7396538513570385e-01  -9.2762598540120744e-01  -8.8128653654109568e-01  -8.3494717597743007e-01  -7.8860765943351785e-01  -7.4226841400929111e-01  -6.9592870518779948e-01  -6.4958977769033333e-01  -6.0324955642768241e-01  -5.5691146769651845e-01  -5.1056998560618883e-01  -4.6423404686769260e-01  -4.1788991006759402e-01  -3.7155901137673625e-01  -3.2520985700466581e-01  -2.7888457056165206e-01  -2.3251422912854472e-01  -1.8615297540543474e-01  -1.3968259258034660e-01  -9.3189127219814774e-02  -4.6586748080247382e-02  -9.2997928020104442e-06  -3.7081980490217146e+00  -3.6617735254944423e+00  -3.6153817268021511e+00  -3.5690131598992849e+00  -3.5226569424899523e+00  -3.4763070339891446e+00  -3.4299606208713564e+00  -3.3836164377398945e+00  -3.3372737681601881e+00  -3.2909322576369777e+00  -3.2445918413374275e+00  -3.1982522922834873e+00  -3.1519132016518716e+00  -3.1055742171559295e+00  -3.0592351598967791e+00  -3.0128959852830084e+00  -2.9665567123816015e+00  -2.9202173742360791e+00  -2.8738779983500242e+00  -2.8275386022612721e+00  -2.7811991959208400e+00  -2.7348597844225058e+00  -2.6885203703319336e+00  -2.6421809548779942e+00  -2.5958415386914107e+00  -2.5495021220869569e+00  -2.5031627052440788e+00  -2.4568232882593346e+00  -2.4104838711925471e+00  -2.3641444540767784e+00  -2.3178050369330427e+00  -2.2714656197728136e+00  -2.2251262026033576e+00  -2.1787867854285339e+00  -2.1324473682508067e+00  -2.0861079510714271e+00  -2.0397685338912148e+00  -1.9934291167105578e+00  -1.9470896995297282e+00  -1.9007502823488494e+00  -1.8544108651679680e+00  -1.8080714479871713e+00  -1.7617320308063620e+00  -1.7153926136257913e+00  -1.6690531964449300e+00  -1.6227137792648938e+00  -1.5763743620832602e+00  -1.5300349449051984e+00  -1.4836955277196575e+00  -1.4373561105500894e+00  -1.3910166933470163e+00  -1.3446772762138886e+00  -1.2983378589362866e+00  -1.2519984419544019e+00  -1.2056590243739180e+00  -1.1593196079912347e+00  -1.1129801892425735e+00  -1.0666407751035032e+00  -1.0203013521192006e+00  -9.7396194583697737e-01  -9.2762250856677930e-01  -8.8128312774959405e-01  -8.3494364607493643e-01  -7.8860434110695299e-01  -7.4226473263571868e-01  -6.9592563594716428e-01  -6.4958569134499478e-01  -6.0324713419424070e-01  -5.5690634352718671e-01  -5.1056916305556221e-01  -4.6422636211475593e-01  -4.1789275000881793e-01  -3.7154576229753600e-01  -3.2522046270193633e-01  -2.7886397787040579e-01  -2.3254181063448534e-01  -1.8613449402088569e-01  -1.3972456122467444e-01  -9.3181078860682540e-02  -4.6591429939925447e-02  -1.1680668670023923e-05  -3.7081959800444069e+00  -3.6617551877565178e+00  -3.6153753267377242e+00  -3.5690174546617239e+00  -3.5226669589848769e+00  -3.4763197955833602e+00  -3.4299747241617284e+00  -3.3836312466534881e+00  -3.3372891092405736e+00  -3.2909481548977828e+00  -3.2446082002162644e+00  -3.1982688905861676e+00  -3.1519298345034708e+00  -3.1055907744551141e+00  -3.0592516138063126e+00  -3.0129123510453626e+00  -2.9665730169316329e+00  -2.9202336413040473e+00  -2.8738942442136346e+00  -2.8275548367337526e+00  -2.7812154244024190e+00  -2.7348760097636586e+00  -2.6885365939898263e+00  -2.6421971776110711e+00  -2.5958577608971569e+00  -2.5495183439859748e+00  -2.5031789269600790e+00  -2.4568395098657740e+00  -2.4105000927324207e+00  -2.3641606755764255e+00  -2.3178212584080611e+00  -2.2714818412328155e+00  -2.2251424240540745e+00  -2.1788030068735127e+00  -2.1324635896921733e+00  -2.0861241725105240e+00  -2.0397847553288444e+00  -1.9934453381472568e+00  -1.9471059209658155e+00  -1.9007665037845332e+00  -1.8544270866034029e+00  -1.8080876694223840e+00  -1.7617482522415637e+00  -1.7154088350606809e+00  -1.6690694178802628e+00  -1.6227300006991157e+00  -1.5763905835197802e+00  -1.5300511663367109e+00  -1.4837117491618215e+00  -1.4373723319696152e+00  -1.3910329148141776e+00  -1.3446934975815437e+00  -1.2983540805098184e+00  -1.2520146631061477e+00  -1.2056752463800380e+00  -1.1593358282873689e+00  -1.1129964129143131e+00  -1.0666569922081068e+00  -1.0203175817872259e+00  -9.7397815189122605e-01  -9.2763875811079421e-01  -8.8129929886832525e-01  -8.3495995525085120e-01  -7.8862041301054575e-01  -7.4228120149751065e-01  -6.9594145628927573e-01  -6.4960254318823052e-01  -6.0326236660826993e-01  -5.5692405124869115e-01  -5.1058298926745760e-01  -4.6424592085347183e-01  -4.1790284937329042e-01  -3.7156931108990426e-01  -3.2522279212972338e-01  -2.7890285826682465e-01  -2.3254584428356034e-01  -1.8622763872335008e-01  -1.3973389736542094e-01  -9.3338825549148560e-02  -4.6526395049266776e-02  -9.8951490706871169e-05  -3.7081583532187024e+00  -3.6617204787185984e+00  -3.6153725463998652e+00  -3.5690328816487473e+00  -3.5226900909500882e+00  -3.4763464928760963e+00  -3.4300031470725885e+00  -3.3836605631443115e+00  -3.3373191428047471e+00  -3.2909790172830919e+00  -3.2446397751714522e+00  -3.1983008426922415e+00  -3.1519618439065775e+00  -3.1056226712593169e+00  -3.0592833567201723e+00  -3.0129439655858254e+00  -2.9666045442027005e+00  -2.9202651164827680e+00  -2.8739256904833184e+00  -2.8275862678012671e+00  -2.7812468475459524e+00  -2.7349074288036990e+00  -2.6885680108166921e+00  -2.6422285932269620e+00  -2.5958891758117169e+00  -2.5495497584945648e+00  -2.5032103412225424e+00  -2.4568709239824291e+00  -2.4105315067591846e+00  -2.3641920895496984e+00  -2.3178526723480735e+00  -2.2715132551529376e+00  -2.2251738379616843e+00  -2.1788344207735282e+00  -2.1324950035873500e+00  -2.0861555864026848e+00  -2.0398161692190735e+00  -1.9934767520362382e+00  -1.9471373348539978e+00  -1.9007979176721810e+00  -1.8544585004906990e+00  -1.8081190833094758e+00  -1.7617796661284244e+00  -1.7154402489476144e+00  -1.6691008317667486e+00  -1.6227614145863787e+00  -1.5764219974052194e+00  -1.5300825802260054e+00  -1.4837431630427624e+00  -1.4374037458683531e+00  -1.3910643286751203e+00  -1.3447249115220303e+00  -1.2983854942842454e+00  -1.2520460772238116e+00  -1.2057066597955080e+00  -1.1593672431220885e+00  -1.1130278249168133e+00  -1.0666884097779785e+00  -1.0203489885855253e+00  -9.7400957914054120e-01  -9.2767014729394559e-01  -8.8133075724843501e-01  -8.3499129090146540e-01  -7.8865196004806071e-01  -7.4231239502619817e-01  -6.9597322076611312e-01  -6.4963341349917103e-01  -6.0329458425574889e-01  -5.5695426368426004e-01  -5.1061602508581605e-01  -4.6427462654234170e-01  -4.1793696600961072e-01  -3.7159376505359337e-01  -3.2525778815344331e-01  -2.7892812898908509e-01  -2.3260899038812299e-01  -1.8631365283088488e-01  -1.3985737936677195e-01  -9.3489367811526461e-02  -4.6587648446540043e-02  -1.1139833395188014e-04  -3.7083636312263204e+00  -3.6617206997965028e+00  -3.6153875955331634e+00  -3.5690455926749785e+00  -3.5227018790256106e+00  -3.4763576557093394e+00  -3.4300139157370646e+00  -3.3836710964020069e+00  -3.3373295594514047e+00  -3.2909894765069008e+00  -3.2446504491876400e+00  -3.1983118204797552e+00  -3.1519731068531747e+00  -3.1056341432229262e+00  -3.0592949579571211e+00  -3.0129556377083260e+00  -2.9666162522084845e+00  -2.9202768419177896e+00  -2.8739374244219342e+00  -2.8275980060650006e+00  -2.7812585881769905e+00  -2.7349191708080589e+00  -2.6885797536608540e+00  -2.6422403365889893e+00  -2.5959009194994800e+00  -2.5495615023832401e+00  -2.5032220852376699e+00  -2.4568826680749414e+00  -2.4105432509008824e+00  -2.3642038337215463e+00  -2.3178644165395381e+00  -2.2715249993565512e+00  -2.2251855821734572e+00  -2.1788461649904320e+00  -2.1325067478077844e+00  -2.0861673306253987e+00  -2.0398279134433897e+00  -1.9934884962615895e+00  -1.9471490790801120e+00  -1.9008096618987904e+00  -1.8544702447176902e+00  -1.8081308275366970e+00  -1.7617914103558576e+00  -1.7154519931751124e+00  -1.6691125759945216e+00  -1.6227731588138219e+00  -1.5764337416335996e+00  -1.5300943244525151e+00  -1.4837549072734657e+00  -1.4374154900900205e+00  -1.3910760729164908e+00  -1.3447366557209155e+00  -1.2983972385742790e+00  -1.2520578213196552e+00  -1.2057184043021882e+00  -1.1593789867662456e+00  -1.1130395703564389e+00  -1.0667001515138936e+00  -1.0203607378837900e+00  -9.7402131316431717e-01  -9.2768191179546333e-01  -8.8134246171617481e-01  -8.3500311192391186e-01  -7.8866355821282930e-01  -7.4232441210421896e-01  -6.9598446448353579e-01  -6.4964605638044925e-01  -6.0330474920278676e-01  -5.5696870724600345e-01  -5.1062325917720419e-01  -4.6429355409018697e-01  -4.1793731880583723e-01  -3.7162151342828298e-01  -3.2524501144212725e-01  -2.7896826009706510e-01  -2.3258848390121131e-01  -1.8638416607165909e-01  -1.3991249747959200e-01  -9.3576599216849313e-02  -4.6880234105361261e-02  7.5131717825828350e-04  -3.6847957936025257e+00  -3.6384601834028958e+00  -3.5921279368613850e+00  -3.5457885141336147e+00  -3.4994460842318542e+00  -3.4531029266587714e+00  -3.4067601083670702e+00  -3.3604181902680610e+00  -3.3140775294793796e+00  -3.2677380152709530e+00  -3.2213991059909812e+00  -3.1750602706732884e+00  -3.1287212538453733e+00  -3.0823820347101707e+00  -3.0360426841768824e+00  -2.9897032729686841e+00  -2.9433638430629756e+00  -2.8970244124516644e+00  -2.8506849859326135e+00  -2.8043455633465926e+00  -2.7580061433124210e+00  -2.7116667247085919e+00  -2.6653273068119567e+00  -2.6189878892627001e+00  -2.5726484718731424e+00  -2.5263090545682028e+00  -2.4799696373058433e+00  -2.4336302200716875e+00  -2.3872908028535376e+00  -2.3409513856476090e+00  -2.2946119684488204e+00  -2.2482725512557793e+00  -2.2019331340660893e+00  -2.1555937168791304e+00  -2.1092542996937969e+00  -2.0629148825098196e+00  -2.0165754653266648e+00  -1.9702360481442223e+00  -1.9238966309622327e+00  -1.8775572137806413e+00  -1.8312177965993288e+00  -1.7848783794182312e+00  -1.7385389622373082e+00  -1.6921995450565397e+00  -1.6458601278758183e+00  -1.5995207106952936e+00  -1.5531812935146145e+00  -1.5068418763344928e+00  -1.4605024591533151e+00  -1.4141630419745215e+00  -1.3678236247906879e+00  -1.3214842076177009e+00  -1.2751447904217730e+00  -1.2288053732740791e+00  -1.1824659560257513e+00  -1.1361265389846018e+00  -1.0897871215203048e+00  -1.0434477049057398e+00  -9.9710828660133877e-01  -9.5076887158687529e-01  -9.0442945024423471e-01  -8.5809004075538642e-01  -8.1175060937438193e-01  -7.6541121709470261e-01  -7.1907175578287574e-01  -6.7273241070239842e-01  -6.2639286640405523e-01  -5.800536296585