<?xml version="1.0"?>
<VTKFile type="UnstructuredGrid"  version="0.1"  >
<UnstructuredGrid>
<Piece  NumberOfPoints="1369" NumberOfCells="2560">
<Points>
<DataArray  type="Float64"  NumberOfComponents="3"  format="ascii">0 0 0  0.75 0 0  1.5 0 0  2.25 0 0  3 0 0  3.75 0 0  4.5 0 0  5.25 0 0  6 0 0  6.75 0 0  7.5 0 0  8.25 0 0  9 0 0  9.75 0 0  10.5 0 0  11.25 0 0  12 0 0  12.75 0 0  13.5 0 0  14.25 0 0  15 0 0  15.75 0 0  16.5 0 0  17.25 0 0  18 0 0  18.75 0 0  19.5 0 0  20.25 0 0  21 0 0  21.75 0 0  22.5 0 0  23.25 0 0  24 0 0  24.75 0 0  25.5 0 0  26.25 0 0  27 0 0  27.75 0 0  28.5 0 0  29.25 0 0  30 0 0  30.75 0 0  31.5 0 0  32.25 0 0  33 0 0  33.75 0 0  34.5 0 0  35.25 0 0  36 0 0  36.75 0 0  37.5 0 0  38.25 0 0  39 0 0  39.75 0 0  40.5 0 0  41.25 0 0  42 0 0  42.75 0 0  43.5 0 0  44.25 0 0  45 0 0  45.75 0 0  46.5 0 0  47.25 0 0  48 0 0  48.75 0 0  49.5 0 0  50.25 0 0  51 0 0  51.75 0 0  52.5 0 0  53.25 0 0  54 0 0  54.75 0 0  55.5 0 0  56.25 0 0  57 0 0  57.75 0 0  58.5 0 0  59.25 0 0  60 0 0  0 0.5 0  0.75 0.5 0  1.5 0.5 0  2.25 0.5 0  3 0.5 0  3.75 0.5 0  4.5 0.5 0  5.25 0.5 0  6 0.5 0  6.75 0.5 0  7.5 0.5 0  8.25 0.5 0  9 0.5 0  9.75 0.5 0  10.5 0.5 0  11.25 0.5 0  12 0.5 0  12.75 0.5 0  13.5 0.5 0  14.25 0.5 0  15 0.5 0  15.75 0.5 0  16.5 0.5 0  17.25 0.5 0  18 0.5 0  18.75 0.5 0  19.5 0.5 0  20.25 0.5 0  21 0.5 0  21.75 0.5 0  22.5 0.5 0  23.25 0.5 0  24 0.5 0  24.75 0.5 0  25.5 0.5 0  26.25 0.5 0  27 0.5 0  27.75 0.5 0  28.5 0.5 0  29.25 0.5 0  30 0.5 0  30.75 0.5 0  31.5 0.5 0  32.25 0.5 0  33 0.5 0  33.75 0.5 0  34.5 0.5 0  35.25 0.5 0  36 0.5 0  36.75 0.5 0  37.5 0.5 0  38.25 0.5 0  39 0.5 0  39.75 0.5 0  40.5 0.5 0  41.25 0.5 0  42 0.5 0  42.75 0.5 0  43.5 0.5 0  44.25 0.5 0  45 0.5 0  45.75 0.5 0  46.5 0.5 0  47.25 0.5 0  48 0.5 0  48.75 0.5 0  49.5 0.5 0  50.25 0.5 0  51 0.5 0  51.75 0.5 0  52.5 0.5 0  53.25 0.5 0  54 0.5 0  54.75 0.5 0  55.5 0.5 0  56.25 0.5 0  57 0.5 0  57.75 0.5 0  58.5 0.5 0  59.25 0.5 0  60 0.5 0  0 1 0  0.75 1 0  1.5 1 0  2.25 1 0  3 1 0  3.75 1 0  4.5 1 0  5.25 1 0  6 1 0  6.75 1 0  7.5 1 0  8.25 1 0  9 1 0  9.75 1 0  10.5 1 0  11.25 1 0  12 1 0  12.75 1 0  13.5 1 0  14.25 1 0  15 1 0  15.75 1 0  16.5 1 0  17.25 1 0  18 1 0  18.75 1 0  19.5 1 0  20.25 1 0  21 1 0  21.75 1 0  22.5 1 0  23.25 1 0  24 1 0  24.75 1 0  25.5 1 0  26.25 1 0  27 1 0  27.75 1 0  28.5 1 0  29.25 1 0  30 1 0  30.75 1 0  31.5 1 0  32.25 1 0  33 1 0  33.75 1 0  34.5 1 0  35.25 1 0  36 1 0  36.75 1 0  37.5 1 0  38.25 1 0  39 1 0  39.75 1 0  40.5 1 0  41.25 1 0  42 1 0  42.75 1 0  43.5 1 0  44.25 1 0  45 1 0  45.75 1 0  46.5 1 0  47.25 1 0  48 1 0  48.75 1 0  49.5 1 0  50.25 1 0  51 1 0  51.75 1 0  52.5 1 0  53.25 1 0  54 1 0  54.75 1 0  55.5 1 0  56.25 1 0  57 1 0  57.75 1 0  58.5 1 0  59.25 1 0  60 1 0  0 1.5 0  0.75 1.5 0  1.5 1.5 0  2.25 1.5 0  3 1.5 0  3.75 1.5 0  4.5 1.5 0  5.25 1.5 0  6 1.5 0  6.75 1.5 0  7.5 1.5 0  8.25 1.5 0  9 1.5 0  9.75 1.5 0  10.5 1.5 0  11.25 1.5 0  12 1.5 0  12.75 1.5 0  13.5 1.5 0  14.25 1.5 0  15 1.5 0  15.75 1.5 0  16.5 1.5 0  17.25 1.5 0  18 1.5 0  18.75 1.5 0  19.5 1.5 0  20.25 1.5 0  21 1.5 0  21.75 1.5 0  22.5 1.5 0  23.25 1.5 0  24 1.5 0  24.75 1.5 0  25.5 1.5 0  26.25 1.5 0  27 1.5 0  27.75 1.5 0  28.5 1.5 0  29.25 1.5 0  30 1.5 0  30.75 1.5 0  31.5 1.5 0  32.25 1.5 0  33 1.5 0  33.75 1.5 0  34.5 1.5 0  35.25 1.5 0  36 1.5 0  36.75 1.5 0  37.5 1.5 0  38.25 1.5 0  39 1.5 0  39.75 1.5 0  40.5 1.5 0  41.25 1.5 0  42 1.5 0  42.75 1.5 0  43.5 1.5 0  44.25 1.5 0  45 1.5 0  45.75 1.5 0  46.5 1.5 0  47.25 1.5 0  48 1.5 0  48.75 1.5 0  49.5 1.5 0  50.25 1.5 0  51 1.5 0  51.75 1.5 0  52.5 1.5 0  53.25 1.5 0  54 1.5 0  54.75 1.5 0  55.5 1.5 0  56.25 1.5 0  57 1.5 0  57.75 1.5 0  58.5 1.5 0  59.25 1.5 0  60 1.5 0  0 2 0  0.75 2 0  1.5 2 0  2.25 2 0  3 2 0  3.75 2 0  4.5 2 0  5.25 2 0  6 2 0  6.75 2 0  7.5 2 0  8.25 2 0  9 2 0  9.75 2 0  10.5 2 0  11.25 2 0  12 2 0  12.75 2 0  13.5 2 0  14.25 2 0  15 2 0  15.75 2 0  16.5 2 0  17.25 2 0  18 2 0  18.75 2 0  19.5 2 0  20.25 2 0  21 2 0  21.75 2 0  22.5 2 0  23.25 2 0  24 2 0  24.75 2 0  25.5 2 0  26.25 2 0  27 2 0  27.75 2 0  28.5 2 0  29.25 2 0  30 2 0  30.75 2 0  31.5 2 0  32.25 2 0  33 2 0  33.75 2 0  34.5 2 0  35.25 2 0  36 2 0  36.75 2 0  37.5 2 0  38.25 2 0  39 2 0  39.75 2 0  40.5 2 0  41.25 2 0  42 2 0  42.75 2 0  43.5 2 0  44.25 2 0  45 2 0  45.75 2 0  46.5 2 0  47.25 2 0  48 2 0  48.75 2 0  49.5 2 0  50.25 2 0  51 2 0  51.75 2 0  52.5 2 0  53.25 2 0  54 2 0  54.75 2 0  55.5 2 0  56.25 2 0  57 2 0  57.75 2 0  58.5 2 0  59.25 2 0  60 2 0  0 2.5 0  0.75 2.5 0  1.5 2.5 0  2.25 2.5 0  3 2.5 0  3.75 2.5 0  4.5 2.5 0  5.25 2.5 0  6 2.5 0  6.75 2.5 0  7.5 2.5 0  8.25 2.5 0  9 2.5 0  9.75 2.5 0  10.5 2.5 0  11.25 2.5 0  12 2.5 0  12.75 2.5 0  13.5 2.5 0  14.25 2.5 0  15 2.5 0  15.75 2.5 0  16.5 2.5 0  17.25 2.5 0  18 2.5 0  18.75 2.5 0  19.5 2.5 0  20.25 2.5 0  21 2.5 0  21.75 2.5 0  22.5 2.5 0  23.25 2.5 0  24 2.5 0  24.75 2.5 0  25.5 2.5 0  26.25 2.5 0  27 2.5 0  27.75 2.5 0  28.5 2.5 0  29.25 2.5 0  30 2.5 0  30.75 2.5 0  31.5 2.5 0  32.25 2.5 0  33 2.5 0  33.75 2.5 0  34.5 2.5 0  35.25 2.5 0  36 2.5 0  36.75 2.5 0  37.5 2.5 0  38.25 2.5 0  39 2.5 0  39.75 2.5 0  40.5 2.5 0  41.25 2.5 0  42 2.5 0  42.75 2.5 0  43.5 2.5 0  44.25 2.5 0  45 2.5 0  45.75 2.5 0  46.5 2.5 0  47.25 2.5 0  48 2.5 0  48.75 2.5 0  49.5 2.5 0  50.25 2.5 0  51 2.5 0  51.75 2.5 0  52.5 2.5 0  53.25 2.5 0  54 2.5 0  54.75 2.5 0  55.5 2.5 0  56.25 2.5 0  57 2.5 0  57.75 2.5 0  58.5 2.5 0  59.25 2.5 0  60 2.5 0  0 3 0  0.75 3 0  1.5 3 0  2.25 3 0  3 3 0  3.75 3 0  4.5 3 0  5.25 3 0  6 3 0  6.75 3 0  7.5 3 0  8.25 3 0  9 3 0  9.75 3 0  10.5 3 0  11.25 3 0  12 3 0  12.75 3 0  13.5 3 0  14.25 3 0  15 3 0  15.75 3 0  16.5 3 0  17.25 3 0  18 3 0  18.75 3 0  19.5 3 0  20.25 3 0  21 3 0  21.75 3 0  22.5 3 0  23.25 3 0  24 3 0  24.75 3 0  25.5 3 0  26.25 3 0  27 3 0  27.75 3 0  28.5 3 0  29.25 3 0  30 3 0  30.75 3 0  31.5 3 0  32.25 3 0  33 3 0  33.75 3 0  34.5 3 0  35.25 3 0  36 3 0  36.75 3 0  37.5 3 0  38.25 3 0  39 3 0  39.75 3 0  40.5 3 0  41.25 3 0  42 3 0  42.75 3 0  43.5 3 0  44.25 3 0  45 3 0  45.75 3 0  46.5 3 0  47.25 3 0  48 3 0  48.75 3 0  49.5 3 0  50.25 3 0  51 3 0  51.75 3 0  52.5 3 0  53.25 3 0  54 3 0  54.75 3 0  55.5 3 0  56.25 3 0  57 3 0  57.75 3 0  58.5 3 0  59.25 3 0  60 3 0  0 3.5 0  0.75 3.5 0  1.5 3.5 0  2.25 3.5 0  3 3.5 0  3.75 3.5 0  4.5 3.5 0  5.25 3.5 0  6 3.5 0  6.75 3.5 0  7.5 3.5 0  8.25 3.5 0  9 3.5 0  9.75 3.5 0  10.5 3.5 0  11.25 3.5 0  12 3.5 0  12.75 3.5 0  13.5 3.5 0  14.25 3.5 0  15 3.5 0  15.75 3.5 0  16.5 3.5 0  17.25 3.5 0  18 3.5 0  18.75 3.5 0  19.5 3.5 0  20.25 3.5 0  21 3.5 0  21.75 3.5 0  22.5 3.5 0  23.25 3.5 0  24 3.5 0  24.75 3.5 0  25.5 3.5 0  26.25 3.5 0  27 3.5 0  27.75 3.5 0  28.5 3.5 0  29.25 3.5 0  30 3.5 0  30.75 3.5 0  31.5 3.5 0  32.25 3.5 0  33 3.5 0  33.75 3.5 0  34.5 3.5 0  35.25 3.5 0  36 3.5 0  36.75 3.5 0  37.5 3.5 0  38.25 3.5 0  39 3.5 0  39.75 3.5 0  40.5 3.5 0  41.25 3.5 0  42 3.5 0  42.75 3.5 0  43.5 3.5 0  44.25 3.5 0  45 3.5 0  45.75 3.5 0  46.5 3.5 0  47.25 3.5 0  48 3.5 0  48.75 3.5 0  49.5 3.5 0  50.25 3.5 0  51 3.5 0  51.75 3.5 0  52.5 3.5 0  53.25 3.5 0  54 3.5 0  54.75 3.5 0  55.5 3.5 0  56.25 3.5 0  57 3.5 0  57.75 3.5 0  58.5 3.5 0  59.25 3.5 0  60 3.5 0  0 4 0  0.75 4 0  1.5 4 0  2.25 4 0  3 4 0  3.75 4 0  4.5 4 0  5.25 4 0  6 4 0  6.75 4 0  7.5 4 0  8.25 4 0  9 4 0  9.75 4 0  10.5 4 0  11.25 4 0  12 4 0  12.75 4 0  13.5 4 0  14.25 4 0  15 4 0  15.75 4 0  16.5 4 0  17.25 4 0  18 4 0  18.75 4 0  19.5 4 0  20.25 4 0  21 4 0  21.75 4 0  22.5 4 0  23.25 4 0  24 4 0  24.75 4 0  25.5 4 0  26.25 4 0  27 4 0  27.75 4 0  28.5 4 0  29.25 4 0  30 4 0  30.75 4 0  31.5 4 0  32.25 4 0  33 4 0  33.75 4 0  34.5 4 0  35.25 4 0  36 4 0  36.75 4 0  37.5 4 0  38.25 4 0  39 4 0  39.75 4 0  40.5 4 0  41.25 4 0  42 4 0  42.75 4 0  43.5 4 0  44.25 4 0  45 4 0  45.75 4 0  46.5 4 0  47.25 4 0  48 4 0  48.75 4 0  49.5 4 0  50.25 4 0  51 4 0  51.75 4 0  52.5 4 0  53.25 4 0  54 4 0  54.75 4 0  55.5 4 0  56.25 4 0  57 4 0  57.75 4 0  58.5 4 0  59.25 4 0  60 4 0  0.375 0.25 0  1.125 0.25 0  1.875 0.25 0  2.625 0.25 0  3.375 0.25 0  4.125 0.25 0  4.875 0.25 0  5.625 0.25 0  6.375 0.25 0  7.125 0.25 0  7.875 0.25 0  8.625 0.25 0  9.375 0.25 0  10.125 0.25 0  10.875 0.25 0  11.625 0.25 0  12.375 0.25 0  13.125 0.25 0  13.875 0.25 0  14.625 0.25 0  15.375 0.25 0  16.125 0.25 0  16.875 0.25 0  17.625 0.25 0  18.375 0.25 0  19.125 0.25 0  19.875 0.25 0  20.625 0.25 0  21.375 0.25 0  22.125 0.25 0  22.875 0.25 0  23.625 0.25 0  24.375 0.25 0  25.125 0.25 0  25.875 0.25 0  26.625 0.25 0  27.375 0.25 0  28.125 0.25 0  28.875 0.25 0  29.625 0.25 0  30.375 0.25 0  31.125 0.25 0  31.875 0.25 0  32.625 0.25 0  33.375 0.25 0  34.125 0.25 0  34.875 0.25 0  35.625 0.25 0  36.375 0.25 0  37.125 0.25 0  37.875 0.25 0  38.625 0.25 0  39.375 0.25 0  40.125 0.25 0  40.875 0.25 0  41.625 0.25 0  42.375 0.25 0  43.125 0.25 0  43.875 0.25 0  44.625 0.25 0  45.375 0.25 0  46.125 0.25 0  46.875 0.25 0  47.625 0.25 0  48.375 0.25 0  49.125 0.25 0  49.875 0.25 0  50.625 0.25 0  51.375 0.25 0  52.125 0.25 0  52.875 0.25 0  53.625 0.25 0  54.375 0.25 0  55.125 0.25 0  55.875 0.25 0  56.625 0.25 0  57.375 0.25 0  58.125 0.25 0  58.875 0.25 0  59.625 0.25 0  0.375 0.75 0  1.125 0.75 0  1.875 0.75 0  2.625 0.75 0  3.375 0.75 0  4.125 0.75 0  4.875 0.75 0  5.625 0.75 0  6.375 0.75 0  7.125 0.75 0  7.875 0.75 0  8.625 0.75 0  9.375 0.75 0  10.125 0.75 0  10.875 0.75 0  11.625 0.75 0  12.375 0.75 0  13.125 0.75 0  13.875 0.75 0  14.625 0.75 0  15.375 0.75 0  16.125 0.75 0  16.875 0.75 0  17.625 0.75 0  18.375 0.75 0  19.125 0.75 0  19.875 0.75 0  20.625 0.75 0  21.375 0.75 0  22.125 0.75 0  22.875 0.75 0  23.625 0.75 0  24.375 0.75 0  25.125 0.75 0  25.875 0.75 0  26.625 0.75 0  27.375 0.75 0  28.125 0.75 0  28.875 0.75 0  29.625 0.75 0  30.375 0.75 0  31.125 0.75 0  31.875 0.75 0  32.625 0.75 0  33.375 0.75 0  34.125 0.75 0  34.875 0.75 0  35.625 0.75 0  36.375 0.75 0  37.125 0.75 0  37.875 0.75 0  38.625 0.75 0  39.375 0.75 0  40.125 0.75 0  40
[...]
<PointData  Scalars="f_8-1"> 
<DataArray  type="Float64"  Name="f_8-1"  format="ascii">-3.7062467369252476e+00  -3.6629976227427261e+00  -3.6145167254440409e+00  -3.5689526099673006e+00  -3.5223759069195761e+00  -3.4761804825118645e+00  -3.4297484735935599e+00  -3.3834024170094072e+00  -3.3370148999594003e+00  -3.2906606421126234e+00  -3.2443083305781197e+00  -3.1979660691155867e+00  -3.1516260684054163e+00  -3.1052856054961055e+00  -3.0589463295890318e+00  -3.0126056832842578e+00  -2.9662660139965298e+00  -2.9199255341364805e+00  -2.8735856339149599e+00  -2.8272453290738171e+00  -2.7809053049896009e+00  -2.7345650954581942e+00  -2.6882250096664082e+00  -2.6418848440824396e+00  -2.5955447301819934e+00  -2.5492045835546446e+00  -2.5028644576397689e+00  -2.4565243188391692e+00  -2.4101841880271779e+00  -2.3638440523338224e+00  -2.3175039196079403e+00  -2.2711637851011450e+00  -2.2248236516568998e+00  -2.1784835175860278e+00  -2.1321433838824935e+00  -2.0858032499658758e+00  -2.0394631161721257e+00  -1.9931229823082210e+00  -1.9467828484841478e+00  -1.9004427146376404e+00  -1.8541025808037190e+00  -1.8077624469628073e+00  -1.7614223131257580e+00  -1.7150821792865936e+00  -1.6687420454485713e+00  -1.6224019116099342e+00  -1.5760617777716273e+00  -1.5297216439331391e+00  -1.4833815100947305e+00  -1.4370413762562924e+00  -1.3907012424177994e+00  -1.3443611085793450e+00  -1.2980209747406521e+00  -1.2516808409019153e+00  -1.2053407070624622e+00  -1.1590005732223487e+00  -1.1126604393796737e+00  -1.0663203055330885e+00  -1.0199801716762129e+00  -9.7364003779919872e-01  -9.2729990387589478e-01  -8.8095976985257063e-01  -8.3461963560646624e-01  -7.8827950086387988e-01  -7.4193936502298596e-01  -6.9559922674155250e-01  -6.4925908314207503e-01  -6.0291892804894209e-01  -5.5657874888753511e-01  -5.1023852066813946e-01  -4.6389819735852628e-01  -4.1755770011802607e-01  -3.7121691467334289e-01  -3.2487571943999621e-01  -2.7853411732780459e-01  -2.3219266681013614e-01  -1.8585377781525386e-01  -1.3952441608725077e-01  -9.3227515910728531e-02  -4.6951103779679752e-02  -2.7074487362060587e-03  -3.7086495518327638e+00  -3.6620028298513270e+00  -3.6150633537545631e+00  -3.5687837490878187e+00  -3.5225130930374857e+00  -3.4761607206434957e+00  -3.4298126778610114e+00  -3.3834235892356528e+00  -3.3370591420931324e+00  -3.2906933485808492e+00  -3.2443451782619679e+00  -3.1980006169689887e+00  -3.1516607043772673e+00  -3.1053205225037108e+00  -3.0589806409012987e+00  -3.0126405750571874e+00  -2.9663003879317635e+00  -2.9199603166314012e+00  -2.8736201042253557e+00  -2.8272800263386673e+00  -2.7809398398951966e+00  -2.7345997434969194e+00  -2.6882595795809165e+00  -2.6419194670656072e+00  -2.5955793173807051e+00  -2.5492391945728627e+00  -2.5028990529331336e+00  -2.4565589243879287e+00  -2.4102187869512401e+00  -2.3638786554858537e+00  -2.3175385200893390e+00  -2.2711983872496564e+00  -2.2248582527755212e+00  -2.1785181193337713e+00  -2.1321779852497591e+00  -2.0858378515608598e+00  -2.0394977176320892e+00  -1.9931575838474760e+00  -1.9468174499772462e+00  -1.9004773161573776e+00  -1.8541371823081958e+00  -1.8077970484759593e+00  -1.7614569146340151e+00  -1.7151167807975929e+00  -1.6687766469580452e+00  -1.6224365131202529e+00  -1.5760963792814793e+00  -1.5297562454432529e+00  -1.4834161116047071e+00  -1.4370759777663418e+00  -1.3907358439278297e+00  -1.3443957100894104e+00  -1.2980555762507868e+00  -1.2517154424121160e+00  -1.2053753085730001e+00  -1.1590351747332375e+00  -1.1126950408919134e+00  -1.0663549070472149e+00  -1.0200147731959812e+00  -9.7367463932854448e-01  -9.2733450543006457e-01  -8.8099437145372084e-01  -8.3465423732010247e-01  -7.8831410280325898e-01  -7.4197396747474786e-01  -6.9563383024552194e-01  -6.4929368892209693e-01  -6.0295353843601862e-01  -5.5661336867340505e-01  -5.1027315846275634e-01  -4.6393286873168743e-01  -4.1759242930863288e-01  -3.7125173632129876e-01  -3.2491066480622477e-01  -2.7856917576734497e-01  -2.3222765237863788e-01  -1.8588801707794814e-01  -1.3955637336457830e-01  -9.3245618072744382e-02  -4.7053646587880790e-02  -6.1643889909257690e-07  -3.7079578593139448e+00  -3.6620491221701412e+00  -3.6151549323537759e+00  -3.5689043404305156e+00  -3.5224898207546174e+00  -3.4761936830361462e+00  -3.4298007535201918e+00  -3.3834467859597526e+00  -3.3370660170441320e+00  -3.2907136760964804e+00  -3.2443576212685432e+00  -3.1980155043209932e+00  -3.1516721033315882e+00  -3.1053324659209354e+00  -3.0589917931799815e+00  -3.0126517810431843e+00  -2.9663116237788949e+00  -2.9199713869308388e+00  -2.8736313544847683e+00  -2.8272910967406504e+00  -2.7809510636427421e+00  -2.7346108399440126e+00  -2.6882707749455141e+00  -2.6419305867062950e+00  -2.5955904928271516e+00  -2.5492503294657887e+00  -2.5029102165147519e+00  -2.4565700679720144e+00  -2.4102299441751942e+00  -2.3638898035443385e+00  -2.3175496741928816e+00  -2.2712095374230605e+00  -2.2248694054626994e+00  -2.1785292704343910e+00  -2.1321891373374533e+00  -2.0858490030418335e+00  -2.0395088694813146e+00  -1.9931687354756003e+00  -1.9468286017366438e+00  -1.9004884678395917e+00  -1.8541483340353508e+00  -1.8078082001771636e+00  -1.7614680663500739e+00  -1.7151279325052124e+00  -1.6687877986704205e+00  -1.6224476648299655e+00  -1.5761075309926702e+00  -1.5297673971536219e+00  -1.4834272633155210e+00  -1.4370871294768777e+00  -1.3907469956384719e+00  -1.3444068617998512e+00  -1.2980667279611033e+00  -1.2517265941219224e+00  -1.2053864602819526e+00  -1.1590463264401341e+00  -1.1127061925947124e+00  -1.0663660587410395e+00  -1.0200259248709844e+00  -9.7368579096383023e-01  -9.2734565698143845e-01  -8.8100552283181410e-01  -8.3466538833771242e-01  -7.8832525309408963e-01  -7.4198511630312114e-01  -6.9564497623625132e-01  -6.4930482950044865e-01  -6.0296466914018920e-01  -5.5662448193284630e-01  -5.1028424262447458e-01  -4.6394390677404485e-01  -4.1760339900633342e-01  -3.7126260561747609e-01  -3.2492137008256761e-01  -2.7857951482765825e-01  -2.3223687777087962e-01  -1.8589343063587002e-01  -1.3954891436280775e-01  -9.3199806105743618e-02  -4.6780319263340205e-02  -2.3906916019289109e-05  -3.7084007764129208e+00  -3.6616532124993739e+00  -3.6153993140568508e+00  -3.5687786837191022e+00  -3.5225454612372502e+00  -3.4761041398580539e+00  -3.4297962888082441e+00  -3.3833959106938716e+00  -3.3370516105702013e+00  -3.2906799145552630e+00  -3.2443345574434206e+00  -3.1979835939371708e+00  -3.1516426208983002e+00  -3.1053001247201300e+00  -3.0589599740627436e+00  -3.0126195750027494e+00  -2.9662792545967429e+00  -2.9199392763713043e+00  -2.8735989091458576e+00  -2.8272589644747383e+00  -2.7809186530413212e+00  -2.7345786551741087e+00  -2.6882384112862145e+00  -2.6418983583556765e+00  -2.5955581638600780e+00  -2.5492180731235736e+00  -2.5028779085624322e+00  -2.4565377958725594e+00  -2.4101976475451532e+00  -2.3638575233805041e+00  -2.3175173831371243e+00  -2.2711772534523291e+00  -2.2248371169464565e+00  -2.1784969847913853e+00  -2.1321568499011958e+00  -2.0858167167100983e+00  -2.0394765824770666e+00  -1.9931364488760521e+00  -1.9467963148960645e+00  -1.9004561811410827e+00  -1.8541160472538776e+00  -1.8077759134436882e+00  -1.7614357795890550e+00  -1.7150956457598612e+00  -1.6687555119162230e+00  -1.6224153780807222e+00  -1.5760752442406700e+00  -1.5297351104031374e+00  -1.4833949765641903e+00  -1.4370548427259788e+00  -1.3907147088872809e+00  -1.3443745750486644e+00  -1.2980344412096030e+00  -1.2516943073699527e+00  -1.2053541735288273e+00  -1.1590140396847379e+00  -1.1126739058342272e+00  -1.0663337719702060e+00  -1.0199936380773611e+00  -9.7365350412352369e-01  -9.2731337004031189e-01  -8.8097323568464092e-01  -8.3463310075690622e-01  -7.8829296464002796e-01  -7.4195282607488977e-01  -6.9561268254481656e-01  -6.4927252911803024e-01  -6.0293235639668508e-01  -5.5659214699843174e-01  -5.1025186997144600e-01  -4.6391147259545246e-01  -4.1757086972945034e-01  -3.7122992996394943e-01  -3.2488845192917520e-01  -2.7854609733100882e-01  -2.3220216542607638e-01  -1.8585472449592880e-01  -1.3949751799566948e-01  -9.3110028219068053e-02  -4.6633910181533962e-02  -1.8538051059252818e-05  -3.7080734954027590e+00  -3.6618618843672364e+00  -3.6152112105510561e+00  -3.5689274691960229e+00  -3.5224400800337348e+00  -3.4761594656769370e+00  -3.4297448613856178e+00  -3.3834133380283942e+00  -3.3370286054506297e+00  -3.2906821803920994e+00  -3.2443218454659477e+00  -3.1979786679450450e+00  -3.1516327573892484e+00  -3.1052921914631257e+00  -3.0589510503076793e+00  -3.0126107124799457e+00  -2.9662706443477895e+00  -2.9199302254997979e+00  -2.8735903235654692e+00  -2.8272499436247123e+00  -2.7809100019161805e+00  -2.7345697045800628e+00  -2.6882296926704465e+00  -2.6418894649091058e+00  -2.5955493985554252e+00  -2.5492092157641966e+00  -2.5028691159651792e+00  -2.4565289584849128e+00  -2.4101888405922223e+00  -2.3638486960663663e+00  -2.3175085692311006e+00  -2.2711684308431042e+00  -2.2248282999058269e+00  -2.1784881642347691e+00  -2.1321480315357517e+00  -2.0858078969955591e+00  -2.0394677635834242e+00  -1.9931276294883671e+00  -1.9467874958025666e+00  -1.9004473618741282e+00  -1.8541072280882285e+00  -1.8077670942193937e+00  -1.7614269603984201e+00  -1.7150868265500592e+00  -1.6687466927172521e+00  -1.6224065588756762e+00  -1.5760664250390057e+00  -1.5297262911995997e+00  -1.4833861573616784e+00  -1.4370460235228955e+00  -1.3907058896844868e+00  -1.3443657558456601e+00  -1.2980256220066066e+00  -1.2516854881667183e+00  -1.2053453543252408e+00  -1.1590052204803034e+00  -1.1126650866280694e+00  -1.0663249527603291e+00  -1.0199848188596488e+00  -9.7364468488921507e-01  -9.2730455077127383e-01  -8.8096441634314493e-01  -8.3462428126635968e-01  -7.8828414484612241e-01  -7.4194400567481056e-01  -6.9560386095809534e-01  -6.4926370527210109e-01  -6.0292352838937902e-01  -5.5658331163383035e-01  -5.1024302219735207e-01  -4.6390260487198848e-01  -4.1756197100612763e-01  -3.7122098269404480e-01  -3.2487941982932766e-01  -2.7853688026905493e-01  -2.3219243530066572e-01  -1.8584337443562152e-01  -1.3948116946086769e-01  -9.3081426895360447e-02  -4.6596513917767042e-02  -1.1331822925797693e-05  -3.7084007764129221e+00  -3.6616532124993713e+00  -3.6153993140568588e+00  -3.5687786837190960e+00  -3.5225454612372462e+00  -3.4761041398580530e+00  -3.4297962888082454e+00  -3.3833959106938680e+00  -3.3370516105702031e+00  -3.2906799145552714e+00  -3.2443345574434210e+00  -3.1979835939371704e+00  -3.1516426208983046e+00  -3.1053001247201322e+00  -3.0589599740627391e+00  -3.0126195750027507e+00  -2.9662792545967522e+00  -2.9199392763713066e+00  -2.8735989091458642e+00  -2.8272589644747401e+00  -2.7809186530413195e+00  -2.7345786551741056e+00  -2.6882384112862074e+00  -2.6418983583556654e+00  -2.5955581638600829e+00  -2.5492180731235723e+00  -2.5028779085624335e+00  -2.4565377958725660e+00  -2.4101976475451519e+00  -2.3638575233805095e+00  -2.3175173831371230e+00  -2.2711772534523327e+00  -2.2248371169464543e+00  -2.1784969847913880e+00  -2.1321568499011860e+00  -2.0858167167100956e+00  -2.0394765824770711e+00  -1.9931364488760492e+00  -1.9467963148960648e+00  -1.9004561811410805e+00  -1.8541160472538789e+00  -1.8077759134436855e+00  -1.7614357795890543e+00  -1.7150956457598605e+00  -1.6687555119162205e+00  -1.6224153780807216e+00  -1.5760752442406676e+00  -1.5297351104031356e+00  -1.4833949765641905e+00  -1.4370548427259833e+00  -1.3907147088872811e+00  -1.3443745750486662e+00  -1.2980344412096008e+00  -1.2516943073699520e+00  -1.2053541735288225e+00  -1.1590140396847339e+00  -1.1126739058342243e+00  -1.0663337719702122e+00  -1.0199936380773562e+00  -9.7365350412352514e-01  -9.2731337004031555e-01  -8.8097323568464103e-01  -8.3463310075690533e-01  -7.8829296464003595e-01  -7.4195282607488722e-01  -6.9561268254481567e-01  -6.4927252911803190e-01  -6.0293235639668352e-01  -5.5659214699842829e-01  -5.1025186997144434e-01  -4.6391147259545085e-01  -4.1757086972945445e-01  -3.7122992996394927e-01  -3.2488845192916460e-01  -2.7854609733101543e-01  -2.3220216542608496e-01  -1.8585472449593365e-01  -1.3949751799567209e-01  -9.3110028219066027e-02  -4.6633910181537001e-02  -1.8538051055855098e-05  -3.7079578593139400e+00  -3.6620491221701519e+00  -3.6151549323537746e+00  -3.5689043404305170e+00  -3.5224898207546080e+00  -3.4761936830361519e+00  -3.4298007535201878e+00  -3.3834467859597472e+00  -3.3370660170441382e+00  -3.2907136760964883e+00  -3.2443576212685556e+00  -3.1980155043209924e+00  -3.1516721033315913e+00  -3.1053324659209371e+00  -3.0589917931799686e+00  -3.0126517810431777e+00  -2.9663116237789029e+00  -2.9199713869308437e+00  -2.8736313544847802e+00  -2.8272910967406539e+00  -2.7809510636427466e+00  -2.7346108399440063e+00  -2.6882707749454995e+00  -2.6419305867062759e+00  -2.5955904928271489e+00  -2.5492503294657940e+00  -2.5029102165147519e+00  -2.4565700679720268e+00  -2.4102299441751924e+00  -2.3638898035443381e+00  -2.3175496741928856e+00  -2.2712095374230614e+00  -2.2248694054626981e+00  -2.1785292704343959e+00  -2.1321891373374440e+00  -2.0858490030418282e+00  -2.0395088694813213e+00  -1.9931687354755989e+00  -1.9468286017366421e+00  -1.9004884678395972e+00  -1.8541483340353497e+00  -1.8078082001771651e+00  -1.7614680663500688e+00  -1.7151279325052062e+00  -1.6687877986704147e+00  -1.6224476648299588e+00  -1.5761075309926673e+00  -1.5297673971536203e+00  -1.4834272633155183e+00  -1.4370871294768885e+00  -1.3907469956384821e+00  -1.3444068617998532e+00  -1.2980667279611042e+00  -1.2517265941219224e+00  -1.2053864602819448e+00  -1.1590463264401250e+00  -1.1127061925947095e+00  -1.0663660587410400e+00  -1.0200259248709833e+00  -9.7368579096383046e-01  -9.2734565698144455e-01  -8.8100552283181777e-01  -8.3466538833771364e-01  -7.8832525309409651e-01  -7.4198511630312336e-01  -6.9564497623625043e-01  -6.4930482950045176e-01  -6.0296466914018321e-01  -5.5662448193284420e-01  -5.1028424262446970e-01  -4.6394390677404423e-01  -4.1760339900633731e-01  -3.7126260561747626e-01  -3.2492137008256428e-01  -2.7857951482766574e-01  -2.3223687777087385e-01  -1.8589343063587710e-01  -1.3954891436280800e-01  -9.3199806105746075e-02  -4.6780319263341530e-02  -2.3906916021759789e-05  -3.7086495518327705e+00  -3.6620028298513230e+00  -3.6150633537545640e+00  -3.5687837490878147e+00  -3.5225130930374795e+00  -3.4761607206434983e+00  -3.4298126778610114e+00  -3.3834235892356395e+00  -3.3370591420931404e+00  -3.2906933485808634e+00  -3.2443451782619794e+00  -3.1980006169689879e+00  -3.1516607043772735e+00  -3.1053205225037055e+00  -3.0589806409012814e+00  -3.0126405750571807e+00  -2.9663003879317724e+00  -2.9199603166314141e+00  -2.8736201042253593e+00  -2.8272800263386766e+00  -2.7809398398952010e+00  -2.7345997434969114e+00  -2.6882595795808895e+00  -2.6419194670655894e+00  -2.5955793173806967e+00  -2.5492391945728698e+00  -2.5028990529331363e+00  -2.4565589243879420e+00  -2.4102187869512410e+00  -2.3638786554858586e+00  -2.3175385200893430e+00  -2.2711983872496573e+00  -2.2248582527755243e+00  -2.1785181193337753e+00  -2.1321779852497507e+00  -2.0858378515608562e+00  -2.0394977176320994e+00  -1.9931575838474700e+00  -1.9468174499772435e+00  -1.9004773161573865e+00  -1.8541371823081978e+00  -1.8077970484759542e+00  -1.7614569146340140e+00  -1.7151167807975816e+00  -1.6687766469580383e+00  -1.6224365131202458e+00  -1.5760963792814719e+00  -1.5297562454432554e+00  -1.4834161116047035e+00  -1.4370759777663562e+00  -1.3907358439278401e+00  -1.3443957100894119e+00  -1.2980555762507888e+00  -1.2517154424121195e+00  -1.2053753085729868e+00  -1.1590351747332235e+00  -1.1126950408919094e+00  -1.0663549070472165e+00  -1.0200147731959843e+00  -9.7367463932854492e-01  -9.2733450543007323e-01  -8.8099437145372417e-01  -8.3465423732010902e-01  -7.8831410280326386e-01  -7.4197396747474542e-01  -6.9563383024552372e-01  -6.4929368892209649e-01  -6.0295353843601507e-01  -5.5661336867340017e-01  -5.1027315846274879e-01  -4.6393286873168699e-01  -4.1759242930863943e-01  -3.7125173632130176e-01  -3.2491066480623049e-01  -2.7856917576734419e-01  -2.3222765237863899e-01  -1.8588801707795044e-01  -1.3955637336458224e-01  -9.3245618072748934e-02  -4.7053646587884246e-02  -6.1643889995614393e-07  -3.7062467369252343e+00  -3.6629976227427306e+00  -3.6145167254440360e+00  -3.5689526099673001e+00  -3.5223759069195726e+00  -3.4761804825118618e+00  -3.4297484735935622e+00  -3.3834024170093926e+00  -3.3370148999594123e+00  -3.2906606421126421e+00  -3.2443083305781317e+00  -3.1979660691155916e+00  -3.1516260684054198e+00  -3.1052856054960958e+00  -3.0589463295890109e+00  -3.0126056832842583e+00  -2.9662660139965387e+00  -2.9199255341364898e+00  -2.8735856339149666e+00  -2.8272453290738260e+00  -2.7809053049895982e+00  -2.7345650954581808e+00  -2.6882250096663838e+00  -2.6418848440824245e+00  -2.5955447301819929e+00  -2.5492045835546473e+00  -2.5028644576397765e+00  -2.4565243188391812e+00  -2.4101841880271815e+00  -2.3638440523338247e+00  -2.3175039196079443e+00  -2.2711637851011437e+00  -2.2248236516569042e+00  -2.1784835175860264e+00  -2.1321433838824846e+00  -2.0858032499658741e+00  -2.0394631161721315e+00  -1.9931229823082113e+00  -1.9467828484841503e+00  -1.9004427146376466e+00  -1.8541025808037186e+00  -1.8077624469628044e+00  -1.7614223131257578e+00  -1.7150821792865840e+00  -1.6687420454485655e+00  -1.6224019116099277e+00  -1.5760617777716186e+00  -1.5297216439331451e+00  -1.4833815100947312e+00  -1.4370413762563046e+00  -1.3907012424178105e+00  -1.3443611085793494e+00  -1.2980209747406526e+00  -1.2516808409019182e+00  -1.2053407070624504e+00  -1.1590005732223390e+00  -1.1126604393796735e+00  -1.0663203055330939e+00  -1.0199801716762122e+00  -9.7364003779920005e-01  -9.2729990387590455e-01  -8.8095976985257640e-01  -8.3461963560647079e-01  -7.8827950086388288e-01  -7.4193936502298063e-01  -6.9559922674155839e-01  -6.4925908314206582e-01  -6.0291892804893699e-01  -5.5657874888753445e-01  -5.1023852066813247e-01  -4.6389819735852966e-01  -4.1755770011803484e-01  -3.7121691467334578e-01  -3.2487571943999854e-01  -2.7853411732780486e-01  -2.3219266681013809e-01  -1.8585377781525858e-01  -1.3952441608725299e-01  -9.3227515910737760e-02  -4.6951103779682618e-02  -2.7074487362058206e-03  -3.6862072416833480e+00  -3.6384248154336349e+00  -3.5919886001079862e+00  -3.5456926253849099e+00  -3.4993829123512259e+00  -3.4530400609955714e+00  -3.4066643224016055e+00  -3.3602920924674962e+00  -3.3139238134764946e+00  -3.2675685727890369e+00  -3.2212217838611878e+00  -3.1748801016944999e+00  -3.1285400097570020e+00  -3.0822000456035634e+00  -3.0358601075376077e+00  -2.9895199489194444e+00  -2.9431798676537002e+00  -2.8968396851932825e+00  -2.8504995767347965e+00  -2.8041594157046599e+00  -2.7578192971202462e+00  -2.7114791498976656e+00  -2.6651390244033863e+00  -2.6187988841217340e+00  -2.5724587544606123e+00  -2.5261186176228487e+00  -2.4797784857311664e+00  -2.4334383505633594e+00  -2.3870982175747502e+00  -2.3407580831786716e+00  -2.2944179496892554e+00  -2.2480778156293697e+00  -2.2017376819264665e+00  -2.1553975480044865e+00  -2.1090574142161111e+00  -2.0627172803475844e+00  -2.0163771465268341e+00  -1.9700370126780145e+00  -1.9236968788455717e+00  -1.8773567450036936e+00  -1.8310166111672372e+00  -1.7846764773277064e+00  -1.7383363434899155e+00  -1.6919962096511438e+00  -1.6456560758129128e+00  -1.5993159419743865e+00  -1.5529758081360241e+00  -1.5066356742975660e+00  -1.4602955404591418e+00  -1.4139554066206939e+00  -1.3676152727822286e+00  -1.3212751389437243e+00  -1.2749350051050528e+00  -1.2285948712662385e+00  -1.1822547374267363e+00  -1.1359146035864340e+00  -1.0895744697433605e+00  -1.0432343358961207e+00  -9.9689420203698054e-01  -9.5055406815627452e-01  -9.0421393422018403e-01  -8.5787380017150960e-01  -8.1153366584914977e-01  -7.6519353093607956e-01  -7.1885339463995834e-01  -6.7251325530733774e-01  -6.2617310914323088e-01  -5.7983294832