<?xml version="1.0"?>
<VTKFile type="UnstructuredGrid"  version="0.1"  >
<UnstructuredGrid>
<Piece  NumberOfPoints="1369" NumberOfCells="2560">
<Points>
<DataArray  type="Float64"  NumberOfComponents="3"  format="ascii">0 0 0  0.75 0 0  1.5 0 0  2.25 0 0  3 0 0  3.75 0 0  4.5 0 0  5.25 0 0  6 0 0  6.75 0 0  7.5 0 0  8.25 0 0  9 0 0  9.75 0 0  10.5 0 0  11.25 0 0  12 0 0  12.75 0 0  13.5 0 0  14.25 0 0  15 0 0  15.75 0 0  16.5 0 0  17.25 0 0  18 0 0  18.75 0 0  19.5 0 0  20.25 0 0  21 0 0  21.75 0 0  22.5 0 0  23.25 0 0  24 0 0  24.75 0 0  25.5 0 0  26.25 0 0  27 0 0  27.75 0 0  28.5 0 0  29.25 0 0  30 0 0  30.75 0 0  31.5 0 0  32.25 0 0  33 0 0  33.75 0 0  34.5 0 0  35.25 0 0  36 0 0  36.75 0 0  37.5 0 0  38.25 0 0  39 0 0  39.75 0 0  40.5 0 0  41.25 0 0  42 0 0  42.75 0 0  43.5 0 0  44.25 0 0  45 0 0  45.75 0 0  46.5 0 0  47.25 0 0  48 0 0  48.75 0 0  49.5 0 0  50.25 0 0  51 0 0  51.75 0 0  52.5 0 0  53.25 0 0  54 0 0  54.75 0 0  55.5 0 0  56.25 0 0  57 0 0  57.75 0 0  58.5 0 0  59.25 0 0  60 0 0  0 0.5 0  0.75 0.5 0  1.5 0.5 0  2.25 0.5 0  3 0.5 0  3.75 0.5 0  4.5 0.5 0  5.25 0.5 0  6 0.5 0  6.75 0.5 0  7.5 0.5 0  8.25 0.5 0  9 0.5 0  9.75 0.5 0  10.5 0.5 0  11.25 0.5 0  12 0.5 0  12.75 0.5 0  13.5 0.5 0  14.25 0.5 0  15 0.5 0  15.75 0.5 0  16.5 0.5 0  17.25 0.5 0  18 0.5 0  18.75 0.5 0  19.5 0.5 0  20.25 0.5 0  21 0.5 0  21.75 0.5 0  22.5 0.5 0  23.25 0.5 0  24 0.5 0  24.75 0.5 0  25.5 0.5 0  26.25 0.5 0  27 0.5 0  27.75 0.5 0  28.5 0.5 0  29.25 0.5 0  30 0.5 0  30.75 0.5 0  31.5 0.5 0  32.25 0.5 0  33 0.5 0  33.75 0.5 0  34.5 0.5 0  35.25 0.5 0  36 0.5 0  36.75 0.5 0  37.5 0.5 0  38.25 0.5 0  39 0.5 0  39.75 0.5 0  40.5 0.5 0  41.25 0.5 0  42 0.5 0  42.75 0.5 0  43.5 0.5 0  44.25 0.5 0  45 0.5 0  45.75 0.5 0  46.5 0.5 0  47.25 0.5 0  48 0.5 0  48.75 0.5 0  49.5 0.5 0  50.25 0.5 0  51 0.5 0  51.75 0.5 0  52.5 0.5 0  53.25 0.5 0  54 0.5 0  54.75 0.5 0  55.5 0.5 0  56.25 0.5 0  57 0.5 0  57.75 0.5 0  58.5 0.5 0  59.25 0.5 0  60 0.5 0  0 1 0  0.75 1 0  1.5 1 0  2.25 1 0  3 1 0  3.75 1 0  4.5 1 0  5.25 1 0  6 1 0  6.75 1 0  7.5 1 0  8.25 1 0  9 1 0  9.75 1 0  10.5 1 0  11.25 1 0  12 1 0  12.75 1 0  13.5 1 0  14.25 1 0  15 1 0  15.75 1 0  16.5 1 0  17.25 1 0  18 1 0  18.75 1 0  19.5 1 0  20.25 1 0  21 1 0  21.75 1 0  22.5 1 0  23.25 1 0  24 1 0  24.75 1 0  25.5 1 0  26.25 1 0  27 1 0  27.75 1 0  28.5 1 0  29.25 1 0  30 1 0  30.75 1 0  31.5 1 0  32.25 1 0  33 1 0  33.75 1 0  34.5 1 0  35.25 1 0  36 1 0  36.75 1 0  37.5 1 0  38.25 1 0  39 1 0  39.75 1 0  40.5 1 0  41.25 1 0  42 1 0  42.75 1 0  43.5 1 0  44.25 1 0  45 1 0  45.75 1 0  46.5 1 0  47.25 1 0  48 1 0  48.75 1 0  49.5 1 0  50.25 1 0  51 1 0  51.75 1 0  52.5 1 0  53.25 1 0  54 1 0  54.75 1 0  55.5 1 0  56.25 1 0  57 1 0  57.75 1 0  58.5 1 0  59.25 1 0  60 1 0  0 1.5 0  0.75 1.5 0  1.5 1.5 0  2.25 1.5 0  3 1.5 0  3.75 1.5 0  4.5 1.5 0  5.25 1.5 0  6 1.5 0  6.75 1.5 0  7.5 1.5 0  8.25 1.5 0  9 1.5 0  9.75 1.5 0  10.5 1.5 0  11.25 1.5 0  12 1.5 0  12.75 1.5 0  13.5 1.5 0  14.25 1.5 0  15 1.5 0  15.75 1.5 0  16.5 1.5 0  17.25 1.5 0  18 1.5 0  18.75 1.5 0  19.5 1.5 0  20.25 1.5 0  21 1.5 0  21.75 1.5 0  22.5 1.5 0  23.25 1.5 0  24 1.5 0  24.75 1.5 0  25.5 1.5 0  26.25 1.5 0  27 1.5 0  27.75 1.5 0  28.5 1.5 0  29.25 1.5 0  30 1.5 0  30.75 1.5 0  31.5 1.5 0  32.25 1.5 0  33 1.5 0  33.75 1.5 0  34.5 1.5 0  35.25 1.5 0  36 1.5 0  36.75 1.5 0  37.5 1.5 0  38.25 1.5 0  39 1.5 0  39.75 1.5 0  40.5 1.5 0  41.25 1.5 0  42 1.5 0  42.75 1.5 0  43.5 1.5 0  44.25 1.5 0  45 1.5 0  45.75 1.5 0  46.5 1.5 0  47.25 1.5 0  48 1.5 0  48.75 1.5 0  49.5 1.5 0  50.25 1.5 0  51 1.5 0  51.75 1.5 0  52.5 1.5 0  53.25 1.5 0  54 1.5 0  54.75 1.5 0  55.5 1.5 0  56.25 1.5 0  57 1.5 0  57.75 1.5 0  58.5 1.5 0  59.25 1.5 0  60 1.5 0  0 2 0  0.75 2 0  1.5 2 0  2.25 2 0  3 2 0  3.75 2 0  4.5 2 0  5.25 2 0  6 2 0  6.75 2 0  7.5 2 0  8.25 2 0  9 2 0  9.75 2 0  10.5 2 0  11.25 2 0  12 2 0  12.75 2 0  13.5 2 0  14.25 2 0  15 2 0  15.75 2 0  16.5 2 0  17.25 2 0  18 2 0  18.75 2 0  19.5 2 0  20.25 2 0  21 2 0  21.75 2 0  22.5 2 0  23.25 2 0  24 2 0  24.75 2 0  25.5 2 0  26.25 2 0  27 2 0  27.75 2 0  28.5 2 0  29.25 2 0  30 2 0  30.75 2 0  31.5 2 0  32.25 2 0  33 2 0  33.75 2 0  34.5 2 0  35.25 2 0  36 2 0  36.75 2 0  37.5 2 0  38.25 2 0  39 2 0  39.75 2 0  40.5 2 0  41.25 2 0  42 2 0  42.75 2 0  43.5 2 0  44.25 2 0  45 2 0  45.75 2 0  46.5 2 0  47.25 2 0  48 2 0  48.75 2 0  49.5 2 0  50.25 2 0  51 2 0  51.75 2 0  52.5 2 0  53.25 2 0  54 2 0  54.75 2 0  55.5 2 0  56.25 2 0  57 2 0  57.75 2 0  58.5 2 0  59.25 2 0  60 2 0  0 2.5 0  0.75 2.5 0  1.5 2.5 0  2.25 2.5 0  3 2.5 0  3.75 2.5 0  4.5 2.5 0  5.25 2.5 0  6 2.5 0  6.75 2.5 0  7.5 2.5 0  8.25 2.5 0  9 2.5 0  9.75 2.5 0  10.5 2.5 0  11.25 2.5 0  12 2.5 0  12.75 2.5 0  13.5 2.5 0  14.25 2.5 0  15 2.5 0  15.75 2.5 0  16.5 2.5 0  17.25 2.5 0  18 2.5 0  18.75 2.5 0  19.5 2.5 0  20.25 2.5 0  21 2.5 0  21.75 2.5 0  22.5 2.5 0  23.25 2.5 0  24 2.5 0  24.75 2.5 0  25.5 2.5 0  26.25 2.5 0  27 2.5 0  27.75 2.5 0  28.5 2.5 0  29.25 2.5 0  30 2.5 0  30.75 2.5 0  31.5 2.5 0  32.25 2.5 0  33 2.5 0  33.75 2.5 0  34.5 2.5 0  35.25 2.5 0  36 2.5 0  36.75 2.5 0  37.5 2.5 0  38.25 2.5 0  39 2.5 0  39.75 2.5 0  40.5 2.5 0  41.25 2.5 0  42 2.5 0  42.75 2.5 0  43.5 2.5 0  44.25 2.5 0  45 2.5 0  45.75 2.5 0  46.5 2.5 0  47.25 2.5 0  48 2.5 0  48.75 2.5 0  49.5 2.5 0  50.25 2.5 0  51 2.5 0  51.75 2.5 0  52.5 2.5 0  53.25 2.5 0  54 2.5 0  54.75 2.5 0  55.5 2.5 0  56.25 2.5 0  57 2.5 0  57.75 2.5 0  58.5 2.5 0  59.25 2.5 0  60 2.5 0  0 3 0  0.75 3 0  1.5 3 0  2.25 3 0  3 3 0  3.75 3 0  4.5 3 0  5.25 3 0  6 3 0  6.75 3 0  7.5 3 0  8.25 3 0  9 3 0  9.75 3 0  10.5 3 0  11.25 3 0  12 3 0  12.75 3 0  13.5 3 0  14.25 3 0  15 3 0  15.75 3 0  16.5 3 0  17.25 3 0  18 3 0  18.75 3 0  19.5 3 0  20.25 3 0  21 3 0  21.75 3 0  22.5 3 0  23.25 3 0  24 3 0  24.75 3 0  25.5 3 0  26.25 3 0  27 3 0  27.75 3 0  28.5 3 0  29.25 3 0  30 3 0  30.75 3 0  31.5 3 0  32.25 3 0  33 3 0  33.75 3 0  34.5 3 0  35.25 3 0  36 3 0  36.75 3 0  37.5 3 0  38.25 3 0  39 3 0  39.75 3 0  40.5 3 0  41.25 3 0  42 3 0  42.75 3 0  43.5 3 0  44.25 3 0  45 3 0  45.75 3 0  46.5 3 0  47.25 3 0  48 3 0  48.75 3 0  49.5 3 0  50.25 3 0  51 3 0  51.75 3 0  52.5 3 0  53.25 3 0  54 3 0  54.75 3 0  55.5 3 0  56.25 3 0  57 3 0  57.75 3 0  58.5 3 0  59.25 3 0  60 3 0  0 3.5 0  0.75 3.5 0  1.5 3.5 0  2.25 3.5 0  3 3.5 0  3.75 3.5 0  4.5 3.5 0  5.25 3.5 0  6 3.5 0  6.75 3.5 0  7.5 3.5 0  8.25 3.5 0  9 3.5 0  9.75 3.5 0  10.5 3.5 0  11.25 3.5 0  12 3.5 0  12.75 3.5 0  13.5 3.5 0  14.25 3.5 0  15 3.5 0  15.75 3.5 0  16.5 3.5 0  17.25 3.5 0  18 3.5 0  18.75 3.5 0  19.5 3.5 0  20.25 3.5 0  21 3.5 0  21.75 3.5 0  22.5 3.5 0  23.25 3.5 0  24 3.5 0  24.75 3.5 0  25.5 3.5 0  26.25 3.5 0  27 3.5 0  27.75 3.5 0  28.5 3.5 0  29.25 3.5 0  30 3.5 0  30.75 3.5 0  31.5 3.5 0  32.25 3.5 0  33 3.5 0  33.75 3.5 0  34.5 3.5 0  35.25 3.5 0  36 3.5 0  36.75 3.5 0  37.5 3.5 0  38.25 3.5 0  39 3.5 0  39.75 3.5 0  40.5 3.5 0  41.25 3.5 0  42 3.5 0  42.75 3.5 0  43.5 3.5 0  44.25 3.5 0  45 3.5 0  45.75 3.5 0  46.5 3.5 0  47.25 3.5 0  48 3.5 0  48.75 3.5 0  49.5 3.5 0  50.25 3.5 0  51 3.5 0  51.75 3.5 0  52.5 3.5 0  53.25 3.5 0  54 3.5 0  54.75 3.5 0  55.5 3.5 0  56.25 3.5 0  57 3.5 0  57.75 3.5 0  58.5 3.5 0  59.25 3.5 0  60 3.5 0  0 4 0  0.75 4 0  1.5 4 0  2.25 4 0  3 4 0  3.75 4 0  4.5 4 0  5.25 4 0  6 4 0  6.75 4 0  7.5 4 0  8.25 4 0  9 4 0  9.75 4 0  10.5 4 0  11.25 4 0  12 4 0  12.75 4 0  13.5 4 0  14.25 4 0  15 4 0  15.75 4 0  16.5 4 0  17.25 4 0  18 4 0  18.75 4 0  19.5 4 0  20.25 4 0  21 4 0  21.75 4 0  22.5 4 0  23.25 4 0  24 4 0  24.75 4 0  25.5 4 0  26.25 4 0  27 4 0  27.75 4 0  28.5 4 0  29.25 4 0  30 4 0  30.75 4 0  31.5 4 0  32.25 4 0  33 4 0  33.75 4 0  34.5 4 0  35.25 4 0  36 4 0  36.75 4 0  37.5 4 0  38.25 4 0  39 4 0  39.75 4 0  40.5 4 0  41.25 4 0  42 4 0  42.75 4 0  43.5 4 0  44.25 4 0  45 4 0  45.75 4 0  46.5 4 0  47.25 4 0  48 4 0  48.75 4 0  49.5 4 0  50.25 4 0  51 4 0  51.75 4 0  52.5 4 0  53.25 4 0  54 4 0  54.75 4 0  55.5 4 0  56.25 4 0  57 4 0  57.75 4 0  58.5 4 0  59.25 4 0  60 4 0  0.375 0.25 0  1.125 0.25 0  1.875 0.25 0  2.625 0.25 0  3.375 0.25 0  4.125 0.25 0  4.875 0.25 0  5.625 0.25 0  6.375 0.25 0  7.125 0.25 0  7.875 0.25 0  8.625 0.25 0  9.375 0.25 0  10.125 0.25 0  10.875 0.25 0  11.625 0.25 0  12.375 0.25 0  13.125 0.25 0  13.875 0.25 0  14.625 0.25 0  15.375 0.25 0  16.125 0.25 0  16.875 0.25 0  17.625 0.25 0  18.375 0.25 0  19.125 0.25 0  19.875 0.25 0  20.625 0.25 0  21.375 0.25 0  22.125 0.25 0  22.875 0.25 0  23.625 0.25 0  24.375 0.25 0  25.125 0.25 0  25.875 0.25 0  26.625 0.25 0  27.375 0.25 0  28.125 0.25 0  28.875 0.25 0  29.625 0.25 0  30.375 0.25 0  31.125 0.25 0  31.875 0.25 0  32.625 0.25 0  33.375 0.25 0  34.125 0.25 0  34.875 0.25 0  35.625 0.25 0  36.375 0.25 0  37.125 0.25 0  37.875 0.25 0  38.625 0.25 0  39.375 0.25 0  40.125 0.25 0  40.875 0.25 0  41.625 0.25 0  42.375 0.25 0  43.125 0.25 0  43.875 0.25 0  44.625 0.25 0  45.375 0.25 0  46.125 0.25 0  46.875 0.25 0  47.625 0.25 0  48.375 0.25 0  49.125 0.25 0  49.875 0.25 0  50.625 0.25 0  51.375 0.25 0  52.125 0.25 0  52.875 0.25 0  53.625 0.25 0  54.375 0.25 0  55.125 0.25 0  55.875 0.25 0  56.625 0.25 0  57.375 0.25 0  58.125 0.25 0  58.875 0.25 0  59.625 0.25 0  0.375 0.75 0  1.125 0.75 0  1.875 0.75 0  2.625 0.75 0  3.375 0.75 0  4.125 0.75 0  4.875 0.75 0  5.625 0.75 0  6.375 0.75 0  7.125 0.75 0  7.875 0.75 0  8.625 0.75 0  9.375 0.75 0  10.125 0.75 0  10.875 0.75 0  11.625 0.75 0  12.375 0.75 0  13.125 0.75 0  13.875 0.75 0  14.625 0.75 0  15.375 0.75 0  16.125 0.75 0  16.875 0.75 0  17.625 0.75 0  18.375 0.75 0  19.125 0.75 0  19.875 0.75 0  20.625 0.75 0  21.375 0.75 0  22.125 0.75 0  22.875 0.75 0  23.625 0.75 0  24.375 0.75 0  25.125 0.75 0  25.875 0.75 0  26.625 0.75 0  27.375 0.75 0  28.125 0.75 0  28.875 0.75 0  29.625 0.75 0  30.375 0.75 0  31.125 0.75 0  31.875 0.75 0  32.625 0.75 0  33.375 0.75 0  34.125 0.75 0  34.875 0.75 0  35.625 0.75 0  36.375 0.75 0  37.125 0.75 0  37.875 0.75 0  38.625 0.75 0  39.375 0.75 0  40.125 0.75 0  40
[...]
<PointData  Scalars="f_8-1"> 
<DataArray  type="Float64"  Name="f_8-1"  format="ascii">1.1850248426609076e+01  1.1705617313551079e+01  1.1555645672963468e+01  1.1408199222452641e+01  1.1259777482700038e+01  1.1111705593603693e+01  1.0963521437431714e+01  1.0815372229341504e+01  1.0667213368867150e+01  1.0519057299322281e+01  1.0370900569340293e+01  1.0222744043714798e+01  1.0074587485231143e+01  9.9264309439207068e+00  9.7782744031503217e+00  9.6301178646275982e+00  9.4819613267805192e+00  9.3338047893835441e+00  9.1856482521859792e+00  9.0374917150947347e+00  8.8893351780546510e+00  8.7411786410401877e+00  8.5930221040382264e+00  8.4448655670425588e+00  8.2967090300496533e+00  8.1485524930585953e+00  8.0003959560682532e+00  7.8522394190783391e+00  7.7040828820886160e+00  7.5559263450991931e+00  7.4077698081098386e+00  7.2596132711203474e+00  7.1114567341308037e+00  6.9633001971411517e+00  6.8151436601518007e+00  6.6669871231623477e+00  6.5188305861728688e+00  6.3706740491834095e+00  6.2225175121939698e+00  6.0743609752045593e+00  5.9262044382149561e+00  5.7780479012255306e+00  5.6298913642360260e+00  5.4817348272464708e+00  5.3335782902567352e+00  5.1854217532667786e+00  5.0372652162763059e+00  4.8891086792838401e+00  4.7409521422906957e+00  4.5927956052893375e+00  4.4446390682838608e+00  4.2964825312486994e+00  4.1483259941890562e+00  4.0001694570252946e+00  3.8520129197404729e+00  3.7038563820852315e+00  3.5556998438935121e+00  3.4075433043513144e+00  3.2593867625429813e+00  3.1112302154823444e+00  2.9630736581336348e+00  2.8149170759001696e+00  2.6667604356951671e+00  2.5186036492227468e+00  2.3704465154427776e+00  2.2222885958105323e+00  2.0741290964350534e+00  1.9259668184602734e+00  1.7778005316403995e+00  1.6296297892693725e+00  1.4814558417991153e+00  1.3332812146410846e+00  1.1851084997487398e+00  1.0369401851277740e+00  8.8878060789567759e-01  7.4063641031498639e-01  5.9251552796516560e-01  4.4442834417235144e-01  2.9639206909984561e-01  1.4845955917336892e-01  2.9419941826020432e-03  1.1852826387926781e+01  1.1704450705370267e+01  1.1556277945489805e+01  1.1408028691222661e+01  1.1259911997199422e+01  1.1111732989738014e+01  1.0963583299892059e+01  1.0815423810547317e+01  1.0667267904595729e+01  1.0519111054023968e+01  1.0370954540161861e+01  1.0222797965553529e+01  1.0074641422406133e+01  9.9264848789783819e+00  9.7783283395495104e+00  9.6301718011306612e+00  9.4820152634728228e+00  9.3338587261385353e+00  9.1857021889799384e+00  9.0375456519061608e+00  8.8893891148753532e+00  8.7412325778652225e+00  8.5930760408655900e+00  8.4449195038708726e+00  8.2967629668784824e+00  8.1486064298877743e+00  8.0004498928974730e+00  7.8522933559077126e+00  7.7041368189179034e+00  7.5559802819286421e+00  7.4078237449392415e+00  7.2596672079497875e+00  7.1115106709601621e+00  6.9633541339705616e+00  6.8151975969812097e+00  6.6670410599917416e+00  6.5188845230022920e+00  6.3707279860128061e+00  6.2225714490233841e+00  6.0744149120339772e+00  5.9262583750443572e+00  5.7781018380549272e+00  5.6299453010654199e+00  5.4817887640759340e+00  5.3336322270859986e+00  5.1854756900964079e+00  5.0373191531052743e+00  4.8891626161137900e+00  4.7410060791189830e+00  4.5928495421199127e+00  4.4446930051103246e+00  4.2965364680803013e+00  4.1483799310105214e+00  4.0002233938564782e+00  3.8520668565473843e+00  3.7039103189055593e+00  3.5557537806536446e+00  3.4075972411171187e+00  3.2594406991812575e+00  3.1112841521966477e+00  2.9631275950164491e+00  2.8149710142332678e+00  2.6668143771675958e+00  2.5186575961867934e+00  2.3705004605042266e+00  2.2223424994624850e+00  2.0741828334084342e+00  1.9260201274413400e+00  1.7778530552682397e+00  1.6296813731274140e+00  1.4815069295335550e+00  1.3333326162675381e+00  1.1851605701471837e+00  1.0369932562863360e+00  8.8883586129797809e-01  7.4069479363884561e-01  5.9257772493452376e-01  4.4449163199139380e-01  2.9644298175087630e-01  1.4851888567824001e-01  9.2612365213838677e-05  1.1852218890463490e+01  1.1704426024756870e+01  1.1556232517239444e+01  1.1408091797304138e+01  1.1259921570188975e+01  1.1111768663070809e+01  1.0963609836048468e+01  1.0815453683183481e+01  1.0667296834946196e+01  1.0519140299176604e+01  1.0370983715999019e+01  1.0222827168516940e+01  1.0074670622633384e+01  9.9265140820416597e+00  9.7783575430015155e+00  9.6302010050384208e+00  9.4820444675496631e+00  9.3338879303149387e+00  9.1857313932028575e+00  9.0375748561530376e+00  8.8894183191340463e+00  8.7412617821296639e+00  8.5931052451330423e+00  8.4449487081396715e+00  8.2967921711480415e+00  8.1486356341576069e+00  8.0004790971675135e+00  7.8523225601779147e+00  7.7041660231880389e+00  7.5560094861988265e+00  7.4078529492094871e+00  7.2596964122200012e+00  7.1115398752303873e+00  6.9633833382407273e+00  6.8152268012514776e+00  6.6670702642619428e+00  6.5189137272725501e+00  6.3707571902829576e+00  6.2226006532935960e+00  6.0744441163041243e+00  5.9262875793145842e+00  5.7781310423250787e+00  5.6299745053357908e+00  5.4818179683461334e+00  5.3336614313564121e+00  5.1855048943666890e+00  5.0373483573757651e+00  4.8891918203844718e+00  4.7410352833899063e+00  4.5928787463925280e+00  4.4447222093829089e+00  4.2965656723600860e+00  4.1484091352905779e+00  4.0002525981611994e+00  3.8520960608606347e+00  3.7039395232997299e+00  3.5557829851077112e+00  3.4076264458545333e+00  3.2594699042923465e+00  3.1113133586307735e+00  2.9631568042771881e+00  2.8150002320368586e+00  2.6668436150117367e+00  2.5186868812006140e+00  2.3705298324476765e+00  2.2223720018305833e+00  2.0742124311155035e+00  1.9260495846825092e+00  1.7778818196472288e+00  1.6297089579464501e+00  1.4815336522677760e+00  1.3333594649813205e+00  1.1851876205497252e+00  1.0370205736626628e+00  8.8886405182439410e-01  7.4072425599873082e-01  5.9260774300684615e-01  4.4451793460813516e-01  2.9644493770646074e-01  1.4833928683858183e-01  -5.5669538992677623e-06  1.1852277783428651e+01  1.1704256410112848e+01  1.1556191240782352e+01  1.1408046587050396e+01  1.1259895184008279e+01  1.1111738271266791e+01  1.0963581893979578e+01  1.0815425117541853e+01  1.0667268515612443e+01  1.0519111913945242e+01  1.0370955349642241e+01  1.0222798795947682e+01  1.0074642250885711e+01  9.9264857095836678e+00  9.7783291704428343e+00  9.6301726323565049e+00  9.4820160948198104e+00  9.3338595575566803e+00  9.1857030204317009e+00  9.0375464833750154e+00  8.8893899463523347e+00  8.7412334093463091e+00  8.5930768723488278e+00  8.4449203353552349e+00  8.2967637983636404e+00  8.1486072613730922e+00  8.0004507243830307e+00  7.8522941873931611e+00  7.7041376504036103e+00  7.5559811134140631e+00  7.4078245764246224e+00  7.2596680394351631e+00  7.1115115024457172e+00  6.9633549654562295e+00  6.8151984284666236e+00  6.6670418914772558e+00  6.5188853544877023e+00  6.3707288174982626e+00  6.2225722805087180e+00  6.0744157435192738e+00  5.9262592065298634e+00  5.7781026695405586e+00  5.6299461325509794e+00  5.4817895955615574e+00  5.3336330585717526e+00  5.1854765215816734e+00  5.0373199845910746e+00  4.8891634475985519e+00  4.7410069106049315e+00  4.5928503736028645e+00  4.4446938365955369e+00  4.2965372995569497e+00  4.1483807624902003e+00  4.0002242253113227e+00  3.8520676879993392e+00  3.7039111502848896e+00  3.5557546119981214e+00  3.4075980722627834e+00  3.2594415302225181e+00  3.1112849828135714e+00  2.9631284254031307e+00  2.8149718429517150e+00  2.6668152006823029e+00  2.5186583975280223e+00  2.3705011953702240e+00  2.2223430564262672e+00  2.0741830063218361e+00  1.9260196007579740e+00  1.7778515767598999e+00  1.6296791177349521e+00  1.4815048147985208e+00  1.3333315397298449e+00  1.1851610112773594e+00  1.0369961468010189e+00  8.8884230063272640e-01  7.4070439052549542e-01  5.9258724525428497e-01  4.4448818886786129e-01  2.9639019628620156e-01  1.4825058063937815e-01  5.6413562750155378e-06  1.1852246427972757e+01  1.1704248892355354e+01  1.1556168842210969e+01  1.1408041198943691e+01  1.1259889975390180e+01  1.1111734705814552e+01  1.0963578136082363e+01  1.0815421507623281e+01  1.0667264869187992e+01  1.0519108276809593e+01  1.0370951706855273e+01  1.0222795152768251e+01  1.0074638606657027e+01  9.9264820650028067e+00  9.7783255256196409e+00  9.6301689874215519e+00  9.4820124498239213e+00  9.3338559125305718e+00  9.1856993753902394e+00  9.0375428383258072e+00  8.8893863012992611e+00  8.7412297642914396e+00  8.5930732272928552e+00  8.4449166902989159e+00  8.2967601533072113e+00  8.1486036163164925e+00  8.0004470793264382e+00  7.8522905423366085e+00  7.7041340053470018e+00  7.5559774683573746e+00  7.4078209313679313e+00  7.2596643943784303e+00  7.1115078573890207e+00  6.9633513203995516e+00  6.8151947834099609e+00  6.6670382464204652e+00  6.5188817094310041e+00  6.3707251724414906e+00  6.2225686354520526e+00  6.0744120984625045e+00  5.9262555614731740e+00  5.7780990244837227e+00  5.6299424874943504e+00  5.4817859505047135e+00  5.3336294135150251e+00  5.1854728765249014e+00  5.0373163395338469e+00  4.8891598025421041e+00  4.7410032655455421e+00  4.5928467285465864e+00  4.4446901915290500e+00  4.2965336544980675e+00  4.1483771174007780e+00  4.0002205802346946e+00  3.8520640428330095e+00  3.7039075051218884e+00  3.5557509665670954e+00  3.4075944267318272e+00  3.2594378838163296e+00  3.1112813355200797e+00  2.9631247741328712e+00  2.8149681838607363e+00  2.6668115170084863e+00  2.5186546601058981e+00  2.3704973346040692e+00  2.2223389826126430e+00  2.0741786149817636e+00  1.9260149464102059e+00  1.7778469477539223e+00  1.6296750335404511e+00  1.4815013218518218e+00  1.3333284965159151e+00  1.1851585807764540e+00  1.0369949157355378e+00  8.8884200963156157e-01  7.4070513962313067e-01  5.9258709163787504e-01  4.4448410349827278e-01  2.9637751715358718e-01  1.4822691043923297e-01  1.3063003562222140e-05  1.1852277783428651e+01  1.1704256410112894e+01  1.1556191240782361e+01  1.1408046587050517e+01  1.1259895184008260e+01  1.1111738271266706e+01  1.0963581893979518e+01  1.0815425117541700e+01  1.0667268515612280e+01  1.0519111913945007e+01  1.0370955349642074e+01  1.0222798795947778e+01  1.0074642250885820e+01  9.9264857095837726e+00  9.7783291704428024e+00  9.6301726323564960e+00  9.4820160948198211e+00  9.3338595575566519e+00  9.1857030204315659e+00  9.0375464833748200e+00  8.8893899463520789e+00  8.7412334093461492e+00  8.5930768723485720e+00  8.4449203353551070e+00  8.2967637983635871e+00  8.1486072613731100e+00  8.0004507243830396e+00  7.8522941873932819e+00  7.7041376504036752e+00  7.5559811134140729e+00  7.4078245764245567e+00  7.2596680394351125e+00  7.1115115024456488e+00  6.9633549654561762e+00  6.8151984284666129e+00  6.6670418914771119e+00  6.5188853544876215e+00  6.3707288174981764e+00  6.2225722805086514e+00  6.0744157435192676e+00  5.9262592065297754e+00  5.7781026695404822e+00  5.6299461325509315e+00  5.4817895955615068e+00  5.3336330585717091e+00  5.1854765215816432e+00  5.0373199845911296e+00  4.8891634475986319e+00  4.7410069106050319e+00  4.5928503736029809e+00  4.4446938365955910e+00  4.2965372995569631e+00  4.1483807624902536e+00  4.0002242253113867e+00  3.8520676879993774e+00  3.7039111502849105e+00  3.5557546119981103e+00  3.4075980722628141e+00  3.2594415302225492e+00  3.1112849828135603e+00  2.9631284254031525e+00  2.8149718429517736e+00  2.6668152006823358e+00  2.5186583975280006e+00  2.3705011953701969e+00  2.2223430564262485e+00  2.0741830063218782e+00  1.9260196007579544e+00  1.7778515767599339e+00  1.6296791177349637e+00  1.4815048147985193e+00  1.3333315397298175e+00  1.1851610112773712e+00  1.0369961468010160e+00  8.8884230063272285e-01  7.4070439052549619e-01  5.9258724525428363e-01  4.4448818886785968e-01  2.9639019628620189e-01  1.4825058063937804e-01  5.6413562748310336e-06  1.1852218890463492e+01  1.1704426024756920e+01  1.1556232517239712e+01  1.1408091797304285e+01  1.1259921570189080e+01  1.1111768663070679e+01  1.0963609836048002e+01  1.0815453683182847e+01  1.0667296834945242e+01  1.0519140299175765e+01  1.0370983715999111e+01  1.0222827168517185e+01  1.0074670622633823e+01  9.9265140820416722e+00  9.7783575430014906e+00  9.6302010050382449e+00  9.4820444675493878e+00  9.3338879303141731e+00  9.1857313932026088e+00  9.0375748561525793e+00  8.8894183191333891e+00  8.7412617821290688e+00  8.5931052451323851e+00  8.4449487081393038e+00  8.2967921711480219e+00  8.1486356341576318e+00  8.0004790971676663e+00  7.8523225601779147e+00  7.7041660231882911e+00  7.5560094861987155e+00  7.4078529492091958e+00  7.2596964122197418e+00  7.1115398752302701e+00  6.9633833382407770e+00  6.8152268012512538e+00  6.6670702642617332e+00  6.5189137272722730e+00  6.3707571902827755e+00  6.2226006532933349e+00  6.0744441163038640e+00  5.9262875793145016e+00  5.7781310423250423e+00  5.6299745053356709e+00  5.4818179683460881e+00  5.3336614313564548e+00  5.1855048943665292e+00  5.0373483573759046e+00  4.8891918203846005e+00  4.7410352833900991e+00  4.5928787463928149e+00  4.4447222093830119e+00  4.2965656723601695e+00  4.1484091352907724e+00  4.0002525981612829e+00  3.8520960608606383e+00  3.7039395232998098e+00  3.5557829851076987e+00  3.4076264458546417e+00  3.2594699042923270e+00  3.1113133586307682e+00  2.9631568042773089e+00  2.8150002320367591e+00  2.6668436150117851e+00  2.5186868812006202e+00  2.3705298324476272e+00  2.2223720018305566e+00  2.0742124311154035e+00  1.9260495846826959e+00  1.7778818196472490e+00  1.6297089579464916e+00  1.4815336522677995e+00  1.3333594649812794e+00  1.1851876205496870e+00  1.0370205736626610e+00  8.8886405182438766e-01  7.4072425599873382e-01  5.9260774300684382e-01  4.4451793460813455e-01  2.9644493770646141e-01  1.4833928683858116e-01  -5.5669538991148127e-06  1.1852826387926775e+01  1.1704450705370361e+01  1.1556277945490127e+01  1.1408028691222748e+01  1.1259911997199499e+01  1.1111732989737845e+01  1.0963583299891496e+01  1.0815423810546525e+01  1.0667267904594656e+01  1.0519111054023144e+01  1.0370954540161849e+01  1.0222797965553710e+01  1.0074641422406572e+01  9.9264848789783997e+00  9.7783283395494465e+00  9.6301718011304018e+00  9.4820152634724195e+00  9.3338587261377430e+00  9.1857021889794943e+00  9.0375456519056403e+00  8.8893891148746196e+00  8.7412325778645386e+00  8.5930760408649220e+00  8.4449195038704126e+00  8.2967629668784486e+00  8.1486064298877015e+00  8.0004498928975813e+00  7.8522933559077321e+00  7.7041368189180792e+00  7.5559802819284831e+00  7.4078237449389590e+00  7.2596672079494864e+00  7.1115106709599916e+00  6.9633541339705101e+00  6.8151975969809842e+00  6.6670410599914911e+00  6.5188845230019998e+00  6.3707279860125503e+00  6.2225714490230528e+00  6.0744149120336584e+00  5.9262583750441973e+00  5.7781018380548597e+00  5.6299453010652973e+00  5.4817887640759100e+00  5.3336322270860217e+00  5.1854756900962702e+00  5.0373191531053507e+00  4.8891626161138797e+00  4.7410060791191704e+00  4.5928495421201694e+00  4.4446930051104747e+00  4.2965364680804550e+00  4.1483799310107150e+00  4.0002233938565643e+00  3.8520668565474434e+00  3.7039103189056419e+00  3.5557537806536748e+00  3.4075972411172262e+00  3.2594406991812601e+00  3.1112841521966548e+00  2.9631275950165237e+00  2.8149710142331679e+00  2.6668143771676149e+00  2.5186575961868019e+00  2.3705004605041951e+00  2.2223424994624459e+00  2.0741828334083521e+00  1.9260201274414921e+00  1.7778530552682672e+00  1.6296813731274788e+00  1.4815069295335768e+00  1.3333326162675265e+00  1.1851605701471535e+00  1.0369932562863238e+00  8.8883586129797465e-01  7.4069479363884472e-01  5.9257772493452232e-01  4.4449163199139263e-01  2.9644298175087480e-01  1.4851888567823956e-01  9.2612365213953698e-05  1.1850248426609056e+01  1.1705617313551191e+01  1.1555645672963761e+01  1.1408199222452758e+01  1.1259777482700049e+01  1.1111705593603508e+01  1.0963521437431131e+01  1.0815372229340660e+01  1.0667213368866145e+01  1.0519057299321492e+01  1.0370900569340186e+01  1.0222744043714970e+01  1.0074587485231504e+01  9.9264309439207761e+00  9.7782744031502133e+00  9.6301178646273655e+00  9.4819613267800271e+00  9.3338047893828300e+00  9.1856482521854304e+00  9.0374917150942000e+00  8.8893351780539156e+00  8.7411786410395180e+00  8.5930221040376349e+00  8.4448655670420720e+00  8.2967090300495503e+00  8.1485524930585580e+00  8.0003959560682905e+00  7.8522394190783933e+00  7.7040828820886977e+00  7.5559263450990999e+00  7.4077698081095615e+00  7.2596132711200827e+00  7.1114567341305799e+00  6.9633001971411010e+00  6.8151436601515769e+00  6.6669871231620839e+00  6.5188305861725926e+00  6.3706740491831457e+00  6.2225175121936473e+00  6.0743609752042609e+00  5.9262044382147954e+00  5.7780479012254409e+00  5.6298913642359221e+00  5.4817348272464361e+00  5.3335782902567459e+00  5.1854217532666596e+00  5.0372652162763476e+00  4.8891086792839307e+00  4.7409521422908831e+00  4.5927956052895400e+00  4.4446390682840367e+00  4.2964825312488779e+00  4.1483259941892259e+00  4.0001694570253816e+00  3.8520129197405462e+00  3.7038563820853057e+00  3.5556998438935659e+00  3.4075433043514032e+00  3.2593867625430235e+00  3.1112302154823479e+00  2.9630736581336863e+00  2.8149170759001119e+00  2.6667604356951564e+00  2.5186036492227570e+00  2.3704465154427541e+00  2.2222885958104817e+00  2.0741290964350205e+00  1.9259668184603569e+00  1.7778005316404568e+00  1.6296297892694278e+00  1.4814558417991477e+00  1.3332812146410713e+00  1.1851084997487153e+00  1.0369401851277673e+00  8.8878060789566982e-01  7.4063641031498928e-01  5.9251552796516438e-01  4.4442834417234894e-01  2.9639206909984533e-01  1.4845955917336839e-01  2.9419941826015644e-03  1.1779637917074346e+01  1.1630332572863729e+01  1.1482248555654500e+01  1.1334050979196038e+01  1.1185898485404151e+01  1.1037738793573551e+01  1.0889581805786609e+01  1.0741424967545743e+01  1.0593268276669408e+01  1.0445111676542595e+01  1.0296955102608893e+01  1.0148798548605733e+01  1.0000642002435091e+01  9.8524854609197980e+00  9.7043289216019009e+00  9.5561723834492156e+00  9.4080158458746066e+00  9.2598593085935885e+00  9.1117027714590737e+00  8.9635462343978691e+00  8.8153896973728560e+00  8.6672331603658197e+00  8.5190766233675532e+00  8.3709200863734523e+00  8.2227635493816535e+00  8.0746070123910219e+00  7.9264504754009142e+00  7.7782939384111387e+00  7.6301374014215657e+00  7.4819808644322077e+00  7.3338243274427768e+00  7.1856677904532544e+00  7.0375112534636441e+00  6.8893547164741742e+00  6.7411981794847424e+00  6.5930416424953027e+00  6.4448851055058523e+00  6.2967285685163610e+00  6.1485720315269736e+00  6.0004154945373989e+00  5.8522589575479582e+00  5.7041024205583968e+00  5.5559458835690361e+00  5.4077893465791487e+00  5.2596328095896361e+00  5.1114762725989626e+00  4.9633197356079100e+00  4.8151631986145000e+00  4.6670066616175818e+00  4.5188501246132908e+00  4.3706935875923705e+00  4.2225370505437647e+00  4.0743805134270197e+00  3.9262239761999282e+00  3.7780674387088946e+00  3.6299109007729751e+00  3.4817543618318463e+00  3.3335978211059665e+00  3.1854412764602200e+00  3.0372847241570935e+00  2.8891281539536720e+00  2.7409715424892216e+00  2.5928148264783455e+00  2.4446578567336363e+00  2.2965002927847284e+00  2.1483414822754563e+00  2.0001803590926008e+00  1.8520156674029331e+00  1.7038466246650203e+00  1.5556739456518831e+00  1.4074998015248368e+00  1.2593266589687662e+00  1.1111567740762223e+00  9.6299411270294899e-01  8.1484412517870819e-01  6.6671392959461750e-01  5.1861103069188930e-01  3.7054615791126871e-01  2.2254882012795280e-01  7.4932585345625094e-02  1.1778015314767748e+01  1.1630311943352194e+01  1.1482021863731260e+01  1.1333900342861726e+01  1.1185722648942939e+01  1.1037570307813359e+01  1.0889411692677607e+01  1.0741255359415200e+01  1.0593098613225930e+01  1.0444942053908674e+01  1.0296785485982904e+01  1.0148628938149219e+01  1.0000472394535681e+01  9.8523158544584497e+00  9.7041593158523920e+00  9.5560027780669312e+00  9.4078462406767098e+00  9.2596897034887959e+00  9.1115331664004593e+00  8.9633766293625268e+00  8.8152200923490