<?xml version="1.0"?>
<VTKFile type="UnstructuredGrid"  version="0.1"  >
<UnstructuredGrid>
<Piece  NumberOfPoints="1369" NumberOfCells="2560">
<Points>
<DataArray  type="Float64"  NumberOfComponents="3"  format="ascii">0 0 0  0.75 0 0  1.5 0 0  2.25 0 0  3 0 0  3.75 0 0  4.5 0 0  5.25 0 0  6 0 0  6.75 0 0  7.5 0 0  8.25 0 0  9 0 0  9.75 0 0  10.5 0 0  11.25 0 0  12 0 0  12.75 0 0  13.5 0 0  14.25 0 0  15 0 0  15.75 0 0  16.5 0 0  17.25 0 0  18 0 0  18.75 0 0  19.5 0 0  20.25 0 0  21 0 0  21.75 0 0  22.5 0 0  23.25 0 0  24 0 0  24.75 0 0  25.5 0 0  26.25 0 0  27 0 0  27.75 0 0  28.5 0 0  29.25 0 0  30 0 0  30.75 0 0  31.5 0 0  32.25 0 0  33 0 0  33.75 0 0  34.5 0 0  35.25 0 0  36 0 0  36.75 0 0  37.5 0 0  38.25 0 0  39 0 0  39.75 0 0  40.5 0 0  41.25 0 0  42 0 0  42.75 0 0  43.5 0 0  44.25 0 0  45 0 0  45.75 0 0  46.5 0 0  47.25 0 0  48 0 0  48.75 0 0  49.5 0 0  50.25 0 0  51 0 0  51.75 0 0  52.5 0 0  53.25 0 0  54 0 0  54.75 0 0  55.5 0 0  56.25 0 0  57 0 0  57.75 0 0  58.5 0 0  59.25 0 0  60 0 0  0 0.5 0  0.75 0.5 0  1.5 0.5 0  2.25 0.5 0  3 0.5 0  3.75 0.5 0  4.5 0.5 0  5.25 0.5 0  6 0.5 0  6.75 0.5 0  7.5 0.5 0  8.25 0.5 0  9 0.5 0  9.75 0.5 0  10.5 0.5 0  11.25 0.5 0  12 0.5 0  12.75 0.5 0  13.5 0.5 0  14.25 0.5 0  15 0.5 0  15.75 0.5 0  16.5 0.5 0  17.25 0.5 0  18 0.5 0  18.75 0.5 0  19.5 0.5 0  20.25 0.5 0  21 0.5 0  21.75 0.5 0  22.5 0.5 0  23.25 0.5 0  24 0.5 0  24.75 0.5 0  25.5 0.5 0  26.25 0.5 0  27 0.5 0  27.75 0.5 0  28.5 0.5 0  29.25 0.5 0  30 0.5 0  30.75 0.5 0  31.5 0.5 0  32.25 0.5 0  33 0.5 0  33.75 0.5 0  34.5 0.5 0  35.25 0.5 0  36 0.5 0  36.75 0.5 0  37.5 0.5 0  38.25 0.5 0  39 0.5 0  39.75 0.5 0  40.5 0.5 0  41.25 0.5 0  42 0.5 0  42.75 0.5 0  43.5 0.5 0  44.25 0.5 0  45 0.5 0  45.75 0.5 0  46.5 0.5 0  47.25 0.5 0  48 0.5 0  48.75 0.5 0  49.5 0.5 0  50.25 0.5 0  51 0.5 0  51.75 0.5 0  52.5 0.5 0  53.25 0.5 0  54 0.5 0  54.75 0.5 0  55.5 0.5 0  56.25 0.5 0  57 0.5 0  57.75 0.5 0  58.5 0.5 0  59.25 0.5 0  60 0.5 0  0 1 0  0.75 1 0  1.5 1 0  2.25 1 0  3 1 0  3.75 1 0  4.5 1 0  5.25 1 0  6 1 0  6.75 1 0  7.5 1 0  8.25 1 0  9 1 0  9.75 1 0  10.5 1 0  11.25 1 0  12 1 0  12.75 1 0  13.5 1 0  14.25 1 0  15 1 0  15.75 1 0  16.5 1 0  17.25 1 0  18 1 0  18.75 1 0  19.5 1 0  20.25 1 0  21 1 0  21.75 1 0  22.5 1 0  23.25 1 0  24 1 0  24.75 1 0  25.5 1 0  26.25 1 0  27 1 0  27.75 1 0  28.5 1 0  29.25 1 0  30 1 0  30.75 1 0  31.5 1 0  32.25 1 0  33 1 0  33.75 1 0  34.5 1 0  35.25 1 0  36 1 0  36.75 1 0  37.5 1 0  38.25 1 0  39 1 0  39.75 1 0  40.5 1 0  41.25 1 0  42 1 0  42.75 1 0  43.5 1 0  44.25 1 0  45 1 0  45.75 1 0  46.5 1 0  47.25 1 0  48 1 0  48.75 1 0  49.5 1 0  50.25 1 0  51 1 0  51.75 1 0  52.5 1 0  53.25 1 0  54 1 0  54.75 1 0  55.5 1 0  56.25 1 0  57 1 0  57.75 1 0  58.5 1 0  59.25 1 0  60 1 0  0 1.5 0  0.75 1.5 0  1.5 1.5 0  2.25 1.5 0  3 1.5 0  3.75 1.5 0  4.5 1.5 0  5.25 1.5 0  6 1.5 0  6.75 1.5 0  7.5 1.5 0  8.25 1.5 0  9 1.5 0  9.75 1.5 0  10.5 1.5 0  11.25 1.5 0  12 1.5 0  12.75 1.5 0  13.5 1.5 0  14.25 1.5 0  15 1.5 0  15.75 1.5 0  16.5 1.5 0  17.25 1.5 0  18 1.5 0  18.75 1.5 0  19.5 1.5 0  20.25 1.5 0  21 1.5 0  21.75 1.5 0  22.5 1.5 0  23.25 1.5 0  24 1.5 0  24.75 1.5 0  25.5 1.5 0  26.25 1.5 0  27 1.5 0  27.75 1.5 0  28.5 1.5 0  29.25 1.5 0  30 1.5 0  30.75 1.5 0  31.5 1.5 0  32.25 1.5 0  33 1.5 0  33.75 1.5 0  34.5 1.5 0  35.25 1.5 0  36 1.5 0  36.75 1.5 0  37.5 1.5 0  38.25 1.5 0  39 1.5 0  39.75 1.5 0  40.5 1.5 0  41.25 1.5 0  42 1.5 0  42.75 1.5 0  43.5 1.5 0  44.25 1.5 0  45 1.5 0  45.75 1.5 0  46.5 1.5 0  47.25 1.5 0  48 1.5 0  48.75 1.5 0  49.5 1.5 0  50.25 1.5 0  51 1.5 0  51.75 1.5 0  52.5 1.5 0  53.25 1.5 0  54 1.5 0  54.75 1.5 0  55.5 1.5 0  56.25 1.5 0  57 1.5 0  57.75 1.5 0  58.5 1.5 0  59.25 1.5 0  60 1.5 0  0 2 0  0.75 2 0  1.5 2 0  2.25 2 0  3 2 0  3.75 2 0  4.5 2 0  5.25 2 0  6 2 0  6.75 2 0  7.5 2 0  8.25 2 0  9 2 0  9.75 2 0  10.5 2 0  11.25 2 0  12 2 0  12.75 2 0  13.5 2 0  14.25 2 0  15 2 0  15.75 2 0  16.5 2 0  17.25 2 0  18 2 0  18.75 2 0  19.5 2 0  20.25 2 0  21 2 0  21.75 2 0  22.5 2 0  23.25 2 0  24 2 0  24.75 2 0  25.5 2 0  26.25 2 0  27 2 0  27.75 2 0  28.5 2 0  29.25 2 0  30 2 0  30.75 2 0  31.5 2 0  32.25 2 0  33 2 0  33.75 2 0  34.5 2 0  35.25 2 0  36 2 0  36.75 2 0  37.5 2 0  38.25 2 0  39 2 0  39.75 2 0  40.5 2 0  41.25 2 0  42 2 0  42.75 2 0  43.5 2 0  44.25 2 0  45 2 0  45.75 2 0  46.5 2 0  47.25 2 0  48 2 0  48.75 2 0  49.5 2 0  50.25 2 0  51 2 0  51.75 2 0  52.5 2 0  53.25 2 0  54 2 0  54.75 2 0  55.5 2 0  56.25 2 0  57 2 0  57.75 2 0  58.5 2 0  59.25 2 0  60 2 0  0 2.5 0  0.75 2.5 0  1.5 2.5 0  2.25 2.5 0  3 2.5 0  3.75 2.5 0  4.5 2.5 0  5.25 2.5 0  6 2.5 0  6.75 2.5 0  7.5 2.5 0  8.25 2.5 0  9 2.5 0  9.75 2.5 0  10.5 2.5 0  11.25 2.5 0  12 2.5 0  12.75 2.5 0  13.5 2.5 0  14.25 2.5 0  15 2.5 0  15.75 2.5 0  16.5 2.5 0  17.25 2.5 0  18 2.5 0  18.75 2.5 0  19.5 2.5 0  20.25 2.5 0  21 2.5 0  21.75 2.5 0  22.5 2.5 0  23.25 2.5 0  24 2.5 0  24.75 2.5 0  25.5 2.5 0  26.25 2.5 0  27 2.5 0  27.75 2.5 0  28.5 2.5 0  29.25 2.5 0  30 2.5 0  30.75 2.5 0  31.5 2.5 0  32.25 2.5 0  33 2.5 0  33.75 2.5 0  34.5 2.5 0  35.25 2.5 0  36 2.5 0  36.75 2.5 0  37.5 2.5 0  38.25 2.5 0  39 2.5 0  39.75 2.5 0  40.5 2.5 0  41.25 2.5 0  42 2.5 0  42.75 2.5 0  43.5 2.5 0  44.25 2.5 0  45 2.5 0  45.75 2.5 0  46.5 2.5 0  47.25 2.5 0  48 2.5 0  48.75 2.5 0  49.5 2.5 0  50.25 2.5 0  51 2.5 0  51.75 2.5 0  52.5 2.5 0  53.25 2.5 0  54 2.5 0  54.75 2.5 0  55.5 2.5 0  56.25 2.5 0  57 2.5 0  57.75 2.5 0  58.5 2.5 0  59.25 2.5 0  60 2.5 0  0 3 0  0.75 3 0  1.5 3 0  2.25 3 0  3 3 0  3.75 3 0  4.5 3 0  5.25 3 0  6 3 0  6.75 3 0  7.5 3 0  8.25 3 0  9 3 0  9.75 3 0  10.5 3 0  11.25 3 0  12 3 0  12.75 3 0  13.5 3 0  14.25 3 0  15 3 0  15.75 3 0  16.5 3 0  17.25 3 0  18 3 0  18.75 3 0  19.5 3 0  20.25 3 0  21 3 0  21.75 3 0  22.5 3 0  23.25 3 0  24 3 0  24.75 3 0  25.5 3 0  26.25 3 0  27 3 0  27.75 3 0  28.5 3 0  29.25 3 0  30 3 0  30.75 3 0  31.5 3 0  32.25 3 0  33 3 0  33.75 3 0  34.5 3 0  35.25 3 0  36 3 0  36.75 3 0  37.5 3 0  38.25 3 0  39 3 0  39.75 3 0  40.5 3 0  41.25 3 0  42 3 0  42.75 3 0  43.5 3 0  44.25 3 0  45 3 0  45.75 3 0  46.5 3 0  47.25 3 0  48 3 0  48.75 3 0  49.5 3 0  50.25 3 0  51 3 0  51.75 3 0  52.5 3 0  53.25 3 0  54 3 0  54.75 3 0  55.5 3 0  56.25 3 0  57 3 0  57.75 3 0  58.5 3 0  59.25 3 0  60 3 0  0 3.5 0  0.75 3.5 0  1.5 3.5 0  2.25 3.5 0  3 3.5 0  3.75 3.5 0  4.5 3.5 0  5.25 3.5 0  6 3.5 0  6.75 3.5 0  7.5 3.5 0  8.25 3.5 0  9 3.5 0  9.75 3.5 0  10.5 3.5 0  11.25 3.5 0  12 3.5 0  12.75 3.5 0  13.5 3.5 0  14.25 3.5 0  15 3.5 0  15.75 3.5 0  16.5 3.5 0  17.25 3.5 0  18 3.5 0  18.75 3.5 0  19.5 3.5 0  20.25 3.5 0  21 3.5 0  21.75 3.5 0  22.5 3.5 0  23.25 3.5 0  24 3.5 0  24.75 3.5 0  25.5 3.5 0  26.25 3.5 0  27 3.5 0  27.75 3.5 0  28.5 3.5 0  29.25 3.5 0  30 3.5 0  30.75 3.5 0  31.5 3.5 0  32.25 3.5 0  33 3.5 0  33.75 3.5 0  34.5 3.5 0  35.25 3.5 0  36 3.5 0  36.75 3.5 0  37.5 3.5 0  38.25 3.5 0  39 3.5 0  39.75 3.5 0  40.5 3.5 0  41.25 3.5 0  42 3.5 0  42.75 3.5 0  43.5 3.5 0  44.25 3.5 0  45 3.5 0  45.75 3.5 0  46.5 3.5 0  47.25 3.5 0  48 3.5 0  48.75 3.5 0  49.5 3.5 0  50.25 3.5 0  51 3.5 0  51.75 3.5 0  52.5 3.5 0  53.25 3.5 0  54 3.5 0  54.75 3.5 0  55.5 3.5 0  56.25 3.5 0  57 3.5 0  57.75 3.5 0  58.5 3.5 0  59.25 3.5 0  60 3.5 0  0 4 0  0.75 4 0  1.5 4 0  2.25 4 0  3 4 0  3.75 4 0  4.5 4 0  5.25 4 0  6 4 0  6.75 4 0  7.5 4 0  8.25 4 0  9 4 0  9.75 4 0  10.5 4 0  11.25 4 0  12 4 0  12.75 4 0  13.5 4 0  14.25 4 0  15 4 0  15.75 4 0  16.5 4 0  17.25 4 0  18 4 0  18.75 4 0  19.5 4 0  20.25 4 0  21 4 0  21.75 4 0  22.5 4 0  23.25 4 0  24 4 0  24.75 4 0  25.5 4 0  26.25 4 0  27 4 0  27.75 4 0  28.5 4 0  29.25 4 0  30 4 0  30.75 4 0  31.5 4 0  32.25 4 0  33 4 0  33.75 4 0  34.5 4 0  35.25 4 0  36 4 0  36.75 4 0  37.5 4 0  38.25 4 0  39 4 0  39.75 4 0  40.5 4 0  41.25 4 0  42 4 0  42.75 4 0  43.5 4 0  44.25 4 0  45 4 0  45.75 4 0  46.5 4 0  47.25 4 0  48 4 0  48.75 4 0  49.5 4 0  50.25 4 0  51 4 0  51.75 4 0  52.5 4 0  53.25 4 0  54 4 0  54.75 4 0  55.5 4 0  56.25 4 0  57 4 0  57.75 4 0  58.5 4 0  59.25 4 0  60 4 0  0.375 0.25 0  1.125 0.25 0  1.875 0.25 0  2.625 0.25 0  3.375 0.25 0  4.125 0.25 0  4.875 0.25 0  5.625 0.25 0  6.375 0.25 0  7.125 0.25 0  7.875 0.25 0  8.625 0.25 0  9.375 0.25 0  10.125 0.25 0  10.875 0.25 0  11.625 0.25 0  12.375 0.25 0  13.125 0.25 0  13.875 0.25 0  14.625 0.25 0  15.375 0.25 0  16.125 0.25 0  16.875 0.25 0  17.625 0.25 0  18.375 0.25 0  19.125 0.25 0  19.875 0.25 0  20.625 0.25 0  21.375 0.25 0  22.125 0.25 0  22.875 0.25 0  23.625 0.25 0  24.375 0.25 0  25.125 0.25 0  25.875 0.25 0  26.625 0.25 0  27.375 0.25 0  28.125 0.25 0  28.875 0.25 0  29.625 0.25 0  30.375 0.25 0  31.125 0.25 0  31.875 0.25 0  32.625 0.25 0  33.375 0.25 0  34.125 0.25 0  34.875 0.25 0  35.625 0.25 0  36.375 0.25 0  37.125 0.25 0  37.875 0.25 0  38.625 0.25 0  39.375 0.25 0  40.125 0.25 0  40.875 0.25 0  41.625 0.25 0  42.375 0.25 0  43.125 0.25 0  43.875 0.25 0  44.625 0.25 0  45.375 0.25 0  46.125 0.25 0  46.875 0.25 0  47.625 0.25 0  48.375 0.25 0  49.125 0.25 0  49.875 0.25 0  50.625 0.25 0  51.375 0.25 0  52.125 0.25 0  52.875 0.25 0  53.625 0.25 0  54.375 0.25 0  55.125 0.25 0  55.875 0.25 0  56.625 0.25 0  57.375 0.25 0  58.125 0.25 0  58.875 0.25 0  59.625 0.25 0  0.375 0.75 0  1.125 0.75 0  1.875 0.75 0  2.625 0.75 0  3.375 0.75 0  4.125 0.75 0  4.875 0.75 0  5.625 0.75 0  6.375 0.75 0  7.125 0.75 0  7.875 0.75 0  8.625 0.75 0  9.375 0.75 0  10.125 0.75 0  10.875 0.75 0  11.625 0.75 0  12.375 0.75 0  13.125 0.75 0  13.875 0.75 0  14.625 0.75 0  15.375 0.75 0  16.125 0.75 0  16.875 0.75 0  17.625 0.75 0  18.375 0.75 0  19.125 0.75 0  19.875 0.75 0  20.625 0.75 0  21.375 0.75 0  22.125 0.75 0  22.875 0.75 0  23.625 0.75 0  24.375 0.75 0  25.125 0.75 0  25.875 0.75 0  26.625 0.75 0  27.375 0.75 0  28.125 0.75 0  28.875 0.75 0  29.625 0.75 0  30.375 0.75 0  31.125 0.75 0  31.875 0.75 0  32.625 0.75 0  33.375 0.75 0  34.125 0.75 0  34.875 0.75 0  35.625 0.75 0  36.375 0.75 0  37.125 0.75 0  37.875 0.75 0  38.625 0.75 0  39.375 0.75 0  40.125 0.75 0  40
[...]
<PointData  Scalars="f_8-1"> 
<DataArray  type="Float64"  Name="f_8-1"  format="ascii">-1.1849939076554394e+01  -1.1703609312447838e+01  -1.1555136764557213e+01  -1.1407478559916742e+01  -1.1259735808070655e+01  -1.1111872917080371e+01  -1.0963834804304883e+01  -1.0815665357955032e+01  -1.0667415030212730e+01  -1.0519132414061193e+01  -1.0370847734481780e+01  -1.0222580746857144e+01  -1.0074331527018041e+01  -9.9261009462679013e+00  -9.7778872455669319e+00  -9.6296858455072964e+00  -9.4814885291697628e+00  -9.3332921393090071e+00  -9.1850972699419611e+00  -9.0369054628798509e+00  -8.8887156476476825e+00  -8.7405259603515741e+00  -8.5923361050471208e+00  -8.4441490709598011e+00  -8.2959700572524682e+00  -8.1478043860281435e+00  -7.9996554024551703e+00  -7.8515235978806848e+00  -7.7034068185132680e+00  -7.5553012162169928e+00  -7.4072023386488457e+00  -7.2591060123427136e+00  -7.1110088719231994e+00  -6.9629085475676824e+00  -6.8148036259597191e+00  -6.6666934750078628e+00  -6.5185780369223529e+00  -6.3704576237534081e+00  -6.2223327578242076e+00  -6.0742040489174460e+00  -5.9260721177529208e+00  -5.7779375462010272e+00  -5.6298008546367821e+00  -5.4816624908048563e+00  -5.3335228310686729e+00  -5.1853821846794093e+00  -5.0372408026578785e+00  -4.8890988857484681e+00  -4.7409565930506989e+00  -4.5928140484348674e+00  -4.4446713465442880e+00  -4.2965285572148231e+00  -4.1483857298433335e+00  -4.0002428970546315e+00  -3.8521000784816781e+00  -3.7039572840338080e+00  -3.5558145169738391e+00  -3.4076717763356390e+00  -3.2595290588953385e+00  -3.1113863604920766e+00  -2.9632436769336299e+00  -2.8151010044588176e+00  -2.6669583399673993e+00  -2.5188156810381810e+00  -2.3706730258741389e+00  -2.2225303731815864e+00  -2.0743877220493627e+00  -1.9262450718038640e+00  -1.7781024218260053e+00  -1.6299597711749287e+00  -1.4818171177099608e+00  -1.3336744550704567e+00  -1.1855317676952479e+00  -1.0373889889276899e+00  -8.8924606823840302e-01  -7.4110186843572390e-01  -5.9295956241265679e-01  -4.4478749308750415e-01  -2.9673663294003033e-01  -1.4794209539081857e-01  -2.7438075687576322e-03  -1.1852553151156544e+01  -1.1703480250725761e+01  -1.1555256294510029e+01  -1.1407500935548383e+01  -1.1259775627747747e+01  -1.1111910090294877e+01  -1.0963890777718140e+01  -1.0815717867254332e+01  -1.0667476451447465e+01  -1.0519188294989620e+01  -1.0370905227772425e+01  -1.0222634684086669e+01  -1.0074387008231025e+01  -9.9261527358128667e+00  -9.7779395827502782e+00  -9.6297377099620167e+00  -9.4815415711177504e+00  -9.3333442511426910e+00  -9.1851492043875194e+00  -9.0369570591414501e+00  -8.8887679449993460e+00  -8.7405785353367023e+00  -8.5923885777561519e+00  -8.4442004293117972e+00  -8.2960198553394182e+00  -8.1478523754775232e+00  -7.9997018866012199e+00  -7.8515689816068841e+00  -7.7034516338282124e+00  -7.5553458653625567e+00  -7.4072471403301048e+00  -7.2591511339947647e+00  -7.1110543992421311e+00  -6.9629544858852519e+00  -6.8148499480794049e+00  -6.6667401296580042e+00  -6.5186249701193288e+00  -6.3705047822944820e+00  -6.2223800952964616e+00  -6.0742515259883056e+00  -5.9261197020388314e+00  -5.7779852119590549e+00  -5.6298485811255308e+00  -5.4817102621540563e+00  -5.3335706345290257e+00  -5.1854300106339037e+00  -5.0372886432606379e+00  -4.8891467351515390e+00  -4.7410044465722994e+00  -4.5928619028705011e+00  -4.4447191996176496e+00  -4.2965764077426742e+00  -4.1484335772640533e+00  -4.0002907414334299e+00  -3.8521479201277584e+00  -3.7040051234724811e+00  -3.5558623547074397e+00  -3.4077196128582776e+00  -3.2595768945823123e+00  -3.1114341956501179e+00  -2.9632915117623195e+00  -2.8151488391047832e+00  -2.6670061745120521e+00  -2.5188635155382073e+00  -2.3707208603553185e+00  -2.2225782076649985e+00  -2.0744355565501875e+00  -1.9262929063588461e+00  -1.7781502565291216e+00  -1.6300076063121522e+00  -1.4818649540475577e+00  -1.3337222953362462e+00  -1.1855796163240728e+00  -1.0374368837487782e+00  -8.8929394690407837e-01  -7.4115072013001715e-01  -5.9300458088871943e-01  -4.4486314419973827e-01  -2.9665513492801765e-01  -1.4873342389371760e-01  6.6857346577352261e-04  -1.1852194043087433e+01  -1.1703852777302279e+01  -1.1555424399653672e+01  -1.1407653100267551e+01  -1.1259822047263222e+01  -1.1111972913351449e+01  -1.0963919688220694e+01  -1.0815774716578662e+01  -1.0667516755569617e+01  -1.0519251956514371e+01  -1.0370955017321158e+01  -1.0222697450197250e+01  -1.0074443216426332e+01  -9.9262140924311630e+00  -9.7779947890851435e+00  -9.6297972171454322e+00  -9.4815992277454395e+00  -9.3334034197667890e+00  -9.1852056159183046e+00  -9.0370138468231680e+00  -8.8888242538966313e+00  -8.7406361736070526e+00  -8.5924460860838199e+00  -8.4442576240695892e+00  -8.2960754183215872e+00  -8.1479063688680178e+00  -7.9997541950745665e+00  -7.8516202593688353e+00  -7.7035022758067813e+00  -7.5553964314707782e+00  -7.4072978775180927e+00  -7.2592022634048901e+00  -7.1111059456669068e+00  -6.9630064584962321e+00  -6.8149022788746922e+00  -6.6667927631515793e+00  -6.5186778345019958e+00  -6.3705578250662969e+00  -6.2224332676615095e+00  -6.0743047934809882e+00  -5.9261730367213614e+00  -5.7780385938524637e+00  -5.6299019954394112e+00  -5.4817636979707416e+00  -5.3336240844316114e+00  -5.1854834687015643e+00  -5.0373421056465126e+00  -4.8892001983803075e+00  -4.7410579085381119e+00  -4.5929153616678740e+00  -4.4447726544737796e+00  -4.2966298581281688e+00  -4.1484870234777693e+00  -4.0003441838647671e+00  -3.8522013595700502e+00  -3.7040585605876184e+00  -3.5559157902397742e+00  -3.4077730473193744e+00  -3.2596303284390067e+00  -3.1114876291649685e+00  -2.9633449451510852e+00  -2.8152022724547008e+00  -2.6670596078952977e+00  -2.5189169489614369e+00  -2.3707742938313494e+00  -2.2226316411754725e+00  -2.0744889900844208e+00  -1.9263463398781151e+00  -1.7782036899646221e+00  -1.6300610394730526e+00  -1.4819183864687360e+00  -1.3337757256314899e+00  -1.1856330419935952e+00  -1.0374902912685662e+00  -8.8934735370170770e-01  -7.4120383368383591e-01  -5.9305892446125386e-01  -4.4490841094016020e-01  -2.9675139761722991e-01  -1.4853383563850223e-01  -9.6305962012655243e-06  -1.1852316463599667e+01  -1.1703803028141753e+01  -1.1555686168569705e+01  -1.1407619975737260e+01  -1.1259858169804815e+01  -1.1111867018895502e+01  -1.0963897134774223e+01  -1.0815703457927871e+01  -1.0667513553780722e+01  -1.0519223809071438e+01  -1.0370967768620606e+01  -1.0222689218747393e+01  -1.0074454456034363e+01  -9.9262128141783581e+00  -9.7780016160633885e+00  -9.6297940037554035e+00  -9.4816005976413145e+00  -9.3334009504616269e+00  -9.1852060997266189e+00  -9.0370112109227225e+00  -8.8888224235865305e+00  -8.7406332539621587e+00  -8.5924452792869275e+00  -8.4442578786465212e+00  -8.2960775064752852e+00  -8.1479085640963227e+00  -7.9997560861984107e+00  -7.8516206623727864e+00  -7.7035011519726480e+00  -7.5553935756910731e+00  -7.4072937185392922e+00  -7.2591970655792908e+00  -7.1111001755510754e+00  -6.9630003860857155e+00  -6.8148961896925506e+00  -6.6667867919405097e+00  -6.5186720937015057e+00  -6.3705523427775184e+00  -6.2224280585163871e+00  -6.0742998362505745e+00  -5.9261683083187400e+00  -5.7780340607474665e+00  -5.6298976274391626e+00  -5.4817594650163670e+00  -5.3336199608630892e+00  -5.1854794323340743e+00  -5.0373381378540669e+00  -4.8891962840442176e+00  -4.7410540347263277e+00  -4.5929115181025235e+00  -4.4447688322264911e+00  -4.2966260503588352e+00  -4.1484832244531766e+00  -4.0003403895872500e+00  -3.8521975669831217e+00  -3.7040547679183100e+00  -3.5559119963328452e+00  -3.4077692517764806e+00  -3.2596265311222474e+00  -3.1114838302710339e+00  -2.9633411448975568e+00  -2.8151984711556510e+00  -2.6670558057881801e+00  -2.5189131462868515e+00  -2.3707704907411724e+00  -2.2226278377970754e+00  -2.0744851864524532e+00  -1.9263425359312278e+00  -1.7781998853524272e+00  -1.6300572331280856e+00  -1.4819145752541467e+00  -1.3337719006268305e+00  -1.1856291776797527e+00  -1.0374863164556887e+00  -8.8934306007832442e-01  -7.4119868151274337e-01  -5.9305109959957325e-01  -4.4489449534417252e-01  -2.9671201035680539e-01  -1.4844817725311765e-01  -4.3427631312370146e-06  -1.1852204514125082e+01  -1.1703934295368153e+01  -1.1555615849888797e+01  -1.1407743476056488e+01  -1.1259744888221961e+01  -1.1111911178872489e+01  -1.0963804753287313e+01  -1.0815722545860780e+01  -1.0667461700268632e+01  -1.0519236406411078e+01  -1.0370941594313054e+01  -1.0222696676408273e+01  -1.0074437381478850e+01  -9.9262141324098963e+00  -9.7779893033645155e+00  -9.6297899445871167e+00  -9.4815881906536941e+00  -9.3333940687004322e+00  -9.1851957012606835e+00  -9.0370037729577462e+00  -8.8888123741483103e+00  -8.7406245948617194e+00  -8.5924358450899003e+00  -8.4442502970982893e+00  -8.2960703737610899e+00  -8.1479026553677922e+00  -7.9997499944139729e+00  -7.8516144161715662e+00  -7.7034939287146758e+00  -7.5553855446660396e+00  -7.4072846959555374e+00  -7.2591873873541193e+00  -7.1110899356740456e+00  -6.9629898790175693e+00  -6.8148855247280666e+00  -6.6667761382358979e+00  -6.5186615012581735e+00  -6.3705418785101848e+00  -6.2224177260054807e+00  -6.0742896473430132e+00  -5.9261582468021139e+00  -5.7780241172061588e+00  -5.6298877823307301e+00  -5.4817497042579513e+00  -5.3336102681450317e+00  -5.1854697953017945e+00  -5.0373285448974103e+00  -4.8891867260122259e+00  -4.7410445038287978e+00  -4.5929020078143541e+00  -4.4447593372558991e+00  -4.2966165661006492e+00  -4.1484737474010789e+00  -4.0003309167756065e+00  -3.8521880964049933e+00  -3.7040452980177752e+00  -3.5559025262623445e+00  -3.4077597809693079e+00  -3.2596170594244538e+00  -3.1114743576291217e+00  -2.9633316714412423e+00  -2.8151889970006119e+00  -2.6670463311078607e+00  -2.5189036711987258e+00  -2.3707610153712211e+00  -2.2226183622114908e+00  -2.0744757107014298e+00  -1.9263330599781419e+00  -1.7781904090252680e+00  -1.6300477558367155e+00  -1.4819050952853086e+00  -1.3337624130414054e+00  -1.1856196683980857e+00  -1.0374767453299076e+00  -8.8933331358963541e-01  -7.4118843527080824e-01  -5.9303944513407358e-01  -4.4487880058763624e-01  -2.9668479954963367e-01  -1.4840670072745921e-01  -1.4301003217491065e-05  -1.1852316463599953e+01  -1.1703803028141660e+01  -1.1555686168569993e+01  -1.1407619975736997e+01  -1.1259858169804701e+01  -1.1111867018895024e+01  -1.0963897134773966e+01  -1.0815703457927521e+01  -1.0667513553780649e+01  -1.0519223809071166e+01  -1.0370967768620559e+01  -1.0222689218747350e+01  -1.0074454456034072e+01  -9.9262128141781236e+00  -9.7780016160633636e+00  -9.6297940037552170e+00  -9.4816005976408757e+00  -9.3334009504612432e+00  -9.1852060997265710e+00  -9.0370112109229073e+00  -8.8888224235866478e+00  -8.7406332539620362e+00  -8.5924452792867321e+00  -8.4442578786465781e+00  -8.2960775064758252e+00  -8.1479085640973317e+00  -7.9997560861996284e+00  -7.8516206623739064e+00  -7.7035011519734242e+00  -7.5553935756914061e+00  -7.4072937185392522e+00  -7.2591970655790341e+00  -7.1111001755507566e+00  -6.9630003860854464e+00  -6.8148961896923881e+00  -6.6667867919404475e+00  -6.5186720937015128e+00  -6.3705523427775486e+00  -6.2224280585164253e+00  -6.0742998362506038e+00  -5.9261683083187595e+00  -5.7780340607474736e+00  -5.6298976274391634e+00  -5.4817594650163670e+00  -5.3336199608630901e+00  -5.1854794323340618e+00  -5.0373381378540669e+00  -4.8891962840442247e+00  -4.7410540347263259e+00  -4.5929115181025280e+00  -4.4447688322264929e+00  -4.2966260503588414e+00  -4.1484832244531811e+00  -4.0003403895872509e+00  -3.8521975669831243e+00  -3.7040547679183153e+00  -3.5559119963328500e+00  -3.4077692517764855e+00  -3.2596265311222488e+00  -3.1114838302710366e+00  -2.9633411448975573e+00  -2.8151984711556493e+00  -2.6670558057881775e+00  -2.5189131462868515e+00  -2.3707704907411666e+00  -2.2226278377970758e+00  -2.0744851864524523e+00  -1.9263425359312270e+00  -1.7781998853524261e+00  -1.6300572331280876e+00  -1.4819145752541552e+00  -1.3337719006268296e+00  -1.1856291776797458e+00  -1.0374863164556887e+00  -8.8934306007832653e-01  -7.4119868151274360e-01  -5.9305109959954450e-01  -4.4489449534416547e-01  -2.9671201035680389e-01  -1.4844817725311671e-01  -4.3427631289215780e-06  -1.1852194043087179e+01  -1.1703852777302812e+01  -1.1555424399653644e+01  -1.1407653100267515e+01  -1.1259822047262583e+01  -1.1111972913350868e+01  -1.0963919688219949e+01  -1.0815774716578202e+01  -1.0667516755569306e+01  -1.0519251956514010e+01  -1.0370955017321061e+01  -1.0222697450197098e+01  -1.0074443216425864e+01  -9.9262140924308699e+00  -9.7779947890850316e+00  -9.6297972171450521e+00  -9.4815992277447485e+00  -9.3334034197662881e+00  -9.1852056159182762e+00  -9.0370138468234131e+00  -8.8888242538967468e+00  -8.7406361736068803e+00  -8.5924460860836884e+00  -8.4442576240699712e+00  -8.2960754183227259e+00  -8.1479063688698137e+00  -7.9997541950765818e+00  -7.8516202593705495e+00  -7.7035022758079084e+00  -7.5553964314711859e+00  -7.4072978775179470e+00  -7.2592022634044255e+00  -7.1111059456663810e+00  -6.9630064584958093e+00  -6.8149022788744613e+00  -6.6667927631515127e+00  -6.5186778345020064e+00  -6.3705578250663590e+00  -6.2224332676615779e+00  -6.0743047934810290e+00  -5.9261730367213881e+00  -5.7780385938524725e+00  -5.6299019954394227e+00  -5.4817636979707416e+00  -5.3336240844316123e+00  -5.1854834687015492e+00  -5.0373421056465144e+00  -4.8892001983803137e+00  -4.7410579085381146e+00  -4.5929153616678731e+00  -4.4447726544737858e+00  -4.2966298581281794e+00  -4.1484870234777755e+00  -4.0003441838647653e+00  -3.8522013595700551e+00  -3.7040585605876215e+00  -3.5559157902397782e+00  -3.4077730473193788e+00  -3.2596303284390156e+00  -3.1114876291649698e+00  -2.9633449451510825e+00  -2.8152022724546981e+00  -2.6670596078952964e+00  -2.5189169489614347e+00  -2.3707742938313472e+00  -2.2226316411754712e+00  -2.0744889900844181e+00  -1.9263463398781098e+00  -1.7782036899646187e+00  -1.6300610394730570e+00  -1.4819183864687404e+00  -1.3337757256314917e+00  -1.1856330419935917e+00  -1.0374902912685637e+00  -8.8934735370171181e-01  -7.4120383368384157e-01  -5.9305892446125097e-01  -4.4490841094015782e-01  -2.9675139761722463e-01  -1.4853383563849712e-01  -9.6305962033888259e-06  -1.1852553151156616e+01  -1.1703480250726125e+01  -1.1555256294510396e+01  -1.1407500935548109e+01  -1.1259775627747139e+01  -1.1111910090294028e+01  -1.0963890777717319e+01  -1.0815717867253726e+01  -1.0667476451447030e+01  -1.0519188294989258e+01  -1.0370905227772274e+01  -1.0222634684086408e+01  -1.0074387008230616e+01  -9.9261527358125843e+00  -9.7779395827500402e+00  -9.6297377099615957e+00  -9.4815415711171660e+00  -9.3333442511423073e+00  -9.1851492043875247e+00  -9.0369570591416668e+00  -8.8887679449995129e+00  -8.7405785353366916e+00  -8.5923885777563154e+00  -8.4442004293125148e+00  -8.2960198553408286e+00  -8.1478523754795127e+00  -7.9997018866033311e+00  -7.8515689816086134e+00  -7.7034516338292951e+00  -7.5553458653629262e+00  -7.4072471403299271e+00  -7.2591511339942878e+00  -7.1110543992415813e+00  -6.9629544858848282e+00  -6.8148499480791722e+00  -6.6667401296579465e+00  -6.5186249701193280e+00  -6.3705047822945451e+00  -6.2223800952965327e+00  -6.0742515259883394e+00  -5.9261197020388625e+00  -5.7779852119590638e+00  -5.6298485811255521e+00  -5.4817102621540634e+00  -5.3335706345290328e+00  -5.1854300106338984e+00  -5.0372886432606521e+00  -4.8891467351515514e+00  -4.7410044465723011e+00  -4.5928619028704984e+00  -4.4447191996176567e+00  -4.2965764077426893e+00  -4.1484335772640533e+00  -4.0002907414334317e+00  -3.8521479201277660e+00  -3.7040051234724833e+00  -3.5558623547074504e+00  -3.4077196128582856e+00  -3.2595768945823211e+00  -3.1114341956501179e+00  -2.9632915117623182e+00  -2.8151488391047761e+00  -2.6670061745120499e+00  -2.5188635155382033e+00  -2.3707208603553145e+00  -2.2225782076650002e+00  -2.0744355565501786e+00  -1.9262929063588374e+00  -1.7781502565291192e+00  -1.6300076063121536e+00  -1.4818649540475632e+00  -1.3337222953362440e+00  -1.1855796163240844e+00  -1.0374368837487862e+00  -8.8929394690408481e-01  -7.4115072013001726e-01  -5.9300458088871888e-01  -4.4486314419973805e-01  -2.9665513492801288e-01  -1.4873342389371350e-01  6.6857346577217115e-04  -1.1849939076554456e+01  -1.1703609312448332e+01  -1.1555136764557444e+01  -1.1407478559916449e+01  -1.1259735808069934e+01  -1.1111872917079493e+01  -1.0963834804304028e+01  -1.0815665357954426e+01  -1.0667415030212283e+01  -1.0519132414060902e+01  -1.0370847734481606e+01  -1.0222580746856899e+01  -1.0074331527017719e+01  -9.9261009462676810e+00  -9.7778872455666956e+00  -9.6296858455069358e+00  -9.4814885291693152e+00  -9.3332921393087727e+00  -9.1850972699420694e+00  -9.0369054628801404e+00  -8.8887156476479561e+00  -8.7405259603517322e+00  -8.5923361050474831e+00  -8.4441490709606892e+00  -8.2959700572539603e+00  -8.1478043860301259e+00  -7.9996554024571971e+00  -7.8515235978823172e+00  -7.7034068185142583e+00  -7.5553012162173268e+00  -7.4072023386486627e+00  -7.2591060123422526e+00  -7.1110088719226727e+00  -6.9629085475672952e+00  -6.8148036259594988e+00  -6.6666934750078166e+00  -6.5185780369223485e+00  -6.3704576237534720e+00  -6.2223327578242813e+00  -6.0742040489174816e+00  -5.9260721177529598e+00  -5.7779375462010343e+00  -5.6298008546368052e+00  -5.4816624908048599e+00  -5.3335228310686809e+00  -5.1853821846794030e+00  -5.0372408026578901e+00  -4.8890988857484841e+00  -4.7409565930506927e+00  -4.5928140484348656e+00  -4.4446713465442960e+00  -4.2965285572148426e+00  -4.1483857298433318e+00  -4.0002428970546351e+00  -3.8521000784816826e+00  -3.7039572840338106e+00  -3.5558145169738538e+00  -3.4076717763356421e+00  -3.2595290588953501e+00  -3.1113863604920744e+00  -2.9632436769336330e+00  -2.8151010044588096e+00  -2.6669583399673988e+00  -2.5188156810381783e+00  -2.3706730258741349e+00  -2.2225303731815900e+00  -2.0743877220493498e+00  -1.9262450718038557e+00  -1.7781024218260035e+00  -1.6299597711749321e+00  -1.4818171177099644e+00  -1.3336744550704596e+00  -1.1855317676952579e+00  -1.0373889889276977e+00  -8.8924606823840746e-01  -7.4110186843572523e-01  -5.9295956241265857e-01  -4.4478749308750154e-01  -2.9673663294002961e-01  -1.4794209539081538e-01  -2.7438075687575034e-03  -1.1778296032004942e+01  -1.1629466324991668e+01  -1.1481557379050708e+01  -1.1333806653488203e+01  -1.1186008486493126e+01  -1.1038062990320038e+01  -1.0889960378627094e+01  -1.0741754403361815e+01  -1.0593487022185911e+01  -1.0445203825998878e+01  -1.0296926826939634e+01  -1.0148669354768709e+01  -1.0000428056171330e+01  -9.8522057121033271e+00  -9.7039981354408180e+00  -9.5557993936502363e+00  -9.4076023709635859e+00  -9.2594065727310859e+00  -9.1112131276348549e+00  -8.9630226978109508e+00  -8.8148333317811343e+00  -8.6666437107790841e+00  -8.5184548897153451e+00  -8.3702710969007494e+00  -8.2220977707777134e+00  -8.0739395137528334e+00  -7.9257983846391920e+00  -7.7776736249594496e+00  -7.6295622090400474e+00  -7.4814599338126895e+00  -7.3333624177689698e+00  -7.1852658349286997e+00  -7.0371672760802468e+00  -6.8890648230795408e+00  -6.7409574400769481e+00  -6.5928447757072721e+00  -6.4447269573902144e+00  -6.2966044035028208e+00  -6.1484776838537991e+00  -6.0003474161780099e+00  -5.8522142052279849e+00  -5.7040786041287763e+00  -5.5559410994195675e+00  -5.4078021044572395e+00  -5.2596619635981314e+00  -5.1115209577050624e+00  -4.9633793136011422e+00  -4.8152372116918372e+00  -4.6670947941619376e+00  -4.5189521707078839e+00  -4.3708094241295274e+00  -4.2226666143853189e+00  -4.0745237828395053e+00  -3.9263809557840679e+00  -3.7782381481292218e+00  -3.6300953664737636e+00  -3.4819526119736657e+00  -3.3338098824818281e+00  -3.1856671742713196e+00  -3.0375244831117132e+00  -2.8893818049962272e+00  -2.7412391364600701e+00  -2.5930964747272420e+00  -2.4449538176725065e+00  -2.2968111637463760e+00  -2.1486685118428976e+00  -2.0005258611777768e+00  -1.852383211127