<?xml version="1.0"?>
<VTKFile type="UnstructuredGrid"  version="0.1"  >
<UnstructuredGrid>
<Piece  NumberOfPoints="1369" NumberOfCells="2560">
<Points>
<DataArray  type="Float64"  NumberOfComponents="3"  format="ascii">0 0 0  0.75 0 0  1.5 0 0  2.25 0 0  3 0 0  3.75 0 0  4.5 0 0  5.25 0 0  6 0 0  6.75 0 0  7.5 0 0  8.25 0 0  9 0 0  9.75 0 0  10.5 0 0  11.25 0 0  12 0 0  12.75 0 0  13.5 0 0  14.25 0 0  15 0 0  15.75 0 0  16.5 0 0  17.25 0 0  18 0 0  18.75 0 0  19.5 0 0  20.25 0 0  21 0 0  21.75 0 0  22.5 0 0  23.25 0 0  24 0 0  24.75 0 0  25.5 0 0  26.25 0 0  27 0 0  27.75 0 0  28.5 0 0  29.25 0 0  30 0 0  30.75 0 0  31.5 0 0  32.25 0 0  33 0 0  33.75 0 0  34.5 0 0  35.25 0 0  36 0 0  36.75 0 0  37.5 0 0  38.25 0 0  39 0 0  39.75 0 0  40.5 0 0  41.25 0 0  42 0 0  42.75 0 0  43.5 0 0  44.25 0 0  45 0 0  45.75 0 0  46.5 0 0  47.25 0 0  48 0 0  48.75 0 0  49.5 0 0  50.25 0 0  51 0 0  51.75 0 0  52.5 0 0  53.25 0 0  54 0 0  54.75 0 0  55.5 0 0  56.25 0 0  57 0 0  57.75 0 0  58.5 0 0  59.25 0 0  60 0 0  0 0.5 0  0.75 0.5 0  1.5 0.5 0  2.25 0.5 0  3 0.5 0  3.75 0.5 0  4.5 0.5 0  5.25 0.5 0  6 0.5 0  6.75 0.5 0  7.5 0.5 0  8.25 0.5 0  9 0.5 0  9.75 0.5 0  10.5 0.5 0  11.25 0.5 0  12 0.5 0  12.75 0.5 0  13.5 0.5 0  14.25 0.5 0  15 0.5 0  15.75 0.5 0  16.5 0.5 0  17.25 0.5 0  18 0.5 0  18.75 0.5 0  19.5 0.5 0  20.25 0.5 0  21 0.5 0  21.75 0.5 0  22.5 0.5 0  23.25 0.5 0  24 0.5 0  24.75 0.5 0  25.5 0.5 0  26.25 0.5 0  27 0.5 0  27.75 0.5 0  28.5 0.5 0  29.25 0.5 0  30 0.5 0  30.75 0.5 0  31.5 0.5 0  32.25 0.5 0  33 0.5 0  33.75 0.5 0  34.5 0.5 0  35.25 0.5 0  36 0.5 0  36.75 0.5 0  37.5 0.5 0  38.25 0.5 0  39 0.5 0  39.75 0.5 0  40.5 0.5 0  41.25 0.5 0  42 0.5 0  42.75 0.5 0  43.5 0.5 0  44.25 0.5 0  45 0.5 0  45.75 0.5 0  46.5 0.5 0  47.25 0.5 0  48 0.5 0  48.75 0.5 0  49.5 0.5 0  50.25 0.5 0  51 0.5 0  51.75 0.5 0  52.5 0.5 0  53.25 0.5 0  54 0.5 0  54.75 0.5 0  55.5 0.5 0  56.25 0.5 0  57 0.5 0  57.75 0.5 0  58.5 0.5 0  59.25 0.5 0  60 0.5 0  0 1 0  0.75 1 0  1.5 1 0  2.25 1 0  3 1 0  3.75 1 0  4.5 1 0  5.25 1 0  6 1 0  6.75 1 0  7.5 1 0  8.25 1 0  9 1 0  9.75 1 0  10.5 1 0  11.25 1 0  12 1 0  12.75 1 0  13.5 1 0  14.25 1 0  15 1 0  15.75 1 0  16.5 1 0  17.25 1 0  18 1 0  18.75 1 0  19.5 1 0  20.25 1 0  21 1 0  21.75 1 0  22.5 1 0  23.25 1 0  24 1 0  24.75 1 0  25.5 1 0  26.25 1 0  27 1 0  27.75 1 0  28.5 1 0  29.25 1 0  30 1 0  30.75 1 0  31.5 1 0  32.25 1 0  33 1 0  33.75 1 0  34.5 1 0  35.25 1 0  36 1 0  36.75 1 0  37.5 1 0  38.25 1 0  39 1 0  39.75 1 0  40.5 1 0  41.25 1 0  42 1 0  42.75 1 0  43.5 1 0  44.25 1 0  45 1 0  45.75 1 0  46.5 1 0  47.25 1 0  48 1 0  48.75 1 0  49.5 1 0  50.25 1 0  51 1 0  51.75 1 0  52.5 1 0  53.25 1 0  54 1 0  54.75 1 0  55.5 1 0  56.25 1 0  57 1 0  57.75 1 0  58.5 1 0  59.25 1 0  60 1 0  0 1.5 0  0.75 1.5 0  1.5 1.5 0  2.25 1.5 0  3 1.5 0  3.75 1.5 0  4.5 1.5 0  5.25 1.5 0  6 1.5 0  6.75 1.5 0  7.5 1.5 0  8.25 1.5 0  9 1.5 0  9.75 1.5 0  10.5 1.5 0  11.25 1.5 0  12 1.5 0  12.75 1.5 0  13.5 1.5 0  14.25 1.5 0  15 1.5 0  15.75 1.5 0  16.5 1.5 0  17.25 1.5 0  18 1.5 0  18.75 1.5 0  19.5 1.5 0  20.25 1.5 0  21 1.5 0  21.75 1.5 0  22.5 1.5 0  23.25 1.5 0  24 1.5 0  24.75 1.5 0  25.5 1.5 0  26.25 1.5 0  27 1.5 0  27.75 1.5 0  28.5 1.5 0  29.25 1.5 0  30 1.5 0  30.75 1.5 0  31.5 1.5 0  32.25 1.5 0  33 1.5 0  33.75 1.5 0  34.5 1.5 0  35.25 1.5 0  36 1.5 0  36.75 1.5 0  37.5 1.5 0  38.25 1.5 0  39 1.5 0  39.75 1.5 0  40.5 1.5 0  41.25 1.5 0  42 1.5 0  42.75 1.5 0  43.5 1.5 0  44.25 1.5 0  45 1.5 0  45.75 1.5 0  46.5 1.5 0  47.25 1.5 0  48 1.5 0  48.75 1.5 0  49.5 1.5 0  50.25 1.5 0  51 1.5 0  51.75 1.5 0  52.5 1.5 0  53.25 1.5 0  54 1.5 0  54.75 1.5 0  55.5 1.5 0  56.25 1.5 0  57 1.5 0  57.75 1.5 0  58.5 1.5 0  59.25 1.5 0  60 1.5 0  0 2 0  0.75 2 0  1.5 2 0  2.25 2 0  3 2 0  3.75 2 0  4.5 2 0  5.25 2 0  6 2 0  6.75 2 0  7.5 2 0  8.25 2 0  9 2 0  9.75 2 0  10.5 2 0  11.25 2 0  12 2 0  12.75 2 0  13.5 2 0  14.25 2 0  15 2 0  15.75 2 0  16.5 2 0  17.25 2 0  18 2 0  18.75 2 0  19.5 2 0  20.25 2 0  21 2 0  21.75 2 0  22.5 2 0  23.25 2 0  24 2 0  24.75 2 0  25.5 2 0  26.25 2 0  27 2 0  27.75 2 0  28.5 2 0  29.25 2 0  30 2 0  30.75 2 0  31.5 2 0  32.25 2 0  33 2 0  33.75 2 0  34.5 2 0  35.25 2 0  36 2 0  36.75 2 0  37.5 2 0  38.25 2 0  39 2 0  39.75 2 0  40.5 2 0  41.25 2 0  42 2 0  42.75 2 0  43.5 2 0  44.25 2 0  45 2 0  45.75 2 0  46.5 2 0  47.25 2 0  48 2 0  48.75 2 0  49.5 2 0  50.25 2 0  51 2 0  51.75 2 0  52.5 2 0  53.25 2 0  54 2 0  54.75 2 0  55.5 2 0  56.25 2 0  57 2 0  57.75 2 0  58.5 2 0  59.25 2 0  60 2 0  0 2.5 0  0.75 2.5 0  1.5 2.5 0  2.25 2.5 0  3 2.5 0  3.75 2.5 0  4.5 2.5 0  5.25 2.5 0  6 2.5 0  6.75 2.5 0  7.5 2.5 0  8.25 2.5 0  9 2.5 0  9.75 2.5 0  10.5 2.5 0  11.25 2.5 0  12 2.5 0  12.75 2.5 0  13.5 2.5 0  14.25 2.5 0  15 2.5 0  15.75 2.5 0  16.5 2.5 0  17.25 2.5 0  18 2.5 0  18.75 2.5 0  19.5 2.5 0  20.25 2.5 0  21 2.5 0  21.75 2.5 0  22.5 2.5 0  23.25 2.5 0  24 2.5 0  24.75 2.5 0  25.5 2.5 0  26.25 2.5 0  27 2.5 0  27.75 2.5 0  28.5 2.5 0  29.25 2.5 0  30 2.5 0  30.75 2.5 0  31.5 2.5 0  32.25 2.5 0  33 2.5 0  33.75 2.5 0  34.5 2.5 0  35.25 2.5 0  36 2.5 0  36.75 2.5 0  37.5 2.5 0  38.25 2.5 0  39 2.5 0  39.75 2.5 0  40.5 2.5 0  41.25 2.5 0  42 2.5 0  42.75 2.5 0  43.5 2.5 0  44.25 2.5 0  45 2.5 0  45.75 2.5 0  46.5 2.5 0  47.25 2.5 0  48 2.5 0  48.75 2.5 0  49.5 2.5 0  50.25 2.5 0  51 2.5 0  51.75 2.5 0  52.5 2.5 0  53.25 2.5 0  54 2.5 0  54.75 2.5 0  55.5 2.5 0  56.25 2.5 0  57 2.5 0  57.75 2.5 0  58.5 2.5 0  59.25 2.5 0  60 2.5 0  0 3 0  0.75 3 0  1.5 3 0  2.25 3 0  3 3 0  3.75 3 0  4.5 3 0  5.25 3 0  6 3 0  6.75 3 0  7.5 3 0  8.25 3 0  9 3 0  9.75 3 0  10.5 3 0  11.25 3 0  12 3 0  12.75 3 0  13.5 3 0  14.25 3 0  15 3 0  15.75 3 0  16.5 3 0  17.25 3 0  18 3 0  18.75 3 0  19.5 3 0  20.25 3 0  21 3 0  21.75 3 0  22.5 3 0  23.25 3 0  24 3 0  24.75 3 0  25.5 3 0  26.25 3 0  27 3 0  27.75 3 0  28.5 3 0  29.25 3 0  30 3 0  30.75 3 0  31.5 3 0  32.25 3 0  33 3 0  33.75 3 0  34.5 3 0  35.25 3 0  36 3 0  36.75 3 0  37.5 3 0  38.25 3 0  39 3 0  39.75 3 0  40.5 3 0  41.25 3 0  42 3 0  42.75 3 0  43.5 3 0  44.25 3 0  45 3 0  45.75 3 0  46.5 3 0  47.25 3 0  48 3 0  48.75 3 0  49.5 3 0  50.25 3 0  51 3 0  51.75 3 0  52.5 3 0  53.25 3 0  54 3 0  54.75 3 0  55.5 3 0  56.25 3 0  57 3 0  57.75 3 0  58.5 3 0  59.25 3 0  60 3 0  0 3.5 0  0.75 3.5 0  1.5 3.5 0  2.25 3.5 0  3 3.5 0  3.75 3.5 0  4.5 3.5 0  5.25 3.5 0  6 3.5 0  6.75 3.5 0  7.5 3.5 0  8.25 3.5 0  9 3.5 0  9.75 3.5 0  10.5 3.5 0  11.25 3.5 0  12 3.5 0  12.75 3.5 0  13.5 3.5 0  14.25 3.5 0  15 3.5 0  15.75 3.5 0  16.5 3.5 0  17.25 3.5 0  18 3.5 0  18.75 3.5 0  19.5 3.5 0  20.25 3.5 0  21 3.5 0  21.75 3.5 0  22.5 3.5 0  23.25 3.5 0  24 3.5 0  24.75 3.5 0  25.5 3.5 0  26.25 3.5 0  27 3.5 0  27.75 3.5 0  28.5 3.5 0  29.25 3.5 0  30 3.5 0  30.75 3.5 0  31.5 3.5 0  32.25 3.5 0  33 3.5 0  33.75 3.5 0  34.5 3.5 0  35.25 3.5 0  36 3.5 0  36.75 3.5 0  37.5 3.5 0  38.25 3.5 0  39 3.5 0  39.75 3.5 0  40.5 3.5 0  41.25 3.5 0  42 3.5 0  42.75 3.5 0  43.5 3.5 0  44.25 3.5 0  45 3.5 0  45.75 3.5 0  46.5 3.5 0  47.25 3.5 0  48 3.5 0  48.75 3.5 0  49.5 3.5 0  50.25 3.5 0  51 3.5 0  51.75 3.5 0  52.5 3.5 0  53.25 3.5 0  54 3.5 0  54.75 3.5 0  55.5 3.5 0  56.25 3.5 0  57 3.5 0  57.75 3.5 0  58.5 3.5 0  59.25 3.5 0  60 3.5 0  0 4 0  0.75 4 0  1.5 4 0  2.25 4 0  3 4 0  3.75 4 0  4.5 4 0  5.25 4 0  6 4 0  6.75 4 0  7.5 4 0  8.25 4 0  9 4 0  9.75 4 0  10.5 4 0  11.25 4 0  12 4 0  12.75 4 0  13.5 4 0  14.25 4 0  15 4 0  15.75 4 0  16.5 4 0  17.25 4 0  18 4 0  18.75 4 0  19.5 4 0  20.25 4 0  21 4 0  21.75 4 0  22.5 4 0  23.25 4 0  24 4 0  24.75 4 0  25.5 4 0  26.25 4 0  27 4 0  27.75 4 0  28.5 4 0  29.25 4 0  30 4 0  30.75 4 0  31.5 4 0  32.25 4 0  33 4 0  33.75 4 0  34.5 4 0  35.25 4 0  36 4 0  36.75 4 0  37.5 4 0  38.25 4 0  39 4 0  39.75 4 0  40.5 4 0  41.25 4 0  42 4 0  42.75 4 0  43.5 4 0  44.25 4 0  45 4 0  45.75 4 0  46.5 4 0  47.25 4 0  48 4 0  48.75 4 0  49.5 4 0  50.25 4 0  51 4 0  51.75 4 0  52.5 4 0  53.25 4 0  54 4 0  54.75 4 0  55.5 4 0  56.25 4 0  57 4 0  57.75 4 0  58.5 4 0  59.25 4 0  60 4 0  0.375 0.25 0  1.125 0.25 0  1.875 0.25 0  2.625 0.25 0  3.375 0.25 0  4.125 0.25 0  4.875 0.25 0  5.625 0.25 0  6.375 0.25 0  7.125 0.25 0  7.875 0.25 0  8.625 0.25 0  9.375 0.25 0  10.125 0.25 0  10.875 0.25 0  11.625 0.25 0  12.375 0.25 0  13.125 0.25 0  13.875 0.25 0  14.625 0.25 0  15.375 0.25 0  16.125 0.25 0  16.875 0.25 0  17.625 0.25 0  18.375 0.25 0  19.125 0.25 0  19.875 0.25 0  20.625 0.25 0  21.375 0.25 0  22.125 0.25 0  22.875 0.25 0  23.625 0.25 0  24.375 0.25 0  25.125 0.25 0  25.875 0.25 0  26.625 0.25 0  27.375 0.25 0  28.125 0.25 0  28.875 0.25 0  29.625 0.25 0  30.375 0.25 0  31.125 0.25 0  31.875 0.25 0  32.625 0.25 0  33.375 0.25 0  34.125 0.25 0  34.875 0.25 0  35.625 0.25 0  36.375 0.25 0  37.125 0.25 0  37.875 0.25 0  38.625 0.25 0  39.375 0.25 0  40.125 0.25 0  40.875 0.25 0  41.625 0.25 0  42.375 0.25 0  43.125 0.25 0  43.875 0.25 0  44.625 0.25 0  45.375 0.25 0  46.125 0.25 0  46.875 0.25 0  47.625 0.25 0  48.375 0.25 0  49.125 0.25 0  49.875 0.25 0  50.625 0.25 0  51.375 0.25 0  52.125 0.25 0  52.875 0.25 0  53.625 0.25 0  54.375 0.25 0  55.125 0.25 0  55.875 0.25 0  56.625 0.25 0  57.375 0.25 0  58.125 0.25 0  58.875 0.25 0  59.625 0.25 0  0.375 0.75 0  1.125 0.75 0  1.875 0.75 0  2.625 0.75 0  3.375 0.75 0  4.125 0.75 0  4.875 0.75 0  5.625 0.75 0  6.375 0.75 0  7.125 0.75 0  7.875 0.75 0  8.625 0.75 0  9.375 0.75 0  10.125 0.75 0  10.875 0.75 0  11.625 0.75 0  12.375 0.75 0  13.125 0.75 0  13.875 0.75 0  14.625 0.75 0  15.375 0.75 0  16.125 0.75 0  16.875 0.75 0  17.625 0.75 0  18.375 0.75 0  19.125 0.75 0  19.875 0.75 0  20.625 0.75 0  21.375 0.75 0  22.125 0.75 0  22.875 0.75 0  23.625 0.75 0  24.375 0.75 0  25.125 0.75 0  25.875 0.75 0  26.625 0.75 0  27.375 0.75 0  28.125 0.75 0  28.875 0.75 0  29.625 0.75 0  30.375 0.75 0  31.125 0.75 0  31.875 0.75 0  32.625 0.75 0  33.375 0.75 0  34.125 0.75 0  34.875 0.75 0  35.625 0.75 0  36.375 0.75 0  37.125 0.75 0  37.875 0.75 0  38.625 0.75 0  39.375 0.75 0  40.125 0.75 0  40
[...]
<PointData  Scalars="f_8-1"> 
<DataArray  type="Float64"  Name="f_8-1"  format="ascii">-5.4457696397381410e+00  -5.3807439291238879e+00  -5.3104202590081204e+00  -5.2430967520957239e+00  -5.1748169222514857e+00  -5.1068914523459119e+00  -5.0387315538003730e+00  -4.9706407346612842e+00  -4.9024999360278034e+00  -4.8343929037718318e+00  -4.7662873048348828e+00  -4.6981987073149094e+00  -4.6301135527333033e+00  -4.5620317303551534e+00  -4.4939503734608959e+00  -4.4258688285790466e+00  -4.3577875914466579e+00  -4.2897059882110149e+00  -4.2216246821016039e+00  -4.1535431472310256e+00  -4.0854617938208770e+00  -4.0173803161332708e+00  -3.9492989308294226e+00  -3.8812174837254170e+00  -3.8131360802118750e+00  -3.7450546478496056e+00  -3.6769732351284703e+00  -3.6088918095728841e+00  -3.5408103925211973e+00  -3.4727289699997526e+00  -3.4046475510164305e+00  -3.3365661297976197e+00  -3.2684847099927343e+00  -3.2004032893109988e+00  -3.1323218691722814e+00  -3.0642404487029782e+00  -2.9961590284344277e+00  -2.9280776080458177e+00  -2.8599961877288154e+00  -2.7919147673696894e+00  -2.7238333470352618e+00  -2.6557519266865315e+00  -2.5876705063460741e+00  -2.5195890860008863e+00  -2.4515076656583989e+00  -2.3834262453143866e+00  -2.3153448249712314e+00  -2.2472634046276223e+00  -2.1791819842842495e+00  -2.1111005639407208e+00  -2.0430191435973009e+00  -1.9749377232537668e+00  -1.9068563029102641e+00  -1.8387748825665331e+00  -1.7706934622227331e+00  -1.7026120418781270e+00  -1.6345306215328166e+00  -1.5664492011843489e+00  -1.4983677808313525e+00  -1.4302863604647020e+00  -1.3622049400732938e+00  -1.2941235196188117e+00  -1.2260420990364131e+00  -1.1579606781524259e+00  -1.0898792566302511e+00  -1.0217978336718629e+00  -9.5371640767335042e-01  -8.8563497514918033e-01  -8.1755352928165259e-01  -7.4947205661907568e-01  -6.8139053310858044e-01  -6.1330891798058274e-01  -5.4522715429276047e-01  -4.7714519189078919e-01  -4.0906309693046072e-01  -3.4098136274460855e-01  -2.7290188723465564e-01  -2.0483054621426383e-01  -1.3679121083556908e-01  -6.8737623791371216e-02  -3.0513944821312271e-03  -5.4483953020654887e+00  -5.3797895803712921e+00  -5.3109852193415472e+00  -5.2429677687430107e+00  -5.1749648906556471e+00  -5.1068915764119280e+00  -5.0388105137269319e+00  -4.9706786129120699e+00  -4.9025605522425835e+00  -4.8344399928207267e+00  -4.7663405083528119e+00  -4.6982475796818957e+00  -4.6301638913561849e+00  -4.5620811567419448e+00  -4.4940000244194316e+00  -4.4259184522771067e+00  -4.3578371118376582e+00  -4.2897556365900487e+00  -4.2216741986818791e+00  -4.1535927761393623e+00  -4.0855113300600019e+00  -4.0174299237649240e+00  -3.9493484842392506e+00  -3.8812670769120468e+00  -3.8131856444967838e+00  -3.7451042326865323e+00  -3.6770228054817671e+00  -3.6089413899671876e+00  -3.5408599660224773e+00  -3.4727785481649800e+00  -3.4046971260595074e+00  -3.3366157069025357e+00  -3.2685342857510253e+00  -3.2004528659375771e+00  -3.1323714452450866e+00  -3.0642900251247496e+00  -2.9962086046385834e+00  -2.9281271843841803e+00  -2.8600457639852075e+00  -2.7919643436756463e+00  -2.7238829233115216e+00  -2.6558015029804198e+00  -2.5877200826295792e+00  -2.5196386622904572e+00  -2.4515572419444549e+00  -2.3834758216024570e+00  -2.3153944012581529e+00  -2.2473129809151930e+00  -2.1792315605714645e+00  -2.1111501402281330e+00  -2.0430687198846220e+00  -1.9749872995411302e+00  -1.9069058791976647e+00  -1.8388244588539422e+00  -1.7707430385103398e+00  -1.7026616181658751e+00  -1.6345801978212835e+00  -1.5664987774738239e+00  -1.4984173571237229e+00  -1.4303359367626196e+00  -1.3622545163840190e+00  -1.2941730959570630e+00  -1.2260916754341347e+00  -1.1580102546804936e+00  -1.0899288334341226e+00  -1.0218474110678590e+00  -9.5376598629180542e-01  -8.8568455629017673e-01  -8.1760311539719077e-01  -7.4952165237933643e-01  -6.8144014663131236e-01  -6.1335856299888847e-01  -5.4527684928453946e-01  -4.7719495393552180e-01  -4.0911291796327942e-01  -3.4103114530184353e-01  -2.7295116292140681e-01  -2.0487835210961905e-01  -1.3682347353471869e-01  -6.8907226986596459e-02  4.5948524888261979e-05  -5.4475904839003277e+00  -5.3799282399496926e+00  -5.3111232908425654e+00  -5.2431440861073115e+00  -5.1749654863047860e+00  -5.1069486034438372e+00  -5.0388118522747165e+00  -4.9707208506123877e+00  -4.9025814624987545e+00  -4.8344789159783623e+00  -4.7663689856816669e+00  -4.6982813675766879e+00  -4.6301922025930242e+00  -4.5621110205419173e+00  -4.4940279375514711e+00  -4.4259470378104719e+00  -4.3578651544023774e+00  -4.2897838890228561e+00  -4.2217023516600998e+00  -4.1536209352670888e+00  -4.0855395171122320e+00  -4.0174580631091139e+00  -3.9493766721272627e+00  -3.8812952191299583e+00  -3.8132138249332437e+00  -3.7451323819954565e+00  -3.6770509788215531e+00  -3.6089695450983474e+00  -3.5408881345073042e+00  -3.4728067070169422e+00  -3.4047252916953012e+00  -3.3366438678342361e+00  -3.2685624498812249e+00  -3.2004810279242619e+00  -3.1323996086442620e+00  -3.0643181876055245e+00  -2.9962367677077499e+00  -2.9281553470809465e+00  -2.8600739269146089e+00  -2.7919925064613094e+00  -2.7239110861849745e+00  -2.6558296658007845e+00  -2.5877482454817149e+00  -2.5196668251237444e+00  -2.4515854047888199e+00  -2.3835039844403654e+00  -2.3154225640997934e+00  -2.2473411437546869e+00  -2.1792597234121707e+00  -2.1111783030681575e+00  -2.0430968827249929e+00  -1.9750154623812695e+00  -1.9069340420378047e+00  -1.8388526216938987e+00  -1.7707712013498518e+00  -1.7026897810046717e+00  -1.6346083606580815e+00  -1.5665269403070341e+00  -1.4984455199482249e+00  -1.4303640995700400e+00  -1.3622826791533271e+00  -1.2942012586492699e+00  -1.2261198379629685e+00  -1.1580384168812499e+00  -1.0899569949696430e+00  -1.0218755713058163e+00  -9.5379414401711071e-01  -8.8571270930373158e-01  -8.1763125971598916e-01  -7.4954978106962589e-01  -6.8146824740233525e-01  -6.1338661313428156e-01  -5.4530480089981803e-01  -4.7722268754336611e-01  -4.0914009060110346e-01  -3.4105672314369356e-01  -2.7297198449148025e-01  -2.0488424633585700e-01  -1.3678828710270746e-01  -6.8605578186232433e-02  -2.5790412429838117e-05  -5.4481057435560443e+00  -5.3794789300624348e+00  -5.3114443529351663e+00  -5.2430051649804863e+00  -5.1750516748145996e+00  -5.1068457242300749e+00  -5.0388165569929342e+00  -4.9706576401260456e+00  -4.9025720954390657e+00  -4.8344415724480925e+00  -4.7663512695865613e+00  -4.6982493488760628e+00  -4.6301661128089879e+00  -4.5620787731024306e+00  -4.4939978772088631e+00  -4.4259149458480591e+00  -4.3578338918242840e+00  -4.2897520911573261e+00  -4.2216707459347846e+00  -4.1535892724495058e+00  -4.0855078166616154e+00  -4.0174264315206374e+00  -3.9493449581860594e+00  -3.8812635818675010e+00  -3.8131821202294160e+00  -3.7451007319851239e+00  -3.6770192856250774e+00  -3.6089378845958762e+00  -3.5408564497318071e+00  -3.4727750397668102e+00  -3.4046936120036504e+00  -3.3366121967869673e+00  -3.2685307729197963e+00  -3.2004493549368180e+00  -3.1323679330241738e+00  -3.0642865137023811e+00  -2.9962050926993169e+00  -2.9281236727742730e+00  -2.8600422521676081e+00  -2.7919608319872111e+00  -2.7238794115435252e+00  -2.6557979912608429e+00  -2.5877165708807932e+00  -2.5196351505590933e+00  -2.4515537302027806e+00  -2.3834723098668316e+00  -2.3153908895190098e+00  -2.2473094691780688e+00  -2.1792280488331608e+00  -2.1111466284904936e+00  -2.0430652081465346e+00  -1.9749837878032064e+00  -1.9069023674593566e+00  -1.8388209471154016e+00  -1.7707395267706898e+00  -1.7026581064245763e+00  -1.6345766860753959e+00  -1.5664952657195039e+00  -1.4984138453493372e+00  -1.4303324249481755e+00  -1.3622510044811147e+00  -1.2941695838730605e+00  -1.2260881629677096e+00  -1.1580067414380948e+00  -1.0899253186154438e+00  -1.0218438931430394e+00  -9.5376246232561701e-01  -8.8568102089776057e-01  -8.1759955882944813e-01  -7.4951805749253553e-01  -6.8143648313826022e-01  -6.1335477529970051e-01  -5.4527282461877713e-01  -4.7719042372679465e-01  -4.0910713528694065e-01  -3.4102189396474769e-01  -2.7293181700299507e-01  -2.0482866598025606e-01  -1.3668750253259185e-01  -6.8439064231566829e-02  -2.0283810626313242e-05  -5.4477442073457025e+00  -5.3797195245103877e+00  -5.3112301366413783e+00  -5.2431903273425542e+00  -5.1749210505760770e+00  -5.1069211671775108e+00  -5.0387466204762923e+00  -4.9706842299614911e+00  -4.9025384665553613e+00  -4.8344490619660183e+00  -4.7663331638352799e+00  -4.6982468156309567e+00  -4.6301529474018430e+00  -4.5620712735300550e+00  -4.4939864518216490e+00  -4.4259055325875414e+00  -4.3578232519538460e+00  -4.2897420267807282e+00  -4.2216604278803693e+00  -4.1535790020570964e+00  -4.0854975957935782e+00  -4.0174161148475216e+00  -3.9493347473301221e+00  -3.8812532706194056e+00  -3.8131718951995746e+00  -3.7450904365601358e+00  -3.6770090451479320e+00  -3.6089276024448327e+00  -3.5408461983116335e+00  -3.4727647661578991e+00  -3.4046833540803885e+00  -3.3366019279685539e+00  -3.2685205115365070e+00  -3.2004390885579119e+00  -3.1323576699501872e+00  -3.0642762484724209e+00  -2.9961948288564799e+00  -2.9281134080502333e+00  -2.8600319879964631e+00  -2.7919505674731138e+00  -2.7238691472397925e+00  -2.6557877268294057e+00  -2.5877063065261052e+00  -2.5196248861587045e+00  -2.4515434658293596e+00  -2.3834620454776285e+00  -2.3153806251389688e+00  -2.2472992047927485e+00  -2.1792177844508540e+00  -2.1111363641064762e+00  -2.0430549437634666e+00  -1.9749735234195829e+00  -1.9068921030759898e+00  -1.8388106827317903e+00  -1.7707292623869733e+00  -1.7026478420404279e+00  -1.6345664216903812e+00  -1.5664850013326501e+00  -1.4984035809584402e+00  -1.4303221605488421e+00  -1.3622407400636631e+00  -1.2941593194178906e+00  -1.2260778984336924e+00  -1.1579964767429742e+00  -1.0899150535945066e+00  -1.0218336274782407e+00  -9.5375219541196643e-01  -8.8567075162161590e-01  -8.1758928518014429e-01  -7.4950777589692064e-01  -6.8142618719551551e-01  -6.1334445315188524e-01  -5.4526245198942414e-01  -4.7717994222284760e-01  -4.0909638344387023e-01  -3.4101040282256756e-01  -2.7291821645049874e-01  -2.0480900478417247e-01  -1.3665331145365808e-01  -6.8394254598720533e-02  -1.4389784863796993e-05  -5.4481057435560452e+00  -5.3794789300624455e+00  -5.3114443529351689e+00  -5.2430051649805005e+00  -5.1750516748146005e+00  -5.1068457242300811e+00  -5.0388165569929262e+00  -4.9706576401260492e+00  -4.9025720954390613e+00  -4.8344415724480863e+00  -4.7663512695865684e+00  -4.6982493488760557e+00  -4.6301661128089906e+00  -4.5620787731024333e+00  -4.4939978772088747e+00  -4.4259149458480707e+00  -4.3578338918242823e+00  -4.2897520911573261e+00  -4.2216707459347704e+00  -4.1535892724494996e+00  -4.0855078166616128e+00  -4.0174264315206445e+00  -3.9493449581860638e+00  -3.8812635818675094e+00  -3.8131821202294072e+00  -3.7451007319851204e+00  -3.6770192856250770e+00  -3.6089378845958713e+00  -3.5408564497318129e+00  -3.4727750397668040e+00  -3.4046936120036517e+00  -3.3366121967869677e+00  -3.2685307729197906e+00  -3.2004493549368207e+00  -3.1323679330241765e+00  -3.0642865137023763e+00  -2.9962050926993160e+00  -2.9281236727742725e+00  -2.8600422521676090e+00  -2.7919608319872076e+00  -2.7238794115435256e+00  -2.6557979912608474e+00  -2.5877165708807892e+00  -2.5196351505590955e+00  -2.4515537302027779e+00  -2.3834723098668333e+00  -2.3153908895190130e+00  -2.2473094691780657e+00  -2.1792280488331626e+00  -2.1111466284904972e+00  -2.0430652081465279e+00  -1.9749837878032068e+00  -1.9069023674593522e+00  -1.8388209471154036e+00  -1.7707395267706876e+00  -1.7026581064245809e+00  -1.6345766860753976e+00  -1.5664952657195095e+00  -1.4984138453493367e+00  -1.4303324249481770e+00  -1.3622510044811118e+00  -1.2941695838730616e+00  -1.2260881629677089e+00  -1.1580067414380950e+00  -1.0899253186154443e+00  -1.0218438931430418e+00  -9.5376246232561679e-01  -8.8568102089776179e-01  -8.1759955882944624e-01  -7.4951805749253475e-01  -6.8143648313826122e-01  -6.1335477529969973e-01  -5.4527282461877835e-01  -4.7719042372679360e-01  -4.0910713528694409e-01  -3.4102189396474786e-01  -2.7293181700299024e-01  -2.0482866598025307e-01  -1.3668750253258946e-01  -6.8439064231564511e-02  -2.0283810625527981e-05  -5.4475904839003215e+00  -5.3799282399496953e+00  -5.3111232908425885e+00  -5.2431440861073213e+00  -5.1749654863047967e+00  -5.1069486034438425e+00  -5.0388118522747138e+00  -4.9707208506123886e+00  -4.9025814624987465e+00  -4.8344789159783517e+00  -4.7663689856816793e+00  -4.6982813675766799e+00  -4.6301922025930322e+00  -4.5621110205419297e+00  -4.4940279375514969e+00  -4.4259470378104906e+00  -4.3578651544023836e+00  -4.2897838890228481e+00  -4.2217023516600767e+00  -4.1536209352670737e+00  -4.0855395171122311e+00  -4.0174580631091183e+00  -3.9493766721272756e+00  -3.8812952191299654e+00  -3.8132138249332419e+00  -3.7451323819954436e+00  -3.6770509788215473e+00  -3.6089695450983510e+00  -3.5408881345072989e+00  -3.4728067070169453e+00  -3.4047252916952990e+00  -3.3366438678342369e+00  -3.2685624498812231e+00  -3.2004810279242553e+00  -3.1323996086442651e+00  -3.0643181876055245e+00  -2.9962367677077499e+00  -2.9281553470809487e+00  -2.8600739269146107e+00  -2.7919925064612960e+00  -2.7239110861849731e+00  -2.6558296658007832e+00  -2.5877482454817153e+00  -2.5196668251237395e+00  -2.4515854047888168e+00  -2.3835039844403667e+00  -2.3154225640998085e+00  -2.2473411437546829e+00  -2.1792597234121747e+00  -2.1111783030681592e+00  -2.0430968827249880e+00  -1.9750154623812677e+00  -1.9069340420377960e+00  -1.8388526216938901e+00  -1.7707712013498513e+00  -1.7026897810046779e+00  -1.6346083606580906e+00  -1.5665269403070434e+00  -1.4984455199482256e+00  -1.4303640995700413e+00  -1.3622826791533242e+00  -1.2942012586492655e+00  -1.2261198379629712e+00  -1.1580384168812496e+00  -1.0899569949696446e+00  -1.0218755713058212e+00  -9.5379414401711216e-01  -8.8571270930372648e-01  -8.1763125971599038e-01  -7.4954978106962100e-01  -6.8146824740233591e-01  -6.1338661313428156e-01  -5.4530480089982047e-01  -4.7722268754336683e-01  -4.0914009060110595e-01  -3.4105672314369218e-01  -2.7297198449146748e-01  -2.0488424633584945e-01  -1.3678828710270727e-01  -6.8605578186227617e-02  -2.5790412429131386e-05  -5.4483953020654967e+00  -5.3797895803713001e+00  -5.3109852193415703e+00  -5.2429677687430232e+00  -5.1749648906556578e+00  -5.1068915764119369e+00  -5.0388105137269266e+00  -4.9706786129120779e+00  -4.9025605522425710e+00  -4.8344399928207284e+00  -4.7663405083528252e+00  -4.6982475796818832e+00  -4.6301638913561973e+00  -4.5620811567419635e+00  -4.4940000244194582e+00  -4.4259184522771262e+00  -4.3578371118376671e+00  -4.2897556365900282e+00  -4.2216741986818587e+00  -4.1535927761393410e+00  -4.0855113300600019e+00  -4.0174299237649365e+00  -3.9493484842392546e+00  -3.8812670769120685e+00  -3.8131856444967851e+00  -3.7451042326865154e+00  -3.6770228054817657e+00  -3.6089413899671849e+00  -3.5408599660224773e+00  -3.4727785481649769e+00  -3.4046971260595122e+00  -3.3366157069025304e+00  -3.2685342857510258e+00  -3.2004528659375655e+00  -3.1323714452450973e+00  -3.0642900251247602e+00  -2.9962086046385887e+00  -2.9281271843841874e+00  -2.8600457639852093e+00  -2.7919643436756356e+00  -2.7238829233115185e+00  -2.6558015029804229e+00  -2.5877200826295748e+00  -2.5196386622904545e+00  -2.4515572419444531e+00  -2.3834758216024663e+00  -2.3153944012581680e+00  -2.2473129809151882e+00  -2.1792315605714667e+00  -2.1111501402281392e+00  -2.0430687198846189e+00  -1.9749872995411224e+00  -1.9069058791976550e+00  -1.8388244588539298e+00  -1.7707430385103418e+00  -1.7026616181658818e+00  -1.6345801978213002e+00  -1.5664987774738326e+00  -1.4984173571237234e+00  -1.4303359367626183e+00  -1.3622545163840156e+00  -1.2941730959570605e+00  -1.2260916754341367e+00  -1.1580102546804947e+00  -1.0899288334341222e+00  -1.0218474110678650e+00  -9.5376598629180609e-01  -8.8568455629017162e-01  -8.1760311539719110e-01  -7.4952165237933555e-01  -6.8144014663130859e-01  -6.1335856299888958e-01  -5.4527684928454179e-01  -4.7719495393552763e-01  -4.0911291796327903e-01  -3.4103114530183709e-01  -2.7295116292139643e-01  -2.0487835210961239e-01  -1.3682347353471866e-01  -6.8907226986593864e-02  4.5948524887795962e-05  -5.4457696397381232e+00  -5.3807439291239039e+00  -5.3104202590081435e+00  -5.2430967520957266e+00  -5.1748169222515008e+00  -5.1068914523459261e+00  -5.0387315538003694e+00  -4.9706407346612931e+00  -4.9024999360277972e+00  -4.8343929037718301e+00  -4.7662873048349015e+00  -4.6981987073149005e+00  -4.6301135527333122e+00  -4.5620317303551685e+00  -4.4939503734609216e+00  -4.4258688285790644e+00  -4.3577875914466606e+00  -4.2897059882109927e+00  -4.2216246821015790e+00  -4.1535431472309998e+00  -4.0854617938208779e+00  -4.0173803161332859e+00  -3.9492989308294320e+00  -3.8812174837254334e+00  -3.8131360802118723e+00  -3.7450546478495825e+00  -3.6769732351284685e+00  -3.6088918095728748e+00  -3.5408103925212013e+00  -3.4727289699997441e+00  -3.4046475510164376e+00  -3.3365661297976139e+00  -3.2684847099927348e+00  -3.2004032893109882e+00  -3.1323218691722889e+00  -3.0642404487029884e+00  -2.9961590284344428e+00  -2.9280776080458191e+00  -2.8599961877288163e+00  -2.7919147673696827e+00  -2.7238333470352640e+00  -2.6557519266865350e+00  -2.5876705063460688e+00  -2.5195890860008889e+00  -2.4515076656583976e+00  -2.3834262453143933e+00  -2.3153448249712443e+00  -2.2472634046276165e+00  -2.1791819842842557e+00  -2.1111005639407310e+00  -2.0430191435972977e+00  -1.9749377232537597e+00  -1.9068563029102537e+00  -1.8387748825665233e+00  -1.7706934622227328e+00  -1.7026120418781390e+00  -1.6345306215328339e+00  -1.5664492011843589e+00  -1.4983677808313514e+00  -1.4302863604647045e+00  -1.3622049400732907e+00  -1.2941235196188101e+00  -1.2260420990364176e+00  -1.1579606781524256e+00  -1.0898792566302486e+00  -1.0217978336718687e+00  -9.5371640767335175e-01  -8.8563497514917155e-01  -8.1755352928165359e-01  -7.4947205661907756e-01  -6.8139053310857423e-01  -6.1330891798058496e-01  -5.4522715429276292e-01  -4.7714519189079485e-01  -4.0906309693045850e-01  -3.4098136274460111e-01  -2.7290188723464742e-01  -2.0483054621425786e-01  -1.3679121083556717e-01  -6.8737623791369828e-02  -3.0513944821300861e-03  -5.4151004931490121e+00  -5.3453215280363482e+00  -5.2771046859822057e+00  -5.2090722504172771e+00  -5.1410385124724316e+00  -5.0729695935452410e+00  -5.0048562945689747e+00  -4.9367355558950257e+00  -4.8686134961911343e+00  -4.8005055994732606e+00  -4.7324086328860311e+00  -4.6643212452073088e+00  -4.5962378024442474e+00  -4.5281561090094034e+00  -4.4600746777388789e+00  -4.3919932764674083e+00  -4.3239118557247345e+00  -4.2558304035679457e+00  -4.1877489802212580e+00  -4.1196675374836351e+00  -4.0515861211871940e+00  -3.9835046894933139e+00  -3.9154232737728671e+00  -3.8473418477349228e+00  -3.7792604305058743e+00  -3.7111790073048727e+00  -3.6430975887085091e+00  -3.5750161669712672e+00  -3.5069347475111532e+00  -3.4388533265182373e+00  -3.3707719065877528e+00  -3.3026904859571111e+00  -3.2346090657942730e+00  -3.1665276453303712e+00  -3.0984462250613909e+00  -3.0303648046699139e+00  -2.9622833843555947e+00  -2.8942019639938654e+00  -2.8261205436613039e+00  -2.7580391233111743e+00  -2.6899577029716104e+00  -2.6218762826258146e+00  -2.5537948622837043e+00  -2.4857134419394469e+00  -2.4176320215964342e+00  -2.3495506012527181e+00  -2.2814691809094052e+00  -2.2133877605658814e+00  -2.1453063402224579e+00  -2.0772249198789781e+00  -2.0091434995355018e+00  -1.9410620791920183e+00  -1.8729806588484177e+00  -1.8048992385047649e+00  -1.7368178181607130e+00  -1.6687363978162000e+00  -1.6006549774701482e+00  -1.5325735571213244e+00  -1.4644921367656669e+00  -1.3964107163953390e+00  -1.3283292959920312e+00  -1.2602478755139730e+00  -1.1921664548705904e+00  -1.1240850338513022e+00  -1.0560036120054073e+00  -9.8792218832183487e-01  -9.1984076069152654e-01  -8.517593246709