<?xml version="1.0"?>
<VTKFile type="UnstructuredGrid"  version="0.1"  >
<UnstructuredGrid>
<Piece  NumberOfPoints="1369" NumberOfCells="2560">
<Points>
<DataArray  type="Float64"  NumberOfComponents="3"  format="ascii">0 0 0  0.75 0 0  1.5 0 0  2.25 0 0  3 0 0  3.75 0 0  4.5 0 0  5.25 0 0  6 0 0  6.75 0 0  7.5 0 0  8.25 0 0  9 0 0  9.75 0 0  10.5 0 0  11.25 0 0  12 0 0  12.75 0 0  13.5 0 0  14.25 0 0  15 0 0  15.75 0 0  16.5 0 0  17.25 0 0  18 0 0  18.75 0 0  19.5 0 0  20.25 0 0  21 0 0  21.75 0 0  22.5 0 0  23.25 0 0  24 0 0  24.75 0 0  25.5 0 0  26.25 0 0  27 0 0  27.75 0 0  28.5 0 0  29.25 0 0  30 0 0  30.75 0 0  31.5 0 0  32.25 0 0  33 0 0  33.75 0 0  34.5 0 0  35.25 0 0  36 0 0  36.75 0 0  37.5 0 0  38.25 0 0  39 0 0  39.75 0 0  40.5 0 0  41.25 0 0  42 0 0  42.75 0 0  43.5 0 0  44.25 0 0  45 0 0  45.75 0 0  46.5 0 0  47.25 0 0  48 0 0  48.75 0 0  49.5 0 0  50.25 0 0  51 0 0  51.75 0 0  52.5 0 0  53.25 0 0  54 0 0  54.75 0 0  55.5 0 0  56.25 0 0  57 0 0  57.75 0 0  58.5 0 0  59.25 0 0  60 0 0  0 0.5 0  0.75 0.5 0  1.5 0.5 0  2.25 0.5 0  3 0.5 0  3.75 0.5 0  4.5 0.5 0  5.25 0.5 0  6 0.5 0  6.75 0.5 0  7.5 0.5 0  8.25 0.5 0  9 0.5 0  9.75 0.5 0  10.5 0.5 0  11.25 0.5 0  12 0.5 0  12.75 0.5 0  13.5 0.5 0  14.25 0.5 0  15 0.5 0  15.75 0.5 0  16.5 0.5 0  17.25 0.5 0  18 0.5 0  18.75 0.5 0  19.5 0.5 0  20.25 0.5 0  21 0.5 0  21.75 0.5 0  22.5 0.5 0  23.25 0.5 0  24 0.5 0  24.75 0.5 0  25.5 0.5 0  26.25 0.5 0  27 0.5 0  27.75 0.5 0  28.5 0.5 0  29.25 0.5 0  30 0.5 0  30.75 0.5 0  31.5 0.5 0  32.25 0.5 0  33 0.5 0  33.75 0.5 0  34.5 0.5 0  35.25 0.5 0  36 0.5 0  36.75 0.5 0  37.5 0.5 0  38.25 0.5 0  39 0.5 0  39.75 0.5 0  40.5 0.5 0  41.25 0.5 0  42 0.5 0  42.75 0.5 0  43.5 0.5 0  44.25 0.5 0  45 0.5 0  45.75 0.5 0  46.5 0.5 0  47.25 0.5 0  48 0.5 0  48.75 0.5 0  49.5 0.5 0  50.25 0.5 0  51 0.5 0  51.75 0.5 0  52.5 0.5 0  53.25 0.5 0  54 0.5 0  54.75 0.5 0  55.5 0.5 0  56.25 0.5 0  57 0.5 0  57.75 0.5 0  58.5 0.5 0  59.25 0.5 0  60 0.5 0  0 1 0  0.75 1 0  1.5 1 0  2.25 1 0  3 1 0  3.75 1 0  4.5 1 0  5.25 1 0  6 1 0  6.75 1 0  7.5 1 0  8.25 1 0  9 1 0  9.75 1 0  10.5 1 0  11.25 1 0  12 1 0  12.75 1 0  13.5 1 0  14.25 1 0  15 1 0  15.75 1 0  16.5 1 0  17.25 1 0  18 1 0  18.75 1 0  19.5 1 0  20.25 1 0  21 1 0  21.75 1 0  22.5 1 0  23.25 1 0  24 1 0  24.75 1 0  25.5 1 0  26.25 1 0  27 1 0  27.75 1 0  28.5 1 0  29.25 1 0  30 1 0  30.75 1 0  31.5 1 0  32.25 1 0  33 1 0  33.75 1 0  34.5 1 0  35.25 1 0  36 1 0  36.75 1 0  37.5 1 0  38.25 1 0  39 1 0  39.75 1 0  40.5 1 0  41.25 1 0  42 1 0  42.75 1 0  43.5 1 0  44.25 1 0  45 1 0  45.75 1 0  46.5 1 0  47.25 1 0  48 1 0  48.75 1 0  49.5 1 0  50.25 1 0  51 1 0  51.75 1 0  52.5 1 0  53.25 1 0  54 1 0  54.75 1 0  55.5 1 0  56.25 1 0  57 1 0  57.75 1 0  58.5 1 0  59.25 1 0  60 1 0  0 1.5 0  0.75 1.5 0  1.5 1.5 0  2.25 1.5 0  3 1.5 0  3.75 1.5 0  4.5 1.5 0  5.25 1.5 0  6 1.5 0  6.75 1.5 0  7.5 1.5 0  8.25 1.5 0  9 1.5 0  9.75 1.5 0  10.5 1.5 0  11.25 1.5 0  12 1.5 0  12.75 1.5 0  13.5 1.5 0  14.25 1.5 0  15 1.5 0  15.75 1.5 0  16.5 1.5 0  17.25 1.5 0  18 1.5 0  18.75 1.5 0  19.5 1.5 0  20.25 1.5 0  21 1.5 0  21.75 1.5 0  22.5 1.5 0  23.25 1.5 0  24 1.5 0  24.75 1.5 0  25.5 1.5 0  26.25 1.5 0  27 1.5 0  27.75 1.5 0  28.5 1.5 0  29.25 1.5 0  30 1.5 0  30.75 1.5 0  31.5 1.5 0  32.25 1.5 0  33 1.5 0  33.75 1.5 0  34.5 1.5 0  35.25 1.5 0  36 1.5 0  36.75 1.5 0  37.5 1.5 0  38.25 1.5 0  39 1.5 0  39.75 1.5 0  40.5 1.5 0  41.25 1.5 0  42 1.5 0  42.75 1.5 0  43.5 1.5 0  44.25 1.5 0  45 1.5 0  45.75 1.5 0  46.5 1.5 0  47.25 1.5 0  48 1.5 0  48.75 1.5 0  49.5 1.5 0  50.25 1.5 0  51 1.5 0  51.75 1.5 0  52.5 1.5 0  53.25 1.5 0  54 1.5 0  54.75 1.5 0  55.5 1.5 0  56.25 1.5 0  57 1.5 0  57.75 1.5 0  58.5 1.5 0  59.25 1.5 0  60 1.5 0  0 2 0  0.75 2 0  1.5 2 0  2.25 2 0  3 2 0  3.75 2 0  4.5 2 0  5.25 2 0  6 2 0  6.75 2 0  7.5 2 0  8.25 2 0  9 2 0  9.75 2 0  10.5 2 0  11.25 2 0  12 2 0  12.75 2 0  13.5 2 0  14.25 2 0  15 2 0  15.75 2 0  16.5 2 0  17.25 2 0  18 2 0  18.75 2 0  19.5 2 0  20.25 2 0  21 2 0  21.75 2 0  22.5 2 0  23.25 2 0  24 2 0  24.75 2 0  25.5 2 0  26.25 2 0  27 2 0  27.75 2 0  28.5 2 0  29.25 2 0  30 2 0  30.75 2 0  31.5 2 0  32.25 2 0  33 2 0  33.75 2 0  34.5 2 0  35.25 2 0  36 2 0  36.75 2 0  37.5 2 0  38.25 2 0  39 2 0  39.75 2 0  40.5 2 0  41.25 2 0  42 2 0  42.75 2 0  43.5 2 0  44.25 2 0  45 2 0  45.75 2 0  46.5 2 0  47.25 2 0  48 2 0  48.75 2 0  49.5 2 0  50.25 2 0  51 2 0  51.75 2 0  52.5 2 0  53.25 2 0  54 2 0  54.75 2 0  55.5 2 0  56.25 2 0  57 2 0  57.75 2 0  58.5 2 0  59.25 2 0  60 2 0  0 2.5 0  0.75 2.5 0  1.5 2.5 0  2.25 2.5 0  3 2.5 0  3.75 2.5 0  4.5 2.5 0  5.25 2.5 0  6 2.5 0  6.75 2.5 0  7.5 2.5 0  8.25 2.5 0  9 2.5 0  9.75 2.5 0  10.5 2.5 0  11.25 2.5 0  12 2.5 0  12.75 2.5 0  13.5 2.5 0  14.25 2.5 0  15 2.5 0  15.75 2.5 0  16.5 2.5 0  17.25 2.5 0  18 2.5 0  18.75 2.5 0  19.5 2.5 0  20.25 2.5 0  21 2.5 0  21.75 2.5 0  22.5 2.5 0  23.25 2.5 0  24 2.5 0  24.75 2.5 0  25.5 2.5 0  26.25 2.5 0  27 2.5 0  27.75 2.5 0  28.5 2.5 0  29.25 2.5 0  30 2.5 0  30.75 2.5 0  31.5 2.5 0  32.25 2.5 0  33 2.5 0  33.75 2.5 0  34.5 2.5 0  35.25 2.5 0  36 2.5 0  36.75 2.5 0  37.5 2.5 0  38.25 2.5 0  39 2.5 0  39.75 2.5 0  40.5 2.5 0  41.25 2.5 0  42 2.5 0  42.75 2.5 0  43.5 2.5 0  44.25 2.5 0  45 2.5 0  45.75 2.5 0  46.5 2.5 0  47.25 2.5 0  48 2.5 0  48.75 2.5 0  49.5 2.5 0  50.25 2.5 0  51 2.5 0  51.75 2.5 0  52.5 2.5 0  53.25 2.5 0  54 2.5 0  54.75 2.5 0  55.5 2.5 0  56.25 2.5 0  57 2.5 0  57.75 2.5 0  58.5 2.5 0  59.25 2.5 0  60 2.5 0  0 3 0  0.75 3 0  1.5 3 0  2.25 3 0  3 3 0  3.75 3 0  4.5 3 0  5.25 3 0  6 3 0  6.75 3 0  7.5 3 0  8.25 3 0  9 3 0  9.75 3 0  10.5 3 0  11.25 3 0  12 3 0  12.75 3 0  13.5 3 0  14.25 3 0  15 3 0  15.75 3 0  16.5 3 0  17.25 3 0  18 3 0  18.75 3 0  19.5 3 0  20.25 3 0  21 3 0  21.75 3 0  22.5 3 0  23.25 3 0  24 3 0  24.75 3 0  25.5 3 0  26.25 3 0  27 3 0  27.75 3 0  28.5 3 0  29.25 3 0  30 3 0  30.75 3 0  31.5 3 0  32.25 3 0  33 3 0  33.75 3 0  34.5 3 0  35.25 3 0  36 3 0  36.75 3 0  37.5 3 0  38.25 3 0  39 3 0  39.75 3 0  40.5 3 0  41.25 3 0  42 3 0  42.75 3 0  43.5 3 0  44.25 3 0  45 3 0  45.75 3 0  46.5 3 0  47.25 3 0  48 3 0  48.75 3 0  49.5 3 0  50.25 3 0  51 3 0  51.75 3 0  52.5 3 0  53.25 3 0  54 3 0  54.75 3 0  55.5 3 0  56.25 3 0  57 3 0  57.75 3 0  58.5 3 0  59.25 3 0  60 3 0  0 3.5 0  0.75 3.5 0  1.5 3.5 0  2.25 3.5 0  3 3.5 0  3.75 3.5 0  4.5 3.5 0  5.25 3.5 0  6 3.5 0  6.75 3.5 0  7.5 3.5 0  8.25 3.5 0  9 3.5 0  9.75 3.5 0  10.5 3.5 0  11.25 3.5 0  12 3.5 0  12.75 3.5 0  13.5 3.5 0  14.25 3.5 0  15 3.5 0  15.75 3.5 0  16.5 3.5 0  17.25 3.5 0  18 3.5 0  18.75 3.5 0  19.5 3.5 0  20.25 3.5 0  21 3.5 0  21.75 3.5 0  22.5 3.5 0  23.25 3.5 0  24 3.5 0  24.75 3.5 0  25.5 3.5 0  26.25 3.5 0  27 3.5 0  27.75 3.5 0  28.5 3.5 0  29.25 3.5 0  30 3.5 0  30.75 3.5 0  31.5 3.5 0  32.25 3.5 0  33 3.5 0  33.75 3.5 0  34.5 3.5 0  35.25 3.5 0  36 3.5 0  36.75 3.5 0  37.5 3.5 0  38.25 3.5 0  39 3.5 0  39.75 3.5 0  40.5 3.5 0  41.25 3.5 0  42 3.5 0  42.75 3.5 0  43.5 3.5 0  44.25 3.5 0  45 3.5 0  45.75 3.5 0  46.5 3.5 0  47.25 3.5 0  48 3.5 0  48.75 3.5 0  49.5 3.5 0  50.25 3.5 0  51 3.5 0  51.75 3.5 0  52.5 3.5 0  53.25 3.5 0  54 3.5 0  54.75 3.5 0  55.5 3.5 0  56.25 3.5 0  57 3.5 0  57.75 3.5 0  58.5 3.5 0  59.25 3.5 0  60 3.5 0  0 4 0  0.75 4 0  1.5 4 0  2.25 4 0  3 4 0  3.75 4 0  4.5 4 0  5.25 4 0  6 4 0  6.75 4 0  7.5 4 0  8.25 4 0  9 4 0  9.75 4 0  10.5 4 0  11.25 4 0  12 4 0  12.75 4 0  13.5 4 0  14.25 4 0  15 4 0  15.75 4 0  16.5 4 0  17.25 4 0  18 4 0  18.75 4 0  19.5 4 0  20.25 4 0  21 4 0  21.75 4 0  22.5 4 0  23.25 4 0  24 4 0  24.75 4 0  25.5 4 0  26.25 4 0  27 4 0  27.75 4 0  28.5 4 0  29.25 4 0  30 4 0  30.75 4 0  31.5 4 0  32.25 4 0  33 4 0  33.75 4 0  34.5 4 0  35.25 4 0  36 4 0  36.75 4 0  37.5 4 0  38.25 4 0  39 4 0  39.75 4 0  40.5 4 0  41.25 4 0  42 4 0  42.75 4 0  43.5 4 0  44.25 4 0  45 4 0  45.75 4 0  46.5 4 0  47.25 4 0  48 4 0  48.75 4 0  49.5 4 0  50.25 4 0  51 4 0  51.75 4 0  52.5 4 0  53.25 4 0  54 4 0  54.75 4 0  55.5 4 0  56.25 4 0  57 4 0  57.75 4 0  58.5 4 0  59.25 4 0  60 4 0  0.375 0.25 0  1.125 0.25 0  1.875 0.25 0  2.625 0.25 0  3.375 0.25 0  4.125 0.25 0  4.875 0.25 0  5.625 0.25 0  6.375 0.25 0  7.125 0.25 0  7.875 0.25 0  8.625 0.25 0  9.375 0.25 0  10.125 0.25 0  10.875 0.25 0  11.625 0.25 0  12.375 0.25 0  13.125 0.25 0  13.875 0.25 0  14.625 0.25 0  15.375 0.25 0  16.125 0.25 0  16.875 0.25 0  17.625 0.25 0  18.375 0.25 0  19.125 0.25 0  19.875 0.25 0  20.625 0.25 0  21.375 0.25 0  22.125 0.25 0  22.875 0.25 0  23.625 0.25 0  24.375 0.25 0  25.125 0.25 0  25.875 0.25 0  26.625 0.25 0  27.375 0.25 0  28.125 0.25 0  28.875 0.25 0  29.625 0.25 0  30.375 0.25 0  31.125 0.25 0  31.875 0.25 0  32.625 0.25 0  33.375 0.25 0  34.125 0.25 0  34.875 0.25 0  35.625 0.25 0  36.375 0.25 0  37.125 0.25 0  37.875 0.25 0  38.625 0.25 0  39.375 0.25 0  40.125 0.25 0  40.875 0.25 0  41.625 0.25 0  42.375 0.25 0  43.125 0.25 0  43.875 0.25 0  44.625 0.25 0  45.375 0.25 0  46.125 0.25 0  46.875 0.25 0  47.625 0.25 0  48.375 0.25 0  49.125 0.25 0  49.875 0.25 0  50.625 0.25 0  51.375 0.25 0  52.125 0.25 0  52.875 0.25 0  53.625 0.25 0  54.375 0.25 0  55.125 0.25 0  55.875 0.25 0  56.625 0.25 0  57.375 0.25 0  58.125 0.25 0  58.875 0.25 0  59.625 0.25 0  0.375 0.75 0  1.125 0.75 0  1.875 0.75 0  2.625 0.75 0  3.375 0.75 0  4.125 0.75 0  4.875 0.75 0  5.625 0.75 0  6.375 0.75 0  7.125 0.75 0  7.875 0.75 0  8.625 0.75 0  9.375 0.75 0  10.125 0.75 0  10.875 0.75 0  11.625 0.75 0  12.375 0.75 0  13.125 0.75 0  13.875 0.75 0  14.625 0.75 0  15.375 0.75 0  16.125 0.75 0  16.875 0.75 0  17.625 0.75 0  18.375 0.75 0  19.125 0.75 0  19.875 0.75 0  20.625 0.75 0  21.375 0.75 0  22.125 0.75 0  22.875 0.75 0  23.625 0.75 0  24.375 0.75 0  25.125 0.75 0  25.875 0.75 0  26.625 0.75 0  27.375 0.75 0  28.125 0.75 0  28.875 0.75 0  29.625 0.75 0  30.375 0.75 0  31.125 0.75 0  31.875 0.75 0  32.625 0.75 0  33.375 0.75 0  34.125 0.75 0  34.875 0.75 0  35.625 0.75 0  36.375 0.75 0  37.125 0.75 0  37.875 0.75 0  38.625 0.75 0  39.375 0.75 0  40.125 0.75 0  40
[...]
<PointData  Scalars="f_8-1"> 
<DataArray  type="Float64"  Name="f_8-1"  format="ascii">-1.1849604379766889e+01  -1.1703875047096234e+01  -1.1555958633894534e+01  -1.1408052782738199e+01  -1.1260113584625122e+01  -1.1112108051818053e+01  -1.0964028970119470e+01  -1.0815890924290533e+01  -1.0667712612023747e+01  -1.0519513495268352e+01  -1.0371305806238261e+01  -1.0223097579992599e+01  -1.0074891596288991e+01  -9.9266893086256509e+00  -9.7784906084579628e+00  -9.6302952728750633e+00  -9.4821029351080170e+00  -9.3339141575681897e+00  -9.1857298270354839e+00  -9.0375507201509961e+00  -8.8893768027611895e+00  -8.7412073993769948e+00  -8.5930414339552783e+00  -8.4448778733576919e+00  -8.2967158776091949e+00  -8.1485548856721746e+00  -8.0003945374720420e+00  -7.8522346243265240e+00  -7.7040750131511277e+00  -7.5559156184285605e+00  -7.4077563733705061e+00  -7.2595972286495671e+00  -7.1114381479046935e+00  -6.9632791113189088e+00  -6.8151201120759239e+00  -6.6669611548840155e+00  -6.5188022521240292e+00  -6.3706434227456805e+00  -6.2224846901137738e+00  -6.0743260796615655e+00  -5.9261676144196986e+00  -5.7780093102163113e+00  -5.6298511714036943e+00  -5.4816931889564771e+00  -5.3335353411942652e+00  -5.1853775969493112e+00  -5.0372199200293348e+00  -4.8890622738833498e+00  -4.7409046254765377e+00  -4.5927469478816692e+00  -4.4445892214740219e+00  -4.2964314339380296e+00  -4.1482735794430639e+00  -4.0001156573613610e+00  -3.8519576708527290e+00  -3.7037996255308805e+00  -3.5556415283451224e+00  -3.4074833867181438e+00  -3.2593252079414139e+00  -3.1111669987877750e+00  -2.9630087652992780e+00  -2.8148505126990586e+00  -2.6666922453891910e+00  -2.5185339669984090e+00  -2.3703756804582241e+00  -2.2222173880820288e+00  -2.0740590916633472e+00  -1.9259007924199614e+00  -1.7777424915082518e+00  -1.6295841871687455e+00  -1.4814258868701629e+00  -1.3332675431045051e+00  -1.1851093371487922e+00  -1.0369503278142156e+00  -8.8879429355388839e-01  -7.4062439492309029e-01  -5.9250457904760090e-01  -4.4419085894958787e-01  -2.9648133301997387e-01  -1.4689843952532436e-01  -2.0763393403536515e-03  -1.1852171321379455e+01  -1.1703817618785743e+01  -1.1555912320529542e+01  -1.1407992760168979e+01  -1.1260056395602998e+01  -1.1112058550042409e+01  -1.0963986943651387e+01  -1.0815853280550018e+01  -1.0667677628648264e+01  -1.0519479218283120e+01  -1.0371271809883886e+01  -1.0223063395870543e+01  -1.0074857301534310e+01  -9.9266547071786295e+00  -9.7784558870809200e+00  -9.6302603861327540e+00  -9.4820677855356035e+00  -9.3338784792189173e+00  -9.1856935475968253e+00  -9.0375138824415373e+00  -8.8893395880461128e+00  -8.7411699597250294e+00  -8.5930038945879854e+00  -8.4448402879144577e+00  -8.2966782757304962e+00  -8.1485172703704531e+00  -8.0003569131500587e+00  -7.8521969899537147e+00  -7.7040373727662486e+00  -7.5558779744609179e+00  -7.4077187303279288e+00  -7.2595595883462893e+00  -7.1114005115527608e+00  -6.9632414779028053e+00  -6.8150824802936638e+00  -6.6669235223971111e+00  -6.5187646162569433e+00  -6.3706057799112203e+00  -6.2224470365097693e+00  -6.0742884116577436e+00  -5.9261299295550449e+00  -5.7779716076366592e+00  -5.6298134521358696e+00  -5.4816554555679913e+00  -5.3334975972915322e+00  -5.1853398464893496e+00  -5.0371821667760379e+00  -4.8890245209929475e+00  -4.7408668753164820e+00  -4.5927092019964020e+00  -4.4445514806827191e+00  -4.2963936984811726e+00  -4.1482358491509821e+00  -4.0000779318038218e+00  -3.8519199494623741e+00  -3.7037619076924782e+00  -3.5556038134554671e+00  -3.4074456742216843e+00  -3.2592874973478168e+00  -3.1111292896778702e+00  -2.9629710573231023e+00  -2.8148128055703414e+00  -2.6666545388776646e+00  -2.5184962609224839e+00  -2.3703379746768611e+00  -2.2221796824940885e+00  -2.0740213861793344e+00  -1.9258630870901319e+00  -1.7777047859138226e+00  -1.6295464835468947e+00  -1.4813881754340106e+00  -1.3332298728181962e+00  -1.1850714910978450e+00  -1.0369132931377969e+00  -8.8875389384858605e-01  -7.4059783293468551e-01  -5.9242611985874405e-01  -4.4429433931065654e-01  -2.9601845581069897e-01  -1.4797807756444764e-01  6.2704382132287742e-04  -1.1852325189309576e+01  -1.1703944318396614e+01  -1.1555918776986944e+01  -1.1407978232656845e+01  -1.1260039263680726e+01  -1.1112042665168463e+01  -1.0963973294836400e+01  -1.0815841457573146e+01  -1.0667666454513265e+01  -1.0519468716426891e+01  -1.0371261238122042e+01  -1.0223053269261099e+01  -1.0074847232202641e+01  -9.9266446291397248e+00  -9.7784457157833877e+00  -9.6302503134364414e+00  -9.4820574761055862e+00  -9.3338676152930233e+00  -9.1856819345275653e+00  -9.0375016949564433e+00  -8.8893270754838642e+00  -8.7411573733090879e+00  -8.5929913487361382e+00  -8.4448278267652643e+00  -8.2966658796137178e+00  -8.1485049192605779e+00  -8.0003445830532467e+00  -7.8521846715169001e+00  -7.7040250592305872e+00  -7.5558656670050564e+00  -7.4077064293171695e+00  -7.2595472950876987e+00  -7.1113882243221198e+00  -6.9632291946868525e+00  -6.8150701980803303e+00  -6.6669112387168141e+00  -6.5187523281046458e+00  -6.3705934840898095e+00  -6.2224347294027842e+00  -6.0742760902817574e+00  -5.9261175922120470e+00  -5.7779592546389997e+00  -5.6298010856917724e+00  -5.4816430793452744e+00  -5.3334852155704331e+00  -5.1853274634175213e+00  -5.0371697857644211e+00  -4.8890121444426136e+00  -4.7408545045742834e+00  -4.5926968375119728e+00  -4.4445391222379405e+00  -4.2963813454423834e+00  -4.1482235006793324e+00  -4.0000655870152650e+00  -3.8519076075274659e+00  -3.7037495678908039e+00  -3.5555914751942725e+00  -3.4074333370335288e+00  -3.2592751608762605e+00  -3.1111169536586432e+00  -2.9629587215651290e+00  -2.8148004699386493e+00  -2.6666422032796468e+00  -2.5184839252971241e+00  -2.3703256389878620e+00  -2.2221673467242526e+00  -2.0740090503415809e+00  -1.9258507512001968e+00  -1.7776924502602920e+00  -1.6295341478419947e+00  -1.4813758442220566e+00  -1.3332175347643767e+00  -1.1850592247939842e+00  -1.0369008490119660e+00  -8.8874254669848807e-01  -7.4058350587017063e-01  -5.9242565071803388e-01  -4.4426160838229589e-01  -2.9610240190895859e-01  -1.4797836381050167e-01  -5.9299927215767542e-06  -1.1852245976357517e+01  -1.1704052668829441e+01  -1.1555981135194152e+01  -1.1408008206709285e+01  -1.1260046146995657e+01  -1.1112039528589495e+01  -1.0963973503362459e+01  -1.0815846376231200e+01  -1.0667679599737289e+01  -1.0519486308676887e+01  -1.0371283186006387e+01  -1.0223076461424816e+01  -1.0074871846441503e+01  -9.9266692527197442e+00  -9.7784705497793070e+00  -9.6302749356970203e+00  -9.4820823722142915e+00  -9.3338925748032846e+00  -9.1857069315955577e+00  -9.0375263614442556e+00  -8.8893513496296777e+00  -8.7411811791673273e+00  -8.5930148130525232e+00  -8.4448510245068640e+00  -8.2966889289156214e+00  -8.1485278667049421e+00  -8.0003674796298814e+00  -7.8522075285485826e+00  -7.7040478938550834e+00  -7.5558884803748292e+00  -7.4077292296784769e+00  -7.2595700849327853e+00  -7.1114110102034189e+00  -6.9632519791818615e+00  -6.8150929847028525e+00  -6.6669340285169394e+00  -6.5187751226591883e+00  -6.3706162836292775e+00  -6.2224575337443895e+00  -6.0742988975400953e+00  -5.9261403994517075e+00  -5.7779820579304939e+00  -5.6298238812289094e+00  -5.4816658640535865e+00  -5.3335079877954144e+00  -5.1853502230019579e+00  -5.0371925339251282e+00  -4.8890348833286739e+00  -4.7408772368121612e+00  -4.5927195657598006e+00  -4.4445618488772149e+00  -4.2964040723907155e+00  -4.1482462293295654e+00  -4.0000883182580340e+00  -3.8519303418266406e+00  -3.7037723053808440e+00  -3.5556142157768265e+00  -3.4074560804635707e+00  -3.2592979068289027e+00  -3.1111397017796829e+00  -2.9629814715035381e+00  -2.8148232213678090e+00  -2.6666649559072231e+00  -2.5185066788697039e+00  -2.3703483932900715e+00  -2.2221901015767358e+00  -2.0740318055950886e+00  -1.9258735067401391e+00  -1.7777152059740100e+00  -1.6295569038347422e+00  -1.4813986002278494e+00  -1.3332402946375930e+00  -1.1850819844217386e+00  -1.0369236749624131e+00  -8.8876536940742268e-01  -7.4060725738882616e-01  -5.9244970553877474e-01  -4.4429583924612309e-01  -2.9615450858255066e-01  -1.4806831863530026e-01  1.1821683056602579e-05  -1.1852257709757803e+01  -1.1704067547386318e+01  -1.1556001020390632e+01  -1.1408008953154773e+01  -1.1260034653382476e+01  -1.1112026306522319e+01  -1.0963957771842775e+01  -1.0815836436471447e+01  -1.0667670900914420e+01  -1.0519482066856686e+01  -1.0371279432410240e+01  -1.0223074522448808e+01  -1.0074869513247480e+01  -9.9266676435446222e+00  -9.7784685404990199e+00  -9.6302731283518543e+00  -9.4820804054967791e+00  -9.3338909812155251e+00  -9.1857054262642528e+00  -9.0375249730452101e+00  -8.8893497553915601e+00  -8.7411793876630881e+00  -8.5930127453260603e+00  -8.4448487869547080e+00  -8.2966865435482173e+00  -8.1485254135387262e+00  -8.0003649702929494e+00  -7.8522049973634189e+00  -7.7040453392435664e+00  -7.5558859151806983e+00  -7.4077266509450874e+00  -7.2595674998032553e+00  -7.1114084188635607e+00  -6.9632493869144714e+00  -6.8150903923248931e+00  -6.6669314388270093e+00  -6.5187725360572477e+00  -6.3706137016169597e+00  -6.2224549564078995e+00  -6.0742963248876247e+00  -5.9261378299795284e+00  -5.7779794895415293e+00  -5.6298213110667614e+00  -5.4816632894939188e+00  -5.3335054067087810e+00  -5.1853476342709186e+00  -5.0371899373885274e+00  -4.8890322797163126e+00  -4.7408746274149829e+00  -4.5927169521607354e+00  -4.4445592326628365e+00  -4.2964014549788958e+00  -4.1482436118558041e+00  -4.0000857015490814e+00  -3.8519277264145440e+00  -3.7037696915512730e+00  -3.5556116036256631e+00  -3.4074534699534116e+00  -3.2592952978382597e+00  -3.1111370941406005e+00  -2.9629788650303479e+00  -2.8148206158748272e+00  -2.6666623512209502e+00  -2.5185040748338037e+00  -2.3703457897681606e+00  -2.2221874984510057e+00  -2.0740292027640468e+00  -1.9258709041111077e+00  -1.7777126034567581e+00  -1.6295543013058642e+00  -1.4813959976166455e+00  -1.3332376917029969e+00  -1.1850793832240341e+00  -1.0369210781042637e+00  -8.8876282246231419e-01  -7.4060483516515752e-01  -5.9244809674976817e-01  -4.4429642348499526e-01  -2.9616353422899472e-01  -1.4806775082787207e-01  -4.8426468207724729e-06  -1.1852245976357519e+01  -1.1704052668829428e+01  -1.1555981135194191e+01  -1.1408008206709297e+01  -1.1260046146995693e+01  -1.1112039528589525e+01  -1.0963973503362501e+01  -1.0815846376231205e+01  -1.0667679599737294e+01  -1.0519486308676864e+01  -1.0371283186006329e+01  -1.0223076461424808e+01  -1.0074871846441523e+01  -9.9266692527197602e+00  -9.7784705497793816e+00  -9.6302749356969901e+00  -9.4820823722142897e+00  -9.3338925748032651e+00  -9.1857069315955435e+00  -9.0375263614442520e+00  -8.8893513496296652e+00  -8.7411811791672953e+00  -8.5930148130524735e+00  -8.4448510245068373e+00  -8.2966889289155858e+00  -8.1485278667048959e+00  -8.0003674796298654e+00  -7.8522075285485409e+00  -7.7040478938550763e+00  -7.5558884803748647e+00  -7.4077292296785044e+00  -7.2595700849328111e+00  -7.1114110102034278e+00  -6.9632519791818854e+00  -6.8150929847029058e+00  -6.6669340285169651e+00  -6.5187751226592177e+00  -6.3706162836293068e+00  -6.2224575337444090e+00  -6.0742988975401211e+00  -5.9261403994517448e+00  -5.7779820579305117e+00  -5.6298238812289165e+00  -5.4816658640535643e+00  -5.3335079877954072e+00  -5.1853502230019552e+00  -5.0371925339251042e+00  -4.8890348833286650e+00  -4.7408772368121497e+00  -4.5927195657597899e+00  -4.4445618488772078e+00  -4.2964040723907093e+00  -4.1482462293295619e+00  -4.0000883182580331e+00  -3.8519303418266366e+00  -3.7037723053808489e+00  -3.5556142157768260e+00  -3.4074560804635716e+00  -3.2592979068288965e+00  -3.1111397017796842e+00  -2.9629814715035447e+00  -2.8148232213678153e+00  -2.6666649559072337e+00  -2.5185066788697088e+00  -2.3703483932900755e+00  -2.2221901015767425e+00  -2.0740318055950939e+00  -1.9258735067401511e+00  -1.7777152059740109e+00  -1.6295569038347439e+00  -1.4813986002278501e+00  -1.3332402946375965e+00  -1.1850819844217433e+00  -1.0369236749624142e+00  -8.8876536940741868e-01  -7.4060725738882782e-01  -5.9244970553877285e-01  -4.4429583924612337e-01  -2.9615450858254316e-01  -1.4806831863530159e-01  1.1821683057969686e-05  -1.1852325189309564e+01  -1.1703944318396610e+01  -1.1555918776987033e+01  -1.1407978232656864e+01  -1.1260039263680808e+01  -1.1112042665168506e+01  -1.0963973294836467e+01  -1.0815841457573161e+01  -1.0667666454513238e+01  -1.0519468716426763e+01  -1.0371261238121964e+01  -1.0223053269261104e+01  -1.0074847232202675e+01  -9.9266446291397337e+00  -9.7784457157835671e+00  -9.6302503134363899e+00  -9.4820574761055685e+00  -9.3338676152930002e+00  -9.1856819345275404e+00  -9.0375016949564397e+00  -8.8893270754838163e+00  -8.7411573733090293e+00  -8.5929913487360494e+00  -8.4448278267652359e+00  -8.2966658796136485e+00  -8.1485049192604997e+00  -8.0003445830532254e+00  -7.8521846715167962e+00  -7.7040250592306059e+00  -7.5558656670051372e+00  -7.4077064293172104e+00  -7.2595472950877458e+00  -7.1113882243221127e+00  -6.9632291946868827e+00  -6.8150701980804627e+00  -6.6669112387168523e+00  -6.5187523281047071e+00  -6.3705934840898637e+00  -6.2224347294028197e+00  -6.0742760902818000e+00  -5.9261175922121314e+00  -5.7779592546390299e+00  -5.6298010856917617e+00  -5.4816430793452202e+00  -5.3334852155704278e+00  -5.1853274634175026e+00  -5.0371697857643847e+00  -4.8890121444426109e+00  -4.7408545045742798e+00  -4.5926968375119577e+00  -4.4445391222379378e+00  -4.2963813454423763e+00  -4.1482235006793120e+00  -4.0000655870152642e+00  -3.8519076075274494e+00  -3.7037495678908305e+00  -3.5555914751942819e+00  -3.4074333370335301e+00  -3.2592751608762462e+00  -3.1111169536586472e+00  -2.9629587215651378e+00  -2.8148004699386675e+00  -2.6666422032796686e+00  -2.5184839252971294e+00  -2.3703256389878833e+00  -2.2221673467242700e+00  -2.0740090503415995e+00  -1.9258507512002074e+00  -1.7776924502602964e+00  -1.6295341478420000e+00  -1.4813758442220573e+00  -1.3332175347643829e+00  -1.1850592247939939e+00  -1.0369008490119658e+00  -8.8874254669848485e-01  -7.4058350587015842e-01  -5.9242565071804842e-01  -4.4426160838230383e-01  -2.9610240190896159e-01  -1.4797836381050011e-01  -5.9299927220118208e-06  -1.1852171321379465e+01  -1.1703817618785756e+01  -1.1555912320529593e+01  -1.1407992760169005e+01  -1.1260056395603087e+01  -1.1112058550042443e+01  -1.0963986943651440e+01  -1.0815853280550035e+01  -1.0667677628648233e+01  -1.0519479218283195e+01  -1.0371271809883885e+01  -1.0223063395870579e+01  -1.0074857301534319e+01  -9.9266547071786739e+00  -9.7784558870809484e+00  -9.6302603861327789e+00  -9.4820677855355857e+00  -9.3338784792189351e+00  -9.1856935475968289e+00  -9.0375138824415071e+00  -8.8893395880460684e+00  -8.7411699597249921e+00  -8.5930038945879996e+00  -8.4448402879144258e+00  -8.2966782757304571e+00  -8.1485172703704372e+00  -8.0003569131500480e+00  -7.8521969899536739e+00  -7.7040373727662379e+00  -7.5558779744608868e+00  -7.4077187303279564e+00  -7.2595595883463355e+00  -7.1114005115528043e+00  -6.9632414779028196e+00  -6.8150824802936754e+00  -6.6669235223971475e+00  -6.5187646162570010e+00  -6.3706057799112692e+00  -6.2224470365098092e+00  -6.0742884116577907e+00  -5.9261299295550787e+00  -5.7779716076366805e+00  -5.6298134521358767e+00  -5.4816554555679700e+00  -5.3334975972915108e+00  -5.1853398464893301e+00  -5.0371821667760468e+00  -4.8890245209929297e+00  -4.7408668753164882e+00  -4.5927092019963940e+00  -4.4445514806827138e+00  -4.2963936984811548e+00  -4.1482358491509448e+00  -4.0000779318038058e+00  -3.8519199494623577e+00  -3.7037619076924684e+00  -3.5556038134554697e+00  -3.4074456742216870e+00  -3.2592874973478172e+00  -3.1111292896778782e+00  -2.9629710573231063e+00  -2.8148128055703703e+00  -2.6666545388776952e+00  -2.5184962609225008e+00  -2.3703379746768816e+00  -2.2221796824941040e+00  -2.0740213861793504e+00  -1.9258630870901410e+00  -1.7777047859138311e+00  -1.6295464835468971e+00  -1.4813881754340128e+00  -1.3332298728181982e+00  -1.1850714910978493e+00  -1.0369132931377956e+00  -8.8875389384858217e-01  -7.4059783293467862e-01  -5.9242611985875526e-01  -4.4429433931066536e-01  -2.9601845581070119e-01  -1.4797807756444828e-01  6.2704382132320094e-04  -1.1849604379766891e+01  -1.1703875047096242e+01  -1.1555958633894564e+01  -1.1408052782738251e+01  -1.1260113584625193e+01  -1.1112108051818101e+01  -1.0964028970119520e+01  -1.0815890924290555e+01  -1.0667712612023776e+01  -1.0519513495268370e+01  -1.0371305806238215e+01  -1.0223097579992634e+01  -1.0074891596289010e+01  -9.9266893086257308e+00  -9.7784906084579699e+00  -9.6302952728750846e+00  -9.4821029351080259e+00  -9.3339141575682181e+00  -9.1857298270354857e+00  -9.0375507201510032e+00  -8.8893768027611895e+00  -8.7412073993769948e+00  -8.5930414339552943e+00  -8.4448778733576546e+00  -8.2967158776091718e+00  -8.1485548856721550e+00  -8.0003945374720296e+00  -7.8522346243264964e+00  -7.7040750131511118e+00  -7.5559156184285143e+00  -7.4077563733705274e+00  -7.2595972286496320e+00  -7.1114381479047433e+00  -6.9632791113189256e+00  -6.8151201120759399e+00  -6.6669611548840315e+00  -6.5188022521240896e+00  -6.3706434227457356e+00  -6.2224846901138129e+00  -6.0743260796616081e+00  -5.9261676144197439e+00  -5.7780093102163415e+00  -5.6298511714036774e+00  -5.4816931889564673e+00  -5.3335353411942377e+00  -5.1853775969492828e+00  -5.0372199200293393e+00  -4.8890622738833471e+00  -4.7409046254765448e+00  -4.5927469478816647e+00  -4.4445892214740237e+00  -4.2964314339379976e+00  -4.1482735794430274e+00  -4.0001156573613352e+00  -3.8519576708527143e+00  -3.7037996255308721e+00  -3.5556415283451179e+00  -3.4074833867181478e+00  -3.2593252079414210e+00  -3.1111669987877826e+00  -2.9630087652992869e+00  -2.8148505126990897e+00  -2.6666922453892119e+00  -2.5185339669984237e+00  -2.3703756804582441e+00  -2.2222173880820519e+00  -2.0740590916633632e+00  -1.9259007924199729e+00  -1.7777424915082565e+00  -1.6295841871687473e+00  -1.4814258868701677e+00  -1.3332675431045053e+00  -1.1851093371487949e+00  -1.0369503278142169e+00  -8.8879429355388417e-01  -7.4062439492308829e-01  -5.9250457904761222e-01  -4.4419085894959442e-01  -2.9648133301997753e-01  -1.4689843952532483e-01  -2.0763393403535830e-03  -1.1777603847938797e+01  -1.1629822470565802e+01  -1.1481908284022952e+01  -1.1333981766604944e+01  -1.1186011524099186e+01  -1.1037973996131139e+01  -1.0889868662024790e+01  -1.0741713160522576e+01  -1.0593525433655035e+01  -1.0445322673520097e+01  -1.0297114742600629e+01  -1.0148907735013363e+01  -1.0000703415710264e+01  -9.8525028640463930e+00  -9.7043057644708224e+00  -9.5561118771314053e+00  -9.4079210889544136e+00  -9.2597342184358862e+00  -9.1115521403203665e+00  -8.9633753533339053e+00  -8.8152035052552069e+00  -8.6670357258047357e+00  -8.5188709142632781e+00  -8.3707081172946811e+00  -8.2225466114131844e+00  -8.0743859344541171e+00  -7.9262257965557152e+00  -7.7780660294381381e+00  -7.6299065227840437e+00  -7.4817472020453133e+00  -7.3335880080184612e+00  -7.1854288975070135e+00  -7.0372698410897483e+00  -6.8891108250262647e+00  -6.7409518477088186e+00  -6.5927929174225435e+00  -6.4446340493244829e+00  -6.2964752641769905e+00  -6.1483165861941513e+00  -6.0001580398995520e+00  -5.8519996454577834e+00  -5.7038414139723184e+00  -5.5556833441443239e+00  -5.4075254214400994e+00  -5.2593676199213606e+00  -5.1112099060239773e+00  -4.9630522432044071e+00  -4.8148945963009426e+00  -4.6667369348888519e+00  -4.5185792352480183e+00  -4.3704214810287247e+00  -4.2222636628601000e+00  -4.0741057773073193e+00  -3.9259478255069942e+00  -3.7777898117810174e+00  -3.6296317423894271e+00  -3.4814736245276987e+00  -3.3333154655787514e+00  -3.1851572726098674e+00  -3.0369990520655352e+00  -2.8888408096147709e+00  -2.7406825501031493e+00  -2.5925242775754871e+00  -2.4443659953368990e+00  -2.2962077060325030e+00  -2.1480494117283078e+00  -1.9998911139730131e+00  -1.85173281382565