<?xml version="1.0"?>
<VTKFile type="UnstructuredGrid"  version="0.1"  >
<UnstructuredGrid>
<Piece  NumberOfPoints="1369" NumberOfCells="2560">
<Points>
<DataArray  type="Float64"  NumberOfComponents="3"  format="ascii">0 0 0  0.75 0 0  1.5 0 0  2.25 0 0  3 0 0  3.75 0 0  4.5 0 0  5.25 0 0  6 0 0  6.75 0 0  7.5 0 0  8.25 0 0  9 0 0  9.75 0 0  10.5 0 0  11.25 0 0  12 0 0  12.75 0 0  13.5 0 0  14.25 0 0  15 0 0  15.75 0 0  16.5 0 0  17.25 0 0  18 0 0  18.75 0 0  19.5 0 0  20.25 0 0  21 0 0  21.75 0 0  22.5 0 0  23.25 0 0  24 0 0  24.75 0 0  25.5 0 0  26.25 0 0  27 0 0  27.75 0 0  28.5 0 0  29.25 0 0  30 0 0  30.75 0 0  31.5 0 0  32.25 0 0  33 0 0  33.75 0 0  34.5 0 0  35.25 0 0  36 0 0  36.75 0 0  37.5 0 0  38.25 0 0  39 0 0  39.75 0 0  40.5 0 0  41.25 0 0  42 0 0  42.75 0 0  43.5 0 0  44.25 0 0  45 0 0  45.75 0 0  46.5 0 0  47.25 0 0  48 0 0  48.75 0 0  49.5 0 0  50.25 0 0  51 0 0  51.75 0 0  52.5 0 0  53.25 0 0  54 0 0  54.75 0 0  55.5 0 0  56.25 0 0  57 0 0  57.75 0 0  58.5 0 0  59.25 0 0  60 0 0  0 0.5 0  0.75 0.5 0  1.5 0.5 0  2.25 0.5 0  3 0.5 0  3.75 0.5 0  4.5 0.5 0  5.25 0.5 0  6 0.5 0  6.75 0.5 0  7.5 0.5 0  8.25 0.5 0  9 0.5 0  9.75 0.5 0  10.5 0.5 0  11.25 0.5 0  12 0.5 0  12.75 0.5 0  13.5 0.5 0  14.25 0.5 0  15 0.5 0  15.75 0.5 0  16.5 0.5 0  17.25 0.5 0  18 0.5 0  18.75 0.5 0  19.5 0.5 0  20.25 0.5 0  21 0.5 0  21.75 0.5 0  22.5 0.5 0  23.25 0.5 0  24 0.5 0  24.75 0.5 0  25.5 0.5 0  26.25 0.5 0  27 0.5 0  27.75 0.5 0  28.5 0.5 0  29.25 0.5 0  30 0.5 0  30.75 0.5 0  31.5 0.5 0  32.25 0.5 0  33 0.5 0  33.75 0.5 0  34.5 0.5 0  35.25 0.5 0  36 0.5 0  36.75 0.5 0  37.5 0.5 0  38.25 0.5 0  39 0.5 0  39.75 0.5 0  40.5 0.5 0  41.25 0.5 0  42 0.5 0  42.75 0.5 0  43.5 0.5 0  44.25 0.5 0  45 0.5 0  45.75 0.5 0  46.5 0.5 0  47.25 0.5 0  48 0.5 0  48.75 0.5 0  49.5 0.5 0  50.25 0.5 0  51 0.5 0  51.75 0.5 0  52.5 0.5 0  53.25 0.5 0  54 0.5 0  54.75 0.5 0  55.5 0.5 0  56.25 0.5 0  57 0.5 0  57.75 0.5 0  58.5 0.5 0  59.25 0.5 0  60 0.5 0  0 1 0  0.75 1 0  1.5 1 0  2.25 1 0  3 1 0  3.75 1 0  4.5 1 0  5.25 1 0  6 1 0  6.75 1 0  7.5 1 0  8.25 1 0  9 1 0  9.75 1 0  10.5 1 0  11.25 1 0  12 1 0  12.75 1 0  13.5 1 0  14.25 1 0  15 1 0  15.75 1 0  16.5 1 0  17.25 1 0  18 1 0  18.75 1 0  19.5 1 0  20.25 1 0  21 1 0  21.75 1 0  22.5 1 0  23.25 1 0  24 1 0  24.75 1 0  25.5 1 0  26.25 1 0  27 1 0  27.75 1 0  28.5 1 0  29.25 1 0  30 1 0  30.75 1 0  31.5 1 0  32.25 1 0  33 1 0  33.75 1 0  34.5 1 0  35.25 1 0  36 1 0  36.75 1 0  37.5 1 0  38.25 1 0  39 1 0  39.75 1 0  40.5 1 0  41.25 1 0  42 1 0  42.75 1 0  43.5 1 0  44.25 1 0  45 1 0  45.75 1 0  46.5 1 0  47.25 1 0  48 1 0  48.75 1 0  49.5 1 0  50.25 1 0  51 1 0  51.75 1 0  52.5 1 0  53.25 1 0  54 1 0  54.75 1 0  55.5 1 0  56.25 1 0  57 1 0  57.75 1 0  58.5 1 0  59.25 1 0  60 1 0  0 1.5 0  0.75 1.5 0  1.5 1.5 0  2.25 1.5 0  3 1.5 0  3.75 1.5 0  4.5 1.5 0  5.25 1.5 0  6 1.5 0  6.75 1.5 0  7.5 1.5 0  8.25 1.5 0  9 1.5 0  9.75 1.5 0  10.5 1.5 0  11.25 1.5 0  12 1.5 0  12.75 1.5 0  13.5 1.5 0  14.25 1.5 0  15 1.5 0  15.75 1.5 0  16.5 1.5 0  17.25 1.5 0  18 1.5 0  18.75 1.5 0  19.5 1.5 0  20.25 1.5 0  21 1.5 0  21.75 1.5 0  22.5 1.5 0  23.25 1.5 0  24 1.5 0  24.75 1.5 0  25.5 1.5 0  26.25 1.5 0  27 1.5 0  27.75 1.5 0  28.5 1.5 0  29.25 1.5 0  30 1.5 0  30.75 1.5 0  31.5 1.5 0  32.25 1.5 0  33 1.5 0  33.75 1.5 0  34.5 1.5 0  35.25 1.5 0  36 1.5 0  36.75 1.5 0  37.5 1.5 0  38.25 1.5 0  39 1.5 0  39.75 1.5 0  40.5 1.5 0  41.25 1.5 0  42 1.5 0  42.75 1.5 0  43.5 1.5 0  44.25 1.5 0  45 1.5 0  45.75 1.5 0  46.5 1.5 0  47.25 1.5 0  48 1.5 0  48.75 1.5 0  49.5 1.5 0  50.25 1.5 0  51 1.5 0  51.75 1.5 0  52.5 1.5 0  53.25 1.5 0  54 1.5 0  54.75 1.5 0  55.5 1.5 0  56.25 1.5 0  57 1.5 0  57.75 1.5 0  58.5 1.5 0  59.25 1.5 0  60 1.5 0  0 2 0  0.75 2 0  1.5 2 0  2.25 2 0  3 2 0  3.75 2 0  4.5 2 0  5.25 2 0  6 2 0  6.75 2 0  7.5 2 0  8.25 2 0  9 2 0  9.75 2 0  10.5 2 0  11.25 2 0  12 2 0  12.75 2 0  13.5 2 0  14.25 2 0  15 2 0  15.75 2 0  16.5 2 0  17.25 2 0  18 2 0  18.75 2 0  19.5 2 0  20.25 2 0  21 2 0  21.75 2 0  22.5 2 0  23.25 2 0  24 2 0  24.75 2 0  25.5 2 0  26.25 2 0  27 2 0  27.75 2 0  28.5 2 0  29.25 2 0  30 2 0  30.75 2 0  31.5 2 0  32.25 2 0  33 2 0  33.75 2 0  34.5 2 0  35.25 2 0  36 2 0  36.75 2 0  37.5 2 0  38.25 2 0  39 2 0  39.75 2 0  40.5 2 0  41.25 2 0  42 2 0  42.75 2 0  43.5 2 0  44.25 2 0  45 2 0  45.75 2 0  46.5 2 0  47.25 2 0  48 2 0  48.75 2 0  49.5 2 0  50.25 2 0  51 2 0  51.75 2 0  52.5 2 0  53.25 2 0  54 2 0  54.75 2 0  55.5 2 0  56.25 2 0  57 2 0  57.75 2 0  58.5 2 0  59.25 2 0  60 2 0  0 2.5 0  0.75 2.5 0  1.5 2.5 0  2.25 2.5 0  3 2.5 0  3.75 2.5 0  4.5 2.5 0  5.25 2.5 0  6 2.5 0  6.75 2.5 0  7.5 2.5 0  8.25 2.5 0  9 2.5 0  9.75 2.5 0  10.5 2.5 0  11.25 2.5 0  12 2.5 0  12.75 2.5 0  13.5 2.5 0  14.25 2.5 0  15 2.5 0  15.75 2.5 0  16.5 2.5 0  17.25 2.5 0  18 2.5 0  18.75 2.5 0  19.5 2.5 0  20.25 2.5 0  21 2.5 0  21.75 2.5 0  22.5 2.5 0  23.25 2.5 0  24 2.5 0  24.75 2.5 0  25.5 2.5 0  26.25 2.5 0  27 2.5 0  27.75 2.5 0  28.5 2.5 0  29.25 2.5 0  30 2.5 0  30.75 2.5 0  31.5 2.5 0  32.25 2.5 0  33 2.5 0  33.75 2.5 0  34.5 2.5 0  35.25 2.5 0  36 2.5 0  36.75 2.5 0  37.5 2.5 0  38.25 2.5 0  39 2.5 0  39.75 2.5 0  40.5 2.5 0  41.25 2.5 0  42 2.5 0  42.75 2.5 0  43.5 2.5 0  44.25 2.5 0  45 2.5 0  45.75 2.5 0  46.5 2.5 0  47.25 2.5 0  48 2.5 0  48.75 2.5 0  49.5 2.5 0  50.25 2.5 0  51 2.5 0  51.75 2.5 0  52.5 2.5 0  53.25 2.5 0  54 2.5 0  54.75 2.5 0  55.5 2.5 0  56.25 2.5 0  57 2.5 0  57.75 2.5 0  58.5 2.5 0  59.25 2.5 0  60 2.5 0  0 3 0  0.75 3 0  1.5 3 0  2.25 3 0  3 3 0  3.75 3 0  4.5 3 0  5.25 3 0  6 3 0  6.75 3 0  7.5 3 0  8.25 3 0  9 3 0  9.75 3 0  10.5 3 0  11.25 3 0  12 3 0  12.75 3 0  13.5 3 0  14.25 3 0  15 3 0  15.75 3 0  16.5 3 0  17.25 3 0  18 3 0  18.75 3 0  19.5 3 0  20.25 3 0  21 3 0  21.75 3 0  22.5 3 0  23.25 3 0  24 3 0  24.75 3 0  25.5 3 0  26.25 3 0  27 3 0  27.75 3 0  28.5 3 0  29.25 3 0  30 3 0  30.75 3 0  31.5 3 0  32.25 3 0  33 3 0  33.75 3 0  34.5 3 0  35.25 3 0  36 3 0  36.75 3 0  37.5 3 0  38.25 3 0  39 3 0  39.75 3 0  40.5 3 0  41.25 3 0  42 3 0  42.75 3 0  43.5 3 0  44.25 3 0  45 3 0  45.75 3 0  46.5 3 0  47.25 3 0  48 3 0  48.75 3 0  49.5 3 0  50.25 3 0  51 3 0  51.75 3 0  52.5 3 0  53.25 3 0  54 3 0  54.75 3 0  55.5 3 0  56.25 3 0  57 3 0  57.75 3 0  58.5 3 0  59.25 3 0  60 3 0  0 3.5 0  0.75 3.5 0  1.5 3.5 0  2.25 3.5 0  3 3.5 0  3.75 3.5 0  4.5 3.5 0  5.25 3.5 0  6 3.5 0  6.75 3.5 0  7.5 3.5 0  8.25 3.5 0  9 3.5 0  9.75 3.5 0  10.5 3.5 0  11.25 3.5 0  12 3.5 0  12.75 3.5 0  13.5 3.5 0  14.25 3.5 0  15 3.5 0  15.75 3.5 0  16.5 3.5 0  17.25 3.5 0  18 3.5 0  18.75 3.5 0  19.5 3.5 0  20.25 3.5 0  21 3.5 0  21.75 3.5 0  22.5 3.5 0  23.25 3.5 0  24 3.5 0  24.75 3.5 0  25.5 3.5 0  26.25 3.5 0  27 3.5 0  27.75 3.5 0  28.5 3.5 0  29.25 3.5 0  30 3.5 0  30.75 3.5 0  31.5 3.5 0  32.25 3.5 0  33 3.5 0  33.75 3.5 0  34.5 3.5 0  35.25 3.5 0  36 3.5 0  36.75 3.5 0  37.5 3.5 0  38.25 3.5 0  39 3.5 0  39.75 3.5 0  40.5 3.5 0  41.25 3.5 0  42 3.5 0  42.75 3.5 0  43.5 3.5 0  44.25 3.5 0  45 3.5 0  45.75 3.5 0  46.5 3.5 0  47.25 3.5 0  48 3.5 0  48.75 3.5 0  49.5 3.5 0  50.25 3.5 0  51 3.5 0  51.75 3.5 0  52.5 3.5 0  53.25 3.5 0  54 3.5 0  54.75 3.5 0  55.5 3.5 0  56.25 3.5 0  57 3.5 0  57.75 3.5 0  58.5 3.5 0  59.25 3.5 0  60 3.5 0  0 4 0  0.75 4 0  1.5 4 0  2.25 4 0  3 4 0  3.75 4 0  4.5 4 0  5.25 4 0  6 4 0  6.75 4 0  7.5 4 0  8.25 4 0  9 4 0  9.75 4 0  10.5 4 0  11.25 4 0  12 4 0  12.75 4 0  13.5 4 0  14.25 4 0  15 4 0  15.75 4 0  16.5 4 0  17.25 4 0  18 4 0  18.75 4 0  19.5 4 0  20.25 4 0  21 4 0  21.75 4 0  22.5 4 0  23.25 4 0  24 4 0  24.75 4 0  25.5 4 0  26.25 4 0  27 4 0  27.75 4 0  28.5 4 0  29.25 4 0  30 4 0  30.75 4 0  31.5 4 0  32.25 4 0  33 4 0  33.75 4 0  34.5 4 0  35.25 4 0  36 4 0  36.75 4 0  37.5 4 0  38.25 4 0  39 4 0  39.75 4 0  40.5 4 0  41.25 4 0  42 4 0  42.75 4 0  43.5 4 0  44.25 4 0  45 4 0  45.75 4 0  46.5 4 0  47.25 4 0  48 4 0  48.75 4 0  49.5 4 0  50.25 4 0  51 4 0  51.75 4 0  52.5 4 0  53.25 4 0  54 4 0  54.75 4 0  55.5 4 0  56.25 4 0  57 4 0  57.75 4 0  58.5 4 0  59.25 4 0  60 4 0  0.375 0.25 0  1.125 0.25 0  1.875 0.25 0  2.625 0.25 0  3.375 0.25 0  4.125 0.25 0  4.875 0.25 0  5.625 0.25 0  6.375 0.25 0  7.125 0.25 0  7.875 0.25 0  8.625 0.25 0  9.375 0.25 0  10.125 0.25 0  10.875 0.25 0  11.625 0.25 0  12.375 0.25 0  13.125 0.25 0  13.875 0.25 0  14.625 0.25 0  15.375 0.25 0  16.125 0.25 0  16.875 0.25 0  17.625 0.25 0  18.375 0.25 0  19.125 0.25 0  19.875 0.25 0  20.625 0.25 0  21.375 0.25 0  22.125 0.25 0  22.875 0.25 0  23.625 0.25 0  24.375 0.25 0  25.125 0.25 0  25.875 0.25 0  26.625 0.25 0  27.375 0.25 0  28.125 0.25 0  28.875 0.25 0  29.625 0.25 0  30.375 0.25 0  31.125 0.25 0  31.875 0.25 0  32.625 0.25 0  33.375 0.25 0  34.125 0.25 0  34.875 0.25 0  35.625 0.25 0  36.375 0.25 0  37.125 0.25 0  37.875 0.25 0  38.625 0.25 0  39.375 0.25 0  40.125 0.25 0  40.875 0.25 0  41.625 0.25 0  42.375 0.25 0  43.125 0.25 0  43.875 0.25 0  44.625 0.25 0  45.375 0.25 0  46.125 0.25 0  46.875 0.25 0  47.625 0.25 0  48.375 0.25 0  49.125 0.25 0  49.875 0.25 0  50.625 0.25 0  51.375 0.25 0  52.125 0.25 0  52.875 0.25 0  53.625 0.25 0  54.375 0.25 0  55.125 0.25 0  55.875 0.25 0  56.625 0.25 0  57.375 0.25 0  58.125 0.25 0  58.875 0.25 0  59.625 0.25 0  0.375 0.75 0  1.125 0.75 0  1.875 0.75 0  2.625 0.75 0  3.375 0.75 0  4.125 0.75 0  4.875 0.75 0  5.625 0.75 0  6.375 0.75 0  7.125 0.75 0  7.875 0.75 0  8.625 0.75 0  9.375 0.75 0  10.125 0.75 0  10.875 0.75 0  11.625 0.75 0  12.375 0.75 0  13.125 0.75 0  13.875 0.75 0  14.625 0.75 0  15.375 0.75 0  16.125 0.75 0  16.875 0.75 0  17.625 0.75 0  18.375 0.75 0  19.125 0.75 0  19.875 0.75 0  20.625 0.75 0  21.375 0.75 0  22.125 0.75 0  22.875 0.75 0  23.625 0.75 0  24.375 0.75 0  25.125 0.75 0  25.875 0.75 0  26.625 0.75 0  27.375 0.75 0  28.125 0.75 0  28.875 0.75 0  29.625 0.75 0  30.375 0.75 0  31.125 0.75 0  31.875 0.75 0  32.625 0.75 0  33.375 0.75 0  34.125 0.75 0  34.875 0.75 0  35.625 0.75 0  36.375 0.75 0  37.125 0.75 0  37.875 0.75 0  38.625 0.75 0  39.375 0.75 0  40.125 0.75 0  40
[...]
<PointData  Scalars="f_8-1"> 
<DataArray  type="Float64"  Name="f_8-1"  format="ascii">8.4826465997461540e+00  8.3798133753576938e+00  8.2734926102116315e+00  8.1674769499561091e+00  8.0612904393581228e+00  7.9550495740832590e+00  7.8487824095080079e+00  7.7425169607690023e+00  7.6362686046537149e+00  7.5300449782824090e+00  7.4238485690756395e+00  7.3176788025137904e+00  7.2115333969271633e+00  7.1054092792407397e+00  6.9993031547147853e+00  6.8932118534657514e+00  6.7871325074361026e+00  6.6810626328982625e+00  6.5750001403179859e+00  6.4689433085469652e+00  6.3628907413444473e+00  6.2568413259282787e+00  6.1507941895405205e+00  6.0447486553423895e+00  5.9387041987537019e+00  5.8326604131853621e+00  5.7266169871054577e+00  5.6205736911748678e+00  5.5145303688952527e+00  5.4084869267109488e+00  5.3024433212946152e+00  5.1963995453899683e+00  5.0903556140117834e+00  4.9843115530943827e+00  4.8782673913120975e+00  4.7722231551790655e+00  4.6661788666947306e+00  4.5601345427869209e+00  4.4540901957277450e+00  4.3480458340028427e+00  4.2420014632417473e+00  4.1359570870536748e+00  4.0299127076797445e+00  3.9238683264756142e+00  3.8178239442398887e+00  3.7117795614335711e+00  3.6057351783166052e+00  3.4996907950333940e+00  3.3936464116623379e+00  3.2876020282456340e+00  3.1815576448054079e+00  3.0755132613533269e+00  2.9694688778951717e+00  2.8634244944342679e+00  2.7573801109714231e+00  2.6513357275089979e+00  2.5452913440436404e+00  2.4392469605839375e+00  2.3332025771114711e+00  2.2271581936658791e+00  2.1211138101654621e+00  2.0150694267729574e+00  1.9090250431803921e+00  1.8029806599381948e+00  1.6969362761323847e+00  1.5908918930545624e+00  1.4848475090495425e+00  1.3788031241835770e+00  1.2727587405405243e+00  1.1667143384299290e+00  1.0606699785745277e+00  9.5462561759266717e-01  8.4858202216765133e-01  7.4253815775883403e-01  6.3649191260629057e-01  5.3043287967080033e-01  4.2439954191742219e-01  3.1835313359397205e-01  2.1248731902432003e-01  1.0592254713712662e-01  2.3111478213067673e-03  8.4857097494078388e+00  8.3792365430529632e+00  8.2734476860099075e+00  8.1673654858543170e+00  8.0612141791862584e+00  7.9549980831287099e+00  7.8487521809235465e+00  7.7425002047447737e+00  7.6362585479846379e+00  7.5300367116724516e+00  7.4238390569020458e+00  7.3176664391840749e+00  7.2115175367745543e+00  7.1053898574139671e+00  6.9992804238972806e+00  6.8931862112046955e+00  6.7871043958726389e+00  6.6810324806243635e+00  6.5749683342858498e+00  6.4689101829449527e+00  6.3628565784671265e+00  6.2568063595457284e+00  6.1507586094792490e+00  6.0447126125126580e+00  5.9386678125072958e+00  5.8326237789760871e+00  5.7265801828816238e+00  5.6205367807421114e+00  5.5144934030445745e+00  5.4084499432657607e+00  5.3024063456462880e+00  5.1963625919685370e+00  5.0903186886814638e+00  4.9842746558472548e+00  4.8782305187872792e+00  4.7721863026052231e+00  4.6661420291932405e+00  4.5600977160740452e+00  4.4540533763952466e+00  4.3480090195227765e+00  4.2419646518434551e+00  4.1359202775519117e+00  4.0298758993130539e+00  3.9238315187707298e+00  3.8177871369121230e+00  3.7117427543159196e+00  3.6056983713138266e+00  3.4996539880921640e+00  3.3936096047535922e+00  3.2875652213537014e+00  3.1815208379220992e+00  3.0754764544743116e+00  2.9694320710183821e+00  2.8633876875583657e+00  2.7573433040964113e+00  2.6512989206333870e+00  2.5452545371699955e+00  2.4392101537063979e+00  2.3331657702421462e+00  2.2271213867801083e+00  2.1210770033115378e+00  2.0150326198597108e+00  1.9089882363712787e+00  1.8029438529573878e+00  1.6968994693984112e+00  1.5908550860482662e+00  1.4848107021223669e+00  1.3787663183462662e+00  1.2727219312549232e+00  1.1666775437008641e+00  1.0606331552921491e+00  9.5458888383858109e-01  8.4854501927496317e-01  7.4250136728193283e-01  6.3645293801418490e-01  5.3040029930295085e-01  4.2436106104825427e-01  3.1834525090536581e-01  2.1231670682645845e-01  1.0628440984373025e-01  -4.6614152086550713e-04  8.4852339544084643e+00  8.3793296062917779e+00  8.2733834479487012e+00  8.1673585533782678e+00  8.0612244555653199e+00  7.9550151126755901e+00  7.8487657034615639e+00  7.7425062551042245e+00  7.6362566477472704e+00  7.5300279685748368e+00  7.4238250115920827e+00  7.3176485265621061e+00  7.2114969196449303e+00  7.1053674020834832e+00  6.9992567467261546e+00  6.8931617378618135e+00  6.7870794150902674e+00  6.6810071824545787e+00  6.5749428440513080e+00  6.4688845863122140e+00  6.3628309348544754e+00  6.2567807067903543e+00  6.1507329693541699e+00  6.0446869988709384e+00  5.9386422385933439e+00  5.8325982593894610e+00  5.7265547307842288e+00  5.6205114034796004e+00  5.5144680997191564e+00  5.4084247052837009e+00  5.3023811595528851e+00  5.1963374428733067e+00  5.0902935630507651e+00  4.9842495430419183e+00  4.8782054114597111e+00  4.7721611963097450e+00  4.6661169216632317e+00  4.5600726064602615e+00  4.4540282646486089e+00  4.3479839059608931e+00  4.2419395368923425e+00  4.1358951616117396e+00  4.0298507827067702e+00  3.9238064017350696e+00  3.8177620196099276e+00  3.7117176368533764e+00  3.6056732537575709e+00  3.4996288704824292e+00  3.3935844871140546e+00  3.2875401036978791e+00  3.1814957202575438e+00  3.0754513368051697e+00  2.9694069533468057e+00  2.8633625698856746e+00  2.7573181864228737e+00  2.6512738029600298e+00  2.5452294194955338e+00  2.4391850360335932e+00  2.3331406525664216e+00  2.2270962691085132e+00  2.1210518856351555e+00  2.0150075021846625e+00  1.9089631187068499e+00  1.8029187352441354e+00  1.6968743518254366e+00  1.5908299681593592e+00  1.4847855852099747e+00  1.3787412001973878e+00  1.2726968199480115e+00  1.1666524285929187e+00  1.0606080675326108e+00  9.5456366026501061e-01  8.4851941557500998e-01  7.4247488642644144e-01  6.3643117367427415e-01  5.3038283537795960e-01  4.2433687151295690e-01  3.1829080980095986e-01  2.1227078841164099e-01  1.0609214393969701e-01  6.0868851328398531e-05  8.4852429533512002e+00  8.3793206291269318e+00  8.2733975610319881e+00  8.1673829909095677e+00  8.0612599650343650e+00  7.9550528985637934e+00  7.8488006213551333e+00  7.7425361286323140e+00  7.6362813691782545e+00  7.5300483442567696e+00  7.4238420812313759e+00  7.3176632368634040e+00  7.2115100235777447e+00  7.1053794503005410e+00  6.9992681225483100e+00  6.8931726989099245e+00  6.7870901307486236e+00  6.6810177598738631e+00  6.5749533508676521e+00  6.4688950663368798e+00  6.3628414167275302e+00  6.2567912070478107e+00  6.1507434962687721e+00  6.0446975572486537e+00  5.9386528338114397e+00  5.8326088979685693e+00  5.7265654184175281e+00  5.6205221423387703e+00  5.5144788871834765e+00  5.4084355344363395e+00  5.3023920210026585e+00  5.1963483268026138e+00  5.0903044608301151e+00  4.9842604480470705e+00  4.8782163192183576e+00  4.7721721041873542e+00  4.6661278283785892e+00  4.5600835115934508e+00  4.4540391682546217e+00  4.3479948083004425e+00  4.2419504382760538e+00  4.1359060623200783e+00  4.0298616829622045e+00  3.9238173016991005e+00  3.8177729193932017e+00  3.7117285365278092e+00  3.6056841533683248e+00  3.4996397700567541e+00  3.3935953866680499e+00  3.2875510032407012e+00  3.1815066197943960e+00  3.0754622363388173e+00  2.9694178528788733e+00  2.8633734694167501e+00  2.7573290859538333e+00  2.6512847024900998e+00  2.5452403190269042e+00  2.4391959355621249e+00  2.3331515521000989e+00  2.2271071686331587e+00  2.1210627851738653e+00  2.0150184017042605e+00  1.9089740182435877e+00  1.8029296347884611e+00  1.6968852512870607e+00  1.5908408679821566e+00  1.4847964843258714e+00  1.3787521020385003e+00  1.2727077180904638e+00  1.1666633394192218e+00  1.0606189385247375e+00  9.5457450746405681e-01  8.4852991991627869e-01  7.4248600157723477e-01  6.3644358565825399e-01  5.3039781029378819e-01  4.2434078265474762e-01  3.1829814237831089e-01  2.1222863128196404e-01  1.0614424308163975e-01  1.1986154109691004e-05  8.4852804252482681e+00  8.3793212245951167e+00  8.2733831415615171e+00  8.1673660638849181e+00  8.0612471847333662e+00  7.9550470536710787e+00  7.8488006190099693e+00  7.7425397841942019e+00  7.6362867344702332e+00  7.5300541179297635e+00  7.4238475166934261e+00  7.3176679759734826e+00  7.2115139387200040e+00  7.1053825475390537e+00  6.9992704734085285e+00  6.8931744021837584e+00  6.7870912894790267e+00  6.6810184726544541e+00  6.5749537046060436e+00  6.4688951342045451e+00  6.3628412589686256e+00  6.2567908740767466e+00  6.1507430295670416e+00  6.0446969897075675e+00  5.9386521902788099e+00  5.8326081973671533e+00  5.7265646759529307e+00  5.6205213711353208e+00  5.5144780986376416e+00  5.4084347379519624e+00  5.3023912235333599e+00  5.1963475327795070e+00  5.0903036724418564e+00  4.9842596658247205e+00  4.8782155426528089e+00  4.7721713322795631e+00  4.6661270600117541e+00  4.5600827457574349e+00  4.4540384041348142e+00  4.3479940452949117e+00  4.2419496759657127e+00  4.1359053004292337e+00  4.0298609213163408e+00  3.9238165401925937e+00  3.8177721579637138e+00  3.7117277751400359e+00  3.6056833920025286e+00  3.4996390087023719e+00  3.3935946253194289e+00  3.2875502418949796e+00  3.1815058584500644e+00  3.0754614749951923e+00  2.9694170915355231e+00  2.8633727080736433e+00  2.7573283246105942e+00  2.6512839411473177e+00  2.5452395576832352e+00  2.4391951742202580e+00  2.3331507907548446e+00  2.2271064072938609e+00  2.1210620238250080e+00  2.0150176403685234e+00  1.9089732568951459e+00  1.8029288734399649e+00  1.6968844899962128e+00  1.5908401065191888e+00  1.4847957234387772e+00  1.3787513399862898e+00  1.2727069588157816e+00  1.1666625713911434e+00  1.0606181754292339e+00  9.5457369862790475e-01  8.4852928535344196e-01  7.4248548424816907e-01  6.3644261351491804e-01  5.3039464706833228e-01  4.2434263101923347e-01  3.1828955605008186e-01  2.1222850274869137e-01  1.0612215523320613e-01  1.6498200654179751e-05  8.4852429533525893e+00  8.3793206291286459e+00  8.2733975610316275e+00  8.1673829909070683e+00  8.0612599650306453e+00  7.9550528985600879e+00  7.8488006213523933e+00  7.7425361286308627e+00  7.6362813691779357e+00  7.5300483442571009e+00  7.4238420812319408e+00  7.3176632368639121e+00  7.2115100235780760e+00  7.1053794503007088e+00  6.9992681225483402e+00  6.8931726989098969e+00  6.7870901307485818e+00  6.6810177598738250e+00  6.5749533508676015e+00  6.4688950663368541e+00  6.3628414167275178e+00  6.2567912070478116e+00  6.1507434962687642e+00  6.0446975572486528e+00  5.9386528338114335e+00  5.8326088979685800e+00  5.7265654184175236e+00  5.6205221423387757e+00  5.5144788871834773e+00  5.4084355344363368e+00  5.3023920210026718e+00  5.1963483268026174e+00  5.0903044608301107e+00  4.9842604480470705e+00  4.8782163192183639e+00  4.7721721041873417e+00  4.6661278283785919e+00  4.5600835115934633e+00  4.4540391682546217e+00  4.3479948083004443e+00  4.2419504382760556e+00  4.1359060623200845e+00  4.0298616829622063e+00  3.9238173016991005e+00  3.8177729193932013e+00  3.7117285365278199e+00  3.6056841533683253e+00  3.4996397700567550e+00  3.3935953866680499e+00  3.2875510032406985e+00  3.1815066197943960e+00  3.0754622363388235e+00  2.9694178528788799e+00  2.8633734694167590e+00  2.7573290859538373e+00  2.6512847024900963e+00  2.5452403190269028e+00  2.4391959355621236e+00  2.3331515521001007e+00  2.2271071686331587e+00  2.1210627851738577e+00  2.0150184017042592e+00  1.9089740182435881e+00  1.8029296347884627e+00  1.6968852512870594e+00  1.5908408679821555e+00  1.4847964843258725e+00  1.3787521020385016e+00  1.2727077180904651e+00  1.1666633394192216e+00  1.0606189385247362e+00  9.5457450746405670e-01  8.4852991991627846e-01  7.4248600157723443e-01  6.3644358565825432e-01  5.3039781029378852e-01  4.2434078265474634e-01  3.1829814237831067e-01  2.1222863128196284e-01  1.0614424308163958e-01  1.1986154109689987e-05  8.4852339544090523e+00  8.3793296062923126e+00  8.2733834479472055e+00  8.1673585533747293e+00  8.0612244555607351e+00  7.9550151126712318e+00  7.8487657034583700e+00  7.7425062551024784e+00  7.6362566477467801e+00  7.5300279685751157e+00  7.4238250115926832e+00  7.3176485265626736e+00  7.2114969196453247e+00  7.1053674020836919e+00  6.9992567467262150e+00  6.8931617378617984e+00  6.7870794150902238e+00  6.6810071824545281e+00  6.5749428440512698e+00  6.4688845863121847e+00  6.3628309348544638e+00  6.2567807067903489e+00  6.1507329693541575e+00  6.0446869988709357e+00  5.9386422385933439e+00  5.8325982593894707e+00  5.7265547307842386e+00  5.6205114034796040e+00  5.5144680997191440e+00  5.4084247052836982e+00  5.3023811595529020e+00  5.1963374428733031e+00  5.0902935630507571e+00  4.9842495430419156e+00  4.8782054114597155e+00  4.7721611963097432e+00  4.6661169216632530e+00  4.5600726064602721e+00  4.4540282646486249e+00  4.3479839059608949e+00  4.2419395368923416e+00  4.1358951616117530e+00  4.0298507827067676e+00  3.9238064017350665e+00  3.8177620196099311e+00  3.7117176368533813e+00  3.6056732537575753e+00  3.4996288704824323e+00  3.3935844871140639e+00  3.2875401036978777e+00  3.1814957202575465e+00  3.0754513368051781e+00  2.9694069533468190e+00  2.8633625698856857e+00  2.7573181864228729e+00  2.6512738029600280e+00  2.5452294194955343e+00  2.4391850360335869e+00  2.3331406525664162e+00  2.2270962691085092e+00  2.1210518856351492e+00  2.0150075021846603e+00  1.9089631187068488e+00  1.8029187352441325e+00  1.6968743518254339e+00  1.5908299681593587e+00  1.4847855852099758e+00  1.3787412001973907e+00  1.2726968199480129e+00  1.1666524285929194e+00  1.0606080675326126e+00  9.5456366026500761e-01  8.4851941557500854e-01  7.4247488642644022e-01  6.3643117367427504e-01  5.3038283537796216e-01  4.2433687151295685e-01  3.1829080980095970e-01  2.1227078841164007e-01  1.0609214393969701e-01  6.0868851328397555e-05  8.4857097494079294e+00  8.3792365430517304e+00  8.2734476860067812e+00  8.1673654858498121e+00  8.0612141791814409e+00  7.9549980831245763e+00  7.8487521809207124e+00  7.7425002047433349e+00  7.6362585479842817e+00  7.5300367116727394e+00  7.4238390569025752e+00  7.3176664391845927e+00  7.2115175367749114e+00  7.1053898574141545e+00  6.9992804238973401e+00  6.8931862112046822e+00  6.7871043958726069e+00  6.6810324806243235e+00  6.5749683342858152e+00  6.4689101829449145e+00  6.3628565784671052e+00  6.2568063595457044e+00  6.1507586094792250e+00  6.0447126125126536e+00  5.9386678125072834e+00  5.8326237789760818e+00  5.7265801828816176e+00  5.6205367807421105e+00  5.5144934030445834e+00  5.4084499432657642e+00  5.3024063456463031e+00  5.1963625919685352e+00  5.0903186886814602e+00  4.9842746558472513e+00  4.8782305187873005e+00  4.7721863026052365e+00  4.6661420291932618e+00  4.5600977160740603e+00  4.4540533763952626e+00  4.3480090195227890e+00  4.2419646518434595e+00  4.1359202775519135e+00  4.0298758993130575e+00  3.9238315187707369e+00  3.8177871369121261e+00  3.7117427543159205e+00  3.6056983713138302e+00  3.4996539880921640e+00  3.3936096047535966e+00  3.2875652213537085e+00  3.1815208379221072e+00  3.0754764544743209e+00  2.9694320710184003e+00  2.8633876875583808e+00  2.7573433040964148e+00  2.6512989206333857e+00  2.5452545371699951e+00  2.4392101537063922e+00  2.3331657702421404e+00  2.2271213867801070e+00  2.1210770033115351e+00  2.0150326198597082e+00  1.9089882363712776e+00  1.8029438529573893e+00  1.6968994693984101e+00  1.5908550860482646e+00  1.4848107021223673e+00  1.3787663183462666e+00  1.2727219312549238e+00  1.1666775437008623e+00  1.0606331552921482e+00  9.5458888383857765e-01  8.4854501927495607e-01  7.4250136728194016e-01  6.3645293801418690e-01  5.3040029930294741e-01  4.2436106104825233e-01  3.1834525090536503e-01  2.1231670682645729e-01  1.0628440984372997e-01  -4.6614152086518659e-04  8.4826465997464826e+00  8.3798133753561128e+00  8.2734926102075601e+00  8.1674769499503910e+00  8.0612904393520903e+00  7.9550495740782212e+00  7.8487824095046825e+00  7.7425169607674267e+00  7.6362686046534565e+00  7.5300449782828895e+00  7.4238485690763572e+00  7.3176788025144504e+00  7.2115333969276056e+00  7.1054092792409635e+00  6.9993031547148519e+00  6.8932118534657318e+00  6.7871325074360573e+00  6.6810626328982226e+00  6.5750001403179477e+00  6.4689433085469377e+00  6.3628907413444260e+00  6.2568413259282485e+00  6.1507941895405081e+00  6.0447486553423779e+00  5.9387041987536824e+00  5.8326604131853648e+00  5.7266169871054631e+00  5.6205736911748687e+00  5.5145303688952545e+00  5.4084869267109505e+00  5.3024433212946143e+00  5.1963995453899683e+00  5.0903556140117825e+00  4.9843115530943862e+00  4.8782673913121171e+00  4.7722231551790832e+00  4.6661788666947492e+00  4.5601345427869386e+00  4.4540901957277645e+00  4.3480458340028596e+00  4.2420014632417580e+00  4.1359570870536810e+00  4.0299127076797587e+00  3.9238683264756151e+00  3.8178239442398847e+00  3.7117795614335662e+00  3.6057351783166052e+00  3.4996907950333918e+00  3.3936464116623433e+00  3.2876020282456393e+00  3.1815576448054155e+00  3.0755132613533389e+00  2.9694688778951885e+00  2.8634244944342768e+00  2.7573801109714240e+00  2.6513357275089904e+00  2.5452913440436395e+00  2.4392469605839326e+00  2.3332025771114706e+00  2.2271581936658755e+00  2.1211138101654567e+00  2.0150694267729592e+00  1.9090250431803915e+00  1.8029806599381946e+00  1.6969362761323818e+00  1.5908918930545595e+00  1.4848475090495419e+00  1.3788031241835792e+00  1.2727587405405252e+00  1.1667143384299297e+00  1.0606699785745293e+00  9.5462561759266285e-01  8.4858202216764345e-01  7.4253815775884313e-01  6.3649191260629234e-01  5.3043287967079844e-01  4.2439954191741969e-01  3.1835313359397183e-01  2.1248731902431897e-01  1.0592254713712600e-01  2.3111478213064885e-03  8.4322952760388468e+00  8.3263504211438768e+00  8.2203313484769218e+00  8.1142173357045451e+00  8.0080209344724018e+00  7.9017805031229678e+00  7.7955248319999306e+00  7.6892742333609529e+00  7.5830409152806348e+00  7.4768310380352689e+00  7.3706465907829566e+00  7.2644869100767275e+00  7.1583498212026022e+00  7.0522324339967017e+00  6.9461316703262979e+00  6.8400445734333220e+00  6.7339684785853811e+00  6.6279010806705978e+00  6.5218404436729323e+00  6.4157849736232881e+00  6.3097333825014701e+00  6.2036846464980444e+00  6.0976379635880162e+00  5.9915927096106039e+00  5.8855484003657192e+00  5.7795046624535882e+00  5.6734612145389516e+00  5.5674178545492747e+00  5.4613744491388978e+00  5.3553309219259795e+00  5.2492872404238895e+00  5.1432434024662337e+00  5.0371994240297484e+00  4.9311553294803243e+00  4.8251111448595445e+00  4.7190668938805356e+00  4.6130225961166991e+00  4.5069782666009157e+00  4.4009339162564807e+00  4.2948895526564552e+00  4.1888451808516534e+00  4.0828008040937300e+00  3.9767564244150648e+00  3.8707120430499780e+00  3.7646676607308058e+00  3.6586232778814010e+00  3.5525788947426435e+00  3.4465345114483106e+00  3.3404901280717598e+00  3.2344457446522483e+00  3.1284013612106869e+00  3.0223569777578789e+00  2.9163125942994719e+00  2.8102682108382440e+00  2.7042238273756731e+00  2.5981794439124108e+00  2.4921350604488097e+00  2.3860906769852530e+00  2.2800462935209453e+00  2.1740019100586290e+00  2.0679575265917900e+00  1.9619131431347729e+00  1.8558687596614951e+00  1.7498243762050665e+00  1.6437799927176249e+00  1.5377356090687542e+00  1.4316912252146203e+00  1.3256468395658965e+00  1.2196024522332503e+00  1.1135580658650841e+00  1.0075137357537465e+00  9.0146964250516082e-01  7.9542587708143553e-01  6.8938047955310888e-01  5.8332969944774471e-01  4.7728061202873828e-01  3.7125421982253809e-01  2.6523494452133334e-01  1.5921753610523179e-01  5.2663506022639542e-02  8.4322733738849376e+00  8.3263687937534758e+00  8.2203808902334838e+00  8.1142853141174793e+00  8.0081084042720487e+00  7.9018802905787533e+00  7.7956305880144381e+00  7.6893813659314256e+00  7.5831467527802072e+00  7.4769343058037938e+00  7.3707468876916922e+00  7.2645843112460344e+00  7.1584446281785867e+00  7.0523250270872193e+00  6.9462224316620729e+00  6.8401338515796537e+00  6.7340565742359484e+00  6.6279882443069598e+00  6.5219268806220958e+00  6.4158708514347458e+00  6.3098188361357