<?xml version="1.0"?>
<VTKFile type="UnstructuredGrid"  version="0.1"  >
<UnstructuredGrid>
<Piece  NumberOfPoints="1369" NumberOfCells="2560">
<Points>
<DataArray  type="Float64"  NumberOfComponents="3"  format="ascii">0 0 0  0.75 0 0  1.5 0 0  2.25 0 0  3 0 0  3.75 0 0  4.5 0 0  5.25 0 0  6 0 0  6.75 0 0  7.5 0 0  8.25 0 0  9 0 0  9.75 0 0  10.5 0 0  11.25 0 0  12 0 0  12.75 0 0  13.5 0 0  14.25 0 0  15 0 0  15.75 0 0  16.5 0 0  17.25 0 0  18 0 0  18.75 0 0  19.5 0 0  20.25 0 0  21 0 0  21.75 0 0  22.5 0 0  23.25 0 0  24 0 0  24.75 0 0  25.5 0 0  26.25 0 0  27 0 0  27.75 0 0  28.5 0 0  29.25 0 0  30 0 0  30.75 0 0  31.5 0 0  32.25 0 0  33 0 0  33.75 0 0  34.5 0 0  35.25 0 0  36 0 0  36.75 0 0  37.5 0 0  38.25 0 0  39 0 0  39.75 0 0  40.5 0 0  41.25 0 0  42 0 0  42.75 0 0  43.5 0 0  44.25 0 0  45 0 0  45.75 0 0  46.5 0 0  47.25 0 0  48 0 0  48.75 0 0  49.5 0 0  50.25 0 0  51 0 0  51.75 0 0  52.5 0 0  53.25 0 0  54 0 0  54.75 0 0  55.5 0 0  56.25 0 0  57 0 0  57.75 0 0  58.5 0 0  59.25 0 0  60 0 0  0 0.5 0  0.75 0.5 0  1.5 0.5 0  2.25 0.5 0  3 0.5 0  3.75 0.5 0  4.5 0.5 0  5.25 0.5 0  6 0.5 0  6.75 0.5 0  7.5 0.5 0  8.25 0.5 0  9 0.5 0  9.75 0.5 0  10.5 0.5 0  11.25 0.5 0  12 0.5 0  12.75 0.5 0  13.5 0.5 0  14.25 0.5 0  15 0.5 0  15.75 0.5 0  16.5 0.5 0  17.25 0.5 0  18 0.5 0  18.75 0.5 0  19.5 0.5 0  20.25 0.5 0  21 0.5 0  21.75 0.5 0  22.5 0.5 0  23.25 0.5 0  24 0.5 0  24.75 0.5 0  25.5 0.5 0  26.25 0.5 0  27 0.5 0  27.75 0.5 0  28.5 0.5 0  29.25 0.5 0  30 0.5 0  30.75 0.5 0  31.5 0.5 0  32.25 0.5 0  33 0.5 0  33.75 0.5 0  34.5 0.5 0  35.25 0.5 0  36 0.5 0  36.75 0.5 0  37.5 0.5 0  38.25 0.5 0  39 0.5 0  39.75 0.5 0  40.5 0.5 0  41.25 0.5 0  42 0.5 0  42.75 0.5 0  43.5 0.5 0  44.25 0.5 0  45 0.5 0  45.75 0.5 0  46.5 0.5 0  47.25 0.5 0  48 0.5 0  48.75 0.5 0  49.5 0.5 0  50.25 0.5 0  51 0.5 0  51.75 0.5 0  52.5 0.5 0  53.25 0.5 0  54 0.5 0  54.75 0.5 0  55.5 0.5 0  56.25 0.5 0  57 0.5 0  57.75 0.5 0  58.5 0.5 0  59.25 0.5 0  60 0.5 0  0 1 0  0.75 1 0  1.5 1 0  2.25 1 0  3 1 0  3.75 1 0  4.5 1 0  5.25 1 0  6 1 0  6.75 1 0  7.5 1 0  8.25 1 0  9 1 0  9.75 1 0  10.5 1 0  11.25 1 0  12 1 0  12.75 1 0  13.5 1 0  14.25 1 0  15 1 0  15.75 1 0  16.5 1 0  17.25 1 0  18 1 0  18.75 1 0  19.5 1 0  20.25 1 0  21 1 0  21.75 1 0  22.5 1 0  23.25 1 0  24 1 0  24.75 1 0  25.5 1 0  26.25 1 0  27 1 0  27.75 1 0  28.5 1 0  29.25 1 0  30 1 0  30.75 1 0  31.5 1 0  32.25 1 0  33 1 0  33.75 1 0  34.5 1 0  35.25 1 0  36 1 0  36.75 1 0  37.5 1 0  38.25 1 0  39 1 0  39.75 1 0  40.5 1 0  41.25 1 0  42 1 0  42.75 1 0  43.5 1 0  44.25 1 0  45 1 0  45.75 1 0  46.5 1 0  47.25 1 0  48 1 0  48.75 1 0  49.5 1 0  50.25 1 0  51 1 0  51.75 1 0  52.5 1 0  53.25 1 0  54 1 0  54.75 1 0  55.5 1 0  56.25 1 0  57 1 0  57.75 1 0  58.5 1 0  59.25 1 0  60 1 0  0 1.5 0  0.75 1.5 0  1.5 1.5 0  2.25 1.5 0  3 1.5 0  3.75 1.5 0  4.5 1.5 0  5.25 1.5 0  6 1.5 0  6.75 1.5 0  7.5 1.5 0  8.25 1.5 0  9 1.5 0  9.75 1.5 0  10.5 1.5 0  11.25 1.5 0  12 1.5 0  12.75 1.5 0  13.5 1.5 0  14.25 1.5 0  15 1.5 0  15.75 1.5 0  16.5 1.5 0  17.25 1.5 0  18 1.5 0  18.75 1.5 0  19.5 1.5 0  20.25 1.5 0  21 1.5 0  21.75 1.5 0  22.5 1.5 0  23.25 1.5 0  24 1.5 0  24.75 1.5 0  25.5 1.5 0  26.25 1.5 0  27 1.5 0  27.75 1.5 0  28.5 1.5 0  29.25 1.5 0  30 1.5 0  30.75 1.5 0  31.5 1.5 0  32.25 1.5 0  33 1.5 0  33.75 1.5 0  34.5 1.5 0  35.25 1.5 0  36 1.5 0  36.75 1.5 0  37.5 1.5 0  38.25 1.5 0  39 1.5 0  39.75 1.5 0  40.5 1.5 0  41.25 1.5 0  42 1.5 0  42.75 1.5 0  43.5 1.5 0  44.25 1.5 0  45 1.5 0  45.75 1.5 0  46.5 1.5 0  47.25 1.5 0  48 1.5 0  48.75 1.5 0  49.5 1.5 0  50.25 1.5 0  51 1.5 0  51.75 1.5 0  52.5 1.5 0  53.25 1.5 0  54 1.5 0  54.75 1.5 0  55.5 1.5 0  56.25 1.5 0  57 1.5 0  57.75 1.5 0  58.5 1.5 0  59.25 1.5 0  60 1.5 0  0 2 0  0.75 2 0  1.5 2 0  2.25 2 0  3 2 0  3.75 2 0  4.5 2 0  5.25 2 0  6 2 0  6.75 2 0  7.5 2 0  8.25 2 0  9 2 0  9.75 2 0  10.5 2 0  11.25 2 0  12 2 0  12.75 2 0  13.5 2 0  14.25 2 0  15 2 0  15.75 2 0  16.5 2 0  17.25 2 0  18 2 0  18.75 2 0  19.5 2 0  20.25 2 0  21 2 0  21.75 2 0  22.5 2 0  23.25 2 0  24 2 0  24.75 2 0  25.5 2 0  26.25 2 0  27 2 0  27.75 2 0  28.5 2 0  29.25 2 0  30 2 0  30.75 2 0  31.5 2 0  32.25 2 0  33 2 0  33.75 2 0  34.5 2 0  35.25 2 0  36 2 0  36.75 2 0  37.5 2 0  38.25 2 0  39 2 0  39.75 2 0  40.5 2 0  41.25 2 0  42 2 0  42.75 2 0  43.5 2 0  44.25 2 0  45 2 0  45.75 2 0  46.5 2 0  47.25 2 0  48 2 0  48.75 2 0  49.5 2 0  50.25 2 0  51 2 0  51.75 2 0  52.5 2 0  53.25 2 0  54 2 0  54.75 2 0  55.5 2 0  56.25 2 0  57 2 0  57.75 2 0  58.5 2 0  59.25 2 0  60 2 0  0 2.5 0  0.75 2.5 0  1.5 2.5 0  2.25 2.5 0  3 2.5 0  3.75 2.5 0  4.5 2.5 0  5.25 2.5 0  6 2.5 0  6.75 2.5 0  7.5 2.5 0  8.25 2.5 0  9 2.5 0  9.75 2.5 0  10.5 2.5 0  11.25 2.5 0  12 2.5 0  12.75 2.5 0  13.5 2.5 0  14.25 2.5 0  15 2.5 0  15.75 2.5 0  16.5 2.5 0  17.25 2.5 0  18 2.5 0  18.75 2.5 0  19.5 2.5 0  20.25 2.5 0  21 2.5 0  21.75 2.5 0  22.5 2.5 0  23.25 2.5 0  24 2.5 0  24.75 2.5 0  25.5 2.5 0  26.25 2.5 0  27 2.5 0  27.75 2.5 0  28.5 2.5 0  29.25 2.5 0  30 2.5 0  30.75 2.5 0  31.5 2.5 0  32.25 2.5 0  33 2.5 0  33.75 2.5 0  34.5 2.5 0  35.25 2.5 0  36 2.5 0  36.75 2.5 0  37.5 2.5 0  38.25 2.5 0  39 2.5 0  39.75 2.5 0  40.5 2.5 0  41.25 2.5 0  42 2.5 0  42.75 2.5 0  43.5 2.5 0  44.25 2.5 0  45 2.5 0  45.75 2.5 0  46.5 2.5 0  47.25 2.5 0  48 2.5 0  48.75 2.5 0  49.5 2.5 0  50.25 2.5 0  51 2.5 0  51.75 2.5 0  52.5 2.5 0  53.25 2.5 0  54 2.5 0  54.75 2.5 0  55.5 2.5 0  56.25 2.5 0  57 2.5 0  57.75 2.5 0  58.5 2.5 0  59.25 2.5 0  60 2.5 0  0 3 0  0.75 3 0  1.5 3 0  2.25 3 0  3 3 0  3.75 3 0  4.5 3 0  5.25 3 0  6 3 0  6.75 3 0  7.5 3 0  8.25 3 0  9 3 0  9.75 3 0  10.5 3 0  11.25 3 0  12 3 0  12.75 3 0  13.5 3 0  14.25 3 0  15 3 0  15.75 3 0  16.5 3 0  17.25 3 0  18 3 0  18.75 3 0  19.5 3 0  20.25 3 0  21 3 0  21.75 3 0  22.5 3 0  23.25 3 0  24 3 0  24.75 3 0  25.5 3 0  26.25 3 0  27 3 0  27.75 3 0  28.5 3 0  29.25 3 0  30 3 0  30.75 3 0  31.5 3 0  32.25 3 0  33 3 0  33.75 3 0  34.5 3 0  35.25 3 0  36 3 0  36.75 3 0  37.5 3 0  38.25 3 0  39 3 0  39.75 3 0  40.5 3 0  41.25 3 0  42 3 0  42.75 3 0  43.5 3 0  44.25 3 0  45 3 0  45.75 3 0  46.5 3 0  47.25 3 0  48 3 0  48.75 3 0  49.5 3 0  50.25 3 0  51 3 0  51.75 3 0  52.5 3 0  53.25 3 0  54 3 0  54.75 3 0  55.5 3 0  56.25 3 0  57 3 0  57.75 3 0  58.5 3 0  59.25 3 0  60 3 0  0 3.5 0  0.75 3.5 0  1.5 3.5 0  2.25 3.5 0  3 3.5 0  3.75 3.5 0  4.5 3.5 0  5.25 3.5 0  6 3.5 0  6.75 3.5 0  7.5 3.5 0  8.25 3.5 0  9 3.5 0  9.75 3.5 0  10.5 3.5 0  11.25 3.5 0  12 3.5 0  12.75 3.5 0  13.5 3.5 0  14.25 3.5 0  15 3.5 0  15.75 3.5 0  16.5 3.5 0  17.25 3.5 0  18 3.5 0  18.75 3.5 0  19.5 3.5 0  20.25 3.5 0  21 3.5 0  21.75 3.5 0  22.5 3.5 0  23.25 3.5 0  24 3.5 0  24.75 3.5 0  25.5 3.5 0  26.25 3.5 0  27 3.5 0  27.75 3.5 0  28.5 3.5 0  29.25 3.5 0  30 3.5 0  30.75 3.5 0  31.5 3.5 0  32.25 3.5 0  33 3.5 0  33.75 3.5 0  34.5 3.5 0  35.25 3.5 0  36 3.5 0  36.75 3.5 0  37.5 3.5 0  38.25 3.5 0  39 3.5 0  39.75 3.5 0  40.5 3.5 0  41.25 3.5 0  42 3.5 0  42.75 3.5 0  43.5 3.5 0  44.25 3.5 0  45 3.5 0  45.75 3.5 0  46.5 3.5 0  47.25 3.5 0  48 3.5 0  48.75 3.5 0  49.5 3.5 0  50.25 3.5 0  51 3.5 0  51.75 3.5 0  52.5 3.5 0  53.25 3.5 0  54 3.5 0  54.75 3.5 0  55.5 3.5 0  56.25 3.5 0  57 3.5 0  57.75 3.5 0  58.5 3.5 0  59.25 3.5 0  60 3.5 0  0 4 0  0.75 4 0  1.5 4 0  2.25 4 0  3 4 0  3.75 4 0  4.5 4 0  5.25 4 0  6 4 0  6.75 4 0  7.5 4 0  8.25 4 0  9 4 0  9.75 4 0  10.5 4 0  11.25 4 0  12 4 0  12.75 4 0  13.5 4 0  14.25 4 0  15 4 0  15.75 4 0  16.5 4 0  17.25 4 0  18 4 0  18.75 4 0  19.5 4 0  20.25 4 0  21 4 0  21.75 4 0  22.5 4 0  23.25 4 0  24 4 0  24.75 4 0  25.5 4 0  26.25 4 0  27 4 0  27.75 4 0  28.5 4 0  29.25 4 0  30 4 0  30.75 4 0  31.5 4 0  32.25 4 0  33 4 0  33.75 4 0  34.5 4 0  35.25 4 0  36 4 0  36.75 4 0  37.5 4 0  38.25 4 0  39 4 0  39.75 4 0  40.5 4 0  41.25 4 0  42 4 0  42.75 4 0  43.5 4 0  44.25 4 0  45 4 0  45.75 4 0  46.5 4 0  47.25 4 0  48 4 0  48.75 4 0  49.5 4 0  50.25 4 0  51 4 0  51.75 4 0  52.5 4 0  53.25 4 0  54 4 0  54.75 4 0  55.5 4 0  56.25 4 0  57 4 0  57.75 4 0  58.5 4 0  59.25 4 0  60 4 0  0.375 0.25 0  1.125 0.25 0  1.875 0.25 0  2.625 0.25 0  3.375 0.25 0  4.125 0.25 0  4.875 0.25 0  5.625 0.25 0  6.375 0.25 0  7.125 0.25 0  7.875 0.25 0  8.625 0.25 0  9.375 0.25 0  10.125 0.25 0  10.875 0.25 0  11.625 0.25 0  12.375 0.25 0  13.125 0.25 0  13.875 0.25 0  14.625 0.25 0  15.375 0.25 0  16.125 0.25 0  16.875 0.25 0  17.625 0.25 0  18.375 0.25 0  19.125 0.25 0  19.875 0.25 0  20.625 0.25 0  21.375 0.25 0  22.125 0.25 0  22.875 0.25 0  23.625 0.25 0  24.375 0.25 0  25.125 0.25 0  25.875 0.25 0  26.625 0.25 0  27.375 0.25 0  28.125 0.25 0  28.875 0.25 0  29.625 0.25 0  30.375 0.25 0  31.125 0.25 0  31.875 0.25 0  32.625 0.25 0  33.375 0.25 0  34.125 0.25 0  34.875 0.25 0  35.625 0.25 0  36.375 0.25 0  37.125 0.25 0  37.875 0.25 0  38.625 0.25 0  39.375 0.25 0  40.125 0.25 0  40.875 0.25 0  41.625 0.25 0  42.375 0.25 0  43.125 0.25 0  43.875 0.25 0  44.625 0.25 0  45.375 0.25 0  46.125 0.25 0  46.875 0.25 0  47.625 0.25 0  48.375 0.25 0  49.125 0.25 0  49.875 0.25 0  50.625 0.25 0  51.375 0.25 0  52.125 0.25 0  52.875 0.25 0  53.625 0.25 0  54.375 0.25 0  55.125 0.25 0  55.875 0.25 0  56.625 0.25 0  57.375 0.25 0  58.125 0.25 0  58.875 0.25 0  59.625 0.25 0  0.375 0.75 0  1.125 0.75 0  1.875 0.75 0  2.625 0.75 0  3.375 0.75 0  4.125 0.75 0  4.875 0.75 0  5.625 0.75 0  6.375 0.75 0  7.125 0.75 0  7.875 0.75 0  8.625 0.75 0  9.375 0.75 0  10.125 0.75 0  10.875 0.75 0  11.625 0.75 0  12.375 0.75 0  13.125 0.75 0  13.875 0.75 0  14.625 0.75 0  15.375 0.75 0  16.125 0.75 0  16.875 0.75 0  17.625 0.75 0  18.375 0.75 0  19.125 0.75 0  19.875 0.75 0  20.625 0.75 0  21.375 0.75 0  22.125 0.75 0  22.875 0.75 0  23.625 0.75 0  24.375 0.75 0  25.125 0.75 0  25.875 0.75 0  26.625 0.75 0  27.375 0.75 0  28.125 0.75 0  28.875 0.75 0  29.625 0.75 0  30.375 0.75 0  31.125 0.75 0  31.875 0.75 0  32.625 0.75 0  33.375 0.75 0  34.125 0.75 0  34.875 0.75 0  35.625 0.75 0  36.375 0.75 0  37.125 0.75 0  37.875 0.75 0  38.625 0.75 0  39.375 0.75 0  40.125 0.75 0  40
[...]
<PointData  Scalars="f_8-1"> 
<DataArray  type="Float64"  Name="f_8-1"  format="ascii">-3.7083708615233206e+00  -3.6619027199618541e+00  -3.6156660273512724e+00  -3.5693672574653861e+00  -3.5230305364726648e+00  -3.4766680486964456e+00  -3.4302914631070482e+00  -3.3839098250657642e+00  -3.3375291824002189e+00  -3.2911527550244464e+00  -3.2447816112336048e+00  -3.1984155289452452e+00  -3.1520535713860771e+00  -3.1056946058189729e+00  -3.0593376398700016e+00  -3.0129818089168197e+00  -2.9666264275217613e+00  -2.9202711728589086e+00  -2.8739160993396431e+00  -2.8275614251963450e+00  -2.7812073477814363e+00  -2.7348540552289364e+00  -2.6885018497689495e+00  -2.6421512040543975e+00  -2.5958026679489583e+00  -2.5494566823591294e+00  -2.5031134115948976e+00  -2.4567726751856256e+00  -2.4104339906281900e+00  -2.3640966895148932e+00  -2.3177600527130831e+00  -2.2714234234231476e+00  -2.2250862777257416e+00  -2.1787482521787567e+00  -2.1324091382046508e+00  -2.0860688569363122e+00  -2.0397274260945686e+00  -1.9933849273154671e+00  -1.9470414783427266e+00  -1.9006972119383829e+00  -1.8543522613164807e+00  -1.8080067511420017e+00  -1.7616607926862160e+00  -1.7153144819129742e+00  -1.6689678994175143e+00  -1.6226211114734259e+00  -1.5762741716130904e+00  -1.5299271223912729e+00  -1.4835799970891967e+00  -1.4372328212567032e+00  -1.3908856140512322e+00  -1.3445383893973641e+00  -1.2981911569971769e+00  -1.2518439232217926e+00  -1.2054966919054226e+00  -1.1591494650192473e+00  -1.1128022432911955e+00  -1.0664550265630204e+00  -1.0201078144493574e+00  -9.7376060576816958e-01  -9.2741340090939939e-01  -8.8106619610301806e-01  -8.3471899865527677e-01  -7.8837178798820107e-01  -7.4202461385533014e-01  -6.9567735360320637e-01  -6.4933029871744508e-01  -6.0298277192093641e-01  -5.5663629598877917e-01  -5.1028755671285131e-01  -4.6394346512935608e-01  -4.1759017128576126e-01  -3.7125387302811824e-01  -3.2488699192243586e-01  -2.7857062228973650e-01  -2.3217715953420051e-01  -1.8594390464461449e-01  -1.3958867526816804e-01  -9.3367374997840674e-02  -4.6804620790919266e-02  6.9110268807131474e-04  -3.7081612660812397e+00  -3.6618969729364834e+00  -3.6156395792530076e+00  -3.5693443821798900e+00  -3.5230121836418919e+00  -3.4766542312559396e+00  -3.4302809438958723e+00  -3.3839010822604147e+00  -3.3375209759407962e+00  -3.2911443124573871e+00  -3.2447725852026279e+00  -3.1984058449563828e+00  -3.1520433455629480e+00  -3.1056839913540730e+00  -3.0593267740788570e+00  -3.0129708455429216e+00  -2.9666155166395853e+00  -2.9202603850076509e+00  -2.8739054201438727e+00  -2.8275508171336927e+00  -2.7811967977923131e+00  -2.7348435569621876e+00  -2.6884913570406663e+00  -2.6421406074244000e+00  -2.5957918179879274e+00  -2.5494454394828820e+00  -2.5031016919430300e+00  -2.4567604706322932e+00  -2.4104213616393433e+00  -2.3640837405782600e+00  -2.3177469039951011e+00  -2.2714101876088137e+00  -2.2250730461810364e+00  -2.1787350897614175e+00  -2.1323960843983327e+00  -2.0860559303054824e+00  -2.0397146299099540e+00  -1.9933722548442170e+00  -1.9470289171876327e+00  -1.9006847471897212e+00  -1.8543398776573821e+00  -1.8079944340980991e+00  -1.7616485292841932e+00  -1.7153022609340733e+00  -1.6689557114125804e+00  -1.6226089486348276e+00  -1.5762620275850281e+00  -1.5299149920613975e+00  -1.4835678763965663e+00  -1.4372207070257881e+00  -1.3908735038549354e+00  -1.3445262814404471e+00  -1.2981790500112489e+00  -1.2518318163698574e+00  -1.2054845846808200e+00  -1.1591373571800534e+00  -1.1127901347242903e+00  -1.0664429173794738e+00  -1.0200957045077557e+00  -9.7374849576886879e-01  -9.2740128942873312e-01  -8.8105408713223521e-01  -8.3470688255452741e-01  -7.8835968858170813e-01  -7.4201247440278351e-01  -6.9566530643274549e-01  -6.4931804423968786e-01  -6.0297096770080827e-01  -5.5662354870686581e-01  -5.1027670827863703e-01  -4.6392896368079334e-01  -4.1758239895340843e-01  -3.7123440437333866e-01  -3.2488722192060598e-01  -2.7854062765662246e-01  -2.3219362541074434e-01  -1.8589193749325425e-01  -1.3956893734771564e-01  -9.3265710089994430e-02  -4.6537344850136324e-02  -1.3604468093367713e-04  -3.7081713690211249e+00  -3.6619093652471149e+00  -3.6156313516908445e+00  -3.5693307375442922e+00  -3.5229990002506479e+00  -3.4766401222222663e+00  -3.4302636022375310e+00  -3.3838796542781204e+00  -3.3374957811861257e+00  -3.2911164599061253e+00  -3.2447431742802100e+00  -3.1983757915514284e+00  -3.1520133533457564e+00  -3.1056543162361230e+00  -3.0592974715966523e+00  -3.0129420741204975e+00  -2.9665873157160423e+00  -2.9202325202110924e+00  -2.8738775921800173e+00  -2.8275229108967102e+00  -2.7811688508243209e+00  -2.7348155604566262e+00  -2.6884631345503864e+00  -2.6421118768860850e+00  -2.5957623488492509e+00  -2.5494151754275172e+00  -2.5030707705086246e+00  -2.4567291569485148e+00  -2.4103899510523417e+00  -2.3640524796247053e+00  -2.3177159508171132e+00  -2.2713796092504639e+00  -2.2250428382609506e+00  -2.1787052037006815e+00  -2.1323664521028407e+00  -2.0860264818529575e+00  -2.0396853037731075e+00  -1.9933430021746703e+00  -1.9469997022245138e+00  -1.9006555455828140e+00  -1.8543106740177930e+00  -1.8079652195478877e+00  -1.7616192993923216e+00  -1.7152730141268133e+00  -1.6689264478290922e+00  -1.6225796693380994e+00  -1.5762327340585629e+00  -1.5298856859194918e+00  -1.4835385592506376e+00  -1.4371913804408152e+00  -1.3908441693451539e+00  -1.3444969404631728e+00  -1.2981497039462286e+00  -1.2518024664790879e+00  -1.2054552320754106e+00  -1.1591080027694569e+00  -1.1127607792558638e+00  -1.0664135613065586e+00  -1.0200663483741828e+00  -9.7371913931394405e-01  -9.2737193395907702e-01  -8.8102472978847735e-01  -8.3467753024058655e-01  -7.8833032534112790e-01  -7.4198313580554531e-01  -6.9563591593207197e-01  -6.4928875914534023e-01  -6.0294148147380899e-01  -5.5659442326701869e-01  -5.1024699401989126e-01  -4.6390013689114895e-01  -4.1755247984683236e-01  -3.7120580004439224e-01  -3.2485817492612767e-01  -2.7851176344282080e-01  -2.3216407835767139e-01  -1.8582347491787365e-01  -1.3947001241057397e-01  -9.3142353176193030e-02  -4.6504617549768798e-02  -3.8226111015944231e-06  -3.7081886495374663e+00  -3.6619111631938877e+00  -3.6156284978067896e+00  -3.5693252749223889e+00  -3.5229932740184453e+00  -3.4766347412106624e+00  -3.4302582324416329e+00  -3.3838738387879403e+00  -3.3374892894623129e+00  -3.2911093090943413e+00  -3.2447355341238091e+00  -3.1983678082453300e+00  -3.1520052429101502e+00  -3.1056462058616994e+00  -3.0592893993249093e+00  -3.0129340960572506e+00  -2.9665794903401745e+00  -2.9202248249638627e+00  -2.8738699503758336e+00  -2.8275152668280463e+00  -2.7811611954765496e+00  -2.7348078880812801e+00  -2.6884553984922848e+00  -2.6421039875553713e+00  -2.5957542122501551e+00  -2.5494067362919166e+00  -2.5030620340879248e+00  -2.4567201823074618e+00  -2.4103808272807346e+00  -2.3640432990680362e+00  -2.3177067898460511e+00  -2.2713705194141967e+00  -2.2250338462837673e+00  -2.1786963164761328e+00  -2.1323576633849735e+00  -2.0860177783511316e+00  -2.0396766697237725e+00  -1.9933344222191556e+00  -1.9469911629133752e+00  -1.9006470359108429e+00  -1.8543021853919708e+00  -1.8079567454757890e+00  -1.7616108350851356e+00  -1.7152645561142867e+00  -1.6689179936291625e+00  -1.6225712171907700e+00  -1.5762242827232014e+00  -1.5298772345298803e+00  -1.4835301072181399e+00  -1.4371829273929728e+00  -1.3908357150848627e+00  -1.3444884849367003e+00  -1.2981412472107443e+00  -1.2517940086707380e+00  -1.2054467733713972e+00  -1.1590995433694811e+00  -1.1127523193279509e+00  -1.0664051010524029e+00  -1.0200578878131454e+00  -9.7371067881353690e-01  -9.2736347291100385e-01  -8.8101626986157056e-01  -8.3466906762807813e-01  -7.8832186881989286e-01  -7.4197466597948869e-01  -6.9562747420139615e-01  -6.4928026096915836e-01  -6.0293309161238584e-01  -5.5658583957936936e-01  -5.1023873980251266e-01  -4.6389138365241850e-01  -4.1754446190616801e-01  -3.7119689310960063e-01  -3.2485032899680594e-01  -2.7850148903666733e-01  -2.3215357684566201e-01  -1.8579364377524932e-01  -1.3945295056358031e-01  -9.3047583428911396e-02  -4.6516628610328230e-02  5.5837251520543916e-06  -3.7081992280562899e+00  -3.6619187574703873e+00  -3.6156337306705688e+00  -3.5693291925146333e+00  -3.5229975428651890e+00  -3.4766404763561649e+00  -3.4302657239426613e+00  -3.3838826902750943e+00  -3.3374989711019643e+00  -3.2911192786676562e+00  -3.2447454707269263e+00  -3.1983775718069474e+00  -3.1520147173594935e+00  -3.1056554490480672e+00  -3.0592985054497692e+00  -3.0129430624281701e+00  -2.9665883359315393e+00  -2.9202336513808316e+00  -2.8738788455592137e+00  -2.8275242332950574e+00  -2.7811701898887620e+00  -2.7348168941724693e+00  -2.6884644475265635e+00  -2.6421131230054389e+00  -2.5957634453720502e+00  -2.5494160300387607e+00  -2.5030713188819176e+00  -2.4567293858098211e+00  -2.4103898987845258e+00  -2.3640522196148264e+00  -2.3177155691740507e+00  -2.2713791859092698e+00  -2.2250424358357535e+00  -2.1787048638799025e+00  -2.1323661973439800e+00  -2.0860263196655171e+00  -2.0396852315688929e+00  -1.9933430115064779e+00  -1.9469997819674596e+00  -1.9006556840449818e+00  -1.8543108601700364e+00  -1.8079654436252905e+00  -1.7616195530924137e+00  -1.7152732905836470e+00  -1.6689267414749902e+00  -1.6225799757239530e+00  -1.5762330496670016e+00  -1.5298860079943841e+00  -1.4835388856518363e+00  -1.4371917095296505e+00  -1.3908444998959528e+00  -1.3444972715947945e+00  -1.2981500350631647e+00  -1.2518027972186598e+00  -1.2054555622526335e+00  -1.1591083323345619e+00  -1.1127611082296127e+00  -1.0664138897943978e+00  -1.0200666764038147e+00  -9.7371946715824143e-01  -9.2737226126846195e-01  -8.8102505768509909e-01  -8.3467785629843283e-01  -7.8833065526324064e-01  -7.4198345712271141e-01  -6.9563625517021921e-01  -6.4928906280319942e-01  -6.0294185228917696e-01  -5.5659467830834708e-01  -5.1024743928007454e-01  -4.6390032394290076e-01  -4.1755301223172769e-01  -3.7120605409954827e-01  -3.2485834437818939e-01  -2.7851094318108433e-01  -2.3215855744290245e-01  -1.8580635675417970e-01  -1.3944609139519545e-01  -9.3035472672064662e-02  -4.6527314882821240e-02  -1.1994586993934812e-06  -3.7081886495374516e+00  -3.6619111631938370e+00  -3.6156284978066804e+00  -3.5693252749223161e+00  -3.5229932740184160e+00  -3.4766347412106744e+00  -3.4302582324416702e+00  -3.3838738387879661e+00  -3.3374892894623263e+00  -3.2911093090943364e+00  -3.2447355341237740e+00  -3.1983678082452829e+00  -3.1520052429101124e+00  -3.1056462058616368e+00  -3.0592893993248595e+00  -3.0129340960572621e+00  -2.9665794903401608e+00  -2.9202248249638414e+00  -2.8738699503759078e+00  -2.8275152668282115e+00  -2.7811611954767179e+00  -2.7348078880813813e+00  -2.6884553984923345e+00  -2.6421039875554455e+00  -2.5957542122503310e+00  -2.5494067362922008e+00  -2.5030620340882326e+00  -2.4567201823077056e+00  -2.4103808272808562e+00  -2.3640432990680429e+00  -2.3177067898459769e+00  -2.2713705194140976e+00  -2.2250338462836843e+00  -2.1786963164760822e+00  -2.1323576633849486e+00  -2.0860177783511302e+00  -2.0396766697237916e+00  -1.9933344222191651e+00  -1.9469911629133774e+00  -1.9006470359108460e+00  -1.8543021853919721e+00  -1.8079567454757872e+00  -1.7616108350851403e+00  -1.7152645561142821e+00  -1.6689179936291598e+00  -1.6225712171907765e+00  -1.5762242827232065e+00  -1.5298772345298808e+00  -1.4835301072181413e+00  -1.4371829273929713e+00  -1.3908357150848587e+00  -1.3444884849366996e+00  -1.2981412472107481e+00  -1.2517940086707351e+00  -1.2054467733714003e+00  -1.1590995433694840e+00  -1.1127523193279532e+00  -1.0664051010524047e+00  -1.0200578878131474e+00  -9.7371067881353690e-01  -9.2736347291100030e-01  -8.8101626986156722e-01  -8.3466906762808257e-01  -7.8832186881989874e-01  -7.4197466597949135e-01  -6.9562747420139459e-01  -6.4928026096915481e-01  -6.0293309161238651e-01  -5.5658583957937136e-01  -5.1023873980251244e-01  -4.6389138365241772e-01  -4.1754446190616545e-01  -3.7119689310959786e-01  -3.2485032899680477e-01  -2.7850148903667027e-01  -2.3215357684566304e-01  -1.8579364377525082e-01  -1.3945295056358439e-01  -9.3047583428910452e-02  -4.6516628610328632e-02  5.5837251522850014e-06  -3.7081713690211271e+00  -3.6619093652470278e+00  -3.6156313516907321e+00  -3.5693307375442109e+00  -3.5229990002506333e+00  -3.4766401222222933e+00  -3.4302636022375812e+00  -3.3838796542781613e+00  -3.3374957811861448e+00  -3.2911164599061524e+00  -3.2447431742801780e+00  -3.1983757915514133e+00  -3.1520133533457289e+00  -3.1056543162360519e+00  -3.0592974715966079e+00  -3.0129420741205153e+00  -2.9665873157160796e+00  -2.9202325202111394e+00  -2.8738775921801625e+00  -2.8275229108969597e+00  -2.7811688508245598e+00  -2.7348155604567825e+00  -2.6884631345505094e+00  -2.6421118768862719e+00  -2.5957623488495294e+00  -2.5494151754279062e+00  -2.5030707705090092e+00  -2.4567291569487666e+00  -2.4103899510524731e+00  -2.3640524796246871e+00  -2.3177159508170164e+00  -2.2713796092503200e+00  -2.2250428382608374e+00  -2.1787052037006127e+00  -2.1323664521028127e+00  -2.0860264818529668e+00  -2.0396853037731240e+00  -1.9933430021746854e+00  -1.9469997022245207e+00  -1.9006555455828251e+00  -1.8543106740177904e+00  -1.8079652195478950e+00  -1.7616192993923292e+00  -1.7152730141268093e+00  -1.6689264478290848e+00  -1.6225796693381067e+00  -1.5762327340585724e+00  -1.5298856859194860e+00  -1.4835385592506349e+00  -1.4371913804408309e+00  -1.3908441693451539e+00  -1.3444969404631784e+00  -1.2981497039462384e+00  -1.2518024664790901e+00  -1.2054552320754159e+00  -1.1591080027694516e+00  -1.1127607792558727e+00  -1.0664135613065551e+00  -1.0200663483741850e+00  -9.7371913931393916e-01  -9.2737193395907569e-01  -8.8102472978847868e-01  -8.3467753024058966e-01  -7.8833032534113290e-01  -7.4198313580554931e-01  -6.9563591593206575e-01  -6.4928875914533457e-01  -6.0294148147380811e-01  -5.5659442326701836e-01  -5.1024699401988394e-01  -4.6390013689115034e-01  -4.1755247984682703e-01  -3.7120580004438442e-01  -3.2485817492613461e-01  -2.7851176344282441e-01  -2.3216407835767491e-01  -1.8582347491787596e-01  -1.3947001241057766e-01  -9.3142353176193751e-02  -4.6504617549769360e-02  -3.8226111017558947e-06  -3.7081612660812442e+00  -3.6618969729364035e+00  -3.6156395792529428e+00  -3.5693443821798625e+00  -3.5230121836419293e+00  -3.4766542312560214e+00  -3.4302809438959527e+00  -3.3839010822604907e+00  -3.3375209759408446e+00  -3.2911443124574418e+00  -3.2447725852026652e+00  -3.1984058449563779e+00  -3.1520433455629662e+00  -3.1056839913540650e+00  -3.0593267740788974e+00  -3.0129708455429731e+00  -2.9666155166396941e+00  -2.9202603850078219e+00  -2.8739054201441090e+00  -2.8275508171339840e+00  -2.7811967977925822e+00  -2.7348435569623879e+00  -2.6884913570408635e+00  -2.6421406074246669e+00  -2.5957918179882409e+00  -2.5494454394832218e+00  -2.5031016919433382e+00  -2.4567604706324651e+00  -2.4104213616394174e+00  -2.3640837405782227e+00  -2.3177469039950194e+00  -2.2714101876087058e+00  -2.2250730461809471e+00  -2.1787350897613842e+00  -2.1323960843983154e+00  -2.0860559303054838e+00  -2.0397146299099602e+00  -1.9933722548442254e+00  -1.9470289171876429e+00  -1.9006847471897284e+00  -1.8543398776573863e+00  -1.8079944340981025e+00  -1.7616485292841957e+00  -1.7153022609340574e+00  -1.6689557114125706e+00  -1.6226089486348376e+00  -1.5762620275850314e+00  -1.5299149920613855e+00  -1.4835678763965743e+00  -1.4372207070257983e+00  -1.3908735038549338e+00  -1.3445262814404539e+00  -1.2981790500112551e+00  -1.2518318163698641e+00  -1.2054845846808282e+00  -1.1591373571800501e+00  -1.1127901347242939e+00  -1.0664429173794743e+00  -1.0200957045077568e+00  -9.7374849576886269e-01  -9.2740128942873490e-01  -8.8105408713224376e-01  -8.3470688255453307e-01  -7.8835968858171768e-01  -7.4201247440278550e-01  -6.9566530643273561e-01  -6.4931804423968242e-01  -6.0297096770080560e-01  -5.5662354870686681e-01  -5.1027670827863358e-01  -4.6392896368079534e-01  -4.1758239895339794e-01  -3.7123440437333283e-01  -3.2488722192061920e-01  -2.7854062765662629e-01  -2.3219362541074767e-01  -1.8589193749325503e-01  -1.3956893734771675e-01  -9.3265710089995943e-02  -4.6537344850136206e-02  -1.3604468093408216e-04  -3.7083708615232847e+00  -3.6619027199617595e+00  -3.6156660273512111e+00  -3.5693672574653892e+00  -3.5230305364727177e+00  -3.4766680486965562e+00  -3.4302914631071526e+00  -3.3839098250658650e+00  -3.3375291824003011e+00  -3.2911527550245312e+00  -3.2447816112336678e+00  -3.1984155289452771e+00  -3.1520535713861304e+00  -3.1056946058190253e+00  -3.0593376398700944e+00  -3.0129818089169187e+00  -2.9666264275219381e+00  -2.9202711728591502e+00  -2.8739160993399624e+00  -2.8275614251967141e+00  -2.7812073477817565e+00  -2.7348540552291962e+00  -2.6885018497692026e+00  -2.6421512040547159e+00  -2.5958026679493300e+00  -2.5494566823594904e+00  -2.5031134115952081e+00  -2.4567726751857819e+00  -2.4104339906282264e+00  -2.3640966895148217e+00  -2.3177600527129791e+00  -2.2714234234230348e+00  -2.2250862777256510e+00  -2.1787482521787349e+00  -2.1324091382046388e+00  -2.0860688569363171e+00  -2.0397274260945815e+00  -1.9933849273154707e+00  -1.9470414783427399e+00  -1.9006972119383876e+00  -1.8543522613164838e+00  -1.8080067511420024e+00  -1.7616607926862209e+00  -1.7153144819129575e+00  -1.6689678994175066e+00  -1.6226211114734397e+00  -1.5762741716130881e+00  -1.5299271223912636e+00  -1.4835799970892061e+00  -1.4372328212567134e+00  -1.3908856140512305e+00  -1.3445383893973739e+00  -1.2981911569971825e+00  -1.2518439232218030e+00  -1.2054966919054340e+00  -1.1591494650192418e+00  -1.1128022432912039e+00  -1.0664550265630222e+00  -1.0201078144493594e+00  -9.7376060576816337e-01  -9.2741340090940427e-01  -8.8106619610302572e-01  -8.3471899865528087e-01  -7.8837178798821206e-01  -7.4202461385533547e-01  -6.9567735360319360e-01  -6.4933029871744286e-01  -6.0298277192093275e-01  -5.5663629598877773e-01  -5.1028755671285153e-01  -4.6394346512935741e-01  -4.1759017128575043e-01  -3.7125387302811363e-01  -3.2488699192244624e-01  -2.7857062228974006e-01  -2.3217715953420512e-01  -1.8594390464461608e-01  -1.3958867526816970e-01  -9.3367374997841188e-02  -4.6804620790919814e-02  6.9110268807148312e-04  -3.6849103213198671e+00  -3.6387020615791887e+00  -3.5924346093813111e+00  -3.5461197750560025e+00  -3.4997732743299910e+00  -3.4534068850829098e+00  -3.4070303380210061e+00  -3.3606508495833975e+00  -3.3142731068186366e+00  -3.2678994856614230e+00  -3.2215306785705873e+00  -3.1751663026213222e+00  -3.1288054856728680e+00  -3.0824472320757179e+00  -3.0360906282079902e+00  -2.9897349081820765e+00  -2.9433795744980720e+00  -2.8970244616164562e+00  -2.8506696585653875e+00  -2.8043153449299525e+00  -2.7579617152461777e+00  -2.7116090191207518e+00  -2.6652576291822507e+00  -2.6189080230230846e+00  -2.5725606651886919e+00  -2.5262158494661286e+00  -2.4798735871849975e+00  -2.4335335853775835e+00  -2.3871953115882811e+00  -2.3408581064837346e+00  -2.2945213017354060e+00  -2.2481843115394229e+00  -2.2018466855432512e+00  -2.1555081247316390e+00  -2.1091684704833695e+00  -2.0628276783695760e+00  -2.0164857868437993e+00  -1.9701428874293230e+00  -1.9237991000700079e+00  -1.8774545547440313e+00  -1.8311093790711399e+00  -1.7847636908192193e+00  -1.7384175940873658e+00  -1.6920711779926585e+00  -1.6457245169514334e+00  -1.5993776718552601e+00  -1.5530306916686223e+00  -1.5066836151258465e+00  -1.4603364723476373e+00  -1.4139892862886230e+00  -1.3676420740012505e+00  -1.3212948477331234e+00  -1.2749476158880007e+00  -1.2286003838724353e+00  -1.1822531548367170e+00  -1.1359059303148387e+00  -1.0895587107455040e+00  -1.0432114959109084e+00  -9.9686428519568493e-01  -9.5051707794313800e-01  -9.0416987324220854e-01  -8.5782267087765074e-01  -8.1147546925133873e-01  -7.6512827035418096e-01  -7.1878106846595036e-01  -6.7243387473341287e-01  -6.2608666598311835e-01  -5.79739484275631