<?xml version="1.0"?>
<VTKFile type="UnstructuredGrid"  version="0.1"  >
<UnstructuredGrid>
<Piece  NumberOfPoints="1369" NumberOfCells="2560">
<Points>
<DataArray  type="Float64"  NumberOfComponents="3"  format="ascii">0 0 0  0.75 0 0  1.5 0 0  2.25 0 0  3 0 0  3.75 0 0  4.5 0 0  5.25 0 0  6 0 0  6.75 0 0  7.5 0 0  8.25 0 0  9 0 0  9.75 0 0  10.5 0 0  11.25 0 0  12 0 0  12.75 0 0  13.5 0 0  14.25 0 0  15 0 0  15.75 0 0  16.5 0 0  17.25 0 0  18 0 0  18.75 0 0  19.5 0 0  20.25 0 0  21 0 0  21.75 0 0  22.5 0 0  23.25 0 0  24 0 0  24.75 0 0  25.5 0 0  26.25 0 0  27 0 0  27.75 0 0  28.5 0 0  29.25 0 0  30 0 0  30.75 0 0  31.5 0 0  32.25 0 0  33 0 0  33.75 0 0  34.5 0 0  35.25 0 0  36 0 0  36.75 0 0  37.5 0 0  38.25 0 0  39 0 0  39.75 0 0  40.5 0 0  41.25 0 0  42 0 0  42.75 0 0  43.5 0 0  44.25 0 0  45 0 0  45.75 0 0  46.5 0 0  47.25 0 0  48 0 0  48.75 0 0  49.5 0 0  50.25 0 0  51 0 0  51.75 0 0  52.5 0 0  53.25 0 0  54 0 0  54.75 0 0  55.5 0 0  56.25 0 0  57 0 0  57.75 0 0  58.5 0 0  59.25 0 0  60 0 0  0 0.5 0  0.75 0.5 0  1.5 0.5 0  2.25 0.5 0  3 0.5 0  3.75 0.5 0  4.5 0.5 0  5.25 0.5 0  6 0.5 0  6.75 0.5 0  7.5 0.5 0  8.25 0.5 0  9 0.5 0  9.75 0.5 0  10.5 0.5 0  11.25 0.5 0  12 0.5 0  12.75 0.5 0  13.5 0.5 0  14.25 0.5 0  15 0.5 0  15.75 0.5 0  16.5 0.5 0  17.25 0.5 0  18 0.5 0  18.75 0.5 0  19.5 0.5 0  20.25 0.5 0  21 0.5 0  21.75 0.5 0  22.5 0.5 0  23.25 0.5 0  24 0.5 0  24.75 0.5 0  25.5 0.5 0  26.25 0.5 0  27 0.5 0  27.75 0.5 0  28.5 0.5 0  29.25 0.5 0  30 0.5 0  30.75 0.5 0  31.5 0.5 0  32.25 0.5 0  33 0.5 0  33.75 0.5 0  34.5 0.5 0  35.25 0.5 0  36 0.5 0  36.75 0.5 0  37.5 0.5 0  38.25 0.5 0  39 0.5 0  39.75 0.5 0  40.5 0.5 0  41.25 0.5 0  42 0.5 0  42.75 0.5 0  43.5 0.5 0  44.25 0.5 0  45 0.5 0  45.75 0.5 0  46.5 0.5 0  47.25 0.5 0  48 0.5 0  48.75 0.5 0  49.5 0.5 0  50.25 0.5 0  51 0.5 0  51.75 0.5 0  52.5 0.5 0  53.25 0.5 0  54 0.5 0  54.75 0.5 0  55.5 0.5 0  56.25 0.5 0  57 0.5 0  57.75 0.5 0  58.5 0.5 0  59.25 0.5 0  60 0.5 0  0 1 0  0.75 1 0  1.5 1 0  2.25 1 0  3 1 0  3.75 1 0  4.5 1 0  5.25 1 0  6 1 0  6.75 1 0  7.5 1 0  8.25 1 0  9 1 0  9.75 1 0  10.5 1 0  11.25 1 0  12 1 0  12.75 1 0  13.5 1 0  14.25 1 0  15 1 0  15.75 1 0  16.5 1 0  17.25 1 0  18 1 0  18.75 1 0  19.5 1 0  20.25 1 0  21 1 0  21.75 1 0  22.5 1 0  23.25 1 0  24 1 0  24.75 1 0  25.5 1 0  26.25 1 0  27 1 0  27.75 1 0  28.5 1 0  29.25 1 0  30 1 0  30.75 1 0  31.5 1 0  32.25 1 0  33 1 0  33.75 1 0  34.5 1 0  35.25 1 0  36 1 0  36.75 1 0  37.5 1 0  38.25 1 0  39 1 0  39.75 1 0  40.5 1 0  41.25 1 0  42 1 0  42.75 1 0  43.5 1 0  44.25 1 0  45 1 0  45.75 1 0  46.5 1 0  47.25 1 0  48 1 0  48.75 1 0  49.5 1 0  50.25 1 0  51 1 0  51.75 1 0  52.5 1 0  53.25 1 0  54 1 0  54.75 1 0  55.5 1 0  56.25 1 0  57 1 0  57.75 1 0  58.5 1 0  59.25 1 0  60 1 0  0 1.5 0  0.75 1.5 0  1.5 1.5 0  2.25 1.5 0  3 1.5 0  3.75 1.5 0  4.5 1.5 0  5.25 1.5 0  6 1.5 0  6.75 1.5 0  7.5 1.5 0  8.25 1.5 0  9 1.5 0  9.75 1.5 0  10.5 1.5 0  11.25 1.5 0  12 1.5 0  12.75 1.5 0  13.5 1.5 0  14.25 1.5 0  15 1.5 0  15.75 1.5 0  16.5 1.5 0  17.25 1.5 0  18 1.5 0  18.75 1.5 0  19.5 1.5 0  20.25 1.5 0  21 1.5 0  21.75 1.5 0  22.5 1.5 0  23.25 1.5 0  24 1.5 0  24.75 1.5 0  25.5 1.5 0  26.25 1.5 0  27 1.5 0  27.75 1.5 0  28.5 1.5 0  29.25 1.5 0  30 1.5 0  30.75 1.5 0  31.5 1.5 0  32.25 1.5 0  33 1.5 0  33.75 1.5 0  34.5 1.5 0  35.25 1.5 0  36 1.5 0  36.75 1.5 0  37.5 1.5 0  38.25 1.5 0  39 1.5 0  39.75 1.5 0  40.5 1.5 0  41.25 1.5 0  42 1.5 0  42.75 1.5 0  43.5 1.5 0  44.25 1.5 0  45 1.5 0  45.75 1.5 0  46.5 1.5 0  47.25 1.5 0  48 1.5 0  48.75 1.5 0  49.5 1.5 0  50.25 1.5 0  51 1.5 0  51.75 1.5 0  52.5 1.5 0  53.25 1.5 0  54 1.5 0  54.75 1.5 0  55.5 1.5 0  56.25 1.5 0  57 1.5 0  57.75 1.5 0  58.5 1.5 0  59.25 1.5 0  60 1.5 0  0 2 0  0.75 2 0  1.5 2 0  2.25 2 0  3 2 0  3.75 2 0  4.5 2 0  5.25 2 0  6 2 0  6.75 2 0  7.5 2 0  8.25 2 0  9 2 0  9.75 2 0  10.5 2 0  11.25 2 0  12 2 0  12.75 2 0  13.5 2 0  14.25 2 0  15 2 0  15.75 2 0  16.5 2 0  17.25 2 0  18 2 0  18.75 2 0  19.5 2 0  20.25 2 0  21 2 0  21.75 2 0  22.5 2 0  23.25 2 0  24 2 0  24.75 2 0  25.5 2 0  26.25 2 0  27 2 0  27.75 2 0  28.5 2 0  29.25 2 0  30 2 0  30.75 2 0  31.5 2 0  32.25 2 0  33 2 0  33.75 2 0  34.5 2 0  35.25 2 0  36 2 0  36.75 2 0  37.5 2 0  38.25 2 0  39 2 0  39.75 2 0  40.5 2 0  41.25 2 0  42 2 0  42.75 2 0  43.5 2 0  44.25 2 0  45 2 0  45.75 2 0  46.5 2 0  47.25 2 0  48 2 0  48.75 2 0  49.5 2 0  50.25 2 0  51 2 0  51.75 2 0  52.5 2 0  53.25 2 0  54 2 0  54.75 2 0  55.5 2 0  56.25 2 0  57 2 0  57.75 2 0  58.5 2 0  59.25 2 0  60 2 0  0 2.5 0  0.75 2.5 0  1.5 2.5 0  2.25 2.5 0  3 2.5 0  3.75 2.5 0  4.5 2.5 0  5.25 2.5 0  6 2.5 0  6.75 2.5 0  7.5 2.5 0  8.25 2.5 0  9 2.5 0  9.75 2.5 0  10.5 2.5 0  11.25 2.5 0  12 2.5 0  12.75 2.5 0  13.5 2.5 0  14.25 2.5 0  15 2.5 0  15.75 2.5 0  16.5 2.5 0  17.25 2.5 0  18 2.5 0  18.75 2.5 0  19.5 2.5 0  20.25 2.5 0  21 2.5 0  21.75 2.5 0  22.5 2.5 0  23.25 2.5 0  24 2.5 0  24.75 2.5 0  25.5 2.5 0  26.25 2.5 0  27 2.5 0  27.75 2.5 0  28.5 2.5 0  29.25 2.5 0  30 2.5 0  30.75 2.5 0  31.5 2.5 0  32.25 2.5 0  33 2.5 0  33.75 2.5 0  34.5 2.5 0  35.25 2.5 0  36 2.5 0  36.75 2.5 0  37.5 2.5 0  38.25 2.5 0  39 2.5 0  39.75 2.5 0  40.5 2.5 0  41.25 2.5 0  42 2.5 0  42.75 2.5 0  43.5 2.5 0  44.25 2.5 0  45 2.5 0  45.75 2.5 0  46.5 2.5 0  47.25 2.5 0  48 2.5 0  48.75 2.5 0  49.5 2.5 0  50.25 2.5 0  51 2.5 0  51.75 2.5 0  52.5 2.5 0  53.25 2.5 0  54 2.5 0  54.75 2.5 0  55.5 2.5 0  56.25 2.5 0  57 2.5 0  57.75 2.5 0  58.5 2.5 0  59.25 2.5 0  60 2.5 0  0 3 0  0.75 3 0  1.5 3 0  2.25 3 0  3 3 0  3.75 3 0  4.5 3 0  5.25 3 0  6 3 0  6.75 3 0  7.5 3 0  8.25 3 0  9 3 0  9.75 3 0  10.5 3 0  11.25 3 0  12 3 0  12.75 3 0  13.5 3 0  14.25 3 0  15 3 0  15.75 3 0  16.5 3 0  17.25 3 0  18 3 0  18.75 3 0  19.5 3 0  20.25 3 0  21 3 0  21.75 3 0  22.5 3 0  23.25 3 0  24 3 0  24.75 3 0  25.5 3 0  26.25 3 0  27 3 0  27.75 3 0  28.5 3 0  29.25 3 0  30 3 0  30.75 3 0  31.5 3 0  32.25 3 0  33 3 0  33.75 3 0  34.5 3 0  35.25 3 0  36 3 0  36.75 3 0  37.5 3 0  38.25 3 0  39 3 0  39.75 3 0  40.5 3 0  41.25 3 0  42 3 0  42.75 3 0  43.5 3 0  44.25 3 0  45 3 0  45.75 3 0  46.5 3 0  47.25 3 0  48 3 0  48.75 3 0  49.5 3 0  50.25 3 0  51 3 0  51.75 3 0  52.5 3 0  53.25 3 0  54 3 0  54.75 3 0  55.5 3 0  56.25 3 0  57 3 0  57.75 3 0  58.5 3 0  59.25 3 0  60 3 0  0 3.5 0  0.75 3.5 0  1.5 3.5 0  2.25 3.5 0  3 3.5 0  3.75 3.5 0  4.5 3.5 0  5.25 3.5 0  6 3.5 0  6.75 3.5 0  7.5 3.5 0  8.25 3.5 0  9 3.5 0  9.75 3.5 0  10.5 3.5 0  11.25 3.5 0  12 3.5 0  12.75 3.5 0  13.5 3.5 0  14.25 3.5 0  15 3.5 0  15.75 3.5 0  16.5 3.5 0  17.25 3.5 0  18 3.5 0  18.75 3.5 0  19.5 3.5 0  20.25 3.5 0  21 3.5 0  21.75 3.5 0  22.5 3.5 0  23.25 3.5 0  24 3.5 0  24.75 3.5 0  25.5 3.5 0  26.25 3.5 0  27 3.5 0  27.75 3.5 0  28.5 3.5 0  29.25 3.5 0  30 3.5 0  30.75 3.5 0  31.5 3.5 0  32.25 3.5 0  33 3.5 0  33.75 3.5 0  34.5 3.5 0  35.25 3.5 0  36 3.5 0  36.75 3.5 0  37.5 3.5 0  38.25 3.5 0  39 3.5 0  39.75 3.5 0  40.5 3.5 0  41.25 3.5 0  42 3.5 0  42.75 3.5 0  43.5 3.5 0  44.25 3.5 0  45 3.5 0  45.75 3.5 0  46.5 3.5 0  47.25 3.5 0  48 3.5 0  48.75 3.5 0  49.5 3.5 0  50.25 3.5 0  51 3.5 0  51.75 3.5 0  52.5 3.5 0  53.25 3.5 0  54 3.5 0  54.75 3.5 0  55.5 3.5 0  56.25 3.5 0  57 3.5 0  57.75 3.5 0  58.5 3.5 0  59.25 3.5 0  60 3.5 0  0 4 0  0.75 4 0  1.5 4 0  2.25 4 0  3 4 0  3.75 4 0  4.5 4 0  5.25 4 0  6 4 0  6.75 4 0  7.5 4 0  8.25 4 0  9 4 0  9.75 4 0  10.5 4 0  11.25 4 0  12 4 0  12.75 4 0  13.5 4 0  14.25 4 0  15 4 0  15.75 4 0  16.5 4 0  17.25 4 0  18 4 0  18.75 4 0  19.5 4 0  20.25 4 0  21 4 0  21.75 4 0  22.5 4 0  23.25 4 0  24 4 0  24.75 4 0  25.5 4 0  26.25 4 0  27 4 0  27.75 4 0  28.5 4 0  29.25 4 0  30 4 0  30.75 4 0  31.5 4 0  32.25 4 0  33 4 0  33.75 4 0  34.5 4 0  35.25 4 0  36 4 0  36.75 4 0  37.5 4 0  38.25 4 0  39 4 0  39.75 4 0  40.5 4 0  41.25 4 0  42 4 0  42.75 4 0  43.5 4 0  44.25 4 0  45 4 0  45.75 4 0  46.5 4 0  47.25 4 0  48 4 0  48.75 4 0  49.5 4 0  50.25 4 0  51 4 0  51.75 4 0  52.5 4 0  53.25 4 0  54 4 0  54.75 4 0  55.5 4 0  56.25 4 0  57 4 0  57.75 4 0  58.5 4 0  59.25 4 0  60 4 0  0.375 0.25 0  1.125 0.25 0  1.875 0.25 0  2.625 0.25 0  3.375 0.25 0  4.125 0.25 0  4.875 0.25 0  5.625 0.25 0  6.375 0.25 0  7.125 0.25 0  7.875 0.25 0  8.625 0.25 0  9.375 0.25 0  10.125 0.25 0  10.875 0.25 0  11.625 0.25 0  12.375 0.25 0  13.125 0.25 0  13.875 0.25 0  14.625 0.25 0  15.375 0.25 0  16.125 0.25 0  16.875 0.25 0  17.625 0.25 0  18.375 0.25 0  19.125 0.25 0  19.875 0.25 0  20.625 0.25 0  21.375 0.25 0  22.125 0.25 0  22.875 0.25 0  23.625 0.25 0  24.375 0.25 0  25.125 0.25 0  25.875 0.25 0  26.625 0.25 0  27.375 0.25 0  28.125 0.25 0  28.875 0.25 0  29.625 0.25 0  30.375 0.25 0  31.125 0.25 0  31.875 0.25 0  32.625 0.25 0  33.375 0.25 0  34.125 0.25 0  34.875 0.25 0  35.625 0.25 0  36.375 0.25 0  37.125 0.25 0  37.875 0.25 0  38.625 0.25 0  39.375 0.25 0  40.125 0.25 0  40.875 0.25 0  41.625 0.25 0  42.375 0.25 0  43.125 0.25 0  43.875 0.25 0  44.625 0.25 0  45.375 0.25 0  46.125 0.25 0  46.875 0.25 0  47.625 0.25 0  48.375 0.25 0  49.125 0.25 0  49.875 0.25 0  50.625 0.25 0  51.375 0.25 0  52.125 0.25 0  52.875 0.25 0  53.625 0.25 0  54.375 0.25 0  55.125 0.25 0  55.875 0.25 0  56.625 0.25 0  57.375 0.25 0  58.125 0.25 0  58.875 0.25 0  59.625 0.25 0  0.375 0.75 0  1.125 0.75 0  1.875 0.75 0  2.625 0.75 0  3.375 0.75 0  4.125 0.75 0  4.875 0.75 0  5.625 0.75 0  6.375 0.75 0  7.125 0.75 0  7.875 0.75 0  8.625 0.75 0  9.375 0.75 0  10.125 0.75 0  10.875 0.75 0  11.625 0.75 0  12.375 0.75 0  13.125 0.75 0  13.875 0.75 0  14.625 0.75 0  15.375 0.75 0  16.125 0.75 0  16.875 0.75 0  17.625 0.75 0  18.375 0.75 0  19.125 0.75 0  19.875 0.75 0  20.625 0.75 0  21.375 0.75 0  22.125 0.75 0  22.875 0.75 0  23.625 0.75 0  24.375 0.75 0  25.125 0.75 0  25.875 0.75 0  26.625 0.75 0  27.375 0.75 0  28.125 0.75 0  28.875 0.75 0  29.625 0.75 0  30.375 0.75 0  31.125 0.75 0  31.875 0.75 0  32.625 0.75 0  33.375 0.75 0  34.125 0.75 0  34.875 0.75 0  35.625 0.75 0  36.375 0.75 0  37.125 0.75 0  37.875 0.75 0  38.625 0.75 0  39.375 0.75 0  40.125 0.75 0  40
[...]
<PointData  Scalars="f_8-1"> 
<DataArray  type="Float64"  Name="f_8-1"  format="ascii">1.0690749218367634e+01  1.0559635532257101e+01  1.0423788113991392e+01  1.0291327200617594e+01  1.0157204198652085e+01  1.0023796107790314e+01  9.8900478023101677e+00  9.7564424209507354e+00  9.6227788656260422e+00  9.4891374428252249e+00  9.3554879625584206e+00  9.2218413397009336e+00  9.0881937595221558e+00  8.9545465077828492e+00  8.8208991545561464e+00  8.6872518367808844e+00  8.5536045093489310e+00  8.4199571857243516e+00  8.2863098613284372e+00  8.1526625373744857e+00  8.0190152133893839e+00  7.8853678894656101e+00  7.7517205655493395e+00  7.6180732416437893e+00  7.4844259177415173e+00  7.3507785938414889e+00  7.2171312699423558e+00  7.0834839460437902e+00  6.9498366221454502e+00  6.8161892982472576e+00  6.6825419743490659e+00  6.5488946504509933e+00  6.4152473265528975e+00  6.2816000026548178e+00  6.1479526787567194e+00  6.0143053548586787e+00  5.8806580309605865e+00  5.7470107070624925e+00  5.6133633831644225e+00  5.4797160592663587e+00  5.3460687353682079e+00  5.2124214114702072e+00  5.0787740875720031e+00  4.9451267636740202e+00  4.8114794397756393e+00  4.6778321158775400e+00  4.5441847919787097e+00  4.4105374680800553e+00  4.2768901441794736e+00  4.1432428202780942e+00  4.0095954963710367e+00  3.8759481724574059e+00  3.7423008485248141e+00  3.6086535245596711e+00  3.4750062005246440e+00  3.3413588763491631e+00  3.2077115518970616e+00  3.0740642268557070e+00  2.9404169006387102e+00  2.8067695718175969e+00  2.6731222374441308e+00  2.5394748902367437e+00  2.4058275140226688e+00  2.2721800705550916e+00  2.1385324778775230e+00  2.0048845649340534e+00  1.8712360170692823e+00  1.7375863134856271e+00  1.6039347665856074e+00  1.4702807283543891e+00  1.3366240799847335e+00  1.2029655640393149e+00  1.0693066247860372e+00  9.3564870463972827e-01  8.0199367580137093e-01  6.6834474234087138e-01  5.3470832932366263e-01  4.0109762254712467e-01  2.6754993626936213e-01  1.3415312169683588e-01  2.6808079570995211e-03  1.0692453302718157e+01  1.0558637694162345e+01  1.0424600018526650e+01  1.0291034220838867e+01  1.0157433705165438e+01  1.0023761065236352e+01  9.8901349287401601e+00  9.7564762027998437e+00  9.6228345093179595e+00  9.4891845964663482e+00  9.3555382860293506e+00  9.2218905339230712e+00  9.0882433498909450e+00  8.9545959661274779e+00  8.8209486576870617e+00  8.6873013259053202e+00  8.5536540032377246e+00  8.4200066782506280e+00  8.2863593543521343e+00  8.1527120302801190e+00  8.0190647063492300e+00  7.8854173824178959e+00  7.7517700585083880e+00  7.6181227346030189e+00  7.4844754107018039e+00  7.3508280868020055e+00  7.2171807629030935e+00  7.0835334390045919e+00  6.9498861151063034e+00  6.8162387912081304e+00  6.6825914673099671e+00  6.5489441434118811e+00  6.4152968195137889e+00  6.2816494956157092e+00  6.1480021717176205e+00  6.0143548478195692e+00  5.8807075239214726e+00  5.7470602000233901e+00  5.6134128761253272e+00  5.4797655522272422e+00  5.3461182283291286e+00  5.2124709044310737e+00  5.0788235805329363e+00  4.9451762566348538e+00  4.8115289327365947e+00  4.6778816088383355e+00  4.5442342849396793e+00  4.4105869610407300e+00  4.2769396371404449e+00  4.1432923132384278e+00  4.0096449893316590e+00  3.8759976654166328e+00  3.7423503414834967e+00  3.6087030175148560e+00  3.4750556934747863e+00  3.3414083692887644e+00  3.2077610448143807e+00  3.0741137197411010e+00  2.9404663934611674e+00  2.8068190646032147e+00  2.6731717302383813e+00  2.5395243833662868e+00  2.4058770076309455e+00  2.2722295634892546e+00  2.1385819609391894e+00  2.0049340064671108e+00  1.8712853318122578e+00  1.7376353341230844e+00  1.6039832563792631e+00  1.4703285377996385e+00  1.3366713826809218e+00  1.2030128718627255e+00  1.0693543408370936e+00  9.3569710134156558e-01  8.0204328422607074e-01  6.6839624490413141e-01  5.3476173019231132e-01  4.0115054525059252e-01  2.6758808087174007e-01  1.3417033332624018e-01  1.2051379541899756e-04  1.0691964317291433e+01  1.0558626975711226e+01  1.0424722647060744e+01  1.0291137059953183e+01  1.0157452604991672e+01  1.0023821612431867e+01  9.8901648319979891e+00  9.7565221309303656e+00  9.6228724058390291e+00  9.4892260865541367e+00  9.3555782908871752e+00  9.2219311336870380e+00  9.0882837338113358e+00  8.9546364317652536e+00  8.8209890969360423e+00  8.6873417752322322e+00  8.5536944497899370e+00  8.4200471260010783e+00  8.2863998018664677e+00  8.1527524779440643e+00  8.0191051540037961e+00  7.8854578300941132e+00  7.7518105061873177e+00  7.6181631822857661e+00  7.4845158583856986e+00  7.3508685344867208e+00  7.2172212105881277e+00  7.0835738866898277e+00  6.9499265627916333e+00  6.8162792388934772e+00  6.6826319149953832e+00  6.5489845910972875e+00  6.4153372671992015e+00  6.2816899433011146e+00  6.1480426194030438e+00  6.0143952955049844e+00  5.8807479716068753e+00  5.7471006477088302e+00  5.6134533238107363e+00  5.4798059999126592e+00  5.3461586760145803e+00  5.2125113521164748e+00  5.0788640282184092e+00  4.9452167043202548e+00  4.8115693804221058e+00  4.6779220565238013e+00  4.5442747326254604e+00  4.4106274087264508e+00  4.2769800848271462e+00  4.1433327609254791e+00  4.0096854370218002e+00  3.8760381131095554e+00  3.7423907891867563e+00  3.6087434652323815e+00  3.4750961412294310e+00  3.3414488171076191e+00  3.2078014927782887e+00  3.0741541679937190e+00  2.9405068423669176e+00  2.8068595150032394e+00  2.6732121843137855e+00  2.5395648465738625e+00  2.4059174930465832e+00  2.2722700991270175e+00  2.1386225976958220e+00  2.0049748148063311e+00  1.8713263581576536e+00  1.7376764838133736e+00  1.6040241315377668e+00  1.4703684817907221e+00  1.3367100461758934e+00  1.2030507552317691e+00  1.0693919373354814e+00  9.3573413758924640e-01  8.0207963194122223e-01  6.6843170838573562e-01  5.3479443827729023e-01  4.0117209640569257e-01  2.6756433347343050e-01  1.3391853520364630e-01  5.7852235954243307e-05  1.0692112372895952e+01  1.0558424983737359e+01  1.0424787264158702e+01  1.0291093424637870e+01  1.0157450018144910e+01  1.0023792436689821e+01  9.8901468291863512e+00  9.7564976214128389e+00  9.6228507744342924e+00  9.4892030981275042e+00  9.3555558646939705e+00  9.2219084786227974e+00  9.0882611671582918e+00  8.9546138328598435e+00  8.8209665099589660e+00  8.6873191843149744e+00  8.5536718603315549e+00  8.4200245361187775e+00  8.2863772121550845e+00  8.1527298881939227e+00  8.0190825642742567e+00  7.8854352403622077e+00  7.7517879164582384e+00  7.6181405925568413e+00  7.4844932686572410e+00  7.3508459447583867e+00  7.2171986208598939e+00  7.0835512969616179e+00  6.9499039730634502e+00  6.8162566491653118e+00  6.6826093252671948e+00  6.5489620013691265e+00  6.4153146774710423e+00  6.2816673535729448e+00  6.1480200296748988e+00  6.0143727057768190e+00  5.8807253818787224e+00  5.7470780579806648e+00  5.6134307340825718e+00  5.4797834101845000e+00  5.3461360862863980e+00  5.2124887623883467e+00  5.0788414384902172e+00  4.9451941145921303e+00  4.8115467906938907e+00  4.6778994667956715e+00  4.5442521428971991e+00  4.4106048189983289e+00  4.2769574950987561e+00  4.1433101711972471e+00  4.0096628472929776e+00  3.8760155233806364e+00  3.7423681994563709e+00  3.6087208755004081e+00  3.4750735514935367e+00  3.3414262273651767e+00  3.2077789030285051e+00  3.0741315782367891e+00  2.9404842526418418e+00  2.8068369253915932e+00  2.6731895950519071e+00  2.5395422577945501e+00  2.4058949040499171e+00  2.2722475048537247e+00  2.1385999815489920e+00  2.0049521345279908e+00  1.8713035349803169e+00  1.7376534123573835e+00  1.6040007551747690e+00  1.4703449011971674e+00  1.3366865191853363e+00  1.2030274428091992e+00  1.0693688990781389e+00  9.3571163076740971e-01  8.0205787903821413e-01  6.6841031254863204e-01  5.3477135083650895e-01  4.0113983059862302e-01  2.6750240254131985e-01  1.3381495865076215e-01  1.4087416814059085e-05  1.0692055852010773e+01  1.0558434218692094e+01  1.0424752088432989e+01  1.0291094914726459e+01  1.0157431567862018e+01  1.0023782486698547e+01  9.8901321316792803e+00  9.7564848079532123e+00  9.6228369996919110e+00  9.4891897072745355e+00  9.3555423003876648e+00  9.2218949806445849e+00  9.0882476416860882e+00  8.9546003172058679e+00  8.8209529904241197e+00  8.6873056660456971e+00  8.5536583415592897e+00  8.4200110174889407e+00  8.2863636934626239e+00  8.1527163695147706e+00  8.0190690455871518e+00  7.8854217216758622e+00  7.7517743977707276e+00  7.6181270738692550e+00  7.4844797499694575e+00  7.3508324260705296e+00  7.2171851021720217e+00  7.0835377782737323e+00  6.9498904543755389e+00  6.8162431304774103e+00  6.6825958065792879e+00  6.5489484826812063e+00  6.4153011587831283e+00  6.2816538348850477e+00  6.1480065109869892e+00  6.0143591870889086e+00  5.8807118631908324e+00  5.7470645392927642e+00  5.6134172153946738e+00  5.4797698914965931e+00  5.3461225675985249e+00  5.2124752437004132e+00  5.0788279198023218e+00  4.9451805959041737e+00  4.8115332720059953e+00  4.6778859481076944e+00  4.5442386242091937e+00  4.4105913003102968e+00  4.2769439764103305e+00  4.1432966525089121e+00  4.0096493286029586e+00  3.8760020046906498e+00  3.7423546807604717e+00  3.6087073568027384e+00  3.4750600327763164e+00  3.3414127086350214e+00  3.2077653842345604e+00  3.0741180593812563e+00  2.9404707335744815e+00  2.8068234060307513e+00  2.6731760747378064e+00  2.5395287352727482e+00  2.4058813745923122e+00  2.2722339575258403e+00  2.1385863894966266e+00  2.0049384503602474e+00  1.8712896895279252e+00  1.7376393647664423e+00  1.6039865780706872e+00  1.4703308516270102e+00  1.3366728076808194e+00  1.2030139904721158e+00  1.0693556360900593e+00  9.3569884428670291e-01  8.0204561265726604e-01  6.6839849596634848e-01  5.3475898534492272e-01  4.0112418811742329e-01  2.6747741071972353e-01  1.3378081148353740e-01  9.3070040952600291e-06  1.0692112372895952e+01  1.0558424983737364e+01  1.0424787264158688e+01  1.0291093424637845e+01  1.0157450018144925e+01  1.0023792436689831e+01  9.8901468291863264e+00  9.7564976214128620e+00  9.6228507744343048e+00  9.4892030981275024e+00  9.3555558646940149e+00  9.2219084786227672e+00  9.0882611671583255e+00  8.9546138328598293e+00  8.8209665099589447e+00  8.6873191843149566e+00  8.5536718603315638e+00  8.4200245361187598e+00  8.2863772121551484e+00  8.1527298881938766e+00  8.0190825642742798e+00  7.8854352403622485e+00  7.7517879164582437e+00  7.6181405925568564e+00  7.4844932686572427e+00  7.3508459447583636e+00  7.2171986208598842e+00  7.0835512969616170e+00  6.9499039730634520e+00  6.8162566491653021e+00  6.6826093252671930e+00  6.5489620013691034e+00  6.4153146774710290e+00  6.2816673535729652e+00  6.1480200296749068e+00  6.0143727057768261e+00  5.8807253818787464e+00  5.7470780579806773e+00  5.6134307340825815e+00  5.4797834101845453e+00  5.3461360862864451e+00  5.2124887623883414e+00  5.0788414384902074e+00  4.9451941145921126e+00  4.8115467906939013e+00  4.6778994667956688e+00  4.5442521428971867e+00  4.4106048189983280e+00  4.2769574950987650e+00  4.1433101711972755e+00  4.0096628472929918e+00  3.8760155233806475e+00  3.7423681994563629e+00  3.6087208755004276e+00  3.4750735514935487e+00  3.3414262273651669e+00  3.2077789030285158e+00  3.0741315782367873e+00  2.9404842526418382e+00  2.8068369253915928e+00  2.6731895950519120e+00  2.5395422577945608e+00  2.4058949040499273e+00  2.2722475048537172e+00  2.1385999815489902e+00  2.0049521345279979e+00  1.8713035349803140e+00  1.7376534123573899e+00  1.6040007551747624e+00  1.4703449011971768e+00  1.3366865191853456e+00  1.2030274428091909e+00  1.0693688990781454e+00  9.3571163076740793e-01  8.0205787903821379e-01  6.6841031254863426e-01  5.3477135083651473e-01  4.0113983059862496e-01  2.6750240254134067e-01  1.3381495865076112e-01  1.4087416814852272e-05  1.0691964317291426e+01  1.0558626975711237e+01  1.0424722647060728e+01  1.0291137059953153e+01  1.0157452604991656e+01  1.0023821612431881e+01  9.8901648319979465e+00  9.7565221309303638e+00  9.6228724058390149e+00  9.4892260865541260e+00  9.3555782908872338e+00  9.2219311336870113e+00  9.0882837338114264e+00  8.9546364317651967e+00  8.8209890969360796e+00  8.6873417752321593e+00  8.5536944497899601e+00  8.4200471260010694e+00  8.2863998018665210e+00  8.1527524779440306e+00  8.0191051540038334e+00  7.8854578300941434e+00  7.7518105061873452e+00  7.6181631822857732e+00  7.4845158583857074e+00  7.3508685344866986e+00  7.2172212105881357e+00  7.0835738866898250e+00  6.9499265627916325e+00  6.8162792388934736e+00  6.6826319149953655e+00  6.5489845910972644e+00  6.4153372671991962e+00  6.2816899433011422e+00  6.1480426194030997e+00  6.0143952955049986e+00  5.8807479716069198e+00  5.7471006477088427e+00  5.6134533238107487e+00  5.4798059999127027e+00  5.3461586760146176e+00  5.2125113521164863e+00  5.0788640282183879e+00  4.9452167043202584e+00  4.8115693804221085e+00  4.6779220565237853e+00  4.5442747326254498e+00  4.4106274087264445e+00  4.2769800848271693e+00  4.1433327609255057e+00  4.0096854370218411e+00  3.8760381131095638e+00  3.7423907891867465e+00  3.6087434652324029e+00  3.4750961412294581e+00  3.3414488171076067e+00  3.2078014927783087e+00  3.0741541679937145e+00  2.9405068423669296e+00  2.8068595150032176e+00  2.6732121843137930e+00  2.5395648465738887e+00  2.4059174930465930e+00  2.2722700991270144e+00  2.1386225976958184e+00  2.0049748148063382e+00  1.8713263581576514e+00  1.7376764838133818e+00  1.6040241315377615e+00  1.4703684817907352e+00  1.3367100461759023e+00  1.2030507552317635e+00  1.0693919373354859e+00  9.3573413758924617e-01  8.0207963194122434e-01  6.6843170838574206e-01  5.3479443827729733e-01  4.0117209640569923e-01  2.6756433347343750e-01  1.3391853520364791e-01  5.7852235954378175e-05  1.0692453302718166e+01  1.0558637694162352e+01  1.0424600018526649e+01  1.0291034220838869e+01  1.0157433705165426e+01  1.0023761065236393e+01  9.8901349287401299e+00  9.7564762027998437e+00  9.6228345093179435e+00  9.4891845964663553e+00  9.3555382860293879e+00  9.2218905339231334e+00  9.0882433498910000e+00  8.9545959661274903e+00  8.8209486576870244e+00  8.6873013259052687e+00  8.5536540032376998e+00  8.4200066782506067e+00  8.2863593543521912e+00  8.1527120302801208e+00  8.0190647063492548e+00  7.8854173824179323e+00  7.7517700585084190e+00  7.6181227346030447e+00  7.4844754107018137e+00  7.3508280868019948e+00  7.2171807629031015e+00  7.0835334390045972e+00  6.9498861151063069e+00  6.8162387912080860e+00  6.6825914673099511e+00  6.5489441434118589e+00  6.4152968195138005e+00  6.2816494956157554e+00  6.1480021717176880e+00  6.0143548478196145e+00  5.8807075239215107e+00  5.7470602000234354e+00  5.6134128761253264e+00  5.4797655522272715e+00  5.3461182283291846e+00  5.2124709044310471e+00  5.0788235805329442e+00  4.9451762566348609e+00  4.8115289327365707e+00  4.6778816088383435e+00  4.5442342849396518e+00  4.4105869610407300e+00  4.2769396371404520e+00  4.1432923132384714e+00  4.0096449893317132e+00  3.8759976654166208e+00  3.7423503414834971e+00  3.6087030175148866e+00  3.4750556934748125e+00  3.3414083692887746e+00  3.2077610448143923e+00  3.0741137197411113e+00  2.9404663934611741e+00  2.8068190646031543e+00  2.6731717302383982e+00  2.5395243833663308e+00  2.4058770076309686e+00  2.2722295634892609e+00  2.1385819609391810e+00  2.0049340064671175e+00  1.8712853318122638e+00  1.7376353341230830e+00  1.6039832563792686e+00  1.4703285377996433e+00  1.3366713826809278e+00  1.2030128718627215e+00  1.0693543408370920e+00  9.3569710134157136e-01  8.0204328422607685e-01  6.6839624490413641e-01  5.3476173019232287e-01  4.0115054525060162e-01  2.6758808087174796e-01  1.3417033332624331e-01  1.2051379541978192e-04  1.0690749218367612e+01  1.0559635532257127e+01  1.0423788113991412e+01  1.0291327200617587e+01  1.0157204198652062e+01  1.0023796107790330e+01  9.8900478023101428e+00  9.7564424209507639e+00  9.6227788656259801e+00  9.4891374428252941e+00  9.3554879625583673e+00  9.2218413397010632e+00  9.0881937595221665e+00  8.9545465077829487e+00  8.8208991545560327e+00  8.6872518367808684e+00  8.5536045093488848e+00  8.4199571857243196e+00  8.2863098613285384e+00  8.1526625373744768e+00  8.0190152133893839e+00  7.8853678894656580e+00  7.7517205655493600e+00  7.6180732416438275e+00  7.4844259177415271e+00  7.3507785938414809e+00  7.2171312699423797e+00  7.0834839460437857e+00  6.9498366221454413e+00  6.8161892982472265e+00  6.6825419743490402e+00  6.5488946504510013e+00  6.4152473265528966e+00  6.2816000026548799e+00  6.1479526787567966e+00  6.0143053548587888e+00  5.8806580309606069e+00  5.7470107070625600e+00  5.6133633831644349e+00  5.4797160592663730e+00  5.3460687353682808e+00  5.2124214114701672e+00  5.0787740875720271e+00  4.9451267636740210e+00  4.8114794397756047e+00  4.6778321158775675e+00  4.5441847919786493e+00  4.4105374680800606e+00  4.2768901441794878e+00  4.1432428202781635e+00  4.0095954963710945e+00  3.8759481724574014e+00  3.7423008485248053e+00  3.6086535245597253e+00  3.4750062005246671e+00  3.3413588763491973e+00  3.2077115518970660e+00  3.0740642268557155e+00  2.9404169006387133e+00  2.8067695718174548e+00  2.6731222374441619e+00  2.5394748902367734e+00  2.4058275140227026e+00  2.2721800705551103e+00  2.1385324778775106e+00  2.0048845649340619e+00  1.8712360170692921e+00  1.7375863134856144e+00  1.6039347665856176e+00  1.4702807283543891e+00  1.3366240799847442e+00  1.2029655640393133e+00  1.0693066247860348e+00  9.3564870463973782e-01  8.0199367580137604e-01  6.6834474234087815e-01  5.3470832932367540e-01  4.0109762254713560e-01  2.6754993626937085e-01  1.3415312169683885e-01  2.6808079570992027e-03  1.0626748088834891e+01  1.0491410379482803e+01  1.0357914385331249e+01  1.0224285259985747e+01  1.0090668802371376e+01  9.9570204049453856e+00  9.8233748638436165e+00  9.6897275144295634e+00  9.5560800450558201e+00  9.4224327513962631e+00  9.2887853555135216e+00  9.1551380314805879e+00  9.0214906906062904e+00  8.8878433641006680e+00  8.7541960365252507e+00  8.6205487115341324e+00  8.4869013868072862e+00  8.3532540625778218e+00  8.2196067384839875e+00  8.0859594144967240e+00  7.9523120905510991e+00  7.8186647666301292e+00  7.6850174427203504e+00  7.5513701188165125e+00  7.4177227949155444e+00  7.2840754710160232e+00  7.1504281471172106e+00  7.0167808232187623e+00  6.8831334993205200e+00  6.7494861754223470e+00  6.6158388515242033e+00  6.4821915276261111e+00  6.3485442037280322e+00  6.2148968798299435e+00  6.0812495559318736e+00  5.9476022320337965e+00  5.8139549081357051e+00  5.6803075842376218e+00  5.5466602603395572e+00  5.4130129364414534e+00  5.2793656125433843e+00  5.1457182886452708e+00  5.0120709647471706e+00  4.8784236408489825e+00  4.7447763169507384e+00  4.6111289930522235e+00  4.4774816691534287e+00  4.3438343452536872e+00  4.2101870213524419e+00  4.0765396974476662e+00  3.9428923735362238e+00  3.8092450496108419e+00  3.6755977256574637e+00  3.5419504016482373e+00  3.4083030775249017e+00  3.2746557531751948e+00  3.1410084283581829e+00  3.0073611025937828e+00  2.8737137748094694e+00  2.7400664426765826e+00  2.6064191006582837e+00  2.4727717358188932e+00  2.3391243173896084e+00  2.2054767764273335e+00  2.0718289674068435e+00  1.9381806158074437e+00  1.8045312679337295e+00  1.6708803154121812e+00  1.5372271713345134e+00  1.4035716283248407e+00  1.2699141337637974e+00  1.1362557517973078e+00  1.0025979091236779e+00  8.6894243449442743e-01  7.3529190087746710e-01  6.0165089746638900e-01  4.6802820312783522e-01  3.3444537424454363e-01  2.0096503748221506e-01  6.7951144818740983e-02  1.0624833234211247e+01  1.0491656235144372e+01  1.0357808989176034e+01  1.0224204995112531e+01  1.0090526695552256e+01  9.9569004247378832e+00  9.8232438952595693e+00  9.6896005587687988e+00  9.5559516263390165e+00  9.4223048406154177e+00  9.2886572957927278e+00  9.1550100269402499e+00  9.0213626747742790e+00  8.8877153543863763e+00  8.7540680265561104e+00  8.6204207024087598e+00  8.4867733778457364e+00  8.3531260537731260e+00  8.2194787297389684e+00  8.0858314057868910e+00  7.952184081857503