<?xml version="1.0"?>
<VTKFile type="UnstructuredGrid"  version="0.1"  >
<UnstructuredGrid>
<Piece  NumberOfPoints="1369" NumberOfCells="2560">
<Points>
<DataArray  type="Float64"  NumberOfComponents="3"  format="ascii">0 0 0  0.75 0 0  1.5 0 0  2.25 0 0  3 0 0  3.75 0 0  4.5 0 0  5.25 0 0  6 0 0  6.75 0 0  7.5 0 0  8.25 0 0  9 0 0  9.75 0 0  10.5 0 0  11.25 0 0  12 0 0  12.75 0 0  13.5 0 0  14.25 0 0  15 0 0  15.75 0 0  16.5 0 0  17.25 0 0  18 0 0  18.75 0 0  19.5 0 0  20.25 0 0  21 0 0  21.75 0 0  22.5 0 0  23.25 0 0  24 0 0  24.75 0 0  25.5 0 0  26.25 0 0  27 0 0  27.75 0 0  28.5 0 0  29.25 0 0  30 0 0  30.75 0 0  31.5 0 0  32.25 0 0  33 0 0  33.75 0 0  34.5 0 0  35.25 0 0  36 0 0  36.75 0 0  37.5 0 0  38.25 0 0  39 0 0  39.75 0 0  40.5 0 0  41.25 0 0  42 0 0  42.75 0 0  43.5 0 0  44.25 0 0  45 0 0  45.75 0 0  46.5 0 0  47.25 0 0  48 0 0  48.75 0 0  49.5 0 0  50.25 0 0  51 0 0  51.75 0 0  52.5 0 0  53.25 0 0  54 0 0  54.75 0 0  55.5 0 0  56.25 0 0  57 0 0  57.75 0 0  58.5 0 0  59.25 0 0  60 0 0  0 0.5 0  0.75 0.5 0  1.5 0.5 0  2.25 0.5 0  3 0.5 0  3.75 0.5 0  4.5 0.5 0  5.25 0.5 0  6 0.5 0  6.75 0.5 0  7.5 0.5 0  8.25 0.5 0  9 0.5 0  9.75 0.5 0  10.5 0.5 0  11.25 0.5 0  12 0.5 0  12.75 0.5 0  13.5 0.5 0  14.25 0.5 0  15 0.5 0  15.75 0.5 0  16.5 0.5 0  17.25 0.5 0  18 0.5 0  18.75 0.5 0  19.5 0.5 0  20.25 0.5 0  21 0.5 0  21.75 0.5 0  22.5 0.5 0  23.25 0.5 0  24 0.5 0  24.75 0.5 0  25.5 0.5 0  26.25 0.5 0  27 0.5 0  27.75 0.5 0  28.5 0.5 0  29.25 0.5 0  30 0.5 0  30.75 0.5 0  31.5 0.5 0  32.25 0.5 0  33 0.5 0  33.75 0.5 0  34.5 0.5 0  35.25 0.5 0  36 0.5 0  36.75 0.5 0  37.5 0.5 0  38.25 0.5 0  39 0.5 0  39.75 0.5 0  40.5 0.5 0  41.25 0.5 0  42 0.5 0  42.75 0.5 0  43.5 0.5 0  44.25 0.5 0  45 0.5 0  45.75 0.5 0  46.5 0.5 0  47.25 0.5 0  48 0.5 0  48.75 0.5 0  49.5 0.5 0  50.25 0.5 0  51 0.5 0  51.75 0.5 0  52.5 0.5 0  53.25 0.5 0  54 0.5 0  54.75 0.5 0  55.5 0.5 0  56.25 0.5 0  57 0.5 0  57.75 0.5 0  58.5 0.5 0  59.25 0.5 0  60 0.5 0  0 1 0  0.75 1 0  1.5 1 0  2.25 1 0  3 1 0  3.75 1 0  4.5 1 0  5.25 1 0  6 1 0  6.75 1 0  7.5 1 0  8.25 1 0  9 1 0  9.75 1 0  10.5 1 0  11.25 1 0  12 1 0  12.75 1 0  13.5 1 0  14.25 1 0  15 1 0  15.75 1 0  16.5 1 0  17.25 1 0  18 1 0  18.75 1 0  19.5 1 0  20.25 1 0  21 1 0  21.75 1 0  22.5 1 0  23.25 1 0  24 1 0  24.75 1 0  25.5 1 0  26.25 1 0  27 1 0  27.75 1 0  28.5 1 0  29.25 1 0  30 1 0  30.75 1 0  31.5 1 0  32.25 1 0  33 1 0  33.75 1 0  34.5 1 0  35.25 1 0  36 1 0  36.75 1 0  37.5 1 0  38.25 1 0  39 1 0  39.75 1 0  40.5 1 0  41.25 1 0  42 1 0  42.75 1 0  43.5 1 0  44.25 1 0  45 1 0  45.75 1 0  46.5 1 0  47.25 1 0  48 1 0  48.75 1 0  49.5 1 0  50.25 1 0  51 1 0  51.75 1 0  52.5 1 0  53.25 1 0  54 1 0  54.75 1 0  55.5 1 0  56.25 1 0  57 1 0  57.75 1 0  58.5 1 0  59.25 1 0  60 1 0  0 1.5 0  0.75 1.5 0  1.5 1.5 0  2.25 1.5 0  3 1.5 0  3.75 1.5 0  4.5 1.5 0  5.25 1.5 0  6 1.5 0  6.75 1.5 0  7.5 1.5 0  8.25 1.5 0  9 1.5 0  9.75 1.5 0  10.5 1.5 0  11.25 1.5 0  12 1.5 0  12.75 1.5 0  13.5 1.5 0  14.25 1.5 0  15 1.5 0  15.75 1.5 0  16.5 1.5 0  17.25 1.5 0  18 1.5 0  18.75 1.5 0  19.5 1.5 0  20.25 1.5 0  21 1.5 0  21.75 1.5 0  22.5 1.5 0  23.25 1.5 0  24 1.5 0  24.75 1.5 0  25.5 1.5 0  26.25 1.5 0  27 1.5 0  27.75 1.5 0  28.5 1.5 0  29.25 1.5 0  30 1.5 0  30.75 1.5 0  31.5 1.5 0  32.25 1.5 0  33 1.5 0  33.75 1.5 0  34.5 1.5 0  35.25 1.5 0  36 1.5 0  36.75 1.5 0  37.5 1.5 0  38.25 1.5 0  39 1.5 0  39.75 1.5 0  40.5 1.5 0  41.25 1.5 0  42 1.5 0  42.75 1.5 0  43.5 1.5 0  44.25 1.5 0  45 1.5 0  45.75 1.5 0  46.5 1.5 0  47.25 1.5 0  48 1.5 0  48.75 1.5 0  49.5 1.5 0  50.25 1.5 0  51 1.5 0  51.75 1.5 0  52.5 1.5 0  53.25 1.5 0  54 1.5 0  54.75 1.5 0  55.5 1.5 0  56.25 1.5 0  57 1.5 0  57.75 1.5 0  58.5 1.5 0  59.25 1.5 0  60 1.5 0  0 2 0  0.75 2 0  1.5 2 0  2.25 2 0  3 2 0  3.75 2 0  4.5 2 0  5.25 2 0  6 2 0  6.75 2 0  7.5 2 0  8.25 2 0  9 2 0  9.75 2 0  10.5 2 0  11.25 2 0  12 2 0  12.75 2 0  13.5 2 0  14.25 2 0  15 2 0  15.75 2 0  16.5 2 0  17.25 2 0  18 2 0  18.75 2 0  19.5 2 0  20.25 2 0  21 2 0  21.75 2 0  22.5 2 0  23.25 2 0  24 2 0  24.75 2 0  25.5 2 0  26.25 2 0  27 2 0  27.75 2 0  28.5 2 0  29.25 2 0  30 2 0  30.75 2 0  31.5 2 0  32.25 2 0  33 2 0  33.75 2 0  34.5 2 0  35.25 2 0  36 2 0  36.75 2 0  37.5 2 0  38.25 2 0  39 2 0  39.75 2 0  40.5 2 0  41.25 2 0  42 2 0  42.75 2 0  43.5 2 0  44.25 2 0  45 2 0  45.75 2 0  46.5 2 0  47.25 2 0  48 2 0  48.75 2 0  49.5 2 0  50.25 2 0  51 2 0  51.75 2 0  52.5 2 0  53.25 2 0  54 2 0  54.75 2 0  55.5 2 0  56.25 2 0  57 2 0  57.75 2 0  58.5 2 0  59.25 2 0  60 2 0  0 2.5 0  0.75 2.5 0  1.5 2.5 0  2.25 2.5 0  3 2.5 0  3.75 2.5 0  4.5 2.5 0  5.25 2.5 0  6 2.5 0  6.75 2.5 0  7.5 2.5 0  8.25 2.5 0  9 2.5 0  9.75 2.5 0  10.5 2.5 0  11.25 2.5 0  12 2.5 0  12.75 2.5 0  13.5 2.5 0  14.25 2.5 0  15 2.5 0  15.75 2.5 0  16.5 2.5 0  17.25 2.5 0  18 2.5 0  18.75 2.5 0  19.5 2.5 0  20.25 2.5 0  21 2.5 0  21.75 2.5 0  22.5 2.5 0  23.25 2.5 0  24 2.5 0  24.75 2.5 0  25.5 2.5 0  26.25 2.5 0  27 2.5 0  27.75 2.5 0  28.5 2.5 0  29.25 2.5 0  30 2.5 0  30.75 2.5 0  31.5 2.5 0  32.25 2.5 0  33 2.5 0  33.75 2.5 0  34.5 2.5 0  35.25 2.5 0  36 2.5 0  36.75 2.5 0  37.5 2.5 0  38.25 2.5 0  39 2.5 0  39.75 2.5 0  40.5 2.5 0  41.25 2.5 0  42 2.5 0  42.75 2.5 0  43.5 2.5 0  44.25 2.5 0  45 2.5 0  45.75 2.5 0  46.5 2.5 0  47.25 2.5 0  48 2.5 0  48.75 2.5 0  49.5 2.5 0  50.25 2.5 0  51 2.5 0  51.75 2.5 0  52.5 2.5 0  53.25 2.5 0  54 2.5 0  54.75 2.5 0  55.5 2.5 0  56.25 2.5 0  57 2.5 0  57.75 2.5 0  58.5 2.5 0  59.25 2.5 0  60 2.5 0  0 3 0  0.75 3 0  1.5 3 0  2.25 3 0  3 3 0  3.75 3 0  4.5 3 0  5.25 3 0  6 3 0  6.75 3 0  7.5 3 0  8.25 3 0  9 3 0  9.75 3 0  10.5 3 0  11.25 3 0  12 3 0  12.75 3 0  13.5 3 0  14.25 3 0  15 3 0  15.75 3 0  16.5 3 0  17.25 3 0  18 3 0  18.75 3 0  19.5 3 0  20.25 3 0  21 3 0  21.75 3 0  22.5 3 0  23.25 3 0  24 3 0  24.75 3 0  25.5 3 0  26.25 3 0  27 3 0  27.75 3 0  28.5 3 0  29.25 3 0  30 3 0  30.75 3 0  31.5 3 0  32.25 3 0  33 3 0  33.75 3 0  34.5 3 0  35.25 3 0  36 3 0  36.75 3 0  37.5 3 0  38.25 3 0  39 3 0  39.75 3 0  40.5 3 0  41.25 3 0  42 3 0  42.75 3 0  43.5 3 0  44.25 3 0  45 3 0  45.75 3 0  46.5 3 0  47.25 3 0  48 3 0  48.75 3 0  49.5 3 0  50.25 3 0  51 3 0  51.75 3 0  52.5 3 0  53.25 3 0  54 3 0  54.75 3 0  55.5 3 0  56.25 3 0  57 3 0  57.75 3 0  58.5 3 0  59.25 3 0  60 3 0  0 3.5 0  0.75 3.5 0  1.5 3.5 0  2.25 3.5 0  3 3.5 0  3.75 3.5 0  4.5 3.5 0  5.25 3.5 0  6 3.5 0  6.75 3.5 0  7.5 3.5 0  8.25 3.5 0  9 3.5 0  9.75 3.5 0  10.5 3.5 0  11.25 3.5 0  12 3.5 0  12.75 3.5 0  13.5 3.5 0  14.25 3.5 0  15 3.5 0  15.75 3.5 0  16.5 3.5 0  17.25 3.5 0  18 3.5 0  18.75 3.5 0  19.5 3.5 0  20.25 3.5 0  21 3.5 0  21.75 3.5 0  22.5 3.5 0  23.25 3.5 0  24 3.5 0  24.75 3.5 0  25.5 3.5 0  26.25 3.5 0  27 3.5 0  27.75 3.5 0  28.5 3.5 0  29.25 3.5 0  30 3.5 0  30.75 3.5 0  31.5 3.5 0  32.25 3.5 0  33 3.5 0  33.75 3.5 0  34.5 3.5 0  35.25 3.5 0  36 3.5 0  36.75 3.5 0  37.5 3.5 0  38.25 3.5 0  39 3.5 0  39.75 3.5 0  40.5 3.5 0  41.25 3.5 0  42 3.5 0  42.75 3.5 0  43.5 3.5 0  44.25 3.5 0  45 3.5 0  45.75 3.5 0  46.5 3.5 0  47.25 3.5 0  48 3.5 0  48.75 3.5 0  49.5 3.5 0  50.25 3.5 0  51 3.5 0  51.75 3.5 0  52.5 3.5 0  53.25 3.5 0  54 3.5 0  54.75 3.5 0  55.5 3.5 0  56.25 3.5 0  57 3.5 0  57.75 3.5 0  58.5 3.5 0  59.25 3.5 0  60 3.5 0  0 4 0  0.75 4 0  1.5 4 0  2.25 4 0  3 4 0  3.75 4 0  4.5 4 0  5.25 4 0  6 4 0  6.75 4 0  7.5 4 0  8.25 4 0  9 4 0  9.75 4 0  10.5 4 0  11.25 4 0  12 4 0  12.75 4 0  13.5 4 0  14.25 4 0  15 4 0  15.75 4 0  16.5 4 0  17.25 4 0  18 4 0  18.75 4 0  19.5 4 0  20.25 4 0  21 4 0  21.75 4 0  22.5 4 0  23.25 4 0  24 4 0  24.75 4 0  25.5 4 0  26.25 4 0  27 4 0  27.75 4 0  28.5 4 0  29.25 4 0  30 4 0  30.75 4 0  31.5 4 0  32.25 4 0  33 4 0  33.75 4 0  34.5 4 0  35.25 4 0  36 4 0  36.75 4 0  37.5 4 0  38.25 4 0  39 4 0  39.75 4 0  40.5 4 0  41.25 4 0  42 4 0  42.75 4 0  43.5 4 0  44.25 4 0  45 4 0  45.75 4 0  46.5 4 0  47.25 4 0  48 4 0  48.75 4 0  49.5 4 0  50.25 4 0  51 4 0  51.75 4 0  52.5 4 0  53.25 4 0  54 4 0  54.75 4 0  55.5 4 0  56.25 4 0  57 4 0  57.75 4 0  58.5 4 0  59.25 4 0  60 4 0  0.375 0.25 0  1.125 0.25 0  1.875 0.25 0  2.625 0.25 0  3.375 0.25 0  4.125 0.25 0  4.875 0.25 0  5.625 0.25 0  6.375 0.25 0  7.125 0.25 0  7.875 0.25 0  8.625 0.25 0  9.375 0.25 0  10.125 0.25 0  10.875 0.25 0  11.625 0.25 0  12.375 0.25 0  13.125 0.25 0  13.875 0.25 0  14.625 0.25 0  15.375 0.25 0  16.125 0.25 0  16.875 0.25 0  17.625 0.25 0  18.375 0.25 0  19.125 0.25 0  19.875 0.25 0  20.625 0.25 0  21.375 0.25 0  22.125 0.25 0  22.875 0.25 0  23.625 0.25 0  24.375 0.25 0  25.125 0.25 0  25.875 0.25 0  26.625 0.25 0  27.375 0.25 0  28.125 0.25 0  28.875 0.25 0  29.625 0.25 0  30.375 0.25 0  31.125 0.25 0  31.875 0.25 0  32.625 0.25 0  33.375 0.25 0  34.125 0.25 0  34.875 0.25 0  35.625 0.25 0  36.375 0.25 0  37.125 0.25 0  37.875 0.25 0  38.625 0.25 0  39.375 0.25 0  40.125 0.25 0  40.875 0.25 0  41.625 0.25 0  42.375 0.25 0  43.125 0.25 0  43.875 0.25 0  44.625 0.25 0  45.375 0.25 0  46.125 0.25 0  46.875 0.25 0  47.625 0.25 0  48.375 0.25 0  49.125 0.25 0  49.875 0.25 0  50.625 0.25 0  51.375 0.25 0  52.125 0.25 0  52.875 0.25 0  53.625 0.25 0  54.375 0.25 0  55.125 0.25 0  55.875 0.25 0  56.625 0.25 0  57.375 0.25 0  58.125 0.25 0  58.875 0.25 0  59.625 0.25 0  0.375 0.75 0  1.125 0.75 0  1.875 0.75 0  2.625 0.75 0  3.375 0.75 0  4.125 0.75 0  4.875 0.75 0  5.625 0.75 0  6.375 0.75 0  7.125 0.75 0  7.875 0.75 0  8.625 0.75 0  9.375 0.75 0  10.125 0.75 0  10.875 0.75 0  11.625 0.75 0  12.375 0.75 0  13.125 0.75 0  13.875 0.75 0  14.625 0.75 0  15.375 0.75 0  16.125 0.75 0  16.875 0.75 0  17.625 0.75 0  18.375 0.75 0  19.125 0.75 0  19.875 0.75 0  20.625 0.75 0  21.375 0.75 0  22.125 0.75 0  22.875 0.75 0  23.625 0.75 0  24.375 0.75 0  25.125 0.75 0  25.875 0.75 0  26.625 0.75 0  27.375 0.75 0  28.125 0.75 0  28.875 0.75 0  29.625 0.75 0  30.375 0.75 0  31.125 0.75 0  31.875 0.75 0  32.625 0.75 0  33.375 0.75 0  34.125 0.75 0  34.875 0.75 0  35.625 0.75 0  36.375 0.75 0  37.125 0.75 0  37.875 0.75 0  38.625 0.75 0  39.375 0.75 0  40.125 0.75 0  40
[...]
<PointData  Vectors="f_8-0"> 
<DataArray  type="Float64"  Name="f_8-0"  NumberOfComponents="3" format="ascii">0.0000000000000000e+00 0.0000000000000000e+00 0.0000000000000000e+00  0.0000000000000000e+00 0.0000000000000000e+00 0.0000000000000000e+00  0.0000000000000000e+00 0.0000000000000000e+00 0.0000000000000000e+00  0.0000000000000000e+00 0.0000000000000000e+00 0.0000000000000000e+00  0.0000000000000000e+00 0.0000000000000000e+00 0.0000000000000000e+00  0.0000000000000000e+00 0.0000000000000000e+00 0.0000000000000000e+00  0.0000000000000000e+00 0.0000000000000000e+00 0.0000000000000000e+00  0.0000000000000000e+00 0.0000000000000000e+00 0.0000000000000000e+00  0.0000000000000000e+00 0.0000000000000000e+00 0.0000000000000000e+00  0.0000000000000000e+00 0.0000000000000000e+00 0.0000000000000000e+00  0.0000000000000000e+00 0.0000000000000000e+00 0.0000000000000000e+00  0.0000000000000000e+00 0.0000000000000000e+00 0.0000000000000000e+00  0.0000000000000000e+00 0.0000000000000000e+00 0.0000000000000000e+00  0.0000000000000000e+00 0.0000000000000000e+00 0.0000000000000000e+00  0.0000000000000000e+00 0.0000000000000000e+00 0.0000000000000000e+00  0.0000000000000000e+00 0.0000000000000000e+00 0.0000000000000000e+00  0.0000000000000000e+00 0.0000000000000000e+00 0.0000000000000000e+00  0.0000000000000000e+00 0.0000000000000000e+00 0.0000000000000000e+00  0.0000000000000000e+00 0.0000000000000000e+00 0.0000000000000000e+00  0.0000000000000000e+00 0.0000000000000000e+00 0.0000000000000000e+00  0.0000000000000000e+00 0.0000000000000000e+00 0.0000000000000000e+00  0.0000000000000000e+00 0.0000000000000000e+00 0.0000000000000000e+00  0.0000000000000000e+00 0.0000000000000000e+00 0.0000000000000000e+00  0.0000000000000000e+00 0.0000000000000000e+00 0.0000000000000000e+00  0.0000000000000000e+00 0.0000000000000000e+00 0.0000000000000000e+00  0.0000000000000000e+00 0.0000000000000000e+00 0.0000000000000000e+00  0.0000000000000000e+00 0.0000000000000000e+00 0.0000000000000000e+00  0.0000000000000000e+00 0.0000000000000000e+00 0.0000000000000000e+00  0.0000000000000000e+00 0.0000000000000000e+00 0.0000000000000000e+00  0.0000000000000000e+00 0.0000000000000000e+00 0.0000000000000000e+00  0.0000000000000000e+00 0.0000000000000000e+00 0.0000000000000000e+00  0.0000000000000000e+00 0.0000000000000000e+00 0.0000000000000000e+00  0.0000000000000000e+00 0.0000000000000000e+00 0.0000000000000000e+00  0.0000000000000000e+00 0.0000000000000000e+00 0.0000000000000000e+00  0.0000000000000000e+00 0.0000000000000000e+00 0.0000000000000000e+00  0.0000000000000000e+00 0.0000000000000000e+00 0.0000000000000000e+00  0.0000000000000000e+00 0.0000000000000000e+00 0.0000000000000000e+00  0.0000000000000000e+00 0.0000000000000000e+00 0.0000000000000000e+00  0.0000000000000000e+00 0.0000000000000000e+00 0.0000000000000000e+00  0.0000000000000000e+00 0.0000000000000000e+00 0.0000000000000000e+00  0.0000000000000000e+00 0.0000000000000000e+00 0.0000000000000000e+00  0.0000000000000000e+00 0.0000000000000000e+00 0.0000000000000000e+00  0.0000000000000000e+00 0.0000000000000000e+00 0.0000000000000000e+00  0.0000000000000000e+00 0.0000000000000000e+00 0.0000000000000000e+00  0.0000000000000000e+00 0.0000000000000000e+00 0.0000000000000000e+00  0.0000000000000000e+00 0.0000000000000000e+00 0.0000000000000000e+00  0.0000000000000000e+00 0.0000000000000000e+00 0.0000000000000000e+00  0.0000000000000000e+00 0.0000000000000000e+00 0.0000000000000000e+00  0.0000000000000000e+00 0.0000000000000000e+00 0.0000000000000000e+00  0.0000000000000000e+00 0.0000000000000000e+00 0.0000000000000000e+00  0.0000000000000000e+00 0.0000000000000000e+00 0.0000000000000000e+00  0.0000000000000000e+00 0.0000000000000000e+00 0.0000000000000000e+00  0.0000000000000000e+00 0.0000000000000000e+00 0.0000000000000000e+00  0.0000000000000000e+00 0.0000000000000000e+00 0.0000000000000000e+00  0.0000000000000000e+00 0.0000000000000000e+00 0.0000000000000000e+00  0.0000000000000000e+00 0.0000000000000000e+00 0.0000000000000000e+00  0.0000000000000000e+00 0.0000000000000000e+00 0.0000000000000000e+00  0.0000000000000000e+00 0.0000000000000000e+00 0.0000000000000000e+00  0.0000000000000000e+00 0.0000000000000000e+00 0.0000000000000000e+00  0.0000000000000000e+00 0.0000000000000000e+00 0.0000000000000000e+00  0.0000000000000000e+00 0.0000000000000000e+00 0.0000000000000000e+00  0.0000000000000000e+00 0.0000000000000000e+00 0.0000000000000000e+00  0.0000000000000000e+00 0.0000000000000000e+00 0.0000000000000000e+00  0.0000000000000000e+00 0.0000000000000000e+00 0.0000000000000000e+00  0.0000000000000000e+00 0.0000000000000000e+00 0.0000000000000000e+00  0.0000000000000000e+00 0.0000000000000000e+00 0.0000000000000000e+00  0.0000000000000000e+00 0.0000000000000000e+00 0.0000000000000000e+00  0.0000000000000000e+00 0.0000000000000000e+00 0.0000000000000000e+00  0.0000000000000000e+00 0.0000000000000000e+00 0.0000000000000000e+00  0.0000000000000000e+00 0.0000000000000000e+00 0.0000000000000000e+00  0.0000000000000000e+00 0.0000000000000000e+00 0.0000000000000000e+00  0.0000000000000000e+00 0.0000000000000000e+00 0.0000000000000000e+00  0.0000000000000000e+00 0.0000000000000000e+00 0.0000000000000000e+00  0.0000000000000000e+00 0.0000000000000000e+00 0.0000000000000000e+00  0.0000000000000000e+00 0.0000000000000000e+00 0.0000000000000000e+00  0.0000000000000000e+00 0.0000000000000000e+00 0.0000000000000000e+00  0.0000000000000000e+00 0.0000000000000000e+00 0.0000000000000000e+00  0.0000000000000000e+00 0.0000000000000000e+00 0.0000000000000000e+00  0.0000000000000000e+00 0.0000000000000000e+00 0.0000000000000000e+00  0.0000000000000000e+00 0.0000000000000000e+00 0.0000000000000000e+00  0.0000000000000000e+00 0.0000000000000000e+00 0.0000000000000000e+00  -7.2665306098782070e+00 0.0000000000000000e+00 0.0000000000000000e+00  -7.3275694624425443e+00 -1.6145093257831679e-02 0.0000000000000000e+00  -7.3465225062237174e+00 2.8598899171586108e-03 0.0000000000000000e+00  -7.3583266005467962e+00 4.8280835696078378e-03 0.0000000000000000e+00  -7.3700107238533352e+00 4.7469478588026710e-03 0.0000000000000000e+00  -7.3787935507377771e+00 3.3918990301663615e-03 0.0000000000000000e+00  -7.3837980798712781e+00 1.8622362608343532e-03 0.0000000000000000e+00  -7.3859107497102183e+00 7.3831843368737319e-04 0.0000000000000000e+00  -7.3857839559774270e+00 -1.9766168216110092e-05 0.0000000000000000e+00  -7.3844729420983448e+00 -4.1771352850628816e-04 0.0000000000000000e+00  -7.3823180284121408e+00 -6.7562968063743115e-04 0.0000000000000000e+00  -7.3798448999446817e+00 -6.8776877849360970e-04 0.0000000000000000e+00  -7.3775953643522332e+00 -4.9532238373326052e-04 0.0000000000000000e+00  -7.3759900917017722e+00 -2.1441830494395487e-04 0.0000000000000000e+00  -7.3750232900032282e+00 1.2911947432249029e-05 0.0000000000000000e+00  -7.3745314809848601e+00 1.5835707379828647e-04 0.0000000000000000e+00  -7.3743045041652753e+00 2.3054747973475504e-04 0.0000000000000000e+00  -7.3742116976736751e+00 2.6360831210320225e-04 0.0000000000000000e+00  -7.3741732515582612e+00 2.7577104795317779e-04 0.0000000000000000e+00  -7.3741583759265827e+00 2.8092228560129572e-04 0.0000000000000000e+00  -7.3741512579426374e+00 2.8253670086601416e-04 0.0000000000000000e+00  -7.3741482054689635e+00 2.8351649940515041e-04 0.0000000000000000e+00  -7.3741463891250794e+00 2.8381022133740967e-04 0.0000000000000000e+00  -7.3741455946852241e+00 2.8409321076206553e-04 0.0000000000000000e+00  -7.3741450743765800e+00 2.8416050876505330e-04 0.0000000000000000e+00  -7.3741448648665981e+00 2.8425112246497188e-04 0.0000000000000000e+00  -7.3741447174945280e+00 2.8426311130846579e-04 0.0000000000000000e+00  -7.3741446642298136e+00 2.8429234599893708e-04 0.0000000000000000e+00  -7.3741446236961021e+00 2.8429271796487273e-04 0.0000000000000000e+00  -7.3741446100290169e+00 2.8430218920866697e-04 0.0000000000000000e+00  -7.3741445995614230e+00 2.8430134420786044e-04 0.0000000000000000e+00  -7.3741445955909288e+00 2.8430429393212184e-04 0.0000000000000000e+00  -7.3741445933482792e+00 2.8430389027330236e-04 0.0000000000000000e+00  -7.3741445918518504e+00 2.8430468161563886e-04 0.0000000000000000e+00  -7.3741445916753579e+00 2.8430462935878089e-04 0.0000000000000000e+00  -7.3741445909537173e+00 2.8430475017745779e-04 0.0000000000000000e+00  -7.3741445911671137e+00 2.8430482936292944e-04 0.0000000000000000e+00  -7.3741445907793759e+00 2.8430477586636078e-04 0.0000000000000000e+00  -7.3741445909830619e+00 2.8430486669952631e-04 0.0000000000000000e+00  -7.3741445907700589e+00 2.8430479806445201e-04 0.0000000000000000e+00  -7.3741445908997107e+00 2.8430486417615293e-04 0.0000000000000000e+00  -7.3741445907956855e+00 2.8430481234251534e-04 0.0000000000000000e+00  -7.3741445908645407e+00 2.8430485451596968e-04 0.0000000000000000e+00  -7.3741445908091379e+00 2.8430482524456358e-04 0.0000000000000000e+00  -7.3741445908513388e+00 2.8430484609810296e-04 0.0000000000000000e+00  -7.3741445908218362e+00 2.8430483153094727e-04 0.0000000000000000e+00  -7.3741445908381964e+00 2.8430484249499654e-04 0.0000000000000000e+00  -7.3741445908288705e+00 2.8430483580940013e-04 0.0000000000000000e+00  -7.3741445908344732e+00 2.8430484012056554e-04 0.0000000000000000e+00  -7.3741445908281058e+00 2.8430483662788761e-04 0.0000000000000000e+00  -7.3741445908310954e+00 2.8430483827851868e-04 0.0000000000000000e+00  -7.3741445908285899e+00 2.8430483374346672e-04 0.0000000000000000e+00  -7.3741445908184629e+00 2.8430483399350358e-04 0.0000000000000000e+00  -7.3741445908028620e+00 2.8430482883825907e-04 0.0000000000000000e+00  -7.3741445907689140e+00 2.8430482003851548e-04 0.0000000000000000e+00  -7.3741445906974850e+00 2.8430480067519111e-04 0.0000000000000000e+00  -7.3741445905516914e+00 2.8430476132511366e-04 0.0000000000000000e+00  -7.3741445902471687e+00 2.8430467716294218e-04 0.0000000000000000e+00  -7.3741445896106130e+00 2.8430450519033941e-04 0.0000000000000000e+00  -7.3741445882957724e+00 2.8430414258704979e-04 0.0000000000000000e+00  -7.3741445855432621e+00 2.8430339662393738e-04 0.0000000000000000e+00  -7.3741445798489451e+00 2.8430184643444000e-04 0.0000000000000000e+00  -7.3741445680266944e+00 2.8429864466628216e-04 0.0000000000000000e+00  -7.3741445436485149e+00 2.8429205926076991e-04 0.0000000000000000e+00  -7.3741444934129889e+00 2.8427854266392281e-04 0.0000000000000000e+00  -7.3741443905761521e+00 2.8425100471506472e-04 0.0000000000000000e+00  -7.3741441807495534e+00 2.8419508638942426e-04 0.0000000000000000e+00  -7.3741437555563953e+00 2.8408245356241067e-04 0.0000000000000000e+00  -7.3741428973140621e+00 2.8385625932932286e-04 0.0000000000000000e+00  -7.3741411766615412e+00 2.8340574629216113e-04 0.0000000000000000e+00  -7.3741377210156234e+00 2.8250168453437027e-04 0.0000000000000000e+00  -7.3741308611934242e+00 2.8072895266130108e-04 0.0000000000000000e+00  -7.3741167364736633e+00 2.7698093299411184e-04 0.0000000000000000e+00  -7.3740898191154587e+00 2.7058099752266096e-04 0.0000000000000000e+00  -7.3740248042356695e+00 2.5109610995600944e-04 0.0000000000000000e+00  -7.3739372746499541e+00 2.4993217580322855e-04 0.0000000000000000e+00  -7.3735047960728108e+00 4.5019139403918067e-05 0.0000000000000000e+00  -7.3737311307333826e+00 7.3180104750721617e-04 0.0000000000000000e+00  -7.3688502141155441e+00 -2.8786937042963269e-03 0.0000000000000000e+00  -7.3782115186944033e+00 1.4552400683137448e-02 0.0000000000000000e+00  -7.3513387488045696e+00 0.0000000000000000e+00 0.0000000000000000e+00  -3.8149858777279178e-01 0.0000000000000000e+00 0.0000000000000000e+00  -3.8396893672618004e-01 1.2328461275934068e-02 0.0000000000000000e+00  -3.9200312514905494e-01 9.3175871790738517e-03 0.0000000000000000e+00  -3.9429313912811087e-01 1.1386717327460768e-02 0.0000000000000000e+00  -3.9647299237361611e-01 9.1200029103599058e-03 0.0000000000000000e+00  -3.9677791123635048e-01 5.8367565772259019e-03 0.0000000000000000e+00  -3.9741477500230055e-01 2.7757202615136265e-03 0.0000000000000000e+00  -3.9748536855307270e-01 2.8989364934868409e-04 0.0000000000000000e+00  -3.9747607427791415e-01 -1.3049360494892441e-03 0.0000000000000000e+00  -3.9698614358939738e-01 -2.2302459366343470e-03 0.0000000000000000e+00  -3.9636141227566424e-01 -2.8607790257635709e-03 0.0000000000000000e+00  -3.9519995966255378e-01 -3.1482791768301295e-03 0.0000000000000000e+00  -3.9373590807045816e-01 -2.7815013439014282e-03 0.0000000000000000e+00  -3.9234338198060992e-01 -2.0952948559185077e-03 0.0000000000000000e+00  -3.9136904125945454e-01 -1.4523876944783581e-03 0.0000000000000000e+00  -3.9078093786057910e-01 -1.0313588545584141e-03 0.0000000000000000e+00  -3.9048504974437964e-01 -8.0059363228220429e-04 0.0000000000000000e+00  -3.9034280303781693e-01 -6.9583266600240347e-04 0.0000000000000000e+00  -3.9028451353511096e-01 -6.5073686455225060e-04 0.0000000000000000e+00  -3.9025825717373142e-01 -6.3405806144223710e-04 0.0000000000000000e+00  -3.9024858038504839e-01 -6.2683557497718117e-04 0.0000000000000000e+00  -3.9024339515679335e-01 -6.2421972723663579e-04 0.0000000000000000e+00  -3.9024154877481065e-01 -6.2268123194727512e-04 0.0000000000000000e+00  -3.9024021454338342e-01 -6.2211017001062672e-04 0.0000000000000000e+00  -3.9023979249144713e-01 -6.2166957399406001e-04 0.0000000000000000e+00  -3.9023939847909817e-01 -6.2152911278937864e-04 0.0000000000000000e+00  -3.9023930289526154e-01 -6.2139534788013253e-04 0.0000000000000000e+00  -3.9023918379057376e-01 -6.2136408060807285e-04 0.0000000000000000e+00  -3.9023916482832949e-01 -6.2132344788602581e-04 0.0000000000000000e+00  -3.9023912942613381e-01 -6.2131768157390943e-04 0.0000000000000000e+00  -3.9023912606459488e-01 -6.2130550876234795e-04 0.0000000000000000e+00  -3.9023911627410507e-01 -6.2130465951121293e-04 0.0000000000000000e+00  -3.9023911527340915e-01 -6.2130124391859061e-04 0.0000000000000000e+00  -3.9023911313923232e-01 -6.2130101946465579e-04 0.0000000000000000e+00  -3.9023911236967657e-01 -6.2130025131847859e-04 0.0000000000000000e+00  -3.9023911231481712e-01 -6.2130003358124735e-04 0.0000000000000000e+00  -3.9023911167264097e-01 -6.2129999810021995e-04 0.0000000000000000e+00  -3.9023911202027173e-01 -6.2129979344472893e-04 0.0000000000000000e+00  -3.9023911156544727e-01 -6.2129990618817914e-04 0.0000000000000000e+00  -3.9023911187453536e-01 -6.2129975652251213e-04 0.0000000000000000e+00  -3.9023911159503860e-01 -6.2129985978955137e-04 0.0000000000000000e+00  -3.9023911179024001e-01 -6.2129976621980068e-04 0.0000000000000000e+00  -3.9023911163753466e-01 -6.2129983096236279e-04 0.0000000000000000e+00  -3.9023911174479770e-01 -6.2129977860538033e-04 0.0000000000000000e+00  -3.9023911166537772e-01 -6.2129981650778919e-04 0.0000000000000000e+00  -3.9023911171764514e-01 -6.2129978948749368e-04 0.0000000000000000e+00  -3.9023911168359376e-01 -6.2129980745306694e-04 0.0000000000000000e+00  -3.9023911170708886e-01 -6.2129979483985091e-04 0.0000000000000000e+00  -3.9023911169204717e-01 -6.2129980279187450e-04 0.0000000000000000e+00  -3.9023911170282993e-01 -6.2129979918883475e-04 0.0000000000000000e+00  -3.9023911169549780e-01 -6.2129980343855447e-04 0.0000000000000000e+00  -3.9023911169719377e-01 -6.2129980442099050e-04 0.0000000000000000e+00  -3.9023911169126341e-01 -6.2129981001665343e-04 0.0000000000000000e+00  -3.9023911169059255e-01 -6.2129981766420822e-04 0.0000000000000000e+00  -3.9023911167943887e-01 -6.2129984245898003e-04 0.0000000000000000e+00  -3.9023911165880915e-01 -6.2129988513043343e-04 0.0000000000000000e+00  -3.9023911161459035e-01 -6.2129998229014014e-04 0.0000000000000000e+00  -3.9023911152483959e-01 -6.2130017009147799e-04 0.0000000000000000e+00  -3.9023911133845746e-01 -6.2130058766498002e-04 0.0000000000000000e+00  -3.9023911095064767e-01 -6.2130141241021697e-04 0.0000000000000000e+00  -3.9023911014120133e-01 -6.2130319020196759e-04 0.0000000000000000e+00  -3.9023910846221332e-01 -6.2130676932270544e-04 0.0000000000000000e+00  -3.9023910498525111e-01 -6.2131431607138974e-04 0.0000000000000000e+00  -3.9023909780779953e-01 -6.2132958078381817e-04 0.0000000000000000e+00  -3.9023908306240301e-01 -6.2136120369054920e-04 0.0000000000000000e+00  -3.9023905293953437e-01 -6.2142495421768521e-04 0.0000000000000000e+00  -3.9023899179438093e-01 -6.2155486336930191e-04 0.0000000000000000e+00  -3.9023886846098249e-01 -6.2181479749027037e-04 0.0000000000000000e+00  -3.9023862113090413e-01 -6.2233709070283103e-04 0.0000000000000000e+00  -3.9023812670963309e-01 -6.2337720878125947e-04 0.0000000000000000e+00  -3.9023713863843651e-01 -6.2545759082584403e-04 0.0000000000000000e+00  -3.9023515772514622e-01 -6.2964809160633191e-04 0.0000000000000000e+00  -3.9023115016336768e-01 -6.3806672958941987e-04 0.0000000000000000e+00  -3.9022281068360176e-01 -6.5606371337004795e-04 0.0000000000000000e+00  -3.9020526958391988e-01 -6.9081649368853517e-04 0.0000000000000000e+00  -3.9016256748752814e-01 -7.8363221470657081e-04 0.0000000000000000e+00  -3.9008569973154800e-01 -8.8550880510865901e-04 0.0000000000000000e+00  -3.8970323905914689e-01 -1.5673558296551201e-03 0.0000000000000000e+00  -3.8972332513083308e-01 -5.7732120988820772e-04 0.0000000000000000e+00  -3.8065389754007783e-01 -8.7464362632450662e-03 0.0000000000000000e+00  -3.8947251635873903e-01 0.0000000000000000e+00 0.0000000000000000e+00  2.9704501268413752e+00 0.0000000000000000e+00 0.0000000000000000e+00  2.9763925779110827e+00 4.6423468030025155e-03 0.0000000000000000e+00  2.9879434218413392e+00 7.0272676124375896e-03 0.0000000000000000e+00  3.0012353128161924e+00 6.6600428214030442e-03 0.0000000000000000e+00  3.0137395149191022e+00 6.0021827458357283e-03 0.0000000000000000e+00  3.0217716991808210e+00 4.2672682400415590e-03 0.0000000000000000e+00  3.0269301647419091e+00 2.4357858932954595e-03 0.0000000000000000e+00  3.0288147649053809e+00 1.0357082880958508e-03 0.0000000000000000e+00  3.0290077155798616e+00 -1.7150258489317564e-04 0.0000000000000000e+00  3.0278424820243428e+00 -7.7498773091629861e-04 0.0000000000000000e+00  3.0261376569088623e+00 -1.3226806451274830e-03 0.0000000000000000e+00  3.0238970870573794e+00 -1.7835225070660899e-03 0.0000000000000000e+00  3.0218415188498637e+00 -1.7141601810961601e-03 0.0000000000000000e+00  3.0203140051174882e+00 -1.1464006823042150e-03 0.0000000000000000e+00  3.0194361184191481e+00 -5.1857531100428088e-04 0.0000000000000000e+00  3.0189820881362022e+00 -5.1525385993881754e-05 0.0000000000000000e+00  3.0187906823414754e+00 2.1579854146700360e-04 0.0000000000000000e+00  3.0187082556625535e+00 3.5089554050713427e-04 0.0000000000000000e+00  3.0186803796871482e+00 4.0926903721148707e-04 0.0000000000000000e+00  3.0186667270312006e+00 4.3431040235606983e-04 0.0000000000000000e+00  3.0186624867955465e+00 4.4371401962336982e-04 0.0000000000000000e+00  3.0186591219230308e+00 4.4805855230477427e-04 0.0000000000000000e+00  3.0186582011221810e+00 4.4970290241001933e-04 0.0000000000000000e+00  3.0186571370903734e+00 4.5070230161676621e-04 0.0000000000000000e+00  3.0186569423554990e+00 4.5107740208859639e-04 0.0000000000000000e+00  3.0186565983946760e+00 4.5136182485331884e-04 0.0000000000000000e+00  3.0186565765035778e+00 4.5145382075392824e-04 0.0000000000000000e+00  3.0186564633556476e+00 4.5153861849089649e-04 0.0000000000000000e+00  3.0186564709882271e+00 4.5155954677798067e-04 0.0000000000000000e+00  3.0186564329012291e+00 4.5158482088808130e-04 0.0000000000000000e+00  3.0186564398003677e+00 4.5158907247540872e-04 0.0000000000000000e+00  3.0186564271997414e+00 4.5159639259941421e-04 0.0000000000000000e+00  3.0186564302936327e+00 4.5159727563404611e-04 0.0000000000000000e+00  3.0186564265361828e+00 4.5159919100411320e-04 0.0000000000000000e+00  3.0186564273802929e+00 4.5159952607069510e-04 0.0000000000000000e+00  3.0186564265802835e+00 4.5159987276925873e-04 0.0000000000000000e+00  3.0186564265372993e+00 4.5160011173356026e-04 0.0000000000000000e+00  3.0186564266034224e+00 4.516000647333379