<?xml version="1.0"?>
<VTKFile type="UnstructuredGrid"  version="0.1"  >
<UnstructuredGrid>
<Piece  NumberOfPoints="1369" NumberOfCells="2560">
<Points>
<DataArray  type="Float64"  NumberOfComponents="3"  format="ascii">0 0 0  0.75 0 0  1.5 0 0  2.25 0 0  3 0 0  3.75 0 0  4.5 0 0  5.25 0 0  6 0 0  6.75 0 0  7.5 0 0  8.25 0 0  9 0 0  9.75 0 0  10.5 0 0  11.25 0 0  12 0 0  12.75 0 0  13.5 0 0  14.25 0 0  15 0 0  15.75 0 0  16.5 0 0  17.25 0 0  18 0 0  18.75 0 0  19.5 0 0  20.25 0 0  21 0 0  21.75 0 0  22.5 0 0  23.25 0 0  24 0 0  24.75 0 0  25.5 0 0  26.25 0 0  27 0 0  27.75 0 0  28.5 0 0  29.25 0 0  30 0 0  30.75 0 0  31.5 0 0  32.25 0 0  33 0 0  33.75 0 0  34.5 0 0  35.25 0 0  36 0 0  36.75 0 0  37.5 0 0  38.25 0 0  39 0 0  39.75 0 0  40.5 0 0  41.25 0 0  42 0 0  42.75 0 0  43.5 0 0  44.25 0 0  45 0 0  45.75 0 0  46.5 0 0  47.25 0 0  48 0 0  48.75 0 0  49.5 0 0  50.25 0 0  51 0 0  51.75 0 0  52.5 0 0  53.25 0 0  54 0 0  54.75 0 0  55.5 0 0  56.25 0 0  57 0 0  57.75 0 0  58.5 0 0  59.25 0 0  60 0 0  0 0.5 0  0.75 0.5 0  1.5 0.5 0  2.25 0.5 0  3 0.5 0  3.75 0.5 0  4.5 0.5 0  5.25 0.5 0  6 0.5 0  6.75 0.5 0  7.5 0.5 0  8.25 0.5 0  9 0.5 0  9.75 0.5 0  10.5 0.5 0  11.25 0.5 0  12 0.5 0  12.75 0.5 0  13.5 0.5 0  14.25 0.5 0  15 0.5 0  15.75 0.5 0  16.5 0.5 0  17.25 0.5 0  18 0.5 0  18.75 0.5 0  19.5 0.5 0  20.25 0.5 0  21 0.5 0  21.75 0.5 0  22.5 0.5 0  23.25 0.5 0  24 0.5 0  24.75 0.5 0  25.5 0.5 0  26.25 0.5 0  27 0.5 0  27.75 0.5 0  28.5 0.5 0  29.25 0.5 0  30 0.5 0  30.75 0.5 0  31.5 0.5 0  32.25 0.5 0  33 0.5 0  33.75 0.5 0  34.5 0.5 0  35.25 0.5 0  36 0.5 0  36.75 0.5 0  37.5 0.5 0  38.25 0.5 0  39 0.5 0  39.75 0.5 0  40.5 0.5 0  41.25 0.5 0  42 0.5 0  42.75 0.5 0  43.5 0.5 0  44.25 0.5 0  45 0.5 0  45.75 0.5 0  46.5 0.5 0  47.25 0.5 0  48 0.5 0  48.75 0.5 0  49.5 0.5 0  50.25 0.5 0  51 0.5 0  51.75 0.5 0  52.5 0.5 0  53.25 0.5 0  54 0.5 0  54.75 0.5 0  55.5 0.5 0  56.25 0.5 0  57 0.5 0  57.75 0.5 0  58.5 0.5 0  59.25 0.5 0  60 0.5 0  0 1 0  0.75 1 0  1.5 1 0  2.25 1 0  3 1 0  3.75 1 0  4.5 1 0  5.25 1 0  6 1 0  6.75 1 0  7.5 1 0  8.25 1 0  9 1 0  9.75 1 0  10.5 1 0  11.25 1 0  12 1 0  12.75 1 0  13.5 1 0  14.25 1 0  15 1 0  15.75 1 0  16.5 1 0  17.25 1 0  18 1 0  18.75 1 0  19.5 1 0  20.25 1 0  21 1 0  21.75 1 0  22.5 1 0  23.25 1 0  24 1 0  24.75 1 0  25.5 1 0  26.25 1 0  27 1 0  27.75 1 0  28.5 1 0  29.25 1 0  30 1 0  30.75 1 0  31.5 1 0  32.25 1 0  33 1 0  33.75 1 0  34.5 1 0  35.25 1 0  36 1 0  36.75 1 0  37.5 1 0  38.25 1 0  39 1 0  39.75 1 0  40.5 1 0  41.25 1 0  42 1 0  42.75 1 0  43.5 1 0  44.25 1 0  45 1 0  45.75 1 0  46.5 1 0  47.25 1 0  48 1 0  48.75 1 0  49.5 1 0  50.25 1 0  51 1 0  51.75 1 0  52.5 1 0  53.25 1 0  54 1 0  54.75 1 0  55.5 1 0  56.25 1 0  57 1 0  57.75 1 0  58.5 1 0  59.25 1 0  60 1 0  0 1.5 0  0.75 1.5 0  1.5 1.5 0  2.25 1.5 0  3 1.5 0  3.75 1.5 0  4.5 1.5 0  5.25 1.5 0  6 1.5 0  6.75 1.5 0  7.5 1.5 0  8.25 1.5 0  9 1.5 0  9.75 1.5 0  10.5 1.5 0  11.25 1.5 0  12 1.5 0  12.75 1.5 0  13.5 1.5 0  14.25 1.5 0  15 1.5 0  15.75 1.5 0  16.5 1.5 0  17.25 1.5 0  18 1.5 0  18.75 1.5 0  19.5 1.5 0  20.25 1.5 0  21 1.5 0  21.75 1.5 0  22.5 1.5 0  23.25 1.5 0  24 1.5 0  24.75 1.5 0  25.5 1.5 0  26.25 1.5 0  27 1.5 0  27.75 1.5 0  28.5 1.5 0  29.25 1.5 0  30 1.5 0  30.75 1.5 0  31.5 1.5 0  32.25 1.5 0  33 1.5 0  33.75 1.5 0  34.5 1.5 0  35.25 1.5 0  36 1.5 0  36.75 1.5 0  37.5 1.5 0  38.25 1.5 0  39 1.5 0  39.75 1.5 0  40.5 1.5 0  41.25 1.5 0  42 1.5 0  42.75 1.5 0  43.5 1.5 0  44.25 1.5 0  45 1.5 0  45.75 1.5 0  46.5 1.5 0  47.25 1.5 0  48 1.5 0  48.75 1.5 0  49.5 1.5 0  50.25 1.5 0  51 1.5 0  51.75 1.5 0  52.5 1.5 0  53.25 1.5 0  54 1.5 0  54.75 1.5 0  55.5 1.5 0  56.25 1.5 0  57 1.5 0  57.75 1.5 0  58.5 1.5 0  59.25 1.5 0  60 1.5 0  0 2 0  0.75 2 0  1.5 2 0  2.25 2 0  3 2 0  3.75 2 0  4.5 2 0  5.25 2 0  6 2 0  6.75 2 0  7.5 2 0  8.25 2 0  9 2 0  9.75 2 0  10.5 2 0  11.25 2 0  12 2 0  12.75 2 0  13.5 2 0  14.25 2 0  15 2 0  15.75 2 0  16.5 2 0  17.25 2 0  18 2 0  18.75 2 0  19.5 2 0  20.25 2 0  21 2 0  21.75 2 0  22.5 2 0  23.25 2 0  24 2 0  24.75 2 0  25.5 2 0  26.25 2 0  27 2 0  27.75 2 0  28.5 2 0  29.25 2 0  30 2 0  30.75 2 0  31.5 2 0  32.25 2 0  33 2 0  33.75 2 0  34.5 2 0  35.25 2 0  36 2 0  36.75 2 0  37.5 2 0  38.25 2 0  39 2 0  39.75 2 0  40.5 2 0  41.25 2 0  42 2 0  42.75 2 0  43.5 2 0  44.25 2 0  45 2 0  45.75 2 0  46.5 2 0  47.25 2 0  48 2 0  48.75 2 0  49.5 2 0  50.25 2 0  51 2 0  51.75 2 0  52.5 2 0  53.25 2 0  54 2 0  54.75 2 0  55.5 2 0  56.25 2 0  57 2 0  57.75 2 0  58.5 2 0  59.25 2 0  60 2 0  0 2.5 0  0.75 2.5 0  1.5 2.5 0  2.25 2.5 0  3 2.5 0  3.75 2.5 0  4.5 2.5 0  5.25 2.5 0  6 2.5 0  6.75 2.5 0  7.5 2.5 0  8.25 2.5 0  9 2.5 0  9.75 2.5 0  10.5 2.5 0  11.25 2.5 0  12 2.5 0  12.75 2.5 0  13.5 2.5 0  14.25 2.5 0  15 2.5 0  15.75 2.5 0  16.5 2.5 0  17.25 2.5 0  18 2.5 0  18.75 2.5 0  19.5 2.5 0  20.25 2.5 0  21 2.5 0  21.75 2.5 0  22.5 2.5 0  23.25 2.5 0  24 2.5 0  24.75 2.5 0  25.5 2.5 0  26.25 2.5 0  27 2.5 0  27.75 2.5 0  28.5 2.5 0  29.25 2.5 0  30 2.5 0  30.75 2.5 0  31.5 2.5 0  32.25 2.5 0  33 2.5 0  33.75 2.5 0  34.5 2.5 0  35.25 2.5 0  36 2.5 0  36.75 2.5 0  37.5 2.5 0  38.25 2.5 0  39 2.5 0  39.75 2.5 0  40.5 2.5 0  41.25 2.5 0  42 2.5 0  42.75 2.5 0  43.5 2.5 0  44.25 2.5 0  45 2.5 0  45.75 2.5 0  46.5 2.5 0  47.25 2.5 0  48 2.5 0  48.75 2.5 0  49.5 2.5 0  50.25 2.5 0  51 2.5 0  51.75 2.5 0  52.5 2.5 0  53.25 2.5 0  54 2.5 0  54.75 2.5 0  55.5 2.5 0  56.25 2.5 0  57 2.5 0  57.75 2.5 0  58.5 2.5 0  59.25 2.5 0  60 2.5 0  0 3 0  0.75 3 0  1.5 3 0  2.25 3 0  3 3 0  3.75 3 0  4.5 3 0  5.25 3 0  6 3 0  6.75 3 0  7.5 3 0  8.25 3 0  9 3 0  9.75 3 0  10.5 3 0  11.25 3 0  12 3 0  12.75 3 0  13.5 3 0  14.25 3 0  15 3 0  15.75 3 0  16.5 3 0  17.25 3 0  18 3 0  18.75 3 0  19.5 3 0  20.25 3 0  21 3 0  21.75 3 0  22.5 3 0  23.25 3 0  24 3 0  24.75 3 0  25.5 3 0  26.25 3 0  27 3 0  27.75 3 0  28.5 3 0  29.25 3 0  30 3 0  30.75 3 0  31.5 3 0  32.25 3 0  33 3 0  33.75 3 0  34.5 3 0  35.25 3 0  36 3 0  36.75 3 0  37.5 3 0  38.25 3 0  39 3 0  39.75 3 0  40.5 3 0  41.25 3 0  42 3 0  42.75 3 0  43.5 3 0  44.25 3 0  45 3 0  45.75 3 0  46.5 3 0  47.25 3 0  48 3 0  48.75 3 0  49.5 3 0  50.25 3 0  51 3 0  51.75 3 0  52.5 3 0  53.25 3 0  54 3 0  54.75 3 0  55.5 3 0  56.25 3 0  57 3 0  57.75 3 0  58.5 3 0  59.25 3 0  60 3 0  0 3.5 0  0.75 3.5 0  1.5 3.5 0  2.25 3.5 0  3 3.5 0  3.75 3.5 0  4.5 3.5 0  5.25 3.5 0  6 3.5 0  6.75 3.5 0  7.5 3.5 0  8.25 3.5 0  9 3.5 0  9.75 3.5 0  10.5 3.5 0  11.25 3.5 0  12 3.5 0  12.75 3.5 0  13.5 3.5 0  14.25 3.5 0  15 3.5 0  15.75 3.5 0  16.5 3.5 0  17.25 3.5 0  18 3.5 0  18.75 3.5 0  19.5 3.5 0  20.25 3.5 0  21 3.5 0  21.75 3.5 0  22.5 3.5 0  23.25 3.5 0  24 3.5 0  24.75 3.5 0  25.5 3.5 0  26.25 3.5 0  27 3.5 0  27.75 3.5 0  28.5 3.5 0  29.25 3.5 0  30 3.5 0  30.75 3.5 0  31.5 3.5 0  32.25 3.5 0  33 3.5 0  33.75 3.5 0  34.5 3.5 0  35.25 3.5 0  36 3.5 0  36.75 3.5 0  37.5 3.5 0  38.25 3.5 0  39 3.5 0  39.75 3.5 0  40.5 3.5 0  41.25 3.5 0  42 3.5 0  42.75 3.5 0  43.5 3.5 0  44.25 3.5 0  45 3.5 0  45.75 3.5 0  46.5 3.5 0  47.25 3.5 0  48 3.5 0  48.75 3.5 0  49.5 3.5 0  50.25 3.5 0  51 3.5 0  51.75 3.5 0  52.5 3.5 0  53.25 3.5 0  54 3.5 0  54.75 3.5 0  55.5 3.5 0  56.25 3.5 0  57 3.5 0  57.75 3.5 0  58.5 3.5 0  59.25 3.5 0  60 3.5 0  0 4 0  0.75 4 0  1.5 4 0  2.25 4 0  3 4 0  3.75 4 0  4.5 4 0  5.25 4 0  6 4 0  6.75 4 0  7.5 4 0  8.25 4 0  9 4 0  9.75 4 0  10.5 4 0  11.25 4 0  12 4 0  12.75 4 0  13.5 4 0  14.25 4 0  15 4 0  15.75 4 0  16.5 4 0  17.25 4 0  18 4 0  18.75 4 0  19.5 4 0  20.25 4 0  21 4 0  21.75 4 0  22.5 4 0  23.25 4 0  24 4 0  24.75 4 0  25.5 4 0  26.25 4 0  27 4 0  27.75 4 0  28.5 4 0  29.25 4 0  30 4 0  30.75 4 0  31.5 4 0  32.25 4 0  33 4 0  33.75 4 0  34.5 4 0  35.25 4 0  36 4 0  36.75 4 0  37.5 4 0  38.25 4 0  39 4 0  39.75 4 0  40.5 4 0  41.25 4 0  42 4 0  42.75 4 0  43.5 4 0  44.25 4 0  45 4 0  45.75 4 0  46.5 4 0  47.25 4 0  48 4 0  48.75 4 0  49.5 4 0  50.25 4 0  51 4 0  51.75 4 0  52.5 4 0  53.25 4 0  54 4 0  54.75 4 0  55.5 4 0  56.25 4 0  57 4 0  57.75 4 0  58.5 4 0  59.25 4 0  60 4 0  0.375 0.25 0  1.125 0.25 0  1.875 0.25 0  2.625 0.25 0  3.375 0.25 0  4.125 0.25 0  4.875 0.25 0  5.625 0.25 0  6.375 0.25 0  7.125 0.25 0  7.875 0.25 0  8.625 0.25 0  9.375 0.25 0  10.125 0.25 0  10.875 0.25 0  11.625 0.25 0  12.375 0.25 0  13.125 0.25 0  13.875 0.25 0  14.625 0.25 0  15.375 0.25 0  16.125 0.25 0  16.875 0.25 0  17.625 0.25 0  18.375 0.25 0  19.125 0.25 0  19.875 0.25 0  20.625 0.25 0  21.375 0.25 0  22.125 0.25 0  22.875 0.25 0  23.625 0.25 0  24.375 0.25 0  25.125 0.25 0  25.875 0.25 0  26.625 0.25 0  27.375 0.25 0  28.125 0.25 0  28.875 0.25 0  29.625 0.25 0  30.375 0.25 0  31.125 0.25 0  31.875 0.25 0  32.625 0.25 0  33.375 0.25 0  34.125 0.25 0  34.875 0.25 0  35.625 0.25 0  36.375 0.25 0  37.125 0.25 0  37.875 0.25 0  38.625 0.25 0  39.375 0.25 0  40.125 0.25 0  40.875 0.25 0  41.625 0.25 0  42.375 0.25 0  43.125 0.25 0  43.875 0.25 0  44.625 0.25 0  45.375 0.25 0  46.125 0.25 0  46.875 0.25 0  47.625 0.25 0  48.375 0.25 0  49.125 0.25 0  49.875 0.25 0  50.625 0.25 0  51.375 0.25 0  52.125 0.25 0  52.875 0.25 0  53.625 0.25 0  54.375 0.25 0  55.125 0.25 0  55.875 0.25 0  56.625 0.25 0  57.375 0.25 0  58.125 0.25 0  58.875 0.25 0  59.625 0.25 0  0.375 0.75 0  1.125 0.75 0  1.875 0.75 0  2.625 0.75 0  3.375 0.75 0  4.125 0.75 0  4.875 0.75 0  5.625 0.75 0  6.375 0.75 0  7.125 0.75 0  7.875 0.75 0  8.625 0.75 0  9.375 0.75 0  10.125 0.75 0  10.875 0.75 0  11.625 0.75 0  12.375 0.75 0  13.125 0.75 0  13.875 0.75 0  14.625 0.75 0  15.375 0.75 0  16.125 0.75 0  16.875 0.75 0  17.625 0.75 0  18.375 0.75 0  19.125 0.75 0  19.875 0.75 0  20.625 0.75 0  21.375 0.75 0  22.125 0.75 0  22.875 0.75 0  23.625 0.75 0  24.375 0.75 0  25.125 0.75 0  25.875 0.75 0  26.625 0.75 0  27.375 0.75 0  28.125 0.75 0  28.875 0.75 0  29.625 0.75 0  30.375 0.75 0  31.125 0.75 0  31.875 0.75 0  32.625 0.75 0  33.375 0.75 0  34.125 0.75 0  34.875 0.75 0  35.625 0.75 0  36.375 0.75 0  37.125 0.75 0  37.875 0.75 0  38.625 0.75 0  39.375 0.75 0  40.125 0.75 0  40
[...]
<PointData  Vectors="f_8-0"> 
<DataArray  type="Float64"  Name="f_8-0"  NumberOfComponents="3" format="ascii">0.0000000000000000e+00 0.0000000000000000e+00 0.0000000000000000e+00  0.0000000000000000e+00 0.0000000000000000e+00 0.0000000000000000e+00  0.0000000000000000e+00 0.0000000000000000e+00 0.0000000000000000e+00  0.0000000000000000e+00 0.0000000000000000e+00 0.0000000000000000e+00  0.0000000000000000e+00 0.0000000000000000e+00 0.0000000000000000e+00  0.0000000000000000e+00 0.0000000000000000e+00 0.0000000000000000e+00  0.0000000000000000e+00 0.0000000000000000e+00 0.0000000000000000e+00  0.0000000000000000e+00 0.0000000000000000e+00 0.0000000000000000e+00  0.0000000000000000e+00 0.0000000000000000e+00 0.0000000000000000e+00  0.0000000000000000e+00 0.0000000000000000e+00 0.0000000000000000e+00  0.0000000000000000e+00 0.0000000000000000e+00 0.0000000000000000e+00  0.0000000000000000e+00 0.0000000000000000e+00 0.0000000000000000e+00  0.0000000000000000e+00 0.0000000000000000e+00 0.0000000000000000e+00  0.0000000000000000e+00 0.0000000000000000e+00 0.0000000000000000e+00  0.0000000000000000e+00 0.0000000000000000e+00 0.0000000000000000e+00  0.0000000000000000e+00 0.0000000000000000e+00 0.0000000000000000e+00  0.0000000000000000e+00 0.0000000000000000e+00 0.0000000000000000e+00  0.0000000000000000e+00 0.0000000000000000e+00 0.0000000000000000e+00  0.0000000000000000e+00 0.0000000000000000e+00 0.0000000000000000e+00  0.0000000000000000e+00 0.0000000000000000e+00 0.0000000000000000e+00  0.0000000000000000e+00 0.0000000000000000e+00 0.0000000000000000e+00  0.0000000000000000e+00 0.0000000000000000e+00 0.0000000000000000e+00  0.0000000000000000e+00 0.0000000000000000e+00 0.0000000000000000e+00  0.0000000000000000e+00 0.0000000000000000e+00 0.0000000000000000e+00  0.0000000000000000e+00 0.0000000000000000e+00 0.0000000000000000e+00  0.0000000000000000e+00 0.0000000000000000e+00 0.0000000000000000e+00  0.0000000000000000e+00 0.0000000000000000e+00 0.0000000000000000e+00  0.0000000000000000e+00 0.0000000000000000e+00 0.0000000000000000e+00  0.0000000000000000e+00 0.0000000000000000e+00 0.0000000000000000e+00  0.0000000000000000e+00 0.0000000000000000e+00 0.0000000000000000e+00  0.0000000000000000e+00 0.0000000000000000e+00 0.0000000000000000e+00  0.0000000000000000e+00 0.0000000000000000e+00 0.0000000000000000e+00  0.0000000000000000e+00 0.0000000000000000e+00 0.0000000000000000e+00  0.0000000000000000e+00 0.0000000000000000e+00 0.0000000000000000e+00  0.0000000000000000e+00 0.0000000000000000e+00 0.0000000000000000e+00  0.0000000000000000e+00 0.0000000000000000e+00 0.0000000000000000e+00  0.0000000000000000e+00 0.0000000000000000e+00 0.0000000000000000e+00  0.0000000000000000e+00 0.0000000000000000e+00 0.0000000000000000e+00  0.0000000000000000e+00 0.0000000000000000e+00 0.0000000000000000e+00  0.0000000000000000e+00 0.0000000000000000e+00 0.0000000000000000e+00  0.0000000000000000e+00 0.0000000000000000e+00 0.0000000000000000e+00  0.0000000000000000e+00 0.0000000000000000e+00 0.0000000000000000e+00  0.0000000000000000e+00 0.0000000000000000e+00 0.0000000000000000e+00  0.0000000000000000e+00 0.0000000000000000e+00 0.0000000000000000e+00  0.0000000000000000e+00 0.0000000000000000e+00 0.0000000000000000e+00  0.0000000000000000e+00 0.0000000000000000e+00 0.0000000000000000e+00  0.0000000000000000e+00 0.0000000000000000e+00 0.0000000000000000e+00  0.0000000000000000e+00 0.0000000000000000e+00 0.0000000000000000e+00  0.0000000000000000e+00 0.0000000000000000e+00 0.0000000000000000e+00  0.0000000000000000e+00 0.0000000000000000e+00 0.0000000000000000e+00  0.0000000000000000e+00 0.0000000000000000e+00 0.0000000000000000e+00  0.0000000000000000e+00 0.0000000000000000e+00 0.0000000000000000e+00  0.0000000000000000e+00 0.0000000000000000e+00 0.0000000000000000e+00  0.0000000000000000e+00 0.0000000000000000e+00 0.0000000000000000e+00  0.0000000000000000e+00 0.0000000000000000e+00 0.0000000000000000e+00  0.0000000000000000e+00 0.0000000000000000e+00 0.0000000000000000e+00  0.0000000000000000e+00 0.0000000000000000e+00 0.0000000000000000e+00  0.0000000000000000e+00 0.0000000000000000e+00 0.0000000000000000e+00  0.0000000000000000e+00 0.0000000000000000e+00 0.0000000000000000e+00  0.0000000000000000e+00 0.0000000000000000e+00 0.0000000000000000e+00  0.0000000000000000e+00 0.0000000000000000e+00 0.0000000000000000e+00  0.0000000000000000e+00 0.0000000000000000e+00 0.0000000000000000e+00  0.0000000000000000e+00 0.0000000000000000e+00 0.0000000000000000e+00  0.0000000000000000e+00 0.0000000000000000e+00 0.0000000000000000e+00  0.0000000000000000e+00 0.0000000000000000e+00 0.0000000000000000e+00  0.0000000000000000e+00 0.0000000000000000e+00 0.0000000000000000e+00  0.0000000000000000e+00 0.0000000000000000e+00 0.0000000000000000e+00  0.0000000000000000e+00 0.0000000000000000e+00 0.0000000000000000e+00  0.0000000000000000e+00 0.0000000000000000e+00 0.0000000000000000e+00  0.0000000000000000e+00 0.0000000000000000e+00 0.0000000000000000e+00  0.0000000000000000e+00 0.0000000000000000e+00 0.0000000000000000e+00  0.0000000000000000e+00 0.0000000000000000e+00 0.0000000000000000e+00  0.0000000000000000e+00 0.0000000000000000e+00 0.0000000000000000e+00  0.0000000000000000e+00 0.0000000000000000e+00 0.0000000000000000e+00  0.0000000000000000e+00 0.0000000000000000e+00 0.0000000000000000e+00  0.0000000000000000e+00 0.0000000000000000e+00 0.0000000000000000e+00  0.0000000000000000e+00 0.0000000000000000e+00 0.0000000000000000e+00  0.0000000000000000e+00 0.0000000000000000e+00 0.0000000000000000e+00  0.0000000000000000e+00 0.0000000000000000e+00 0.0000000000000000e+00  0.0000000000000000e+00 0.0000000000000000e+00 0.0000000000000000e+00  0.0000000000000000e+00 0.0000000000000000e+00 0.0000000000000000e+00  2.3510524843446369e+01 0.0000000000000000e+00 0.0000000000000000e+00  2.3558372756479610e+01 -3.8773141614006919e-02 0.0000000000000000e+00  2.3557406546244486e+01 -1.1695206423079654e-02 0.0000000000000000e+00  2.3562450290483770e+01 -1.8327765271879352e-03 0.0000000000000000e+00  2.3567322439981204e+01 -2.0220863634803658e-03 0.0000000000000000e+00  2.3567640716186062e+01 -2.4720463376107717e-03 0.0000000000000000e+00  2.3573037116460423e+01 -3.5765268695950236e-03 0.0000000000000000e+00  2.3576693850971981e+01 -3.5566176779940183e-03 0.0000000000000000e+00  2.3580266287374858e+01 -3.5378921172980185e-03 0.0000000000000000e+00  2.3582386616594579e+01 -3.2153322699731896e-03 0.0000000000000000e+00  2.3583777543756302e+01 -2.8359017794022702e-03 0.0000000000000000e+00  2.3584399195689915e+01 -2.6867044550331533e-03 0.0000000000000000e+00  2.3584627721816808e+01 -2.5655452276639890e-03 0.0000000000000000e+00  2.3584720681146127e+01 -2.5822485782156851e-03 0.0000000000000000e+00  2.3584725244572859e+01 -2.5491666211867898e-03 0.0000000000000000e+00  2.3584749848783098e+01 -2.5709647280018110e-03 0.0000000000000000e+00  2.3584740480366758e+01 -2.5547564659505542e-03 0.0000000000000000e+00  2.3584752937166073e+01 -2.5661108000976825e-03 0.0000000000000000e+00  2.3584746763922745e+01 -2.5578138174059497e-03 0.0000000000000000e+00  2.3584752833620279e+01 -2.5633569294269132e-03 0.0000000000000000e+00  2.3584749456869844e+01 -2.5593877265321758e-03 0.0000000000000000e+00  2.3584752257303141e+01 -2.5620137571774424e-03 0.0000000000000000e+00  2.3584750573543491e+01 -2.5601992674759103e-03 0.0000000000000000e+00  2.3584751828366741e+01 -2.5613875826613159e-03 0.0000000000000000e+00  2.3584751048902898e+01 -2.5605951968370377e-03 0.0000000000000000e+00  2.3584751589929741e+01 -2.5611043152961046e-03 0.0000000000000000e+00  2.3584751253297728e+01 -2.5607760357864305e-03 0.0000000000000000e+00  2.3584751474954405e+01 -2.5609819062996789e-03 0.0000000000000000e+00  2.3584751338963812e+01 -2.5608532477125459e-03 0.0000000000000000e+00  2.3584751424817576e+01 -2.5609318993767543e-03 0.0000000000000000e+00  2.3584751373199168e+01 -2.5608841306958494e-03 0.0000000000000000e+00  2.3584751404674655e+01 -2.5609126244969258e-03 0.0000000000000000e+00  2.3584751386154934e+01 -2.5608957553858386e-03 0.0000000000000000e+00  2.3584751397122567e+01 -2.5609055921565556e-03 0.0000000000000000e+00  2.3584751390801024e+01 -2.5608999002191017e-03 0.0000000000000000e+00  2.3584751394454031e+01 -2.5609031527781254e-03 0.0000000000000000e+00  2.3584751392389119e+01 -2.5609013076821376e-03 0.0000000000000000e+00  2.3584751393557507e+01 -2.5609023418865029e-03 0.0000000000000000e+00  2.3584751392906011e+01 -2.5609017659012591e-03 0.0000000000000000e+00  2.3584751393265140e+01 -2.5609020838164224e-03 0.0000000000000000e+00  2.3584751393066330e+01 -2.5609019090123285e-03 0.0000000000000000e+00  2.3584751393173576e+01 -2.5609020051650714e-03 0.0000000000000000e+00  2.3584751393116075e+01 -2.5609019531476485e-03 0.0000000000000000e+00  2.3584751393148878e+01 -2.5609019819321697e-03 0.0000000000000000e+00  2.3584751393133555e+01 -2.5609019658780598e-03 0.0000000000000000e+00  2.3584751393143815e+01 -2.5609019753358012e-03 0.0000000000000000e+00  2.3584751393142344e+01 -2.5609019713655214e-03 0.0000000000000000e+00  2.3584751393149361e+01 -2.5609019757661016e-03 0.0000000000000000e+00  2.3584751393159419e+01 -2.5609019784043558e-03 0.0000000000000000e+00  2.3584751393181797e+01 -2.5609019847690905e-03 0.0000000000000000e+00  2.3584751393219232e+01 -2.5609020015646905e-03 0.0000000000000000e+00  2.3584751393301207e+01 -2.5609020260712722e-03 0.0000000000000000e+00  2.3584751393462462e+01 -2.5609020931598257e-03 0.0000000000000000e+00  2.3584751393795205e+01 -2.5609021989754441e-03 0.0000000000000000e+00  2.3584751394455104e+01 -2.5609024633394400e-03 0.0000000000000000e+00  2.3584751395810535e+01 -2.5609029215707606e-03 0.0000000000000000e+00  2.3584751398534546e+01 -2.5609039760346531e-03 0.0000000000000000e+00  2.3584751404102139e+01 -2.5609059395529420e-03 0.0000000000000000e+00  2.3584751415394816e+01 -2.5609102358833151e-03 0.0000000000000000e+00  2.3584751438517333e+01 -2.5609186237462544e-03 0.0000000000000000e+00  2.3584751485803345e+01 -2.5609365072503548e-03 0.0000000000000000e+00  2.3584751583071434e+01 -2.5609723186107991e-03 0.0000000000000000e+00  2.3584751783255765e+01 -2.5610474303849736e-03 0.0000000000000000e+00  2.3584752196324754e+01 -2.5611990377915669e-03 0.0000000000000000e+00  2.3584753047456630e+01 -2.5615113478835196e-03 0.0000000000000000e+00  2.3584754796709927e+01 -2.5621367910527194e-03 0.0000000000000000e+00  2.3584758364414931e+01 -2.5633913297092364e-03 0.0000000000000000e+00  2.3584765557442900e+01 -2.5658382007446552e-03 0.0000000000000000e+00  2.3584779809789438e+01 -2.5705295230611875e-03 0.0000000000000000e+00  2.3584807420030028e+01 -2.5791709132120095e-03 0.0000000000000000e+00  2.3584859405722113e+01 -2.5944965559478528e-03 0.0000000000000000e+00  2.3584953916437730e+01 -2.6201396483848988e-03 0.0000000000000000e+00  2.3585118303473529e+01 -2.6601820367696278e-03 0.0000000000000000e+00  2.3585388891210616e+01 -2.7165376346467590e-03 0.0000000000000000e+00  2.3585805329802632e+01 -2.7859387578588468e-03 0.0000000000000000e+00  2.3586394944456622e+01 -2.8551798314955597e-03 0.0000000000000000e+00  2.3587163318497591e+01 -2.9142217802763802e-03 0.0000000000000000e+00  2.3588239927207528e+01 -2.9889256724192526e-03 0.0000000000000000e+00  2.3590595607827300e+01 -3.0497394579871271e-03 0.0000000000000000e+00  2.3601293718349510e+01 -1.4407974861350452e-03 0.0000000000000000e+00  2.3626593643787274e+01 0.0000000000000000e+00 0.0000000000000000e+00  3.2109945052110163e+01 0.0000000000000000e+00 0.0000000000000000e+00  3.2119006695850295e+01 2.2239253292165952e-02 0.0000000000000000e+00  3.2095253718097098e+01 -1.4034121867081667e-03 0.0000000000000000e+00  3.2094388625462656e+01 2.5202254369170274e-03 0.0000000000000000e+00  3.2093750845455354e+01 1.2849498200724783e-03 0.0000000000000000e+00  3.2097373414532193e+01 -7.6022441626162065e-04 0.0000000000000000e+00  3.2100849835437636e+01 -2.6083567097379885e-03 0.0000000000000000e+00  3.2107371310917742e+01 -2.1308747916655010e-03 0.0000000000000000e+00  3.2112138911609790e+01 -4.9075027680486676e-04 0.0000000000000000e+00  3.2115100995341450e+01 9.6323384931872990e-04 0.0000000000000000e+00  3.2116468104258281e+01 1.9462526393897791e-03 0.0000000000000000e+00  3.2117265114071252e+01 2.5956530051322100e-03 0.0000000000000000e+00  3.2117598800640422e+01 2.8500115066754793e-03 0.0000000000000000e+00  3.2117768757831854e+01 2.9923501175006949e-03 0.0000000000000000e+00  3.2117834708838295e+01 3.0083437912970614e-03 0.0000000000000000e+00  3.2117855289174614e+01 3.0384674334439118e-03 0.0000000000000000e+00  3.2117874222732823e+01 3.0298908701574825e-03 0.0000000000000000e+00  3.2117871359594204e+01 3.0418601321532011e-03 0.0000000000000000e+00  3.2117880756935214e+01 3.0357645290740101e-03 0.0000000000000000e+00  3.2117876275438292e+01 3.0415670845337110e-03 0.0000000000000000e+00  3.2117881420318781e+01 3.0382230533528899e-03 0.0000000000000000e+00  3.2117878313087942e+01 3.0409575175239048e-03 0.0000000000000000e+00  3.2117881035609486e+01 3.0392905973118467e-03 0.0000000000000000e+00  3.2117879267019042e+01 3.0405232784649848e-03 0.0000000000000000e+00  3.2117880626126549e+01 3.0397560305907346e-03 0.0000000000000000e+00  3.2117879733881054e+01 3.0402857438885443e-03 0.0000000000000000e+00  3.2117880365775513e+01 3.0399565571256584e-03 0.0000000000000000e+00  3.2117879957547999e+01 3.0401726895408704e-03 0.0000000000000000e+00  3.2117880230181427e+01 3.0400401575170202e-03 0.0000000000000000e+00  3.2117880058507353e+01 3.0401238008904824e-03 0.0000000000000000e+00  3.2117880168045374e+01 3.0400734503825684e-03 0.0000000000000000e+00  3.2117880100937420e+01 3.0401042031710569e-03 0.0000000000000000e+00  3.2117880142202971e+01 3.0400860599192120e-03 0.0000000000000000e+00  3.2117880117572930e+01 3.0400968360270028e-03 0.0000000000000000e+00  3.2117880132260673e+01 3.0400906022687276e-03 0.0000000000000000e+00  3.2117880123698328e+01 3.0400942174187684e-03 0.0000000000000000e+00  3.2117880128675431e+01 3.0400921604278996e-03 0.0000000000000000e+00  3.2117880125839349e+01 3.0400933328058764e-03 0.0000000000000000e+00  3.2117880127451834e+01 3.0400926805894922e-03 0.0000000000000000e+00  3.2117880126546858e+01 3.0400930439224319e-03 0.0000000000000000e+00  3.2117880127049204e+01 3.0400928445393411e-03 0.0000000000000000e+00  3.2117880126768853e+01 3.0400929517531211e-03 0.0000000000000000e+00  3.2117880126919552e+01 3.0400928946412893e-03 0.0000000000000000e+00  3.2117880126835537e+01 3.0400929216143685e-03 0.0000000000000000e+00  3.2117880126882589e+01 3.0400929066313645e-03 0.0000000000000000e+00  3.2117880126860150e+01 3.0400929136980615e-03 0.0000000000000000e+00  3.2117880126872151e+01 3.0400929107340579e-03 0.0000000000000000e+00  3.2117880126865181e+01 3.0400929074356551e-03 0.0000000000000000e+00  3.2117880126869366e+01 3.0400928996936493e-03 0.0000000000000000e+00  3.2117880126867810e+01 3.0400928941987943e-03 0.0000000000000000e+00  3.2117880126865643e+01 3.0400928627480656e-03 0.0000000000000000e+00  3.2117880126859667e+01 3.0400928313681439e-03 0.0000000000000000e+00  3.2117880126845179e+01 3.0400927126084014e-03 0.0000000000000000e+00  3.2117880126819024e+01 3.0400925669512861e-03 0.0000000000000000e+00  3.2117880126760781e+01 3.0400921133792538e-03 0.0000000000000000e+00  3.2117880126646675e+01 3.0400914426598215e-03 0.0000000000000000e+00  3.2117880126414441e+01 3.0400896947451314e-03 0.0000000000000000e+00  3.2117880125946058e+01 3.0400867123987754e-03 0.0000000000000000e+00  3.2117880124998194e+01 3.0400797465103819e-03 0.0000000000000000e+00  3.2117880123060466e+01 3.0400667795814590e-03 0.0000000000000000e+00  3.2117880119070321e+01 3.0400381990468442e-03 0.0000000000000000e+00  3.2117880110771274e+01 3.0399824550136636e-03 0.0000000000000000e+00  3.2117880093330207e+01 3.0398635823087388e-03 0.0000000000000000e+00  3.2117880056503701e+01 3.0396268513855304e-03 0.0000000000000000e+00  3.2117879979084137e+01 3.0391335367014618e-03 0.0000000000000000e+00  3.2117879818152730e+01 3.0381474021724895e-03 0.0000000000000000e+00  3.2117879488519087e+01 3.0361454429372972e-03 0.0000000000000000e+00  3.2117878817393432e+01 3.0322248575530898e-03 0.0000000000000000e+00  3.2117877444881309e+01 3.0246490041064516e-03 0.0000000000000000e+00  3.2117874660113223e+01 3.0106784561330763e-03 0.0000000000000000e+00  3.2117869311261764e+01 2.9856438586002955e-03 0.0000000000000000e+00  3.2117860236479316e+01 2.9426161206485492e-03 0.0000000000000000e+00  3.2117847920161076e+01 2.8714694557457386e-03 0.0000000000000000e+00  3.2117840189403914e+01 2.7612957333841676e-03 0.0000000000000000e+00  3.2117870265993076e+01 2.6007023480422733e-03 0.0000000000000000e+00  3.2118018859272603e+01 2.4020663061773257e-03 0.0000000000000000e+00  3.2118367462854899e+01 2.2222181256462943e-03 0.0000000000000000e+00  3.2118946240866840e+01 2.0218541139364722e-03 0.0000000000000000e+00  3.2119905450182785e+01 1.4895196770854148e-03 0.0000000000000000e+00  3.2120337118810141e+01 -5.5457814283659901e-04 0.0000000000000000e+00  3.2112234511246889e+01 0.0000000000000000e+00 0.0000000000000000e+00  3.2251965124520297e+01 0.0000000000000000e+00 0.0000000000000000e+00  3.2228001018667669e+01 -1.2283403010241254e-02 0.0000000000000000e+00  3.2233386587135350e+01 8.3508623325379862e-04 0.0000000000000000e+00  3.2229866451639431e+01 -1.0315945063146482e-03 0.0000000000000000e+00  3.2232105186521643e+01 -3.3074534980982105e-04 0.0000000000000000e+00  3.2226598059842495e+01 -1.2781177976532061e-03 0.0000000000000000e+00  3.2222156551350622e+01 -4.1283012047967386e-03 0.0000000000000000e+00  3.2215460369189863e+01 -4.6913826632804783e-03 0.0000000000000000e+00  3.2211783595721705e+01 -3.0911534105648969e-03 0.0000000000000000e+00  3.2209147912896164e+01 -1.3913140599605613e-03 0.0000000000000000e+00  3.2207945174191096e+01 -2.1415121507738181e-04 0.0000000000000000e+00  3.2207260495264102e+01 3.9278619903798195e-04 0.0000000000000000e+00  3.2207013726666730e+01 7.3272643872766569e-04 0.0000000000000000e+00  3.2206923545377151e+01 8.4339395699069069e-04 0.0000000000000000e+00  3.2206875484399696e+01 9.1149753012554659e-04 0.0000000000000000e+00  3.2206881324517113e+01 9.1772480708092702e-04 0.0000000000000000e+00  3.2206857907580954e+01 9.3443254128994116e-04 0.0000000000000000e+00  3.2206870753876913e+01 9.3080379057838630e-04 0.0000000000000000e+00  3.2206856444009439e+01 9.3718318254494451e-04 0.0000000000000000e+00  3.2206865604946934e+01 9.3461638662843585e-04 0.0000000000000000e+00  3.2206857668827880e+01 9.3731587193455438e-04 0.0000000000000000e+00  3.2206862958571271e+01 9.3601142002228122e-04 0.0000000000000000e+00  3.2206858893908212e+01 9.3711872259219444e-04 0.0000000000000000e+00  3.2206861620196406e+01 9.3653356216321737e-04 0.0000000000000000e+00  3.2206859669569923e+01 9.3697146945888451e-04 0.0000000000000000e+00  3.2206860961127489e+01 9.3672811975306885e-04 0.0000000000000000e+00  3.2206860083007555e+01 9.3689634725314540e-04 0.0000000000000000e+00  3.2206860651290448e+01 9.3680030871198360e-04 0.0000000000000000e+00  3.2206860280604417e+01 9.3686323968521841e-04 0.0000000000000000e+00  3.2206860514175830e+01 9.3682692919921321e-04 0.0000000000000000e+00  3.2206860367140827e+01 9.3684979782749376e-04 0.0000000000000000e+00  3.2206860457319095e+01 9.3683660541148594e-04 0.0000000000000000e+00  3.2206860402282175e+01 9.3684465484853081e-04 0.0000000000000000e+00  3.2206860435185511e+01 9.3684004306979630e-04 0.0000000000000000e+00  3.2206860415640243e+01 9.3684278278411499e-04 0.0000000000000000e+00  3.2206860427054032e+01 9.3684123109030021e-04 0.0000000000000000e+00  3.2206860420432122e+01 9.3684212399599458e-04 0.0000000000000000e+00  3.2206860424221837e+01 9.3684162816286189e-04 0.0000000000000000e+00  3.2206860422070989e+01 9.3684191509468926e-04 0.0000000000000000e+00  3.2206860423278734e+01 9.3684175707130527e-04 0.00000000