<?xml version="1.0"?>
<VTKFile type="UnstructuredGrid"  version="0.1"  >
<UnstructuredGrid>
<Piece  NumberOfPoints="1369" NumberOfCells="2560">
<Points>
<DataArray  type="Float64"  NumberOfComponents="3"  format="ascii">0 0 0  0.75 0 0  1.5 0 0  2.25 0 0  3 0 0  3.75 0 0  4.5 0 0  5.25 0 0  6 0 0  6.75 0 0  7.5 0 0  8.25 0 0  9 0 0  9.75 0 0  10.5 0 0  11.25 0 0  12 0 0  12.75 0 0  13.5 0 0  14.25 0 0  15 0 0  15.75 0 0  16.5 0 0  17.25 0 0  18 0 0  18.75 0 0  19.5 0 0  20.25 0 0  21 0 0  21.75 0 0  22.5 0 0  23.25 0 0  24 0 0  24.75 0 0  25.5 0 0  26.25 0 0  27 0 0  27.75 0 0  28.5 0 0  29.25 0 0  30 0 0  30.75 0 0  31.5 0 0  32.25 0 0  33 0 0  33.75 0 0  34.5 0 0  35.25 0 0  36 0 0  36.75 0 0  37.5 0 0  38.25 0 0  39 0 0  39.75 0 0  40.5 0 0  41.25 0 0  42 0 0  42.75 0 0  43.5 0 0  44.25 0 0  45 0 0  45.75 0 0  46.5 0 0  47.25 0 0  48 0 0  48.75 0 0  49.5 0 0  50.25 0 0  51 0 0  51.75 0 0  52.5 0 0  53.25 0 0  54 0 0  54.75 0 0  55.5 0 0  56.25 0 0  57 0 0  57.75 0 0  58.5 0 0  59.25 0 0  60 0 0  0 0.5 0  0.75 0.5 0  1.5 0.5 0  2.25 0.5 0  3 0.5 0  3.75 0.5 0  4.5 0.5 0  5.25 0.5 0  6 0.5 0  6.75 0.5 0  7.5 0.5 0  8.25 0.5 0  9 0.5 0  9.75 0.5 0  10.5 0.5 0  11.25 0.5 0  12 0.5 0  12.75 0.5 0  13.5 0.5 0  14.25 0.5 0  15 0.5 0  15.75 0.5 0  16.5 0.5 0  17.25 0.5 0  18 0.5 0  18.75 0.5 0  19.5 0.5 0  20.25 0.5 0  21 0.5 0  21.75 0.5 0  22.5 0.5 0  23.25 0.5 0  24 0.5 0  24.75 0.5 0  25.5 0.5 0  26.25 0.5 0  27 0.5 0  27.75 0.5 0  28.5 0.5 0  29.25 0.5 0  30 0.5 0  30.75 0.5 0  31.5 0.5 0  32.25 0.5 0  33 0.5 0  33.75 0.5 0  34.5 0.5 0  35.25 0.5 0  36 0.5 0  36.75 0.5 0  37.5 0.5 0  38.25 0.5 0  39 0.5 0  39.75 0.5 0  40.5 0.5 0  41.25 0.5 0  42 0.5 0  42.75 0.5 0  43.5 0.5 0  44.25 0.5 0  45 0.5 0  45.75 0.5 0  46.5 0.5 0  47.25 0.5 0  48 0.5 0  48.75 0.5 0  49.5 0.5 0  50.25 0.5 0  51 0.5 0  51.75 0.5 0  52.5 0.5 0  53.25 0.5 0  54 0.5 0  54.75 0.5 0  55.5 0.5 0  56.25 0.5 0  57 0.5 0  57.75 0.5 0  58.5 0.5 0  59.25 0.5 0  60 0.5 0  0 1 0  0.75 1 0  1.5 1 0  2.25 1 0  3 1 0  3.75 1 0  4.5 1 0  5.25 1 0  6 1 0  6.75 1 0  7.5 1 0  8.25 1 0  9 1 0  9.75 1 0  10.5 1 0  11.25 1 0  12 1 0  12.75 1 0  13.5 1 0  14.25 1 0  15 1 0  15.75 1 0  16.5 1 0  17.25 1 0  18 1 0  18.75 1 0  19.5 1 0  20.25 1 0  21 1 0  21.75 1 0  22.5 1 0  23.25 1 0  24 1 0  24.75 1 0  25.5 1 0  26.25 1 0  27 1 0  27.75 1 0  28.5 1 0  29.25 1 0  30 1 0  30.75 1 0  31.5 1 0  32.25 1 0  33 1 0  33.75 1 0  34.5 1 0  35.25 1 0  36 1 0  36.75 1 0  37.5 1 0  38.25 1 0  39 1 0  39.75 1 0  40.5 1 0  41.25 1 0  42 1 0  42.75 1 0  43.5 1 0  44.25 1 0  45 1 0  45.75 1 0  46.5 1 0  47.25 1 0  48 1 0  48.75 1 0  49.5 1 0  50.25 1 0  51 1 0  51.75 1 0  52.5 1 0  53.25 1 0  54 1 0  54.75 1 0  55.5 1 0  56.25 1 0  57 1 0  57.75 1 0  58.5 1 0  59.25 1 0  60 1 0  0 1.5 0  0.75 1.5 0  1.5 1.5 0  2.25 1.5 0  3 1.5 0  3.75 1.5 0  4.5 1.5 0  5.25 1.5 0  6 1.5 0  6.75 1.5 0  7.5 1.5 0  8.25 1.5 0  9 1.5 0  9.75 1.5 0  10.5 1.5 0  11.25 1.5 0  12 1.5 0  12.75 1.5 0  13.5 1.5 0  14.25 1.5 0  15 1.5 0  15.75 1.5 0  16.5 1.5 0  17.25 1.5 0  18 1.5 0  18.75 1.5 0  19.5 1.5 0  20.25 1.5 0  21 1.5 0  21.75 1.5 0  22.5 1.5 0  23.25 1.5 0  24 1.5 0  24.75 1.5 0  25.5 1.5 0  26.25 1.5 0  27 1.5 0  27.75 1.5 0  28.5 1.5 0  29.25 1.5 0  30 1.5 0  30.75 1.5 0  31.5 1.5 0  32.25 1.5 0  33 1.5 0  33.75 1.5 0  34.5 1.5 0  35.25 1.5 0  36 1.5 0  36.75 1.5 0  37.5 1.5 0  38.25 1.5 0  39 1.5 0  39.75 1.5 0  40.5 1.5 0  41.25 1.5 0  42 1.5 0  42.75 1.5 0  43.5 1.5 0  44.25 1.5 0  45 1.5 0  45.75 1.5 0  46.5 1.5 0  47.25 1.5 0  48 1.5 0  48.75 1.5 0  49.5 1.5 0  50.25 1.5 0  51 1.5 0  51.75 1.5 0  52.5 1.5 0  53.25 1.5 0  54 1.5 0  54.75 1.5 0  55.5 1.5 0  56.25 1.5 0  57 1.5 0  57.75 1.5 0  58.5 1.5 0  59.25 1.5 0  60 1.5 0  0 2 0  0.75 2 0  1.5 2 0  2.25 2 0  3 2 0  3.75 2 0  4.5 2 0  5.25 2 0  6 2 0  6.75 2 0  7.5 2 0  8.25 2 0  9 2 0  9.75 2 0  10.5 2 0  11.25 2 0  12 2 0  12.75 2 0  13.5 2 0  14.25 2 0  15 2 0  15.75 2 0  16.5 2 0  17.25 2 0  18 2 0  18.75 2 0  19.5 2 0  20.25 2 0  21 2 0  21.75 2 0  22.5 2 0  23.25 2 0  24 2 0  24.75 2 0  25.5 2 0  26.25 2 0  27 2 0  27.75 2 0  28.5 2 0  29.25 2 0  30 2 0  30.75 2 0  31.5 2 0  32.25 2 0  33 2 0  33.75 2 0  34.5 2 0  35.25 2 0  36 2 0  36.75 2 0  37.5 2 0  38.25 2 0  39 2 0  39.75 2 0  40.5 2 0  41.25 2 0  42 2 0  42.75 2 0  43.5 2 0  44.25 2 0  45 2 0  45.75 2 0  46.5 2 0  47.25 2 0  48 2 0  48.75 2 0  49.5 2 0  50.25 2 0  51 2 0  51.75 2 0  52.5 2 0  53.25 2 0  54 2 0  54.75 2 0  55.5 2 0  56.25 2 0  57 2 0  57.75 2 0  58.5 2 0  59.25 2 0  60 2 0  0 2.5 0  0.75 2.5 0  1.5 2.5 0  2.25 2.5 0  3 2.5 0  3.75 2.5 0  4.5 2.5 0  5.25 2.5 0  6 2.5 0  6.75 2.5 0  7.5 2.5 0  8.25 2.5 0  9 2.5 0  9.75 2.5 0  10.5 2.5 0  11.25 2.5 0  12 2.5 0  12.75 2.5 0  13.5 2.5 0  14.25 2.5 0  15 2.5 0  15.75 2.5 0  16.5 2.5 0  17.25 2.5 0  18 2.5 0  18.75 2.5 0  19.5 2.5 0  20.25 2.5 0  21 2.5 0  21.75 2.5 0  22.5 2.5 0  23.25 2.5 0  24 2.5 0  24.75 2.5 0  25.5 2.5 0  26.25 2.5 0  27 2.5 0  27.75 2.5 0  28.5 2.5 0  29.25 2.5 0  30 2.5 0  30.75 2.5 0  31.5 2.5 0  32.25 2.5 0  33 2.5 0  33.75 2.5 0  34.5 2.5 0  35.25 2.5 0  36 2.5 0  36.75 2.5 0  37.5 2.5 0  38.25 2.5 0  39 2.5 0  39.75 2.5 0  40.5 2.5 0  41.25 2.5 0  42 2.5 0  42.75 2.5 0  43.5 2.5 0  44.25 2.5 0  45 2.5 0  45.75 2.5 0  46.5 2.5 0  47.25 2.5 0  48 2.5 0  48.75 2.5 0  49.5 2.5 0  50.25 2.5 0  51 2.5 0  51.75 2.5 0  52.5 2.5 0  53.25 2.5 0  54 2.5 0  54.75 2.5 0  55.5 2.5 0  56.25 2.5 0  57 2.5 0  57.75 2.5 0  58.5 2.5 0  59.25 2.5 0  60 2.5 0  0 3 0  0.75 3 0  1.5 3 0  2.25 3 0  3 3 0  3.75 3 0  4.5 3 0  5.25 3 0  6 3 0  6.75 3 0  7.5 3 0  8.25 3 0  9 3 0  9.75 3 0  10.5 3 0  11.25 3 0  12 3 0  12.75 3 0  13.5 3 0  14.25 3 0  15 3 0  15.75 3 0  16.5 3 0  17.25 3 0  18 3 0  18.75 3 0  19.5 3 0  20.25 3 0  21 3 0  21.75 3 0  22.5 3 0  23.25 3 0  24 3 0  24.75 3 0  25.5 3 0  26.25 3 0  27 3 0  27.75 3 0  28.5 3 0  29.25 3 0  30 3 0  30.75 3 0  31.5 3 0  32.25 3 0  33 3 0  33.75 3 0  34.5 3 0  35.25 3 0  36 3 0  36.75 3 0  37.5 3 0  38.25 3 0  39 3 0  39.75 3 0  40.5 3 0  41.25 3 0  42 3 0  42.75 3 0  43.5 3 0  44.25 3 0  45 3 0  45.75 3 0  46.5 3 0  47.25 3 0  48 3 0  48.75 3 0  49.5 3 0  50.25 3 0  51 3 0  51.75 3 0  52.5 3 0  53.25 3 0  54 3 0  54.75 3 0  55.5 3 0  56.25 3 0  57 3 0  57.75 3 0  58.5 3 0  59.25 3 0  60 3 0  0 3.5 0  0.75 3.5 0  1.5 3.5 0  2.25 3.5 0  3 3.5 0  3.75 3.5 0  4.5 3.5 0  5.25 3.5 0  6 3.5 0  6.75 3.5 0  7.5 3.5 0  8.25 3.5 0  9 3.5 0  9.75 3.5 0  10.5 3.5 0  11.25 3.5 0  12 3.5 0  12.75 3.5 0  13.5 3.5 0  14.25 3.5 0  15 3.5 0  15.75 3.5 0  16.5 3.5 0  17.25 3.5 0  18 3.5 0  18.75 3.5 0  19.5 3.5 0  20.25 3.5 0  21 3.5 0  21.75 3.5 0  22.5 3.5 0  23.25 3.5 0  24 3.5 0  24.75 3.5 0  25.5 3.5 0  26.25 3.5 0  27 3.5 0  27.75 3.5 0  28.5 3.5 0  29.25 3.5 0  30 3.5 0  30.75 3.5 0  31.5 3.5 0  32.25 3.5 0  33 3.5 0  33.75 3.5 0  34.5 3.5 0  35.25 3.5 0  36 3.5 0  36.75 3.5 0  37.5 3.5 0  38.25 3.5 0  39 3.5 0  39.75 3.5 0  40.5 3.5 0  41.25 3.5 0  42 3.5 0  42.75 3.5 0  43.5 3.5 0  44.25 3.5 0  45 3.5 0  45.75 3.5 0  46.5 3.5 0  47.25 3.5 0  48 3.5 0  48.75 3.5 0  49.5 3.5 0  50.25 3.5 0  51 3.5 0  51.75 3.5 0  52.5 3.5 0  53.25 3.5 0  54 3.5 0  54.75 3.5 0  55.5 3.5 0  56.25 3.5 0  57 3.5 0  57.75 3.5 0  58.5 3.5 0  59.25 3.5 0  60 3.5 0  0 4 0  0.75 4 0  1.5 4 0  2.25 4 0  3 4 0  3.75 4 0  4.5 4 0  5.25 4 0  6 4 0  6.75 4 0  7.5 4 0  8.25 4 0  9 4 0  9.75 4 0  10.5 4 0  11.25 4 0  12 4 0  12.75 4 0  13.5 4 0  14.25 4 0  15 4 0  15.75 4 0  16.5 4 0  17.25 4 0  18 4 0  18.75 4 0  19.5 4 0  20.25 4 0  21 4 0  21.75 4 0  22.5 4 0  23.25 4 0  24 4 0  24.75 4 0  25.5 4 0  26.25 4 0  27 4 0  27.75 4 0  28.5 4 0  29.25 4 0  30 4 0  30.75 4 0  31.5 4 0  32.25 4 0  33 4 0  33.75 4 0  34.5 4 0  35.25 4 0  36 4 0  36.75 4 0  37.5 4 0  38.25 4 0  39 4 0  39.75 4 0  40.5 4 0  41.25 4 0  42 4 0  42.75 4 0  43.5 4 0  44.25 4 0  45 4 0  45.75 4 0  46.5 4 0  47.25 4 0  48 4 0  48.75 4 0  49.5 4 0  50.25 4 0  51 4 0  51.75 4 0  52.5 4 0  53.25 4 0  54 4 0  54.75 4 0  55.5 4 0  56.25 4 0  57 4 0  57.75 4 0  58.5 4 0  59.25 4 0  60 4 0  0.375 0.25 0  1.125 0.25 0  1.875 0.25 0  2.625 0.25 0  3.375 0.25 0  4.125 0.25 0  4.875 0.25 0  5.625 0.25 0  6.375 0.25 0  7.125 0.25 0  7.875 0.25 0  8.625 0.25 0  9.375 0.25 0  10.125 0.25 0  10.875 0.25 0  11.625 0.25 0  12.375 0.25 0  13.125 0.25 0  13.875 0.25 0  14.625 0.25 0  15.375 0.25 0  16.125 0.25 0  16.875 0.25 0  17.625 0.25 0  18.375 0.25 0  19.125 0.25 0  19.875 0.25 0  20.625 0.25 0  21.375 0.25 0  22.125 0.25 0  22.875 0.25 0  23.625 0.25 0  24.375 0.25 0  25.125 0.25 0  25.875 0.25 0  26.625 0.25 0  27.375 0.25 0  28.125 0.25 0  28.875 0.25 0  29.625 0.25 0  30.375 0.25 0  31.125 0.25 0  31.875 0.25 0  32.625 0.25 0  33.375 0.25 0  34.125 0.25 0  34.875 0.25 0  35.625 0.25 0  36.375 0.25 0  37.125 0.25 0  37.875 0.25 0  38.625 0.25 0  39.375 0.25 0  40.125 0.25 0  40.875 0.25 0  41.625 0.25 0  42.375 0.25 0  43.125 0.25 0  43.875 0.25 0  44.625 0.25 0  45.375 0.25 0  46.125 0.25 0  46.875 0.25 0  47.625 0.25 0  48.375 0.25 0  49.125 0.25 0  49.875 0.25 0  50.625 0.25 0  51.375 0.25 0  52.125 0.25 0  52.875 0.25 0  53.625 0.25 0  54.375 0.25 0  55.125 0.25 0  55.875 0.25 0  56.625 0.25 0  57.375 0.25 0  58.125 0.25 0  58.875 0.25 0  59.625 0.25 0  0.375 0.75 0  1.125 0.75 0  1.875 0.75 0  2.625 0.75 0  3.375 0.75 0  4.125 0.75 0  4.875 0.75 0  5.625 0.75 0  6.375 0.75 0  7.125 0.75 0  7.875 0.75 0  8.625 0.75 0  9.375 0.75 0  10.125 0.75 0  10.875 0.75 0  11.625 0.75 0  12.375 0.75 0  13.125 0.75 0  13.875 0.75 0  14.625 0.75 0  15.375 0.75 0  16.125 0.75 0  16.875 0.75 0  17.625 0.75 0  18.375 0.75 0  19.125 0.75 0  19.875 0.75 0  20.625 0.75 0  21.375 0.75 0  22.125 0.75 0  22.875 0.75 0  23.625 0.75 0  24.375 0.75 0  25.125 0.75 0  25.875 0.75 0  26.625 0.75 0  27.375 0.75 0  28.125 0.75 0  28.875 0.75 0  29.625 0.75 0  30.375 0.75 0  31.125 0.75 0  31.875 0.75 0  32.625 0.75 0  33.375 0.75 0  34.125 0.75 0  34.875 0.75 0  35.625 0.75 0  36.375 0.75 0  37.125 0.75 0  37.875 0.75 0  38.625 0.75 0  39.375 0.75 0  40.125 0.75 0  40
[...]
<PointData  Vectors="f_8-0"> 
<DataArray  type="Float64"  Name="f_8-0"  NumberOfComponents="3" format="ascii">0.0000000000000000e+00 0.0000000000000000e+00 0.0000000000000000e+00  0.0000000000000000e+00 0.0000000000000000e+00 0.0000000000000000e+00  0.0000000000000000e+00 0.0000000000000000e+00 0.0000000000000000e+00  0.0000000000000000e+00 0.0000000000000000e+00 0.0000000000000000e+00  0.0000000000000000e+00 0.0000000000000000e+00 0.0000000000000000e+00  0.0000000000000000e+00 0.0000000000000000e+00 0.0000000000000000e+00  0.0000000000000000e+00 0.0000000000000000e+00 0.0000000000000000e+00  0.0000000000000000e+00 0.0000000000000000e+00 0.0000000000000000e+00  0.0000000000000000e+00 0.0000000000000000e+00 0.0000000000000000e+00  0.0000000000000000e+00 0.0000000000000000e+00 0.0000000000000000e+00  0.0000000000000000e+00 0.0000000000000000e+00 0.0000000000000000e+00  0.0000000000000000e+00 0.0000000000000000e+00 0.0000000000000000e+00  0.0000000000000000e+00 0.0000000000000000e+00 0.0000000000000000e+00  0.0000000000000000e+00 0.0000000000000000e+00 0.0000000000000000e+00  0.0000000000000000e+00 0.0000000000000000e+00 0.0000000000000000e+00  0.0000000000000000e+00 0.0000000000000000e+00 0.0000000000000000e+00  0.0000000000000000e+00 0.0000000000000000e+00 0.0000000000000000e+00  0.0000000000000000e+00 0.0000000000000000e+00 0.0000000000000000e+00  0.0000000000000000e+00 0.0000000000000000e+00 0.0000000000000000e+00  0.0000000000000000e+00 0.0000000000000000e+00 0.0000000000000000e+00  0.0000000000000000e+00 0.0000000000000000e+00 0.0000000000000000e+00  0.0000000000000000e+00 0.0000000000000000e+00 0.0000000000000000e+00  0.0000000000000000e+00 0.0000000000000000e+00 0.0000000000000000e+00  0.0000000000000000e+00 0.0000000000000000e+00 0.0000000000000000e+00  0.0000000000000000e+00 0.0000000000000000e+00 0.0000000000000000e+00  0.0000000000000000e+00 0.0000000000000000e+00 0.0000000000000000e+00  0.0000000000000000e+00 0.0000000000000000e+00 0.0000000000000000e+00  0.0000000000000000e+00 0.0000000000000000e+00 0.0000000000000000e+00  0.0000000000000000e+00 0.0000000000000000e+00 0.0000000000000000e+00  0.0000000000000000e+00 0.0000000000000000e+00 0.0000000000000000e+00  0.0000000000000000e+00 0.0000000000000000e+00 0.0000000000000000e+00  0.0000000000000000e+00 0.0000000000000000e+00 0.0000000000000000e+00  0.0000000000000000e+00 0.0000000000000000e+00 0.0000000000000000e+00  0.0000000000000000e+00 0.0000000000000000e+00 0.0000000000000000e+00  0.0000000000000000e+00 0.0000000000000000e+00 0.0000000000000000e+00  0.0000000000000000e+00 0.0000000000000000e+00 0.0000000000000000e+00  0.0000000000000000e+00 0.0000000000000000e+00 0.0000000000000000e+00  0.0000000000000000e+00 0.0000000000000000e+00 0.0000000000000000e+00  0.0000000000000000e+00 0.0000000000000000e+00 0.0000000000000000e+00  0.0000000000000000e+00 0.0000000000000000e+00 0.0000000000000000e+00  0.0000000000000000e+00 0.0000000000000000e+00 0.0000000000000000e+00  0.0000000000000000e+00 0.0000000000000000e+00 0.0000000000000000e+00  0.0000000000000000e+00 0.0000000000000000e+00 0.0000000000000000e+00  0.0000000000000000e+00 0.0000000000000000e+00 0.0000000000000000e+00  0.0000000000000000e+00 0.0000000000000000e+00 0.0000000000000000e+00  0.0000000000000000e+00 0.0000000000000000e+00 0.0000000000000000e+00  0.0000000000000000e+00 0.0000000000000000e+00 0.0000000000000000e+00  0.0000000000000000e+00 0.0000000000000000e+00 0.0000000000000000e+00  0.0000000000000000e+00 0.0000000000000000e+00 0.0000000000000000e+00  0.0000000000000000e+00 0.0000000000000000e+00 0.0000000000000000e+00  0.0000000000000000e+00 0.0000000000000000e+00 0.0000000000000000e+00  0.0000000000000000e+00 0.0000000000000000e+00 0.0000000000000000e+00  0.0000000000000000e+00 0.0000000000000000e+00 0.0000000000000000e+00  0.0000000000000000e+00 0.0000000000000000e+00 0.0000000000000000e+00  0.0000000000000000e+00 0.0000000000000000e+00 0.0000000000000000e+00  0.0000000000000000e+00 0.0000000000000000e+00 0.0000000000000000e+00  0.0000000000000000e+00 0.0000000000000000e+00 0.0000000000000000e+00  0.0000000000000000e+00 0.0000000000000000e+00 0.0000000000000000e+00  0.0000000000000000e+00 0.0000000000000000e+00 0.0000000000000000e+00  0.0000000000000000e+00 0.0000000000000000e+00 0.0000000000000000e+00  0.0000000000000000e+00 0.0000000000000000e+00 0.0000000000000000e+00  0.0000000000000000e+00 0.0000000000000000e+00 0.0000000000000000e+00  0.0000000000000000e+00 0.0000000000000000e+00 0.0000000000000000e+00  0.0000000000000000e+00 0.0000000000000000e+00 0.0000000000000000e+00  0.0000000000000000e+00 0.0000000000000000e+00 0.0000000000000000e+00  0.0000000000000000e+00 0.0000000000000000e+00 0.0000000000000000e+00  0.0000000000000000e+00 0.0000000000000000e+00 0.0000000000000000e+00  0.0000000000000000e+00 0.0000000000000000e+00 0.0000000000000000e+00  0.0000000000000000e+00 0.0000000000000000e+00 0.0000000000000000e+00  0.0000000000000000e+00 0.0000000000000000e+00 0.0000000000000000e+00  0.0000000000000000e+00 0.0000000000000000e+00 0.0000000000000000e+00  0.0000000000000000e+00 0.0000000000000000e+00 0.0000000000000000e+00  0.0000000000000000e+00 0.0000000000000000e+00 0.0000000000000000e+00  0.0000000000000000e+00 0.0000000000000000e+00 0.0000000000000000e+00  0.0000000000000000e+00 0.0000000000000000e+00 0.0000000000000000e+00  0.0000000000000000e+00 0.0000000000000000e+00 0.0000000000000000e+00  0.0000000000000000e+00 0.0000000000000000e+00 0.0000000000000000e+00  0.0000000000000000e+00 0.0000000000000000e+00 0.0000000000000000e+00  0.0000000000000000e+00 0.0000000000000000e+00 0.0000000000000000e+00  0.0000000000000000e+00 0.0000000000000000e+00 0.0000000000000000e+00  0.0000000000000000e+00 0.0000000000000000e+00 0.0000000000000000e+00  -5.5768494965066671e+00 0.0000000000000000e+00 0.0000000000000000e+00  -5.4994067373051134e+00 8.8620281490453968e-03 0.0000000000000000e+00  -5.4909522201147993e+00 -6.3907794075272343e-03 0.0000000000000000e+00  -5.4882336692138702e+00 -5.8305662512869658e-03 0.0000000000000000e+00  -5.4870415409301794e+00 -5.5549270542737490e-03 0.0000000000000000e+00  -5.4865195776290472e+00 -5.3586136820868878e-03 0.0000000000000000e+00  -5.4862689197640613e+00 -5.2716329034057105e-03 0.0000000000000000e+00  -5.4861418619083748e+00 -5.2309639510429050e-03 0.0000000000000000e+00  -5.4860747290926763e+00 -5.2111263750259850e-03 0.0000000000000000e+00  -5.4860385854861562e+00 -5.2009758188741421e-03 0.0000000000000000e+00  -5.4860190466916512e+00 -5.1955993485931894e-03 0.0000000000000000e+00  -5.4860085399587462e+00 -5.1927195713186141e-03 0.0000000000000000e+00  -5.4860029434419202e+00 -5.1911717644684968e-03 0.0000000000000000e+00  -5.4859999902920773e+00 -5.1903501415956786e-03 0.0000000000000000e+00  -5.4859984442675440e+00 -5.1899153394670628e-03 0.0000000000000000e+00  -5.4859976396353600e+00 -5.1896883547924546e-03 0.0000000000000000e+00  -5.4859972227103846e+00 -5.1895695522917217e-03 0.0000000000000000e+00  -5.4859970071406003e+00 -5.1895082245632896e-03 0.0000000000000000e+00  -5.4859968957919110e+00 -5.1894762750333114e-03 0.0000000000000000e+00  -5.4859968382177975e+00 -5.1894598905609900e-03 0.0000000000000000e+00  -5.4859968084028568e+00 -5.1894513518007130e-03 0.0000000000000000e+00  -5.4859967929178737e+00 -5.1894469760111984e-03 0.0000000000000000e+00  -5.4859967848529783e+00 -5.1894446867391947e-03 0.0000000000000000e+00  -5.4859967806376737e+00 -5.1894435077453451e-03 0.0000000000000000e+00  -5.4859967784307786e+00 -5.1894428882255450e-03 0.0000000000000000e+00  -5.4859967772639733e+00 -5.1894425659680552e-03 0.0000000000000000e+00  -5.4859967766507403e+00 -5.1894423965771338e-03 0.0000000000000000e+00  -5.4859967763264157e+00 -5.1894423075324802e-03 0.0000000000000000e+00  -5.4859967761516009e+00 -5.1894422585122019e-03 0.0000000000000000e+00  -5.4859967760600314e+00 -5.1894422367724981e-03 0.0000000000000000e+00  -5.4859967760073785e+00 -5.1894422202850695e-03 0.0000000000000000e+00  -5.4859967759849351e+00 -5.1894422181099518e-03 0.0000000000000000e+00  -5.4859967759603245e+00 -5.1894422032686821e-03 0.0000000000000000e+00  -5.4859967759719446e+00 -5.1894422210490522e-03 0.0000000000000000e+00  -5.4859967759352539e+00 -5.1894421879569623e-03 0.0000000000000000e+00  -5.4859967759882053e+00 -5.1894422395943286e-03 0.0000000000000000e+00  -5.4859967758971404e+00 -5.1894421541545076e-03 0.0000000000000000e+00  -5.4859967760407002e+00 -5.1894422908543144e-03 0.0000000000000000e+00  -5.4859967758083874e+00 -5.1894420742994119e-03 0.0000000000000000e+00  -5.4859967761707802e+00 -5.1894424124128737e-03 0.0000000000000000e+00  -5.4859967756097383e+00 -5.1894418890722866e-03 0.0000000000000000e+00  -5.4859967764707873e+00 -5.1894426874530587e-03 0.0000000000000000e+00  -5.4859967751678251e+00 -5.1894414892590408e-03 0.0000000000000000e+00  -5.4859967770984284e+00 -5.1894432639813682e-03 0.0000000000000000e+00  -5.4859967742622677e+00 -5.1894406845546743e-03 0.0000000000000000e+00  -5.4859967783139325e+00 -5.1894443751823302e-03 0.0000000000000000e+00  -5.4859967725519505e+00 -5.1894392191427418e-03 0.0000000000000000e+00  -5.4859967803838936e+00 -5.1894463051368475e-03 0.0000000000000000e+00  -5.4859967696061416e+00 -5.1894369118428724e-03 0.0000000000000000e+00  -5.4859967831745458e+00 -5.1894491602336576e-03 0.0000000000000000e+00  -5.4859967650388173e+00 -5.1894342342494043e-03 0.0000000000000000e+00  -5.4859967844914976e+00 -5.1894521786051426e-03 0.0000000000000000e+00  -5.4859967584671869e+00 -5.1894341292339791e-03 0.0000000000000000e+00  -5.4859967742897711e+00 -5.1894521315679473e-03 0.0000000000000000e+00  -5.4859967466269799e+00 -5.1894472531394458e-03 0.0000000000000000e+00  -5.4859967144139343e+00 -5.1894411026237285e-03 0.0000000000000000e+00  -5.4859967028782046e+00 -5.1895070285220696e-03 0.0000000000000000e+00  -5.4859964662709579e+00 -5.1894081271131737e-03 0.0000000000000000e+00  -5.4859964776294241e+00 -5.1897117138153996e-03 0.0000000000000000e+00  -5.4859955462299252e+00 -5.1893503858670862e-03 0.0000000000000000e+00  -5.4859954517788614e+00 -5.1903116020123935e-03 0.0000000000000000e+00  -5.4859923398778605e+00 -5.1892695713868118e-03 0.0000000000000000e+00  -5.4859909272051501e+00 -5.1921026530165719e-03 0.0000000000000000e+00  -5.4859781581254703e+00 -5.1906757146731311e-03 0.0000000000000000e+00  -5.4859578923426051e+00 -5.2038919365851935e-03 0.0000000000000000e+00  -5.4858709786450310e+00 -5.2196649279389537e-03 0.0000000000000000e+00  -5.4856728509219899e+00 -5.3008807189678037e-03 0.0000000000000000e+00  -5.4851319278747050e+00 -5.4298393569580279e-03 0.0000000000000000e+00  -5.4840823077851910e+00 -5.7327383745842467e-03 0.0000000000000000e+00  -5.4820981296873246e+00 -6.0457520842177826e-03 0.0000000000000000e+00  -5.4793575705149555e+00 -6.4401117625173983e-03 0.0000000000000000e+00  -5.4759959039443720e+00 -6.3315486570363734e-03 0.0000000000000000e+00  -5.4736046736106516e+00 -6.0706633623962575e-03 0.0000000000000000e+00  -5.4721990373737563e+00 -5.0238615853801412e-03 0.0000000000000000e+00  -5.4737915706442006e+00 -4.2523198973867466e-03 0.0000000000000000e+00  -5.4776321571619313e+00 -2.0853351662865052e-03 0.0000000000000000e+00  -5.4867944715980972e+00 -2.1357802623641884e-03 0.0000000000000000e+00  -5.4959569652286815e+00 -3.2012981712238884e-03 0.0000000000000000e+00  -5.5035955304522330e+00 -1.4649547554067959e-02 0.0000000000000000e+00  -5.5156307338227233e+00 -5.7785769100366313e-02 0.0000000000000000e+00  -5.5279935960949000e+00 0.0000000000000000e+00 0.0000000000000000e+00  -1.4553254016854675e+01 0.0000000000000000e+00 0.0000000000000000e+00  -1.4555891979353190e+01 -8.3053753944166229e-03 0.0000000000000000e+00  -1.4554732459080023e+01 -2.2370674246726739e-03 0.0000000000000000e+00  -1.4554049587052447e+01 -3.1410278875100052e-04 0.0000000000000000e+00  -1.4553904631287541e+01 5.7973828584828710e-04 0.0000000000000000e+00  -1.4553848152338773e+01 9.4002229034139762e-04 0.0000000000000000e+00  -1.4553824790662695e+01 1.0961989681655866e-03 0.0000000000000000e+00  -1.4553813103841961e+01 1.1682734614683586e-03 0.0000000000000000e+00  -1.4553806866728518e+01 1.2041076103364687e-03 0.0000000000000000e+00  -1.4553803425913214e+01 1.2226729551892885e-03 0.0000000000000000e+00  -1.4553801516998222e+01 1.2326341912522380e-03 0.0000000000000000e+00  -1.4553800460198017e+01 1.2380223089694252e-03 0.0000000000000000e+00  -1.4553799895159022e+01 1.2409459265365136e-03 0.0000000000000000e+00  -1.4553799598233624e+01 1.2424914124522918e-03 0.0000000000000000e+00  -1.4553799444923252e+01 1.2433083457524016e-03 0.0000000000000000e+00  -1.4553799364375955e+01 1.2437306681881860e-03 0.0000000000000000e+00  -1.4553799322641821e+01 1.2439530212007906e-03 0.0000000000000000e+00  -1.4553799300564519e+01 1.2440667209657620e-03 0.0000000000000000e+00  -1.4553799289250756e+01 1.2441267950668480e-03 0.0000000000000000e+00  -1.4553799283269656e+01 1.2441571102323053e-03 0.0000000000000000e+00  -1.4553799280240048e+01 1.2441732588970896e-03 0.0000000000000000e+00  -1.4553799278616591e+01 1.2441812993421242e-03 0.0000000000000000e+00  -1.4553799277802083e+01 1.2441856678731861e-03 0.0000000000000000e+00  -1.4553799277352553e+01 1.2441878108613190e-03 0.0000000000000000e+00  -1.4553799277129094e+01 1.2441890103802467e-03 0.0000000000000000e+00  -1.4553799277000863e+01 1.2441895846478728e-03 0.0000000000000000e+00  -1.4553799276941113e+01 1.2441899224954289e-03 0.0000000000000000e+00  -1.4553799276902353e+01 1.2441900790941466e-03 0.0000000000000000e+00  -1.4553799276890086e+01 1.2441901734758865e-03 0.0000000000000000e+00  -1.4553799276870430e+01 1.2441902178891844e-03 0.0000000000000000e+00  -1.4553799276877001e+01 1.2441902401532548e-03 0.0000000000000000e+00  -1.4553799276856655e+01 1.2441902630796321e-03 0.0000000000000000e+00  -1.4553799276884131e+01 1.2441902522745474e-03 0.0000000000000000e+00  -1.4553799276833949e+01 1.2441902879376100e-03 0.0000000000000000e+00  -1.4553799276913976e+01 1.2441902355649153e-03 0.0000000000000000e+00  -1.4553799276785156e+01 1.2441903268674227e-03 0.0000000000000000e+00  -1.4553799276990524e+01 1.2441901867651479e-03 0.0000000000000000e+00  -1.4553799276662660e+01 1.2441904044919998e-03 0.0000000000000000e+00  -1.4553799277169585e+01 1.2441900625638216e-03 0.0000000000000000e+00  -1.4553799276396665e+01 1.2441905937495537e-03 0.0000000000000000e+00  -1.4553799277557308e+01 1.2441897825733986e-03 0.0000000000000000e+00  -1.4553799275840989e+01 1.2441910048281817e-03 0.0000000000000000e+00  -1.4553799278326954e+01 1.2441891910621086e-03 0.0000000000000000e+00  -1.4553799274779971e+01 1.2441918253865176e-03 0.0000000000000000e+00  -1.4553799279693317e+01 1.2441880533257633e-03 0.0000000000000000e+00  -1.4553799272979843e+01 1.2441932987259778e-03 0.0000000000000000e+00  -1.4553799281717094e+01 1.2441860847357104e-03 0.0000000000000000e+00  -1.4553799270433386e+01 1.2441955325315104e-03 0.0000000000000000e+00  -1.4553799283586789e+01 1.2441831953305593e-03 0.0000000000000000e+00  -1.4553799267991163e+01 1.2441977489800239e-03 0.0000000000000000e+00  -1.4553799281385890e+01 1.2441800969724788e-03 0.0000000000000000e+00  -1.4553799268523358e+01 1.2441959108693500e-03 0.0000000000000000e+00  -1.4553799261217328e+01 1.2441793533913238e-03 0.0000000000000000e+00  -1.4553799277071803e+01 1.2441754134830409e-03 0.0000000000000000e+00  -1.4553799178173614e+01 1.2441849590302302e-03 0.0000000000000000e+00  -1.4553799288862463e+01 1.2440882254432328e-03 0.0000000000000000e+00  -1.4553798888772031e+01 1.2441878776225854e-03 0.0000000000000000e+00  -1.4553799212640424e+01 1.2437789413927607e-03 0.0000000000000000e+00  -1.4553797912497963e+01 1.2440873745719926e-03 0.0000000000000000e+00  -1.4553798493362546e+01 1.2427447987379901e-03 0.0000000000000000e+00  -1.4553794364818575e+01 1.2433357231706407e-03 0.0000000000000000e+00  -1.4553793739821341e+01 1.2389633541234032e-03 0.0000000000000000e+00  -1.4553777663523158e+01 1.2376219870072450e-03 0.0000000000000000e+00  -1.4553759207981194e+01 1.2171068442905690e-03 0.0000000000000000e+00  -1.4553675484400239e+01 1.1845746144381812e-03 0.0000000000000000e+00  -1.4553524438718025e+01 1.0601293861872202e-03 0.0000000000000000e+00  -1.4553108262850612e+01 8.2646575279465481e-04 0.0000000000000000e+00  -1.4552381851422380e+01 2.8610102306513111e-04 0.0000000000000000e+00  -1.4550939158474094e+01 -4.8679263398243415e-04 0.0000000000000000e+00  -1.4548984799129878e+01 -1.5708562846795714e-03 0.0000000000000000e+00  -1.4546447527695397e+01 -2.1056032281111755e-03 0.0000000000000000e+00  -1.4544960896382332e+01 -1.8400772726607398e-03 0.0000000000000000e+00  -1.4544015671195412e+01 -2.3470971765735592e-04 0.0000000000000000e+00  -1.4544353131668807e+01 1.0141891659674498e-03 0.0000000000000000e+00  -1.4543587789582743e+01 4.1115629552209805e-03 0.0000000000000000e+00  -1.4545487029220194e+01 7.2267064709941823e-03 0.0000000000000000e+00  -1.4544047538185939e+01 1.1064267296148522e-02 0.0000000000000000e+00  -1.4550406342611399e+01 1.3493136927696608e-02 0.0000000000000000e+00  -1.4550455957039874e+01 6.5857770124067381e-03 0.0000000000000000e+00  -1.4582310337687717e+01 2.7906608381399509e-02 0.0000000000000000e+00  -1.4542812881562362e+01 0.0000000000000000e+00 0.0000000000000000e+00  -1.6951957469725400e+01 0.0000000000000000e+00 0.0000000000000000e+00  -1.6966893228605269e+01 -4.0078892010778945e-03 0.0000000000000000e+00  -1.6973512194188043e+01 -1.6812735246836772e-03 0.0000000000000000e+00  -1.6975909213552125e+01 -1.3724941926675124e-04 0.0000000000000000e+00  -1.6976840884267894e+01 5.0707071469196596e-04 0.0000000000000000e+00  -1.6977239347512672e+01 7.7311820188669816e-04 0.0000000000000000e+00  -1.6977425093176340e+01 8.8729019634148105e-04 0.0000000000000000e+00  -1.6977518262463676e+01 9.3941731803304316e-04 0.0000000000000000e+00  -1.6977567222881078e+01 9.6506608960082838e-04 0.0000000000000000e+00  -1.6977593520267778e+01 9.7822575508573948e-04 0.0000000000000000e+00  -1.6977607680329065e+01 9.8529887505633936e-04 0.0000000000000000e+00  -1.6977615273162840e+01 9.8913005822316756e-04 0.0000000000000000e+00  -1.6977619318607630e+01 9.9121133981968095e-04 0.0000000000000000e+00  -1.6977621457446098e+01 9.9230373962376993e-04 0.0000000000000000e+00  -1.6977622577813882e+01 9.9288242393727206e-04 0.0000000000000000e+00  -1.6977623160261622e+01 9.9318053766905357e-04 0.0000000000000000e+00  -1.6977623461563301e+01 9.9333900692504169e-04 0.0000000000000000e+00  -1.6977623617086270e+01 9.9341959423097860e-04 0.0000000000000000e+00  -1.6977623697406219e+01 9.9346272231009419e-04 0.0000000000000000e+00  -1.6977623738926631e+01 9.9348420543975938e-04 0.0000000000000000e+00  -1.6977623760473346e+01 9.9349585035361874e-04 0.0000000000000000e+00  -1.6977623771652915e+01 9.9350152075212300e-04 0.0000000000000000e+00  -1.6977623777500309e+01 9.9350468726464242e-04 0.0000000000000000e+00  -1.6977623780542565e+01 9.9350618149535684e-04 0.0000000000000000e+00  -1.6977623782149866e+01 9.9350706176644333e-04 0.0000000000000000e+00  -1.6977623782990626e+01 9.9350745768240394e-04 0.0000000000000000e+00  -1.6977623783435774e+01 9.9350770737997038e-04 0.0000000000000000e+00  -1.6977623783675988e+01 9.9350781080333964e-04 0.0000000000000000e+00  -1.6977623783796059e+01 9.9350788408869139e-04 0.0000000000000000e+00  -1.6977623783873415e+01 9.9350791060311898e-04 0.0000000000000000e+00  -1.6977623783891698e+01 9.9350793541011072e-04 0.0000000000000000e+00  -1.6977623783938043e+01 9.9350793559759530e-04 0.0000000000000000e+00  -1.6977623783903415e+01 9.9350795523297348e-04 0.0000000000000000e+00  -1.6977623783983411e+01 9.9350793499567206e-04 0.0000000000000000e+00  -1.6977623783866775e+01 9.9350797126581281e-04 0.0000000000000000e+00  -1.6977623784060395e+01 9.9350791609544042e-04 0.0000000000000000e+00  -1.6977623783760489e+01 9.9350800881283646e-04 0.0000000000000000e+00  -1