<?xml version="1.0"?>
<VTKFile type="UnstructuredGrid"  version="0.1"  >
<UnstructuredGrid>
<Piece  NumberOfPoints="1369" NumberOfCells="2560">
<Points>
<DataArray  type="Float64"  NumberOfComponents="3"  format="ascii">0 0 0  0.75 0 0  1.5 0 0  2.25 0 0  3 0 0  3.75 0 0  4.5 0 0  5.25 0 0  6 0 0  6.75 0 0  7.5 0 0  8.25 0 0  9 0 0  9.75 0 0  10.5 0 0  11.25 0 0  12 0 0  12.75 0 0  13.5 0 0  14.25 0 0  15 0 0  15.75 0 0  16.5 0 0  17.25 0 0  18 0 0  18.75 0 0  19.5 0 0  20.25 0 0  21 0 0  21.75 0 0  22.5 0 0  23.25 0 0  24 0 0  24.75 0 0  25.5 0 0  26.25 0 0  27 0 0  27.75 0 0  28.5 0 0  29.25 0 0  30 0 0  30.75 0 0  31.5 0 0  32.25 0 0  33 0 0  33.75 0 0  34.5 0 0  35.25 0 0  36 0 0  36.75 0 0  37.5 0 0  38.25 0 0  39 0 0  39.75 0 0  40.5 0 0  41.25 0 0  42 0 0  42.75 0 0  43.5 0 0  44.25 0 0  45 0 0  45.75 0 0  46.5 0 0  47.25 0 0  48 0 0  48.75 0 0  49.5 0 0  50.25 0 0  51 0 0  51.75 0 0  52.5 0 0  53.25 0 0  54 0 0  54.75 0 0  55.5 0 0  56.25 0 0  57 0 0  57.75 0 0  58.5 0 0  59.25 0 0  60 0 0  0 0.5 0  0.75 0.5 0  1.5 0.5 0  2.25 0.5 0  3 0.5 0  3.75 0.5 0  4.5 0.5 0  5.25 0.5 0  6 0.5 0  6.75 0.5 0  7.5 0.5 0  8.25 0.5 0  9 0.5 0  9.75 0.5 0  10.5 0.5 0  11.25 0.5 0  12 0.5 0  12.75 0.5 0  13.5 0.5 0  14.25 0.5 0  15 0.5 0  15.75 0.5 0  16.5 0.5 0  17.25 0.5 0  18 0.5 0  18.75 0.5 0  19.5 0.5 0  20.25 0.5 0  21 0.5 0  21.75 0.5 0  22.5 0.5 0  23.25 0.5 0  24 0.5 0  24.75 0.5 0  25.5 0.5 0  26.25 0.5 0  27 0.5 0  27.75 0.5 0  28.5 0.5 0  29.25 0.5 0  30 0.5 0  30.75 0.5 0  31.5 0.5 0  32.25 0.5 0  33 0.5 0  33.75 0.5 0  34.5 0.5 0  35.25 0.5 0  36 0.5 0  36.75 0.5 0  37.5 0.5 0  38.25 0.5 0  39 0.5 0  39.75 0.5 0  40.5 0.5 0  41.25 0.5 0  42 0.5 0  42.75 0.5 0  43.5 0.5 0  44.25 0.5 0  45 0.5 0  45.75 0.5 0  46.5 0.5 0  47.25 0.5 0  48 0.5 0  48.75 0.5 0  49.5 0.5 0  50.25 0.5 0  51 0.5 0  51.75 0.5 0  52.5 0.5 0  53.25 0.5 0  54 0.5 0  54.75 0.5 0  55.5 0.5 0  56.25 0.5 0  57 0.5 0  57.75 0.5 0  58.5 0.5 0  59.25 0.5 0  60 0.5 0  0 1 0  0.75 1 0  1.5 1 0  2.25 1 0  3 1 0  3.75 1 0  4.5 1 0  5.25 1 0  6 1 0  6.75 1 0  7.5 1 0  8.25 1 0  9 1 0  9.75 1 0  10.5 1 0  11.25 1 0  12 1 0  12.75 1 0  13.5 1 0  14.25 1 0  15 1 0  15.75 1 0  16.5 1 0  17.25 1 0  18 1 0  18.75 1 0  19.5 1 0  20.25 1 0  21 1 0  21.75 1 0  22.5 1 0  23.25 1 0  24 1 0  24.75 1 0  25.5 1 0  26.25 1 0  27 1 0  27.75 1 0  28.5 1 0  29.25 1 0  30 1 0  30.75 1 0  31.5 1 0  32.25 1 0  33 1 0  33.75 1 0  34.5 1 0  35.25 1 0  36 1 0  36.75 1 0  37.5 1 0  38.25 1 0  39 1 0  39.75 1 0  40.5 1 0  41.25 1 0  42 1 0  42.75 1 0  43.5 1 0  44.25 1 0  45 1 0  45.75 1 0  46.5 1 0  47.25 1 0  48 1 0  48.75 1 0  49.5 1 0  50.25 1 0  51 1 0  51.75 1 0  52.5 1 0  53.25 1 0  54 1 0  54.75 1 0  55.5 1 0  56.25 1 0  57 1 0  57.75 1 0  58.5 1 0  59.25 1 0  60 1 0  0 1.5 0  0.75 1.5 0  1.5 1.5 0  2.25 1.5 0  3 1.5 0  3.75 1.5 0  4.5 1.5 0  5.25 1.5 0  6 1.5 0  6.75 1.5 0  7.5 1.5 0  8.25 1.5 0  9 1.5 0  9.75 1.5 0  10.5 1.5 0  11.25 1.5 0  12 1.5 0  12.75 1.5 0  13.5 1.5 0  14.25 1.5 0  15 1.5 0  15.75 1.5 0  16.5 1.5 0  17.25 1.5 0  18 1.5 0  18.75 1.5 0  19.5 1.5 0  20.25 1.5 0  21 1.5 0  21.75 1.5 0  22.5 1.5 0  23.25 1.5 0  24 1.5 0  24.75 1.5 0  25.5 1.5 0  26.25 1.5 0  27 1.5 0  27.75 1.5 0  28.5 1.5 0  29.25 1.5 0  30 1.5 0  30.75 1.5 0  31.5 1.5 0  32.25 1.5 0  33 1.5 0  33.75 1.5 0  34.5 1.5 0  35.25 1.5 0  36 1.5 0  36.75 1.5 0  37.5 1.5 0  38.25 1.5 0  39 1.5 0  39.75 1.5 0  40.5 1.5 0  41.25 1.5 0  42 1.5 0  42.75 1.5 0  43.5 1.5 0  44.25 1.5 0  45 1.5 0  45.75 1.5 0  46.5 1.5 0  47.25 1.5 0  48 1.5 0  48.75 1.5 0  49.5 1.5 0  50.25 1.5 0  51 1.5 0  51.75 1.5 0  52.5 1.5 0  53.25 1.5 0  54 1.5 0  54.75 1.5 0  55.5 1.5 0  56.25 1.5 0  57 1.5 0  57.75 1.5 0  58.5 1.5 0  59.25 1.5 0  60 1.5 0  0 2 0  0.75 2 0  1.5 2 0  2.25 2 0  3 2 0  3.75 2 0  4.5 2 0  5.25 2 0  6 2 0  6.75 2 0  7.5 2 0  8.25 2 0  9 2 0  9.75 2 0  10.5 2 0  11.25 2 0  12 2 0  12.75 2 0  13.5 2 0  14.25 2 0  15 2 0  15.75 2 0  16.5 2 0  17.25 2 0  18 2 0  18.75 2 0  19.5 2 0  20.25 2 0  21 2 0  21.75 2 0  22.5 2 0  23.25 2 0  24 2 0  24.75 2 0  25.5 2 0  26.25 2 0  27 2 0  27.75 2 0  28.5 2 0  29.25 2 0  30 2 0  30.75 2 0  31.5 2 0  32.25 2 0  33 2 0  33.75 2 0  34.5 2 0  35.25 2 0  36 2 0  36.75 2 0  37.5 2 0  38.25 2 0  39 2 0  39.75 2 0  40.5 2 0  41.25 2 0  42 2 0  42.75 2 0  43.5 2 0  44.25 2 0  45 2 0  45.75 2 0  46.5 2 0  47.25 2 0  48 2 0  48.75 2 0  49.5 2 0  50.25 2 0  51 2 0  51.75 2 0  52.5 2 0  53.25 2 0  54 2 0  54.75 2 0  55.5 2 0  56.25 2 0  57 2 0  57.75 2 0  58.5 2 0  59.25 2 0  60 2 0  0 2.5 0  0.75 2.5 0  1.5 2.5 0  2.25 2.5 0  3 2.5 0  3.75 2.5 0  4.5 2.5 0  5.25 2.5 0  6 2.5 0  6.75 2.5 0  7.5 2.5 0  8.25 2.5 0  9 2.5 0  9.75 2.5 0  10.5 2.5 0  11.25 2.5 0  12 2.5 0  12.75 2.5 0  13.5 2.5 0  14.25 2.5 0  15 2.5 0  15.75 2.5 0  16.5 2.5 0  17.25 2.5 0  18 2.5 0  18.75 2.5 0  19.5 2.5 0  20.25 2.5 0  21 2.5 0  21.75 2.5 0  22.5 2.5 0  23.25 2.5 0  24 2.5 0  24.75 2.5 0  25.5 2.5 0  26.25 2.5 0  27 2.5 0  27.75 2.5 0  28.5 2.5 0  29.25 2.5 0  30 2.5 0  30.75 2.5 0  31.5 2.5 0  32.25 2.5 0  33 2.5 0  33.75 2.5 0  34.5 2.5 0  35.25 2.5 0  36 2.5 0  36.75 2.5 0  37.5 2.5 0  38.25 2.5 0  39 2.5 0  39.75 2.5 0  40.5 2.5 0  41.25 2.5 0  42 2.5 0  42.75 2.5 0  43.5 2.5 0  44.25 2.5 0  45 2.5 0  45.75 2.5 0  46.5 2.5 0  47.25 2.5 0  48 2.5 0  48.75 2.5 0  49.5 2.5 0  50.25 2.5 0  51 2.5 0  51.75 2.5 0  52.5 2.5 0  53.25 2.5 0  54 2.5 0  54.75 2.5 0  55.5 2.5 0  56.25 2.5 0  57 2.5 0  57.75 2.5 0  58.5 2.5 0  59.25 2.5 0  60 2.5 0  0 3 0  0.75 3 0  1.5 3 0  2.25 3 0  3 3 0  3.75 3 0  4.5 3 0  5.25 3 0  6 3 0  6.75 3 0  7.5 3 0  8.25 3 0  9 3 0  9.75 3 0  10.5 3 0  11.25 3 0  12 3 0  12.75 3 0  13.5 3 0  14.25 3 0  15 3 0  15.75 3 0  16.5 3 0  17.25 3 0  18 3 0  18.75 3 0  19.5 3 0  20.25 3 0  21 3 0  21.75 3 0  22.5 3 0  23.25 3 0  24 3 0  24.75 3 0  25.5 3 0  26.25 3 0  27 3 0  27.75 3 0  28.5 3 0  29.25 3 0  30 3 0  30.75 3 0  31.5 3 0  32.25 3 0  33 3 0  33.75 3 0  34.5 3 0  35.25 3 0  36 3 0  36.75 3 0  37.5 3 0  38.25 3 0  39 3 0  39.75 3 0  40.5 3 0  41.25 3 0  42 3 0  42.75 3 0  43.5 3 0  44.25 3 0  45 3 0  45.75 3 0  46.5 3 0  47.25 3 0  48 3 0  48.75 3 0  49.5 3 0  50.25 3 0  51 3 0  51.75 3 0  52.5 3 0  53.25 3 0  54 3 0  54.75 3 0  55.5 3 0  56.25 3 0  57 3 0  57.75 3 0  58.5 3 0  59.25 3 0  60 3 0  0 3.5 0  0.75 3.5 0  1.5 3.5 0  2.25 3.5 0  3 3.5 0  3.75 3.5 0  4.5 3.5 0  5.25 3.5 0  6 3.5 0  6.75 3.5 0  7.5 3.5 0  8.25 3.5 0  9 3.5 0  9.75 3.5 0  10.5 3.5 0  11.25 3.5 0  12 3.5 0  12.75 3.5 0  13.5 3.5 0  14.25 3.5 0  15 3.5 0  15.75 3.5 0  16.5 3.5 0  17.25 3.5 0  18 3.5 0  18.75 3.5 0  19.5 3.5 0  20.25 3.5 0  21 3.5 0  21.75 3.5 0  22.5 3.5 0  23.25 3.5 0  24 3.5 0  24.75 3.5 0  25.5 3.5 0  26.25 3.5 0  27 3.5 0  27.75 3.5 0  28.5 3.5 0  29.25 3.5 0  30 3.5 0  30.75 3.5 0  31.5 3.5 0  32.25 3.5 0  33 3.5 0  33.75 3.5 0  34.5 3.5 0  35.25 3.5 0  36 3.5 0  36.75 3.5 0  37.5 3.5 0  38.25 3.5 0  39 3.5 0  39.75 3.5 0  40.5 3.5 0  41.25 3.5 0  42 3.5 0  42.75 3.5 0  43.5 3.5 0  44.25 3.5 0  45 3.5 0  45.75 3.5 0  46.5 3.5 0  47.25 3.5 0  48 3.5 0  48.75 3.5 0  49.5 3.5 0  50.25 3.5 0  51 3.5 0  51.75 3.5 0  52.5 3.5 0  53.25 3.5 0  54 3.5 0  54.75 3.5 0  55.5 3.5 0  56.25 3.5 0  57 3.5 0  57.75 3.5 0  58.5 3.5 0  59.25 3.5 0  60 3.5 0  0 4 0  0.75 4 0  1.5 4 0  2.25 4 0  3 4 0  3.75 4 0  4.5 4 0  5.25 4 0  6 4 0  6.75 4 0  7.5 4 0  8.25 4 0  9 4 0  9.75 4 0  10.5 4 0  11.25 4 0  12 4 0  12.75 4 0  13.5 4 0  14.25 4 0  15 4 0  15.75 4 0  16.5 4 0  17.25 4 0  18 4 0  18.75 4 0  19.5 4 0  20.25 4 0  21 4 0  21.75 4 0  22.5 4 0  23.25 4 0  24 4 0  24.75 4 0  25.5 4 0  26.25 4 0  27 4 0  27.75 4 0  28.5 4 0  29.25 4 0  30 4 0  30.75 4 0  31.5 4 0  32.25 4 0  33 4 0  33.75 4 0  34.5 4 0  35.25 4 0  36 4 0  36.75 4 0  37.5 4 0  38.25 4 0  39 4 0  39.75 4 0  40.5 4 0  41.25 4 0  42 4 0  42.75 4 0  43.5 4 0  44.25 4 0  45 4 0  45.75 4 0  46.5 4 0  47.25 4 0  48 4 0  48.75 4 0  49.5 4 0  50.25 4 0  51 4 0  51.75 4 0  52.5 4 0  53.25 4 0  54 4 0  54.75 4 0  55.5 4 0  56.25 4 0  57 4 0  57.75 4 0  58.5 4 0  59.25 4 0  60 4 0  0.375 0.25 0  1.125 0.25 0  1.875 0.25 0  2.625 0.25 0  3.375 0.25 0  4.125 0.25 0  4.875 0.25 0  5.625 0.25 0  6.375 0.25 0  7.125 0.25 0  7.875 0.25 0  8.625 0.25 0  9.375 0.25 0  10.125 0.25 0  10.875 0.25 0  11.625 0.25 0  12.375 0.25 0  13.125 0.25 0  13.875 0.25 0  14.625 0.25 0  15.375 0.25 0  16.125 0.25 0  16.875 0.25 0  17.625 0.25 0  18.375 0.25 0  19.125 0.25 0  19.875 0.25 0  20.625 0.25 0  21.375 0.25 0  22.125 0.25 0  22.875 0.25 0  23.625 0.25 0  24.375 0.25 0  25.125 0.25 0  25.875 0.25 0  26.625 0.25 0  27.375 0.25 0  28.125 0.25 0  28.875 0.25 0  29.625 0.25 0  30.375 0.25 0  31.125 0.25 0  31.875 0.25 0  32.625 0.25 0  33.375 0.25 0  34.125 0.25 0  34.875 0.25 0  35.625 0.25 0  36.375 0.25 0  37.125 0.25 0  37.875 0.25 0  38.625 0.25 0  39.375 0.25 0  40.125 0.25 0  40.875 0.25 0  41.625 0.25 0  42.375 0.25 0  43.125 0.25 0  43.875 0.25 0  44.625 0.25 0  45.375 0.25 0  46.125 0.25 0  46.875 0.25 0  47.625 0.25 0  48.375 0.25 0  49.125 0.25 0  49.875 0.25 0  50.625 0.25 0  51.375 0.25 0  52.125 0.25 0  52.875 0.25 0  53.625 0.25 0  54.375 0.25 0  55.125 0.25 0  55.875 0.25 0  56.625 0.25 0  57.375 0.25 0  58.125 0.25 0  58.875 0.25 0  59.625 0.25 0  0.375 0.75 0  1.125 0.75 0  1.875 0.75 0  2.625 0.75 0  3.375 0.75 0  4.125 0.75 0  4.875 0.75 0  5.625 0.75 0  6.375 0.75 0  7.125 0.75 0  7.875 0.75 0  8.625 0.75 0  9.375 0.75 0  10.125 0.75 0  10.875 0.75 0  11.625 0.75 0  12.375 0.75 0  13.125 0.75 0  13.875 0.75 0  14.625 0.75 0  15.375 0.75 0  16.125 0.75 0  16.875 0.75 0  17.625 0.75 0  18.375 0.75 0  19.125 0.75 0  19.875 0.75 0  20.625 0.75 0  21.375 0.75 0  22.125 0.75 0  22.875 0.75 0  23.625 0.75 0  24.375 0.75 0  25.125 0.75 0  25.875 0.75 0  26.625 0.75 0  27.375 0.75 0  28.125 0.75 0  28.875 0.75 0  29.625 0.75 0  30.375 0.75 0  31.125 0.75 0  31.875 0.75 0  32.625 0.75 0  33.375 0.75 0  34.125 0.75 0  34.875 0.75 0  35.625 0.75 0  36.375 0.75 0  37.125 0.75 0  37.875 0.75 0  38.625 0.75 0  39.375 0.75 0  40.125 0.75 0  40
[...]
<PointData  Vectors="f_8-0"> 
<DataArray  type="Float64"  Name="f_8-0"  NumberOfComponents="3" format="ascii">0.0000000000000000e+00 0.0000000000000000e+00 0.0000000000000000e+00  0.0000000000000000e+00 0.0000000000000000e+00 0.0000000000000000e+00  0.0000000000000000e+00 0.0000000000000000e+00 0.0000000000000000e+00  0.0000000000000000e+00 0.0000000000000000e+00 0.0000000000000000e+00  0.0000000000000000e+00 0.0000000000000000e+00 0.0000000000000000e+00  0.0000000000000000e+00 0.0000000000000000e+00 0.0000000000000000e+00  0.0000000000000000e+00 0.0000000000000000e+00 0.0000000000000000e+00  0.0000000000000000e+00 0.0000000000000000e+00 0.0000000000000000e+00  0.0000000000000000e+00 0.0000000000000000e+00 0.0000000000000000e+00  0.0000000000000000e+00 0.0000000000000000e+00 0.0000000000000000e+00  0.0000000000000000e+00 0.0000000000000000e+00 0.0000000000000000e+00  0.0000000000000000e+00 0.0000000000000000e+00 0.0000000000000000e+00  0.0000000000000000e+00 0.0000000000000000e+00 0.0000000000000000e+00  0.0000000000000000e+00 0.0000000000000000e+00 0.0000000000000000e+00  0.0000000000000000e+00 0.0000000000000000e+00 0.0000000000000000e+00  0.0000000000000000e+00 0.0000000000000000e+00 0.0000000000000000e+00  0.0000000000000000e+00 0.0000000000000000e+00 0.0000000000000000e+00  0.0000000000000000e+00 0.0000000000000000e+00 0.0000000000000000e+00  0.0000000000000000e+00 0.0000000000000000e+00 0.0000000000000000e+00  0.0000000000000000e+00 0.0000000000000000e+00 0.0000000000000000e+00  0.0000000000000000e+00 0.0000000000000000e+00 0.0000000000000000e+00  0.0000000000000000e+00 0.0000000000000000e+00 0.0000000000000000e+00  0.0000000000000000e+00 0.0000000000000000e+00 0.0000000000000000e+00  0.0000000000000000e+00 0.0000000000000000e+00 0.0000000000000000e+00  0.0000000000000000e+00 0.0000000000000000e+00 0.0000000000000000e+00  0.0000000000000000e+00 0.0000000000000000e+00 0.0000000000000000e+00  0.0000000000000000e+00 0.0000000000000000e+00 0.0000000000000000e+00  0.0000000000000000e+00 0.0000000000000000e+00 0.0000000000000000e+00  0.0000000000000000e+00 0.0000000000000000e+00 0.0000000000000000e+00  0.0000000000000000e+00 0.0000000000000000e+00 0.0000000000000000e+00  0.0000000000000000e+00 0.0000000000000000e+00 0.0000000000000000e+00  0.0000000000000000e+00 0.0000000000000000e+00 0.0000000000000000e+00  0.0000000000000000e+00 0.0000000000000000e+00 0.0000000000000000e+00  0.0000000000000000e+00 0.0000000000000000e+00 0.0000000000000000e+00  0.0000000000000000e+00 0.0000000000000000e+00 0.0000000000000000e+00  0.0000000000000000e+00 0.0000000000000000e+00 0.0000000000000000e+00  0.0000000000000000e+00 0.0000000000000000e+00 0.0000000000000000e+00  0.0000000000000000e+00 0.0000000000000000e+00 0.0000000000000000e+00  0.0000000000000000e+00 0.0000000000000000e+00 0.0000000000000000e+00  0.0000000000000000e+00 0.0000000000000000e+00 0.0000000000000000e+00  0.0000000000000000e+00 0.0000000000000000e+00 0.0000000000000000e+00  0.0000000000000000e+00 0.0000000000000000e+00 0.0000000000000000e+00  0.0000000000000000e+00 0.0000000000000000e+00 0.0000000000000000e+00  0.0000000000000000e+00 0.0000000000000000e+00 0.0000000000000000e+00  0.0000000000000000e+00 0.0000000000000000e+00 0.0000000000000000e+00  0.0000000000000000e+00 0.0000000000000000e+00 0.0000000000000000e+00  0.0000000000000000e+00 0.0000000000000000e+00 0.0000000000000000e+00  0.0000000000000000e+00 0.0000000000000000e+00 0.0000000000000000e+00  0.0000000000000000e+00 0.0000000000000000e+00 0.0000000000000000e+00  0.0000000000000000e+00 0.0000000000000000e+00 0.0000000000000000e+00  0.0000000000000000e+00 0.0000000000000000e+00 0.0000000000000000e+00  0.0000000000000000e+00 0.0000000000000000e+00 0.0000000000000000e+00  0.0000000000000000e+00 0.0000000000000000e+00 0.0000000000000000e+00  0.0000000000000000e+00 0.0000000000000000e+00 0.0000000000000000e+00  0.0000000000000000e+00 0.0000000000000000e+00 0.0000000000000000e+00  0.0000000000000000e+00 0.0000000000000000e+00 0.0000000000000000e+00  0.0000000000000000e+00 0.0000000000000000e+00 0.0000000000000000e+00  0.0000000000000000e+00 0.0000000000000000e+00 0.0000000000000000e+00  0.0000000000000000e+00 0.0000000000000000e+00 0.0000000000000000e+00  0.0000000000000000e+00 0.0000000000000000e+00 0.0000000000000000e+00  0.0000000000000000e+00 0.0000000000000000e+00 0.0000000000000000e+00  0.0000000000000000e+00 0.0000000000000000e+00 0.0000000000000000e+00  0.0000000000000000e+00 0.0000000000000000e+00 0.0000000000000000e+00  0.0000000000000000e+00 0.0000000000000000e+00 0.0000000000000000e+00  0.0000000000000000e+00 0.0000000000000000e+00 0.0000000000000000e+00  0.0000000000000000e+00 0.0000000000000000e+00 0.0000000000000000e+00  0.0000000000000000e+00 0.0000000000000000e+00 0.0000000000000000e+00  0.0000000000000000e+00 0.0000000000000000e+00 0.0000000000000000e+00  0.0000000000000000e+00 0.0000000000000000e+00 0.0000000000000000e+00  0.0000000000000000e+00 0.0000000000000000e+00 0.0000000000000000e+00  0.0000000000000000e+00 0.0000000000000000e+00 0.0000000000000000e+00  0.0000000000000000e+00 0.0000000000000000e+00 0.0000000000000000e+00  0.0000000000000000e+00 0.0000000000000000e+00 0.0000000000000000e+00  0.0000000000000000e+00 0.0000000000000000e+00 0.0000000000000000e+00  0.0000000000000000e+00 0.0000000000000000e+00 0.0000000000000000e+00  0.0000000000000000e+00 0.0000000000000000e+00 0.0000000000000000e+00  0.0000000000000000e+00 0.0000000000000000e+00 0.0000000000000000e+00  0.0000000000000000e+00 0.0000000000000000e+00 0.0000000000000000e+00  0.0000000000000000e+00 0.0000000000000000e+00 0.0000000000000000e+00  0.0000000000000000e+00 0.0000000000000000e+00 0.0000000000000000e+00  0.0000000000000000e+00 0.0000000000000000e+00 0.0000000000000000e+00  2.4547959932199731e+01 0.0000000000000000e+00 0.0000000000000000e+00  2.4536215068110437e+01 7.0181422638960558e-02 0.0000000000000000e+00  2.4545064163509572e+01 3.4546493292165303e-02 0.0000000000000000e+00  2.4519113384767863e+01 6.2521559782173584e-03 0.0000000000000000e+00  2.4515242746103677e+01 4.6535288533192179e-03 0.0000000000000000e+00  2.4516934897150076e+01 3.6851031640087006e-03 0.0000000000000000e+00  2.4516241593545232e+01 4.4096215206678360e-03 0.0000000000000000e+00  2.4517238820744076e+01 4.3599174309517869e-03 0.0000000000000000e+00  2.4516793090004722e+01 4.4169668743226399e-03 0.0000000000000000e+00  2.4517115204468130e+01 4.4220443960950951e-03 0.0000000000000000e+00  2.4516981205569834e+01 4.4249041658489486e-03 0.0000000000000000e+00  2.4517058446508862e+01 4.4271267086679941e-03 0.0000000000000000e+00  2.4517030720850546e+01 4.4275511497113848e-03 0.0000000000000000e+00  2.4517045677261741e+01 4.4279638784731241e-03 0.0000000000000000e+00  2.4517041205563178e+01 4.4281363719201284e-03 0.0000000000000000e+00  2.4517043759226016e+01 4.4282098741790458e-03 0.0000000000000000e+00  2.4517043179714939e+01 4.4282627403982372e-03 0.0000000000000000e+00  2.4517043593267992e+01 4.4282790267707456e-03 0.0000000000000000e+00  2.4517043539149181e+01 4.4282923597041418e-03 0.0000000000000000e+00  2.4517043606881884e+01 4.4282965758281612e-03 0.0000000000000000e+00  2.4517043606512932e+01 4.4282996870357505e-03 0.0000000000000000e+00  2.4517043618334764e+01 4.4283008006893035e-03 0.0000000000000000e+00  2.4517043619970170e+01 4.4283015156751536e-03 0.0000000000000000e+00  2.4517043622239971e+01 4.4283018044871418e-03 0.0000000000000000e+00  2.4517043622858505e+01 4.4283019703437610e-03 0.0000000000000000e+00  2.4517043623337514e+01 4.4283020452940379e-03 0.0000000000000000e+00  2.4517043623516312e+01 4.4283020843355284e-03 0.0000000000000000e+00  2.4517043623625643e+01 4.4283021054724956e-03 0.0000000000000000e+00  2.4517043623669270e+01 4.4283021137483955e-03 0.0000000000000000e+00  2.4517043623693976e+01 4.4283021207914249e-03 0.0000000000000000e+00  2.4517043623703952e+01 4.4283021212178199e-03 0.0000000000000000e+00  2.4517043623707096e+01 4.4283021201033477e-03 0.0000000000000000e+00  2.4517043623712102e+01 4.4283021214219778e-03 0.0000000000000000e+00  2.4517043623715299e+01 4.4283021212486130e-03 0.0000000000000000e+00  2.4517043623715537e+01 4.4283021238509428e-03 0.0000000000000000e+00  2.4517043623714915e+01 4.4283021216260793e-03 0.0000000000000000e+00  2.4517043623714198e+01 4.4283021234514681e-03 0.0000000000000000e+00  2.4517043623712958e+01 4.4283021217038339e-03 0.0000000000000000e+00  2.4517043623713967e+01 4.4283021236457961e-03 0.0000000000000000e+00  2.4517043623710435e+01 4.4283021208626396e-03 0.0000000000000000e+00  2.4517043623713857e+01 4.4283021214294761e-03 0.0000000000000000e+00  2.4517043623719804e+01 4.4283021199912707e-03 0.0000000000000000e+00  2.4517043623724049e+01 4.4283021227163747e-03 0.0000000000000000e+00  2.4517043623732295e+01 4.4283021155062316e-03 0.0000000000000000e+00  2.4517043623744737e+01 4.4283021161768748e-03 0.0000000000000000e+00  2.4517043623770487e+01 4.4283021005603043e-03 0.0000000000000000e+00  2.4517043623823948e+01 4.4283020869856759e-03 0.0000000000000000e+00  2.4517043623932668e+01 4.4283020364680094e-03 0.0000000000000000e+00  2.4517043624165989e+01 4.4283019683808034e-03 0.0000000000000000e+00  2.4517043624598958e+01 4.4283017877807208e-03 0.0000000000000000e+00  2.4517043625544442e+01 4.4283014689105726e-03 0.0000000000000000e+00  2.4517043627344755e+01 4.4283007856551777e-03 0.0000000000000000e+00  2.4517043631141849e+01 4.4282994484729958e-03 0.0000000000000000e+00  2.4517043638502589e+01 4.4282967792817467e-03 0.0000000000000000e+00  2.4517043653628338e+01 4.4282913840508909e-03 0.0000000000000000e+00  2.4517043683199400e+01 4.4282808473116589e-03 0.0000000000000000e+00  2.4517043742935684e+01 4.4282593612753043e-03 0.0000000000000000e+00  2.4517043860285241e+01 4.4282172151223773e-03 0.0000000000000000e+00  2.4517044095552002e+01 4.4281301434078131e-03 0.0000000000000000e+00  2.4517044562704399e+01 4.4279534471045965e-03 0.0000000000000000e+00  2.4517045513740978e+01 4.4275706455522796e-03 0.0000000000000000e+00  2.4517047490165236e+01 4.4267254041054733e-03 0.0000000000000000e+00  2.4517051808632456e+01 4.4247407731907986e-03 0.0000000000000000e+00  2.4517061691680830e+01 4.4200441389466421e-03 0.0000000000000000e+00  2.4517085178322937e+01 4.4089912973722745e-03 0.0000000000000000e+00  2.4517141035064206e+01 4.3844571869594362e-03 0.0000000000000000e+00  2.4517269315677034e+01 4.3344219721078107e-03 0.0000000000000000e+00  2.4517543683712418e+01 4.2448024478044799e-03 0.0000000000000000e+00  2.4518074070398196e+01 4.1098609583618681e-03 0.0000000000000000e+00  2.4518971398940614e+01 3.9540818020031548e-03 0.0000000000000000e+00  2.4520255388523513e+01 3.8422610676418015e-03 0.0000000000000000e+00  2.4521757051869237e+01 3.8468464824516057e-03 0.0000000000000000e+00  2.4523169366681678e+01 3.9757128816631212e-03 0.0000000000000000e+00  2.4524230118674559e+01 4.2001932949961912e-03 0.0000000000000000e+00  2.4524714044395946e+01 4.5615501180143918e-03 0.0000000000000000e+00  2.4524231028351686e+01 5.1577720901844447e-03 0.0000000000000000e+00  2.4522203039296780e+01 6.0277573736307937e-03 0.0000000000000000e+00  2.4517793806411806e+01 7.1418283047736987e-03 0.0000000000000000e+00  2.4509401276510111e+01 7.9433634612077302e-03 0.0000000000000000e+00  2.4490924005626962e+01 5.4739896705403137e-03 0.0000000000000000e+00  2.4469551850154847e+01 0.0000000000000000e+00 0.0000000000000000e+00  2.4399784365826335e+01 0.0000000000000000e+00 0.0000000000000000e+00  2.4329199708490780e+01 -1.5296987509523585e-02 0.0000000000000000e+00  2.4384113278082033e+01 1.4392268886109501e-02 0.0000000000000000e+00  2.4394461231303286e+01 4.1048341575422153e-03 0.0000000000000000e+00  2.4398531933307705e+01 3.3206572059688831e-05 0.0000000000000000e+00  2.4396872881475407e+01 -1.0664077064706690e-03 0.0000000000000000e+00  2.4397522861810277e+01 -1.9118630225242267e-04 0.0000000000000000e+00  2.4397164555287706e+01 -4.6336988660705610e-04 0.0000000000000000e+00  2.4397450061021527e+01 -1.7822357962953627e-04 0.0000000000000000e+00  2.4397330478199983e+01 -2.6577291628899081e-04 0.0000000000000000e+00  2.4397414319894128e+01 -2.0367224163812602e-04 0.0000000000000000e+00  2.4397383618473985e+01 -2.2045320698279832e-04 0.0000000000000000e+00  2.4397403026692487e+01 -2.0905740906717712e-04 0.0000000000000000e+00  2.4397397063016161e+01 -2.1128593576902652e-04 0.0000000000000000e+00  2.4397400886904876e+01 -2.0934208322395320e-04 0.0000000000000000e+00  2.4397399980344620e+01 -2.0950369657851616e-04 0.0000000000000000e+00  2.4397400667809968e+01 -2.0916764730229508e-04 0.0000000000000000e+00  2.4397400566402631e+01 -2.0914677697469314e-04 0.0000000000000000e+00  2.4397400686540351e+01 -2.0908427463872260e-04 0.0000000000000000e+00  2.4397400682546241e+01 -2.0907100107167792e-04 0.0000000000000000e+00  2.4397400704107589e+01 -2.0905827651694246e-04 0.0000000000000000e+00  2.4397400706251435e+01 -2.0905403045948261e-04 0.0000000000000000e+00  2.4397400710374395e+01 -2.0905124511937914e-04 0.0000000000000000e+00  2.4397400711322863e+01 -2.0905009431583109e-04 0.0000000000000000e+00  2.4397400712179852e+01 -2.0904945053107796e-04 0.0000000000000000e+00  2.4397400712474433e+01 -2.0904916219127603e-04 0.0000000000000000e+00  2.4397400712664474e+01 -2.0904900395437648e-04 0.0000000000000000e+00  2.4397400712742314e+01 -2.0904893602887445e-04 0.0000000000000000e+00  2.4397400712788524e+01 -2.0904889239828464e-04 0.0000000000000000e+00  2.4397400712808942e+01 -2.0904888129679111e-04 0.0000000000000000e+00  2.4397400712815596e+01 -2.0904886509148679e-04 0.0000000000000000e+00  2.4397400712816907e+01 -2.0904886625934730e-04 0.0000000000000000e+00  2.4397400712817170e+01 -2.0904885985839633e-04 0.0000000000000000e+00  2.4397400712822812e+01 -2.0904886100977989e-04 0.0000000000000000e+00  2.4397400712822435e+01 -2.0904886264781715e-04 0.0000000000000000e+00  2.4397400712822563e+01 -2.0904885816470158e-04 0.0000000000000000e+00  2.4397400712820978e+01 -2.0904886132745173e-04 0.0000000000000000e+00  2.4397400712821597e+01 -2.0904886079273609e-04 0.0000000000000000e+00  2.4397400712819582e+01 -2.0904886034826112e-04 0.0000000000000000e+00  2.4397400712820961e+01 -2.0904886296851838e-04 0.0000000000000000e+00  2.4397400712818218e+01 -2.0904886121592660e-04 0.0000000000000000e+00  2.4397400712823035e+01 -2.0904886349578218e-04 0.0000000000000000e+00  2.4397400712825799e+01 -2.0904886711309396e-04 0.0000000000000000e+00  2.4397400712832418e+01 -2.0904887140397489e-04 0.0000000000000000e+00  2.4397400712834809e+01 -2.0904887616709914e-04 0.0000000000000000e+00  2.4397400712847983e+01 -2.0904890457688286e-04 0.0000000000000000e+00  2.4397400712853823e+01 -2.0904892746777037e-04 0.0000000000000000e+00  2.4397400712901312e+01 -2.0904902728093687e-04 0.0000000000000000e+00  2.4397400712959239e+01 -2.0904916636191190e-04 0.0000000000000000e+00  2.4397400713118802e+01 -2.0904951118749386e-04 0.0000000000000000e+00  2.4397400713399673e+01 -2.0905014474180555e-04 0.0000000000000000e+00  2.4397400714003702e+01 -2.0905148737985753e-04 0.0000000000000000e+00  2.4397400715217614e+01 -2.0905410696772531e-04 0.0000000000000000e+00  2.4397400717629644e+01 -2.0905941093749916e-04 0.0000000000000000e+00  2.4397400722604491e+01 -2.0906995852634671e-04 0.0000000000000000e+00  2.4397400732254340e+01 -2.0909087521275911e-04 0.0000000000000000e+00  2.4397400751982836e+01 -2.0913286087528821e-04 0.0000000000000000e+00  2.4397400789830623e+01 -2.0921586953211453e-04 0.0000000000000000e+00  2.4397400865618231e+01 -2.0938436494163622e-04 0.0000000000000000e+00  2.4397401008878049e+01 -2.0972425085236183e-04 0.0000000000000000e+00  2.4397401286384067e+01 -2.1044067084018201e-04 0.0000000000000000e+00  2.4397401801838214e+01 -2.1199175018558802e-04 0.0000000000000000e+00  2.4397402810907909e+01 -2.1556325938481782e-04 0.0000000000000000e+00  2.4397404920886238e+01 -2.2404453333152742e-04 0.0000000000000000e+00  2.4397410085712046e+01 -2.4442633760806738e-04 0.0000000000000000e+00  2.4397423993875286e+01 -2.9154771153359747e-04 0.0000000000000000e+00  2.4397462274140548e+01 -3.9288197748979802e-04 0.0000000000000000e+00  2.4397560874982542e+01 -5.8704937944879093e-04 0.0000000000000000e+00  2.4397787877705838e+01 -9.0402207941778570e-04 0.0000000000000000e+00  2.4398231573851529e+01 -1.3089083067929399e-03 0.0000000000000000e+00  2.4398929112246606e+01 -1.6458622623005696e-03 0.0000000000000000e+00  2.4399764017695340e+01 -1.7035119153535295e-03 0.0000000000000000e+00  2.4400545887979121e+01 -1.4555972644940533e-03 0.0000000000000000e+00  2.4401237393489009e+01 -1.0313703235546082e-03 0.0000000000000000e+00  2.4401859151677279e+01 -3.4973242828311124e-04 0.0000000000000000e+00  2.4402325662424637e+01 7.9953577560765621e-04 0.0000000000000000e+00  2.4402561682123721e+01 2.5572445603490312e-03 0.0000000000000000e+00  2.4402325512789833e+01 5.1765295580162131e-03 0.0000000000000000e+00  2.4401155998747804e+01 8.8605417739945052e-03 0.0000000000000000e+00  2.4399429301181840e+01 1.3111143150518643e-02 0.0000000000000000e+00  2.4399824215088646e+01 0.0000000000000000e+00 0.0000000000000000e+00  2.1359901357034033e+01 0.0000000000000000e+00 0.0000000000000000e+00  2.1354104786400605e+01 7.2991389573887240e-04 0.0000000000000000e+00  2.1354528639290155e+01 -3.9324185950215503e-03 0.0000000000000000e+00  2.1360220579126487e+01 5.4835220494215970e-04 0.0000000000000000e+00  2.1359837480901462e+01 -1.7711504659235354e-03 0.0000000000000000e+00  2.1360332836050514e+01 -1.6857989199871052e-03 0.0000000000000000e+00  2.1359606850817279e+01 -1.8438148307753997e-03 0.0000000000000000e+00  2.1359671746890928e+01 -1.5935293447805160e-03 0.0000000000000000e+00  2.1359500869602986e+01 -1.6377931628347548e-03 0.0000000000000000e+00  2.1359525250079098e+01 -1.5694563356151803e-03 0.0000000000000000e+00  2.1359485770227902e+01 -1.5826210167680034e-03 0.0000000000000000e+00  2.1359491216479874e+01 -1.5674710633782965e-03 0.0000000000000000e+00  2.1359482369093204e+01 -1.5697228382922912e-03 0.0000000000000000e+00  2.1359483099873032e+01 -1.5666747378188946e-03 0.0000000000000000e+00  2.1359481210916456e+01 -1.5668452538013897e-03 0.0000000000000000e+00  2.1359481205100398e+01 -1.5662514122116375e-03 0.0000000000000000e+00  2.1359480813616372e+01 -1.5662109283811839e-03 0.0000000000000000e+00  2.1359480772233074e+01 -1.5660926843115001e-03 0.0000000000000000e+00  2.1359480691065812e+01 -1.5660690299794367e-03 0.0000000000000000e+00  2.1359480673868617e+01 -1.5660443000496136e-03 0.0000000000000000e+00  2.1359480656610479e+01 -1.5660365512231819e-03 0.0000000000000000e+00  2.1359480651322279e+01 -1.5660310946573315e-03 0.0000000000000000e+00  2.1359480647506377e+01 -1.5660289615308947e-03 0.0000000000000000e+00  2.1359480646059353e+01 -1.5660277105350726e-03 0.0000000000000000e+00  2.1359480645191393e+01 -1.5660271630353374e-03 0.0000000000000000e+00  2.1359480644812692e+01 -1.5660268686458643e-03 0.0000000000000000e+00  2.1359480644612564e+01 -1.5660267253819991e-03 0.0000000000000000e+00  2.1359480644518325e+01 -1.5660266569818306e-03 0.0000000000000000e+00  2.1359480644469308e+01 -1.5660266191453252e-03 0.0000000000000000e+00  2.1359480644447633e+01 -1.5660266043455197e-03 0.0000000000000000e+00  2.1359480644434143e+01 -1.5660265894779201e-03 0.0000000000000000e+00  2.1359480644427812e+01 -1.5660265901330224e-03 0.0000000000000000e+00  2.1359480644426231e+01 -1.5660265875327506e-03 0.0000000000000000e+00  2.1359480644424025e+01 -1.5660265901112677e-03 0.0000000000000000e+00  2.1359480644423630e+01 -1.5660265882991300e-03 0.0000000000000000e+00  2.1359480644416362e+01 -1.5660265830691941e-03 0.0000000000000000e+00  2.1359480644421016e+01 -1.5660265868570884e-03 0.0000000000000000e+00  2.1359480644421431e+01 -1.5660265851725533e-03 0.0000000000000000e+00  2.1359480644422085e+01 -1.5660265864018176e-03 0.0000000000000000e+00  2.1359480644420664e+01 -1.5660265849393713e