<?xml version="1.0"?>
<VTKFile type="UnstructuredGrid"  version="0.1"  >
<UnstructuredGrid>
<Piece  NumberOfPoints="1369" NumberOfCells="2560">
<Points>
<DataArray  type="Float64"  NumberOfComponents="3"  format="ascii">0 0 0  0.75 0 0  1.5 0 0  2.25 0 0  3 0 0  3.75 0 0  4.5 0 0  5.25 0 0  6 0 0  6.75 0 0  7.5 0 0  8.25 0 0  9 0 0  9.75 0 0  10.5 0 0  11.25 0 0  12 0 0  12.75 0 0  13.5 0 0  14.25 0 0  15 0 0  15.75 0 0  16.5 0 0  17.25 0 0  18 0 0  18.75 0 0  19.5 0 0  20.25 0 0  21 0 0  21.75 0 0  22.5 0 0  23.25 0 0  24 0 0  24.75 0 0  25.5 0 0  26.25 0 0  27 0 0  27.75 0 0  28.5 0 0  29.25 0 0  30 0 0  30.75 0 0  31.5 0 0  32.25 0 0  33 0 0  33.75 0 0  34.5 0 0  35.25 0 0  36 0 0  36.75 0 0  37.5 0 0  38.25 0 0  39 0 0  39.75 0 0  40.5 0 0  41.25 0 0  42 0 0  42.75 0 0  43.5 0 0  44.25 0 0  45 0 0  45.75 0 0  46.5 0 0  47.25 0 0  48 0 0  48.75 0 0  49.5 0 0  50.25 0 0  51 0 0  51.75 0 0  52.5 0 0  53.25 0 0  54 0 0  54.75 0 0  55.5 0 0  56.25 0 0  57 0 0  57.75 0 0  58.5 0 0  59.25 0 0  60 0 0  0 0.5 0  0.75 0.5 0  1.5 0.5 0  2.25 0.5 0  3 0.5 0  3.75 0.5 0  4.5 0.5 0  5.25 0.5 0  6 0.5 0  6.75 0.5 0  7.5 0.5 0  8.25 0.5 0  9 0.5 0  9.75 0.5 0  10.5 0.5 0  11.25 0.5 0  12 0.5 0  12.75 0.5 0  13.5 0.5 0  14.25 0.5 0  15 0.5 0  15.75 0.5 0  16.5 0.5 0  17.25 0.5 0  18 0.5 0  18.75 0.5 0  19.5 0.5 0  20.25 0.5 0  21 0.5 0  21.75 0.5 0  22.5 0.5 0  23.25 0.5 0  24 0.5 0  24.75 0.5 0  25.5 0.5 0  26.25 0.5 0  27 0.5 0  27.75 0.5 0  28.5 0.5 0  29.25 0.5 0  30 0.5 0  30.75 0.5 0  31.5 0.5 0  32.25 0.5 0  33 0.5 0  33.75 0.5 0  34.5 0.5 0  35.25 0.5 0  36 0.5 0  36.75 0.5 0  37.5 0.5 0  38.25 0.5 0  39 0.5 0  39.75 0.5 0  40.5 0.5 0  41.25 0.5 0  42 0.5 0  42.75 0.5 0  43.5 0.5 0  44.25 0.5 0  45 0.5 0  45.75 0.5 0  46.5 0.5 0  47.25 0.5 0  48 0.5 0  48.75 0.5 0  49.5 0.5 0  50.25 0.5 0  51 0.5 0  51.75 0.5 0  52.5 0.5 0  53.25 0.5 0  54 0.5 0  54.75 0.5 0  55.5 0.5 0  56.25 0.5 0  57 0.5 0  57.75 0.5 0  58.5 0.5 0  59.25 0.5 0  60 0.5 0  0 1 0  0.75 1 0  1.5 1 0  2.25 1 0  3 1 0  3.75 1 0  4.5 1 0  5.25 1 0  6 1 0  6.75 1 0  7.5 1 0  8.25 1 0  9 1 0  9.75 1 0  10.5 1 0  11.25 1 0  12 1 0  12.75 1 0  13.5 1 0  14.25 1 0  15 1 0  15.75 1 0  16.5 1 0  17.25 1 0  18 1 0  18.75 1 0  19.5 1 0  20.25 1 0  21 1 0  21.75 1 0  22.5 1 0  23.25 1 0  24 1 0  24.75 1 0  25.5 1 0  26.25 1 0  27 1 0  27.75 1 0  28.5 1 0  29.25 1 0  30 1 0  30.75 1 0  31.5 1 0  32.25 1 0  33 1 0  33.75 1 0  34.5 1 0  35.25 1 0  36 1 0  36.75 1 0  37.5 1 0  38.25 1 0  39 1 0  39.75 1 0  40.5 1 0  41.25 1 0  42 1 0  42.75 1 0  43.5 1 0  44.25 1 0  45 1 0  45.75 1 0  46.5 1 0  47.25 1 0  48 1 0  48.75 1 0  49.5 1 0  50.25 1 0  51 1 0  51.75 1 0  52.5 1 0  53.25 1 0  54 1 0  54.75 1 0  55.5 1 0  56.25 1 0  57 1 0  57.75 1 0  58.5 1 0  59.25 1 0  60 1 0  0 1.5 0  0.75 1.5 0  1.5 1.5 0  2.25 1.5 0  3 1.5 0  3.75 1.5 0  4.5 1.5 0  5.25 1.5 0  6 1.5 0  6.75 1.5 0  7.5 1.5 0  8.25 1.5 0  9 1.5 0  9.75 1.5 0  10.5 1.5 0  11.25 1.5 0  12 1.5 0  12.75 1.5 0  13.5 1.5 0  14.25 1.5 0  15 1.5 0  15.75 1.5 0  16.5 1.5 0  17.25 1.5 0  18 1.5 0  18.75 1.5 0  19.5 1.5 0  20.25 1.5 0  21 1.5 0  21.75 1.5 0  22.5 1.5 0  23.25 1.5 0  24 1.5 0  24.75 1.5 0  25.5 1.5 0  26.25 1.5 0  27 1.5 0  27.75 1.5 0  28.5 1.5 0  29.25 1.5 0  30 1.5 0  30.75 1.5 0  31.5 1.5 0  32.25 1.5 0  33 1.5 0  33.75 1.5 0  34.5 1.5 0  35.25 1.5 0  36 1.5 0  36.75 1.5 0  37.5 1.5 0  38.25 1.5 0  39 1.5 0  39.75 1.5 0  40.5 1.5 0  41.25 1.5 0  42 1.5 0  42.75 1.5 0  43.5 1.5 0  44.25 1.5 0  45 1.5 0  45.75 1.5 0  46.5 1.5 0  47.25 1.5 0  48 1.5 0  48.75 1.5 0  49.5 1.5 0  50.25 1.5 0  51 1.5 0  51.75 1.5 0  52.5 1.5 0  53.25 1.5 0  54 1.5 0  54.75 1.5 0  55.5 1.5 0  56.25 1.5 0  57 1.5 0  57.75 1.5 0  58.5 1.5 0  59.25 1.5 0  60 1.5 0  0 2 0  0.75 2 0  1.5 2 0  2.25 2 0  3 2 0  3.75 2 0  4.5 2 0  5.25 2 0  6 2 0  6.75 2 0  7.5 2 0  8.25 2 0  9 2 0  9.75 2 0  10.5 2 0  11.25 2 0  12 2 0  12.75 2 0  13.5 2 0  14.25 2 0  15 2 0  15.75 2 0  16.5 2 0  17.25 2 0  18 2 0  18.75 2 0  19.5 2 0  20.25 2 0  21 2 0  21.75 2 0  22.5 2 0  23.25 2 0  24 2 0  24.75 2 0  25.5 2 0  26.25 2 0  27 2 0  27.75 2 0  28.5 2 0  29.25 2 0  30 2 0  30.75 2 0  31.5 2 0  32.25 2 0  33 2 0  33.75 2 0  34.5 2 0  35.25 2 0  36 2 0  36.75 2 0  37.5 2 0  38.25 2 0  39 2 0  39.75 2 0  40.5 2 0  41.25 2 0  42 2 0  42.75 2 0  43.5 2 0  44.25 2 0  45 2 0  45.75 2 0  46.5 2 0  47.25 2 0  48 2 0  48.75 2 0  49.5 2 0  50.25 2 0  51 2 0  51.75 2 0  52.5 2 0  53.25 2 0  54 2 0  54.75 2 0  55.5 2 0  56.25 2 0  57 2 0  57.75 2 0  58.5 2 0  59.25 2 0  60 2 0  0 2.5 0  0.75 2.5 0  1.5 2.5 0  2.25 2.5 0  3 2.5 0  3.75 2.5 0  4.5 2.5 0  5.25 2.5 0  6 2.5 0  6.75 2.5 0  7.5 2.5 0  8.25 2.5 0  9 2.5 0  9.75 2.5 0  10.5 2.5 0  11.25 2.5 0  12 2.5 0  12.75 2.5 0  13.5 2.5 0  14.25 2.5 0  15 2.5 0  15.75 2.5 0  16.5 2.5 0  17.25 2.5 0  18 2.5 0  18.75 2.5 0  19.5 2.5 0  20.25 2.5 0  21 2.5 0  21.75 2.5 0  22.5 2.5 0  23.25 2.5 0  24 2.5 0  24.75 2.5 0  25.5 2.5 0  26.25 2.5 0  27 2.5 0  27.75 2.5 0  28.5 2.5 0  29.25 2.5 0  30 2.5 0  30.75 2.5 0  31.5 2.5 0  32.25 2.5 0  33 2.5 0  33.75 2.5 0  34.5 2.5 0  35.25 2.5 0  36 2.5 0  36.75 2.5 0  37.5 2.5 0  38.25 2.5 0  39 2.5 0  39.75 2.5 0  40.5 2.5 0  41.25 2.5 0  42 2.5 0  42.75 2.5 0  43.5 2.5 0  44.25 2.5 0  45 2.5 0  45.75 2.5 0  46.5 2.5 0  47.25 2.5 0  48 2.5 0  48.75 2.5 0  49.5 2.5 0  50.25 2.5 0  51 2.5 0  51.75 2.5 0  52.5 2.5 0  53.25 2.5 0  54 2.5 0  54.75 2.5 0  55.5 2.5 0  56.25 2.5 0  57 2.5 0  57.75 2.5 0  58.5 2.5 0  59.25 2.5 0  60 2.5 0  0 3 0  0.75 3 0  1.5 3 0  2.25 3 0  3 3 0  3.75 3 0  4.5 3 0  5.25 3 0  6 3 0  6.75 3 0  7.5 3 0  8.25 3 0  9 3 0  9.75 3 0  10.5 3 0  11.25 3 0  12 3 0  12.75 3 0  13.5 3 0  14.25 3 0  15 3 0  15.75 3 0  16.5 3 0  17.25 3 0  18 3 0  18.75 3 0  19.5 3 0  20.25 3 0  21 3 0  21.75 3 0  22.5 3 0  23.25 3 0  24 3 0  24.75 3 0  25.5 3 0  26.25 3 0  27 3 0  27.75 3 0  28.5 3 0  29.25 3 0  30 3 0  30.75 3 0  31.5 3 0  32.25 3 0  33 3 0  33.75 3 0  34.5 3 0  35.25 3 0  36 3 0  36.75 3 0  37.5 3 0  38.25 3 0  39 3 0  39.75 3 0  40.5 3 0  41.25 3 0  42 3 0  42.75 3 0  43.5 3 0  44.25 3 0  45 3 0  45.75 3 0  46.5 3 0  47.25 3 0  48 3 0  48.75 3 0  49.5 3 0  50.25 3 0  51 3 0  51.75 3 0  52.5 3 0  53.25 3 0  54 3 0  54.75 3 0  55.5 3 0  56.25 3 0  57 3 0  57.75 3 0  58.5 3 0  59.25 3 0  60 3 0  0 3.5 0  0.75 3.5 0  1.5 3.5 0  2.25 3.5 0  3 3.5 0  3.75 3.5 0  4.5 3.5 0  5.25 3.5 0  6 3.5 0  6.75 3.5 0  7.5 3.5 0  8.25 3.5 0  9 3.5 0  9.75 3.5 0  10.5 3.5 0  11.25 3.5 0  12 3.5 0  12.75 3.5 0  13.5 3.5 0  14.25 3.5 0  15 3.5 0  15.75 3.5 0  16.5 3.5 0  17.25 3.5 0  18 3.5 0  18.75 3.5 0  19.5 3.5 0  20.25 3.5 0  21 3.5 0  21.75 3.5 0  22.5 3.5 0  23.25 3.5 0  24 3.5 0  24.75 3.5 0  25.5 3.5 0  26.25 3.5 0  27 3.5 0  27.75 3.5 0  28.5 3.5 0  29.25 3.5 0  30 3.5 0  30.75 3.5 0  31.5 3.5 0  32.25 3.5 0  33 3.5 0  33.75 3.5 0  34.5 3.5 0  35.25 3.5 0  36 3.5 0  36.75 3.5 0  37.5 3.5 0  38.25 3.5 0  39 3.5 0  39.75 3.5 0  40.5 3.5 0  41.25 3.5 0  42 3.5 0  42.75 3.5 0  43.5 3.5 0  44.25 3.5 0  45 3.5 0  45.75 3.5 0  46.5 3.5 0  47.25 3.5 0  48 3.5 0  48.75 3.5 0  49.5 3.5 0  50.25 3.5 0  51 3.5 0  51.75 3.5 0  52.5 3.5 0  53.25 3.5 0  54 3.5 0  54.75 3.5 0  55.5 3.5 0  56.25 3.5 0  57 3.5 0  57.75 3.5 0  58.5 3.5 0  59.25 3.5 0  60 3.5 0  0 4 0  0.75 4 0  1.5 4 0  2.25 4 0  3 4 0  3.75 4 0  4.5 4 0  5.25 4 0  6 4 0  6.75 4 0  7.5 4 0  8.25 4 0  9 4 0  9.75 4 0  10.5 4 0  11.25 4 0  12 4 0  12.75 4 0  13.5 4 0  14.25 4 0  15 4 0  15.75 4 0  16.5 4 0  17.25 4 0  18 4 0  18.75 4 0  19.5 4 0  20.25 4 0  21 4 0  21.75 4 0  22.5 4 0  23.25 4 0  24 4 0  24.75 4 0  25.5 4 0  26.25 4 0  27 4 0  27.75 4 0  28.5 4 0  29.25 4 0  30 4 0  30.75 4 0  31.5 4 0  32.25 4 0  33 4 0  33.75 4 0  34.5 4 0  35.25 4 0  36 4 0  36.75 4 0  37.5 4 0  38.25 4 0  39 4 0  39.75 4 0  40.5 4 0  41.25 4 0  42 4 0  42.75 4 0  43.5 4 0  44.25 4 0  45 4 0  45.75 4 0  46.5 4 0  47.25 4 0  48 4 0  48.75 4 0  49.5 4 0  50.25 4 0  51 4 0  51.75 4 0  52.5 4 0  53.25 4 0  54 4 0  54.75 4 0  55.5 4 0  56.25 4 0  57 4 0  57.75 4 0  58.5 4 0  59.25 4 0  60 4 0  0.375 0.25 0  1.125 0.25 0  1.875 0.25 0  2.625 0.25 0  3.375 0.25 0  4.125 0.25 0  4.875 0.25 0  5.625 0.25 0  6.375 0.25 0  7.125 0.25 0  7.875 0.25 0  8.625 0.25 0  9.375 0.25 0  10.125 0.25 0  10.875 0.25 0  11.625 0.25 0  12.375 0.25 0  13.125 0.25 0  13.875 0.25 0  14.625 0.25 0  15.375 0.25 0  16.125 0.25 0  16.875 0.25 0  17.625 0.25 0  18.375 0.25 0  19.125 0.25 0  19.875 0.25 0  20.625 0.25 0  21.375 0.25 0  22.125 0.25 0  22.875 0.25 0  23.625 0.25 0  24.375 0.25 0  25.125 0.25 0  25.875 0.25 0  26.625 0.25 0  27.375 0.25 0  28.125 0.25 0  28.875 0.25 0  29.625 0.25 0  30.375 0.25 0  31.125 0.25 0  31.875 0.25 0  32.625 0.25 0  33.375 0.25 0  34.125 0.25 0  34.875 0.25 0  35.625 0.25 0  36.375 0.25 0  37.125 0.25 0  37.875 0.25 0  38.625 0.25 0  39.375 0.25 0  40.125 0.25 0  40.875 0.25 0  41.625 0.25 0  42.375 0.25 0  43.125 0.25 0  43.875 0.25 0  44.625 0.25 0  45.375 0.25 0  46.125 0.25 0  46.875 0.25 0  47.625 0.25 0  48.375 0.25 0  49.125 0.25 0  49.875 0.25 0  50.625 0.25 0  51.375 0.25 0  52.125 0.25 0  52.875 0.25 0  53.625 0.25 0  54.375 0.25 0  55.125 0.25 0  55.875 0.25 0  56.625 0.25 0  57.375 0.25 0  58.125 0.25 0  58.875 0.25 0  59.625 0.25 0  0.375 0.75 0  1.125 0.75 0  1.875 0.75 0  2.625 0.75 0  3.375 0.75 0  4.125 0.75 0  4.875 0.75 0  5.625 0.75 0  6.375 0.75 0  7.125 0.75 0  7.875 0.75 0  8.625 0.75 0  9.375 0.75 0  10.125 0.75 0  10.875 0.75 0  11.625 0.75 0  12.375 0.75 0  13.125 0.75 0  13.875 0.75 0  14.625 0.75 0  15.375 0.75 0  16.125 0.75 0  16.875 0.75 0  17.625 0.75 0  18.375 0.75 0  19.125 0.75 0  19.875 0.75 0  20.625 0.75 0  21.375 0.75 0  22.125 0.75 0  22.875 0.75 0  23.625 0.75 0  24.375 0.75 0  25.125 0.75 0  25.875 0.75 0  26.625 0.75 0  27.375 0.75 0  28.125 0.75 0  28.875 0.75 0  29.625 0.75 0  30.375 0.75 0  31.125 0.75 0  31.875 0.75 0  32.625 0.75 0  33.375 0.75 0  34.125 0.75 0  34.875 0.75 0  35.625 0.75 0  36.375 0.75 0  37.125 0.75 0  37.875 0.75 0  38.625 0.75 0  39.375 0.75 0  40.125 0.75 0  40
[...]
<PointData  Vectors="f_8-0"> 
<DataArray  type="Float64"  Name="f_8-0"  NumberOfComponents="3" format="ascii">0.0000000000000000e+00 0.0000000000000000e+00 0.0000000000000000e+00  0.0000000000000000e+00 0.0000000000000000e+00 0.0000000000000000e+00  0.0000000000000000e+00 0.0000000000000000e+00 0.0000000000000000e+00  0.0000000000000000e+00 0.0000000000000000e+00 0.0000000000000000e+00  0.0000000000000000e+00 0.0000000000000000e+00 0.0000000000000000e+00  0.0000000000000000e+00 0.0000000000000000e+00 0.0000000000000000e+00  0.0000000000000000e+00 0.0000000000000000e+00 0.0000000000000000e+00  0.0000000000000000e+00 0.0000000000000000e+00 0.0000000000000000e+00  0.0000000000000000e+00 0.0000000000000000e+00 0.0000000000000000e+00  0.0000000000000000e+00 0.0000000000000000e+00 0.0000000000000000e+00  0.0000000000000000e+00 0.0000000000000000e+00 0.0000000000000000e+00  0.0000000000000000e+00 0.0000000000000000e+00 0.0000000000000000e+00  0.0000000000000000e+00 0.0000000000000000e+00 0.0000000000000000e+00  0.0000000000000000e+00 0.0000000000000000e+00 0.0000000000000000e+00  0.0000000000000000e+00 0.0000000000000000e+00 0.0000000000000000e+00  0.0000000000000000e+00 0.0000000000000000e+00 0.0000000000000000e+00  0.0000000000000000e+00 0.0000000000000000e+00 0.0000000000000000e+00  0.0000000000000000e+00 0.0000000000000000e+00 0.0000000000000000e+00  0.0000000000000000e+00 0.0000000000000000e+00 0.0000000000000000e+00  0.0000000000000000e+00 0.0000000000000000e+00 0.0000000000000000e+00  0.0000000000000000e+00 0.0000000000000000e+00 0.0000000000000000e+00  0.0000000000000000e+00 0.0000000000000000e+00 0.0000000000000000e+00  0.0000000000000000e+00 0.0000000000000000e+00 0.0000000000000000e+00  0.0000000000000000e+00 0.0000000000000000e+00 0.0000000000000000e+00  0.0000000000000000e+00 0.0000000000000000e+00 0.0000000000000000e+00  0.0000000000000000e+00 0.0000000000000000e+00 0.0000000000000000e+00  0.0000000000000000e+00 0.0000000000000000e+00 0.0000000000000000e+00  0.0000000000000000e+00 0.0000000000000000e+00 0.0000000000000000e+00  0.0000000000000000e+00 0.0000000000000000e+00 0.0000000000000000e+00  0.0000000000000000e+00 0.0000000000000000e+00 0.0000000000000000e+00  0.0000000000000000e+00 0.0000000000000000e+00 0.0000000000000000e+00  0.0000000000000000e+00 0.0000000000000000e+00 0.0000000000000000e+00  0.0000000000000000e+00 0.0000000000000000e+00 0.0000000000000000e+00  0.0000000000000000e+00 0.0000000000000000e+00 0.0000000000000000e+00  0.0000000000000000e+00 0.0000000000000000e+00 0.0000000000000000e+00  0.0000000000000000e+00 0.0000000000000000e+00 0.0000000000000000e+00  0.0000000000000000e+00 0.0000000000000000e+00 0.0000000000000000e+00  0.0000000000000000e+00 0.0000000000000000e+00 0.0000000000000000e+00  0.0000000000000000e+00 0.0000000000000000e+00 0.0000000000000000e+00  0.0000000000000000e+00 0.0000000000000000e+00 0.0000000000000000e+00  0.0000000000000000e+00 0.0000000000000000e+00 0.0000000000000000e+00  0.0000000000000000e+00 0.0000000000000000e+00 0.0000000000000000e+00  0.0000000000000000e+00 0.0000000000000000e+00 0.0000000000000000e+00  0.0000000000000000e+00 0.0000000000000000e+00 0.0000000000000000e+00  0.0000000000000000e+00 0.0000000000000000e+00 0.0000000000000000e+00  0.0000000000000000e+00 0.0000000000000000e+00 0.0000000000000000e+00  0.0000000000000000e+00 0.0000000000000000e+00 0.0000000000000000e+00  0.0000000000000000e+00 0.0000000000000000e+00 0.0000000000000000e+00  0.0000000000000000e+00 0.0000000000000000e+00 0.0000000000000000e+00  0.0000000000000000e+00 0.0000000000000000e+00 0.0000000000000000e+00  0.0000000000000000e+00 0.0000000000000000e+00 0.0000000000000000e+00  0.0000000000000000e+00 0.0000000000000000e+00 0.0000000000000000e+00  0.0000000000000000e+00 0.0000000000000000e+00 0.0000000000000000e+00  0.0000000000000000e+00 0.0000000000000000e+00 0.0000000000000000e+00  0.0000000000000000e+00 0.0000000000000000e+00 0.0000000000000000e+00  0.0000000000000000e+00 0.0000000000000000e+00 0.0000000000000000e+00  0.0000000000000000e+00 0.0000000000000000e+00 0.0000000000000000e+00  0.0000000000000000e+00 0.0000000000000000e+00 0.0000000000000000e+00  0.0000000000000000e+00 0.0000000000000000e+00 0.0000000000000000e+00  0.0000000000000000e+00 0.0000000000000000e+00 0.0000000000000000e+00  0.0000000000000000e+00 0.0000000000000000e+00 0.0000000000000000e+00  0.0000000000000000e+00 0.0000000000000000e+00 0.0000000000000000e+00  0.0000000000000000e+00 0.0000000000000000e+00 0.0000000000000000e+00  0.0000000000000000e+00 0.0000000000000000e+00 0.0000000000000000e+00  0.0000000000000000e+00 0.0000000000000000e+00 0.0000000000000000e+00  0.0000000000000000e+00 0.0000000000000000e+00 0.0000000000000000e+00  0.0000000000000000e+00 0.0000000000000000e+00 0.0000000000000000e+00  0.0000000000000000e+00 0.0000000000000000e+00 0.0000000000000000e+00  0.0000000000000000e+00 0.0000000000000000e+00 0.0000000000000000e+00  0.0000000000000000e+00 0.0000000000000000e+00 0.0000000000000000e+00  0.0000000000000000e+00 0.0000000000000000e+00 0.0000000000000000e+00  0.0000000000000000e+00 0.0000000000000000e+00 0.0000000000000000e+00  0.0000000000000000e+00 0.0000000000000000e+00 0.0000000000000000e+00  0.0000000000000000e+00 0.0000000000000000e+00 0.0000000000000000e+00  0.0000000000000000e+00 0.0000000000000000e+00 0.0000000000000000e+00  0.0000000000000000e+00 0.0000000000000000e+00 0.0000000000000000e+00  0.0000000000000000e+00 0.0000000000000000e+00 0.0000000000000000e+00  0.0000000000000000e+00 0.0000000000000000e+00 0.0000000000000000e+00  0.0000000000000000e+00 0.0000000000000000e+00 0.0000000000000000e+00  0.0000000000000000e+00 0.0000000000000000e+00 0.0000000000000000e+00  0.0000000000000000e+00 0.0000000000000000e+00 0.0000000000000000e+00  -1.1777773622006041e+01 0.0000000000000000e+00 0.0000000000000000e+00  -1.1810098864346186e+01 -3.0645657692486843e-03 0.0000000000000000e+00  -1.1835563591608073e+01 9.3171732532828996e-03 0.0000000000000000e+00  -1.1857873184870796e+01 1.3027966507940962e-02 0.0000000000000000e+00  -1.1880418669844612e+01 1.3296398159223372e-02 0.0000000000000000e+00  -1.1898419156637868e+01 1.0992802217472888e-02 0.0000000000000000e+00  -1.1909190466250163e+01 7.7420077380850778e-03 0.0000000000000000e+00  -1.1913400957985033e+01 4.8885124666862168e-03 0.0000000000000000e+00  -1.1912462007332962e+01 2.8642405350525692e-03 0.0000000000000000e+00  -1.1908842879605830e+01 1.8326647566916810e-03 0.0000000000000000e+00  -1.1904017523131234e+01 1.4598758514267935e-03 0.0000000000000000e+00  -1.1899243130053888e+01 1.5566345134207489e-03 0.0000000000000000e+00  -1.1895046967745216e+01 1.8363113867176342e-03 0.0000000000000000e+00  -1.1891618201403052e+01 2.1495096215800270e-03 0.0000000000000000e+00  -1.1888757145135353e+01 2.4113101713263193e-03 0.0000000000000000e+00  -1.1886444888350916e+01 2.6381666504399996e-03 0.0000000000000000e+00  -1.1884488135839090e+01 2.7704040324310572e-03 0.0000000000000000e+00  -1.1882652699049368e+01 2.8021588033843698e-03 0.0000000000000000e+00  -1.1880719516744504e+01 2.7692002973207707e-03 0.0000000000000000e+00  -1.1878675586638661e+01 2.7367026933877965e-03 0.0000000000000000e+00  -1.1876562831430700e+01 2.7147390419752886e-03 0.0000000000000000e+00  -1.1874410194539305e+01 2.6904399468132417e-03 0.0000000000000000e+00  -1.1872183649320446e+01 2.6527622434737792e-03 0.0000000000000000e+00  -1.1869887800602019e+01 2.6281479965524907e-03 0.0000000000000000e+00  -1.1867614638040074e+01 2.6567812370218470e-03 0.0000000000000000e+00  -1.1865557051027256e+01 2.7715642040331721e-03 0.0000000000000000e+00  -1.1863935236183021e+01 2.9731821079067478e-03 0.0000000000000000e+00  -1.1862925943568973e+01 3.2350061903686860e-03 0.0000000000000000e+00  -1.1862605178765932e+01 3.5136544673719243e-03 0.0000000000000000e+00  -1.1862942838278668e+01 3.7681677513756108e-03 0.0000000000000000e+00  -1.1863823928878341e+01 3.9692245414859294e-03 0.0000000000000000e+00  -1.1865089881774628e+01 4.1042618185184367e-03 0.0000000000000000e+00  -1.1866574537441261e+01 4.1741511512457131e-03 0.0000000000000000e+00  -1.1868131932022120e+01 4.1891883758555706e-03 0.0000000000000000e+00  -1.1869649223522000e+01 4.1634092194425048e-03 0.0000000000000000e+00  -1.1871050312616921e+01 4.1112785055067731e-03 0.0000000000000000e+00  -1.1872291697285677e+01 4.0450718934433652e-03 0.0000000000000000e+00  -1.1873355805795127e+01 3.9742446055502558e-03 0.0000000000000000e+00  -1.1874243214044862e+01 3.9051837747435232e-03 0.0000000000000000e+00  -1.1874966024044841e+01 3.8418085478808687e-03 0.0000000000000000e+00  -1.1875542469541967e+01 3.7860567581781412e-03 0.0000000000000000e+00  -1.1875993213173214e+01 3.7385734477327079e-03 0.0000000000000000e+00  -1.1876338870325840e+01 3.6991366658006460e-03 0.0000000000000000e+00  -1.1876598616955587e+01 3.6670765530658453e-03 0.0000000000000000e+00  -1.1876789464834753e+01 3.6414879738299326e-03 0.0000000000000000e+00  -1.1876926028195520e+01 3.6214213624081435e-03 0.0000000000000000e+00  -1.1877020560364778e+01 3.6059575405630586e-03 0.0000000000000000e+00  -1.1877083156687378e+01 3.5942747825331751e-03 0.0000000000000000e+00  -1.1877122022013483e+01 3.5856548316703912e-03 0.0000000000000000e+00  -1.1877143745570960e+01 3.5794894348542537e-03 0.0000000000000000e+00  -1.1877153549835498e+01 3.5752604735396487e-03 0.0000000000000000e+00  -1.1877155498278446e+01 3.5725297917367682e-03 0.0000000000000000e+00  -1.1877152671781879e+01 3.5709235633320162e-03 0.0000000000000000e+00  -1.1877147319814435e+01 3.5701278149443010e-03 0.0000000000000000e+00  -1.1877141002722025e+01 3.5698830327815954e-03 0.0000000000000000e+00  -1.1877134725409075e+01 3.5699834521447081e-03 0.0000000000000000e+00  -1.1877129066666180e+01 3.5702730940367451e-03 0.0000000000000000e+00  -1.1877124295891909e+01 3.5706416210663705e-03 0.0000000000000000e+00  -1.1877120475580091e+01 3.5710169185329339e-03 0.0000000000000000e+00  -1.1877117542990057e+01 3.5713574376807920e-03 0.0000000000000000e+00  -1.1877115372234060e+01 3.5716436906870048e-03 0.0000000000000000e+00  -1.1877113816135159e+01 3.5718710485652966e-03 0.0000000000000000e+00  -1.1877112732530483e+01 3.5720435200144803e-03 0.0000000000000000e+00  -1.1877111997617920e+01 3.5721694190161994e-03 0.0000000000000000e+00  -1.1877111511142962e+01 3.5722582866642232e-03 0.0000000000000000e+00  -1.1877111196314445e+01 3.5723192964189220e-03 0.0000000000000000e+00  -1.1877110995466548e+01 3.5723602552632633e-03 0.0000000000000000e+00  -1.1877110872561486e+01 3.5723888335752458e-03 0.0000000000000000e+00  -1.1877110777610078e+01 3.5724088978740941e-03 0.0000000000000000e+00  -1.1877110785569508e+01 3.5724499635802847e-03 0.0000000000000000e+00  -1.1877110467940545e+01 3.5724659848144443e-03 0.0000000000000000e+00  -1.1877111654519084e+01 3.5729375179954282e-03 0.0000000000000000e+00  -1.1877107098112459e+01 3.5725514858767917e-03 0.0000000000000000e+00  -1.1877127564063112e+01 3.5798890397550163e-03 0.0000000000000000e+00  -1.1877064615184308e+01 3.5690355049913061e-03 0.0000000000000000e+00  -1.1877336343744478e+01 3.6700392006514680e-03 0.0000000000000000e+00  -1.1876698951706075e+01 3.5541393812049561e-03 0.0000000000000000e+00  -1.1879269647112627e+01 4.3503535148158119e-03 0.0000000000000000e+00  -1.1877338655994931e+01 7.7844412524946810e-03 0.0000000000000000e+00  -1.1885857390848175e+01 2.7084176699937606e-02 0.0000000000000000e+00  -1.1911434297430112e+01 0.0000000000000000e+00 0.0000000000000000e+00  -2.8013557402984004e+00 0.0000000000000000e+00 0.0000000000000000e+00  -2.8196114988820042e+00 8.6572944410099623e-03 0.0000000000000000e+00  -2.8216875270635651e+00 1.3779233750643169e-02 0.0000000000000000e+00  -2.8244524934696704e+00 1.7144933823194285e-02 0.0000000000000000e+00  -2.8238067391393473e+00 1.5337512909362827e-02 0.0000000000000000e+00  -2.8205494793589465e+00 9.9898551216103179e-03 0.0000000000000000e+00  -2.8163805174885526e+00 3.6443728406156304e-03 0.0000000000000000e+00  -2.8118765323495896e+00 -1.6850238202134023e-03 0.0000000000000000e+00  -2.8080283295347863e+00 -5.1816023844587144e-03 0.0000000000000000e+00  -2.8047289163139868e+00 -6.8258627362446801e-03 0.0000000000000000e+00  -2.8024787312394865e+00 -7.1125576033659790e-03 0.0000000000000000e+00  -2.8008845063230701e+00 -6.7701882017011964e-03 0.0000000000000000e+00  -2.7999697505409094e+00 -5.9637841670626924e-03 0.0000000000000000e+00  -2.7995148290692451e+00 -5.2551076911303484e-03 0.0000000000000000e+00  -2.7993723626591986e+00 -4.7575869506130746e-03 0.0000000000000000e+00  -2.7992007414420366e+00 -4.3567641394724145e-03 0.0000000000000000e+00  -2.7990722234660357e+00 -4.0875086601323187e-03 0.0000000000000000e+00  -2.7989028510421958e+00 -4.0883486183170932e-03 0.0000000000000000e+00  -2.7985774117012818e+00 -4.2611852702513558e-03 0.0000000000000000e+00  -2.7979629701694049e+00 -4.4281846014191124e-03 0.0000000000000000e+00  -2.7971457142340315e+00 -4.5039118735158501e-03 0.0000000000000000e+00  -2.7962397314229772e+00 -4.5475955062642907e-03 0.0000000000000000e+00  -2.7953235932344178e+00 -4.6139906409865088e-03 0.0000000000000000e+00  -2.7943651536982239e+00 -4.6770157198068891e-03 0.0000000000000000e+00  -2.7933326641810998e+00 -4.6339280172435085e-03 0.0000000000000000e+00  -2.7922422483910330e+00 -4.3936369501084652e-03 0.0000000000000000e+00  -2.7911958850921632e+00 -3.9322241070319248e-03 0.0000000000000000e+00  -2.7903277527852706e+00 -3.3077819666202006e-03 0.0000000000000000e+00  -2.7897593868211117e+00 -2.6239048841717153e-03 0.0000000000000000e+00  -2.7895521365012428e+00 -1.9883276739721648e-03 0.0000000000000000e+00  -2.7897031313815988e+00 -1.4787272018319951e-03 0.0000000000000000e+00  -2.7901545580510771e+00 -1.1324539843080774e-03 0.0000000000000000e+00  -2.7908209120125558e+00 -9.4969823512003673e-04 0.0000000000000000e+00  -2.7916099642913847e+00 -9.0662180734052281e-04 0.0000000000000000e+00  -2.7924407460487424e+00 -9.6786204691268500e-04 0.0000000000000000e+00  -2.7932506136110411e+00 -1.0971214161276002e-03 0.0000000000000000e+00  -2.7939978395078349e+00 -1.2628497008942711e-03 0.0000000000000000e+00  -2.7946587606461084e+00 -1.4410099366919341e-03 0.0000000000000000e+00  -2.7952241587808611e+00 -1.6150629201492333e-03 0.0000000000000000e+00  -2.7956946365045288e+00 -1.7750173366097620e-03 0.0000000000000000e+00  -2.7960770352899060e+00 -1.9157872030226785e-03 0.0000000000000000e+00  -2.7963813684321321e+00 -2.0357340841468978e-03 0.0000000000000000e+00  -2.7966188801132232e+00 -2.1353452799658134e-03 0.0000000000000000e+00  -2.7968006881405687e+00 -2.2163279368367368e-03 0.0000000000000000e+00  -2.7969370896828654e+00 -2.2809412549230101e-03 0.0000000000000000e+00  -2.7970371719818643e+00 -2.3316044209448676e-03 0.0000000000000000e+00  -2.7971087103456771e+00 -2.3706367171342328e-03 0.0000000000000000e+00  -2.7971581886835817e+00 -2.4001344192875838e-03 0.0000000000000000e+00  -2.7971909223943778e+00 -2.4219134606858709e-03 0.0000000000000000e+00  -2.7972112117810157e+00 -2.4375172596034175e-03 0.0000000000000000e+00  -2.7972225019848711e+00 -2.4482466941943269e-03 0.0000000000000000e+00  -2.7972275243452400e+00 -2.4552026917596414e-03 0.0000000000000000e+00  -2.7972284097749127e+00 -2.4593183149264723e-03 0.0000000000000000e+00  -2.7972267815995600e+00 -2.4613803902792122e-03 0.0000000000000000e+00  -2.7972238305803150e+00 -2.4620390777031213e-03 0.0000000000000000e+00  -2.7972203863379543e+00 -2.4618135965232585e-03 0.0000000000000000e+00  -2.7972169837424521e+00 -2.4610986702637994e-03 0.0000000000000000e+00  -2.7972139302453094e+00 -2.4601758730991158e-03 0.0000000000000000e+00  -2.7972113667453335e+00 -2.4592299669407257e-03 0.0000000000000000e+00  -2.7972093230466490e+00 -2.4583685846712284e-03 0.0000000000000000e+00  -2.7972077616198785e+00 -2.4576427048428810e-03 0.0000000000000000e+00  -2.7972066117448473e+00 -2.4570653261423029e-03 0.0000000000000000e+00  -2.7972057919270727e+00 -2.4566269162264952e-03 0.0000000000000000e+00  -2.7972052243162566e+00 -2.4563068314688448e-03 0.0000000000000000e+00  -2.7972048415054327e+00 -2.4560810779103680e-03 0.0000000000000000e+00  -2.7972045891920292e+00 -2.4559269425734644e-03 0.0000000000000000e+00  -2.7972044253201696e+00 -2.4558251605833843e-03 0.0000000000000000e+00  -2.7972043170767078e+00 -2.4557625653689095e-03 0.0000000000000000e+00  -2.7972042369702548e+00 -2.4557257605330243e-03 0.0000000000000000e+00  -2.7972041436949642e+00 -2.4557352041396693e-03 0.0000000000000000e+00  -2.7972039966549604e+00 -2.4556896282222299e-03 0.0000000000000000e+00  -2.7972034867487094e+00 -2.4560410036548203e-03 0.0000000000000000e+00  -2.7972028356685654e+00 -2.4545907086471089e-03 0.0000000000000000e+00  -2.7971976382130497e+00 -2.4592233089104736e-03 0.0000000000000000e+00  -2.7971996002265773e+00 -2.4301437317175399e-03 0.0000000000000000e+00  -2.7971330019710150e+00 -2.4924230629459888e-03 0.0000000000000000e+00  -2.7972651197404472e+00 -2.0561331040630819e-03 0.0000000000000000e+00  -2.7962883237164977e+00 -2.7057546289395171e-03 0.0000000000000000e+00  -2.7978142343061578e+00 2.2524765669412953e-03 0.0000000000000000e+00  -2.7814500644666551e+00 -2.1454753019769894e-03 0.0000000000000000e+00  -2.7900785541479385e+00 0.0000000000000000e+00 0.0000000000000000e+00  4.5838035719361745e+00 0.0000000000000000e+00 0.0000000000000000e+00  4.5910526086376215e+00 8.2000468059235700e-03 0.0000000000000000e+00  4.6038278859567523e+00 1.0699704310449035e-02 0.0000000000000000e+00  4.6233453941187568e+00 1.1338055157369090e-02 0.0000000000000000e+00  4.6426654112924277e+00 9.5558585221342199e-03 0.0000000000000000e+00  4.6582332275769573e+00 5.7095898162392144e-03 0.0000000000000000e+00  4.6680075062373687e+00 1.6083331043388225e-03 0.0000000000000000e+00  4.6718176184396016e+00 -1.6249451815201973e-03 0.0000000000000000e+00  4.6716662498288661e+00 -3.4505993961639766e-03 0.0000000000000000e+00  4.6687825322605585e+00 -4.0771025248834197e-03 0.0000000000000000e+00  4.6651490255306687e+00 -3.6937378327219551e-03 0.0000000000000000e+00  4.6612869645821888e+00 -3.0606674905487323e-03 0.0000000000000000e+00  4.6579309946550929e+00 -2.2649531580278383e-03 0.0000000000000000e+00  4.6551750682372406e+00 -1.4509193901803851e-03 0.0000000000000000e+00  4.6529066580236487e+00 -1.0535867992947929e-03 0.0000000000000000e+00  4.6509377741444311e+00 -8.1580086458765428e-04 0.0000000000000000e+00  4.6493272472348632e+00 -6.2450693297481864e-04 0.0000000000000000e+00  4.6478168446702313e+00 -6.0944481534948834e-04 0.0000000000000000e+00  4.6462089990205611e+00 -8.4042724023136446e-04 0.0000000000000000e+00  4.6444296090420218e+00 -1.1198594759467173e-03 0.0000000000000000e+00  4.6425957287182733e+00 -1.2894984838179838e-03 0.0000000000000000e+00  4.6407519714736027e+00 -1.3439429124718959e-03 0.0000000000000000e+00  4.6388821019065478e+00 -1.3852860049573790e-03 0.0000000000000000e+00  4.6369395540515761e+00 -1.4519981876660447e-03 0.0000000000000000e+00  4.6349820071698629e+00 -1.4894318820807403e-03 0.0000000000000000e+00  4.6331635599116012e+00 -1.3925757415353007e-03 0.0000000000000000e+00  4.6316973315427310e+00 -1.0979169224639134e-03 0.0000000000000000e+00  4.6307566612658331e+00 -6.1604506672761179e-04 0.0000000000000000e+00  4.6304286165837878e+00 -2.5044210557298233e-05 0.0000000000000000e+00  4.6306922904458867e+00 5.7390619869685476e-04 0.0000000000000000e+00  4.6314477831818746e+00 1.0918999630577663e-03 0.0000000000000000e+00  4.6325499861810231e+00 1.4756897519644717e-03 0.0000000000000000e+00  4.6338485602086150e+00 1.7086746245535886e-03 0.0000000000000000e+00  4.6352108275679953e+00 1.8033756856326748e-03 0.0000000000000000e+00  4.6365361864871577e+00 1.7880062330896257e-03 0.0000000000000000e+00  4.6377570811287390e+00 1.6961283426517144e-03 0.0000000000000000e+00  4.6388360777330657e+00 1.5587768741167365e-03 0.0000000000000000e+00  4.6397584705593840e+00 1.40110920