<?xml version="1.0"?>
<VTKFile type="UnstructuredGrid"  version="0.1"  >
<UnstructuredGrid>
<Piece  NumberOfPoints="1369" NumberOfCells="2560">
<Points>
<DataArray  type="Float64"  NumberOfComponents="3"  format="ascii">0 0 0  0.75 0 0  1.5 0 0  2.25 0 0  3 0 0  3.75 0 0  4.5 0 0  5.25 0 0  6 0 0  6.75 0 0  7.5 0 0  8.25 0 0  9 0 0  9.75 0 0  10.5 0 0  11.25 0 0  12 0 0  12.75 0 0  13.5 0 0  14.25 0 0  15 0 0  15.75 0 0  16.5 0 0  17.25 0 0  18 0 0  18.75 0 0  19.5 0 0  20.25 0 0  21 0 0  21.75 0 0  22.5 0 0  23.25 0 0  24 0 0  24.75 0 0  25.5 0 0  26.25 0 0  27 0 0  27.75 0 0  28.5 0 0  29.25 0 0  30 0 0  30.75 0 0  31.5 0 0  32.25 0 0  33 0 0  33.75 0 0  34.5 0 0  35.25 0 0  36 0 0  36.75 0 0  37.5 0 0  38.25 0 0  39 0 0  39.75 0 0  40.5 0 0  41.25 0 0  42 0 0  42.75 0 0  43.5 0 0  44.25 0 0  45 0 0  45.75 0 0  46.5 0 0  47.25 0 0  48 0 0  48.75 0 0  49.5 0 0  50.25 0 0  51 0 0  51.75 0 0  52.5 0 0  53.25 0 0  54 0 0  54.75 0 0  55.5 0 0  56.25 0 0  57 0 0  57.75 0 0  58.5 0 0  59.25 0 0  60 0 0  0 0.5 0  0.75 0.5 0  1.5 0.5 0  2.25 0.5 0  3 0.5 0  3.75 0.5 0  4.5 0.5 0  5.25 0.5 0  6 0.5 0  6.75 0.5 0  7.5 0.5 0  8.25 0.5 0  9 0.5 0  9.75 0.5 0  10.5 0.5 0  11.25 0.5 0  12 0.5 0  12.75 0.5 0  13.5 0.5 0  14.25 0.5 0  15 0.5 0  15.75 0.5 0  16.5 0.5 0  17.25 0.5 0  18 0.5 0  18.75 0.5 0  19.5 0.5 0  20.25 0.5 0  21 0.5 0  21.75 0.5 0  22.5 0.5 0  23.25 0.5 0  24 0.5 0  24.75 0.5 0  25.5 0.5 0  26.25 0.5 0  27 0.5 0  27.75 0.5 0  28.5 0.5 0  29.25 0.5 0  30 0.5 0  30.75 0.5 0  31.5 0.5 0  32.25 0.5 0  33 0.5 0  33.75 0.5 0  34.5 0.5 0  35.25 0.5 0  36 0.5 0  36.75 0.5 0  37.5 0.5 0  38.25 0.5 0  39 0.5 0  39.75 0.5 0  40.5 0.5 0  41.25 0.5 0  42 0.5 0  42.75 0.5 0  43.5 0.5 0  44.25 0.5 0  45 0.5 0  45.75 0.5 0  46.5 0.5 0  47.25 0.5 0  48 0.5 0  48.75 0.5 0  49.5 0.5 0  50.25 0.5 0  51 0.5 0  51.75 0.5 0  52.5 0.5 0  53.25 0.5 0  54 0.5 0  54.75 0.5 0  55.5 0.5 0  56.25 0.5 0  57 0.5 0  57.75 0.5 0  58.5 0.5 0  59.25 0.5 0  60 0.5 0  0 1 0  0.75 1 0  1.5 1 0  2.25 1 0  3 1 0  3.75 1 0  4.5 1 0  5.25 1 0  6 1 0  6.75 1 0  7.5 1 0  8.25 1 0  9 1 0  9.75 1 0  10.5 1 0  11.25 1 0  12 1 0  12.75 1 0  13.5 1 0  14.25 1 0  15 1 0  15.75 1 0  16.5 1 0  17.25 1 0  18 1 0  18.75 1 0  19.5 1 0  20.25 1 0  21 1 0  21.75 1 0  22.5 1 0  23.25 1 0  24 1 0  24.75 1 0  25.5 1 0  26.25 1 0  27 1 0  27.75 1 0  28.5 1 0  29.25 1 0  30 1 0  30.75 1 0  31.5 1 0  32.25 1 0  33 1 0  33.75 1 0  34.5 1 0  35.25 1 0  36 1 0  36.75 1 0  37.5 1 0  38.25 1 0  39 1 0  39.75 1 0  40.5 1 0  41.25 1 0  42 1 0  42.75 1 0  43.5 1 0  44.25 1 0  45 1 0  45.75 1 0  46.5 1 0  47.25 1 0  48 1 0  48.75 1 0  49.5 1 0  50.25 1 0  51 1 0  51.75 1 0  52.5 1 0  53.25 1 0  54 1 0  54.75 1 0  55.5 1 0  56.25 1 0  57 1 0  57.75 1 0  58.5 1 0  59.25 1 0  60 1 0  0 1.5 0  0.75 1.5 0  1.5 1.5 0  2.25 1.5 0  3 1.5 0  3.75 1.5 0  4.5 1.5 0  5.25 1.5 0  6 1.5 0  6.75 1.5 0  7.5 1.5 0  8.25 1.5 0  9 1.5 0  9.75 1.5 0  10.5 1.5 0  11.25 1.5 0  12 1.5 0  12.75 1.5 0  13.5 1.5 0  14.25 1.5 0  15 1.5 0  15.75 1.5 0  16.5 1.5 0  17.25 1.5 0  18 1.5 0  18.75 1.5 0  19.5 1.5 0  20.25 1.5 0  21 1.5 0  21.75 1.5 0  22.5 1.5 0  23.25 1.5 0  24 1.5 0  24.75 1.5 0  25.5 1.5 0  26.25 1.5 0  27 1.5 0  27.75 1.5 0  28.5 1.5 0  29.25 1.5 0  30 1.5 0  30.75 1.5 0  31.5 1.5 0  32.25 1.5 0  33 1.5 0  33.75 1.5 0  34.5 1.5 0  35.25 1.5 0  36 1.5 0  36.75 1.5 0  37.5 1.5 0  38.25 1.5 0  39 1.5 0  39.75 1.5 0  40.5 1.5 0  41.25 1.5 0  42 1.5 0  42.75 1.5 0  43.5 1.5 0  44.25 1.5 0  45 1.5 0  45.75 1.5 0  46.5 1.5 0  47.25 1.5 0  48 1.5 0  48.75 1.5 0  49.5 1.5 0  50.25 1.5 0  51 1.5 0  51.75 1.5 0  52.5 1.5 0  53.25 1.5 0  54 1.5 0  54.75 1.5 0  55.5 1.5 0  56.25 1.5 0  57 1.5 0  57.75 1.5 0  58.5 1.5 0  59.25 1.5 0  60 1.5 0  0 2 0  0.75 2 0  1.5 2 0  2.25 2 0  3 2 0  3.75 2 0  4.5 2 0  5.25 2 0  6 2 0  6.75 2 0  7.5 2 0  8.25 2 0  9 2 0  9.75 2 0  10.5 2 0  11.25 2 0  12 2 0  12.75 2 0  13.5 2 0  14.25 2 0  15 2 0  15.75 2 0  16.5 2 0  17.25 2 0  18 2 0  18.75 2 0  19.5 2 0  20.25 2 0  21 2 0  21.75 2 0  22.5 2 0  23.25 2 0  24 2 0  24.75 2 0  25.5 2 0  26.25 2 0  27 2 0  27.75 2 0  28.5 2 0  29.25 2 0  30 2 0  30.75 2 0  31.5 2 0  32.25 2 0  33 2 0  33.75 2 0  34.5 2 0  35.25 2 0  36 2 0  36.75 2 0  37.5 2 0  38.25 2 0  39 2 0  39.75 2 0  40.5 2 0  41.25 2 0  42 2 0  42.75 2 0  43.5 2 0  44.25 2 0  45 2 0  45.75 2 0  46.5 2 0  47.25 2 0  48 2 0  48.75 2 0  49.5 2 0  50.25 2 0  51 2 0  51.75 2 0  52.5 2 0  53.25 2 0  54 2 0  54.75 2 0  55.5 2 0  56.25 2 0  57 2 0  57.75 2 0  58.5 2 0  59.25 2 0  60 2 0  0 2.5 0  0.75 2.5 0  1.5 2.5 0  2.25 2.5 0  3 2.5 0  3.75 2.5 0  4.5 2.5 0  5.25 2.5 0  6 2.5 0  6.75 2.5 0  7.5 2.5 0  8.25 2.5 0  9 2.5 0  9.75 2.5 0  10.5 2.5 0  11.25 2.5 0  12 2.5 0  12.75 2.5 0  13.5 2.5 0  14.25 2.5 0  15 2.5 0  15.75 2.5 0  16.5 2.5 0  17.25 2.5 0  18 2.5 0  18.75 2.5 0  19.5 2.5 0  20.25 2.5 0  21 2.5 0  21.75 2.5 0  22.5 2.5 0  23.25 2.5 0  24 2.5 0  24.75 2.5 0  25.5 2.5 0  26.25 2.5 0  27 2.5 0  27.75 2.5 0  28.5 2.5 0  29.25 2.5 0  30 2.5 0  30.75 2.5 0  31.5 2.5 0  32.25 2.5 0  33 2.5 0  33.75 2.5 0  34.5 2.5 0  35.25 2.5 0  36 2.5 0  36.75 2.5 0  37.5 2.5 0  38.25 2.5 0  39 2.5 0  39.75 2.5 0  40.5 2.5 0  41.25 2.5 0  42 2.5 0  42.75 2.5 0  43.5 2.5 0  44.25 2.5 0  45 2.5 0  45.75 2.5 0  46.5 2.5 0  47.25 2.5 0  48 2.5 0  48.75 2.5 0  49.5 2.5 0  50.25 2.5 0  51 2.5 0  51.75 2.5 0  52.5 2.5 0  53.25 2.5 0  54 2.5 0  54.75 2.5 0  55.5 2.5 0  56.25 2.5 0  57 2.5 0  57.75 2.5 0  58.5 2.5 0  59.25 2.5 0  60 2.5 0  0 3 0  0.75 3 0  1.5 3 0  2.25 3 0  3 3 0  3.75 3 0  4.5 3 0  5.25 3 0  6 3 0  6.75 3 0  7.5 3 0  8.25 3 0  9 3 0  9.75 3 0  10.5 3 0  11.25 3 0  12 3 0  12.75 3 0  13.5 3 0  14.25 3 0  15 3 0  15.75 3 0  16.5 3 0  17.25 3 0  18 3 0  18.75 3 0  19.5 3 0  20.25 3 0  21 3 0  21.75 3 0  22.5 3 0  23.25 3 0  24 3 0  24.75 3 0  25.5 3 0  26.25 3 0  27 3 0  27.75 3 0  28.5 3 0  29.25 3 0  30 3 0  30.75 3 0  31.5 3 0  32.25 3 0  33 3 0  33.75 3 0  34.5 3 0  35.25 3 0  36 3 0  36.75 3 0  37.5 3 0  38.25 3 0  39 3 0  39.75 3 0  40.5 3 0  41.25 3 0  42 3 0  42.75 3 0  43.5 3 0  44.25 3 0  45 3 0  45.75 3 0  46.5 3 0  47.25 3 0  48 3 0  48.75 3 0  49.5 3 0  50.25 3 0  51 3 0  51.75 3 0  52.5 3 0  53.25 3 0  54 3 0  54.75 3 0  55.5 3 0  56.25 3 0  57 3 0  57.75 3 0  58.5 3 0  59.25 3 0  60 3 0  0 3.5 0  0.75 3.5 0  1.5 3.5 0  2.25 3.5 0  3 3.5 0  3.75 3.5 0  4.5 3.5 0  5.25 3.5 0  6 3.5 0  6.75 3.5 0  7.5 3.5 0  8.25 3.5 0  9 3.5 0  9.75 3.5 0  10.5 3.5 0  11.25 3.5 0  12 3.5 0  12.75 3.5 0  13.5 3.5 0  14.25 3.5 0  15 3.5 0  15.75 3.5 0  16.5 3.5 0  17.25 3.5 0  18 3.5 0  18.75 3.5 0  19.5 3.5 0  20.25 3.5 0  21 3.5 0  21.75 3.5 0  22.5 3.5 0  23.25 3.5 0  24 3.5 0  24.75 3.5 0  25.5 3.5 0  26.25 3.5 0  27 3.5 0  27.75 3.5 0  28.5 3.5 0  29.25 3.5 0  30 3.5 0  30.75 3.5 0  31.5 3.5 0  32.25 3.5 0  33 3.5 0  33.75 3.5 0  34.5 3.5 0  35.25 3.5 0  36 3.5 0  36.75 3.5 0  37.5 3.5 0  38.25 3.5 0  39 3.5 0  39.75 3.5 0  40.5 3.5 0  41.25 3.5 0  42 3.5 0  42.75 3.5 0  43.5 3.5 0  44.25 3.5 0  45 3.5 0  45.75 3.5 0  46.5 3.5 0  47.25 3.5 0  48 3.5 0  48.75 3.5 0  49.5 3.5 0  50.25 3.5 0  51 3.5 0  51.75 3.5 0  52.5 3.5 0  53.25 3.5 0  54 3.5 0  54.75 3.5 0  55.5 3.5 0  56.25 3.5 0  57 3.5 0  57.75 3.5 0  58.5 3.5 0  59.25 3.5 0  60 3.5 0  0 4 0  0.75 4 0  1.5 4 0  2.25 4 0  3 4 0  3.75 4 0  4.5 4 0  5.25 4 0  6 4 0  6.75 4 0  7.5 4 0  8.25 4 0  9 4 0  9.75 4 0  10.5 4 0  11.25 4 0  12 4 0  12.75 4 0  13.5 4 0  14.25 4 0  15 4 0  15.75 4 0  16.5 4 0  17.25 4 0  18 4 0  18.75 4 0  19.5 4 0  20.25 4 0  21 4 0  21.75 4 0  22.5 4 0  23.25 4 0  24 4 0  24.75 4 0  25.5 4 0  26.25 4 0  27 4 0  27.75 4 0  28.5 4 0  29.25 4 0  30 4 0  30.75 4 0  31.5 4 0  32.25 4 0  33 4 0  33.75 4 0  34.5 4 0  35.25 4 0  36 4 0  36.75 4 0  37.5 4 0  38.25 4 0  39 4 0  39.75 4 0  40.5 4 0  41.25 4 0  42 4 0  42.75 4 0  43.5 4 0  44.25 4 0  45 4 0  45.75 4 0  46.5 4 0  47.25 4 0  48 4 0  48.75 4 0  49.5 4 0  50.25 4 0  51 4 0  51.75 4 0  52.5 4 0  53.25 4 0  54 4 0  54.75 4 0  55.5 4 0  56.25 4 0  57 4 0  57.75 4 0  58.5 4 0  59.25 4 0  60 4 0  0.375 0.25 0  1.125 0.25 0  1.875 0.25 0  2.625 0.25 0  3.375 0.25 0  4.125 0.25 0  4.875 0.25 0  5.625 0.25 0  6.375 0.25 0  7.125 0.25 0  7.875 0.25 0  8.625 0.25 0  9.375 0.25 0  10.125 0.25 0  10.875 0.25 0  11.625 0.25 0  12.375 0.25 0  13.125 0.25 0  13.875 0.25 0  14.625 0.25 0  15.375 0.25 0  16.125 0.25 0  16.875 0.25 0  17.625 0.25 0  18.375 0.25 0  19.125 0.25 0  19.875 0.25 0  20.625 0.25 0  21.375 0.25 0  22.125 0.25 0  22.875 0.25 0  23.625 0.25 0  24.375 0.25 0  25.125 0.25 0  25.875 0.25 0  26.625 0.25 0  27.375 0.25 0  28.125 0.25 0  28.875 0.25 0  29.625 0.25 0  30.375 0.25 0  31.125 0.25 0  31.875 0.25 0  32.625 0.25 0  33.375 0.25 0  34.125 0.25 0  34.875 0.25 0  35.625 0.25 0  36.375 0.25 0  37.125 0.25 0  37.875 0.25 0  38.625 0.25 0  39.375 0.25 0  40.125 0.25 0  40.875 0.25 0  41.625 0.25 0  42.375 0.25 0  43.125 0.25 0  43.875 0.25 0  44.625 0.25 0  45.375 0.25 0  46.125 0.25 0  46.875 0.25 0  47.625 0.25 0  48.375 0.25 0  49.125 0.25 0  49.875 0.25 0  50.625 0.25 0  51.375 0.25 0  52.125 0.25 0  52.875 0.25 0  53.625 0.25 0  54.375 0.25 0  55.125 0.25 0  55.875 0.25 0  56.625 0.25 0  57.375 0.25 0  58.125 0.25 0  58.875 0.25 0  59.625 0.25 0  0.375 0.75 0  1.125 0.75 0  1.875 0.75 0  2.625 0.75 0  3.375 0.75 0  4.125 0.75 0  4.875 0.75 0  5.625 0.75 0  6.375 0.75 0  7.125 0.75 0  7.875 0.75 0  8.625 0.75 0  9.375 0.75 0  10.125 0.75 0  10.875 0.75 0  11.625 0.75 0  12.375 0.75 0  13.125 0.75 0  13.875 0.75 0  14.625 0.75 0  15.375 0.75 0  16.125 0.75 0  16.875 0.75 0  17.625 0.75 0  18.375 0.75 0  19.125 0.75 0  19.875 0.75 0  20.625 0.75 0  21.375 0.75 0  22.125 0.75 0  22.875 0.75 0  23.625 0.75 0  24.375 0.75 0  25.125 0.75 0  25.875 0.75 0  26.625 0.75 0  27.375 0.75 0  28.125 0.75 0  28.875 0.75 0  29.625 0.75 0  30.375 0.75 0  31.125 0.75 0  31.875 0.75 0  32.625 0.75 0  33.375 0.75 0  34.125 0.75 0  34.875 0.75 0  35.625 0.75 0  36.375 0.75 0  37.125 0.75 0  37.875 0.75 0  38.625 0.75 0  39.375 0.75 0  40.125 0.75 0  40
[...]
<PointData  Vectors="f_8-0"> 
<DataArray  type="Float64"  Name="f_8-0"  NumberOfComponents="3" format="ascii">0.0000000000000000e+00 0.0000000000000000e+00 0.0000000000000000e+00  0.0000000000000000e+00 0.0000000000000000e+00 0.0000000000000000e+00  0.0000000000000000e+00 0.0000000000000000e+00 0.0000000000000000e+00  0.0000000000000000e+00 0.0000000000000000e+00 0.0000000000000000e+00  0.0000000000000000e+00 0.0000000000000000e+00 0.0000000000000000e+00  0.0000000000000000e+00 0.0000000000000000e+00 0.0000000000000000e+00  0.0000000000000000e+00 0.0000000000000000e+00 0.0000000000000000e+00  0.0000000000000000e+00 0.0000000000000000e+00 0.0000000000000000e+00  0.0000000000000000e+00 0.0000000000000000e+00 0.0000000000000000e+00  0.0000000000000000e+00 0.0000000000000000e+00 0.0000000000000000e+00  0.0000000000000000e+00 0.0000000000000000e+00 0.0000000000000000e+00  0.0000000000000000e+00 0.0000000000000000e+00 0.0000000000000000e+00  0.0000000000000000e+00 0.0000000000000000e+00 0.0000000000000000e+00  0.0000000000000000e+00 0.0000000000000000e+00 0.0000000000000000e+00  0.0000000000000000e+00 0.0000000000000000e+00 0.0000000000000000e+00  0.0000000000000000e+00 0.0000000000000000e+00 0.0000000000000000e+00  0.0000000000000000e+00 0.0000000000000000e+00 0.0000000000000000e+00  0.0000000000000000e+00 0.0000000000000000e+00 0.0000000000000000e+00  0.0000000000000000e+00 0.0000000000000000e+00 0.0000000000000000e+00  0.0000000000000000e+00 0.0000000000000000e+00 0.0000000000000000e+00  0.0000000000000000e+00 0.0000000000000000e+00 0.0000000000000000e+00  0.0000000000000000e+00 0.0000000000000000e+00 0.0000000000000000e+00  0.0000000000000000e+00 0.0000000000000000e+00 0.0000000000000000e+00  0.0000000000000000e+00 0.0000000000000000e+00 0.0000000000000000e+00  0.0000000000000000e+00 0.0000000000000000e+00 0.0000000000000000e+00  0.0000000000000000e+00 0.0000000000000000e+00 0.0000000000000000e+00  0.0000000000000000e+00 0.0000000000000000e+00 0.0000000000000000e+00  0.0000000000000000e+00 0.0000000000000000e+00 0.0000000000000000e+00  0.0000000000000000e+00 0.0000000000000000e+00 0.0000000000000000e+00  0.0000000000000000e+00 0.0000000000000000e+00 0.0000000000000000e+00  0.0000000000000000e+00 0.0000000000000000e+00 0.0000000000000000e+00  0.0000000000000000e+00 0.0000000000000000e+00 0.0000000000000000e+00  0.0000000000000000e+00 0.0000000000000000e+00 0.0000000000000000e+00  0.0000000000000000e+00 0.0000000000000000e+00 0.0000000000000000e+00  0.0000000000000000e+00 0.0000000000000000e+00 0.0000000000000000e+00  0.0000000000000000e+00 0.0000000000000000e+00 0.0000000000000000e+00  0.0000000000000000e+00 0.0000000000000000e+00 0.0000000000000000e+00  0.0000000000000000e+00 0.0000000000000000e+00 0.0000000000000000e+00  0.0000000000000000e+00 0.0000000000000000e+00 0.0000000000000000e+00  0.0000000000000000e+00 0.0000000000000000e+00 0.0000000000000000e+00  0.0000000000000000e+00 0.0000000000000000e+00 0.0000000000000000e+00  0.0000000000000000e+00 0.0000000000000000e+00 0.0000000000000000e+00  0.0000000000000000e+00 0.0000000000000000e+00 0.0000000000000000e+00  0.0000000000000000e+00 0.0000000000000000e+00 0.0000000000000000e+00  0.0000000000000000e+00 0.0000000000000000e+00 0.0000000000000000e+00  0.0000000000000000e+00 0.0000000000000000e+00 0.0000000000000000e+00  0.0000000000000000e+00 0.0000000000000000e+00 0.0000000000000000e+00  0.0000000000000000e+00 0.0000000000000000e+00 0.0000000000000000e+00  0.0000000000000000e+00 0.0000000000000000e+00 0.0000000000000000e+00  0.0000000000000000e+00 0.0000000000000000e+00 0.0000000000000000e+00  0.0000000000000000e+00 0.0000000000000000e+00 0.0000000000000000e+00  0.0000000000000000e+00 0.0000000000000000e+00 0.0000000000000000e+00  0.0000000000000000e+00 0.0000000000000000e+00 0.0000000000000000e+00  0.0000000000000000e+00 0.0000000000000000e+00 0.0000000000000000e+00  0.0000000000000000e+00 0.0000000000000000e+00 0.0000000000000000e+00  0.0000000000000000e+00 0.0000000000000000e+00 0.0000000000000000e+00  0.0000000000000000e+00 0.0000000000000000e+00 0.0000000000000000e+00  0.0000000000000000e+00 0.0000000000000000e+00 0.0000000000000000e+00  0.0000000000000000e+00 0.0000000000000000e+00 0.0000000000000000e+00  0.0000000000000000e+00 0.0000000000000000e+00 0.0000000000000000e+00  0.0000000000000000e+00 0.0000000000000000e+00 0.0000000000000000e+00  0.0000000000000000e+00 0.0000000000000000e+00 0.0000000000000000e+00  0.0000000000000000e+00 0.0000000000000000e+00 0.0000000000000000e+00  0.0000000000000000e+00 0.0000000000000000e+00 0.0000000000000000e+00  0.0000000000000000e+00 0.0000000000000000e+00 0.0000000000000000e+00  0.0000000000000000e+00 0.0000000000000000e+00 0.0000000000000000e+00  0.0000000000000000e+00 0.0000000000000000e+00 0.0000000000000000e+00  0.0000000000000000e+00 0.0000000000000000e+00 0.0000000000000000e+00  0.0000000000000000e+00 0.0000000000000000e+00 0.0000000000000000e+00  0.0000000000000000e+00 0.0000000000000000e+00 0.0000000000000000e+00  0.0000000000000000e+00 0.0000000000000000e+00 0.0000000000000000e+00  0.0000000000000000e+00 0.0000000000000000e+00 0.0000000000000000e+00  0.0000000000000000e+00 0.0000000000000000e+00 0.0000000000000000e+00  0.0000000000000000e+00 0.0000000000000000e+00 0.0000000000000000e+00  0.0000000000000000e+00 0.0000000000000000e+00 0.0000000000000000e+00  0.0000000000000000e+00 0.0000000000000000e+00 0.0000000000000000e+00  0.0000000000000000e+00 0.0000000000000000e+00 0.0000000000000000e+00  0.0000000000000000e+00 0.0000000000000000e+00 0.0000000000000000e+00  0.0000000000000000e+00 0.0000000000000000e+00 0.0000000000000000e+00  0.0000000000000000e+00 0.0000000000000000e+00 0.0000000000000000e+00  0.0000000000000000e+00 0.0000000000000000e+00 0.0000000000000000e+00  -2.7224707542611693e+01 0.0000000000000000e+00 0.0000000000000000e+00  -2.7218422400471251e+01 9.0843070233917881e-05 0.0000000000000000e+00  -2.7215597712944174e+01 1.3233360898898434e-04 0.0000000000000000e+00  -2.7215392342731427e+01 5.3670731573710451e-06 0.0000000000000000e+00  -2.7215027661174936e+01 -1.6493017117425691e-04 0.0000000000000000e+00  -2.7214367862825846e+01 -2.9535921995909171e-04 0.0000000000000000e+00  -2.7213536515008276e+01 -3.5634565954171789e-04 0.0000000000000000e+00  -2.7212724985846485e+01 -3.3665648687622994e-04 0.0000000000000000e+00  -2.7212080099756079e+01 -2.6516029044849416e-04 0.0000000000000000e+00  -2.7211640815006902e+01 -1.8500597100107874e-04 0.0000000000000000e+00  -2.7211372657556161e+01 -1.2052759079857448e-04 0.0000000000000000e+00  -2.7211221430390850e+01 -7.7374133535182012e-05 0.0000000000000000e+00  -2.7211140939782620e+01 -5.1502568944804960e-05 0.0000000000000000e+00  -2.7211099852146582e+01 -3.7200830086238830e-05 0.0000000000000000e+00  -2.7211079475744050e+01 -2.9687051740424281e-05 0.0000000000000000e+00  -2.7211069567160720e+01 -2.5907170696714804e-05 0.0000000000000000e+00  -2.7211064804311082e+01 -2.4041005476541193e-05 0.0000000000000000e+00  -2.7211062528808704e+01 -2.3140929678616790e-05 0.0000000000000000e+00  -2.7211061441368809e+01 -2.2705432014219876e-05 0.0000000000000000e+00  -2.7211060920307713e+01 -2.2498325359298460e-05 0.0000000000000000e+00  -2.7211060668717021e+01 -2.2397813460501469e-05 0.0000000000000000e+00  -2.7211060546652398e+01 -2.2350030080226180e-05 0.0000000000000000e+00  -2.7211060486822255e+01 -2.2326502655776854e-05 0.0000000000000000e+00  -2.7211060457467426e+01 -2.2315256419732106e-05 0.0000000000000000e+00  -2.7211060442901232e+01 -2.2309626909236667e-05 0.0000000000000000e+00  -2.7211060435716600e+01 -2.2306916973441598e-05 0.0000000000000000e+00  -2.7211060432122554e+01 -2.2305545896470671e-05 0.0000000000000000e+00  -2.7211060430351104e+01 -2.2304879340093110e-05 0.0000000000000000e+00  -2.7211060429458684e+01 -2.2304545125246641e-05 0.0000000000000000e+00  -2.7211060429021931e+01 -2.2304376789327808e-05 0.0000000000000000e+00  -2.7211060428800330e+01 -2.2304297172120850e-05 0.0000000000000000e+00  -2.7211060428693010e+01 -2.2304253675325078e-05 0.0000000000000000e+00  -2.7211060428637506e+01 -2.2304236409240649e-05 0.0000000000000000e+00  -2.7211060428611557e+01 -2.2304223384616660e-05 0.0000000000000000e+00  -2.7211060428598500e+01 -2.2304220027761278e-05 0.0000000000000000e+00  -2.7211060428591864e+01 -2.2304216436552585e-05 0.0000000000000000e+00  -2.7211060428588162e+01 -2.2304215494759439e-05 0.0000000000000000e+00  -2.7211060428586968e+01 -2.2304215043642377e-05 0.0000000000000000e+00  -2.7211060428585292e+01 -2.2304213813180626e-05 0.0000000000000000e+00  -2.7211060428588365e+01 -2.2304215339458208e-05 0.0000000000000000e+00  -2.7211060428581760e+01 -2.2304211885802657e-05 0.0000000000000000e+00  -2.7211060428593882e+01 -2.2304219743619482e-05 0.0000000000000000e+00  -2.7211060428568523e+01 -2.2304203605215080e-05 0.0000000000000000e+00  -2.7211060428618435e+01 -2.2304237069013094e-05 0.0000000000000000e+00  -2.7211060428516973e+01 -2.2304170280607965e-05 0.0000000000000000e+00  -2.7211060428714891e+01 -2.2304303063144979e-05 0.0000000000000000e+00  -2.7211060428318333e+01 -2.2304041532351091e-05 0.0000000000000000e+00  -2.7211060429083371e+01 -2.2304555874101955e-05 0.0000000000000000e+00  -2.7211060427569485e+01 -2.2303559944162888e-05 0.0000000000000000e+00  -2.7211060430444178e+01 -2.2305489505620636e-05 0.0000000000000000e+00  -2.7211060424841179e+01 -2.2301815031570193e-05 0.0000000000000000e+00  -2.7211060435269289e+01 -2.2308815940550036e-05 0.0000000000000000e+00  -2.7211060415279281e+01 -2.2295742979621114e-05 0.0000000000000000e+00  -2.7211060451573196e+01 -2.2320167306983761e-05 0.0000000000000000e+00  -2.7211060383321996e+01 -2.2275598532786006e-05 0.0000000000000000e+00  -2.7211060503463354e+01 -2.2357049496154248e-05 0.0000000000000000e+00  -2.7211060282305827e+01 -2.2212348922990595e-05 0.0000000000000000e+00  -2.7211060656713254e+01 -2.2470424203968004e-05 0.0000000000000000e+00  -2.7211059982647853e+01 -2.2025767778254449e-05 0.0000000000000000e+00  -2.7211061068596955e+01 -2.2799072809528724e-05 0.0000000000000000e+00  -2.7211059151590533e+01 -2.1510358847274889e-05 0.0000000000000000e+00  -2.7211062051348026e+01 -2.3701105221679035e-05 0.0000000000000000e+00  -2.7211056981235426e+01 -2.0166851995491759e-05 0.0000000000000000e+00  -2.7211064078453362e+01 -2.6078071924220299e-05 0.0000000000000000e+00  -2.7211051530992915e+01 -1.6757519419291401e-05 0.0000000000000000e+00  -2.7211067675208980e+01 -3.2141423326967701e-05 0.0000000000000000e+00  -2.7211038192574588e+01 -7.8579720555856817e-06 0.0000000000000000e+00  -2.7211072731568464e+01 -4.6884047861635269e-05 0.0000000000000000e+00  -2.7211003187246092e+01 1.4298665295760126e-05 0.0000000000000000e+00  -2.7211047713955296e+01 -9.0929366564156087e-05 0.0000000000000000e+00  -2.7210814568242963e+01 1.5249687049545302e-05 0.0000000000000000e+00  -2.7210534633674214e+01 -3.5936442605764092e-04 0.0000000000000000e+00  -2.7209457099119110e+01 -3.6699711721223480e-04 0.0000000000000000e+00  -2.7207795416233168e+01 -1.1461003127166685e-03 0.0000000000000000e+00  -2.7206174660371978e+01 -1.4459821328682810e-04 0.0000000000000000e+00  -2.7203791602605300e+01 4.4460753424021676e-04 0.0000000000000000e+00  -2.7201651517865528e+01 2.3761819573239139e-03 0.0000000000000000e+00  -2.7197053850461391e+01 4.5861323765001667e-03 0.0000000000000000e+00  -2.7194806078819720e+01 4.2281445152554864e-03 0.0000000000000000e+00  -2.7184039265878646e+01 -3.5686379261804435e-03 0.0000000000000000e+00  -2.7161385547570728e+01 0.0000000000000000e+00 0.0000000000000000e+00  -3.3919870957987271e+01 0.0000000000000000e+00 0.0000000000000000e+00  -3.3922425323128323e+01 2.6779937591822037e-03 0.0000000000000000e+00  -3.3921340323139361e+01 3.0453648096332932e-03 0.0000000000000000e+00  -3.3920310964469017e+01 2.6498328829006861e-03 0.0000000000000000e+00  -3.3919565143186723e+01 2.3092286346948656e-03 0.0000000000000000e+00  -3.3918937176427555e+01 2.0887018439944404e-03 0.0000000000000000e+00  -3.3918399610956271e+01 2.0499215243330181e-03 0.0000000000000000e+00  -3.3918036401248933e+01 2.2011897396079319e-03 0.0000000000000000e+00  -3.3917875988443804e+01 2.4225643291579248e-03 0.0000000000000000e+00  -3.3917840307081711e+01 2.6086536412919838e-03 0.0000000000000000e+00  -3.3917848938492618e+01 2.7339356834038321e-03 0.0000000000000000e+00  -3.3917864256105943e+01 2.8087359430743674e-03 0.0000000000000000e+00  -3.3917875298002095e+01 2.8506656665417923e-03 0.0000000000000000e+00  -3.3917881482426367e+01 2.8729924550267606e-03 0.0000000000000000e+00  -3.3917884488533467e+01 2.8845504017557234e-03 0.0000000000000000e+00  -3.3917885875285023e+01 2.8903248877357158e-03 0.0000000000000000e+00  -3.3917886492008734e+01 2.8931830949377470e-03 0.0000000000000000e+00  -3.3917886774383852e+01 2.8945592723710694e-03 0.0000000000000000e+00  -3.3917886900160532e+01 2.8952297375362279e-03 0.0000000000000000e+00  -3.3917886959791453e+01 2.8955473306555546e-03 0.0000000000000000e+00  -3.3917886986221959e+01 2.8957034198158543e-03 0.0000000000000000e+00  -3.3917886999383065e+01 2.8957770035205012e-03 0.0000000000000000e+00  -3.3917887005153283e+01 2.8958139785979450e-03 0.0000000000000000e+00  -3.3917887008260521e+01 2.8958313278249722e-03 0.0000000000000000e+00  -3.3917887009590956e+01 2.8958402861255380e-03 0.0000000000000000e+00  -3.3917887010374763e+01 2.8958444414565049e-03 0.0000000000000000e+00  -3.3917887010692304e+01 2.8958466547799122e-03 0.0000000000000000e+00  -3.3917887010894766e+01 2.8958476609593420e-03 0.0000000000000000e+00  -3.3917887010971981e+01 2.8958482115772478e-03 0.0000000000000000e+00  -3.3917887011023495e+01 2.8958484584655155e-03 0.0000000000000000e+00  -3.3917887011044044e+01 2.8958485929761204e-03 0.0000000000000000e+00  -3.3917887011055520e+01 2.8958486553471545e-03 0.0000000000000000e+00  -3.3917887011061516e+01 2.8958486873168865e-03 0.0000000000000000e+00  -3.3917887011063243e+01 2.8958487051159391e-03 0.0000000000000000e+00  -3.3917887011066384e+01 2.8958487101196128e-03 0.0000000000000000e+00  -3.3917887011065474e+01 2.8958487168073712e-03 0.0000000000000000e+00  -3.3917887011067627e+01 2.8958487164094169e-03 0.0000000000000000e+00  -3.3917887011065496e+01 2.8958487202629768e-03 0.0000000000000000e+00  -3.3917887011070370e+01 2.8958487184837641e-03 0.0000000000000000e+00  -3.3917887011062675e+01 2.8958487205026431e-03 0.0000000000000000e+00  -3.3917887011077298e+01 2.8958487163892425e-03 0.0000000000000000e+00  -3.3917887011047220e+01 2.8958487244832797e-03 0.0000000000000000e+00  -3.3917887011105812e+01 2.8958487085970030e-03 0.0000000000000000e+00  -3.3917887010988309e+01 2.8958487386436913e-03 0.0000000000000000e+00  -3.3917887011217992e+01 2.8958486788856854e-03 0.0000000000000000e+00  -3.3917887010761639e+01 2.8958487940916838e-03 0.0000000000000000e+00  -3.3917887011642762e+01 2.8958485645658436e-03 0.0000000000000000e+00  -3.3917887009919106e+01 2.8958489955974334e-03 0.0000000000000000e+00  -3.3917887013185158e+01 2.8958481503357576e-03 0.0000000000000000e+00  -3.3917887006900820e+01 2.8958497080523241e-03 0.0000000000000000e+00  -3.3917887018564400e+01 2.8958466934517584e-03 0.0000000000000000e+00  -3.3917886996551758e+01 2.8958521069944536e-03 0.0000000000000000e+00  -3.3917887036347139e+01 2.8958418002981226e-03 0.0000000000000000e+00  -3.3917886962898358e+01 2.8958597273158375e-03 0.0000000000000000e+00  -3.3917887091425534e+01 2.8958261407442004e-03 0.0000000000000000e+00  -3.3917886860273050e+01 2.8958822859695556e-03 0.0000000000000000e+00  -3.3917887248339824e+01 2.8957785268238128e-03 0.0000000000000000e+00  -3.3917886570448964e+01 2.8959435596074812e-03 0.0000000000000000e+00  -3.3917887648986650e+01 2.8956404668430882e-03 0.0000000000000000e+00  -3.3917885821122745e+01 2.8960934751015742e-03 0.0000000000000000e+00  -3.3917888529890760e+01 2.8952529733528736e-03 0.0000000000000000e+00  -3.3917884049034626e+01 2.8964173680372184e-03 0.0000000000000000e+00  -3.3917890082183902e+01 2.8941725779880081e-03 0.0000000000000000e+00  -3.3917880081898090e+01 2.8970298916638371e-03 0.0000000000000000e+00  -3.3917891849217604e+01 2.8911276444871358e-03 0.0000000000000000e+00  -3.3917870718711299e+01 2.8980572987630034e-03 0.0000000000000000e+00  -3.3917890382631718e+01 2.8822854761483309e-03 0.0000000000000000e+00  -3.3917842770827171e+01 2.8976167680761808e-03 0.0000000000000000e+00  -3.3917861328039194e+01 2.8469202179555227e-03 0.0000000000000000e+00  -3.3917724388377813e+01 2.8469051181138827e-03 0.0000000000000000e+00  -3.3917643759721507e+01 2.5985349320503609e-03 0.0000000000000000e+00  -3.3917192616142330e+01 2.3292973990448923e-03 0.0000000000000000e+00  -3.3916663453287569e+01 1.3707951269346572e-03 0.0000000000000000e+00  -3.3915078109934626e+01 6.9210131961904725e-04 0.0000000000000000e+00  -3.3911390328611084e+01 -9.8011098818767510e-04 0.0000000000000000e+00  -3.3902276595501078e+01 -2.5724986494627356e-03 0.0000000000000000e+00  -3.3892312088552799e+01 -3.4161589610248629e-03 0.0000000000000000e+00  -3.3883769386607845e+01 -4.6520284218308543e-04 0.0000000000000000e+00  -3.3880042361867858e+01 -1.8060163888147414e-03 0.0000000000000000e+00  -3.3884458725411264e+01 3.7725867996856177e-03 0.0000000000000000e+00  -3.3897392477013611e+01 0.0000000000000000e+00 0.0000000000000000e+00  -3.2925784321192729e+01 0.0000000000000000e+00 0.0000000000000000e+00  -3.2922830130565252e+01 8.8553509295002632e-05 0.0000000000000000e+00  -3.2921743864551615e+01 1.5861284474159899e-05 0.0000000000000000e+00  -3.2921441089463634e+01 -2.4467276591348187e-04 0.0000000000000000e+00  -3.2921691865954557e+01 -4.6661813646923725e-04 0.0000000000000000e+00  -3.2922268995012715e+01 -6.0725530094936809e-04 0.0000000000000000e+00  -3.2922981641143437e+01 -5.9993289380251070e-04 0.0000000000000000e+00  -3.2923640618449269e+01 -4.1452903989516629e-04 0.0000000000000000e+00  -3.2924136560251078e+01 -1.8844892862272445e-04 0.0000000000000000e+00  -3.2924459069724271e+01 -2.7957993030614976e-05 0.0000000000000000e+00  -3.2924649102367717e+01 6.5219454946847746e-05 0.0000000000000000e+00  -3.2924753674836040e+01 1.1569233458304134e-04 0.0000000000000000e+00  -3.2924808676246023e+01 1.4249988020344161e-04 0.0000000000000000e+00  -3.2924836658793886e+01 1.5642720731517956e-04 0.0000000000000000e+00  -3.2924850628134266e+01 1.6361075614121270e-04 0.0000000000000000e+00  -3.2924857480085194e+01 1.6723511088650867e-04 0.0000000000000000e+00  -3.2924860820672222e+01 1.6905467634764488e-04 0.0000000000000000e+00  -3.2924862428488716e+01 1.6994304941538035e-04 0.0000000000000000e+00  -3.2924863206510210e+01 1.7037989391517367e-04 0.0000000000000000e+00  -3.2924863578665935e+01 1.7058865733785597e-04 0.0000000000000000e+00  -3.2924863760366890e+01 1.7069160496300568e-04 0.0000000000000000e+00  -3.2924863847501236e+01 1.7074042477805009e-04 0.0000000000000000e+00  -3.2924863890921849e+01 1.7076492123603416e-04 0.0000000000000000e+00  -3.2924863911730284e+01 1.7077648019182264e-04 0.0000000000000000e+00  -3.2924863922372573e+01 1.7078240972464735e-04 0.0000000000000000e+00  -3.2924863927399528e+01 1.7078518178966848e-04 0.0000000000000000e+00  -3.2924863930057832e+01 1.7078664397078832e-04 0.0000000000000000e+00  -3.2924863931271865e+01 1.7078731392903201e-04 0.0000000000000000e+00  -3.2924863931942596e+01 1.7078767814645025e-04 0.0000000000000000e+00  -3.2924863932235752e+01 1.7078784008781048e-04 0.0000000000000000e+00  -3.2924863932404875e+01 1.7078793035231216e-04 0.0000000000000000e+00  -3.2924863932476129e+01 1.7078797031461746e-04 0.0000000000000000e+00  -3.2924863932518569e+01 1.7078799206766230e-04 0.0000000000000000e+00  -3.2924863932536041e+01 1.7078800239976247e-04 0.0000000000000000e+00  -3.2924863932545676e+01 1.7078800756906959e-04 0.0000000000000000e+00  -3.2924863932551688e+01 1.7078801005175856e-04 0.0000000000000000e+00  -3.2924863932552142e+01 1.7078801082811882e-04 0.0000000000000000e+00  -3.292486