<?xml version="1.0"?>
<VTKFile type="UnstructuredGrid"  version="0.1"  >
<UnstructuredGrid>
<Piece  NumberOfPoints="1369" NumberOfCells="2560">
<Points>
<DataArray  type="Float64"  NumberOfComponents="3"  format="ascii">0 0 0  0.75 0 0  1.5 0 0  2.25 0 0  3 0 0  3.75 0 0  4.5 0 0  5.25 0 0  6 0 0  6.75 0 0  7.5 0 0  8.25 0 0  9 0 0  9.75 0 0  10.5 0 0  11.25 0 0  12 0 0  12.75 0 0  13.5 0 0  14.25 0 0  15 0 0  15.75 0 0  16.5 0 0  17.25 0 0  18 0 0  18.75 0 0  19.5 0 0  20.25 0 0  21 0 0  21.75 0 0  22.5 0 0  23.25 0 0  24 0 0  24.75 0 0  25.5 0 0  26.25 0 0  27 0 0  27.75 0 0  28.5 0 0  29.25 0 0  30 0 0  30.75 0 0  31.5 0 0  32.25 0 0  33 0 0  33.75 0 0  34.5 0 0  35.25 0 0  36 0 0  36.75 0 0  37.5 0 0  38.25 0 0  39 0 0  39.75 0 0  40.5 0 0  41.25 0 0  42 0 0  42.75 0 0  43.5 0 0  44.25 0 0  45 0 0  45.75 0 0  46.5 0 0  47.25 0 0  48 0 0  48.75 0 0  49.5 0 0  50.25 0 0  51 0 0  51.75 0 0  52.5 0 0  53.25 0 0  54 0 0  54.75 0 0  55.5 0 0  56.25 0 0  57 0 0  57.75 0 0  58.5 0 0  59.25 0 0  60 0 0  0 0.5 0  0.75 0.5 0  1.5 0.5 0  2.25 0.5 0  3 0.5 0  3.75 0.5 0  4.5 0.5 0  5.25 0.5 0  6 0.5 0  6.75 0.5 0  7.5 0.5 0  8.25 0.5 0  9 0.5 0  9.75 0.5 0  10.5 0.5 0  11.25 0.5 0  12 0.5 0  12.75 0.5 0  13.5 0.5 0  14.25 0.5 0  15 0.5 0  15.75 0.5 0  16.5 0.5 0  17.25 0.5 0  18 0.5 0  18.75 0.5 0  19.5 0.5 0  20.25 0.5 0  21 0.5 0  21.75 0.5 0  22.5 0.5 0  23.25 0.5 0  24 0.5 0  24.75 0.5 0  25.5 0.5 0  26.25 0.5 0  27 0.5 0  27.75 0.5 0  28.5 0.5 0  29.25 0.5 0  30 0.5 0  30.75 0.5 0  31.5 0.5 0  32.25 0.5 0  33 0.5 0  33.75 0.5 0  34.5 0.5 0  35.25 0.5 0  36 0.5 0  36.75 0.5 0  37.5 0.5 0  38.25 0.5 0  39 0.5 0  39.75 0.5 0  40.5 0.5 0  41.25 0.5 0  42 0.5 0  42.75 0.5 0  43.5 0.5 0  44.25 0.5 0  45 0.5 0  45.75 0.5 0  46.5 0.5 0  47.25 0.5 0  48 0.5 0  48.75 0.5 0  49.5 0.5 0  50.25 0.5 0  51 0.5 0  51.75 0.5 0  52.5 0.5 0  53.25 0.5 0  54 0.5 0  54.75 0.5 0  55.5 0.5 0  56.25 0.5 0  57 0.5 0  57.75 0.5 0  58.5 0.5 0  59.25 0.5 0  60 0.5 0  0 1 0  0.75 1 0  1.5 1 0  2.25 1 0  3 1 0  3.75 1 0  4.5 1 0  5.25 1 0  6 1 0  6.75 1 0  7.5 1 0  8.25 1 0  9 1 0  9.75 1 0  10.5 1 0  11.25 1 0  12 1 0  12.75 1 0  13.5 1 0  14.25 1 0  15 1 0  15.75 1 0  16.5 1 0  17.25 1 0  18 1 0  18.75 1 0  19.5 1 0  20.25 1 0  21 1 0  21.75 1 0  22.5 1 0  23.25 1 0  24 1 0  24.75 1 0  25.5 1 0  26.25 1 0  27 1 0  27.75 1 0  28.5 1 0  29.25 1 0  30 1 0  30.75 1 0  31.5 1 0  32.25 1 0  33 1 0  33.75 1 0  34.5 1 0  35.25 1 0  36 1 0  36.75 1 0  37.5 1 0  38.25 1 0  39 1 0  39.75 1 0  40.5 1 0  41.25 1 0  42 1 0  42.75 1 0  43.5 1 0  44.25 1 0  45 1 0  45.75 1 0  46.5 1 0  47.25 1 0  48 1 0  48.75 1 0  49.5 1 0  50.25 1 0  51 1 0  51.75 1 0  52.5 1 0  53.25 1 0  54 1 0  54.75 1 0  55.5 1 0  56.25 1 0  57 1 0  57.75 1 0  58.5 1 0  59.25 1 0  60 1 0  0 1.5 0  0.75 1.5 0  1.5 1.5 0  2.25 1.5 0  3 1.5 0  3.75 1.5 0  4.5 1.5 0  5.25 1.5 0  6 1.5 0  6.75 1.5 0  7.5 1.5 0  8.25 1.5 0  9 1.5 0  9.75 1.5 0  10.5 1.5 0  11.25 1.5 0  12 1.5 0  12.75 1.5 0  13.5 1.5 0  14.25 1.5 0  15 1.5 0  15.75 1.5 0  16.5 1.5 0  17.25 1.5 0  18 1.5 0  18.75 1.5 0  19.5 1.5 0  20.25 1.5 0  21 1.5 0  21.75 1.5 0  22.5 1.5 0  23.25 1.5 0  24 1.5 0  24.75 1.5 0  25.5 1.5 0  26.25 1.5 0  27 1.5 0  27.75 1.5 0  28.5 1.5 0  29.25 1.5 0  30 1.5 0  30.75 1.5 0  31.5 1.5 0  32.25 1.5 0  33 1.5 0  33.75 1.5 0  34.5 1.5 0  35.25 1.5 0  36 1.5 0  36.75 1.5 0  37.5 1.5 0  38.25 1.5 0  39 1.5 0  39.75 1.5 0  40.5 1.5 0  41.25 1.5 0  42 1.5 0  42.75 1.5 0  43.5 1.5 0  44.25 1.5 0  45 1.5 0  45.75 1.5 0  46.5 1.5 0  47.25 1.5 0  48 1.5 0  48.75 1.5 0  49.5 1.5 0  50.25 1.5 0  51 1.5 0  51.75 1.5 0  52.5 1.5 0  53.25 1.5 0  54 1.5 0  54.75 1.5 0  55.5 1.5 0  56.25 1.5 0  57 1.5 0  57.75 1.5 0  58.5 1.5 0  59.25 1.5 0  60 1.5 0  0 2 0  0.75 2 0  1.5 2 0  2.25 2 0  3 2 0  3.75 2 0  4.5 2 0  5.25 2 0  6 2 0  6.75 2 0  7.5 2 0  8.25 2 0  9 2 0  9.75 2 0  10.5 2 0  11.25 2 0  12 2 0  12.75 2 0  13.5 2 0  14.25 2 0  15 2 0  15.75 2 0  16.5 2 0  17.25 2 0  18 2 0  18.75 2 0  19.5 2 0  20.25 2 0  21 2 0  21.75 2 0  22.5 2 0  23.25 2 0  24 2 0  24.75 2 0  25.5 2 0  26.25 2 0  27 2 0  27.75 2 0  28.5 2 0  29.25 2 0  30 2 0  30.75 2 0  31.5 2 0  32.25 2 0  33 2 0  33.75 2 0  34.5 2 0  35.25 2 0  36 2 0  36.75 2 0  37.5 2 0  38.25 2 0  39 2 0  39.75 2 0  40.5 2 0  41.25 2 0  42 2 0  42.75 2 0  43.5 2 0  44.25 2 0  45 2 0  45.75 2 0  46.5 2 0  47.25 2 0  48 2 0  48.75 2 0  49.5 2 0  50.25 2 0  51 2 0  51.75 2 0  52.5 2 0  53.25 2 0  54 2 0  54.75 2 0  55.5 2 0  56.25 2 0  57 2 0  57.75 2 0  58.5 2 0  59.25 2 0  60 2 0  0 2.5 0  0.75 2.5 0  1.5 2.5 0  2.25 2.5 0  3 2.5 0  3.75 2.5 0  4.5 2.5 0  5.25 2.5 0  6 2.5 0  6.75 2.5 0  7.5 2.5 0  8.25 2.5 0  9 2.5 0  9.75 2.5 0  10.5 2.5 0  11.25 2.5 0  12 2.5 0  12.75 2.5 0  13.5 2.5 0  14.25 2.5 0  15 2.5 0  15.75 2.5 0  16.5 2.5 0  17.25 2.5 0  18 2.5 0  18.75 2.5 0  19.5 2.5 0  20.25 2.5 0  21 2.5 0  21.75 2.5 0  22.5 2.5 0  23.25 2.5 0  24 2.5 0  24.75 2.5 0  25.5 2.5 0  26.25 2.5 0  27 2.5 0  27.75 2.5 0  28.5 2.5 0  29.25 2.5 0  30 2.5 0  30.75 2.5 0  31.5 2.5 0  32.25 2.5 0  33 2.5 0  33.75 2.5 0  34.5 2.5 0  35.25 2.5 0  36 2.5 0  36.75 2.5 0  37.5 2.5 0  38.25 2.5 0  39 2.5 0  39.75 2.5 0  40.5 2.5 0  41.25 2.5 0  42 2.5 0  42.75 2.5 0  43.5 2.5 0  44.25 2.5 0  45 2.5 0  45.75 2.5 0  46.5 2.5 0  47.25 2.5 0  48 2.5 0  48.75 2.5 0  49.5 2.5 0  50.25 2.5 0  51 2.5 0  51.75 2.5 0  52.5 2.5 0  53.25 2.5 0  54 2.5 0  54.75 2.5 0  55.5 2.5 0  56.25 2.5 0  57 2.5 0  57.75 2.5 0  58.5 2.5 0  59.25 2.5 0  60 2.5 0  0 3 0  0.75 3 0  1.5 3 0  2.25 3 0  3 3 0  3.75 3 0  4.5 3 0  5.25 3 0  6 3 0  6.75 3 0  7.5 3 0  8.25 3 0  9 3 0  9.75 3 0  10.5 3 0  11.25 3 0  12 3 0  12.75 3 0  13.5 3 0  14.25 3 0  15 3 0  15.75 3 0  16.5 3 0  17.25 3 0  18 3 0  18.75 3 0  19.5 3 0  20.25 3 0  21 3 0  21.75 3 0  22.5 3 0  23.25 3 0  24 3 0  24.75 3 0  25.5 3 0  26.25 3 0  27 3 0  27.75 3 0  28.5 3 0  29.25 3 0  30 3 0  30.75 3 0  31.5 3 0  32.25 3 0  33 3 0  33.75 3 0  34.5 3 0  35.25 3 0  36 3 0  36.75 3 0  37.5 3 0  38.25 3 0  39 3 0  39.75 3 0  40.5 3 0  41.25 3 0  42 3 0  42.75 3 0  43.5 3 0  44.25 3 0  45 3 0  45.75 3 0  46.5 3 0  47.25 3 0  48 3 0  48.75 3 0  49.5 3 0  50.25 3 0  51 3 0  51.75 3 0  52.5 3 0  53.25 3 0  54 3 0  54.75 3 0  55.5 3 0  56.25 3 0  57 3 0  57.75 3 0  58.5 3 0  59.25 3 0  60 3 0  0 3.5 0  0.75 3.5 0  1.5 3.5 0  2.25 3.5 0  3 3.5 0  3.75 3.5 0  4.5 3.5 0  5.25 3.5 0  6 3.5 0  6.75 3.5 0  7.5 3.5 0  8.25 3.5 0  9 3.5 0  9.75 3.5 0  10.5 3.5 0  11.25 3.5 0  12 3.5 0  12.75 3.5 0  13.5 3.5 0  14.25 3.5 0  15 3.5 0  15.75 3.5 0  16.5 3.5 0  17.25 3.5 0  18 3.5 0  18.75 3.5 0  19.5 3.5 0  20.25 3.5 0  21 3.5 0  21.75 3.5 0  22.5 3.5 0  23.25 3.5 0  24 3.5 0  24.75 3.5 0  25.5 3.5 0  26.25 3.5 0  27 3.5 0  27.75 3.5 0  28.5 3.5 0  29.25 3.5 0  30 3.5 0  30.75 3.5 0  31.5 3.5 0  32.25 3.5 0  33 3.5 0  33.75 3.5 0  34.5 3.5 0  35.25 3.5 0  36 3.5 0  36.75 3.5 0  37.5 3.5 0  38.25 3.5 0  39 3.5 0  39.75 3.5 0  40.5 3.5 0  41.25 3.5 0  42 3.5 0  42.75 3.5 0  43.5 3.5 0  44.25 3.5 0  45 3.5 0  45.75 3.5 0  46.5 3.5 0  47.25 3.5 0  48 3.5 0  48.75 3.5 0  49.5 3.5 0  50.25 3.5 0  51 3.5 0  51.75 3.5 0  52.5 3.5 0  53.25 3.5 0  54 3.5 0  54.75 3.5 0  55.5 3.5 0  56.25 3.5 0  57 3.5 0  57.75 3.5 0  58.5 3.5 0  59.25 3.5 0  60 3.5 0  0 4 0  0.75 4 0  1.5 4 0  2.25 4 0  3 4 0  3.75 4 0  4.5 4 0  5.25 4 0  6 4 0  6.75 4 0  7.5 4 0  8.25 4 0  9 4 0  9.75 4 0  10.5 4 0  11.25 4 0  12 4 0  12.75 4 0  13.5 4 0  14.25 4 0  15 4 0  15.75 4 0  16.5 4 0  17.25 4 0  18 4 0  18.75 4 0  19.5 4 0  20.25 4 0  21 4 0  21.75 4 0  22.5 4 0  23.25 4 0  24 4 0  24.75 4 0  25.5 4 0  26.25 4 0  27 4 0  27.75 4 0  28.5 4 0  29.25 4 0  30 4 0  30.75 4 0  31.5 4 0  32.25 4 0  33 4 0  33.75 4 0  34.5 4 0  35.25 4 0  36 4 0  36.75 4 0  37.5 4 0  38.25 4 0  39 4 0  39.75 4 0  40.5 4 0  41.25 4 0  42 4 0  42.75 4 0  43.5 4 0  44.25 4 0  45 4 0  45.75 4 0  46.5 4 0  47.25 4 0  48 4 0  48.75 4 0  49.5 4 0  50.25 4 0  51 4 0  51.75 4 0  52.5 4 0  53.25 4 0  54 4 0  54.75 4 0  55.5 4 0  56.25 4 0  57 4 0  57.75 4 0  58.5 4 0  59.25 4 0  60 4 0  0.375 0.25 0  1.125 0.25 0  1.875 0.25 0  2.625 0.25 0  3.375 0.25 0  4.125 0.25 0  4.875 0.25 0  5.625 0.25 0  6.375 0.25 0  7.125 0.25 0  7.875 0.25 0  8.625 0.25 0  9.375 0.25 0  10.125 0.25 0  10.875 0.25 0  11.625 0.25 0  12.375 0.25 0  13.125 0.25 0  13.875 0.25 0  14.625 0.25 0  15.375 0.25 0  16.125 0.25 0  16.875 0.25 0  17.625 0.25 0  18.375 0.25 0  19.125 0.25 0  19.875 0.25 0  20.625 0.25 0  21.375 0.25 0  22.125 0.25 0  22.875 0.25 0  23.625 0.25 0  24.375 0.25 0  25.125 0.25 0  25.875 0.25 0  26.625 0.25 0  27.375 0.25 0  28.125 0.25 0  28.875 0.25 0  29.625 0.25 0  30.375 0.25 0  31.125 0.25 0  31.875 0.25 0  32.625 0.25 0  33.375 0.25 0  34.125 0.25 0  34.875 0.25 0  35.625 0.25 0  36.375 0.25 0  37.125 0.25 0  37.875 0.25 0  38.625 0.25 0  39.375 0.25 0  40.125 0.25 0  40.875 0.25 0  41.625 0.25 0  42.375 0.25 0  43.125 0.25 0  43.875 0.25 0  44.625 0.25 0  45.375 0.25 0  46.125 0.25 0  46.875 0.25 0  47.625 0.25 0  48.375 0.25 0  49.125 0.25 0  49.875 0.25 0  50.625 0.25 0  51.375 0.25 0  52.125 0.25 0  52.875 0.25 0  53.625 0.25 0  54.375 0.25 0  55.125 0.25 0  55.875 0.25 0  56.625 0.25 0  57.375 0.25 0  58.125 0.25 0  58.875 0.25 0  59.625 0.25 0  0.375 0.75 0  1.125 0.75 0  1.875 0.75 0  2.625 0.75 0  3.375 0.75 0  4.125 0.75 0  4.875 0.75 0  5.625 0.75 0  6.375 0.75 0  7.125 0.75 0  7.875 0.75 0  8.625 0.75 0  9.375 0.75 0  10.125 0.75 0  10.875 0.75 0  11.625 0.75 0  12.375 0.75 0  13.125 0.75 0  13.875 0.75 0  14.625 0.75 0  15.375 0.75 0  16.125 0.75 0  16.875 0.75 0  17.625 0.75 0  18.375 0.75 0  19.125 0.75 0  19.875 0.75 0  20.625 0.75 0  21.375 0.75 0  22.125 0.75 0  22.875 0.75 0  23.625 0.75 0  24.375 0.75 0  25.125 0.75 0  25.875 0.75 0  26.625 0.75 0  27.375 0.75 0  28.125 0.75 0  28.875 0.75 0  29.625 0.75 0  30.375 0.75 0  31.125 0.75 0  31.875 0.75 0  32.625 0.75 0  33.375 0.75 0  34.125 0.75 0  34.875 0.75 0  35.625 0.75 0  36.375 0.75 0  37.125 0.75 0  37.875 0.75 0  38.625 0.75 0  39.375 0.75 0  40.125 0.75 0  40
[...]
<PointData  Vectors="f_8-0"> 
<DataArray  type="Float64"  Name="f_8-0"  NumberOfComponents="3" format="ascii">0.0000000000000000e+00 0.0000000000000000e+00 0.0000000000000000e+00  0.0000000000000000e+00 0.0000000000000000e+00 0.0000000000000000e+00  0.0000000000000000e+00 0.0000000000000000e+00 0.0000000000000000e+00  0.0000000000000000e+00 0.0000000000000000e+00 0.0000000000000000e+00  0.0000000000000000e+00 0.0000000000000000e+00 0.0000000000000000e+00  0.0000000000000000e+00 0.0000000000000000e+00 0.0000000000000000e+00  0.0000000000000000e+00 0.0000000000000000e+00 0.0000000000000000e+00  0.0000000000000000e+00 0.0000000000000000e+00 0.0000000000000000e+00  0.0000000000000000e+00 0.0000000000000000e+00 0.0000000000000000e+00  0.0000000000000000e+00 0.0000000000000000e+00 0.0000000000000000e+00  0.0000000000000000e+00 0.0000000000000000e+00 0.0000000000000000e+00  0.0000000000000000e+00 0.0000000000000000e+00 0.0000000000000000e+00  0.0000000000000000e+00 0.0000000000000000e+00 0.0000000000000000e+00  0.0000000000000000e+00 0.0000000000000000e+00 0.0000000000000000e+00  0.0000000000000000e+00 0.0000000000000000e+00 0.0000000000000000e+00  0.0000000000000000e+00 0.0000000000000000e+00 0.0000000000000000e+00  0.0000000000000000e+00 0.0000000000000000e+00 0.0000000000000000e+00  0.0000000000000000e+00 0.0000000000000000e+00 0.0000000000000000e+00  0.0000000000000000e+00 0.0000000000000000e+00 0.0000000000000000e+00  0.0000000000000000e+00 0.0000000000000000e+00 0.0000000000000000e+00  0.0000000000000000e+00 0.0000000000000000e+00 0.0000000000000000e+00  0.0000000000000000e+00 0.0000000000000000e+00 0.0000000000000000e+00  0.0000000000000000e+00 0.0000000000000000e+00 0.0000000000000000e+00  0.0000000000000000e+00 0.0000000000000000e+00 0.0000000000000000e+00  0.0000000000000000e+00 0.0000000000000000e+00 0.0000000000000000e+00  0.0000000000000000e+00 0.0000000000000000e+00 0.0000000000000000e+00  0.0000000000000000e+00 0.0000000000000000e+00 0.0000000000000000e+00  0.0000000000000000e+00 0.0000000000000000e+00 0.0000000000000000e+00  0.0000000000000000e+00 0.0000000000000000e+00 0.0000000000000000e+00  0.0000000000000000e+00 0.0000000000000000e+00 0.0000000000000000e+00  0.0000000000000000e+00 0.0000000000000000e+00 0.0000000000000000e+00  0.0000000000000000e+00 0.0000000000000000e+00 0.0000000000000000e+00  0.0000000000000000e+00 0.0000000000000000e+00 0.0000000000000000e+00  0.0000000000000000e+00 0.0000000000000000e+00 0.0000000000000000e+00  0.0000000000000000e+00 0.0000000000000000e+00 0.0000000000000000e+00  0.0000000000000000e+00 0.0000000000000000e+00 0.0000000000000000e+00  0.0000000000000000e+00 0.0000000000000000e+00 0.0000000000000000e+00  0.0000000000000000e+00 0.0000000000000000e+00 0.0000000000000000e+00  0.0000000000000000e+00 0.0000000000000000e+00 0.0000000000000000e+00  0.0000000000000000e+00 0.0000000000000000e+00 0.0000000000000000e+00  0.0000000000000000e+00 0.0000000000000000e+00 0.0000000000000000e+00  0.0000000000000000e+00 0.0000000000000000e+00 0.0000000000000000e+00  0.0000000000000000e+00 0.0000000000000000e+00 0.0000000000000000e+00  0.0000000000000000e+00 0.0000000000000000e+00 0.0000000000000000e+00  0.0000000000000000e+00 0.0000000000000000e+00 0.0000000000000000e+00  0.0000000000000000e+00 0.0000000000000000e+00 0.0000000000000000e+00  0.0000000000000000e+00 0.0000000000000000e+00 0.0000000000000000e+00  0.0000000000000000e+00 0.0000000000000000e+00 0.0000000000000000e+00  0.0000000000000000e+00 0.0000000000000000e+00 0.0000000000000000e+00  0.0000000000000000e+00 0.0000000000000000e+00 0.0000000000000000e+00  0.0000000000000000e+00 0.0000000000000000e+00 0.0000000000000000e+00  0.0000000000000000e+00 0.0000000000000000e+00 0.0000000000000000e+00  0.0000000000000000e+00 0.0000000000000000e+00 0.0000000000000000e+00  0.0000000000000000e+00 0.0000000000000000e+00 0.0000000000000000e+00  0.0000000000000000e+00 0.0000000000000000e+00 0.0000000000000000e+00  0.0000000000000000e+00 0.0000000000000000e+00 0.0000000000000000e+00  0.0000000000000000e+00 0.0000000000000000e+00 0.0000000000000000e+00  0.0000000000000000e+00 0.0000000000000000e+00 0.0000000000000000e+00  0.0000000000000000e+00 0.0000000000000000e+00 0.0000000000000000e+00  0.0000000000000000e+00 0.0000000000000000e+00 0.0000000000000000e+00  0.0000000000000000e+00 0.0000000000000000e+00 0.0000000000000000e+00  0.0000000000000000e+00 0.0000000000000000e+00 0.0000000000000000e+00  0.0000000000000000e+00 0.0000000000000000e+00 0.0000000000000000e+00  0.0000000000000000e+00 0.0000000000000000e+00 0.0000000000000000e+00  0.0000000000000000e+00 0.0000000000000000e+00 0.0000000000000000e+00  0.0000000000000000e+00 0.0000000000000000e+00 0.0000000000000000e+00  0.0000000000000000e+00 0.0000000000000000e+00 0.0000000000000000e+00  0.0000000000000000e+00 0.0000000000000000e+00 0.0000000000000000e+00  0.0000000000000000e+00 0.0000000000000000e+00 0.0000000000000000e+00  0.0000000000000000e+00 0.0000000000000000e+00 0.0000000000000000e+00  0.0000000000000000e+00 0.0000000000000000e+00 0.0000000000000000e+00  0.0000000000000000e+00 0.0000000000000000e+00 0.0000000000000000e+00  0.0000000000000000e+00 0.0000000000000000e+00 0.0000000000000000e+00  0.0000000000000000e+00 0.0000000000000000e+00 0.0000000000000000e+00  0.0000000000000000e+00 0.0000000000000000e+00 0.0000000000000000e+00  0.0000000000000000e+00 0.0000000000000000e+00 0.0000000000000000e+00  0.0000000000000000e+00 0.0000000000000000e+00 0.0000000000000000e+00  0.0000000000000000e+00 0.0000000000000000e+00 0.0000000000000000e+00  0.0000000000000000e+00 0.0000000000000000e+00 0.0000000000000000e+00  0.0000000000000000e+00 0.0000000000000000e+00 0.0000000000000000e+00  0.0000000000000000e+00 0.0000000000000000e+00 0.0000000000000000e+00  9.9458575893412693e+00 0.0000000000000000e+00 0.0000000000000000e+00  9.9671884334216170e+00 -6.6877922018257277e-02 0.0000000000000000e+00  9.9539159195792752e+00 -2.0068826972730651e-02 0.0000000000000000e+00  9.9491006308815297e+00 -5.1341446543611245e-03 0.0000000000000000e+00  9.9421733219176200e+00 -3.9267924157623292e-03 0.0000000000000000e+00  9.9340587796698276e+00 -3.3125797409603330e-03 0.0000000000000000e+00  9.9318834346724874e+00 -5.5477020965235390e-03 0.0000000000000000e+00  9.9309589794972872e+00 -6.0777903905382914e-03 0.0000000000000000e+00  9.9333405382624562e+00 -7.2430732724365456e-03 0.0000000000000000e+00  9.9363808452252300e+00 -7.2798415186418330e-03 0.0000000000000000e+00  9.9401279871893049e+00 -7.2829006956726845e-03 0.0000000000000000e+00  9.9428314767468873e+00 -6.7819104747254355e-03 0.0000000000000000e+00  9.9447045514054668e+00 -6.4823279808214002e-03 0.0000000000000000e+00  9.9456192250219484e+00 -6.1889341822726294e-03 0.0000000000000000e+00  9.9460891412606642e+00 -6.0900117581602778e-03 0.0000000000000000e+00  9.9462458837134164e+00 -6.0190577645654166e-03 0.0000000000000000e+00  9.9463207287107291e+00 -6.0120895885828517e-03 0.0000000000000000e+00  9.9463364463574457e+00 -5.9998995452498882e-03 0.0000000000000000e+00  9.9463494007973487e+00 -6.0023699537864366e-03 0.0000000000000000e+00  9.9463511539321576e+00 -5.9993705793465781e-03 0.0000000000000000e+00  9.9463546431054652e+00 -6.0003428636322053e-03 0.0000000000000000e+00  9.9463551268177319e+00 -5.9994482666557826e-03 0.0000000000000000e+00  9.9463560597311105e+00 -5.9996317093717983e-03 0.0000000000000000e+00  9.9463562960964147e+00 -5.9994701760768343e-03 0.0000000000000000e+00  9.9463564397116446e+00 -5.9994165726296855e-03 0.0000000000000000e+00  9.9463566000503612e+00 -5.9994685057366140e-03 0.0000000000000000e+00  9.9463565502619691e+00 -5.9993724624783588e-03 0.0000000000000000e+00  9.9463566613674619e+00 -5.9994535619911299e-03 0.0000000000000000e+00  9.9463565930996953e+00 -5.9993757767033123e-03 0.0000000000000000e+00  9.9463566632358553e+00 -5.9994370906025522e-03 0.0000000000000000e+00  9.9463566147304974e+00 -5.9993872156682690e-03 0.0000000000000000e+00  9.9463566549631945e+00 -5.9994245976757237e-03 0.0000000000000000e+00  9.9463566267205099e+00 -5.9993964946239665e-03 0.0000000000000000e+00  9.9463566479671570e+00 -5.9994167186549190e-03 0.0000000000000000e+00  9.9463566332555686e+00 -5.9994022637832496e-03 0.0000000000000000e+00  9.9463566436974542e+00 -5.9994123084176742e-03 0.0000000000000000e+00  9.9463566366365264e+00 -5.9994054003855140e-03 0.0000000000000000e+00  9.9463566414414881e+00 -5.9994100538619715e-03 0.0000000000000000e+00  9.9463566382729383e+00 -5.9994069546326148e-03 0.0000000000000000e+00  9.9463566403588377e+00 -5.9994089843726384e-03 0.0000000000000000e+00  9.9463566390149456e+00 -5.9994076701282376e-03 0.0000000000000000e+00  9.9463566398732990e+00 -5.9994085095236753e-03 0.0000000000000000e+00  9.9463566393333895e+00 -5.9994079792515774e-03 0.0000000000000000e+00  9.9463566396710572e+00 -5.9994083103861199e-03 0.0000000000000000e+00  9.9463566394629606e+00 -5.9994081056530674e-03 0.0000000000000000e+00  9.9463566395885881e+00 -5.9994082309087456e-03 0.0000000000000000e+00  9.9463566395142919e+00 -5.9994081558805085e-03 0.0000000000000000e+00  9.9463566395604079e+00 -5.9994082008959808e-03 0.0000000000000000e+00  9.9463566395350806e+00 -5.9994081750720692e-03 0.0000000000000000e+00  9.9463566395563205e+00 -5.9994081921887652e-03 0.0000000000000000e+00  9.9463566395567593e+00 -5.9994081862182564e-03 0.0000000000000000e+00  9.9463566395773277e+00 -5.9994081953024438e-03 0.0000000000000000e+00  9.9463566396056038e+00 -5.9994082050294339e-03 0.0000000000000000e+00  9.9463566396779211e+00 -5.9994082238838025e-03 0.0000000000000000e+00  9.9463566398094496e+00 -5.9994082726229411e-03 0.0000000000000000e+00  9.9463566400861438e+00 -5.9994083516091822e-03 0.0000000000000000e+00  9.9463566406410830e+00 -5.9994085451758137e-03 0.0000000000000000e+00  9.9463566417804330e+00 -5.9994088888604370e-03 0.0000000000000000e+00  9.9463566440849416e+00 -5.9994096630053007e-03 0.0000000000000000e+00  9.9463566487989290e+00 -5.9994111331918452e-03 0.0000000000000000e+00  9.9463566583827898e+00 -5.9994142750002949e-03 0.0000000000000000e+00  9.9463566779488826e+00 -5.9994204613770339e-03 0.0000000000000000e+00  9.9463567177635408e+00 -5.9994333132649185e-03 0.0000000000000000e+00  9.9463567987373160e+00 -5.9994589166619669e-03 0.0000000000000000e+00  9.9463569628464956e+00 -5.9995110319032872e-03 0.0000000000000000e+00  9.9463572939750264e+00 -5.9996142601563239e-03 0.0000000000000000e+00  9.9463579579573977e+00 -5.9998195992812539e-03 0.0000000000000000e+00  9.9463592784608537e+00 -6.0002197641907283e-03 0.0000000000000000e+00  9.9463618782164751e+00 -6.0009978628683880e-03 0.0000000000000000e+00  9.9463669384042994e+00 -6.0024932901489711e-03 0.0000000000000000e+00  9.9463766731502048e+00 -6.0053595851403052e-03 0.0000000000000000e+00  9.9463951724511794e+00 -6.0108140896411441e-03 0.0000000000000000e+00  9.9464299668458782e+00 -6.0212784920749603e-03 0.0000000000000000e+00  9.9464952927143582e+00 -6.0419270851266305e-03 0.0000000000000000e+00  9.9466198821981369e+00 -6.0845863293702901e-03 0.0000000000000000e+00  9.9468672575741035e+00 -6.1756577888417838e-03 0.0000000000000000e+00  9.9473923659689021e+00 -6.3701935100396656e-03 0.0000000000000000e+00  9.9486525764851521e+00 -6.6724170026026689e-03 0.0000000000000000e+00  9.9518701859587662e+00 -6.7908745806202937e-03 0.0000000000000000e+00  9.9652924285549656e+00 4.6466406765260249e-03 0.0000000000000000e+00  1.0036781237132679e+01 0.0000000000000000e+00 0.0000000000000000e+00  1.9504666621425823e+01 0.0000000000000000e+00 0.0000000000000000e+00  1.9548159756474899e+01 3.4321585490054256e-02 0.0000000000000000e+00  1.9511737232748853e+01 5.1733697109740710e-03 0.0000000000000000e+00  1.9511836439223167e+01 1.3025913751442211e-02 0.0000000000000000e+00  1.9504414174954590e+01 1.0307276161629008e-02 0.0000000000000000e+00  1.9506413107727425e+01 6.3928151487484073e-03 0.0000000000000000e+00  1.9504383694255651e+01 3.5776593656429161e-03 0.0000000000000000e+00  1.9505716672747798e+01 6.6703327243394295e-04 0.0000000000000000e+00  1.9505318468502253e+01 -5.7068880740669225e-04 0.0000000000000000e+00  1.9506964689943164e+01 -2.1858025358859013e-03 0.0000000000000000e+00  1.9509147881067989e+01 -1.8861214385259731e-03 0.0000000000000000e+00  1.9512082229269158e+01 -1.0595668472291461e-03 0.0000000000000000e+00  1.9514024230411973e+01 1.3045950525151511e-04 0.0000000000000000e+00  1.9515418122459753e+01 8.5584777685038650e-04 0.0000000000000000e+00  1.9516060923003007e+01 1.3553065729084285e-03 0.0000000000000000e+00  1.9516444531718165e+01 1.5472540947950907e-03 0.0000000000000000e+00  1.9516568712014344e+01 1.6566172334989678e-03 0.0000000000000000e+00  1.9516648060865943e+01 1.6798202483135514e-03 0.0000000000000000e+00  1.9516661996396262e+01 1.6993331642094298e-03 0.0000000000000000e+00  1.9516679317525202e+01 1.6997854730258699e-03 0.0000000000000000e+00  1.9516679457808500e+01 1.7044791935408202e-03 0.0000000000000000e+00  1.9516684353728039e+01 1.7040233435064967e-03 0.0000000000000000e+00  1.9516683816248545e+01 1.7053746747359394e-03 0.0000000000000000e+00  1.9516685296818174e+01 1.7052693465476651e-03 0.0000000000000000e+00  1.9516685097693902e+01 1.7055695781561181e-03 0.0000000000000000e+00  1.9516685467746971e+01 1.7056270651455644e-03 0.0000000000000000e+00  1.9516685468573503e+01 1.7056207967549978e-03 0.0000000000000000e+00  1.9516685501216468e+01 1.7057114019239040e-03 0.0000000000000000e+00  1.9516685561929663e+01 1.7056462464744358e-03 0.0000000000000000e+00  1.9516685517108552e+01 1.7057198166227398e-03 0.0000000000000000e+00  1.9516685575976645e+01 1.7056644163937734e-03 0.0000000000000000e+00  1.9516685530354785e+01 1.7057119401407675e-03 0.0000000000000000e+00  1.9516685571189090e+01 1.7056769171174537e-03 0.0000000000000000e+00  1.9516685540477667e+01 1.7057038149803116e-03 0.0000000000000000e+00  1.9516685564570160e+01 1.7056846088581506e-03 0.0000000000000000e+00  1.9516685547118147e+01 1.7056984588543285e-03 0.0000000000000000e+00  1.9516685559874347e+01 1.7056888823203888e-03 0.0000000000000000e+00  1.9516685550961363e+01 1.7056954882218197e-03 0.0000000000000000e+00  1.9516685557168554e+01 1.7056910571506517e-03 0.0000000000000000e+00  1.9516685552972028e+01 1.7056940095443957e-03 0.0000000000000000e+00  1.9516685555784694e+01 1.7056920832581224e-03 0.0000000000000000e+00  1.9516685553937020e+01 1.7056933280983908e-03 0.0000000000000000e+00  1.9516685555136675e+01 1.7056925354952430e-03 0.0000000000000000e+00  1.9516685554371385e+01 1.7056930345873127e-03 0.0000000000000000e+00  1.9516685554855037e+01 1.7056927247484717e-03 0.0000000000000000e+00  1.9516685554553121e+01 1.7056929156987260e-03 0.0000000000000000e+00  1.9516685554739073e+01 1.7056927985189304e-03 0.0000000000000000e+00  1.9516685554625695e+01 1.7056928691679522e-03 0.0000000000000000e+00  1.9516685554693677e+01 1.7056928256438003e-03 0.0000000000000000e+00  1.9516685554652504e+01 1.7056928483497667e-03 0.0000000000000000e+00  1.9516685554677473e+01 1.7056928271613611e-03 0.0000000000000000e+00  1.9516685554665290e+01 1.7056928296782161e-03 0.0000000000000000e+00  1.9516685554674499e+01 1.7056928024337566e-03 0.0000000000000000e+00  1.9516685554676368e+01 1.7056927726398080e-03 0.0000000000000000e+00  1.9516685554683285e+01 1.7056926889384174e-03 0.0000000000000000e+00  1.9516685554699539e+01 1.7056925424863269e-03 0.0000000000000000e+00  1.9516685554720347e+01 1.7056922164289641e-03 0.0000000000000000e+00  1.9516685554786399e+01 1.7056915873212501e-03 0.0000000000000000e+00  1.9516685554882887e+01 1.7056902638877250e-03 0.0000000000000000e+00  1.9516685555135965e+01 1.7056876142994058e-03 0.0000000000000000e+00  1.9516685555561281e+01 1.7056821814412110e-03 0.0000000000000000e+00  1.9516685556558190e+01 1.7056710977162591e-03 0.0000000000000000e+00  1.9516685558415372e+01 1.7056486100296101e-03 0.0000000000000000e+00  1.9516685562545359e+01 1.7056026969631739e-03 0.0000000000000000e+00  1.9516685570698986e+01 1.7055104928446272e-03 0.0000000000000000e+00  1.9516685587931260e+01 1.7053254343445501e-03 0.0000000000000000e+00  1.9516685621402743e+01 1.7049613502416615e-03 0.0000000000000000e+00  1.9516685687312314e+01 1.7042486559995082e-03 0.0000000000000000e+00  1.9516685811555902e+01 1.7028709988104365e-03 0.0000000000000000e+00  1.9516686056210062e+01 1.7001960394948800e-03 0.0000000000000000e+00  1.9516686540775368e+01 1.6950538187777253e-03 0.0000000000000000e+00  1.9516687491304005e+01 1.6852834039541654e-03 0.0000000000000000e+00  1.9516689235380650e+01 1.6669207590533630e-03 0.0000000000000000e+00  1.9516692416109237e+01 1.6313146742853260e-03 0.0000000000000000e+00  1.9516698637368517e+01 1.5587905404603065e-03 0.0000000000000000e+00  1.9516712524476535e+01 1.4023731196684207e-03 0.0000000000000000e+00  1.9516749088067023e+01 1.0453960373107997e-03 0.0000000000000000e+00  1.9516860114435790e+01 1.8351286497997199e-04 0.0000000000000000e+00  1.9517432806339038e+01 -1.7184665062222125e-03 0.0000000000000000e+00  1.9517923536453068e+01 -7.1638006315106213e-03 0.0000000000000000e+00  1.9513201470572369e+01 0.0000000000000000e+00 0.0000000000000000e+00  2.1636687498828039e+01 0.0000000000000000e+00 0.0000000000000000e+00  2.1608966271242270e+01 -1.2756444978708181e-02 0.0000000000000000e+00  2.1622061115123678e+01 4.0156396659717080e-03 0.0000000000000000e+00  2.1629576110368816e+01 1.2912758321043044e-03 0.0000000000000000e+00  2.1647390055896558e+01 4.5237519942175602e-03 0.0000000000000000e+00  2.1652093659678279e+01 3.5709269968802345e-03 0.0000000000000000e+00  2.1658242029844040e+01 1.5630807594104760e-03 0.0000000000000000e+00  2.1657050871875814e+01 6.8596085301611553e-04 0.0000000000000000e+00  2.1656593474953350e+01 -6.0195783360349989e-04 0.0000000000000000e+00  2.1652777408716386e+01 -1.8664569804030314e-03 0.0000000000000000e+00  2.1649762605184311e+01 -2.5588459423955164e-03 0.0000000000000000e+00  2.1646677718353246e+01 -1.7520759020910747e-03 0.0000000000000000e+00  2.1645136405094693e+01 -7.3936309011831097e-04 0.0000000000000000e+00  2.1644048357174157e+01 1.7523874430340778e-04 0.0000000000000000e+00  2.1643695488261599e+01 6.8123582923565104e-04 0.0000000000000000e+00  2.1643449845108009e+01 9.7593397180817160e-04 0.0000000000000000e+00  2.1643419527957533e+01 1.0899441315017186e-03 0.0000000000000000e+00  2.1643368879832501e+01 1.1490607027875347e-03 0.0000000000000000e+00  2.1643375348373379e+01 1.1647614511907981e-03 0.0000000000000000e+00  2.1643360575945156e+01 1.1754692747847598e-03 0.0000000000000000e+00  2.1643364989997689e+01 1.1771471459301013e-03 0.0000000000000000e+00  2.1643359667109660e+01 1.1796155992534693e-03 0.0000000000000000e+00  2.1643361587453640e+01 1.1798543060559056e-03 0.0000000000000000e+00  2.1643359754655457e+01 1.1804893355567643e-03 0.0000000000000000e+00  2.1643360432817804e+01 1.1805876626580303e-03 0.0000000000000000e+00  2.1643359909634686e+01 1.1807053700852864e-03 0.0000000000000000e+00  2.1643360061820768e+01 1.1807831391500176e-03 0.0000000000000000e+00  2.1643359982249581e+01 1.1807667480562823e-03 0.0000000000000000e+00  2.1643359958324986e+01 1.1808261793952155e-03 0.0000000000000000e+00  2.1643359998413107e+01 1.1807903888008506e-03 0.0000000000000000e+00  2.1643359940270354e+01 1.1808297226244939e-03 0.0000000000000000e+00  2.1643359992982656e+01 1.1808025375982809e-03 0.0000000000000000e+00  2.1643359945101416e+01 1.1808256003801650e-03 0.0000000000000000e+00  2.1643359983482096e+01 1.1808093980048544e-03 0.0000000000000000e+00  2.1643359953024916e+01 1.1808216960916252e-03 0.0000000000000000e+00  2.1643359975855770e+01 1.1808131802971337e-03 0.0000000000000000e+00  2.1643359958986480e+01 1.1808192502262677e-03 0.0000000000000000e+00  2.1643359971037352e+01 1.1808151418319620e-03 0.0000000000000000e+00  2.1643359962560403e+01 1.1808179463209017e-03 0.0000000000000000e+00  2.1643359968383283e+01 1.1808160963503759e-03 0.000000000000