<?xml version="1.0"?>
<VTKFile type="UnstructuredGrid"  version="0.1"  >
<UnstructuredGrid>
<Piece  NumberOfPoints="1369" NumberOfCells="2560">
<Points>
<DataArray  type="Float64"  NumberOfComponents="3"  format="ascii">0 0 0  0.75 0 0  1.5 0 0  2.25 0 0  3 0 0  3.75 0 0  4.5 0 0  5.25 0 0  6 0 0  6.75 0 0  7.5 0 0  8.25 0 0  9 0 0  9.75 0 0  10.5 0 0  11.25 0 0  12 0 0  12.75 0 0  13.5 0 0  14.25 0 0  15 0 0  15.75 0 0  16.5 0 0  17.25 0 0  18 0 0  18.75 0 0  19.5 0 0  20.25 0 0  21 0 0  21.75 0 0  22.5 0 0  23.25 0 0  24 0 0  24.75 0 0  25.5 0 0  26.25 0 0  27 0 0  27.75 0 0  28.5 0 0  29.25 0 0  30 0 0  30.75 0 0  31.5 0 0  32.25 0 0  33 0 0  33.75 0 0  34.5 0 0  35.25 0 0  36 0 0  36.75 0 0  37.5 0 0  38.25 0 0  39 0 0  39.75 0 0  40.5 0 0  41.25 0 0  42 0 0  42.75 0 0  43.5 0 0  44.25 0 0  45 0 0  45.75 0 0  46.5 0 0  47.25 0 0  48 0 0  48.75 0 0  49.5 0 0  50.25 0 0  51 0 0  51.75 0 0  52.5 0 0  53.25 0 0  54 0 0  54.75 0 0  55.5 0 0  56.25 0 0  57 0 0  57.75 0 0  58.5 0 0  59.25 0 0  60 0 0  0 0.5 0  0.75 0.5 0  1.5 0.5 0  2.25 0.5 0  3 0.5 0  3.75 0.5 0  4.5 0.5 0  5.25 0.5 0  6 0.5 0  6.75 0.5 0  7.5 0.5 0  8.25 0.5 0  9 0.5 0  9.75 0.5 0  10.5 0.5 0  11.25 0.5 0  12 0.5 0  12.75 0.5 0  13.5 0.5 0  14.25 0.5 0  15 0.5 0  15.75 0.5 0  16.5 0.5 0  17.25 0.5 0  18 0.5 0  18.75 0.5 0  19.5 0.5 0  20.25 0.5 0  21 0.5 0  21.75 0.5 0  22.5 0.5 0  23.25 0.5 0  24 0.5 0  24.75 0.5 0  25.5 0.5 0  26.25 0.5 0  27 0.5 0  27.75 0.5 0  28.5 0.5 0  29.25 0.5 0  30 0.5 0  30.75 0.5 0  31.5 0.5 0  32.25 0.5 0  33 0.5 0  33.75 0.5 0  34.5 0.5 0  35.25 0.5 0  36 0.5 0  36.75 0.5 0  37.5 0.5 0  38.25 0.5 0  39 0.5 0  39.75 0.5 0  40.5 0.5 0  41.25 0.5 0  42 0.5 0  42.75 0.5 0  43.5 0.5 0  44.25 0.5 0  45 0.5 0  45.75 0.5 0  46.5 0.5 0  47.25 0.5 0  48 0.5 0  48.75 0.5 0  49.5 0.5 0  50.25 0.5 0  51 0.5 0  51.75 0.5 0  52.5 0.5 0  53.25 0.5 0  54 0.5 0  54.75 0.5 0  55.5 0.5 0  56.25 0.5 0  57 0.5 0  57.75 0.5 0  58.5 0.5 0  59.25 0.5 0  60 0.5 0  0 1 0  0.75 1 0  1.5 1 0  2.25 1 0  3 1 0  3.75 1 0  4.5 1 0  5.25 1 0  6 1 0  6.75 1 0  7.5 1 0  8.25 1 0  9 1 0  9.75 1 0  10.5 1 0  11.25 1 0  12 1 0  12.75 1 0  13.5 1 0  14.25 1 0  15 1 0  15.75 1 0  16.5 1 0  17.25 1 0  18 1 0  18.75 1 0  19.5 1 0  20.25 1 0  21 1 0  21.75 1 0  22.5 1 0  23.25 1 0  24 1 0  24.75 1 0  25.5 1 0  26.25 1 0  27 1 0  27.75 1 0  28.5 1 0  29.25 1 0  30 1 0  30.75 1 0  31.5 1 0  32.25 1 0  33 1 0  33.75 1 0  34.5 1 0  35.25 1 0  36 1 0  36.75 1 0  37.5 1 0  38.25 1 0  39 1 0  39.75 1 0  40.5 1 0  41.25 1 0  42 1 0  42.75 1 0  43.5 1 0  44.25 1 0  45 1 0  45.75 1 0  46.5 1 0  47.25 1 0  48 1 0  48.75 1 0  49.5 1 0  50.25 1 0  51 1 0  51.75 1 0  52.5 1 0  53.25 1 0  54 1 0  54.75 1 0  55.5 1 0  56.25 1 0  57 1 0  57.75 1 0  58.5 1 0  59.25 1 0  60 1 0  0 1.5 0  0.75 1.5 0  1.5 1.5 0  2.25 1.5 0  3 1.5 0  3.75 1.5 0  4.5 1.5 0  5.25 1.5 0  6 1.5 0  6.75 1.5 0  7.5 1.5 0  8.25 1.5 0  9 1.5 0  9.75 1.5 0  10.5 1.5 0  11.25 1.5 0  12 1.5 0  12.75 1.5 0  13.5 1.5 0  14.25 1.5 0  15 1.5 0  15.75 1.5 0  16.5 1.5 0  17.25 1.5 0  18 1.5 0  18.75 1.5 0  19.5 1.5 0  20.25 1.5 0  21 1.5 0  21.75 1.5 0  22.5 1.5 0  23.25 1.5 0  24 1.5 0  24.75 1.5 0  25.5 1.5 0  26.25 1.5 0  27 1.5 0  27.75 1.5 0  28.5 1.5 0  29.25 1.5 0  30 1.5 0  30.75 1.5 0  31.5 1.5 0  32.25 1.5 0  33 1.5 0  33.75 1.5 0  34.5 1.5 0  35.25 1.5 0  36 1.5 0  36.75 1.5 0  37.5 1.5 0  38.25 1.5 0  39 1.5 0  39.75 1.5 0  40.5 1.5 0  41.25 1.5 0  42 1.5 0  42.75 1.5 0  43.5 1.5 0  44.25 1.5 0  45 1.5 0  45.75 1.5 0  46.5 1.5 0  47.25 1.5 0  48 1.5 0  48.75 1.5 0  49.5 1.5 0  50.25 1.5 0  51 1.5 0  51.75 1.5 0  52.5 1.5 0  53.25 1.5 0  54 1.5 0  54.75 1.5 0  55.5 1.5 0  56.25 1.5 0  57 1.5 0  57.75 1.5 0  58.5 1.5 0  59.25 1.5 0  60 1.5 0  0 2 0  0.75 2 0  1.5 2 0  2.25 2 0  3 2 0  3.75 2 0  4.5 2 0  5.25 2 0  6 2 0  6.75 2 0  7.5 2 0  8.25 2 0  9 2 0  9.75 2 0  10.5 2 0  11.25 2 0  12 2 0  12.75 2 0  13.5 2 0  14.25 2 0  15 2 0  15.75 2 0  16.5 2 0  17.25 2 0  18 2 0  18.75 2 0  19.5 2 0  20.25 2 0  21 2 0  21.75 2 0  22.5 2 0  23.25 2 0  24 2 0  24.75 2 0  25.5 2 0  26.25 2 0  27 2 0  27.75 2 0  28.5 2 0  29.25 2 0  30 2 0  30.75 2 0  31.5 2 0  32.25 2 0  33 2 0  33.75 2 0  34.5 2 0  35.25 2 0  36 2 0  36.75 2 0  37.5 2 0  38.25 2 0  39 2 0  39.75 2 0  40.5 2 0  41.25 2 0  42 2 0  42.75 2 0  43.5 2 0  44.25 2 0  45 2 0  45.75 2 0  46.5 2 0  47.25 2 0  48 2 0  48.75 2 0  49.5 2 0  50.25 2 0  51 2 0  51.75 2 0  52.5 2 0  53.25 2 0  54 2 0  54.75 2 0  55.5 2 0  56.25 2 0  57 2 0  57.75 2 0  58.5 2 0  59.25 2 0  60 2 0  0 2.5 0  0.75 2.5 0  1.5 2.5 0  2.25 2.5 0  3 2.5 0  3.75 2.5 0  4.5 2.5 0  5.25 2.5 0  6 2.5 0  6.75 2.5 0  7.5 2.5 0  8.25 2.5 0  9 2.5 0  9.75 2.5 0  10.5 2.5 0  11.25 2.5 0  12 2.5 0  12.75 2.5 0  13.5 2.5 0  14.25 2.5 0  15 2.5 0  15.75 2.5 0  16.5 2.5 0  17.25 2.5 0  18 2.5 0  18.75 2.5 0  19.5 2.5 0  20.25 2.5 0  21 2.5 0  21.75 2.5 0  22.5 2.5 0  23.25 2.5 0  24 2.5 0  24.75 2.5 0  25.5 2.5 0  26.25 2.5 0  27 2.5 0  27.75 2.5 0  28.5 2.5 0  29.25 2.5 0  30 2.5 0  30.75 2.5 0  31.5 2.5 0  32.25 2.5 0  33 2.5 0  33.75 2.5 0  34.5 2.5 0  35.25 2.5 0  36 2.5 0  36.75 2.5 0  37.5 2.5 0  38.25 2.5 0  39 2.5 0  39.75 2.5 0  40.5 2.5 0  41.25 2.5 0  42 2.5 0  42.75 2.5 0  43.5 2.5 0  44.25 2.5 0  45 2.5 0  45.75 2.5 0  46.5 2.5 0  47.25 2.5 0  48 2.5 0  48.75 2.5 0  49.5 2.5 0  50.25 2.5 0  51 2.5 0  51.75 2.5 0  52.5 2.5 0  53.25 2.5 0  54 2.5 0  54.75 2.5 0  55.5 2.5 0  56.25 2.5 0  57 2.5 0  57.75 2.5 0  58.5 2.5 0  59.25 2.5 0  60 2.5 0  0 3 0  0.75 3 0  1.5 3 0  2.25 3 0  3 3 0  3.75 3 0  4.5 3 0  5.25 3 0  6 3 0  6.75 3 0  7.5 3 0  8.25 3 0  9 3 0  9.75 3 0  10.5 3 0  11.25 3 0  12 3 0  12.75 3 0  13.5 3 0  14.25 3 0  15 3 0  15.75 3 0  16.5 3 0  17.25 3 0  18 3 0  18.75 3 0  19.5 3 0  20.25 3 0  21 3 0  21.75 3 0  22.5 3 0  23.25 3 0  24 3 0  24.75 3 0  25.5 3 0  26.25 3 0  27 3 0  27.75 3 0  28.5 3 0  29.25 3 0  30 3 0  30.75 3 0  31.5 3 0  32.25 3 0  33 3 0  33.75 3 0  34.5 3 0  35.25 3 0  36 3 0  36.75 3 0  37.5 3 0  38.25 3 0  39 3 0  39.75 3 0  40.5 3 0  41.25 3 0  42 3 0  42.75 3 0  43.5 3 0  44.25 3 0  45 3 0  45.75 3 0  46.5 3 0  47.25 3 0  48 3 0  48.75 3 0  49.5 3 0  50.25 3 0  51 3 0  51.75 3 0  52.5 3 0  53.25 3 0  54 3 0  54.75 3 0  55.5 3 0  56.25 3 0  57 3 0  57.75 3 0  58.5 3 0  59.25 3 0  60 3 0  0 3.5 0  0.75 3.5 0  1.5 3.5 0  2.25 3.5 0  3 3.5 0  3.75 3.5 0  4.5 3.5 0  5.25 3.5 0  6 3.5 0  6.75 3.5 0  7.5 3.5 0  8.25 3.5 0  9 3.5 0  9.75 3.5 0  10.5 3.5 0  11.25 3.5 0  12 3.5 0  12.75 3.5 0  13.5 3.5 0  14.25 3.5 0  15 3.5 0  15.75 3.5 0  16.5 3.5 0  17.25 3.5 0  18 3.5 0  18.75 3.5 0  19.5 3.5 0  20.25 3.5 0  21 3.5 0  21.75 3.5 0  22.5 3.5 0  23.25 3.5 0  24 3.5 0  24.75 3.5 0  25.5 3.5 0  26.25 3.5 0  27 3.5 0  27.75 3.5 0  28.5 3.5 0  29.25 3.5 0  30 3.5 0  30.75 3.5 0  31.5 3.5 0  32.25 3.5 0  33 3.5 0  33.75 3.5 0  34.5 3.5 0  35.25 3.5 0  36 3.5 0  36.75 3.5 0  37.5 3.5 0  38.25 3.5 0  39 3.5 0  39.75 3.5 0  40.5 3.5 0  41.25 3.5 0  42 3.5 0  42.75 3.5 0  43.5 3.5 0  44.25 3.5 0  45 3.5 0  45.75 3.5 0  46.5 3.5 0  47.25 3.5 0  48 3.5 0  48.75 3.5 0  49.5 3.5 0  50.25 3.5 0  51 3.5 0  51.75 3.5 0  52.5 3.5 0  53.25 3.5 0  54 3.5 0  54.75 3.5 0  55.5 3.5 0  56.25 3.5 0  57 3.5 0  57.75 3.5 0  58.5 3.5 0  59.25 3.5 0  60 3.5 0  0 4 0  0.75 4 0  1.5 4 0  2.25 4 0  3 4 0  3.75 4 0  4.5 4 0  5.25 4 0  6 4 0  6.75 4 0  7.5 4 0  8.25 4 0  9 4 0  9.75 4 0  10.5 4 0  11.25 4 0  12 4 0  12.75 4 0  13.5 4 0  14.25 4 0  15 4 0  15.75 4 0  16.5 4 0  17.25 4 0  18 4 0  18.75 4 0  19.5 4 0  20.25 4 0  21 4 0  21.75 4 0  22.5 4 0  23.25 4 0  24 4 0  24.75 4 0  25.5 4 0  26.25 4 0  27 4 0  27.75 4 0  28.5 4 0  29.25 4 0  30 4 0  30.75 4 0  31.5 4 0  32.25 4 0  33 4 0  33.75 4 0  34.5 4 0  35.25 4 0  36 4 0  36.75 4 0  37.5 4 0  38.25 4 0  39 4 0  39.75 4 0  40.5 4 0  41.25 4 0  42 4 0  42.75 4 0  43.5 4 0  44.25 4 0  45 4 0  45.75 4 0  46.5 4 0  47.25 4 0  48 4 0  48.75 4 0  49.5 4 0  50.25 4 0  51 4 0  51.75 4 0  52.5 4 0  53.25 4 0  54 4 0  54.75 4 0  55.5 4 0  56.25 4 0  57 4 0  57.75 4 0  58.5 4 0  59.25 4 0  60 4 0  0.375 0.25 0  1.125 0.25 0  1.875 0.25 0  2.625 0.25 0  3.375 0.25 0  4.125 0.25 0  4.875 0.25 0  5.625 0.25 0  6.375 0.25 0  7.125 0.25 0  7.875 0.25 0  8.625 0.25 0  9.375 0.25 0  10.125 0.25 0  10.875 0.25 0  11.625 0.25 0  12.375 0.25 0  13.125 0.25 0  13.875 0.25 0  14.625 0.25 0  15.375 0.25 0  16.125 0.25 0  16.875 0.25 0  17.625 0.25 0  18.375 0.25 0  19.125 0.25 0  19.875 0.25 0  20.625 0.25 0  21.375 0.25 0  22.125 0.25 0  22.875 0.25 0  23.625 0.25 0  24.375 0.25 0  25.125 0.25 0  25.875 0.25 0  26.625 0.25 0  27.375 0.25 0  28.125 0.25 0  28.875 0.25 0  29.625 0.25 0  30.375 0.25 0  31.125 0.25 0  31.875 0.25 0  32.625 0.25 0  33.375 0.25 0  34.125 0.25 0  34.875 0.25 0  35.625 0.25 0  36.375 0.25 0  37.125 0.25 0  37.875 0.25 0  38.625 0.25 0  39.375 0.25 0  40.125 0.25 0  40.875 0.25 0  41.625 0.25 0  42.375 0.25 0  43.125 0.25 0  43.875 0.25 0  44.625 0.25 0  45.375 0.25 0  46.125 0.25 0  46.875 0.25 0  47.625 0.25 0  48.375 0.25 0  49.125 0.25 0  49.875 0.25 0  50.625 0.25 0  51.375 0.25 0  52.125 0.25 0  52.875 0.25 0  53.625 0.25 0  54.375 0.25 0  55.125 0.25 0  55.875 0.25 0  56.625 0.25 0  57.375 0.25 0  58.125 0.25 0  58.875 0.25 0  59.625 0.25 0  0.375 0.75 0  1.125 0.75 0  1.875 0.75 0  2.625 0.75 0  3.375 0.75 0  4.125 0.75 0  4.875 0.75 0  5.625 0.75 0  6.375 0.75 0  7.125 0.75 0  7.875 0.75 0  8.625 0.75 0  9.375 0.75 0  10.125 0.75 0  10.875 0.75 0  11.625 0.75 0  12.375 0.75 0  13.125 0.75 0  13.875 0.75 0  14.625 0.75 0  15.375 0.75 0  16.125 0.75 0  16.875 0.75 0  17.625 0.75 0  18.375 0.75 0  19.125 0.75 0  19.875 0.75 0  20.625 0.75 0  21.375 0.75 0  22.125 0.75 0  22.875 0.75 0  23.625 0.75 0  24.375 0.75 0  25.125 0.75 0  25.875 0.75 0  26.625 0.75 0  27.375 0.75 0  28.125 0.75 0  28.875 0.75 0  29.625 0.75 0  30.375 0.75 0  31.125 0.75 0  31.875 0.75 0  32.625 0.75 0  33.375 0.75 0  34.125 0.75 0  34.875 0.75 0  35.625 0.75 0  36.375 0.75 0  37.125 0.75 0  37.875 0.75 0  38.625 0.75 0  39.375 0.75 0  40.125 0.75 0  40
[...]
<PointData  Vectors="f_8-0"> 
<DataArray  type="Float64"  Name="f_8-0"  NumberOfComponents="3" format="ascii">0.0000000000000000e+00 0.0000000000000000e+00 0.0000000000000000e+00  0.0000000000000000e+00 0.0000000000000000e+00 0.0000000000000000e+00  0.0000000000000000e+00 0.0000000000000000e+00 0.0000000000000000e+00  0.0000000000000000e+00 0.0000000000000000e+00 0.0000000000000000e+00  0.0000000000000000e+00 0.0000000000000000e+00 0.0000000000000000e+00  0.0000000000000000e+00 0.0000000000000000e+00 0.0000000000000000e+00  0.0000000000000000e+00 0.0000000000000000e+00 0.0000000000000000e+00  0.0000000000000000e+00 0.0000000000000000e+00 0.0000000000000000e+00  0.0000000000000000e+00 0.0000000000000000e+00 0.0000000000000000e+00  0.0000000000000000e+00 0.0000000000000000e+00 0.0000000000000000e+00  0.0000000000000000e+00 0.0000000000000000e+00 0.0000000000000000e+00  0.0000000000000000e+00 0.0000000000000000e+00 0.0000000000000000e+00  0.0000000000000000e+00 0.0000000000000000e+00 0.0000000000000000e+00  0.0000000000000000e+00 0.0000000000000000e+00 0.0000000000000000e+00  0.0000000000000000e+00 0.0000000000000000e+00 0.0000000000000000e+00  0.0000000000000000e+00 0.0000000000000000e+00 0.0000000000000000e+00  0.0000000000000000e+00 0.0000000000000000e+00 0.0000000000000000e+00  0.0000000000000000e+00 0.0000000000000000e+00 0.0000000000000000e+00  0.0000000000000000e+00 0.0000000000000000e+00 0.0000000000000000e+00  0.0000000000000000e+00 0.0000000000000000e+00 0.0000000000000000e+00  0.0000000000000000e+00 0.0000000000000000e+00 0.0000000000000000e+00  0.0000000000000000e+00 0.0000000000000000e+00 0.0000000000000000e+00  0.0000000000000000e+00 0.0000000000000000e+00 0.0000000000000000e+00  0.0000000000000000e+00 0.0000000000000000e+00 0.0000000000000000e+00  0.0000000000000000e+00 0.0000000000000000e+00 0.0000000000000000e+00  0.0000000000000000e+00 0.0000000000000000e+00 0.0000000000000000e+00  0.0000000000000000e+00 0.0000000000000000e+00 0.0000000000000000e+00  0.0000000000000000e+00 0.0000000000000000e+00 0.0000000000000000e+00  0.0000000000000000e+00 0.0000000000000000e+00 0.0000000000000000e+00  0.0000000000000000e+00 0.0000000000000000e+00 0.0000000000000000e+00  0.0000000000000000e+00 0.0000000000000000e+00 0.0000000000000000e+00  0.0000000000000000e+00 0.0000000000000000e+00 0.0000000000000000e+00  0.0000000000000000e+00 0.0000000000000000e+00 0.0000000000000000e+00  0.0000000000000000e+00 0.0000000000000000e+00 0.0000000000000000e+00  0.0000000000000000e+00 0.0000000000000000e+00 0.0000000000000000e+00  0.0000000000000000e+00 0.0000000000000000e+00 0.0000000000000000e+00  0.0000000000000000e+00 0.0000000000000000e+00 0.0000000000000000e+00  0.0000000000000000e+00 0.0000000000000000e+00 0.0000000000000000e+00  0.0000000000000000e+00 0.0000000000000000e+00 0.0000000000000000e+00  0.0000000000000000e+00 0.0000000000000000e+00 0.0000000000000000e+00  0.0000000000000000e+00 0.0000000000000000e+00 0.0000000000000000e+00  0.0000000000000000e+00 0.0000000000000000e+00 0.0000000000000000e+00  0.0000000000000000e+00 0.0000000000000000e+00 0.0000000000000000e+00  0.0000000000000000e+00 0.0000000000000000e+00 0.0000000000000000e+00  0.0000000000000000e+00 0.0000000000000000e+00 0.0000000000000000e+00  0.0000000000000000e+00 0.0000000000000000e+00 0.0000000000000000e+00  0.0000000000000000e+00 0.0000000000000000e+00 0.0000000000000000e+00  0.0000000000000000e+00 0.0000000000000000e+00 0.0000000000000000e+00  0.0000000000000000e+00 0.0000000000000000e+00 0.0000000000000000e+00  0.0000000000000000e+00 0.0000000000000000e+00 0.0000000000000000e+00  0.0000000000000000e+00 0.0000000000000000e+00 0.0000000000000000e+00  0.0000000000000000e+00 0.0000000000000000e+00 0.0000000000000000e+00  0.0000000000000000e+00 0.0000000000000000e+00 0.0000000000000000e+00  0.0000000000000000e+00 0.0000000000000000e+00 0.0000000000000000e+00  0.0000000000000000e+00 0.0000000000000000e+00 0.0000000000000000e+00  0.0000000000000000e+00 0.0000000000000000e+00 0.0000000000000000e+00  0.0000000000000000e+00 0.0000000000000000e+00 0.0000000000000000e+00  0.0000000000000000e+00 0.0000000000000000e+00 0.0000000000000000e+00  0.0000000000000000e+00 0.0000000000000000e+00 0.0000000000000000e+00  0.0000000000000000e+00 0.0000000000000000e+00 0.0000000000000000e+00  0.0000000000000000e+00 0.0000000000000000e+00 0.0000000000000000e+00  0.0000000000000000e+00 0.0000000000000000e+00 0.0000000000000000e+00  0.0000000000000000e+00 0.0000000000000000e+00 0.0000000000000000e+00  0.0000000000000000e+00 0.0000000000000000e+00 0.0000000000000000e+00  0.0000000000000000e+00 0.0000000000000000e+00 0.0000000000000000e+00  0.0000000000000000e+00 0.0000000000000000e+00 0.0000000000000000e+00  0.0000000000000000e+00 0.0000000000000000e+00 0.0000000000000000e+00  0.0000000000000000e+00 0.0000000000000000e+00 0.0000000000000000e+00  0.0000000000000000e+00 0.0000000000000000e+00 0.0000000000000000e+00  0.0000000000000000e+00 0.0000000000000000e+00 0.0000000000000000e+00  0.0000000000000000e+00 0.0000000000000000e+00 0.0000000000000000e+00  0.0000000000000000e+00 0.0000000000000000e+00 0.0000000000000000e+00  0.0000000000000000e+00 0.0000000000000000e+00 0.0000000000000000e+00  0.0000000000000000e+00 0.0000000000000000e+00 0.0000000000000000e+00  0.0000000000000000e+00 0.0000000000000000e+00 0.0000000000000000e+00  0.0000000000000000e+00 0.0000000000000000e+00 0.0000000000000000e+00  0.0000000000000000e+00 0.0000000000000000e+00 0.0000000000000000e+00  0.0000000000000000e+00 0.0000000000000000e+00 0.0000000000000000e+00  0.0000000000000000e+00 0.0000000000000000e+00 0.0000000000000000e+00  0.0000000000000000e+00 0.0000000000000000e+00 0.0000000000000000e+00  0.0000000000000000e+00 0.0000000000000000e+00 0.0000000000000000e+00  2.4716408202918881e+01 0.0000000000000000e+00 0.0000000000000000e+00  2.4704328773328854e+01 7.0257363218220667e-02 0.0000000000000000e+00  2.4714075564451566e+01 3.5090173073090376e-02 0.0000000000000000e+00  2.4687881816324118e+01 6.3584527000911809e-03 0.0000000000000000e+00  2.4683918598373374e+01 4.7004981150170905e-03 0.0000000000000000e+00  2.4685636798699139e+01 3.6399994494843383e-03 0.0000000000000000e+00  2.4684978928221941e+01 4.4160228082208595e-03 0.0000000000000000e+00  2.4686009718024923e+01 4.3575470813710304e-03 0.0000000000000000e+00  2.4685565924445278e+01 4.4236026341147984e-03 0.0000000000000000e+00  2.4685903646406995e+01 4.4276668914197655e-03 0.0000000000000000e+00  2.4685768527642498e+01 4.4322085143585028e-03 0.0000000000000000e+00  2.4685851507913579e+01 4.4345337507845613e-03 0.0000000000000000e+00  2.4685823615944248e+01 4.4353710820936370e-03 0.0000000000000000e+00  2.4685840237436743e+01 4.4358771817771874e-03 0.0000000000000000e+00  2.4685835874229081e+01 4.4361640560029447e-03 0.0000000000000000e+00  2.4685838857645496e+01 4.4362747120192071e-03 0.0000000000000000e+00  2.4685838356089555e+01 4.4363594585972183e-03 0.0000000000000000e+00  2.4685838877947194e+01 4.4363882842403165e-03 0.0000000000000000e+00  2.4685838856310543e+01 4.4364104733448893e-03 0.0000000000000000e+00  2.4685838952138418e+01 4.4364186453605021e-03 0.0000000000000000e+00  2.4685838962996886e+01 4.4364242378246866e-03 0.0000000000000000e+00  2.4685838982459011e+01 4.4364265661716090e-03 0.0000000000000000e+00  2.4685838987665608e+01 4.4364279912770758e-03 0.0000000000000000e+00  2.4685838992091050e+01 4.4364286464637507e-03 0.0000000000000000e+00  2.4685838993807913e+01 4.4364290188001858e-03 0.0000000000000000e+00  2.4685838994910220e+01 4.4364292011327584e-03 0.0000000000000000e+00  2.4685838995418468e+01 4.4364293010887706e-03 0.0000000000000000e+00  2.4685838995710743e+01 4.4364293535359952e-03 0.0000000000000000e+00  2.4685838995858354e+01 4.4364293833356024e-03 0.0000000000000000e+00  2.4685838995933590e+01 4.4364293925593023e-03 0.0000000000000000e+00  2.4685838995980379e+01 4.4364293992678553e-03 0.0000000000000000e+00  2.4685838996006975e+01 4.4364294075078716e-03 0.0000000000000000e+00  2.4685838996014343e+01 4.4364294059991514e-03 0.0000000000000000e+00  2.4685838996025151e+01 4.4364294084676299e-03 0.0000000000000000e+00  2.4685838996028359e+01 4.4364294145785542e-03 0.0000000000000000e+00  2.4685838996026298e+01 4.4364294101503013e-03 0.0000000000000000e+00  2.4685838996027883e+01 4.4364294101512328e-03 0.0000000000000000e+00  2.4685838996024827e+01 4.4364294094069341e-03 0.0000000000000000e+00  2.4685838996028721e+01 4.4364294132932568e-03 0.0000000000000000e+00  2.4685838996028341e+01 4.4364294087469395e-03 0.0000000000000000e+00  2.4685838996028970e+01 4.4364294124224751e-03 0.0000000000000000e+00  2.4685838996029730e+01 4.4364294098422951e-03 0.0000000000000000e+00  2.4685838996033432e+01 4.4364294116972765e-03 0.0000000000000000e+00  2.4685838996036821e+01 4.4364294088386933e-03 0.0000000000000000e+00  2.4685838996041511e+01 4.4364294110444498e-03 0.0000000000000000e+00  2.4685838996045369e+01 4.4364294029532311e-03 0.0000000000000000e+00  2.4685838996064447e+01 4.4364294026181198e-03 0.0000000000000000e+00  2.4685838996097665e+01 4.4364293788895200e-03 0.0000000000000000e+00  2.4685838996184334e+01 4.4364293553520928e-03 0.0000000000000000e+00  2.4685838996342607e+01 4.4364292759000801e-03 0.0000000000000000e+00  2.4685838996726666e+01 4.4364291418931773e-03 0.0000000000000000e+00  2.4685838997453516e+01 4.4364288345603558e-03 0.0000000000000000e+00  2.4685838999115745e+01 4.4364282111097044e-03 0.0000000000000000e+00  2.4685839002358762e+01 4.4364269255982528e-03 0.0000000000000000e+00  2.4685839009459649e+01 4.4364241736187787e-03 0.0000000000000000e+00  2.4685839023700563e+01 4.4364186443683383e-03 0.0000000000000000e+00  2.4685839054024186e+01 4.4364066664310505e-03 0.0000000000000000e+00  2.4685839115851177e+01 4.4363823374068368e-03 0.0000000000000000e+00  2.4685839246095128e+01 4.4363292994568865e-03 0.0000000000000000e+00  2.4685839515689786e+01 4.4362180162558738e-03 0.0000000000000000e+00  2.4685840089083325e+01 4.4359672607027448e-03 0.0000000000000000e+00  2.4685841325453769e+01 4.4353989753914838e-03 0.0000000000000000e+00  2.4685844123841836e+01 4.4340224958077596e-03 0.0000000000000000e+00  2.4685850746141636e+01 4.4306640811041936e-03 0.0000000000000000e+00  2.4685867063940876e+01 4.4224585125833575e-03 0.0000000000000000e+00  2.4685907415333940e+01 4.4034801174153357e-03 0.0000000000000000e+00  2.4686004041745175e+01 4.3629167373740131e-03 0.0000000000000000e+00  2.4686220050729080e+01 4.2862376167312330e-03 0.0000000000000000e+00  2.4686657926773545e+01 4.1628676744868160e-03 0.0000000000000000e+00  2.4687438093651160e+01 4.0070328341270962e-03 0.0000000000000000e+00  2.4688618280181142e+01 3.8759184330328864e-03 0.0000000000000000e+00  2.4690076751803872e+01 3.8518133676748146e-03 0.0000000000000000e+00  2.4691509886419016e+01 3.9647651238867666e-03 0.0000000000000000e+00  2.4692615858408594e+01 4.1838715916745354e-03 0.0000000000000000e+00  2.4693163126683157e+01 4.5296601196786988e-03 0.0000000000000000e+00  2.4692786151090058e+01 5.1031497446688114e-03 0.0000000000000000e+00  2.4690912898911254e+01 5.9516002013342223e-03 0.0000000000000000e+00  2.4686707206889302e+01 7.0488251988937781e-03 0.0000000000000000e+00  2.4678540310824197e+01 7.8536364251490121e-03 0.0000000000000000e+00  2.4660234085932700e+01 5.4287479671550013e-03 0.0000000000000000e+00  2.4638879758990658e+01 0.0000000000000000e+00 0.0000000000000000e+00  2.4710439757470350e+01 0.0000000000000000e+00 0.0000000000000000e+00  2.4639615001462506e+01 -1.5603150850853889e-02 0.0000000000000000e+00  2.4694549729914133e+01 1.4241742008464361e-02 0.0000000000000000e+00  2.4705384740099017e+01 4.0912802647142862e-03 0.0000000000000000e+00  2.4709782697055953e+01 3.2922376318989487e-05 0.0000000000000000e+00  2.4708096897015260e+01 -1.0816242714340749e-03 0.0000000000000000e+00  2.4708773963367292e+01 -1.8941334359321100e-04 0.0000000000000000e+00  2.4708413927882951e+01 -4.5285329256876064e-04 0.0000000000000000e+00  2.4708714576905813e+01 -1.5657535645097672e-04 0.0000000000000000e+00  2.4708593352458720e+01 -2.4365916696710092e-04 0.0000000000000000e+00  2.4708683882531513e+01 -1.7740859288209644e-04 0.0000000000000000e+00  2.4708652590933816e+01 -1.9381389807640785e-04 0.0000000000000000e+00  2.4708674247573331e+01 -1.8111921479187028e-04 0.0000000000000000e+00  2.4708668268027161e+01 -1.8306350831140121e-04 0.0000000000000000e+00  2.4708672724454676e+01 -1.8074779581247607e-04 0.0000000000000000e+00  2.4708671881429485e+01 -1.8078266980064007e-04 0.0000000000000000e+00  2.4708672733059771e+01 -1.8034256688033033e-04 0.0000000000000000e+00  2.4708672667618249e+01 -1.8027688485331106e-04 0.0000000000000000e+00  2.4708672829960012e+01 -1.8018509473646165e-04 0.0000000000000000e+00  2.4708672839950705e+01 -1.8015757004858518e-04 0.0000000000000000e+00  2.4708672872682047e+01 -1.8013648030804243e-04 0.0000000000000000e+00  2.4708672879525665e+01 -1.8012790440802290e-04 0.0000000000000000e+00  2.4708672886731925e+01 -1.8012269681067072e-04 0.0000000000000000e+00  2.4708672889159683e+01 -1.8012024382388743e-04 0.0000000000000000e+00  2.4708672890893801e+01 -1.8011890754222296e-04 0.0000000000000000e+00  2.4708672891630822e+01 -1.8011821635608666e-04 0.0000000000000000e+00  2.4708672892075594e+01 -1.8011785879778238e-04 0.0000000000000000e+00  2.4708672892291094e+01 -1.8011767152471760e-04 0.0000000000000000e+00  2.4708672892406963e+01 -1.8011757291419876e-04 0.0000000000000000e+00  2.4708672892463792e+01 -1.8011751357163046e-04 0.0000000000000000e+00  2.4708672892500324e+01 -1.8011749634704876e-04 0.0000000000000000e+00  2.4708672892517942e+01 -1.8011747987845448e-04 0.0000000000000000e+00  2.4708672892528167e+01 -1.8011746407872205e-04 0.0000000000000000e+00  2.4708672892534665e+01 -1.8011747040909485e-04 0.0000000000000000e+00  2.4708672892538083e+01 -1.8011746155930500e-04 0.0000000000000000e+00  2.4708672892538768e+01 -1.8011746544043431e-04 0.0000000000000000e+00  2.4708672892534615e+01 -1.8011746227922470e-04 0.0000000000000000e+00  2.4708672892535628e+01 -1.8011745770762886e-04 0.0000000000000000e+00  2.4708672892534743e+01 -1.8011746478563317e-04 0.0000000000000000e+00  2.4708672892536438e+01 -1.8011746150272802e-04 0.0000000000000000e+00  2.4708672892534196e+01 -1.8011746041332645e-04 0.0000000000000000e+00  2.4708672892537297e+01 -1.8011746284134781e-04 0.0000000000000000e+00  2.4708672892538200e+01 -1.8011746288969102e-04 0.0000000000000000e+00  2.4708672892544485e+01 -1.8011746639587926e-04 0.0000000000000000e+00  2.4708672892543326e+01 -1.8011746518648152e-04 0.0000000000000000e+00  2.4708672892546726e+01 -1.8011747279913723e-04 0.0000000000000000e+00  2.4708672892544246e+01 -1.8011747930089147e-04 0.0000000000000000e+00  2.4708672892564252e+01 -1.8011752264642788e-04 0.0000000000000000e+00  2.4708672892572082e+01 -1.8011756849480086e-04 0.0000000000000000e+00  2.4708672892632997e+01 -1.8011771755765431e-04 0.0000000000000000e+00  2.4708672892727048e+01 -1.8011797730857699e-04 0.0000000000000000e+00  2.4708672892964273e+01 -1.8011857341383857e-04 0.0000000000000000e+00  2.4708672893443037e+01 -1.8011976984740838e-04 0.0000000000000000e+00  2.4708672894419131e+01 -1.8012227248222890e-04 0.0000000000000000e+00  2.4708672896571741e+01 -1.8012753299798348e-04 0.0000000000000000e+00  2.4708672900756330e+01 -1.8013827145423733e-04 0.0000000000000000e+00  2.4708672909928044e+01 -1.8016110764400536e-04 0.0000000000000000e+00  2.4708672927716922e+01 -1.8020791837111558e-04 0.0000000000000000e+00  2.4708672965761114e+01 -1.8030832255142777e-04 0.0000000000000000e+00  2.4708673039573299e+01 -1.8051824429897781e-04 0.0000000000000000e+00  2.4708673190997548e+01 -1.8097987727036315e-04 0.0000000000000000e+00  2.4708673478442623e+01 -1.8200602623125032e-04 0.0000000000000000e+00  2.4708674056954919e+01 -1.8444034877141200e-04 0.0000000000000000e+00  2.4708675271142599e+01 -1.9038185823765569e-04 0.0000000000000000e+00  2.4708678341591853e+01 -2.0517615801945478e-04 0.0000000000000000e+00  2.4708687051058455e+01 -2.4075744373206945e-04 0.0000000000000000e+00  2.4708712715050904e+01 -3.2086334403138124e-04 0.0000000000000000e+00  2.4708783467383888e+01 -4.8265068209378558e-04 0.0000000000000000e+00  2.4708958374433600e+01 -7.6473612206457906e-04 0.0000000000000000e+00  2.4709327642934060e+01 -1.1588835711043078e-03 0.0000000000000000e+00  2.4709959207301438e+01 -1.5393470519485595e-03 0.0000000000000000e+00  2.4710779584375370e+01 -1.6755081854228418e-03 0.0000000000000000e+00  2.4711584606708840e+01 -1.4683219360521935e-03 0.0000000000000000e+00  2.4712285534477488e+01 -1.0481522238644987e-03 0.0000000000000000e+00  2.4712914607098877e+01 -3.9746791577780779e-04 0.0000000000000000e+00  2.4713392568251606e+01 7.1120572333924984e-04 0.0000000000000000e+00  2.4713633925152372e+01 2.4244483251235540e-03 0.0000000000000000e+00  2.4713414273334443e+01 4.9958889632584344e-03 0.0000000000000000e+00  2.4712288620046863e+01 8.6436175610104509e-03 0.0000000000000000e+00  2.4710673180512817e+01 1.2916694864324870e-02 0.0000000000000000e+00  2.4711473061269896e+01 0.0000000000000000e+00 0.0000000000000000e+00  2.1767099156602963e+01 0.0000000000000000e+00 0.0000000000000000e+00  2.1761559259518986e+01 8.4375737939238306e-04 0.0000000000000000e+00  2.1761737522891842e+01 -4.1918872739071062e-03 0.0000000000000000e+00  2.1767247581426755e+01 4.5395761464504737e-04 0.0000000000000000e+00  2.1766746209178308e+01 -1.8469436650833755e-03 0.0000000000000000e+00  2.1767263046943484e+01 -1.7391396199672032e-03 0.0000000000000000e+00  2.1766472990958103e+01 -1.8878572062776607e-03 0.0000000000000000e+00  2.1766535871250070e+01 -1.6246945343571439e-03 0.0000000000000000e+00  2.1766345091429642e+01 -1.6665176846212214e-03 0.0000000000000000e+00  2.1766367731166866e+01 -1.5928888593084360e-03 0.0000000000000000e+00  2.1766321804354551e+01 -1.6053323006309124e-03 0.0000000000000000e+00  2.1766326171085449e+01 -1.5882971934518516e-03 0.0000000000000000e+00  2.1766315313902954e+01 -1.5901391623112525e-03 0.0000000000000000e+00  2.1766315548902451e+01 -1.5864934878459351e-03 0.0000000000000000e+00  2.1766313073673562e+01 -1.5864744439577025e-03 0.0000000000000000e+00  2.1766312878523678e+01 -1.5857042786987941e-03 0.0000000000000000e+00  2.1766312322509130e+01 -1.5855930416004231e-03 0.0000000000000000e+00  2.1766312216503852e+01 -1.5854242260996247e-03 0.0000000000000000e+00  2.1766312089482572e+01 -1.5853772562420458e-03 0.0000000000000000e+00  2.1766312051645098e+01 -1.5853380532128395e-03 0.0000000000000000e+00  2.1766312021457722e+01 -1.5853230898648155e-03 0.0000000000000000e+00  2.1766312009802228e+01 -1.5853134665513257e-03 0.0000000000000000e+00  2.1766312002280042e+01 -1.5853091562414124e-03 0.0000000000000000e+00  2.1766311998908307e+01 -1.5853066889273055e-03 0.0000000000000000e+00  2.1766311996952791e+01 -1.5853054970220667e-03 0.0000000000000000e+00  2.1766311996000113e+01 -1.5853048362370653e-03 0.0000000000000000e+00  2.1766311995475242e+01 -1.5853045094165442e-03 0.0000000000000000e+00  2.1766311995206987e+01 -1.5853043335303065e-03 0.0000000000000000e+00  2.1766311995061546e+01 -1.5853042393306491e-03 0.0000000000000000e+00  2.1766311994986133e+01 -1.5853041873743817e-03 0.0000000000000000e+00  2.1766311994942850e+01 -1.5853041720149733e-03 0.0000000000000000e+00  2.1766311994924990e+01 -1.5853041544870538e-03 0.0000000000000000e+00  2.1766311994912883e+01 -1.5853041432613364e-03 0.0000000000000000e+00  2.1766311994903585e+01 -1.5853041458648450e-03 0.0000000000000000e+00  2.1766311994903315e+01 -1.5853041392583111e-03 0.0000000000000000e+00  2.1766311994901514e+01 -1.5853041367730445e-03 0.0000000000000000e+00  2.1766311994900295e+01 -1.5853041351231460e-03 0.0000000000000000e+00  2.1766311994898608e+01 -1.5853041358833938e-03 0.0000000000000000e+00  2.1766311994897915e+01 -1.5853041422104631e-03 0.0000000000000000e+00  2.1766311994897194e+01 -1.5853041355348716e