<?xml version="1.0"?>
<VTKFile type="UnstructuredGrid"  version="0.1"  >
<UnstructuredGrid>
<Piece  NumberOfPoints="1369" NumberOfCells="2560">
<Points>
<DataArray  type="Float64"  NumberOfComponents="3"  format="ascii">0 0 0  0.75 0 0  1.5 0 0  2.25 0 0  3 0 0  3.75 0 0  4.5 0 0  5.25 0 0  6 0 0  6.75 0 0  7.5 0 0  8.25 0 0  9 0 0  9.75 0 0  10.5 0 0  11.25 0 0  12 0 0  12.75 0 0  13.5 0 0  14.25 0 0  15 0 0  15.75 0 0  16.5 0 0  17.25 0 0  18 0 0  18.75 0 0  19.5 0 0  20.25 0 0  21 0 0  21.75 0 0  22.5 0 0  23.25 0 0  24 0 0  24.75 0 0  25.5 0 0  26.25 0 0  27 0 0  27.75 0 0  28.5 0 0  29.25 0 0  30 0 0  30.75 0 0  31.5 0 0  32.25 0 0  33 0 0  33.75 0 0  34.5 0 0  35.25 0 0  36 0 0  36.75 0 0  37.5 0 0  38.25 0 0  39 0 0  39.75 0 0  40.5 0 0  41.25 0 0  42 0 0  42.75 0 0  43.5 0 0  44.25 0 0  45 0 0  45.75 0 0  46.5 0 0  47.25 0 0  48 0 0  48.75 0 0  49.5 0 0  50.25 0 0  51 0 0  51.75 0 0  52.5 0 0  53.25 0 0  54 0 0  54.75 0 0  55.5 0 0  56.25 0 0  57 0 0  57.75 0 0  58.5 0 0  59.25 0 0  60 0 0  0 0.5 0  0.75 0.5 0  1.5 0.5 0  2.25 0.5 0  3 0.5 0  3.75 0.5 0  4.5 0.5 0  5.25 0.5 0  6 0.5 0  6.75 0.5 0  7.5 0.5 0  8.25 0.5 0  9 0.5 0  9.75 0.5 0  10.5 0.5 0  11.25 0.5 0  12 0.5 0  12.75 0.5 0  13.5 0.5 0  14.25 0.5 0  15 0.5 0  15.75 0.5 0  16.5 0.5 0  17.25 0.5 0  18 0.5 0  18.75 0.5 0  19.5 0.5 0  20.25 0.5 0  21 0.5 0  21.75 0.5 0  22.5 0.5 0  23.25 0.5 0  24 0.5 0  24.75 0.5 0  25.5 0.5 0  26.25 0.5 0  27 0.5 0  27.75 0.5 0  28.5 0.5 0  29.25 0.5 0  30 0.5 0  30.75 0.5 0  31.5 0.5 0  32.25 0.5 0  33 0.5 0  33.75 0.5 0  34.5 0.5 0  35.25 0.5 0  36 0.5 0  36.75 0.5 0  37.5 0.5 0  38.25 0.5 0  39 0.5 0  39.75 0.5 0  40.5 0.5 0  41.25 0.5 0  42 0.5 0  42.75 0.5 0  43.5 0.5 0  44.25 0.5 0  45 0.5 0  45.75 0.5 0  46.5 0.5 0  47.25 0.5 0  48 0.5 0  48.75 0.5 0  49.5 0.5 0  50.25 0.5 0  51 0.5 0  51.75 0.5 0  52.5 0.5 0  53.25 0.5 0  54 0.5 0  54.75 0.5 0  55.5 0.5 0  56.25 0.5 0  57 0.5 0  57.75 0.5 0  58.5 0.5 0  59.25 0.5 0  60 0.5 0  0 1 0  0.75 1 0  1.5 1 0  2.25 1 0  3 1 0  3.75 1 0  4.5 1 0  5.25 1 0  6 1 0  6.75 1 0  7.5 1 0  8.25 1 0  9 1 0  9.75 1 0  10.5 1 0  11.25 1 0  12 1 0  12.75 1 0  13.5 1 0  14.25 1 0  15 1 0  15.75 1 0  16.5 1 0  17.25 1 0  18 1 0  18.75 1 0  19.5 1 0  20.25 1 0  21 1 0  21.75 1 0  22.5 1 0  23.25 1 0  24 1 0  24.75 1 0  25.5 1 0  26.25 1 0  27 1 0  27.75 1 0  28.5 1 0  29.25 1 0  30 1 0  30.75 1 0  31.5 1 0  32.25 1 0  33 1 0  33.75 1 0  34.5 1 0  35.25 1 0  36 1 0  36.75 1 0  37.5 1 0  38.25 1 0  39 1 0  39.75 1 0  40.5 1 0  41.25 1 0  42 1 0  42.75 1 0  43.5 1 0  44.25 1 0  45 1 0  45.75 1 0  46.5 1 0  47.25 1 0  48 1 0  48.75 1 0  49.5 1 0  50.25 1 0  51 1 0  51.75 1 0  52.5 1 0  53.25 1 0  54 1 0  54.75 1 0  55.5 1 0  56.25 1 0  57 1 0  57.75 1 0  58.5 1 0  59.25 1 0  60 1 0  0 1.5 0  0.75 1.5 0  1.5 1.5 0  2.25 1.5 0  3 1.5 0  3.75 1.5 0  4.5 1.5 0  5.25 1.5 0  6 1.5 0  6.75 1.5 0  7.5 1.5 0  8.25 1.5 0  9 1.5 0  9.75 1.5 0  10.5 1.5 0  11.25 1.5 0  12 1.5 0  12.75 1.5 0  13.5 1.5 0  14.25 1.5 0  15 1.5 0  15.75 1.5 0  16.5 1.5 0  17.25 1.5 0  18 1.5 0  18.75 1.5 0  19.5 1.5 0  20.25 1.5 0  21 1.5 0  21.75 1.5 0  22.5 1.5 0  23.25 1.5 0  24 1.5 0  24.75 1.5 0  25.5 1.5 0  26.25 1.5 0  27 1.5 0  27.75 1.5 0  28.5 1.5 0  29.25 1.5 0  30 1.5 0  30.75 1.5 0  31.5 1.5 0  32.25 1.5 0  33 1.5 0  33.75 1.5 0  34.5 1.5 0  35.25 1.5 0  36 1.5 0  36.75 1.5 0  37.5 1.5 0  38.25 1.5 0  39 1.5 0  39.75 1.5 0  40.5 1.5 0  41.25 1.5 0  42 1.5 0  42.75 1.5 0  43.5 1.5 0  44.25 1.5 0  45 1.5 0  45.75 1.5 0  46.5 1.5 0  47.25 1.5 0  48 1.5 0  48.75 1.5 0  49.5 1.5 0  50.25 1.5 0  51 1.5 0  51.75 1.5 0  52.5 1.5 0  53.25 1.5 0  54 1.5 0  54.75 1.5 0  55.5 1.5 0  56.25 1.5 0  57 1.5 0  57.75 1.5 0  58.5 1.5 0  59.25 1.5 0  60 1.5 0  0 2 0  0.75 2 0  1.5 2 0  2.25 2 0  3 2 0  3.75 2 0  4.5 2 0  5.25 2 0  6 2 0  6.75 2 0  7.5 2 0  8.25 2 0  9 2 0  9.75 2 0  10.5 2 0  11.25 2 0  12 2 0  12.75 2 0  13.5 2 0  14.25 2 0  15 2 0  15.75 2 0  16.5 2 0  17.25 2 0  18 2 0  18.75 2 0  19.5 2 0  20.25 2 0  21 2 0  21.75 2 0  22.5 2 0  23.25 2 0  24 2 0  24.75 2 0  25.5 2 0  26.25 2 0  27 2 0  27.75 2 0  28.5 2 0  29.25 2 0  30 2 0  30.75 2 0  31.5 2 0  32.25 2 0  33 2 0  33.75 2 0  34.5 2 0  35.25 2 0  36 2 0  36.75 2 0  37.5 2 0  38.25 2 0  39 2 0  39.75 2 0  40.5 2 0  41.25 2 0  42 2 0  42.75 2 0  43.5 2 0  44.25 2 0  45 2 0  45.75 2 0  46.5 2 0  47.25 2 0  48 2 0  48.75 2 0  49.5 2 0  50.25 2 0  51 2 0  51.75 2 0  52.5 2 0  53.25 2 0  54 2 0  54.75 2 0  55.5 2 0  56.25 2 0  57 2 0  57.75 2 0  58.5 2 0  59.25 2 0  60 2 0  0 2.5 0  0.75 2.5 0  1.5 2.5 0  2.25 2.5 0  3 2.5 0  3.75 2.5 0  4.5 2.5 0  5.25 2.5 0  6 2.5 0  6.75 2.5 0  7.5 2.5 0  8.25 2.5 0  9 2.5 0  9.75 2.5 0  10.5 2.5 0  11.25 2.5 0  12 2.5 0  12.75 2.5 0  13.5 2.5 0  14.25 2.5 0  15 2.5 0  15.75 2.5 0  16.5 2.5 0  17.25 2.5 0  18 2.5 0  18.75 2.5 0  19.5 2.5 0  20.25 2.5 0  21 2.5 0  21.75 2.5 0  22.5 2.5 0  23.25 2.5 0  24 2.5 0  24.75 2.5 0  25.5 2.5 0  26.25 2.5 0  27 2.5 0  27.75 2.5 0  28.5 2.5 0  29.25 2.5 0  30 2.5 0  30.75 2.5 0  31.5 2.5 0  32.25 2.5 0  33 2.5 0  33.75 2.5 0  34.5 2.5 0  35.25 2.5 0  36 2.5 0  36.75 2.5 0  37.5 2.5 0  38.25 2.5 0  39 2.5 0  39.75 2.5 0  40.5 2.5 0  41.25 2.5 0  42 2.5 0  42.75 2.5 0  43.5 2.5 0  44.25 2.5 0  45 2.5 0  45.75 2.5 0  46.5 2.5 0  47.25 2.5 0  48 2.5 0  48.75 2.5 0  49.5 2.5 0  50.25 2.5 0  51 2.5 0  51.75 2.5 0  52.5 2.5 0  53.25 2.5 0  54 2.5 0  54.75 2.5 0  55.5 2.5 0  56.25 2.5 0  57 2.5 0  57.75 2.5 0  58.5 2.5 0  59.25 2.5 0  60 2.5 0  0 3 0  0.75 3 0  1.5 3 0  2.25 3 0  3 3 0  3.75 3 0  4.5 3 0  5.25 3 0  6 3 0  6.75 3 0  7.5 3 0  8.25 3 0  9 3 0  9.75 3 0  10.5 3 0  11.25 3 0  12 3 0  12.75 3 0  13.5 3 0  14.25 3 0  15 3 0  15.75 3 0  16.5 3 0  17.25 3 0  18 3 0  18.75 3 0  19.5 3 0  20.25 3 0  21 3 0  21.75 3 0  22.5 3 0  23.25 3 0  24 3 0  24.75 3 0  25.5 3 0  26.25 3 0  27 3 0  27.75 3 0  28.5 3 0  29.25 3 0  30 3 0  30.75 3 0  31.5 3 0  32.25 3 0  33 3 0  33.75 3 0  34.5 3 0  35.25 3 0  36 3 0  36.75 3 0  37.5 3 0  38.25 3 0  39 3 0  39.75 3 0  40.5 3 0  41.25 3 0  42 3 0  42.75 3 0  43.5 3 0  44.25 3 0  45 3 0  45.75 3 0  46.5 3 0  47.25 3 0  48 3 0  48.75 3 0  49.5 3 0  50.25 3 0  51 3 0  51.75 3 0  52.5 3 0  53.25 3 0  54 3 0  54.75 3 0  55.5 3 0  56.25 3 0  57 3 0  57.75 3 0  58.5 3 0  59.25 3 0  60 3 0  0 3.5 0  0.75 3.5 0  1.5 3.5 0  2.25 3.5 0  3 3.5 0  3.75 3.5 0  4.5 3.5 0  5.25 3.5 0  6 3.5 0  6.75 3.5 0  7.5 3.5 0  8.25 3.5 0  9 3.5 0  9.75 3.5 0  10.5 3.5 0  11.25 3.5 0  12 3.5 0  12.75 3.5 0  13.5 3.5 0  14.25 3.5 0  15 3.5 0  15.75 3.5 0  16.5 3.5 0  17.25 3.5 0  18 3.5 0  18.75 3.5 0  19.5 3.5 0  20.25 3.5 0  21 3.5 0  21.75 3.5 0  22.5 3.5 0  23.25 3.5 0  24 3.5 0  24.75 3.5 0  25.5 3.5 0  26.25 3.5 0  27 3.5 0  27.75 3.5 0  28.5 3.5 0  29.25 3.5 0  30 3.5 0  30.75 3.5 0  31.5 3.5 0  32.25 3.5 0  33 3.5 0  33.75 3.5 0  34.5 3.5 0  35.25 3.5 0  36 3.5 0  36.75 3.5 0  37.5 3.5 0  38.25 3.5 0  39 3.5 0  39.75 3.5 0  40.5 3.5 0  41.25 3.5 0  42 3.5 0  42.75 3.5 0  43.5 3.5 0  44.25 3.5 0  45 3.5 0  45.75 3.5 0  46.5 3.5 0  47.25 3.5 0  48 3.5 0  48.75 3.5 0  49.5 3.5 0  50.25 3.5 0  51 3.5 0  51.75 3.5 0  52.5 3.5 0  53.25 3.5 0  54 3.5 0  54.75 3.5 0  55.5 3.5 0  56.25 3.5 0  57 3.5 0  57.75 3.5 0  58.5 3.5 0  59.25 3.5 0  60 3.5 0  0 4 0  0.75 4 0  1.5 4 0  2.25 4 0  3 4 0  3.75 4 0  4.5 4 0  5.25 4 0  6 4 0  6.75 4 0  7.5 4 0  8.25 4 0  9 4 0  9.75 4 0  10.5 4 0  11.25 4 0  12 4 0  12.75 4 0  13.5 4 0  14.25 4 0  15 4 0  15.75 4 0  16.5 4 0  17.25 4 0  18 4 0  18.75 4 0  19.5 4 0  20.25 4 0  21 4 0  21.75 4 0  22.5 4 0  23.25 4 0  24 4 0  24.75 4 0  25.5 4 0  26.25 4 0  27 4 0  27.75 4 0  28.5 4 0  29.25 4 0  30 4 0  30.75 4 0  31.5 4 0  32.25 4 0  33 4 0  33.75 4 0  34.5 4 0  35.25 4 0  36 4 0  36.75 4 0  37.5 4 0  38.25 4 0  39 4 0  39.75 4 0  40.5 4 0  41.25 4 0  42 4 0  42.75 4 0  43.5 4 0  44.25 4 0  45 4 0  45.75 4 0  46.5 4 0  47.25 4 0  48 4 0  48.75 4 0  49.5 4 0  50.25 4 0  51 4 0  51.75 4 0  52.5 4 0  53.25 4 0  54 4 0  54.75 4 0  55.5 4 0  56.25 4 0  57 4 0  57.75 4 0  58.5 4 0  59.25 4 0  60 4 0  0.375 0.25 0  1.125 0.25 0  1.875 0.25 0  2.625 0.25 0  3.375 0.25 0  4.125 0.25 0  4.875 0.25 0  5.625 0.25 0  6.375 0.25 0  7.125 0.25 0  7.875 0.25 0  8.625 0.25 0  9.375 0.25 0  10.125 0.25 0  10.875 0.25 0  11.625 0.25 0  12.375 0.25 0  13.125 0.25 0  13.875 0.25 0  14.625 0.25 0  15.375 0.25 0  16.125 0.25 0  16.875 0.25 0  17.625 0.25 0  18.375 0.25 0  19.125 0.25 0  19.875 0.25 0  20.625 0.25 0  21.375 0.25 0  22.125 0.25 0  22.875 0.25 0  23.625 0.25 0  24.375 0.25 0  25.125 0.25 0  25.875 0.25 0  26.625 0.25 0  27.375 0.25 0  28.125 0.25 0  28.875 0.25 0  29.625 0.25 0  30.375 0.25 0  31.125 0.25 0  31.875 0.25 0  32.625 0.25 0  33.375 0.25 0  34.125 0.25 0  34.875 0.25 0  35.625 0.25 0  36.375 0.25 0  37.125 0.25 0  37.875 0.25 0  38.625 0.25 0  39.375 0.25 0  40.125 0.25 0  40.875 0.25 0  41.625 0.25 0  42.375 0.25 0  43.125 0.25 0  43.875 0.25 0  44.625 0.25 0  45.375 0.25 0  46.125 0.25 0  46.875 0.25 0  47.625 0.25 0  48.375 0.25 0  49.125 0.25 0  49.875 0.25 0  50.625 0.25 0  51.375 0.25 0  52.125 0.25 0  52.875 0.25 0  53.625 0.25 0  54.375 0.25 0  55.125 0.25 0  55.875 0.25 0  56.625 0.25 0  57.375 0.25 0  58.125 0.25 0  58.875 0.25 0  59.625 0.25 0  0.375 0.75 0  1.125 0.75 0  1.875 0.75 0  2.625 0.75 0  3.375 0.75 0  4.125 0.75 0  4.875 0.75 0  5.625 0.75 0  6.375 0.75 0  7.125 0.75 0  7.875 0.75 0  8.625 0.75 0  9.375 0.75 0  10.125 0.75 0  10.875 0.75 0  11.625 0.75 0  12.375 0.75 0  13.125 0.75 0  13.875 0.75 0  14.625 0.75 0  15.375 0.75 0  16.125 0.75 0  16.875 0.75 0  17.625 0.75 0  18.375 0.75 0  19.125 0.75 0  19.875 0.75 0  20.625 0.75 0  21.375 0.75 0  22.125 0.75 0  22.875 0.75 0  23.625 0.75 0  24.375 0.75 0  25.125 0.75 0  25.875 0.75 0  26.625 0.75 0  27.375 0.75 0  28.125 0.75 0  28.875 0.75 0  29.625 0.75 0  30.375 0.75 0  31.125 0.75 0  31.875 0.75 0  32.625 0.75 0  33.375 0.75 0  34.125 0.75 0  34.875 0.75 0  35.625 0.75 0  36.375 0.75 0  37.125 0.75 0  37.875 0.75 0  38.625 0.75 0  39.375 0.75 0  40.125 0.75 0  40
[...]
<PointData  Vectors="f_8-0"> 
<DataArray  type="Float64"  Name="f_8-0"  NumberOfComponents="3" format="ascii">0.0000000000000000e+00 0.0000000000000000e+00 0.0000000000000000e+00  0.0000000000000000e+00 0.0000000000000000e+00 0.0000000000000000e+00  0.0000000000000000e+00 0.0000000000000000e+00 0.0000000000000000e+00  0.0000000000000000e+00 0.0000000000000000e+00 0.0000000000000000e+00  0.0000000000000000e+00 0.0000000000000000e+00 0.0000000000000000e+00  0.0000000000000000e+00 0.0000000000000000e+00 0.0000000000000000e+00  0.0000000000000000e+00 0.0000000000000000e+00 0.0000000000000000e+00  0.0000000000000000e+00 0.0000000000000000e+00 0.0000000000000000e+00  0.0000000000000000e+00 0.0000000000000000e+00 0.0000000000000000e+00  0.0000000000000000e+00 0.0000000000000000e+00 0.0000000000000000e+00  0.0000000000000000e+00 0.0000000000000000e+00 0.0000000000000000e+00  0.0000000000000000e+00 0.0000000000000000e+00 0.0000000000000000e+00  0.0000000000000000e+00 0.0000000000000000e+00 0.0000000000000000e+00  0.0000000000000000e+00 0.0000000000000000e+00 0.0000000000000000e+00  0.0000000000000000e+00 0.0000000000000000e+00 0.0000000000000000e+00  0.0000000000000000e+00 0.0000000000000000e+00 0.0000000000000000e+00  0.0000000000000000e+00 0.0000000000000000e+00 0.0000000000000000e+00  0.0000000000000000e+00 0.0000000000000000e+00 0.0000000000000000e+00  0.0000000000000000e+00 0.0000000000000000e+00 0.0000000000000000e+00  0.0000000000000000e+00 0.0000000000000000e+00 0.0000000000000000e+00  0.0000000000000000e+00 0.0000000000000000e+00 0.0000000000000000e+00  0.0000000000000000e+00 0.0000000000000000e+00 0.0000000000000000e+00  0.0000000000000000e+00 0.0000000000000000e+00 0.0000000000000000e+00  0.0000000000000000e+00 0.0000000000000000e+00 0.0000000000000000e+00  0.0000000000000000e+00 0.0000000000000000e+00 0.0000000000000000e+00  0.0000000000000000e+00 0.0000000000000000e+00 0.0000000000000000e+00  0.0000000000000000e+00 0.0000000000000000e+00 0.0000000000000000e+00  0.0000000000000000e+00 0.0000000000000000e+00 0.0000000000000000e+00  0.0000000000000000e+00 0.0000000000000000e+00 0.0000000000000000e+00  0.0000000000000000e+00 0.0000000000000000e+00 0.0000000000000000e+00  0.0000000000000000e+00 0.0000000000000000e+00 0.0000000000000000e+00  0.0000000000000000e+00 0.0000000000000000e+00 0.0000000000000000e+00  0.0000000000000000e+00 0.0000000000000000e+00 0.0000000000000000e+00  0.0000000000000000e+00 0.0000000000000000e+00 0.0000000000000000e+00  0.0000000000000000e+00 0.0000000000000000e+00 0.0000000000000000e+00  0.0000000000000000e+00 0.0000000000000000e+00 0.0000000000000000e+00  0.0000000000000000e+00 0.0000000000000000e+00 0.0000000000000000e+00  0.0000000000000000e+00 0.0000000000000000e+00 0.0000000000000000e+00  0.0000000000000000e+00 0.0000000000000000e+00 0.0000000000000000e+00  0.0000000000000000e+00 0.0000000000000000e+00 0.0000000000000000e+00  0.0000000000000000e+00 0.0000000000000000e+00 0.0000000000000000e+00  0.0000000000000000e+00 0.0000000000000000e+00 0.0000000000000000e+00  0.0000000000000000e+00 0.0000000000000000e+00 0.0000000000000000e+00  0.0000000000000000e+00 0.0000000000000000e+00 0.0000000000000000e+00  0.0000000000000000e+00 0.0000000000000000e+00 0.0000000000000000e+00  0.0000000000000000e+00 0.0000000000000000e+00 0.0000000000000000e+00  0.0000000000000000e+00 0.0000000000000000e+00 0.0000000000000000e+00  0.0000000000000000e+00 0.0000000000000000e+00 0.0000000000000000e+00  0.0000000000000000e+00 0.0000000000000000e+00 0.0000000000000000e+00  0.0000000000000000e+00 0.0000000000000000e+00 0.0000000000000000e+00  0.0000000000000000e+00 0.0000000000000000e+00 0.0000000000000000e+00  0.0000000000000000e+00 0.0000000000000000e+00 0.0000000000000000e+00  0.0000000000000000e+00 0.0000000000000000e+00 0.0000000000000000e+00  0.0000000000000000e+00 0.0000000000000000e+00 0.0000000000000000e+00  0.0000000000000000e+00 0.0000000000000000e+00 0.0000000000000000e+00  0.0000000000000000e+00 0.0000000000000000e+00 0.0000000000000000e+00  0.0000000000000000e+00 0.0000000000000000e+00 0.0000000000000000e+00  0.0000000000000000e+00 0.0000000000000000e+00 0.0000000000000000e+00  0.0000000000000000e+00 0.0000000000000000e+00 0.0000000000000000e+00  0.0000000000000000e+00 0.0000000000000000e+00 0.0000000000000000e+00  0.0000000000000000e+00 0.0000000000000000e+00 0.0000000000000000e+00  0.0000000000000000e+00 0.0000000000000000e+00 0.0000000000000000e+00  0.0000000000000000e+00 0.0000000000000000e+00 0.0000000000000000e+00  0.0000000000000000e+00 0.0000000000000000e+00 0.0000000000000000e+00  0.0000000000000000e+00 0.0000000000000000e+00 0.0000000000000000e+00  0.0000000000000000e+00 0.0000000000000000e+00 0.0000000000000000e+00  0.0000000000000000e+00 0.0000000000000000e+00 0.0000000000000000e+00  0.0000000000000000e+00 0.0000000000000000e+00 0.0000000000000000e+00  0.0000000000000000e+00 0.0000000000000000e+00 0.0000000000000000e+00  0.0000000000000000e+00 0.0000000000000000e+00 0.0000000000000000e+00  0.0000000000000000e+00 0.0000000000000000e+00 0.0000000000000000e+00  0.0000000000000000e+00 0.0000000000000000e+00 0.0000000000000000e+00  0.0000000000000000e+00 0.0000000000000000e+00 0.0000000000000000e+00  0.0000000000000000e+00 0.0000000000000000e+00 0.0000000000000000e+00  0.0000000000000000e+00 0.0000000000000000e+00 0.0000000000000000e+00  0.0000000000000000e+00 0.0000000000000000e+00 0.0000000000000000e+00  0.0000000000000000e+00 0.0000000000000000e+00 0.0000000000000000e+00  0.0000000000000000e+00 0.0000000000000000e+00 0.0000000000000000e+00  0.0000000000000000e+00 0.0000000000000000e+00 0.0000000000000000e+00  0.0000000000000000e+00 0.0000000000000000e+00 0.0000000000000000e+00  0.0000000000000000e+00 0.0000000000000000e+00 0.0000000000000000e+00  1.4113735278019947e-03 0.0000000000000000e+00 0.0000000000000000e+00  -5.8676192128463159e-02 -4.3138340465203068e-02 0.0000000000000000e+00  -8.9940612618482269e-02 -4.6506591103362927e-03 0.0000000000000000e+00  -1.1461400938426078e-01 5.9650019150945706e-03 0.0000000000000000e+00  -1.4232200797528355e-01 7.4536259090212864e-03 0.0000000000000000e+00  -1.6561711228908621e-01 5.6955746424332829e-03 0.0000000000000000e+00  -1.7824473265963514e-01 1.0155920475624740e-03 0.0000000000000000e+00  -1.8379875682512684e-01 -1.9130138168968747e-03 0.0000000000000000e+00  -1.8190841166063146e-01 -4.6146257464579959e-03 0.0000000000000000e+00  -1.7769398686649682e-01 -5.3997442610841245e-03 0.0000000000000000e+00  -1.7113016860902716e-01 -5.9931568731943288e-03 0.0000000000000000e+00  -1.6535958401921524e-01 -5.5233384171014931e-03 0.0000000000000000e+00  -1.5964871050487345e-01 -5.4256214113923198e-03 0.0000000000000000e+00  -1.5504825628076957e-01 -4.9259051289204372e-03 0.0000000000000000e+00  -1.5092709645705923e-01 -4.6544984205343226e-03 0.0000000000000000e+00  -1.4769102034637185e-01 -4.3313580727213094e-03 0.0000000000000000e+00  -1.4456541228901909e-01 -4.3172626684639505e-03 0.0000000000000000e+00  -1.4157054367621952e-01 -4.2673882503006869e-03 0.0000000000000000e+00  -1.3847663916989247e-01 -4.2724357927697611e-03 0.0000000000000000e+00  -1.3550444514755736e-01 -4.2162419433762659e-03 0.0000000000000000e+00  -1.3251352140138012e-01 -4.2405717006372265e-03 0.0000000000000000e+00  -1.2947289984329305e-01 -4.2807884583629004e-03 0.0000000000000000e+00  -1.2628286573054193e-01 -4.3276853091428870e-03 0.0000000000000000e+00  -1.2311472500606044e-01 -4.2701385456054980e-03 0.0000000000000000e+00  -1.2022679683856669e-01 -4.0898976318389704e-03 0.0000000000000000e+00  -1.1796917242450433e-01 -3.7785854856484408e-03 0.0000000000000000e+00  -1.1657808148139046e-01 -3.4004464957196577e-03 0.0000000000000000e+00  -1.1616129748001858e-01 -3.0124397718469869e-03 0.0000000000000000e+00  -1.1665321756096379e-01 -2.6774049765710792e-03 0.0000000000000000e+00  -1.1788433708583954e-01 -2.4249334573694325e-03 0.0000000000000000e+00  -1.1962248219484983e-01 -2.2685261658179001e-03 0.0000000000000000e+00  -1.2163811274478714e-01 -2.1985730608857683e-03 0.0000000000000000e+00  -1.2373170570190135e-01 -2.1989358977729670e-03 0.0000000000000000e+00  -1.2575504282809372e-01 -2.2479186742885432e-03 0.0000000000000000e+00  -1.2761002585685424e-01 -2.3267495320899965e-03 0.0000000000000000e+00  -1.2924353439390224e-01 -2.4193557409913219e-03 0.0000000000000000e+00  -1.3063623403840502e-01 -2.5146020728399128e-03 0.0000000000000000e+00  -1.3179219849092963e-01 -2.6049935366922183e-03 0.0000000000000000e+00  -1.3272985936105938e-01 -2.6864243487103884e-03 0.0000000000000000e+00  -1.3347480084952862e-01 -2.7570329268766414e-03 0.0000000000000000e+00  -1.3405529821964352e-01 -2.8164976833317469e-03 0.0000000000000000e+00  -1.3449890621155552e-01 -2.8654405368637868e-03 0.0000000000000000e+00  -1.3483112786503001e-01 -2.9049119883867501e-03 0.0000000000000000e+00  -1.3507424746595686e-01 -2.9362135865400097e-03 0.0000000000000000e+00  -1.3524742343672097e-01 -2.9605966657683907e-03 0.0000000000000000e+00  -1.3536652379111927e-01 -2.9792800295519481e-03 0.0000000000000000e+00  -1.3544468171768753e-01 -2.9932862436694292e-03 0.0000000000000000e+00  -1.3549246724459443e-01 -3.0035350061954828e-03 0.0000000000000000e+00  -1.3551843690234855e-01 -3.0107648011968380e-03 0.0000000000000000e+00  -1.3552931369018592e-01 -3.0156348087212303e-03 0.0000000000000000e+00  -1.3553037338220408e-01 -3.0186793097710875e-03 0.0000000000000000e+00  -1.3552556802620921e-01 -3.0203779964602592e-03 0.0000000000000000e+00  -1.3551779792104895e-01 -3.0211163642226801e-03 0.0000000000000000e+00  -1.3550903107266837e-01 -3.0212257277400785e-03 0.0000000000000000e+00  -1.3550053166994991e-01 -3.0209539912025535e-03 0.0000000000000000e+00  -1.3549299128110207e-01 -3.0204942406436429e-03 0.0000000000000000e+00  -1.3548671837226203e-01 -3.0199719906590723e-03 0.0000000000000000e+00  -1.3548174847949168e-01 -3.0194710607362083e-03 0.0000000000000000e+00  -1.3547797296671005e-01 -3.0190321886433588e-03 0.0000000000000000e+00  -1.3547520292203183e-01 -3.0186742644089702e-03 0.0000000000000000e+00  -1.3547323566544794e-01 -3.0183958963697468e-03 0.0000000000000000e+00  -1.3547187656266119e-01 -3.0181894143042651e-03 0.0000000000000000e+00  -1.3547096290291369e-01 -3.0180410593047737e-03 0.0000000000000000e+00  -1.3547036241929183e-01 -3.0179384746250554e-03 0.0000000000000000e+00  -1.3546997674340069e-01 -3.0178693148074404e-03 0.0000000000000000e+00  -1.3546973240229768e-01 -3.0178247985586204e-03 0.0000000000000000e+00  -1.3546957718291527e-01 -3.0177981989201125e-03 0.0000000000000000e+00  -1.3546946900123050e-01 -3.0177877119850088e-03 0.0000000000000000e+00  -1.3546936375392726e-01 -3.0177987239782952e-03 0.0000000000000000e+00  -1.3546918314257236e-01 -3.0178560142991415e-03 0.0000000000000000e+00  -1.3546873503560378e-01 -3.0180356895999857e-03 0.0000000000000000e+00  -1.3546748828149596e-01 -3.0185553963554702e-03 0.0000000000000000e+00  -1.3546393481993424e-01 -3.0200625579079837e-03 0.0000000000000000e+00  -1.3545382818562024e-01 -3.0241804843164095e-03 0.0000000000000000e+00  -1.3542496266244672e-01 -3.0369953069528397e-03 0.0000000000000000e+00  -1.3534616728659141e-01 -3.0635986467256919e-03 0.0000000000000000e+00  -1.3511494644526975e-01 -3.1998852472753547e-03 0.0000000000000000e+00  -1.3467101860096412e-01 -3.0522752235260116e-03 0.0000000000000000e+00  -1.3257256758706060e-01 -5.5133446247410392e-03 0.0000000000000000e+00  -1.4054950753435136e-01 1.6448705412110555e-02 0.0000000000000000e+00  -7.9042455640143547e-02 0.0000000000000000e+00 0.0000000000000000e+00  1.2943330441211993e+01 0.0000000000000000e+00 0.0000000000000000e+00  1.2971662858445596e+01 2.3156181202277026e-02 0.0000000000000000e+00  1.2955610918606650e+01 1.7761609006678756e-02 0.0000000000000000e+00  1.2961008299778921e+01 2.5620898415380143e-02 0.0000000000000000e+00  1.2964093802065349e+01 2.2917837531619797e-02 0.0000000000000000e+00  1.2973711958313968e+01 1.4311576631961129e-02 0.0000000000000000e+00  1.2979145969502484e+01 7.7436396939903687e-03 0.0000000000000000e+00  1.2985227357244071e+01 -3.3512377610670635e-04 0.0000000000000000e+00  1.2987916316338454e+01 -3.1407868631237821e-03 0.0000000000000000e+00  1.2990639635148668e+01 -5.8750061742954404e-03 0.0000000000000000e+00  1.2990940810385919e+01 -5.7978089982084948e-03 0.0000000000000000e+00  1.2991922037440908e+01 -5.5358934096308935e-03 0.0000000000000000e+00  1.2991203861616587e+01 -4.4914529832769806e-03 0.0000000000000000e+00  1.2990941349149939e+01 -4.2481314112210195e-03 0.0000000000000000e+00  1.2990474555294677e+01 -3.3505900127407881e-03 0.0000000000000000e+00  1.2990403141015936e+01 -2.9449950323219296e-03 0.0000000000000000e+00  1.2989954676303737e+01 -2.7770820792883629e-03 0.0000000000000000e+00  1.2990028110565715e+01 -3.0785575210689553e-03 0.0000000000000000e+00  1.2990529449035380e+01 -3.1541585340159680e-03 0.0000000000000000e+00  1.2991565441831176e+01 -3.1621695298017977e-03 0.0000000000000000e+00  1.2992595037314604e+01 -3.1001050456243170e-03 0.0000000000000000e+00  1.2993628857617592e+01 -3.2278259347470703e-03 0.0000000000000000e+00  1.2994681769655783e+01 -3.3847571710781104e-03 0.0000000000000000e+00  1.2996025899239159e+01 -3.4375473950654656e-03 0.0000000000000000e+00  1.2997658919215196e+01 -3.1601492947733408e-03 0.0000000000000000e+00  1.2999477478278513e+01 -2.5434752978432560e-03 0.0000000000000000e+00  1.3001180295657409e+01 -1.6535343793631569e-03 0.0000000000000000e+00  1.3002517426096356e+01 -6.7502556146464333e-04 0.0000000000000000e+00  1.3003295802936261e+01 2.3990836082847788e-04 0.0000000000000000e+00  1.3003476953810550e+01 9.6553001420209375e-04 0.0000000000000000e+00  1.3003113129155178e+01 1.4568065550126423e-03 0.0000000000000000e+00  1.3002336899689466e+01 1.7117230336321126e-03 0.0000000000000000e+00  1.3001293889549331e+01 1.7710299080565242e-03 0.0000000000000000e+00  1.3000126239700059e+01 1.6843836124519180e-03 0.0000000000000000e+00  1.2998943652704460e+01 1.5055652528692056e-03 0.0000000000000000e+00  1.2997825630288636e+01 1.2776499312453097e-03 0.0000000000000000e+00  1.2996818632608097e+01 1.0345477327253526e-03 0.0000000000000000e+00  1.2995945687253647e+01 7.9809954810764470e-04 0.0000000000000000e+00  1.2995211148430061e+01 5.8188763986471309e-04 0.0000000000000000e+00  1.2994608540404162e+01 3.9221757624139086e-04 0.0000000000000000e+00  1.2994124698587241e+01 2.3112241426761476e-04 0.0000000000000000e+00  1.2993743860163217e+01 9.7633174849814727e-05 0.0000000000000000e+00  1.2993449696731002e+01 -1.0676888559451192e-05 0.0000000000000000e+00  1.2993226785422111e+01 -9.6971559451387482e-05 0.0000000000000000e+00  1.2993061313473312e+01 -1.6457670470108028e-04 0.0000000000000000e+00  1.2992941329226724e+01 -2.1663662387052266e-04 0.0000000000000000e+00  1.2992856844993371e+01 -2.5599124543949252e-04 0.0000000000000000e+00  1.2992799597565046e+01 -2.8504811182402762e-04 0.0000000000000000e+00  1.2992762910231070e+01 -3.0586973948673775e-04 0.0000000000000000e+00  1.2992741349340346e+01 -3.2015927730566214e-04 0.0000000000000000e+00  1.2992730586249914e+01 -3.2938961469585344e-04 0.0000000000000000e+00  1.2992727150163388e+01 -3.3479317713443186e-04 0.0000000000000000e+00  1.2992728364254559e+01 -3.3743930766617333e-04 0.0000000000000000e+00  1.2992732191165315e+01 -3.3820011642029461e-04 0.0000000000000000e+00  1.2992737187514596e+01 -3.3778927928321793e-04 0.0000000000000000e+00  1.2992742374403170e+01 -3.3673760460586530e-04 0.0000000000000000e+00  1.2992747171598294e+01 -3.3543113956321799e-04 0.0000000000000000e+00  1.2992751277078625e+01 -3.3411341359093817e-04 0.0000000000000000e+00  1.2992754598422382e+01 -3.3292904909036994e-04 0.0000000000000000e+00  1.2992757161625901e+01 -3.3193956149295820e-04 0.0000000000000000e+00  1.2992759065673548e+01 -3.3116005636117961e-04 0.0000000000000000e+00  1.2992760430923516e+01 -3.3057220764086013e-04 0.0000000000000000e+00  1.2992761381458687e+01 -3.3014677807825452e-04 0.0000000000000000e+00  1.2992762024205920e+01 -3.2984848753435007e-04 0.0000000000000000e+00  1.2992762448691044e+01 -3.2964655136212464e-04 0.0000000000000000e+00  1.2992762722229173e+01 -3.2951418519109915e-04 0.0000000000000000e+00  1.2992762896029756e+01 -3.2943331625244515e-04 0.0000000000000000e+00  1.2992763006583534e+01 -3.2939470902306541e-04 0.0000000000000000e+00  1.2992763083748962e+01 -3.2940733514230002e-04 0.0000000000000000e+00  1.2992763158799066e+01 -3.2951995723229030e-04 0.0000000000000000e+00  1.2992763287981671e+01 -3.2988919113483548e-04 0.0000000000000000e+00  1.2992763610554595e+01 -3.3097404469207908e-04 0.0000000000000000e+00  1.2992764528519912e+01 -3.3407294193287196e-04 0.0000000000000000e+00  1.2992767178515740e+01 -3.4289753404652726e-04 0.0000000000000000e+00  1.2992775249768059e+01 -3.6744903561728538e-04 0.0000000000000000e+00  1.2992798916207931e+01 -4.3772033077204105e-04 0.0000000000000000e+00  1.2992881045005491e+01 -6.1555487042039790e-04 0.0000000000000000e+00  1.2993134846589506e+01 -1.1740547398939589e-03 0.0000000000000000e+00  1.2994131908235902e+01 -1.9255517003899704e-03 0.0000000000000000e+00  1.2998794784888487e+01 -6.8512448315252413e-03 0.0000000000000000e+00  1.2998316821038145e+01 0.0000000000000000e+00 0.0000000000000000e+00  2.0409364702491334e+01 0.0000000000000000e+00 0.0000000000000000e+00  2.0407549334077995e+01 -1.7318774965963039e-03 0.0000000000000000e+00  2.0422652257664655e+01 6.6150273785651201e-03 0.0000000000000000e+00  2.0445643395428160e+01 6.2902220242803493e-03 0.0000000000000000e+00  2.0475612533441122e+01 6.3446518055973091e-03 0.0000000000000000e+00  2.0494941260913397e+01 4.2325208777078127e-03 0.0000000000000000e+00  2.0510287639209974e+01 -2.5634473431691000e-04 0.0000000000000000e+00  2.0514769115717854e+01 -1.6485058187814122e-03 0.0000000000000000e+00  2.0516137805314798e+01 -3.9267527952048928e-03 0.0000000000000000e+00  2.0512494243546335e+01 -2.9942735927737983e-03 0.0000000000000000e+00  2.0508650731544712e+01 -3.4093164224628545e-03 0.0000000000000000e+00  2.0503430551316697e+01 -1.9879386171606415e-03 0.0000000000000000e+00  2.0499667657537195e+01 -1.3037312298415089e-03 0.0000000000000000e+00  2.0495452805096058e+01 -8.0100885240363398e-04 0.0000000000000000e+00  2.0492229145739078e+01 -6.7521739582618681e-04 0.0000000000000000e+00  2.0489298622735976e+01 -1.3372167413532610e-04 0.0000000000000000e+00  2.0486936759070939e+01 -1.7458088946398933e-04 0.0000000000000000e+00  2.0484225433274133e+01 -5.3080839548428575e-04 0.0000000000000000e+00  2.0481536762330958e+01 -1.0329303792715721e-03 0.0000000000000000e+00  2.0478812567449062e+01 -1.1833066655958777e-03 0.0000000000000000e+00  2.0476320579320802e+01 -1.1972207807596706e-03 0.0000000000000000e+00  2.0473763872128778e+01 -1.2146592642415307e-03 0.0000000000000000e+00  2.0471101095761789e+01 -1.4073021535366615e-03 0.0000000000000000e+00  2.0468284138179239e+01 -1.6031992556863033e-03 0.0000000000000000e+00  2.0465620204717858e+01 -1.6322111505995894e-03 0.0000000000000000e+00  2.0463405843680103e+01 -1.3245398023479650e-03 0.0000000000000000e+00  2.0461960318318251e+01 -7.0077853598325180e-04 0.0000000000000000e+00  2.0461395634057979e+01 1.3686042979613465e-04 0.0000000000000000e+00  2.0461699990851557e+01 1.0139266512574692e-03 0.0000000000000000e+00  2.0462706815040715e+01 1.7942586318843779e-03 0.0000000000000000e+00  2.0464210638922616e+01 2.3829668175812252e-03 0.0000000000000000e+00  2.0465984410965699e+01 2.7540310226785748e-03 0.0000000000000000e+00  2.0467844323300902e+01 2.9196831098481802e-03 0.0000000000000000e+00  2.0469645763347778e+01 2.9224774863095037e-03 0.0000000000000000e+00  2.0471299580576300e+01 2.8097520761543497e-03 0.0000000000000000e+00  2.0472754345434780e+01 2.6281662976398389e-03 0.0000000000000000e+00  2.0473993716572796e+01 2.4139389983586761e-03 0.0000000000000000e+00  2.0475020678549779e+01 2.1941471477295001e-03 0.0000000