<?xml version="1.0"?>
<VTKFile type="UnstructuredGrid"  version="0.1"  >
<UnstructuredGrid>
<Piece  NumberOfPoints="1369" NumberOfCells="2560">
<Points>
<DataArray  type="Float64"  NumberOfComponents="3"  format="ascii">0 0 0  0.75 0 0  1.5 0 0  2.25 0 0  3 0 0  3.75 0 0  4.5 0 0  5.25 0 0  6 0 0  6.75 0 0  7.5 0 0  8.25 0 0  9 0 0  9.75 0 0  10.5 0 0  11.25 0 0  12 0 0  12.75 0 0  13.5 0 0  14.25 0 0  15 0 0  15.75 0 0  16.5 0 0  17.25 0 0  18 0 0  18.75 0 0  19.5 0 0  20.25 0 0  21 0 0  21.75 0 0  22.5 0 0  23.25 0 0  24 0 0  24.75 0 0  25.5 0 0  26.25 0 0  27 0 0  27.75 0 0  28.5 0 0  29.25 0 0  30 0 0  30.75 0 0  31.5 0 0  32.25 0 0  33 0 0  33.75 0 0  34.5 0 0  35.25 0 0  36 0 0  36.75 0 0  37.5 0 0  38.25 0 0  39 0 0  39.75 0 0  40.5 0 0  41.25 0 0  42 0 0  42.75 0 0  43.5 0 0  44.25 0 0  45 0 0  45.75 0 0  46.5 0 0  47.25 0 0  48 0 0  48.75 0 0  49.5 0 0  50.25 0 0  51 0 0  51.75 0 0  52.5 0 0  53.25 0 0  54 0 0  54.75 0 0  55.5 0 0  56.25 0 0  57 0 0  57.75 0 0  58.5 0 0  59.25 0 0  60 0 0  0 0.5 0  0.75 0.5 0  1.5 0.5 0  2.25 0.5 0  3 0.5 0  3.75 0.5 0  4.5 0.5 0  5.25 0.5 0  6 0.5 0  6.75 0.5 0  7.5 0.5 0  8.25 0.5 0  9 0.5 0  9.75 0.5 0  10.5 0.5 0  11.25 0.5 0  12 0.5 0  12.75 0.5 0  13.5 0.5 0  14.25 0.5 0  15 0.5 0  15.75 0.5 0  16.5 0.5 0  17.25 0.5 0  18 0.5 0  18.75 0.5 0  19.5 0.5 0  20.25 0.5 0  21 0.5 0  21.75 0.5 0  22.5 0.5 0  23.25 0.5 0  24 0.5 0  24.75 0.5 0  25.5 0.5 0  26.25 0.5 0  27 0.5 0  27.75 0.5 0  28.5 0.5 0  29.25 0.5 0  30 0.5 0  30.75 0.5 0  31.5 0.5 0  32.25 0.5 0  33 0.5 0  33.75 0.5 0  34.5 0.5 0  35.25 0.5 0  36 0.5 0  36.75 0.5 0  37.5 0.5 0  38.25 0.5 0  39 0.5 0  39.75 0.5 0  40.5 0.5 0  41.25 0.5 0  42 0.5 0  42.75 0.5 0  43.5 0.5 0  44.25 0.5 0  45 0.5 0  45.75 0.5 0  46.5 0.5 0  47.25 0.5 0  48 0.5 0  48.75 0.5 0  49.5 0.5 0  50.25 0.5 0  51 0.5 0  51.75 0.5 0  52.5 0.5 0  53.25 0.5 0  54 0.5 0  54.75 0.5 0  55.5 0.5 0  56.25 0.5 0  57 0.5 0  57.75 0.5 0  58.5 0.5 0  59.25 0.5 0  60 0.5 0  0 1 0  0.75 1 0  1.5 1 0  2.25 1 0  3 1 0  3.75 1 0  4.5 1 0  5.25 1 0  6 1 0  6.75 1 0  7.5 1 0  8.25 1 0  9 1 0  9.75 1 0  10.5 1 0  11.25 1 0  12 1 0  12.75 1 0  13.5 1 0  14.25 1 0  15 1 0  15.75 1 0  16.5 1 0  17.25 1 0  18 1 0  18.75 1 0  19.5 1 0  20.25 1 0  21 1 0  21.75 1 0  22.5 1 0  23.25 1 0  24 1 0  24.75 1 0  25.5 1 0  26.25 1 0  27 1 0  27.75 1 0  28.5 1 0  29.25 1 0  30 1 0  30.75 1 0  31.5 1 0  32.25 1 0  33 1 0  33.75 1 0  34.5 1 0  35.25 1 0  36 1 0  36.75 1 0  37.5 1 0  38.25 1 0  39 1 0  39.75 1 0  40.5 1 0  41.25 1 0  42 1 0  42.75 1 0  43.5 1 0  44.25 1 0  45 1 0  45.75 1 0  46.5 1 0  47.25 1 0  48 1 0  48.75 1 0  49.5 1 0  50.25 1 0  51 1 0  51.75 1 0  52.5 1 0  53.25 1 0  54 1 0  54.75 1 0  55.5 1 0  56.25 1 0  57 1 0  57.75 1 0  58.5 1 0  59.25 1 0  60 1 0  0 1.5 0  0.75 1.5 0  1.5 1.5 0  2.25 1.5 0  3 1.5 0  3.75 1.5 0  4.5 1.5 0  5.25 1.5 0  6 1.5 0  6.75 1.5 0  7.5 1.5 0  8.25 1.5 0  9 1.5 0  9.75 1.5 0  10.5 1.5 0  11.25 1.5 0  12 1.5 0  12.75 1.5 0  13.5 1.5 0  14.25 1.5 0  15 1.5 0  15.75 1.5 0  16.5 1.5 0  17.25 1.5 0  18 1.5 0  18.75 1.5 0  19.5 1.5 0  20.25 1.5 0  21 1.5 0  21.75 1.5 0  22.5 1.5 0  23.25 1.5 0  24 1.5 0  24.75 1.5 0  25.5 1.5 0  26.25 1.5 0  27 1.5 0  27.75 1.5 0  28.5 1.5 0  29.25 1.5 0  30 1.5 0  30.75 1.5 0  31.5 1.5 0  32.25 1.5 0  33 1.5 0  33.75 1.5 0  34.5 1.5 0  35.25 1.5 0  36 1.5 0  36.75 1.5 0  37.5 1.5 0  38.25 1.5 0  39 1.5 0  39.75 1.5 0  40.5 1.5 0  41.25 1.5 0  42 1.5 0  42.75 1.5 0  43.5 1.5 0  44.25 1.5 0  45 1.5 0  45.75 1.5 0  46.5 1.5 0  47.25 1.5 0  48 1.5 0  48.75 1.5 0  49.5 1.5 0  50.25 1.5 0  51 1.5 0  51.75 1.5 0  52.5 1.5 0  53.25 1.5 0  54 1.5 0  54.75 1.5 0  55.5 1.5 0  56.25 1.5 0  57 1.5 0  57.75 1.5 0  58.5 1.5 0  59.25 1.5 0  60 1.5 0  0 2 0  0.75 2 0  1.5 2 0  2.25 2 0  3 2 0  3.75 2 0  4.5 2 0  5.25 2 0  6 2 0  6.75 2 0  7.5 2 0  8.25 2 0  9 2 0  9.75 2 0  10.5 2 0  11.25 2 0  12 2 0  12.75 2 0  13.5 2 0  14.25 2 0  15 2 0  15.75 2 0  16.5 2 0  17.25 2 0  18 2 0  18.75 2 0  19.5 2 0  20.25 2 0  21 2 0  21.75 2 0  22.5 2 0  23.25 2 0  24 2 0  24.75 2 0  25.5 2 0  26.25 2 0  27 2 0  27.75 2 0  28.5 2 0  29.25 2 0  30 2 0  30.75 2 0  31.5 2 0  32.25 2 0  33 2 0  33.75 2 0  34.5 2 0  35.25 2 0  36 2 0  36.75 2 0  37.5 2 0  38.25 2 0  39 2 0  39.75 2 0  40.5 2 0  41.25 2 0  42 2 0  42.75 2 0  43.5 2 0  44.25 2 0  45 2 0  45.75 2 0  46.5 2 0  47.25 2 0  48 2 0  48.75 2 0  49.5 2 0  50.25 2 0  51 2 0  51.75 2 0  52.5 2 0  53.25 2 0  54 2 0  54.75 2 0  55.5 2 0  56.25 2 0  57 2 0  57.75 2 0  58.5 2 0  59.25 2 0  60 2 0  0 2.5 0  0.75 2.5 0  1.5 2.5 0  2.25 2.5 0  3 2.5 0  3.75 2.5 0  4.5 2.5 0  5.25 2.5 0  6 2.5 0  6.75 2.5 0  7.5 2.5 0  8.25 2.5 0  9 2.5 0  9.75 2.5 0  10.5 2.5 0  11.25 2.5 0  12 2.5 0  12.75 2.5 0  13.5 2.5 0  14.25 2.5 0  15 2.5 0  15.75 2.5 0  16.5 2.5 0  17.25 2.5 0  18 2.5 0  18.75 2.5 0  19.5 2.5 0  20.25 2.5 0  21 2.5 0  21.75 2.5 0  22.5 2.5 0  23.25 2.5 0  24 2.5 0  24.75 2.5 0  25.5 2.5 0  26.25 2.5 0  27 2.5 0  27.75 2.5 0  28.5 2.5 0  29.25 2.5 0  30 2.5 0  30.75 2.5 0  31.5 2.5 0  32.25 2.5 0  33 2.5 0  33.75 2.5 0  34.5 2.5 0  35.25 2.5 0  36 2.5 0  36.75 2.5 0  37.5 2.5 0  38.25 2.5 0  39 2.5 0  39.75 2.5 0  40.5 2.5 0  41.25 2.5 0  42 2.5 0  42.75 2.5 0  43.5 2.5 0  44.25 2.5 0  45 2.5 0  45.75 2.5 0  46.5 2.5 0  47.25 2.5 0  48 2.5 0  48.75 2.5 0  49.5 2.5 0  50.25 2.5 0  51 2.5 0  51.75 2.5 0  52.5 2.5 0  53.25 2.5 0  54 2.5 0  54.75 2.5 0  55.5 2.5 0  56.25 2.5 0  57 2.5 0  57.75 2.5 0  58.5 2.5 0  59.25 2.5 0  60 2.5 0  0 3 0  0.75 3 0  1.5 3 0  2.25 3 0  3 3 0  3.75 3 0  4.5 3 0  5.25 3 0  6 3 0  6.75 3 0  7.5 3 0  8.25 3 0  9 3 0  9.75 3 0  10.5 3 0  11.25 3 0  12 3 0  12.75 3 0  13.5 3 0  14.25 3 0  15 3 0  15.75 3 0  16.5 3 0  17.25 3 0  18 3 0  18.75 3 0  19.5 3 0  20.25 3 0  21 3 0  21.75 3 0  22.5 3 0  23.25 3 0  24 3 0  24.75 3 0  25.5 3 0  26.25 3 0  27 3 0  27.75 3 0  28.5 3 0  29.25 3 0  30 3 0  30.75 3 0  31.5 3 0  32.25 3 0  33 3 0  33.75 3 0  34.5 3 0  35.25 3 0  36 3 0  36.75 3 0  37.5 3 0  38.25 3 0  39 3 0  39.75 3 0  40.5 3 0  41.25 3 0  42 3 0  42.75 3 0  43.5 3 0  44.25 3 0  45 3 0  45.75 3 0  46.5 3 0  47.25 3 0  48 3 0  48.75 3 0  49.5 3 0  50.25 3 0  51 3 0  51.75 3 0  52.5 3 0  53.25 3 0  54 3 0  54.75 3 0  55.5 3 0  56.25 3 0  57 3 0  57.75 3 0  58.5 3 0  59.25 3 0  60 3 0  0 3.5 0  0.75 3.5 0  1.5 3.5 0  2.25 3.5 0  3 3.5 0  3.75 3.5 0  4.5 3.5 0  5.25 3.5 0  6 3.5 0  6.75 3.5 0  7.5 3.5 0  8.25 3.5 0  9 3.5 0  9.75 3.5 0  10.5 3.5 0  11.25 3.5 0  12 3.5 0  12.75 3.5 0  13.5 3.5 0  14.25 3.5 0  15 3.5 0  15.75 3.5 0  16.5 3.5 0  17.25 3.5 0  18 3.5 0  18.75 3.5 0  19.5 3.5 0  20.25 3.5 0  21 3.5 0  21.75 3.5 0  22.5 3.5 0  23.25 3.5 0  24 3.5 0  24.75 3.5 0  25.5 3.5 0  26.25 3.5 0  27 3.5 0  27.75 3.5 0  28.5 3.5 0  29.25 3.5 0  30 3.5 0  30.75 3.5 0  31.5 3.5 0  32.25 3.5 0  33 3.5 0  33.75 3.5 0  34.5 3.5 0  35.25 3.5 0  36 3.5 0  36.75 3.5 0  37.5 3.5 0  38.25 3.5 0  39 3.5 0  39.75 3.5 0  40.5 3.5 0  41.25 3.5 0  42 3.5 0  42.75 3.5 0  43.5 3.5 0  44.25 3.5 0  45 3.5 0  45.75 3.5 0  46.5 3.5 0  47.25 3.5 0  48 3.5 0  48.75 3.5 0  49.5 3.5 0  50.25 3.5 0  51 3.5 0  51.75 3.5 0  52.5 3.5 0  53.25 3.5 0  54 3.5 0  54.75 3.5 0  55.5 3.5 0  56.25 3.5 0  57 3.5 0  57.75 3.5 0  58.5 3.5 0  59.25 3.5 0  60 3.5 0  0 4 0  0.75 4 0  1.5 4 0  2.25 4 0  3 4 0  3.75 4 0  4.5 4 0  5.25 4 0  6 4 0  6.75 4 0  7.5 4 0  8.25 4 0  9 4 0  9.75 4 0  10.5 4 0  11.25 4 0  12 4 0  12.75 4 0  13.5 4 0  14.25 4 0  15 4 0  15.75 4 0  16.5 4 0  17.25 4 0  18 4 0  18.75 4 0  19.5 4 0  20.25 4 0  21 4 0  21.75 4 0  22.5 4 0  23.25 4 0  24 4 0  24.75 4 0  25.5 4 0  26.25 4 0  27 4 0  27.75 4 0  28.5 4 0  29.25 4 0  30 4 0  30.75 4 0  31.5 4 0  32.25 4 0  33 4 0  33.75 4 0  34.5 4 0  35.25 4 0  36 4 0  36.75 4 0  37.5 4 0  38.25 4 0  39 4 0  39.75 4 0  40.5 4 0  41.25 4 0  42 4 0  42.75 4 0  43.5 4 0  44.25 4 0  45 4 0  45.75 4 0  46.5 4 0  47.25 4 0  48 4 0  48.75 4 0  49.5 4 0  50.25 4 0  51 4 0  51.75 4 0  52.5 4 0  53.25 4 0  54 4 0  54.75 4 0  55.5 4 0  56.25 4 0  57 4 0  57.75 4 0  58.5 4 0  59.25 4 0  60 4 0  0.375 0.25 0  1.125 0.25 0  1.875 0.25 0  2.625 0.25 0  3.375 0.25 0  4.125 0.25 0  4.875 0.25 0  5.625 0.25 0  6.375 0.25 0  7.125 0.25 0  7.875 0.25 0  8.625 0.25 0  9.375 0.25 0  10.125 0.25 0  10.875 0.25 0  11.625 0.25 0  12.375 0.25 0  13.125 0.25 0  13.875 0.25 0  14.625 0.25 0  15.375 0.25 0  16.125 0.25 0  16.875 0.25 0  17.625 0.25 0  18.375 0.25 0  19.125 0.25 0  19.875 0.25 0  20.625 0.25 0  21.375 0.25 0  22.125 0.25 0  22.875 0.25 0  23.625 0.25 0  24.375 0.25 0  25.125 0.25 0  25.875 0.25 0  26.625 0.25 0  27.375 0.25 0  28.125 0.25 0  28.875 0.25 0  29.625 0.25 0  30.375 0.25 0  31.125 0.25 0  31.875 0.25 0  32.625 0.25 0  33.375 0.25 0  34.125 0.25 0  34.875 0.25 0  35.625 0.25 0  36.375 0.25 0  37.125 0.25 0  37.875 0.25 0  38.625 0.25 0  39.375 0.25 0  40.125 0.25 0  40.875 0.25 0  41.625 0.25 0  42.375 0.25 0  43.125 0.25 0  43.875 0.25 0  44.625 0.25 0  45.375 0.25 0  46.125 0.25 0  46.875 0.25 0  47.625 0.25 0  48.375 0.25 0  49.125 0.25 0  49.875 0.25 0  50.625 0.25 0  51.375 0.25 0  52.125 0.25 0  52.875 0.25 0  53.625 0.25 0  54.375 0.25 0  55.125 0.25 0  55.875 0.25 0  56.625 0.25 0  57.375 0.25 0  58.125 0.25 0  58.875 0.25 0  59.625 0.25 0  0.375 0.75 0  1.125 0.75 0  1.875 0.75 0  2.625 0.75 0  3.375 0.75 0  4.125 0.75 0  4.875 0.75 0  5.625 0.75 0  6.375 0.75 0  7.125 0.75 0  7.875 0.75 0  8.625 0.75 0  9.375 0.75 0  10.125 0.75 0  10.875 0.75 0  11.625 0.75 0  12.375 0.75 0  13.125 0.75 0  13.875 0.75 0  14.625 0.75 0  15.375 0.75 0  16.125 0.75 0  16.875 0.75 0  17.625 0.75 0  18.375 0.75 0  19.125 0.75 0  19.875 0.75 0  20.625 0.75 0  21.375 0.75 0  22.125 0.75 0  22.875 0.75 0  23.625 0.75 0  24.375 0.75 0  25.125 0.75 0  25.875 0.75 0  26.625 0.75 0  27.375 0.75 0  28.125 0.75 0  28.875 0.75 0  29.625 0.75 0  30.375 0.75 0  31.125 0.75 0  31.875 0.75 0  32.625 0.75 0  33.375 0.75 0  34.125 0.75 0  34.875 0.75 0  35.625 0.75 0  36.375 0.75 0  37.125 0.75 0  37.875 0.75 0  38.625 0.75 0  39.375 0.75 0  40.125 0.75 0  40
[...]
<PointData  Vectors="f_8-0"> 
<DataArray  type="Float64"  Name="f_8-0"  NumberOfComponents="3" format="ascii">0.0000000000000000e+00 0.0000000000000000e+00 0.0000000000000000e+00  0.0000000000000000e+00 0.0000000000000000e+00 0.0000000000000000e+00  0.0000000000000000e+00 0.0000000000000000e+00 0.0000000000000000e+00  0.0000000000000000e+00 0.0000000000000000e+00 0.0000000000000000e+00  0.0000000000000000e+00 0.0000000000000000e+00 0.0000000000000000e+00  0.0000000000000000e+00 0.0000000000000000e+00 0.0000000000000000e+00  0.0000000000000000e+00 0.0000000000000000e+00 0.0000000000000000e+00  0.0000000000000000e+00 0.0000000000000000e+00 0.0000000000000000e+00  0.0000000000000000e+00 0.0000000000000000e+00 0.0000000000000000e+00  0.0000000000000000e+00 0.0000000000000000e+00 0.0000000000000000e+00  0.0000000000000000e+00 0.0000000000000000e+00 0.0000000000000000e+00  0.0000000000000000e+00 0.0000000000000000e+00 0.0000000000000000e+00  0.0000000000000000e+00 0.0000000000000000e+00 0.0000000000000000e+00  0.0000000000000000e+00 0.0000000000000000e+00 0.0000000000000000e+00  0.0000000000000000e+00 0.0000000000000000e+00 0.0000000000000000e+00  0.0000000000000000e+00 0.0000000000000000e+00 0.0000000000000000e+00  0.0000000000000000e+00 0.0000000000000000e+00 0.0000000000000000e+00  0.0000000000000000e+00 0.0000000000000000e+00 0.0000000000000000e+00  0.0000000000000000e+00 0.0000000000000000e+00 0.0000000000000000e+00  0.0000000000000000e+00 0.0000000000000000e+00 0.0000000000000000e+00  0.0000000000000000e+00 0.0000000000000000e+00 0.0000000000000000e+00  0.0000000000000000e+00 0.0000000000000000e+00 0.0000000000000000e+00  0.0000000000000000e+00 0.0000000000000000e+00 0.0000000000000000e+00  0.0000000000000000e+00 0.0000000000000000e+00 0.0000000000000000e+00  0.0000000000000000e+00 0.0000000000000000e+00 0.0000000000000000e+00  0.0000000000000000e+00 0.0000000000000000e+00 0.0000000000000000e+00  0.0000000000000000e+00 0.0000000000000000e+00 0.0000000000000000e+00  0.0000000000000000e+00 0.0000000000000000e+00 0.0000000000000000e+00  0.0000000000000000e+00 0.0000000000000000e+00 0.0000000000000000e+00  0.0000000000000000e+00 0.0000000000000000e+00 0.0000000000000000e+00  0.0000000000000000e+00 0.0000000000000000e+00 0.0000000000000000e+00  0.0000000000000000e+00 0.0000000000000000e+00 0.0000000000000000e+00  0.0000000000000000e+00 0.0000000000000000e+00 0.0000000000000000e+00  0.0000000000000000e+00 0.0000000000000000e+00 0.0000000000000000e+00  0.0000000000000000e+00 0.0000000000000000e+00 0.0000000000000000e+00  0.0000000000000000e+00 0.0000000000000000e+00 0.0000000000000000e+00  0.0000000000000000e+00 0.0000000000000000e+00 0.0000000000000000e+00  0.0000000000000000e+00 0.0000000000000000e+00 0.0000000000000000e+00  0.0000000000000000e+00 0.0000000000000000e+00 0.0000000000000000e+00  0.0000000000000000e+00 0.0000000000000000e+00 0.0000000000000000e+00  0.0000000000000000e+00 0.0000000000000000e+00 0.0000000000000000e+00  0.0000000000000000e+00 0.0000000000000000e+00 0.0000000000000000e+00  0.0000000000000000e+00 0.0000000000000000e+00 0.0000000000000000e+00  0.0000000000000000e+00 0.0000000000000000e+00 0.0000000000000000e+00  0.0000000000000000e+00 0.0000000000000000e+00 0.0000000000000000e+00  0.0000000000000000e+00 0.0000000000000000e+00 0.0000000000000000e+00  0.0000000000000000e+00 0.0000000000000000e+00 0.0000000000000000e+00  0.0000000000000000e+00 0.0000000000000000e+00 0.0000000000000000e+00  0.0000000000000000e+00 0.0000000000000000e+00 0.0000000000000000e+00  0.0000000000000000e+00 0.0000000000000000e+00 0.0000000000000000e+00  0.0000000000000000e+00 0.0000000000000000e+00 0.0000000000000000e+00  0.0000000000000000e+00 0.0000000000000000e+00 0.0000000000000000e+00  0.0000000000000000e+00 0.0000000000000000e+00 0.0000000000000000e+00  0.0000000000000000e+00 0.0000000000000000e+00 0.0000000000000000e+00  0.0000000000000000e+00 0.0000000000000000e+00 0.0000000000000000e+00  0.0000000000000000e+00 0.0000000000000000e+00 0.0000000000000000e+00  0.0000000000000000e+00 0.0000000000000000e+00 0.0000000000000000e+00  0.0000000000000000e+00 0.0000000000000000e+00 0.0000000000000000e+00  0.0000000000000000e+00 0.0000000000000000e+00 0.0000000000000000e+00  0.0000000000000000e+00 0.0000000000000000e+00 0.0000000000000000e+00  0.0000000000000000e+00 0.0000000000000000e+00 0.0000000000000000e+00  0.0000000000000000e+00 0.0000000000000000e+00 0.0000000000000000e+00  0.0000000000000000e+00 0.0000000000000000e+00 0.0000000000000000e+00  0.0000000000000000e+00 0.0000000000000000e+00 0.0000000000000000e+00  0.0000000000000000e+00 0.0000000000000000e+00 0.0000000000000000e+00  0.0000000000000000e+00 0.0000000000000000e+00 0.0000000000000000e+00  0.0000000000000000e+00 0.0000000000000000e+00 0.0000000000000000e+00  0.0000000000000000e+00 0.0000000000000000e+00 0.0000000000000000e+00  0.0000000000000000e+00 0.0000000000000000e+00 0.0000000000000000e+00  0.0000000000000000e+00 0.0000000000000000e+00 0.0000000000000000e+00  0.0000000000000000e+00 0.0000000000000000e+00 0.0000000000000000e+00  0.0000000000000000e+00 0.0000000000000000e+00 0.0000000000000000e+00  0.0000000000000000e+00 0.0000000000000000e+00 0.0000000000000000e+00  0.0000000000000000e+00 0.0000000000000000e+00 0.0000000000000000e+00  0.0000000000000000e+00 0.0000000000000000e+00 0.0000000000000000e+00  0.0000000000000000e+00 0.0000000000000000e+00 0.0000000000000000e+00  0.0000000000000000e+00 0.0000000000000000e+00 0.0000000000000000e+00  0.0000000000000000e+00 0.0000000000000000e+00 0.0000000000000000e+00  0.0000000000000000e+00 0.0000000000000000e+00 0.0000000000000000e+00  0.0000000000000000e+00 0.0000000000000000e+00 0.0000000000000000e+00  0.0000000000000000e+00 0.0000000000000000e+00 0.0000000000000000e+00  -2.6356448139980326e+01 0.0000000000000000e+00 0.0000000000000000e+00  -2.6374289936572008e+01 4.9481755416154270e-03 0.0000000000000000e+00  -2.6389224995692285e+01 6.6405920116330893e-03 0.0000000000000000e+00  -2.6395672089187304e+01 5.8304608490044353e-03 0.0000000000000000e+00  -2.6398665557679550e+01 4.8806904552675060e-03 0.0000000000000000e+00  -2.6399743925287432e+01 4.1911999105961805e-03 0.0000000000000000e+00  -2.6399674610161352e+01 3.7572673045676414e-03 0.0000000000000000e+00  -2.6398930049199056e+01 3.4959654777307375e-03 0.0000000000000000e+00  -2.6397773780896141e+01 3.3344828952549103e-03 0.0000000000000000e+00  -2.6396420551153955e+01 3.2734890033933304e-03 0.0000000000000000e+00  -2.6395146657717923e+01 3.3284722209483046e-03 0.0000000000000000e+00  -2.6394170904856264e+01 3.4559294431713620e-03 0.0000000000000000e+00  -2.6393544140307249e+01 3.5894918740746414e-03 0.0000000000000000e+00  -2.6393194733257626e+01 3.6900326921776145e-03 0.0000000000000000e+00  -2.6393020060898120e+01 3.7517795562925561e-03 0.0000000000000000e+00  -2.6392939460578777e+01 3.7846936224194558e-03 0.0000000000000000e+00  -2.6392904047935328e+01 3.8005777474818194e-03 0.0000000000000000e+00  -2.6392888777380186e+01 3.8077500476426016e-03 0.0000000000000000e+00  -2.6392882104857453e+01 3.8108816596868688e-03 0.0000000000000000e+00  -2.6392879100155163e+01 3.8122453773402824e-03 0.0000000000000000e+00  -2.6392877691716762e+01 3.8128504993081231e-03 0.0000000000000000e+00  -2.6392877013318021e+01 3.8131287035147120e-03 0.0000000000000000e+00  -2.6392876678065740e+01 3.8132596736434455e-03 0.0000000000000000e+00  -2.6392876511527110e+01 3.8133237129788708e-03 0.0000000000000000e+00  -2.6392876427621797e+01 3.8133547536675942e-03 0.0000000000000000e+00  -2.6392876385693082e+01 3.8133706172977181e-03 0.0000000000000000e+00  -2.6392876364474699e+01 3.8133782068298350e-03 0.0000000000000000e+00  -2.6392876353919014e+01 3.8133822893964631e-03 0.0000000000000000e+00  -2.6392876348584856e+01 3.8133841233529567e-03 0.0000000000000000e+00  -2.6392876345953457e+01 3.8133852044310570e-03 0.0000000000000000e+00  -2.6392876344627993e+01 3.8133856274378715e-03 0.0000000000000000e+00  -2.6392876343978550e+01 3.8133859223730433e-03 0.0000000000000000e+00  -2.6392876343652183e+01 3.8133860090417086e-03 0.0000000000000000e+00  -2.6392876343492716e+01 3.8133860937603825e-03 0.0000000000000000e+00  -2.6392876343414688e+01 3.8133861069208617e-03 0.0000000000000000e+00  -2.6392876343375438e+01 3.8133861334899211e-03 0.0000000000000000e+00  -2.6392876343356107e+01 3.8133861334909988e-03 0.0000000000000000e+00  -2.6392876343345961e+01 3.8133861412678982e-03 0.0000000000000000e+00  -2.6392876343341943e+01 3.8133861405900602e-03 0.0000000000000000e+00  -2.6392876343339381e+01 3.8133861437595353e-03 0.0000000000000000e+00  -2.6392876343339125e+01 3.8133861425670660e-03 0.0000000000000000e+00  -2.6392876343337392e+01 3.8133861427491179e-03 0.0000000000000000e+00  -2.6392876343338340e+01 3.8133861439826749e-03 0.0000000000000000e+00  -2.6392876343338401e+01 3.8133861433564012e-03 0.0000000000000000e+00  -2.6392876343339339e+01 3.8133861439303878e-03 0.0000000000000000e+00  -2.6392876343338191e+01 3.8133861439870729e-03 0.0000000000000000e+00  -2.6392876343337893e+01 3.8133861444262615e-03 0.0000000000000000e+00  -2.6392876343336425e+01 3.8133861441721861e-03 0.0000000000000000e+00  -2.6392876343333214e+01 3.8133861432002127e-03 0.0000000000000000e+00  -2.6392876343330968e+01 3.8133861427569527e-03 0.0000000000000000e+00  -2.6392876343319870e+01 3.8133861414790301e-03 0.0000000000000000e+00  -2.6392876343310490e+01 3.8133861376707999e-03 0.0000000000000000e+00  -2.6392876343261463e+01 3.8133861334723076e-03 0.0000000000000000e+00  -2.6392876343243596e+01 3.8133861163086140e-03 0.0000000000000000e+00  -2.6392876342992107e+01 3.8133861101863364e-03 0.0000000000000000e+00  -2.6392876343049075e+01 3.8133860185715356e-03 0.0000000000000000e+00  -2.6392876341675137e+01 3.8133860304019910e-03 0.0000000000000000e+00  -2.6392876342774759e+01 3.8133855611994292e-03 0.0000000000000000e+00  -2.6392876334906187e+01 3.8133858272114411e-03 0.0000000000000000e+00  -2.6392876344913095e+01 3.8133833695682415e-03 0.0000000000000000e+00  -2.6392876299016518e+01 3.8133856441661261e-03 0.0000000000000000e+00  -2.6392876372692591e+01 3.8133729090504883e-03 0.0000000000000000e+00  -2.6392876107699546e+01 3.8133878084122700e-03 0.0000000000000000e+00  -2.6392876585534410e+01 3.8133244471167506e-03 0.0000000000000000e+00  -2.6392875118030485e+01 3.8134076510727630e-03 0.0000000000000000e+00  -2.6392877880774158e+01 3.8131108264063897e-03 0.0000000000000000e+00  -2.6392870360558536e+01 3.8135252792366125e-03 0.0000000000000000e+00  -2.6392884324766392e+01 3.8121962163099985e-03 0.0000000000000000e+00  -2.6392850227772200e+01 3.8142000999664000e-03 0.0000000000000000e+00  -2.6392909059976532e+01 3.8078650394883997e-03 0.0000000000000000e+00  -2.6392779793592528e+01 3.8187948442960401e-03 0.0000000000000000e+00  -2.6392968452799099e+01 3.7808513826833815e-03 0.0000000000000000e+00  -2.6392575245936513e+01 3.8464907416063425e-03 0.0000000000000000e+00  -2.6392937553275793e+01 3.5716596810617014e-03 0.0000000000000000e+00  -2.6391848155683878e+01 3.8667178829565941e-03 0.0000000000000000e+00  -2.6391715068233694e+01 2.1650027064664163e-03 0.0000000000000000e+00  -2.6391158910107141e+01 5.2586679406428855e-03 0.0000000000000000e+00  -2.6398207664819733e+01 9.5398280345057301e-03 0.0000000000000000e+00  -2.6423141658598720e+01 3.6758693202898721e-02 0.0000000000000000e+00  -2.6403428515943023e+01 5.9015974033668865e-02 0.0000000000000000e+00  -2.6410046357607232e+01 0.0000000000000000e+00 0.0000000000000000e+00  -2.7773681399336645e+01 0.0000000000000000e+00 0.0000000000000000e+00  -2.7770180550508574e+01 1.1043462207764476e-02 0.0000000000000000e+00  -2.7770458744725119e+01 7.3702237683381357e-03 0.0000000000000000e+00  -2.7770800812005177e+01 4.2987702740835652e-03 0.0000000000000000e+00  -2.7770603334705548e+01 2.2093178045973941e-03 0.0000000000000000e+00  -2.7770137896951518e+01 8.8075817494801987e-04 0.0000000000000000e+00  -2.7769527913123451e+01 7.2653608598700784e-05 0.0000000000000000e+00  -2.7768848827430375e+01 -3.9851598974052191e-04 0.0000000000000000e+00  -2.7768122008944463e+01 -6.9824828540610256e-04 0.0000000000000000e+00  -2.7767347705874904e+01 -7.6487488490368561e-04 0.0000000000000000e+00  -2.7766669177238096e+01 -5.4186145192804851e-04 0.0000000000000000e+00  -2.7766222487594931e+01 -1.7936569034146641e-04 0.0000000000000000e+00  -2.7765996877228584e+01 1.4436746197444807e-04 0.0000000000000000e+00  -2.7765905785361959e+01 3.6096749008285176e-04 0.0000000000000000e+00  -2.7765875751245915e+01 4.8198435903710704e-04 0.0000000000000000e+00  -2.7765867606008936e+01 5.4203859633084788e-04 0.0000000000000000e+00  -2.7765865727776049e+01 5.6944973050406552e-04 0.0000000000000000e+00  -2.7765865194054289e+01 5.8144815879837759e-04 0.0000000000000000e+00  -2.7765864895371873e+01 5.8660768038741129e-04 0.0000000000000000e+00  -2.7765864666930213e+01 5.8888809234959453e-04 0.0000000000000000e+00  -2.7765864514036231e+01 5.8991316540565951e-04 0.0000000000000000e+00  -2.7765864419888086e+01 5.9040108770616780e-04 0.0000000000000000e+00  -2.7765864368463173e+01 5.9063157242104393e-04 0.0000000000000000e+00  -2.7765864340375700e+01 5.9074785667292214e-04 0.0000000000000000e+00  -2.7765864326305699e+01 5.9080334746514790e-04 0.0000000000000000e+00  -2.7765864318812852e+01 5.9083259444561275e-04 0.0000000000000000e+00  -2.7765864315252262e+01 5.9084620480732281e-04 0.0000000000000000e+00  -2.7765864313343609e+01 5.9085375507867441e-04 0.0000000000000000e+00  -2.7765864312483135e+01 5.9085705460044957e-04 0.0000000000000000e+00  -2.7765864312010795e+01 5.9085902697328027e-04 0.0000000000000000e+00  -2.7765864311807100e+01 5.9085980343573385e-04 0.0000000000000000e+00  -2.7765864311691512e+01 5.9086032019720189e-04 0.0000000000000000e+00  -2.7765864311641561e+01 5.9086049629140827e-04 0.0000000000000000e+00  -2.7765864311617314e+01 5.9086063150534239e-04 0.0000000000000000e+00  -2.7765864311605110e+01 5.9086067046501035e-04 0.0000000000000000e+00  -2.7765864311599870e+01 5.9086070535471714e-04 0.0000000000000000e+00  -2.7765864311595152e+01 5.9086071556598463e-04 0.0000000000000000e+00  -2.7765864311596729e+01 5.9086072410384851e-04 0.0000000000000000e+00  -2.7765864311593695e+01 5.9086072673092069e-04 0.0000000000000000e+00  -2.7765864311594999e+01 5.9086072731512080e-04 0.0000000000000000e+00  -2.7765864311593088e+01 5.9086072942387234e-04 0.0000000000000000e+00  -2.7765864311594363e+01 5.9086072968211314e-04 0.0000000000000000e+00  -2.7765864311594097e+01 5.9086073084423476e-04 0.0000000000000000e+00  -2.7765864311594985e+01 5.9086073005014752e-04 0.0000000000000000e+00  -2.7765864311595660e+01 5.9086073032738062e-04 0.0000000000000000e+00  -2.7765864311595202e+01 5.9086072895254776e-04 0.0000000000000000e+00  -2.7765864311594044e+01 5.9086072820504489e-04 0.0000000000000000e+00  -2.7765864311592750e+01 5.9086072755026430e-04 0.0000000000000000e+00  -2.7765864311590839e+01 5.9086072606665029e-04 0.0000000000000000e+00  -2.7765864311585894e+01 5.9086072389739311e-04 0.0000000000000000e+00  -2.7765864311579854e+01 5.9086071798355609e-04 0.0000000000000000e+00  -2.7765864311557646e+01 5.9086070478716344e-04 0.0000000000000000e+00  -2.7765864311545059e+01 5.9086068113182132e-04 0.0000000000000000e+00  -2.7765864311431702e+01 5.9086062826874922e-04 0.0000000000000000e+00  -2.7765864311431379e+01 5.9086053880163104e-04 0.0000000000000000e+00  -2.7765864310835642e+01 5.9086030011479924e-04 0.0000000000000000e+00  -2.7765864311162339e+01 5.9085997050209373e-04 0.0000000000000000e+00  -2.7765864307890560e+01 5.9085886520170790e-04 0.0000000000000000e+00  -2.7765864311229635e+01 5.9085784629278278e-04 0.0000000000000000e+00  -2.7765864292947139e+01 5.9085236338132395e-04 0.0000000000000000e+00  -2.7765864318065454e+01 5.9085067878256842e-04 0.0000000000000000e+00  -2.7765864216925685e+01 5.9082168438666068e-04 0.0000000000000000e+00  -2.7765864378720757e+01 5.9083214265757576e-04 0.0000000000000000e+00  -2.7765863840936788e+01 5.9067166721878486e-04 0.0000000000000000e+00  -2.7765864759652487e+01 5.9082355176617624e-04 0.0000000000000000e+00  -2.7765862100388976e+01 5.8992810134437016e-04 0.0000000000000000e+00  -2.7765866652485673e+01 5.9113422891374082e-04 0.0000000000000000e+00  -2.7765854891621071e+01 5.8633994002440972e-04 0.0000000000000000e+00  -2.7765873880854624e+01 5.9361605078621154e-04 0.0000000000000000e+00  -2.7765829476152621e+01 5.7032305286300864e-04 0.0000000000000000e+00  -2.7765892098461681e+01 6.0356767163638610e-04 0.0000000000000000e+00  -2.7765755064431914e+01 5.0589886011527107e-04 0.0000000000000000e+00  -2.7765905746265794e+01 5.9907822391945748e-04 0.0000000000000000e+00  -2.7765560980007546e+01 2.4410179193206950e-04 0.0000000000000000e+00  -2.7765927987821843e+01 2.2720139650876284e-04 0.0000000000000000e+00  -2.7765313598522063e+01 -4.8392698072192546e-04 0.0000000000000000e+00  -2.7767099444920923e+01 1.3461745913981281e-03 0.0000000000000000e+00  -2.7756898623836054e+01 5.0356199024580665e-03 0.0000000000000000e+00  -2.7738361798946194e+01 8.3931633506681147e-03 0.0000000000000000e+00  -2.7694340152652725e+01 -1.4418236734602225e-02 0.0000000000000000e+00  -2.7756796135654358e+01 0.0000000000000000e+00 0.0000000000000000e+00  -2.5042794365901159e+01 0.0000000000000000e+00 0.0000000000000000e+00  -2.5029803520407665e+01 5.9189771920126720e-03 0.0000000000000000e+00  -2.5020781485386149e+01 3.5131215087480100e-03 0.0000000000000000e+00  -2.5016046654705711e+01 1.0886204286160175e-03 0.0000000000000000e+00  -2.5013828199766508e+01 -5.1263883231178356e-04 0.0000000000000000e+00  -2.5013105332403565e+01 -1.5067611007803948e-03 0.0000000000000000e+00  -2.5013286138097062e+01 -2.1228499719079881e-03 0.0000000000000000e+00  -2.5013987690611422e+01 -2.4738496905240704e-03 0.0000000000000000e+00  -2.5015013407298273e+01 -2.7155365904902636e-03 0.0000000000000000e+00  -2.5016185442560968e+01 -2.7951040499973627e-03 0.0000000000000000e+00  -2.5017251031810275e+01 -2.5985199554144993e-03 0.0000000000000000e+00  -2.5018037254787007e+01 -2.2547880159951034e-03 0.0000000000000000e+00  -2.5018526307565740e+01 -1.9497754440542239e-03 0.0000000000000000e+00  -2.5018792714949004e+01 -1.7519040743984120e-03 0.0000000000000000e+00  -2.5018923977782073e+01 -1.6453847196772654e-03 0.0000000000000000e+00  -2.5018984317739882e+01 -1.5945043813406854e-03 0.0000000000000000e+00  -2.5019010959841125e+01 -1.5720719271766705e-03 0.0000000000000000e+00  -2.5019022623396882e+01 -1.5625363595020189e-03 0.0000000000000000e+00  -2.5019027798397211e+01 -1.5584943785804095e-03 0.0000000000000000e+00  -2.5019030169632703e+01 -1.5567127392247715e-03 0.0000000000000000e+00  -2.5019031285255416e+01 -1.5558994793117265e-03 0.0000000000000000e+00  -2.5019031826711021e+01 -1.5555087992281560e-03 0.0000000000000000e+00  -2.5019032091444203e+01 -1.5553200081478205e-03 0.0000000000000000e+00  -2.5019032223943082e+01 -1.5552251995023226e-03 0.0000000000000000e+00  -2.5019032289427315e+01 -1.5551787309045044e-03 0.0000000000000000e+00  -2.5019032322728783e+01 -1.5551548771012584e-03 0.0000000000000000e+00  -2.5019032339079672e+01 -1.5551432582766140e-03 0.0000000000000000e+00  -2.5019032347507018e+01 -1.5551371871067609e-03 0.0000000000000000e+00  -2.5019032351556540e+01 -1.5551342963578260e-03 0.0000000000000000e+00  -2.5019032353684270e+01 -1.5551327584545239e-03 0.0000000000000000e+00  -2.5019032354673641e+01 -1.5551320461943713e-03 0.0000000000000000e+00  -2.5019032355209447e+01 -1.5551316612663390e-03 0.0000000000000000e+00  -2.5019032355445880e+01 -1.5551314840439620e-03 0.0000000000000000e+00  -2.5019032355581210e+01 -1.5551313894368525e-03 0.0000000000000000e+00  -2.5019032355636973e+01 -1.5551313474014478e-03 0.0000000000000000e+00  -2.5019032355671616e+01 -1.5551313241421035e-03 0.0000000000000000e+00  -2.5019032355685855e+01 -1.5551313139070240e-03 0.0000000000000000e+00  -2.5019032355695384e+01 -1.5551313078884380e-03 0.0