<?xml version="1.0"?>
<VTKFile type="UnstructuredGrid"  version="0.1"  >
<UnstructuredGrid>
<Piece  NumberOfPoints="1369" NumberOfCells="2560">
<Points>
<DataArray  type="Float64"  NumberOfComponents="3"  format="ascii">0 0 0  0.75 0 0  1.5 0 0  2.25 0 0  3 0 0  3.75 0 0  4.5 0 0  5.25 0 0  6 0 0  6.75 0 0  7.5 0 0  8.25 0 0  9 0 0  9.75 0 0  10.5 0 0  11.25 0 0  12 0 0  12.75 0 0  13.5 0 0  14.25 0 0  15 0 0  15.75 0 0  16.5 0 0  17.25 0 0  18 0 0  18.75 0 0  19.5 0 0  20.25 0 0  21 0 0  21.75 0 0  22.5 0 0  23.25 0 0  24 0 0  24.75 0 0  25.5 0 0  26.25 0 0  27 0 0  27.75 0 0  28.5 0 0  29.25 0 0  30 0 0  30.75 0 0  31.5 0 0  32.25 0 0  33 0 0  33.75 0 0  34.5 0 0  35.25 0 0  36 0 0  36.75 0 0  37.5 0 0  38.25 0 0  39 0 0  39.75 0 0  40.5 0 0  41.25 0 0  42 0 0  42.75 0 0  43.5 0 0  44.25 0 0  45 0 0  45.75 0 0  46.5 0 0  47.25 0 0  48 0 0  48.75 0 0  49.5 0 0  50.25 0 0  51 0 0  51.75 0 0  52.5 0 0  53.25 0 0  54 0 0  54.75 0 0  55.5 0 0  56.25 0 0  57 0 0  57.75 0 0  58.5 0 0  59.25 0 0  60 0 0  0 0.5 0  0.75 0.5 0  1.5 0.5 0  2.25 0.5 0  3 0.5 0  3.75 0.5 0  4.5 0.5 0  5.25 0.5 0  6 0.5 0  6.75 0.5 0  7.5 0.5 0  8.25 0.5 0  9 0.5 0  9.75 0.5 0  10.5 0.5 0  11.25 0.5 0  12 0.5 0  12.75 0.5 0  13.5 0.5 0  14.25 0.5 0  15 0.5 0  15.75 0.5 0  16.5 0.5 0  17.25 0.5 0  18 0.5 0  18.75 0.5 0  19.5 0.5 0  20.25 0.5 0  21 0.5 0  21.75 0.5 0  22.5 0.5 0  23.25 0.5 0  24 0.5 0  24.75 0.5 0  25.5 0.5 0  26.25 0.5 0  27 0.5 0  27.75 0.5 0  28.5 0.5 0  29.25 0.5 0  30 0.5 0  30.75 0.5 0  31.5 0.5 0  32.25 0.5 0  33 0.5 0  33.75 0.5 0  34.5 0.5 0  35.25 0.5 0  36 0.5 0  36.75 0.5 0  37.5 0.5 0  38.25 0.5 0  39 0.5 0  39.75 0.5 0  40.5 0.5 0  41.25 0.5 0  42 0.5 0  42.75 0.5 0  43.5 0.5 0  44.25 0.5 0  45 0.5 0  45.75 0.5 0  46.5 0.5 0  47.25 0.5 0  48 0.5 0  48.75 0.5 0  49.5 0.5 0  50.25 0.5 0  51 0.5 0  51.75 0.5 0  52.5 0.5 0  53.25 0.5 0  54 0.5 0  54.75 0.5 0  55.5 0.5 0  56.25 0.5 0  57 0.5 0  57.75 0.5 0  58.5 0.5 0  59.25 0.5 0  60 0.5 0  0 1 0  0.75 1 0  1.5 1 0  2.25 1 0  3 1 0  3.75 1 0  4.5 1 0  5.25 1 0  6 1 0  6.75 1 0  7.5 1 0  8.25 1 0  9 1 0  9.75 1 0  10.5 1 0  11.25 1 0  12 1 0  12.75 1 0  13.5 1 0  14.25 1 0  15 1 0  15.75 1 0  16.5 1 0  17.25 1 0  18 1 0  18.75 1 0  19.5 1 0  20.25 1 0  21 1 0  21.75 1 0  22.5 1 0  23.25 1 0  24 1 0  24.75 1 0  25.5 1 0  26.25 1 0  27 1 0  27.75 1 0  28.5 1 0  29.25 1 0  30 1 0  30.75 1 0  31.5 1 0  32.25 1 0  33 1 0  33.75 1 0  34.5 1 0  35.25 1 0  36 1 0  36.75 1 0  37.5 1 0  38.25 1 0  39 1 0  39.75 1 0  40.5 1 0  41.25 1 0  42 1 0  42.75 1 0  43.5 1 0  44.25 1 0  45 1 0  45.75 1 0  46.5 1 0  47.25 1 0  48 1 0  48.75 1 0  49.5 1 0  50.25 1 0  51 1 0  51.75 1 0  52.5 1 0  53.25 1 0  54 1 0  54.75 1 0  55.5 1 0  56.25 1 0  57 1 0  57.75 1 0  58.5 1 0  59.25 1 0  60 1 0  0 1.5 0  0.75 1.5 0  1.5 1.5 0  2.25 1.5 0  3 1.5 0  3.75 1.5 0  4.5 1.5 0  5.25 1.5 0  6 1.5 0  6.75 1.5 0  7.5 1.5 0  8.25 1.5 0  9 1.5 0  9.75 1.5 0  10.5 1.5 0  11.25 1.5 0  12 1.5 0  12.75 1.5 0  13.5 1.5 0  14.25 1.5 0  15 1.5 0  15.75 1.5 0  16.5 1.5 0  17.25 1.5 0  18 1.5 0  18.75 1.5 0  19.5 1.5 0  20.25 1.5 0  21 1.5 0  21.75 1.5 0  22.5 1.5 0  23.25 1.5 0  24 1.5 0  24.75 1.5 0  25.5 1.5 0  26.25 1.5 0  27 1.5 0  27.75 1.5 0  28.5 1.5 0  29.25 1.5 0  30 1.5 0  30.75 1.5 0  31.5 1.5 0  32.25 1.5 0  33 1.5 0  33.75 1.5 0  34.5 1.5 0  35.25 1.5 0  36 1.5 0  36.75 1.5 0  37.5 1.5 0  38.25 1.5 0  39 1.5 0  39.75 1.5 0  40.5 1.5 0  41.25 1.5 0  42 1.5 0  42.75 1.5 0  43.5 1.5 0  44.25 1.5 0  45 1.5 0  45.75 1.5 0  46.5 1.5 0  47.25 1.5 0  48 1.5 0  48.75 1.5 0  49.5 1.5 0  50.25 1.5 0  51 1.5 0  51.75 1.5 0  52.5 1.5 0  53.25 1.5 0  54 1.5 0  54.75 1.5 0  55.5 1.5 0  56.25 1.5 0  57 1.5 0  57.75 1.5 0  58.5 1.5 0  59.25 1.5 0  60 1.5 0  0 2 0  0.75 2 0  1.5 2 0  2.25 2 0  3 2 0  3.75 2 0  4.5 2 0  5.25 2 0  6 2 0  6.75 2 0  7.5 2 0  8.25 2 0  9 2 0  9.75 2 0  10.5 2 0  11.25 2 0  12 2 0  12.75 2 0  13.5 2 0  14.25 2 0  15 2 0  15.75 2 0  16.5 2 0  17.25 2 0  18 2 0  18.75 2 0  19.5 2 0  20.25 2 0  21 2 0  21.75 2 0  22.5 2 0  23.25 2 0  24 2 0  24.75 2 0  25.5 2 0  26.25 2 0  27 2 0  27.75 2 0  28.5 2 0  29.25 2 0  30 2 0  30.75 2 0  31.5 2 0  32.25 2 0  33 2 0  33.75 2 0  34.5 2 0  35.25 2 0  36 2 0  36.75 2 0  37.5 2 0  38.25 2 0  39 2 0  39.75 2 0  40.5 2 0  41.25 2 0  42 2 0  42.75 2 0  43.5 2 0  44.25 2 0  45 2 0  45.75 2 0  46.5 2 0  47.25 2 0  48 2 0  48.75 2 0  49.5 2 0  50.25 2 0  51 2 0  51.75 2 0  52.5 2 0  53.25 2 0  54 2 0  54.75 2 0  55.5 2 0  56.25 2 0  57 2 0  57.75 2 0  58.5 2 0  59.25 2 0  60 2 0  0 2.5 0  0.75 2.5 0  1.5 2.5 0  2.25 2.5 0  3 2.5 0  3.75 2.5 0  4.5 2.5 0  5.25 2.5 0  6 2.5 0  6.75 2.5 0  7.5 2.5 0  8.25 2.5 0  9 2.5 0  9.75 2.5 0  10.5 2.5 0  11.25 2.5 0  12 2.5 0  12.75 2.5 0  13.5 2.5 0  14.25 2.5 0  15 2.5 0  15.75 2.5 0  16.5 2.5 0  17.25 2.5 0  18 2.5 0  18.75 2.5 0  19.5 2.5 0  20.25 2.5 0  21 2.5 0  21.75 2.5 0  22.5 2.5 0  23.25 2.5 0  24 2.5 0  24.75 2.5 0  25.5 2.5 0  26.25 2.5 0  27 2.5 0  27.75 2.5 0  28.5 2.5 0  29.25 2.5 0  30 2.5 0  30.75 2.5 0  31.5 2.5 0  32.25 2.5 0  33 2.5 0  33.75 2.5 0  34.5 2.5 0  35.25 2.5 0  36 2.5 0  36.75 2.5 0  37.5 2.5 0  38.25 2.5 0  39 2.5 0  39.75 2.5 0  40.5 2.5 0  41.25 2.5 0  42 2.5 0  42.75 2.5 0  43.5 2.5 0  44.25 2.5 0  45 2.5 0  45.75 2.5 0  46.5 2.5 0  47.25 2.5 0  48 2.5 0  48.75 2.5 0  49.5 2.5 0  50.25 2.5 0  51 2.5 0  51.75 2.5 0  52.5 2.5 0  53.25 2.5 0  54 2.5 0  54.75 2.5 0  55.5 2.5 0  56.25 2.5 0  57 2.5 0  57.75 2.5 0  58.5 2.5 0  59.25 2.5 0  60 2.5 0  0 3 0  0.75 3 0  1.5 3 0  2.25 3 0  3 3 0  3.75 3 0  4.5 3 0  5.25 3 0  6 3 0  6.75 3 0  7.5 3 0  8.25 3 0  9 3 0  9.75 3 0  10.5 3 0  11.25 3 0  12 3 0  12.75 3 0  13.5 3 0  14.25 3 0  15 3 0  15.75 3 0  16.5 3 0  17.25 3 0  18 3 0  18.75 3 0  19.5 3 0  20.25 3 0  21 3 0  21.75 3 0  22.5 3 0  23.25 3 0  24 3 0  24.75 3 0  25.5 3 0  26.25 3 0  27 3 0  27.75 3 0  28.5 3 0  29.25 3 0  30 3 0  30.75 3 0  31.5 3 0  32.25 3 0  33 3 0  33.75 3 0  34.5 3 0  35.25 3 0  36 3 0  36.75 3 0  37.5 3 0  38.25 3 0  39 3 0  39.75 3 0  40.5 3 0  41.25 3 0  42 3 0  42.75 3 0  43.5 3 0  44.25 3 0  45 3 0  45.75 3 0  46.5 3 0  47.25 3 0  48 3 0  48.75 3 0  49.5 3 0  50.25 3 0  51 3 0  51.75 3 0  52.5 3 0  53.25 3 0  54 3 0  54.75 3 0  55.5 3 0  56.25 3 0  57 3 0  57.75 3 0  58.5 3 0  59.25 3 0  60 3 0  0 3.5 0  0.75 3.5 0  1.5 3.5 0  2.25 3.5 0  3 3.5 0  3.75 3.5 0  4.5 3.5 0  5.25 3.5 0  6 3.5 0  6.75 3.5 0  7.5 3.5 0  8.25 3.5 0  9 3.5 0  9.75 3.5 0  10.5 3.5 0  11.25 3.5 0  12 3.5 0  12.75 3.5 0  13.5 3.5 0  14.25 3.5 0  15 3.5 0  15.75 3.5 0  16.5 3.5 0  17.25 3.5 0  18 3.5 0  18.75 3.5 0  19.5 3.5 0  20.25 3.5 0  21 3.5 0  21.75 3.5 0  22.5 3.5 0  23.25 3.5 0  24 3.5 0  24.75 3.5 0  25.5 3.5 0  26.25 3.5 0  27 3.5 0  27.75 3.5 0  28.5 3.5 0  29.25 3.5 0  30 3.5 0  30.75 3.5 0  31.5 3.5 0  32.25 3.5 0  33 3.5 0  33.75 3.5 0  34.5 3.5 0  35.25 3.5 0  36 3.5 0  36.75 3.5 0  37.5 3.5 0  38.25 3.5 0  39 3.5 0  39.75 3.5 0  40.5 3.5 0  41.25 3.5 0  42 3.5 0  42.75 3.5 0  43.5 3.5 0  44.25 3.5 0  45 3.5 0  45.75 3.5 0  46.5 3.5 0  47.25 3.5 0  48 3.5 0  48.75 3.5 0  49.5 3.5 0  50.25 3.5 0  51 3.5 0  51.75 3.5 0  52.5 3.5 0  53.25 3.5 0  54 3.5 0  54.75 3.5 0  55.5 3.5 0  56.25 3.5 0  57 3.5 0  57.75 3.5 0  58.5 3.5 0  59.25 3.5 0  60 3.5 0  0 4 0  0.75 4 0  1.5 4 0  2.25 4 0  3 4 0  3.75 4 0  4.5 4 0  5.25 4 0  6 4 0  6.75 4 0  7.5 4 0  8.25 4 0  9 4 0  9.75 4 0  10.5 4 0  11.25 4 0  12 4 0  12.75 4 0  13.5 4 0  14.25 4 0  15 4 0  15.75 4 0  16.5 4 0  17.25 4 0  18 4 0  18.75 4 0  19.5 4 0  20.25 4 0  21 4 0  21.75 4 0  22.5 4 0  23.25 4 0  24 4 0  24.75 4 0  25.5 4 0  26.25 4 0  27 4 0  27.75 4 0  28.5 4 0  29.25 4 0  30 4 0  30.75 4 0  31.5 4 0  32.25 4 0  33 4 0  33.75 4 0  34.5 4 0  35.25 4 0  36 4 0  36.75 4 0  37.5 4 0  38.25 4 0  39 4 0  39.75 4 0  40.5 4 0  41.25 4 0  42 4 0  42.75 4 0  43.5 4 0  44.25 4 0  45 4 0  45.75 4 0  46.5 4 0  47.25 4 0  48 4 0  48.75 4 0  49.5 4 0  50.25 4 0  51 4 0  51.75 4 0  52.5 4 0  53.25 4 0  54 4 0  54.75 4 0  55.5 4 0  56.25 4 0  57 4 0  57.75 4 0  58.5 4 0  59.25 4 0  60 4 0  0.375 0.25 0  1.125 0.25 0  1.875 0.25 0  2.625 0.25 0  3.375 0.25 0  4.125 0.25 0  4.875 0.25 0  5.625 0.25 0  6.375 0.25 0  7.125 0.25 0  7.875 0.25 0  8.625 0.25 0  9.375 0.25 0  10.125 0.25 0  10.875 0.25 0  11.625 0.25 0  12.375 0.25 0  13.125 0.25 0  13.875 0.25 0  14.625 0.25 0  15.375 0.25 0  16.125 0.25 0  16.875 0.25 0  17.625 0.25 0  18.375 0.25 0  19.125 0.25 0  19.875 0.25 0  20.625 0.25 0  21.375 0.25 0  22.125 0.25 0  22.875 0.25 0  23.625 0.25 0  24.375 0.25 0  25.125 0.25 0  25.875 0.25 0  26.625 0.25 0  27.375 0.25 0  28.125 0.25 0  28.875 0.25 0  29.625 0.25 0  30.375 0.25 0  31.125 0.25 0  31.875 0.25 0  32.625 0.25 0  33.375 0.25 0  34.125 0.25 0  34.875 0.25 0  35.625 0.25 0  36.375 0.25 0  37.125 0.25 0  37.875 0.25 0  38.625 0.25 0  39.375 0.25 0  40.125 0.25 0  40.875 0.25 0  41.625 0.25 0  42.375 0.25 0  43.125 0.25 0  43.875 0.25 0  44.625 0.25 0  45.375 0.25 0  46.125 0.25 0  46.875 0.25 0  47.625 0.25 0  48.375 0.25 0  49.125 0.25 0  49.875 0.25 0  50.625 0.25 0  51.375 0.25 0  52.125 0.25 0  52.875 0.25 0  53.625 0.25 0  54.375 0.25 0  55.125 0.25 0  55.875 0.25 0  56.625 0.25 0  57.375 0.25 0  58.125 0.25 0  58.875 0.25 0  59.625 0.25 0  0.375 0.75 0  1.125 0.75 0  1.875 0.75 0  2.625 0.75 0  3.375 0.75 0  4.125 0.75 0  4.875 0.75 0  5.625 0.75 0  6.375 0.75 0  7.125 0.75 0  7.875 0.75 0  8.625 0.75 0  9.375 0.75 0  10.125 0.75 0  10.875 0.75 0  11.625 0.75 0  12.375 0.75 0  13.125 0.75 0  13.875 0.75 0  14.625 0.75 0  15.375 0.75 0  16.125 0.75 0  16.875 0.75 0  17.625 0.75 0  18.375 0.75 0  19.125 0.75 0  19.875 0.75 0  20.625 0.75 0  21.375 0.75 0  22.125 0.75 0  22.875 0.75 0  23.625 0.75 0  24.375 0.75 0  25.125 0.75 0  25.875 0.75 0  26.625 0.75 0  27.375 0.75 0  28.125 0.75 0  28.875 0.75 0  29.625 0.75 0  30.375 0.75 0  31.125 0.75 0  31.875 0.75 0  32.625 0.75 0  33.375 0.75 0  34.125 0.75 0  34.875 0.75 0  35.625 0.75 0  36.375 0.75 0  37.125 0.75 0  37.875 0.75 0  38.625 0.75 0  39.375 0.75 0  40.125 0.75 0  40
[...]
<PointData  Vectors="f_8-0"> 
<DataArray  type="Float64"  Name="f_8-0"  NumberOfComponents="3" format="ascii">0.0000000000000000e+00 0.0000000000000000e+00 0.0000000000000000e+00  0.0000000000000000e+00 0.0000000000000000e+00 0.0000000000000000e+00  0.0000000000000000e+00 0.0000000000000000e+00 0.0000000000000000e+00  0.0000000000000000e+00 0.0000000000000000e+00 0.0000000000000000e+00  0.0000000000000000e+00 0.0000000000000000e+00 0.0000000000000000e+00  0.0000000000000000e+00 0.0000000000000000e+00 0.0000000000000000e+00  0.0000000000000000e+00 0.0000000000000000e+00 0.0000000000000000e+00  0.0000000000000000e+00 0.0000000000000000e+00 0.0000000000000000e+00  0.0000000000000000e+00 0.0000000000000000e+00 0.0000000000000000e+00  0.0000000000000000e+00 0.0000000000000000e+00 0.0000000000000000e+00  0.0000000000000000e+00 0.0000000000000000e+00 0.0000000000000000e+00  0.0000000000000000e+00 0.0000000000000000e+00 0.0000000000000000e+00  0.0000000000000000e+00 0.0000000000000000e+00 0.0000000000000000e+00  0.0000000000000000e+00 0.0000000000000000e+00 0.0000000000000000e+00  0.0000000000000000e+00 0.0000000000000000e+00 0.0000000000000000e+00  0.0000000000000000e+00 0.0000000000000000e+00 0.0000000000000000e+00  0.0000000000000000e+00 0.0000000000000000e+00 0.0000000000000000e+00  0.0000000000000000e+00 0.0000000000000000e+00 0.0000000000000000e+00  0.0000000000000000e+00 0.0000000000000000e+00 0.0000000000000000e+00  0.0000000000000000e+00 0.0000000000000000e+00 0.0000000000000000e+00  0.0000000000000000e+00 0.0000000000000000e+00 0.0000000000000000e+00  0.0000000000000000e+00 0.0000000000000000e+00 0.0000000000000000e+00  0.0000000000000000e+00 0.0000000000000000e+00 0.0000000000000000e+00  0.0000000000000000e+00 0.0000000000000000e+00 0.0000000000000000e+00  0.0000000000000000e+00 0.0000000000000000e+00 0.0000000000000000e+00  0.0000000000000000e+00 0.0000000000000000e+00 0.0000000000000000e+00  0.0000000000000000e+00 0.0000000000000000e+00 0.0000000000000000e+00  0.0000000000000000e+00 0.0000000000000000e+00 0.0000000000000000e+00  0.0000000000000000e+00 0.0000000000000000e+00 0.0000000000000000e+00  0.0000000000000000e+00 0.0000000000000000e+00 0.0000000000000000e+00  0.0000000000000000e+00 0.0000000000000000e+00 0.0000000000000000e+00  0.0000000000000000e+00 0.0000000000000000e+00 0.0000000000000000e+00  0.0000000000000000e+00 0.0000000000000000e+00 0.0000000000000000e+00  0.0000000000000000e+00 0.0000000000000000e+00 0.0000000000000000e+00  0.0000000000000000e+00 0.0000000000000000e+00 0.0000000000000000e+00  0.0000000000000000e+00 0.0000000000000000e+00 0.0000000000000000e+00  0.0000000000000000e+00 0.0000000000000000e+00 0.0000000000000000e+00  0.0000000000000000e+00 0.0000000000000000e+00 0.0000000000000000e+00  0.0000000000000000e+00 0.0000000000000000e+00 0.0000000000000000e+00  0.0000000000000000e+00 0.0000000000000000e+00 0.0000000000000000e+00  0.0000000000000000e+00 0.0000000000000000e+00 0.0000000000000000e+00  0.0000000000000000e+00 0.0000000000000000e+00 0.0000000000000000e+00  0.0000000000000000e+00 0.0000000000000000e+00 0.0000000000000000e+00  0.0000000000000000e+00 0.0000000000000000e+00 0.0000000000000000e+00  0.0000000000000000e+00 0.0000000000000000e+00 0.0000000000000000e+00  0.0000000000000000e+00 0.0000000000000000e+00 0.0000000000000000e+00  0.0000000000000000e+00 0.0000000000000000e+00 0.0000000000000000e+00  0.0000000000000000e+00 0.0000000000000000e+00 0.0000000000000000e+00  0.0000000000000000e+00 0.0000000000000000e+00 0.0000000000000000e+00  0.0000000000000000e+00 0.0000000000000000e+00 0.0000000000000000e+00  0.0000000000000000e+00 0.0000000000000000e+00 0.0000000000000000e+00  0.0000000000000000e+00 0.0000000000000000e+00 0.0000000000000000e+00  0.0000000000000000e+00 0.0000000000000000e+00 0.0000000000000000e+00  0.0000000000000000e+00 0.0000000000000000e+00 0.0000000000000000e+00  0.0000000000000000e+00 0.0000000000000000e+00 0.0000000000000000e+00  0.0000000000000000e+00 0.0000000000000000e+00 0.0000000000000000e+00  0.0000000000000000e+00 0.0000000000000000e+00 0.0000000000000000e+00  0.0000000000000000e+00 0.0000000000000000e+00 0.0000000000000000e+00  0.0000000000000000e+00 0.0000000000000000e+00 0.0000000000000000e+00  0.0000000000000000e+00 0.0000000000000000e+00 0.0000000000000000e+00  0.0000000000000000e+00 0.0000000000000000e+00 0.0000000000000000e+00  0.0000000000000000e+00 0.0000000000000000e+00 0.0000000000000000e+00  0.0000000000000000e+00 0.0000000000000000e+00 0.0000000000000000e+00  0.0000000000000000e+00 0.0000000000000000e+00 0.0000000000000000e+00  0.0000000000000000e+00 0.0000000000000000e+00 0.0000000000000000e+00  0.0000000000000000e+00 0.0000000000000000e+00 0.0000000000000000e+00  0.0000000000000000e+00 0.0000000000000000e+00 0.0000000000000000e+00  0.0000000000000000e+00 0.0000000000000000e+00 0.0000000000000000e+00  0.0000000000000000e+00 0.0000000000000000e+00 0.0000000000000000e+00  0.0000000000000000e+00 0.0000000000000000e+00 0.0000000000000000e+00  0.0000000000000000e+00 0.0000000000000000e+00 0.0000000000000000e+00  0.0000000000000000e+00 0.0000000000000000e+00 0.0000000000000000e+00  0.0000000000000000e+00 0.0000000000000000e+00 0.0000000000000000e+00  0.0000000000000000e+00 0.0000000000000000e+00 0.0000000000000000e+00  0.0000000000000000e+00 0.0000000000000000e+00 0.0000000000000000e+00  0.0000000000000000e+00 0.0000000000000000e+00 0.0000000000000000e+00  0.0000000000000000e+00 0.0000000000000000e+00 0.0000000000000000e+00  0.0000000000000000e+00 0.0000000000000000e+00 0.0000000000000000e+00  0.0000000000000000e+00 0.0000000000000000e+00 0.0000000000000000e+00  0.0000000000000000e+00 0.0000000000000000e+00 0.0000000000000000e+00  0.0000000000000000e+00 0.0000000000000000e+00 0.0000000000000000e+00  2.0798761727269749e+01 0.0000000000000000e+00 0.0000000000000000e+00  2.0855368262756514e+01 -5.3533065626292065e-02 0.0000000000000000e+00  2.0848993221271275e+01 -1.7834486776681414e-02 0.0000000000000000e+00  2.0853426138822361e+01 -3.9277449302669194e-03 0.0000000000000000e+00  2.0855663082612807e+01 -3.9891405179554246e-03 0.0000000000000000e+00  2.0854815699506197e+01 -3.0561097720799525e-03 0.0000000000000000e+00  2.0858366395843632e+01 -5.0290001033250781e-03 0.0000000000000000e+00  2.0861795820214336e+01 -5.0077990280188202e-03 0.0000000000000000e+00  2.0866490780176644e+01 -5.1927666772962691e-03 0.0000000000000000e+00  2.0869395140164411e+01 -4.7427804935631151e-03 0.0000000000000000e+00  2.0871571122781369e+01 -4.4187062332506606e-03 0.0000000000000000e+00  2.0872621754203113e+01 -4.0984986806827358e-03 0.0000000000000000e+00  2.0873144406395649e+01 -3.9532609548345492e-03 0.0000000000000000e+00  2.0873319841787396e+01 -3.9024272883329296e-03 0.0000000000000000e+00  2.0873379420176828e+01 -3.8783083910349327e-03 0.0000000000000000e+00  2.0873402634501129e+01 -3.8848060963777731e-03 0.0000000000000000e+00  2.0873404527375701e+01 -3.8757444927390266e-03 0.0000000000000000e+00  2.0873413660904355e+01 -3.8827451550810751e-03 0.0000000000000000e+00  2.0873410975553686e+01 -3.8767685575045972e-03 0.0000000000000000e+00  2.0873416043813155e+01 -3.8810282621175923e-03 0.0000000000000000e+00  2.0873413680783962e+01 -3.8775857984319866e-03 0.0000000000000000e+00  2.0873416277489358e+01 -3.8799745791478356e-03 0.0000000000000000e+00  2.0873414799096565e+01 -3.8781681933949238e-03 0.0000000000000000e+00  2.0873416075149581e+01 -3.8794140315776267e-03 0.0000000000000000e+00  2.0873415278535788e+01 -3.8785204303277824e-03 0.0000000000000000e+00  2.0873415886512923e+01 -3.8791277656129502e-03 0.0000000000000000e+00  2.0873415494815973e+01 -3.8787096710758188e-03 0.0000000000000000e+00  2.0873415772713148e+01 -3.8789875596553260e-03 0.0000000000000000e+00  2.0873415593691750e+01 -3.8788028578209126e-03 0.0000000000000000e+00  2.0873415714358270e+01 -3.8789225141910746e-03 0.0000000000000000e+00  2.0873415637776731e+01 -3.8788454499627352e-03 0.0000000000000000e+00  2.0873415687360552e+01 -3.8788940902413273e-03 0.0000000000000000e+00  2.0873415656541667e+01 -3.8788636422386071e-03 0.0000000000000000e+00  2.0873415675842068e+01 -3.8788823865864006e-03 0.0000000000000000e+00  2.0873415664107998e+01 -3.8788709510473337e-03 0.0000000000000000e+00  2.0873415671252399e+01 -3.8788778303970764e-03 0.0000000000000000e+00  2.0873415667000796e+01 -3.8788737286280356e-03 0.0000000000000000e+00  2.0873415669524949e+01 -3.8788761440687399e-03 0.0000000000000000e+00  2.0873415668051422e+01 -3.8788747320524755e-03 0.0000000000000000e+00  2.0873415668906603e+01 -3.8788755490505060e-03 0.0000000000000000e+00  2.0873415668415419e+01 -3.8788750820188439e-03 0.0000000000000000e+00  2.0873415668695792e+01 -3.8788753463348223e-03 0.0000000000000000e+00  2.0873415668537454e+01 -3.8788751968875722e-03 0.0000000000000000e+00  2.0873415668624961e+01 -3.8788752810987870e-03 0.0000000000000000e+00  2.0873415668578360e+01 -3.8788752350917941e-03 0.0000000000000000e+00  2.0873415668605791e+01 -3.8788752600042269e-03 0.0000000000000000e+00  2.0873415668592560e+01 -3.8788752475083991e-03 0.0000000000000000e+00  2.0873415668604309e+01 -3.8788752552922907e-03 0.0000000000000000e+00  2.0873415668605837e+01 -3.8788752546691312e-03 0.0000000000000000e+00  2.0873415668621615e+01 -3.8788752587301579e-03 0.0000000000000000e+00  2.0873415668643901e+01 -3.8788752684880382e-03 0.0000000000000000e+00  2.0873415668694040e+01 -3.8788752831296208e-03 0.0000000000000000e+00  2.0873415668792241e+01 -3.8788753230248659e-03 0.0000000000000000e+00  2.0873415668996710e+01 -3.8788753899387796e-03 0.0000000000000000e+00  2.0873415669405770e+01 -3.8788755416947567e-03 0.0000000000000000e+00  2.0873415670246732e+01 -3.8788758346305968e-03 0.0000000000000000e+00  2.0873415671947821e+01 -3.8788764462323946e-03 0.0000000000000000e+00  2.0873415675429968e+01 -3.8788776883682489e-03 0.0000000000000000e+00  2.0873415682512704e+01 -3.8788802192844495e-03 0.0000000000000000e+00  2.0873415697036897e+01 -3.8788854555151199e-03 0.0000000000000000e+00  2.0873415726771373e+01 -3.8788960616450959e-03 0.0000000000000000e+00  2.0873415787896988e+01 -3.8789180888267375e-03 0.0000000000000000e+00  2.0873415913553448e+01 -3.8789626680875390e-03 0.0000000000000000e+00  2.0873416171904893e+01 -3.8790546402653302e-03 0.0000000000000000e+00  2.0873416701907438e+01 -3.8792398973376322e-03 0.0000000000000000e+00  2.0873417783842577e+01 -3.8796153815262146e-03 0.0000000000000000e+00  2.0873419975993322e+01 -3.8803575351521254e-03 0.0000000000000000e+00  2.0873424368037867e+01 -3.8818116376404472e-03 0.0000000000000000e+00  2.0873433037586505e+01 -3.8845755172784461e-03 0.0000000000000000e+00  2.0873449820314526e+01 -3.8897317719718836e-03 0.0000000000000000e+00  2.0873481530422712e+01 -3.8990073416365011e-03 0.0000000000000000e+00  2.0873539638789719e+01 -3.9151038117075576e-03 0.0000000000000000e+00  2.0873642240532071e+01 -3.9415306292373284e-03 0.0000000000000000e+00  2.0873815956527213e+01 -3.9829768483767847e-03 0.0000000000000000e+00  2.0874098267945719e+01 -4.0451616375697273e-03 0.0000000000000000e+00  2.0874543006440412e+01 -4.1363080993146390e-03 0.0000000000000000e+00  2.0875245235859648e+01 -4.2679360912549879e-03 0.0000000000000000e+00  2.0876503770857521e+01 -4.4518682227696364e-03 0.0000000000000000e+00  2.0879624923060426e+01 -4.5479725847208030e-03 0.0000000000000000e+00  2.0893348614889469e+01 -1.5061459292287523e-03 0.0000000000000000e+00  2.0929946381729994e+01 0.0000000000000000e+00 0.0000000000000000e+00  3.0012688774060265e+01 0.0000000000000000e+00 0.0000000000000000e+00  3.0033138728995887e+01 3.0459899875103131e-02 0.0000000000000000e+00  3.0002328277068937e+01 -2.5932077962932573e-04 0.0000000000000000e+00  3.0001026562472223e+01 5.9576760401079494e-03 0.0000000000000000e+00  2.9996506851274571e+01 3.1480340089399838e-03 0.0000000000000000e+00  2.9999772638304719e+01 1.3389563002800078e-03 0.0000000000000000e+00  3.0000170401159767e+01 -6.0993798960583376e-04 0.0000000000000000e+00  3.0004173699771972e+01 -2.5265315667782925e-03 0.0000000000000000e+00  3.0008529222246889e+01 -1.7101270555098167e-03 0.0000000000000000e+00  3.0012849656027910e+01 -3.3554199233115341e-04 0.0000000000000000e+00  3.0015114731999390e+01 1.0626091856308169e-03 0.0000000000000000e+00  3.0016592030690717e+01 1.9528923926867311e-03 0.0000000000000000e+00  3.0017218756051708e+01 2.4830329488285479e-03 0.0000000000000000e+00  3.0017597657663991e+01 2.7195682047833707e-03 0.0000000000000000e+00  3.0017715837899576e+01 2.8097997141751435e-03 0.0000000000000000e+00  3.0017788807346925e+01 2.8471749141957183e-03 0.0000000000000000e+00  3.0017806444116193e+01 2.8524426555354403e-03 0.0000000000000000e+00  3.0017817793379017e+01 2.8621166998095211e-03 0.0000000000000000e+00  3.0017823427055596e+01 2.8592475903322732e-03 0.0000000000000000e+00  3.0017823516957229e+01 2.8642652881927335e-03 0.0000000000000000e+00  3.0017827029752429e+01 2.8616423242469107e-03 0.0000000000000000e+00  3.0017825395874763e+01 2.8643861125197778e-03 0.0000000000000000e+00  3.0017827589803435e+01 2.8627127797003732e-03 0.0000000000000000e+00  3.0017826218117492e+01 2.8641301734798549e-03 0.0000000000000000e+00  3.0017827480743524e+01 2.8632148213272438e-03 0.0000000000000000e+00  3.0017826629705212e+01 2.8639065377266859e-03 0.0000000000000000e+00  3.0017827302361386e+01 2.8634542400555450e-03 0.0000000000000000e+00  3.0017826845088024e+01 2.8637730157359408e-03 0.0000000000000000e+00  3.0017827177254031e+01 2.8635663603098953e-03 0.0000000000000000e+00  3.0017826955202199e+01 2.8637050837123988e-03 0.0000000000000000e+00  3.0017827107503091e+01 2.8636167367879855e-03 0.0000000000000000e+00  3.0017827008276203e+01 2.8636738349284612e-03 0.0000000000000000e+00  3.0017827073406043e+01 2.8636382368222957e-03 0.0000000000000000e+00  3.0017827032130203e+01 2.8636605307680650e-03 0.0000000000000000e+00  3.0017827058266821e+01 2.8636469322653206e-03 0.0000000000000000e+00  3.0017827042137291e+01 2.8636552207717092e-03 0.0000000000000000e+00  3.0017827052049700e+01 2.8636502699914673e-03 0.0000000000000000e+00  3.0017827046080107e+01 2.8636532203052973e-03 0.0000000000000000e+00  3.0017827049654972e+01 2.8636514924291348e-03 0.0000000000000000e+00  3.0017827047547769e+01 2.8636525020641090e-03 0.0000000000000000e+00  3.0017827048778351e+01 2.8636519185259706e-03 0.0000000000000000e+00  3.0017827048066927e+01 2.8636522525333657e-03 0.0000000000000000e+00  3.0017827048475745e+01 2.8636520640330310e-03 0.0000000000000000e+00  3.0017827048241102e+01 2.8636521692660183e-03 0.0000000000000000e+00  3.0017827048373949e+01 2.8636521084986800e-03 0.0000000000000000e+00  3.0017827048301498e+01 2.8636521435777681e-03 0.0000000000000000e+00  3.0017827048341207e+01 2.8636521235209629e-03 0.0000000000000000e+00  3.0017827048318345e+01 2.8636521309911719e-03 0.0000000000000000e+00  3.0017827048331402e+01 2.8636521214162880e-03 0.0000000000000000e+00  3.0017827048325401e+01 2.8636521203068955e-03 0.0000000000000000e+00  3.0017827048327373e+01 2.8636521035057525e-03 0.0000000000000000e+00  3.0017827048323493e+01 2.8636520770791512e-03 0.0000000000000000e+00  3.0017827048314935e+01 2.8636520207380705e-03 0.0000000000000000e+00  3.0017827048305833e+01 2.8636518981996757e-03 0.0000000000000000e+00  3.0017827048275155e+01 2.8636516778637842e-03 0.0000000000000000e+00  3.0017827048235286e+01 2.8636511699257228e-03 0.0000000000000000e+00  3.0017827048116022e+01 2.8636502393781069e-03 0.0000000000000000e+00  3.0017827047941633e+01 2.8636481568826712e-03 0.0000000000000000e+00  3.0017827047479752e+01 2.8636442127187192e-03 0.0000000000000000e+00  3.0017827046695601e+01 2.8636356120878338e-03 0.0000000000000000e+00  3.0017827044808918e+01 2.8636188636225997e-03 0.0000000000000000e+00  3.0017827041303125e+01 2.8635830069429539e-03 0.0000000000000000e+00  3.0017827033443634e+01 2.8635117947406405e-03 0.0000000000000000e+00  3.0017827018236691e+01 2.8633619289559699e-03 0.0000000000000000e+00  3.0017826985627625e+01 2.8630622407644878e-03 0.0000000000000000e+00  3.0017826920711560e+01 2.8624477428240086e-03 0.0000000000000000e+00  3.0017826783096336e+01 2.8612389404624543e-03 0.0000000000000000e+00  3.0017826502972422e+01 2.8588608207984140e-03 0.0000000000000000e+00  3.0017825926987562e+01 2.8543560008469321e-03 0.0000000000000000e+00  3.0017824808872145e+01 2.8458790685205507e-03 0.0000000000000000e+00  3.0017822681536078e+01 2.8304477877198579e-03 0.0000000000000000e+00  3.0017818862180384e+01 2.8031334775531621e-03 0.0000000000000000e+00  3.0017812673624949e+01 2.7575480365499261e-03 0.0000000000000000e+00  3.0017805227211316e+01 2.6838680065247619e-03 0.0000000000000000e+00  3.0017804222214977e+01 2.5666053151907008e-03 0.0000000000000000e+00  3.0017843995294772e+01 2.3763158101400565e-03 0.0000000000000000e+00  3.0018014084241678e+01 2.0814430052769474e-03 0.0000000000000000e+00  3.0018430123329459e+01 1.6121977449680492e-03 0.0000000000000000e+00  3.0019286769271076e+01 6.6158511646688921e-04 0.0000000000000000e+00  3.0019512107336382e+01 -2.2427671521577370e-03 0.0000000000000000e+00  3.0010279474970531e+01 0.0000000000000000e+00 0.0000000000000000e+00  3.0696117177219367e+01 0.0000000000000000e+00 0.0000000000000000e+00  3.0663974119505998e+01 -1.6013624313456695e-02 0.0000000000000000e+00  3.0671859786428218e+01 1.5477246626959507e-03 0.0000000000000000e+00  3.0669846565838178e+01 -9.3190986064973288e-04 0.0000000000000000e+00  3.0677441242236910e+01 9.2299279961684461e-04 0.0000000000000000e+00  3.0673713741641670e+01 2.5086213276624724e-04 0.0000000000000000e+00  3.0672882320496427e+01 -1.3959107986816837e-03 0.0000000000000000e+00  3.0666516898643536e+01 -3.5411693695018981e-03 0.0000000000000000e+00  3.0662348313932412e+01 -3.9050409131432327e-03 0.0000000000000000e+00  3.0658345018745546e+01 -2.3769212199387865e-03 0.0000000000000000e+00  3.0656567732241967e+01 -9.1180596918735116e-04 0.0000000000000000e+00  3.0655272619335697e+01 1.2229536590569007e-04 0.0000000000000000e+00  3.0654860584225595e+01 6.9051807725821262e-04 0.0000000000000000e+00  3.0654588551574363e+01 9.6247593450670245e-04 0.0000000000000000e+00  3.0654544216706132e+01 1.0856094327641003e-03 0.0000000000000000e+00  3.0654501567974300e+01 1.1257254479420814e-03 0.0000000000000000e+00  3.0654496132117472e+01 1.1481120213185263e-03 0.0000000000000000e+00  3.0654491840635842e+01 1.1504957517649186e-03 0.0000000000000000e+00  3.0654486156555219e+01 1.1570492024290961e-03 0.0000000000000000e+00  3.0654488972550244e+01 1.1556418002647468e-03 0.0000000000000000e+00  3.0654484141310885e+01 1.1585478312655946e-03 0.0000000000000000e+00  3.0654487403473944e+01 1.1573156889399358e-03 0.0000000000000000e+00  3.0654484218490254e+01 1.1586849981517868e-03 0.0000000000000000e+00  3.0654486473626530e+01 1.1579594518161939e-03 0.0000000000000000e+00  3.0654484637888910e+01 1.1585864518905572e-03 0.0000000000000000e+00  3.0654485933574275e+01 1.1582215486318794e-03 0.0000000000000000e+00  3.0654484968464583e+01 1.1584975355535319e-03 0.0000000000000000e+00  3.0654485635864283e+01 1.1583305701290589e-03 0.0000000000000000e+00  3.0654485166043234e+01 1.1584473019266204e-03 0.0000000000000000e+00  3.0654485482240148e+01 1.1583758356251612e-03 0.0000000000000000e+00  3.0654485269043388e+01 1.1584232881284267e-03 0.0000000000000000e+00  3.0654485408416630e+01 1.1583942961042911e-03 0.0000000000000000e+00  3.0654485317775613e+01 1.1584128362045602e-03 0.0000000000000000e+00  3.0654485375364754e+01 1.1584016189124765e-03 0.0000000000000000e+00  3.0654485339068327e+01 1.1584085801854206e-03 0.0000000000000000e+00  3.0654485361522511e+01 1.1584044242168988e-03 0.0000000000000000e+00  3.0654485347756587e+01 1.1584069375980537e-03 0.0000000000000000e+00  3.0654485356068662e+01 1.1584054641855229e-03 0.0000000000000000e+00  3.0654485351095389e+01 1.1584063355135599e-03 0.0000000000000000e+00  3.0654485354033771e+01 1.1584058353317748e-03 0.0000000000