<?xml version="1.0"?>
<VTKFile type="UnstructuredGrid"  version="0.1"  >
<UnstructuredGrid>
<Piece  NumberOfPoints="1369" NumberOfCells="2560">
<Points>
<DataArray  type="Float64"  NumberOfComponents="3"  format="ascii">0 0 0  0.75 0 0  1.5 0 0  2.25 0 0  3 0 0  3.75 0 0  4.5 0 0  5.25 0 0  6 0 0  6.75 0 0  7.5 0 0  8.25 0 0  9 0 0  9.75 0 0  10.5 0 0  11.25 0 0  12 0 0  12.75 0 0  13.5 0 0  14.25 0 0  15 0 0  15.75 0 0  16.5 0 0  17.25 0 0  18 0 0  18.75 0 0  19.5 0 0  20.25 0 0  21 0 0  21.75 0 0  22.5 0 0  23.25 0 0  24 0 0  24.75 0 0  25.5 0 0  26.25 0 0  27 0 0  27.75 0 0  28.5 0 0  29.25 0 0  30 0 0  30.75 0 0  31.5 0 0  32.25 0 0  33 0 0  33.75 0 0  34.5 0 0  35.25 0 0  36 0 0  36.75 0 0  37.5 0 0  38.25 0 0  39 0 0  39.75 0 0  40.5 0 0  41.25 0 0  42 0 0  42.75 0 0  43.5 0 0  44.25 0 0  45 0 0  45.75 0 0  46.5 0 0  47.25 0 0  48 0 0  48.75 0 0  49.5 0 0  50.25 0 0  51 0 0  51.75 0 0  52.5 0 0  53.25 0 0  54 0 0  54.75 0 0  55.5 0 0  56.25 0 0  57 0 0  57.75 0 0  58.5 0 0  59.25 0 0  60 0 0  0 0.5 0  0.75 0.5 0  1.5 0.5 0  2.25 0.5 0  3 0.5 0  3.75 0.5 0  4.5 0.5 0  5.25 0.5 0  6 0.5 0  6.75 0.5 0  7.5 0.5 0  8.25 0.5 0  9 0.5 0  9.75 0.5 0  10.5 0.5 0  11.25 0.5 0  12 0.5 0  12.75 0.5 0  13.5 0.5 0  14.25 0.5 0  15 0.5 0  15.75 0.5 0  16.5 0.5 0  17.25 0.5 0  18 0.5 0  18.75 0.5 0  19.5 0.5 0  20.25 0.5 0  21 0.5 0  21.75 0.5 0  22.5 0.5 0  23.25 0.5 0  24 0.5 0  24.75 0.5 0  25.5 0.5 0  26.25 0.5 0  27 0.5 0  27.75 0.5 0  28.5 0.5 0  29.25 0.5 0  30 0.5 0  30.75 0.5 0  31.5 0.5 0  32.25 0.5 0  33 0.5 0  33.75 0.5 0  34.5 0.5 0  35.25 0.5 0  36 0.5 0  36.75 0.5 0  37.5 0.5 0  38.25 0.5 0  39 0.5 0  39.75 0.5 0  40.5 0.5 0  41.25 0.5 0  42 0.5 0  42.75 0.5 0  43.5 0.5 0  44.25 0.5 0  45 0.5 0  45.75 0.5 0  46.5 0.5 0  47.25 0.5 0  48 0.5 0  48.75 0.5 0  49.5 0.5 0  50.25 0.5 0  51 0.5 0  51.75 0.5 0  52.5 0.5 0  53.25 0.5 0  54 0.5 0  54.75 0.5 0  55.5 0.5 0  56.25 0.5 0  57 0.5 0  57.75 0.5 0  58.5 0.5 0  59.25 0.5 0  60 0.5 0  0 1 0  0.75 1 0  1.5 1 0  2.25 1 0  3 1 0  3.75 1 0  4.5 1 0  5.25 1 0  6 1 0  6.75 1 0  7.5 1 0  8.25 1 0  9 1 0  9.75 1 0  10.5 1 0  11.25 1 0  12 1 0  12.75 1 0  13.5 1 0  14.25 1 0  15 1 0  15.75 1 0  16.5 1 0  17.25 1 0  18 1 0  18.75 1 0  19.5 1 0  20.25 1 0  21 1 0  21.75 1 0  22.5 1 0  23.25 1 0  24 1 0  24.75 1 0  25.5 1 0  26.25 1 0  27 1 0  27.75 1 0  28.5 1 0  29.25 1 0  30 1 0  30.75 1 0  31.5 1 0  32.25 1 0  33 1 0  33.75 1 0  34.5 1 0  35.25 1 0  36 1 0  36.75 1 0  37.5 1 0  38.25 1 0  39 1 0  39.75 1 0  40.5 1 0  41.25 1 0  42 1 0  42.75 1 0  43.5 1 0  44.25 1 0  45 1 0  45.75 1 0  46.5 1 0  47.25 1 0  48 1 0  48.75 1 0  49.5 1 0  50.25 1 0  51 1 0  51.75 1 0  52.5 1 0  53.25 1 0  54 1 0  54.75 1 0  55.5 1 0  56.25 1 0  57 1 0  57.75 1 0  58.5 1 0  59.25 1 0  60 1 0  0 1.5 0  0.75 1.5 0  1.5 1.5 0  2.25 1.5 0  3 1.5 0  3.75 1.5 0  4.5 1.5 0  5.25 1.5 0  6 1.5 0  6.75 1.5 0  7.5 1.5 0  8.25 1.5 0  9 1.5 0  9.75 1.5 0  10.5 1.5 0  11.25 1.5 0  12 1.5 0  12.75 1.5 0  13.5 1.5 0  14.25 1.5 0  15 1.5 0  15.75 1.5 0  16.5 1.5 0  17.25 1.5 0  18 1.5 0  18.75 1.5 0  19.5 1.5 0  20.25 1.5 0  21 1.5 0  21.75 1.5 0  22.5 1.5 0  23.25 1.5 0  24 1.5 0  24.75 1.5 0  25.5 1.5 0  26.25 1.5 0  27 1.5 0  27.75 1.5 0  28.5 1.5 0  29.25 1.5 0  30 1.5 0  30.75 1.5 0  31.5 1.5 0  32.25 1.5 0  33 1.5 0  33.75 1.5 0  34.5 1.5 0  35.25 1.5 0  36 1.5 0  36.75 1.5 0  37.5 1.5 0  38.25 1.5 0  39 1.5 0  39.75 1.5 0  40.5 1.5 0  41.25 1.5 0  42 1.5 0  42.75 1.5 0  43.5 1.5 0  44.25 1.5 0  45 1.5 0  45.75 1.5 0  46.5 1.5 0  47.25 1.5 0  48 1.5 0  48.75 1.5 0  49.5 1.5 0  50.25 1.5 0  51 1.5 0  51.75 1.5 0  52.5 1.5 0  53.25 1.5 0  54 1.5 0  54.75 1.5 0  55.5 1.5 0  56.25 1.5 0  57 1.5 0  57.75 1.5 0  58.5 1.5 0  59.25 1.5 0  60 1.5 0  0 2 0  0.75 2 0  1.5 2 0  2.25 2 0  3 2 0  3.75 2 0  4.5 2 0  5.25 2 0  6 2 0  6.75 2 0  7.5 2 0  8.25 2 0  9 2 0  9.75 2 0  10.5 2 0  11.25 2 0  12 2 0  12.75 2 0  13.5 2 0  14.25 2 0  15 2 0  15.75 2 0  16.5 2 0  17.25 2 0  18 2 0  18.75 2 0  19.5 2 0  20.25 2 0  21 2 0  21.75 2 0  22.5 2 0  23.25 2 0  24 2 0  24.75 2 0  25.5 2 0  26.25 2 0  27 2 0  27.75 2 0  28.5 2 0  29.25 2 0  30 2 0  30.75 2 0  31.5 2 0  32.25 2 0  33 2 0  33.75 2 0  34.5 2 0  35.25 2 0  36 2 0  36.75 2 0  37.5 2 0  38.25 2 0  39 2 0  39.75 2 0  40.5 2 0  41.25 2 0  42 2 0  42.75 2 0  43.5 2 0  44.25 2 0  45 2 0  45.75 2 0  46.5 2 0  47.25 2 0  48 2 0  48.75 2 0  49.5 2 0  50.25 2 0  51 2 0  51.75 2 0  52.5 2 0  53.25 2 0  54 2 0  54.75 2 0  55.5 2 0  56.25 2 0  57 2 0  57.75 2 0  58.5 2 0  59.25 2 0  60 2 0  0 2.5 0  0.75 2.5 0  1.5 2.5 0  2.25 2.5 0  3 2.5 0  3.75 2.5 0  4.5 2.5 0  5.25 2.5 0  6 2.5 0  6.75 2.5 0  7.5 2.5 0  8.25 2.5 0  9 2.5 0  9.75 2.5 0  10.5 2.5 0  11.25 2.5 0  12 2.5 0  12.75 2.5 0  13.5 2.5 0  14.25 2.5 0  15 2.5 0  15.75 2.5 0  16.5 2.5 0  17.25 2.5 0  18 2.5 0  18.75 2.5 0  19.5 2.5 0  20.25 2.5 0  21 2.5 0  21.75 2.5 0  22.5 2.5 0  23.25 2.5 0  24 2.5 0  24.75 2.5 0  25.5 2.5 0  26.25 2.5 0  27 2.5 0  27.75 2.5 0  28.5 2.5 0  29.25 2.5 0  30 2.5 0  30.75 2.5 0  31.5 2.5 0  32.25 2.5 0  33 2.5 0  33.75 2.5 0  34.5 2.5 0  35.25 2.5 0  36 2.5 0  36.75 2.5 0  37.5 2.5 0  38.25 2.5 0  39 2.5 0  39.75 2.5 0  40.5 2.5 0  41.25 2.5 0  42 2.5 0  42.75 2.5 0  43.5 2.5 0  44.25 2.5 0  45 2.5 0  45.75 2.5 0  46.5 2.5 0  47.25 2.5 0  48 2.5 0  48.75 2.5 0  49.5 2.5 0  50.25 2.5 0  51 2.5 0  51.75 2.5 0  52.5 2.5 0  53.25 2.5 0  54 2.5 0  54.75 2.5 0  55.5 2.5 0  56.25 2.5 0  57 2.5 0  57.75 2.5 0  58.5 2.5 0  59.25 2.5 0  60 2.5 0  0 3 0  0.75 3 0  1.5 3 0  2.25 3 0  3 3 0  3.75 3 0  4.5 3 0  5.25 3 0  6 3 0  6.75 3 0  7.5 3 0  8.25 3 0  9 3 0  9.75 3 0  10.5 3 0  11.25 3 0  12 3 0  12.75 3 0  13.5 3 0  14.25 3 0  15 3 0  15.75 3 0  16.5 3 0  17.25 3 0  18 3 0  18.75 3 0  19.5 3 0  20.25 3 0  21 3 0  21.75 3 0  22.5 3 0  23.25 3 0  24 3 0  24.75 3 0  25.5 3 0  26.25 3 0  27 3 0  27.75 3 0  28.5 3 0  29.25 3 0  30 3 0  30.75 3 0  31.5 3 0  32.25 3 0  33 3 0  33.75 3 0  34.5 3 0  35.25 3 0  36 3 0  36.75 3 0  37.5 3 0  38.25 3 0  39 3 0  39.75 3 0  40.5 3 0  41.25 3 0  42 3 0  42.75 3 0  43.5 3 0  44.25 3 0  45 3 0  45.75 3 0  46.5 3 0  47.25 3 0  48 3 0  48.75 3 0  49.5 3 0  50.25 3 0  51 3 0  51.75 3 0  52.5 3 0  53.25 3 0  54 3 0  54.75 3 0  55.5 3 0  56.25 3 0  57 3 0  57.75 3 0  58.5 3 0  59.25 3 0  60 3 0  0 3.5 0  0.75 3.5 0  1.5 3.5 0  2.25 3.5 0  3 3.5 0  3.75 3.5 0  4.5 3.5 0  5.25 3.5 0  6 3.5 0  6.75 3.5 0  7.5 3.5 0  8.25 3.5 0  9 3.5 0  9.75 3.5 0  10.5 3.5 0  11.25 3.5 0  12 3.5 0  12.75 3.5 0  13.5 3.5 0  14.25 3.5 0  15 3.5 0  15.75 3.5 0  16.5 3.5 0  17.25 3.5 0  18 3.5 0  18.75 3.5 0  19.5 3.5 0  20.25 3.5 0  21 3.5 0  21.75 3.5 0  22.5 3.5 0  23.25 3.5 0  24 3.5 0  24.75 3.5 0  25.5 3.5 0  26.25 3.5 0  27 3.5 0  27.75 3.5 0  28.5 3.5 0  29.25 3.5 0  30 3.5 0  30.75 3.5 0  31.5 3.5 0  32.25 3.5 0  33 3.5 0  33.75 3.5 0  34.5 3.5 0  35.25 3.5 0  36 3.5 0  36.75 3.5 0  37.5 3.5 0  38.25 3.5 0  39 3.5 0  39.75 3.5 0  40.5 3.5 0  41.25 3.5 0  42 3.5 0  42.75 3.5 0  43.5 3.5 0  44.25 3.5 0  45 3.5 0  45.75 3.5 0  46.5 3.5 0  47.25 3.5 0  48 3.5 0  48.75 3.5 0  49.5 3.5 0  50.25 3.5 0  51 3.5 0  51.75 3.5 0  52.5 3.5 0  53.25 3.5 0  54 3.5 0  54.75 3.5 0  55.5 3.5 0  56.25 3.5 0  57 3.5 0  57.75 3.5 0  58.5 3.5 0  59.25 3.5 0  60 3.5 0  0 4 0  0.75 4 0  1.5 4 0  2.25 4 0  3 4 0  3.75 4 0  4.5 4 0  5.25 4 0  6 4 0  6.75 4 0  7.5 4 0  8.25 4 0  9 4 0  9.75 4 0  10.5 4 0  11.25 4 0  12 4 0  12.75 4 0  13.5 4 0  14.25 4 0  15 4 0  15.75 4 0  16.5 4 0  17.25 4 0  18 4 0  18.75 4 0  19.5 4 0  20.25 4 0  21 4 0  21.75 4 0  22.5 4 0  23.25 4 0  24 4 0  24.75 4 0  25.5 4 0  26.25 4 0  27 4 0  27.75 4 0  28.5 4 0  29.25 4 0  30 4 0  30.75 4 0  31.5 4 0  32.25 4 0  33 4 0  33.75 4 0  34.5 4 0  35.25 4 0  36 4 0  36.75 4 0  37.5 4 0  38.25 4 0  39 4 0  39.75 4 0  40.5 4 0  41.25 4 0  42 4 0  42.75 4 0  43.5 4 0  44.25 4 0  45 4 0  45.75 4 0  46.5 4 0  47.25 4 0  48 4 0  48.75 4 0  49.5 4 0  50.25 4 0  51 4 0  51.75 4 0  52.5 4 0  53.25 4 0  54 4 0  54.75 4 0  55.5 4 0  56.25 4 0  57 4 0  57.75 4 0  58.5 4 0  59.25 4 0  60 4 0  0.375 0.25 0  1.125 0.25 0  1.875 0.25 0  2.625 0.25 0  3.375 0.25 0  4.125 0.25 0  4.875 0.25 0  5.625 0.25 0  6.375 0.25 0  7.125 0.25 0  7.875 0.25 0  8.625 0.25 0  9.375 0.25 0  10.125 0.25 0  10.875 0.25 0  11.625 0.25 0  12.375 0.25 0  13.125 0.25 0  13.875 0.25 0  14.625 0.25 0  15.375 0.25 0  16.125 0.25 0  16.875 0.25 0  17.625 0.25 0  18.375 0.25 0  19.125 0.25 0  19.875 0.25 0  20.625 0.25 0  21.375 0.25 0  22.125 0.25 0  22.875 0.25 0  23.625 0.25 0  24.375 0.25 0  25.125 0.25 0  25.875 0.25 0  26.625 0.25 0  27.375 0.25 0  28.125 0.25 0  28.875 0.25 0  29.625 0.25 0  30.375 0.25 0  31.125 0.25 0  31.875 0.25 0  32.625 0.25 0  33.375 0.25 0  34.125 0.25 0  34.875 0.25 0  35.625 0.25 0  36.375 0.25 0  37.125 0.25 0  37.875 0.25 0  38.625 0.25 0  39.375 0.25 0  40.125 0.25 0  40.875 0.25 0  41.625 0.25 0  42.375 0.25 0  43.125 0.25 0  43.875 0.25 0  44.625 0.25 0  45.375 0.25 0  46.125 0.25 0  46.875 0.25 0  47.625 0.25 0  48.375 0.25 0  49.125 0.25 0  49.875 0.25 0  50.625 0.25 0  51.375 0.25 0  52.125 0.25 0  52.875 0.25 0  53.625 0.25 0  54.375 0.25 0  55.125 0.25 0  55.875 0.25 0  56.625 0.25 0  57.375 0.25 0  58.125 0.25 0  58.875 0.25 0  59.625 0.25 0  0.375 0.75 0  1.125 0.75 0  1.875 0.75 0  2.625 0.75 0  3.375 0.75 0  4.125 0.75 0  4.875 0.75 0  5.625 0.75 0  6.375 0.75 0  7.125 0.75 0  7.875 0.75 0  8.625 0.75 0  9.375 0.75 0  10.125 0.75 0  10.875 0.75 0  11.625 0.75 0  12.375 0.75 0  13.125 0.75 0  13.875 0.75 0  14.625 0.75 0  15.375 0.75 0  16.125 0.75 0  16.875 0.75 0  17.625 0.75 0  18.375 0.75 0  19.125 0.75 0  19.875 0.75 0  20.625 0.75 0  21.375 0.75 0  22.125 0.75 0  22.875 0.75 0  23.625 0.75 0  24.375 0.75 0  25.125 0.75 0  25.875 0.75 0  26.625 0.75 0  27.375 0.75 0  28.125 0.75 0  28.875 0.75 0  29.625 0.75 0  30.375 0.75 0  31.125 0.75 0  31.875 0.75 0  32.625 0.75 0  33.375 0.75 0  34.125 0.75 0  34.875 0.75 0  35.625 0.75 0  36.375 0.75 0  37.125 0.75 0  37.875 0.75 0  38.625 0.75 0  39.375 0.75 0  40.125 0.75 0  40
[...]
<PointData  Vectors="f_8-0"> 
<DataArray  type="Float64"  Name="f_8-0"  NumberOfComponents="3" format="ascii">0.0000000000000000e+00 0.0000000000000000e+00 0.0000000000000000e+00  0.0000000000000000e+00 0.0000000000000000e+00 0.0000000000000000e+00  0.0000000000000000e+00 0.0000000000000000e+00 0.0000000000000000e+00  0.0000000000000000e+00 0.0000000000000000e+00 0.0000000000000000e+00  0.0000000000000000e+00 0.0000000000000000e+00 0.0000000000000000e+00  0.0000000000000000e+00 0.0000000000000000e+00 0.0000000000000000e+00  0.0000000000000000e+00 0.0000000000000000e+00 0.0000000000000000e+00  0.0000000000000000e+00 0.0000000000000000e+00 0.0000000000000000e+00  0.0000000000000000e+00 0.0000000000000000e+00 0.0000000000000000e+00  0.0000000000000000e+00 0.0000000000000000e+00 0.0000000000000000e+00  0.0000000000000000e+00 0.0000000000000000e+00 0.0000000000000000e+00  0.0000000000000000e+00 0.0000000000000000e+00 0.0000000000000000e+00  0.0000000000000000e+00 0.0000000000000000e+00 0.0000000000000000e+00  0.0000000000000000e+00 0.0000000000000000e+00 0.0000000000000000e+00  0.0000000000000000e+00 0.0000000000000000e+00 0.0000000000000000e+00  0.0000000000000000e+00 0.0000000000000000e+00 0.0000000000000000e+00  0.0000000000000000e+00 0.0000000000000000e+00 0.0000000000000000e+00  0.0000000000000000e+00 0.0000000000000000e+00 0.0000000000000000e+00  0.0000000000000000e+00 0.0000000000000000e+00 0.0000000000000000e+00  0.0000000000000000e+00 0.0000000000000000e+00 0.0000000000000000e+00  0.0000000000000000e+00 0.0000000000000000e+00 0.0000000000000000e+00  0.0000000000000000e+00 0.0000000000000000e+00 0.0000000000000000e+00  0.0000000000000000e+00 0.0000000000000000e+00 0.0000000000000000e+00  0.0000000000000000e+00 0.0000000000000000e+00 0.0000000000000000e+00  0.0000000000000000e+00 0.0000000000000000e+00 0.0000000000000000e+00  0.0000000000000000e+00 0.0000000000000000e+00 0.0000000000000000e+00  0.0000000000000000e+00 0.0000000000000000e+00 0.0000000000000000e+00  0.0000000000000000e+00 0.0000000000000000e+00 0.0000000000000000e+00  0.0000000000000000e+00 0.0000000000000000e+00 0.0000000000000000e+00  0.0000000000000000e+00 0.0000000000000000e+00 0.0000000000000000e+00  0.0000000000000000e+00 0.0000000000000000e+00 0.0000000000000000e+00  0.0000000000000000e+00 0.0000000000000000e+00 0.0000000000000000e+00  0.0000000000000000e+00 0.0000000000000000e+00 0.0000000000000000e+00  0.0000000000000000e+00 0.0000000000000000e+00 0.0000000000000000e+00  0.0000000000000000e+00 0.0000000000000000e+00 0.0000000000000000e+00  0.0000000000000000e+00 0.0000000000000000e+00 0.0000000000000000e+00  0.0000000000000000e+00 0.0000000000000000e+00 0.0000000000000000e+00  0.0000000000000000e+00 0.0000000000000000e+00 0.0000000000000000e+00  0.0000000000000000e+00 0.0000000000000000e+00 0.0000000000000000e+00  0.0000000000000000e+00 0.0000000000000000e+00 0.0000000000000000e+00  0.0000000000000000e+00 0.0000000000000000e+00 0.0000000000000000e+00  0.0000000000000000e+00 0.0000000000000000e+00 0.0000000000000000e+00  0.0000000000000000e+00 0.0000000000000000e+00 0.0000000000000000e+00  0.0000000000000000e+00 0.0000000000000000e+00 0.0000000000000000e+00  0.0000000000000000e+00 0.0000000000000000e+00 0.0000000000000000e+00  0.0000000000000000e+00 0.0000000000000000e+00 0.0000000000000000e+00  0.0000000000000000e+00 0.0000000000000000e+00 0.0000000000000000e+00  0.0000000000000000e+00 0.0000000000000000e+00 0.0000000000000000e+00  0.0000000000000000e+00 0.0000000000000000e+00 0.0000000000000000e+00  0.0000000000000000e+00 0.0000000000000000e+00 0.0000000000000000e+00  0.0000000000000000e+00 0.0000000000000000e+00 0.0000000000000000e+00  0.0000000000000000e+00 0.0000000000000000e+00 0.0000000000000000e+00  0.0000000000000000e+00 0.0000000000000000e+00 0.0000000000000000e+00  0.0000000000000000e+00 0.0000000000000000e+00 0.0000000000000000e+00  0.0000000000000000e+00 0.0000000000000000e+00 0.0000000000000000e+00  0.0000000000000000e+00 0.0000000000000000e+00 0.0000000000000000e+00  0.0000000000000000e+00 0.0000000000000000e+00 0.0000000000000000e+00  0.0000000000000000e+00 0.0000000000000000e+00 0.0000000000000000e+00  0.0000000000000000e+00 0.0000000000000000e+00 0.0000000000000000e+00  0.0000000000000000e+00 0.0000000000000000e+00 0.0000000000000000e+00  0.0000000000000000e+00 0.0000000000000000e+00 0.0000000000000000e+00  0.0000000000000000e+00 0.0000000000000000e+00 0.0000000000000000e+00  0.0000000000000000e+00 0.0000000000000000e+00 0.0000000000000000e+00  0.0000000000000000e+00 0.0000000000000000e+00 0.0000000000000000e+00  0.0000000000000000e+00 0.0000000000000000e+00 0.0000000000000000e+00  0.0000000000000000e+00 0.0000000000000000e+00 0.0000000000000000e+00  0.0000000000000000e+00 0.0000000000000000e+00 0.0000000000000000e+00  0.0000000000000000e+00 0.0000000000000000e+00 0.0000000000000000e+00  0.0000000000000000e+00 0.0000000000000000e+00 0.0000000000000000e+00  0.0000000000000000e+00 0.0000000000000000e+00 0.0000000000000000e+00  0.0000000000000000e+00 0.0000000000000000e+00 0.0000000000000000e+00  0.0000000000000000e+00 0.0000000000000000e+00 0.0000000000000000e+00  0.0000000000000000e+00 0.0000000000000000e+00 0.0000000000000000e+00  0.0000000000000000e+00 0.0000000000000000e+00 0.0000000000000000e+00  0.0000000000000000e+00 0.0000000000000000e+00 0.0000000000000000e+00  0.0000000000000000e+00 0.0000000000000000e+00 0.0000000000000000e+00  0.0000000000000000e+00 0.0000000000000000e+00 0.0000000000000000e+00  0.0000000000000000e+00 0.0000000000000000e+00 0.0000000000000000e+00  0.0000000000000000e+00 0.0000000000000000e+00 0.0000000000000000e+00  0.0000000000000000e+00 0.0000000000000000e+00 0.0000000000000000e+00  0.0000000000000000e+00 0.0000000000000000e+00 0.0000000000000000e+00  3.3365912042647679e+01 0.0000000000000000e+00 0.0000000000000000e+00  3.3339666439914552e+01 2.6234798191403681e-02 0.0000000000000000e+00  3.3362494347270349e+01 1.3081435913755726e-02 0.0000000000000000e+00  3.3364666335462317e+01 1.0044931672395039e-02 0.0000000000000000e+00  3.3377484225556074e+01 3.8143332625134225e-03 0.0000000000000000e+00  3.3384325019585710e+01 -8.8302169692496514e-05 0.0000000000000000e+00  3.3394080158265687e+01 -1.8123158695057683e-04 0.0000000000000000e+00  3.3401627801323443e+01 -1.8517482411213679e-03 0.0000000000000000e+00  3.3407410094831221e+01 -6.1788187650543377e-05 0.0000000000000000e+00  3.3411720854813915e+01 -2.3218547312377173e-04 0.0000000000000000e+00  3.3413662841622575e+01 1.0170478797784641e-03 0.0000000000000000e+00  3.3415239242790200e+01 7.1664964111499700e-04 0.0000000000000000e+00  3.3415719267991634e+01 1.2089490340591422e-03 0.0000000000000000e+00  3.3416470129300045e+01 9.6765113435923601e-04 0.0000000000000000e+00  3.3416737134324052e+01 1.1958753023929274e-03 0.0000000000000000e+00  3.3417213748924524e+01 1.0796862065001133e-03 0.0000000000000000e+00  3.3417416270698112e+01 1.2003418671636106e-03 0.0000000000000000e+00  3.3417717351096393e+01 1.1481699392870393e-03 0.0000000000000000e+00  3.3417867335252062e+01 1.2078699686429357e-03 0.0000000000000000e+00  3.3418069079491033e+01 1.1792328039669057e-03 0.0000000000000000e+00  3.3418206146244010e+01 1.2016617012062442e-03 0.0000000000000000e+00  3.3418383980356936e+01 1.1821469718520030e-03 0.0000000000000000e+00  3.3418545550008218e+01 1.1881887431022340e-03 0.0000000000000000e+00  3.3418735831572477e+01 1.1769996603518144e-03 0.0000000000000000e+00  3.3418924390616809e+01 1.1784047947607421e-03 0.0000000000000000e+00  3.3419128341925415e+01 1.1735133039860130e-03 0.0000000000000000e+00  3.3419330671617374e+01 1.1763798870353668e-03 0.0000000000000000e+00  3.3419531762096362e+01 1.1804368964782022e-03 0.0000000000000000e+00  3.3419714466666647e+01 1.1920470965813854e-03 0.0000000000000000e+00  3.3419868212988966e+01 1.2076628995792496e-03 0.0000000000000000e+00  3.3419978177900852e+01 1.2278163126214602e-03 0.0000000000000000e+00  3.3420037382463029e+01 1.2487736457669576e-03 0.0000000000000000e+00  3.3420042928421665e+01 1.2687985934016844e-03 0.0000000000000000e+00  3.3419999423726601e+01 1.2853651523874769e-03 0.0000000000000000e+00  3.3419915424554794e+01 1.2975874524836840e-03 0.0000000000000000e+00  3.3419802578426733e+01 1.3049698855608397e-03 0.0000000000000000e+00  3.3419672730018327e+01 1.3079998469807436e-03 0.0000000000000000e+00  3.3419536759160863e+01 1.3074171247352108e-03 0.0000000000000000e+00  3.3419403335017272e+01 1.3042361074955863e-03 0.0000000000000000e+00  3.3419278728911827e+01 1.2993877532547608e-03 0.0000000000000000e+00  3.3419166817699164e+01 1.2937004948216013e-03 0.0000000000000000e+00  3.3419069509256808e+01 1.2877930071342218e-03 0.0000000000000000e+00  3.3418987184804109e+01 1.2821051978478663e-03 0.0000000000000000e+00  3.3418919191198313e+01 1.2769033799240016e-03 0.0000000000000000e+00  3.3418864236466028e+01 1.2723277252134901e-03 0.0000000000000000e+00  3.3418820712435043e+01 1.2684226299808760e-03 0.0000000000000000e+00  3.3418786915949319e+01 1.2651725885342335e-03 0.0000000000000000e+00  3.3418761197609271e+01 1.2625251805906147e-03 0.0000000000000000e+00  3.3418742045992239e+01 1.2604105399990685e-03 0.0000000000000000e+00  3.3418728129717586e+01 1.2587529285197332e-03 0.0000000000000000e+00  3.3418718308896430e+01 1.2574787071656887e-03 0.0000000000000000e+00  3.3418711629173174e+01 1.2565201798620520e-03 0.0000000000000000e+00  3.3418707305862618e+01 1.2558174099802887e-03 0.0000000000000000e+00  3.3418704704464766e+01 1.2553183747527669e-03 0.0000000000000000e+00  3.3418703320643246e+01 1.2549785273222637e-03 0.0000000000000000e+00  3.3418702761508463e+01 1.2547600849949891e-03 0.0000000000000000e+00  3.3418702728525005e+01 1.2546314097913419e-03 0.0000000000000000e+00  3.3418703001985712e+01 1.2545664708797915e-03 0.0000000000000000e+00  3.3418703426758327e+01 1.2545444367890977e-03 0.0000000000000000e+00  3.3418703899174297e+01 1.2545491634732857e-03 0.0000000000000000e+00  3.3418704355162660e+01 1.2545687652809328e-03 0.0000000000000000e+00  3.3418704759701420e+01 1.2545948630201865e-03 0.0000000000000000e+00  3.3418705097988173e+01 1.2546221504386797e-03 0.0000000000000000e+00  3.3418705368079401e+01 1.2546474149337302e-03 0.0000000000000000e+00  3.3418705575555691e+01 1.2546694996413740e-03 0.0000000000000000e+00  3.3418705728963090e+01 1.2546883405747727e-03 0.0000000000000000e+00  3.3418705837413896e+01 1.2547060950062587e-03 0.0000000000000000e+00  3.3418705906875807e+01 1.2547275268937252e-03 0.0000000000000000e+00  3.3418705937274581e+01 1.2547649535395546e-03 0.0000000000000000e+00  3.3418705902805144e+01 1.2548520966944665e-03 0.0000000000000000e+00  3.3418705714751724e+01 1.2550686773289139e-03 0.0000000000000000e+00  3.3418705141199304e+01 1.2556147330450250e-03 0.0000000000000000e+00  3.3418703648009675e+01 1.2569011217974694e-03 0.0000000000000000e+00  3.3418699739019551e+01 1.2600388092806926e-03 0.0000000000000000e+00  3.3418689364566347e+01 1.2665915482006696e-03 0.0000000000000000e+00  3.3418663519998489e+01 1.2804970503027696e-03 0.0000000000000000e+00  3.3418592719683900e+01 1.3056107016892423e-03 0.0000000000000000e+00  3.3418423152888330e+01 1.2886147419404091e-03 0.0000000000000000e+00  3.3418105677801158e+01 1.0715207928895616e-03 0.0000000000000000e+00  3.3418081597082647e+01 2.5519601867225668e-04 0.0000000000000000e+00  3.3414674687498064e+01 0.0000000000000000e+00 0.0000000000000000e+00  4.3466324592548467e+01 0.0000000000000000e+00 0.0000000000000000e+00  4.3454975973986073e+01 -2.4613591022545765e-02 0.0000000000000000e+00  4.3458065330883109e+01 -5.7426442563340814e-03 0.0000000000000000e+00  4.3459515975609094e+01 -8.6440347589997000e-03 0.0000000000000000e+00  4.3469196759914801e+01 -8.4969491787778902e-03 0.0000000000000000e+00  4.3474049667766572e+01 -7.3594914963933675e-03 0.0000000000000000e+00  4.3483350125686258e+01 -8.6920757471203019e-03 0.0000000000000000e+00  4.3490168459292661e+01 -4.6373050710802229e-03 0.0000000000000000e+00  4.3496546911446970e+01 -3.3631808166227420e-03 0.0000000000000000e+00  4.3499448989980728e+01 7.9456716111227005e-05 0.0000000000000000e+00  4.3501951894055459e+01 8.0123710670237469e-04 0.0000000000000000e+00  4.3502708374456013e+01 2.1641482428879835e-03 0.0000000000000000e+00  4.3503680763078556e+01 2.1209892887067302e-03 0.0000000000000000e+00  4.3503874189727561e+01 2.5604359196828830e-03 0.0000000000000000e+00  4.3504389470459678e+01 2.4544928839931074e-03 0.0000000000000000e+00  4.3504509573484320e+01 2.6680528977221650e-03 0.0000000000000000e+00  4.3504836627461337e+01 2.6312002241971177e-03 0.0000000000000000e+00  4.3504927831981981e+01 2.7544400072322538e-03 0.0000000000000000e+00  4.3505129347162196e+01 2.7430519865830703e-03 0.0000000000000000e+00  4.3505190869507757e+01 2.8009545950579071e-03 0.0000000000000000e+00  4.3505314684485626e+01 2.7823367599268145e-03 0.0000000000000000e+00  4.3505371156962710e+01 2.7938644684279887e-03 0.0000000000000000e+00  4.3505471965629830e+01 2.7716381631924200e-03 0.0000000000000000e+00  4.3505547841018711e+01 2.7687406518292759e-03 0.0000000000000000e+00  4.3505651426922746e+01 2.7539377899155129e-03 0.0000000000000000e+00  4.3505747465400681e+01 2.7500588805368666e-03 0.0000000000000000e+00  4.3505861158591230e+01 2.7449551834444444e-03 0.0000000000000000e+00  4.3505975891586282e+01 2.7524331893969910e-03 0.0000000000000000e+00  4.3506099095855447e+01 2.7703577099825660e-03 0.0000000000000000e+00  4.3506216498409650e+01 2.8042388867400561e-03 0.0000000000000000e+00  4.3506322929844636e+01 2.8494463747440455e-03 0.0000000000000000e+00  4.3506405762396739e+01 2.9024065391605671e-03 0.0000000000000000e+00  4.3506459648925201e+01 2.9555918893369604e-03 0.0000000000000000e+00  4.3506480323928180e+01 3.0035403809047295e-03 0.0000000000000000e+00  4.3506469668082310e+01 3.0415547506696360e-03 0.0000000000000000e+00  4.3506431864704020e+01 3.0677853540136673e-03 0.0000000000000000e+00  4.3506373872829158e+01 3.0820730540808239e-03 0.0000000000000000e+00  4.3506302879475150e+01 3.0859626297577505e-03 0.0000000000000000e+00  4.3506225857908035e+01 3.0816718827895964e-03 0.0000000000000000e+00  4.3506148450788992e+01 3.0717169024290563e-03 0.0000000000000000e+00  4.3506074917842483e+01 3.0583780822034910e-03 0.0000000000000000e+00  4.3506007997204804e+01 3.0435513070654007e-03 0.0000000000000000e+00  4.3505949189081043e+01 3.0286297860110736e-03 0.0000000000000000e+00  4.3505898985650902e+01 3.0145535745389950e-03 0.0000000000000000e+00  4.3505857191676903e+01 3.0018704969611704e-03 0.0000000000000000e+00  4.3505823163479747e+01 2.9908379294038686e-03 0.0000000000000000e+00  4.3505796022318520e+01 2.9815068086718691e-03 0.0000000000000000e+00  4.3505774796194117e+01 2.9737989268658533e-03 0.0000000000000000e+00  4.3505758521854354e+01 2.9675621486114725e-03 0.0000000000000000e+00  4.3505746302454519e+01 2.9626116662286209e-03 0.0000000000000000e+00  4.3505737339518632e+01 2.9587559705929441e-03 0.0000000000000000e+00  4.3505730943417028e+01 2.9558128753481004e-03 0.0000000000000000e+00  4.3505726532494315e+01 2.9536172620457110e-03 0.0000000000000000e+00  4.3505723624886812e+01 2.9520239381646317e-03 0.0000000000000000e+00  4.3505721827800315e+01 2.9509074005492912e-03 0.0000000000000000e+00  4.3505720826146351e+01 2.9501604377225182e-03 0.0000000000000000e+00  4.3505720371903450e+01 2.9496924395113894e-03 0.0000000000000000e+00  4.3505720274412212e+01 2.9494279468976117e-03 0.0000000000000000e+00  4.3505720391500333e+01 2.9493054775904617e-03 0.0000000000000000e+00  4.3505720621257332e+01 2.9492763526562408e-03 0.0000000000000000e+00  4.3505720894308467e+01 2.9493035841613464e-03 0.0000000000000000e+00  4.3505721166668017e+01 2.9493602210278291e-03 0.0000000000000000e+00  4.3505721413344887e+01 2.9494281090031915e-03 0.0000000000000000e+00  4.3505721622655564e+01 2.9494955771391627e-03 0.0000000000000000e+00  4.3505721792021781e+01 2.9495568330602049e-03 0.0000000000000000e+00  4.3505721923854551e+01 2.9496095884065389e-03 0.0000000000000000e+00  4.3505722025172439e+01 2.9496562382129426e-03 0.0000000000000000e+00  4.3505722104263363e+01 2.9497030700474957e-03 0.0000000000000000e+00  4.3505722181790397e+01 2.9497652262337874e-03 0.0000000000000000e+00  4.3505722284011867e+01 2.9498899310134558e-03 0.0000000000000000e+00  4.3505722507143815e+01 2.9502159383749745e-03 0.0000000000000000e+00  4.3505723072075732e+01 2.9510503696277956e-03 0.0000000000000000e+00  4.3505724709757963e+01 2.9530322103165159e-03 0.0000000000000000e+00  4.3505729064448495e+01 2.9580451790337265e-03 0.0000000000000000e+00  4.3505741713999839e+01 2.9688392242697651e-03 0.0000000000000000e+00  4.3505782819910856e+01 2.9909161938642139e-03 0.0000000000000000e+00  4.3505883277990321e+01 3.0691406331326333e-03 0.0000000000000000e+00  4.3506106916060219e+01 3.1597760713948644e-03 0.0000000000000000e+00  4.3506822100871773e+01 3.1448232233241436e-03 0.0000000000000000e+00  4.3508433390614805e+01 3.0051946394854760e-03 0.0000000000000000e+00  4.3509484548762529e+01 0.0000000000000000e+00 0.0000000000000000e+00  4.5057974592429247e+01 0.0000000000000000e+00 0.0000000000000000e+00  4.5118701263363675e+01 1.3009533733069335e-02 0.0000000000000000e+00  4.5115967168606666e+01 -4.5433945127424081e-05 0.0000000000000000e+00  4.5116086196922204e+01 2.6807060886440120e-03 0.0000000000000000e+00  4.5097704682405315e+01 -2.7051979094590622e-03 0.0000000000000000e+00  4.5088187948171914e+01 -5.3107386815529276e-03 0.0000000000000000e+00  4.5070872214041181e+01 -6.7420839612953726e-03 0.0000000000000000e+00  4.5062269628176537e+01 -7.5310980570838073e-03 0.0000000000000000e+00  4.5053144456467095e+01 -4.6769680438307351e-03 0.0000000000000000e+00  4.5050336149985355e+01 -3.3725210136321148e-03 0.0000000000000000e+00  4.5047055928852011e+01 -1.3693553809712110e-03 0.0000000000000000e+00  4.5046618275816250e+01 -9.7699560147477714e-04 0.0000000000000000e+00  4.5045334397894194e+01 -3.2453265033668776e-04 0.0000000000000000e+00  4.5045265000946692e+01 -3.4988164276355833e-04 0.0000000000000000e+00  4.5044551629449522e+01 -1.1810510453331088e-04 0.0000000000000000e+00  4.5044464597230842e+01 -1.4136201826999432e-04 0.0000000000000000e+00  4.5044022877167201e+01 -1.3175620110965981e-05 0.0000000000000000e+00  4.5043936331657022e+01 -7.6094804533744452e-06 0.0000000000000000e+00  4.5043664800218423e+01 6.5033253999783160e-05 0.0000000000000000e+00  4.5043584340852320e+01 6.8676805167403160e-05 0.0000000000000000e+00  4.5043397151721940e+01 9.3502857569541435e-05 0.0000000000000000e+00  4.5043295532892209e+01 8.0430451813479873e-05 0.0000000000000000e+00  4.5043125725129414e+01 7.8557101478276967e-05 0.0000000000000000e+00  4.5042989169165594e+01 6.4039456539106339e-05 0.0000000000000000e+00  4.5042814105079614e+01 5.7980957625684951e-05 0.0000000000000000e+00  4.5042651834399877e+01 4.7898683652630886e-05 0.0000000000000000e+00  4.5042471150517393e+01 4.4011093163333984e-05 0.0000000000000000e+00  4.5042300464207507e+01 4.4579094752967917e-05 0.0000000000000000e+00  4.5042134053397056e+01 5.7548707411138679e-05 0.0000000000000000e+00  4.5041993778993401e+01 8.3071149287570293e-05 0.0000000000000000e+00  4.5041885041275144e+01 1.2173807899123207e-04 0.0000000000000000e+00  4.5041820583359851e+01 1.6852804999768829e-04 0.0000000000000000e+00  4.5041801296387455e+01 2.1812464696383078e-04 0.0000000000000000e+00  4.5041826741963789e+01 2.6422583881971094e-04 0.0000000000000000e+00  4.5041889256093413e+01 3.0246594659184871e-04 0.0000000000000000e+00  4.5041980006110606e+01 3.3013905922470746e-04 0.0000000000000000e+00  4.5042088237115408e+01 3.4676190107519141e-04 0.0000000000000000e+00  4.5042204451498911e+01 3.5326605257024842e-04 0.0000000000000000e+00  4.5042320418684113e+01 3.5159176713399338e-04 0.0000000000000000e+00  4.5042430214897237e+01 3.4398383160076581e-04 0.0000000000000000e+00  4.5042529870956344e+01 3.3264030469662322e-04 0.0000