<?xml version="1.0"?>
<VTKFile type="UnstructuredGrid"  version="0.1"  >
<UnstructuredGrid>
<Piece  NumberOfPoints="1369" NumberOfCells="2560">
<Points>
<DataArray  type="Float64"  NumberOfComponents="3"  format="ascii">0 0 0  0.75 0 0  1.5 0 0  2.25 0 0  3 0 0  3.75 0 0  4.5 0 0  5.25 0 0  6 0 0  6.75 0 0  7.5 0 0  8.25 0 0  9 0 0  9.75 0 0  10.5 0 0  11.25 0 0  12 0 0  12.75 0 0  13.5 0 0  14.25 0 0  15 0 0  15.75 0 0  16.5 0 0  17.25 0 0  18 0 0  18.75 0 0  19.5 0 0  20.25 0 0  21 0 0  21.75 0 0  22.5 0 0  23.25 0 0  24 0 0  24.75 0 0  25.5 0 0  26.25 0 0  27 0 0  27.75 0 0  28.5 0 0  29.25 0 0  30 0 0  30.75 0 0  31.5 0 0  32.25 0 0  33 0 0  33.75 0 0  34.5 0 0  35.25 0 0  36 0 0  36.75 0 0  37.5 0 0  38.25 0 0  39 0 0  39.75 0 0  40.5 0 0  41.25 0 0  42 0 0  42.75 0 0  43.5 0 0  44.25 0 0  45 0 0  45.75 0 0  46.5 0 0  47.25 0 0  48 0 0  48.75 0 0  49.5 0 0  50.25 0 0  51 0 0  51.75 0 0  52.5 0 0  53.25 0 0  54 0 0  54.75 0 0  55.5 0 0  56.25 0 0  57 0 0  57.75 0 0  58.5 0 0  59.25 0 0  60 0 0  0 0.5 0  0.75 0.5 0  1.5 0.5 0  2.25 0.5 0  3 0.5 0  3.75 0.5 0  4.5 0.5 0  5.25 0.5 0  6 0.5 0  6.75 0.5 0  7.5 0.5 0  8.25 0.5 0  9 0.5 0  9.75 0.5 0  10.5 0.5 0  11.25 0.5 0  12 0.5 0  12.75 0.5 0  13.5 0.5 0  14.25 0.5 0  15 0.5 0  15.75 0.5 0  16.5 0.5 0  17.25 0.5 0  18 0.5 0  18.75 0.5 0  19.5 0.5 0  20.25 0.5 0  21 0.5 0  21.75 0.5 0  22.5 0.5 0  23.25 0.5 0  24 0.5 0  24.75 0.5 0  25.5 0.5 0  26.25 0.5 0  27 0.5 0  27.75 0.5 0  28.5 0.5 0  29.25 0.5 0  30 0.5 0  30.75 0.5 0  31.5 0.5 0  32.25 0.5 0  33 0.5 0  33.75 0.5 0  34.5 0.5 0  35.25 0.5 0  36 0.5 0  36.75 0.5 0  37.5 0.5 0  38.25 0.5 0  39 0.5 0  39.75 0.5 0  40.5 0.5 0  41.25 0.5 0  42 0.5 0  42.75 0.5 0  43.5 0.5 0  44.25 0.5 0  45 0.5 0  45.75 0.5 0  46.5 0.5 0  47.25 0.5 0  48 0.5 0  48.75 0.5 0  49.5 0.5 0  50.25 0.5 0  51 0.5 0  51.75 0.5 0  52.5 0.5 0  53.25 0.5 0  54 0.5 0  54.75 0.5 0  55.5 0.5 0  56.25 0.5 0  57 0.5 0  57.75 0.5 0  58.5 0.5 0  59.25 0.5 0  60 0.5 0  0 1 0  0.75 1 0  1.5 1 0  2.25 1 0  3 1 0  3.75 1 0  4.5 1 0  5.25 1 0  6 1 0  6.75 1 0  7.5 1 0  8.25 1 0  9 1 0  9.75 1 0  10.5 1 0  11.25 1 0  12 1 0  12.75 1 0  13.5 1 0  14.25 1 0  15 1 0  15.75 1 0  16.5 1 0  17.25 1 0  18 1 0  18.75 1 0  19.5 1 0  20.25 1 0  21 1 0  21.75 1 0  22.5 1 0  23.25 1 0  24 1 0  24.75 1 0  25.5 1 0  26.25 1 0  27 1 0  27.75 1 0  28.5 1 0  29.25 1 0  30 1 0  30.75 1 0  31.5 1 0  32.25 1 0  33 1 0  33.75 1 0  34.5 1 0  35.25 1 0  36 1 0  36.75 1 0  37.5 1 0  38.25 1 0  39 1 0  39.75 1 0  40.5 1 0  41.25 1 0  42 1 0  42.75 1 0  43.5 1 0  44.25 1 0  45 1 0  45.75 1 0  46.5 1 0  47.25 1 0  48 1 0  48.75 1 0  49.5 1 0  50.25 1 0  51 1 0  51.75 1 0  52.5 1 0  53.25 1 0  54 1 0  54.75 1 0  55.5 1 0  56.25 1 0  57 1 0  57.75 1 0  58.5 1 0  59.25 1 0  60 1 0  0 1.5 0  0.75 1.5 0  1.5 1.5 0  2.25 1.5 0  3 1.5 0  3.75 1.5 0  4.5 1.5 0  5.25 1.5 0  6 1.5 0  6.75 1.5 0  7.5 1.5 0  8.25 1.5 0  9 1.5 0  9.75 1.5 0  10.5 1.5 0  11.25 1.5 0  12 1.5 0  12.75 1.5 0  13.5 1.5 0  14.25 1.5 0  15 1.5 0  15.75 1.5 0  16.5 1.5 0  17.25 1.5 0  18 1.5 0  18.75 1.5 0  19.5 1.5 0  20.25 1.5 0  21 1.5 0  21.75 1.5 0  22.5 1.5 0  23.25 1.5 0  24 1.5 0  24.75 1.5 0  25.5 1.5 0  26.25 1.5 0  27 1.5 0  27.75 1.5 0  28.5 1.5 0  29.25 1.5 0  30 1.5 0  30.75 1.5 0  31.5 1.5 0  32.25 1.5 0  33 1.5 0  33.75 1.5 0  34.5 1.5 0  35.25 1.5 0  36 1.5 0  36.75 1.5 0  37.5 1.5 0  38.25 1.5 0  39 1.5 0  39.75 1.5 0  40.5 1.5 0  41.25 1.5 0  42 1.5 0  42.75 1.5 0  43.5 1.5 0  44.25 1.5 0  45 1.5 0  45.75 1.5 0  46.5 1.5 0  47.25 1.5 0  48 1.5 0  48.75 1.5 0  49.5 1.5 0  50.25 1.5 0  51 1.5 0  51.75 1.5 0  52.5 1.5 0  53.25 1.5 0  54 1.5 0  54.75 1.5 0  55.5 1.5 0  56.25 1.5 0  57 1.5 0  57.75 1.5 0  58.5 1.5 0  59.25 1.5 0  60 1.5 0  0 2 0  0.75 2 0  1.5 2 0  2.25 2 0  3 2 0  3.75 2 0  4.5 2 0  5.25 2 0  6 2 0  6.75 2 0  7.5 2 0  8.25 2 0  9 2 0  9.75 2 0  10.5 2 0  11.25 2 0  12 2 0  12.75 2 0  13.5 2 0  14.25 2 0  15 2 0  15.75 2 0  16.5 2 0  17.25 2 0  18 2 0  18.75 2 0  19.5 2 0  20.25 2 0  21 2 0  21.75 2 0  22.5 2 0  23.25 2 0  24 2 0  24.75 2 0  25.5 2 0  26.25 2 0  27 2 0  27.75 2 0  28.5 2 0  29.25 2 0  30 2 0  30.75 2 0  31.5 2 0  32.25 2 0  33 2 0  33.75 2 0  34.5 2 0  35.25 2 0  36 2 0  36.75 2 0  37.5 2 0  38.25 2 0  39 2 0  39.75 2 0  40.5 2 0  41.25 2 0  42 2 0  42.75 2 0  43.5 2 0  44.25 2 0  45 2 0  45.75 2 0  46.5 2 0  47.25 2 0  48 2 0  48.75 2 0  49.5 2 0  50.25 2 0  51 2 0  51.75 2 0  52.5 2 0  53.25 2 0  54 2 0  54.75 2 0  55.5 2 0  56.25 2 0  57 2 0  57.75 2 0  58.5 2 0  59.25 2 0  60 2 0  0 2.5 0  0.75 2.5 0  1.5 2.5 0  2.25 2.5 0  3 2.5 0  3.75 2.5 0  4.5 2.5 0  5.25 2.5 0  6 2.5 0  6.75 2.5 0  7.5 2.5 0  8.25 2.5 0  9 2.5 0  9.75 2.5 0  10.5 2.5 0  11.25 2.5 0  12 2.5 0  12.75 2.5 0  13.5 2.5 0  14.25 2.5 0  15 2.5 0  15.75 2.5 0  16.5 2.5 0  17.25 2.5 0  18 2.5 0  18.75 2.5 0  19.5 2.5 0  20.25 2.5 0  21 2.5 0  21.75 2.5 0  22.5 2.5 0  23.25 2.5 0  24 2.5 0  24.75 2.5 0  25.5 2.5 0  26.25 2.5 0  27 2.5 0  27.75 2.5 0  28.5 2.5 0  29.25 2.5 0  30 2.5 0  30.75 2.5 0  31.5 2.5 0  32.25 2.5 0  33 2.5 0  33.75 2.5 0  34.5 2.5 0  35.25 2.5 0  36 2.5 0  36.75 2.5 0  37.5 2.5 0  38.25 2.5 0  39 2.5 0  39.75 2.5 0  40.5 2.5 0  41.25 2.5 0  42 2.5 0  42.75 2.5 0  43.5 2.5 0  44.25 2.5 0  45 2.5 0  45.75 2.5 0  46.5 2.5 0  47.25 2.5 0  48 2.5 0  48.75 2.5 0  49.5 2.5 0  50.25 2.5 0  51 2.5 0  51.75 2.5 0  52.5 2.5 0  53.25 2.5 0  54 2.5 0  54.75 2.5 0  55.5 2.5 0  56.25 2.5 0  57 2.5 0  57.75 2.5 0  58.5 2.5 0  59.25 2.5 0  60 2.5 0  0 3 0  0.75 3 0  1.5 3 0  2.25 3 0  3 3 0  3.75 3 0  4.5 3 0  5.25 3 0  6 3 0  6.75 3 0  7.5 3 0  8.25 3 0  9 3 0  9.75 3 0  10.5 3 0  11.25 3 0  12 3 0  12.75 3 0  13.5 3 0  14.25 3 0  15 3 0  15.75 3 0  16.5 3 0  17.25 3 0  18 3 0  18.75 3 0  19.5 3 0  20.25 3 0  21 3 0  21.75 3 0  22.5 3 0  23.25 3 0  24 3 0  24.75 3 0  25.5 3 0  26.25 3 0  27 3 0  27.75 3 0  28.5 3 0  29.25 3 0  30 3 0  30.75 3 0  31.5 3 0  32.25 3 0  33 3 0  33.75 3 0  34.5 3 0  35.25 3 0  36 3 0  36.75 3 0  37.5 3 0  38.25 3 0  39 3 0  39.75 3 0  40.5 3 0  41.25 3 0  42 3 0  42.75 3 0  43.5 3 0  44.25 3 0  45 3 0  45.75 3 0  46.5 3 0  47.25 3 0  48 3 0  48.75 3 0  49.5 3 0  50.25 3 0  51 3 0  51.75 3 0  52.5 3 0  53.25 3 0  54 3 0  54.75 3 0  55.5 3 0  56.25 3 0  57 3 0  57.75 3 0  58.5 3 0  59.25 3 0  60 3 0  0 3.5 0  0.75 3.5 0  1.5 3.5 0  2.25 3.5 0  3 3.5 0  3.75 3.5 0  4.5 3.5 0  5.25 3.5 0  6 3.5 0  6.75 3.5 0  7.5 3.5 0  8.25 3.5 0  9 3.5 0  9.75 3.5 0  10.5 3.5 0  11.25 3.5 0  12 3.5 0  12.75 3.5 0  13.5 3.5 0  14.25 3.5 0  15 3.5 0  15.75 3.5 0  16.5 3.5 0  17.25 3.5 0  18 3.5 0  18.75 3.5 0  19.5 3.5 0  20.25 3.5 0  21 3.5 0  21.75 3.5 0  22.5 3.5 0  23.25 3.5 0  24 3.5 0  24.75 3.5 0  25.5 3.5 0  26.25 3.5 0  27 3.5 0  27.75 3.5 0  28.5 3.5 0  29.25 3.5 0  30 3.5 0  30.75 3.5 0  31.5 3.5 0  32.25 3.5 0  33 3.5 0  33.75 3.5 0  34.5 3.5 0  35.25 3.5 0  36 3.5 0  36.75 3.5 0  37.5 3.5 0  38.25 3.5 0  39 3.5 0  39.75 3.5 0  40.5 3.5 0  41.25 3.5 0  42 3.5 0  42.75 3.5 0  43.5 3.5 0  44.25 3.5 0  45 3.5 0  45.75 3.5 0  46.5 3.5 0  47.25 3.5 0  48 3.5 0  48.75 3.5 0  49.5 3.5 0  50.25 3.5 0  51 3.5 0  51.75 3.5 0  52.5 3.5 0  53.25 3.5 0  54 3.5 0  54.75 3.5 0  55.5 3.5 0  56.25 3.5 0  57 3.5 0  57.75 3.5 0  58.5 3.5 0  59.25 3.5 0  60 3.5 0  0 4 0  0.75 4 0  1.5 4 0  2.25 4 0  3 4 0  3.75 4 0  4.5 4 0  5.25 4 0  6 4 0  6.75 4 0  7.5 4 0  8.25 4 0  9 4 0  9.75 4 0  10.5 4 0  11.25 4 0  12 4 0  12.75 4 0  13.5 4 0  14.25 4 0  15 4 0  15.75 4 0  16.5 4 0  17.25 4 0  18 4 0  18.75 4 0  19.5 4 0  20.25 4 0  21 4 0  21.75 4 0  22.5 4 0  23.25 4 0  24 4 0  24.75 4 0  25.5 4 0  26.25 4 0  27 4 0  27.75 4 0  28.5 4 0  29.25 4 0  30 4 0  30.75 4 0  31.5 4 0  32.25 4 0  33 4 0  33.75 4 0  34.5 4 0  35.25 4 0  36 4 0  36.75 4 0  37.5 4 0  38.25 4 0  39 4 0  39.75 4 0  40.5 4 0  41.25 4 0  42 4 0  42.75 4 0  43.5 4 0  44.25 4 0  45 4 0  45.75 4 0  46.5 4 0  47.25 4 0  48 4 0  48.75 4 0  49.5 4 0  50.25 4 0  51 4 0  51.75 4 0  52.5 4 0  53.25 4 0  54 4 0  54.75 4 0  55.5 4 0  56.25 4 0  57 4 0  57.75 4 0  58.5 4 0  59.25 4 0  60 4 0  0.375 0.25 0  1.125 0.25 0  1.875 0.25 0  2.625 0.25 0  3.375 0.25 0  4.125 0.25 0  4.875 0.25 0  5.625 0.25 0  6.375 0.25 0  7.125 0.25 0  7.875 0.25 0  8.625 0.25 0  9.375 0.25 0  10.125 0.25 0  10.875 0.25 0  11.625 0.25 0  12.375 0.25 0  13.125 0.25 0  13.875 0.25 0  14.625 0.25 0  15.375 0.25 0  16.125 0.25 0  16.875 0.25 0  17.625 0.25 0  18.375 0.25 0  19.125 0.25 0  19.875 0.25 0  20.625 0.25 0  21.375 0.25 0  22.125 0.25 0  22.875 0.25 0  23.625 0.25 0  24.375 0.25 0  25.125 0.25 0  25.875 0.25 0  26.625 0.25 0  27.375 0.25 0  28.125 0.25 0  28.875 0.25 0  29.625 0.25 0  30.375 0.25 0  31.125 0.25 0  31.875 0.25 0  32.625 0.25 0  33.375 0.25 0  34.125 0.25 0  34.875 0.25 0  35.625 0.25 0  36.375 0.25 0  37.125 0.25 0  37.875 0.25 0  38.625 0.25 0  39.375 0.25 0  40.125 0.25 0  40.875 0.25 0  41.625 0.25 0  42.375 0.25 0  43.125 0.25 0  43.875 0.25 0  44.625 0.25 0  45.375 0.25 0  46.125 0.25 0  46.875 0.25 0  47.625 0.25 0  48.375 0.25 0  49.125 0.25 0  49.875 0.25 0  50.625 0.25 0  51.375 0.25 0  52.125 0.25 0  52.875 0.25 0  53.625 0.25 0  54.375 0.25 0  55.125 0.25 0  55.875 0.25 0  56.625 0.25 0  57.375 0.25 0  58.125 0.25 0  58.875 0.25 0  59.625 0.25 0  0.375 0.75 0  1.125 0.75 0  1.875 0.75 0  2.625 0.75 0  3.375 0.75 0  4.125 0.75 0  4.875 0.75 0  5.625 0.75 0  6.375 0.75 0  7.125 0.75 0  7.875 0.75 0  8.625 0.75 0  9.375 0.75 0  10.125 0.75 0  10.875 0.75 0  11.625 0.75 0  12.375 0.75 0  13.125 0.75 0  13.875 0.75 0  14.625 0.75 0  15.375 0.75 0  16.125 0.75 0  16.875 0.75 0  17.625 0.75 0  18.375 0.75 0  19.125 0.75 0  19.875 0.75 0  20.625 0.75 0  21.375 0.75 0  22.125 0.75 0  22.875 0.75 0  23.625 0.75 0  24.375 0.75 0  25.125 0.75 0  25.875 0.75 0  26.625 0.75 0  27.375 0.75 0  28.125 0.75 0  28.875 0.75 0  29.625 0.75 0  30.375 0.75 0  31.125 0.75 0  31.875 0.75 0  32.625 0.75 0  33.375 0.75 0  34.125 0.75 0  34.875 0.75 0  35.625 0.75 0  36.375 0.75 0  37.125 0.75 0  37.875 0.75 0  38.625 0.75 0  39.375 0.75 0  40.125 0.75 0  40
[...]
<PointData  Vectors="f_8-0"> 
<DataArray  type="Float64"  Name="f_8-0"  NumberOfComponents="3" format="ascii">0.0000000000000000e+00 0.0000000000000000e+00 0.0000000000000000e+00  0.0000000000000000e+00 0.0000000000000000e+00 0.0000000000000000e+00  0.0000000000000000e+00 0.0000000000000000e+00 0.0000000000000000e+00  0.0000000000000000e+00 0.0000000000000000e+00 0.0000000000000000e+00  0.0000000000000000e+00 0.0000000000000000e+00 0.0000000000000000e+00  0.0000000000000000e+00 0.0000000000000000e+00 0.0000000000000000e+00  0.0000000000000000e+00 0.0000000000000000e+00 0.0000000000000000e+00  0.0000000000000000e+00 0.0000000000000000e+00 0.0000000000000000e+00  0.0000000000000000e+00 0.0000000000000000e+00 0.0000000000000000e+00  0.0000000000000000e+00 0.0000000000000000e+00 0.0000000000000000e+00  0.0000000000000000e+00 0.0000000000000000e+00 0.0000000000000000e+00  0.0000000000000000e+00 0.0000000000000000e+00 0.0000000000000000e+00  0.0000000000000000e+00 0.0000000000000000e+00 0.0000000000000000e+00  0.0000000000000000e+00 0.0000000000000000e+00 0.0000000000000000e+00  0.0000000000000000e+00 0.0000000000000000e+00 0.0000000000000000e+00  0.0000000000000000e+00 0.0000000000000000e+00 0.0000000000000000e+00  0.0000000000000000e+00 0.0000000000000000e+00 0.0000000000000000e+00  0.0000000000000000e+00 0.0000000000000000e+00 0.0000000000000000e+00  0.0000000000000000e+00 0.0000000000000000e+00 0.0000000000000000e+00  0.0000000000000000e+00 0.0000000000000000e+00 0.0000000000000000e+00  0.0000000000000000e+00 0.0000000000000000e+00 0.0000000000000000e+00  0.0000000000000000e+00 0.0000000000000000e+00 0.0000000000000000e+00  0.0000000000000000e+00 0.0000000000000000e+00 0.0000000000000000e+00  0.0000000000000000e+00 0.0000000000000000e+00 0.0000000000000000e+00  0.0000000000000000e+00 0.0000000000000000e+00 0.0000000000000000e+00  0.0000000000000000e+00 0.0000000000000000e+00 0.0000000000000000e+00  0.0000000000000000e+00 0.0000000000000000e+00 0.0000000000000000e+00  0.0000000000000000e+00 0.0000000000000000e+00 0.0000000000000000e+00  0.0000000000000000e+00 0.0000000000000000e+00 0.0000000000000000e+00  0.0000000000000000e+00 0.0000000000000000e+00 0.0000000000000000e+00  0.0000000000000000e+00 0.0000000000000000e+00 0.0000000000000000e+00  0.0000000000000000e+00 0.0000000000000000e+00 0.0000000000000000e+00  0.0000000000000000e+00 0.0000000000000000e+00 0.0000000000000000e+00  0.0000000000000000e+00 0.0000000000000000e+00 0.0000000000000000e+00  0.0000000000000000e+00 0.0000000000000000e+00 0.0000000000000000e+00  0.0000000000000000e+00 0.0000000000000000e+00 0.0000000000000000e+00  0.0000000000000000e+00 0.0000000000000000e+00 0.0000000000000000e+00  0.0000000000000000e+00 0.0000000000000000e+00 0.0000000000000000e+00  0.0000000000000000e+00 0.0000000000000000e+00 0.0000000000000000e+00  0.0000000000000000e+00 0.0000000000000000e+00 0.0000000000000000e+00  0.0000000000000000e+00 0.0000000000000000e+00 0.0000000000000000e+00  0.0000000000000000e+00 0.0000000000000000e+00 0.0000000000000000e+00  0.0000000000000000e+00 0.0000000000000000e+00 0.0000000000000000e+00  0.0000000000000000e+00 0.0000000000000000e+00 0.0000000000000000e+00  0.0000000000000000e+00 0.0000000000000000e+00 0.0000000000000000e+00  0.0000000000000000e+00 0.0000000000000000e+00 0.0000000000000000e+00  0.0000000000000000e+00 0.0000000000000000e+00 0.0000000000000000e+00  0.0000000000000000e+00 0.0000000000000000e+00 0.0000000000000000e+00  0.0000000000000000e+00 0.0000000000000000e+00 0.0000000000000000e+00  0.0000000000000000e+00 0.0000000000000000e+00 0.0000000000000000e+00  0.0000000000000000e+00 0.0000000000000000e+00 0.0000000000000000e+00  0.0000000000000000e+00 0.0000000000000000e+00 0.0000000000000000e+00  0.0000000000000000e+00 0.0000000000000000e+00 0.0000000000000000e+00  0.0000000000000000e+00 0.0000000000000000e+00 0.0000000000000000e+00  0.0000000000000000e+00 0.0000000000000000e+00 0.0000000000000000e+00  0.0000000000000000e+00 0.0000000000000000e+00 0.0000000000000000e+00  0.0000000000000000e+00 0.0000000000000000e+00 0.0000000000000000e+00  0.0000000000000000e+00 0.0000000000000000e+00 0.0000000000000000e+00  0.0000000000000000e+00 0.0000000000000000e+00 0.0000000000000000e+00  0.0000000000000000e+00 0.0000000000000000e+00 0.0000000000000000e+00  0.0000000000000000e+00 0.0000000000000000e+00 0.0000000000000000e+00  0.0000000000000000e+00 0.0000000000000000e+00 0.0000000000000000e+00  0.0000000000000000e+00 0.0000000000000000e+00 0.0000000000000000e+00  0.0000000000000000e+00 0.0000000000000000e+00 0.0000000000000000e+00  0.0000000000000000e+00 0.0000000000000000e+00 0.0000000000000000e+00  0.0000000000000000e+00 0.0000000000000000e+00 0.0000000000000000e+00  0.0000000000000000e+00 0.0000000000000000e+00 0.0000000000000000e+00  0.0000000000000000e+00 0.0000000000000000e+00 0.0000000000000000e+00  0.0000000000000000e+00 0.0000000000000000e+00 0.0000000000000000e+00  0.0000000000000000e+00 0.0000000000000000e+00 0.0000000000000000e+00  0.0000000000000000e+00 0.0000000000000000e+00 0.0000000000000000e+00  0.0000000000000000e+00 0.0000000000000000e+00 0.0000000000000000e+00  0.0000000000000000e+00 0.0000000000000000e+00 0.0000000000000000e+00  0.0000000000000000e+00 0.0000000000000000e+00 0.0000000000000000e+00  0.0000000000000000e+00 0.0000000000000000e+00 0.0000000000000000e+00  0.0000000000000000e+00 0.0000000000000000e+00 0.0000000000000000e+00  0.0000000000000000e+00 0.0000000000000000e+00 0.0000000000000000e+00  0.0000000000000000e+00 0.0000000000000000e+00 0.0000000000000000e+00  0.0000000000000000e+00 0.0000000000000000e+00 0.0000000000000000e+00  0.0000000000000000e+00 0.0000000000000000e+00 0.0000000000000000e+00  0.0000000000000000e+00 0.0000000000000000e+00 0.0000000000000000e+00  2.8221686693381212e+01 0.0000000000000000e+00 0.0000000000000000e+00  2.8225934863698111e+01 3.0895178453799875e-02 0.0000000000000000e+00  2.8245716539511161e+01 2.1366812267961499e-02 0.0000000000000000e+00  2.8239756264137007e+01 1.1056579697748667e-02 0.0000000000000000e+00  2.8237034952583272e+01 7.3044548998463339e-03 0.0000000000000000e+00  2.8233926513963571e+01 9.5972505922869034e-04 0.0000000000000000e+00  2.8234303487571207e+01 1.7265570411113416e-03 0.0000000000000000e+00  2.8236201151731528e+01 1.2753851551213370e-03 0.0000000000000000e+00  2.8236476114509241e+01 2.1670318710018668e-03 0.0000000000000000e+00  2.8237031320103018e+01 1.9399926412506170e-03 0.0000000000000000e+00  2.8236899844729002e+01 2.1516620786835227e-03 0.0000000000000000e+00  2.8237064965339773e+01 2.0548729784691114e-03 0.0000000000000000e+00  2.8236983360549097e+01 2.1114202232884400e-03 0.0000000000000000e+00  2.8237048265756307e+01 2.0821692800950687e-03 0.0000000000000000e+00  2.8237013601608258e+01 2.0986488587795408e-03 0.0000000000000000e+00  2.8237037644789964e+01 2.0901273136969215e-03 0.0000000000000000e+00  2.8237025292232797e+01 2.0949728075515968e-03 0.0000000000000000e+00  2.8237033058768308e+01 2.0925049458048713e-03 0.0000000000000000e+00  2.8237029260096158e+01 2.0938869442512311e-03 0.0000000000000000e+00  2.8237031481109387e+01 2.0931992311257531e-03 0.0000000000000000e+00  2.8237030442169910e+01 2.0935729794872289e-03 0.0000000000000000e+00  2.8237031019500233e+01 2.0933921007954995e-03 0.0000000000000000e+00  2.8237030759803837e+01 2.0934873680731347e-03 0.0000000000000000e+00  2.8237030899373270e+01 2.0934425528885969e-03 0.0000000000000000e+00  2.8237030838798059e+01 2.0934655438585130e-03 0.0000000000000000e+00  2.8237030870736188e+01 2.0934550219474149e-03 0.0000000000000000e+00  2.8237030857339956e+01 2.0934603130445010e-03 0.0000000000000000e+00  2.8237030864353255e+01 2.0934579518022368e-03 0.0000000000000000e+00  2.8237030861516836e+01 2.0934591231814852e-03 0.0000000000000000e+00  2.8237030863012819e+01 2.0934586145104719e-03 0.0000000000000000e+00  2.8237030862433347e+01 2.0934588666375337e-03 0.0000000000000000e+00  2.8237030862743538e+01 2.0934587584716786e-03 0.0000000000000000e+00  2.8237030862631240e+01 2.0934588124308282e-03 0.0000000000000000e+00  2.8237030862692905e+01 2.0934587922537069e-03 0.0000000000000000e+00  2.8237030862668451e+01 2.0934588011972187e-03 0.0000000000000000e+00  2.8237030862681706e+01 2.0934587967710158e-03 0.0000000000000000e+00  2.8237030862679415e+01 2.0934587999138941e-03 0.0000000000000000e+00  2.8237030862681230e+01 2.0934587989756555e-03 0.0000000000000000e+00  2.8237030862680243e+01 2.0934587963921296e-03 0.0000000000000000e+00  2.8237030862685454e+01 2.0934587982392922e-03 0.0000000000000000e+00  2.8237030862685728e+01 2.0934587988768257e-03 0.0000000000000000e+00  2.8237030862686485e+01 2.0934587978121899e-03 0.0000000000000000e+00  2.8237030862686485e+01 2.0934587994316865e-03 0.0000000000000000e+00  2.8237030862686705e+01 2.0934587979354372e-03 0.0000000000000000e+00  2.8237030862688290e+01 2.0934587999371654e-03 0.0000000000000000e+00  2.8237030862691174e+01 2.0934587927399642e-03 0.0000000000000000e+00  2.8237030862702522e+01 2.0934587917462518e-03 0.0000000000000000e+00  2.8237030862727018e+01 2.0934587785108533e-03 0.0000000000000000e+00  2.8237030862773182e+01 2.0934587677370448e-03 0.0000000000000000e+00  2.8237030862866956e+01 2.0934587159985685e-03 0.0000000000000000e+00  2.8237030863070828e+01 2.0934586541578471e-03 0.0000000000000000e+00  2.8237030863468110e+01 2.0934584703972076e-03 0.0000000000000000e+00  2.8237030864309105e+01 2.0934581785169840e-03 0.0000000000000000e+00  2.8237030865967963e+01 2.0934574714050638e-03 0.0000000000000000e+00  2.8237030869422913e+01 2.0934561752593076e-03 0.0000000000000000e+00  2.8237030876320425e+01 2.0934533605574263e-03 0.0000000000000000e+00  2.8237030890527350e+01 2.0934478051003319e-03 0.0000000000000000e+00  2.8237030919150996e+01 2.0934361852954658e-03 0.0000000000000000e+00  2.8237030978046018e+01 2.0934122770128105e-03 0.0000000000000000e+00  2.8237031098446980e+01 2.0933622458187790e-03 0.0000000000000000e+00  2.8237031349111444e+01 2.0932562024692696e-03 0.0000000000000000e+00  2.8237031873588883e+01 2.0930299466865704e-03 0.0000000000000000e+00  2.8237032990941081e+01 2.0925385806244640e-03 0.0000000000000000e+00  2.8237035397018186e+01 2.0914687334912794e-03 0.0000000000000000e+00  2.8237040653953937e+01 2.0891243573474385e-03 0.0000000000000000e+00  2.8237052206270473e+01 2.0840596330464764e-03 0.0000000000000000e+00  2.8237077558876056e+01 2.0733795617187598e-03 0.0000000000000000e+00  2.8237132227035332e+01 2.0519852606090266e-03 0.0000000000000000e+00  2.8237246049303820e+01 2.0121068419055540e-03 0.0000000000000000e+00  2.8237469848101806e+01 1.9454327731927244e-03 0.0000000000000000e+00  2.8237875711964456e+01 1.8499431559555182e-03 0.0000000000000000e+00  2.8238534927395730e+01 1.7437126763824521e-03 0.0000000000000000e+00  2.8239460080770606e+01 1.6723496683820559e-03 0.0000000000000000e+00  2.8240535984140411e+01 1.6885025371580964e-03 0.0000000000000000e+00  2.8241535312067324e+01 1.8058787085672022e-03 0.0000000000000000e+00  2.8242227809385554e+01 2.0176651093528823e-03 0.0000000000000000e+00  2.8242371646857301e+01 2.3621788934391460e-03 0.0000000000000000e+00  2.8241532877004396e+01 2.8810771446161117e-03 0.0000000000000000e+00  2.8238887085249058e+01 3.3397630676399244e-03 0.0000000000000000e+00  2.8232857911267168e+01 2.4605904356849117e-03 0.0000000000000000e+00  2.8224935854491896e+01 0.0000000000000000e+00 0.0000000000000000e+00  3.2500875455660513e+01 0.0000000000000000e+00 0.0000000000000000e+00  3.2463958156255472e+01 -9.2968249053539519e-03 0.0000000000000000e+00  3.2483133012724309e+01 1.6868802412490144e-03 0.0000000000000000e+00  3.2494558313333911e+01 -2.2109616653724095e-03 0.0000000000000000e+00  3.2516796991312006e+01 7.0332936661747110e-05 0.0000000000000000e+00  3.2522971332248254e+01 9.4145380913644543e-04 0.0000000000000000e+00  3.2525764721697534e+01 2.7654922913943151e-04 0.0000000000000000e+00  3.2525379383077606e+01 1.2092395670009392e-03 0.0000000000000000e+00  3.2525991029410839e+01 1.6215122916447132e-03 0.0000000000000000e+00  3.2525911407055780e+01 1.9231387861530056e-03 0.0000000000000000e+00  3.2526131196657019e+01 1.9993799185828794e-03 0.0000000000000000e+00  3.2526069671919757e+01 2.0230389172929842e-03 0.0000000000000000e+00  3.2526152596456399e+01 2.0410737623594789e-03 0.0000000000000000e+00  3.2526112974461427e+01 2.0387948350817282e-03 0.0000000000000000e+00  3.2526148727608991e+01 2.0452923605698060e-03 0.0000000000000000e+00  3.2526129591672799e+01 2.0439365626371987e-03 0.0000000000000000e+00  3.2526143713592688e+01 2.0457976596502288e-03 0.0000000000000000e+00  3.2526136303967611e+01 2.0455319602260512e-03 0.0000000000000000e+00  3.2526141125015798e+01 2.0459331854593876e-03 0.0000000000000000e+00  3.2526138705157145e+01 2.0459347365055442e-03 0.0000000000000000e+00  3.2526140151642366e+01 2.0459978677591839e-03 0.0000000000000000e+00  3.2526139456633523e+01 2.0460204474814390e-03 0.0000000000000000e+00  3.2526139848592223e+01 2.0460255118465573e-03 0.0000000000000000e+00  3.2526139667430087e+01 2.0460363361638647e-03 0.0000000000000000e+00  3.2526139765659295e+01 2.0460353194934802e-03 0.0000000000000000e+00  3.2526139721815802e+01 2.0460389940017295e-03 0.0000000000000000e+00  3.2526139744994609e+01 2.0460383541227845e-03 0.0000000000000000e+00  3.2526139734975466e+01 2.0460394094715928e-03 0.0000000000000000e+00  3.2526139740197969e+01 2.0460392011585529e-03 0.0000000000000000e+00  3.2526139738013448e+01 2.0460394770707322e-03 0.0000000000000000e+00  3.2526139739153223e+01 2.0460394255905645e-03 0.0000000000000000e+00  3.2526139738695058e+01 2.0460394928163961e-03 0.0000000000000000e+00  3.2526139738938092e+01 2.0460394816623475e-03 0.0000000000000000e+00  3.2526139738846631e+01 2.0460395008401432e-03 0.0000000000000000e+00  3.2526139738892574e+01 2.0460394978128664e-03 0.0000000000000000e+00  3.2526139738873596e+01 2.0460394982129066e-03 0.0000000000000000e+00  3.2526139738884474e+01 2.0460394987411312e-03 0.0000000000000000e+00  3.2526139738880772e+01 2.0460395007535839e-03 0.0000000000000000e+00  3.2526139738878562e+01 2.0460394961389090e-03 0.0000000000000000e+00  3.2526139738881980e+01 2.0460394970951319e-03 0.0000000000000000e+00  3.2526139738886812e+01 2.0460394993179936e-03 0.0000000000000000e+00  3.2526139738885767e+01 2.0460394992060050e-03 0.0000000000000000e+00  3.2526139738887650e+01 2.0460395005880991e-03 0.0000000000000000e+00  3.2526139738887203e+01 2.0460394996520657e-03 0.0000000000000000e+00  3.2526139738885462e+01 2.0460395006429793e-03 0.0000000000000000e+00  3.2526139738883721e+01 2.0460394944139247e-03 0.0000000000000000e+00  3.2526139738878030e+01 2.0460394866372881e-03 0.0000000000000000e+00  3.2526139738882897e+01 2.0460394674462049e-03 0.0000000000000000e+00  3.2526139738875521e+01 2.0460394488871162e-03 0.0000000000000000e+00  3.2526139738872786e+01 2.0460393684916100e-03 0.0000000000000000e+00  3.2526139738859392e+01 2.0460392667184307e-03 0.0000000000000000e+00  3.2526139738839483e+01 2.0460389685534996e-03 0.0000000000000000e+00  3.2526139738804481e+01 2.0460385011111964e-03 0.0000000000000000e+00  3.2526139738716665e+01 2.0460373469810057e-03 0.0000000000000000e+00  3.2526139738573349e+01 2.0460352740162475e-03 0.0000000000000000e+00  3.2526139738231464e+01 2.0460306685540831e-03 0.0000000000000000e+00  3.2526139737662639e+01 2.0460217761186085e-03 0.0000000000000000e+00  3.2526139736254081e+01 2.0460029034048838e-03 0.0000000000000000e+00  3.2526139733570851e+01 2.0459647818672692e-03 0.0000000000000000e+00  3.2526139726729902e+01 2.0458846511415547e-03 0.0000000000000000e+00  3.2526139711726309e+01 2.0457175394900180e-03 0.0000000000000000e+00  3.2526139672697603e+01 2.0453625565508070e-03 0.0000000000000000e+00  3.2526139576496341e+01 2.0446043840588969e-03 0.0000000000000000e+00  3.2526139319367367e+01 2.0429699215127320e-03 0.0000000000000000e+00  3.2526138659154299e+01 2.0394286038771556e-03 0.0000000000000000e+00  3.2526137018475012e+01 2.0317559641728458e-03 0.0000000000000000e+00  3.2526133411107345e+01 2.0152840485193253e-03 0.0000000000000000e+00  3.2526126806984351e+01 1.9808725512547279e-03 0.0000000000000000e+00  3.2526118838202386e+01 1.9123214346405504e-03 0.0000000000000000e+00  3.2526121227413192e+01 1.7858296340453337e-03 0.0000000000000000e+00  3.2526171307524457e+01 1.5780566212000844e-03 0.0000000000000000e+00  3.2526345616176144e+01 1.2978367513685834e-03 0.0000000000000000e+00  3.2526732957331554e+01 1.0374081233366643e-03 0.0000000000000000e+00  3.2527329332659605e+01 9.6117160544955532e-04 0.0000000000000000e+00  3.2528005463404291e+01 1.1370309025696666e-03 0.0000000000000000e+00  3.2528681094396575e+01 1.5034720024589049e-03 0.0000000000000000e+00  3.2529366498311425e+01 2.1250204908538095e-03 0.0000000000000000e+00  3.2530055680833208e+01 3.1848624508545695e-03 0.0000000000000000e+00  3.2530807668723583e+01 4.7701279940300509e-03 0.0000000000000000e+00  3.2532096159804759e+01 6.2631387475800505e-03 0.0000000000000000e+00  3.2535445533114149e+01 0.0000000000000000e+00 0.0000000000000000e+00  3.0613791690799459e+01 0.0000000000000000e+00 0.0000000000000000e+00  3.0612641671099386e+01 2.1021318806384573e-03 0.0000000000000000e+00  3.0610599129334886e+01 -3.9354274376550771e-03 0.0000000000000000e+00  3.0604797520925274e+01 -4.2535832529442897e-03 0.0000000000000000e+00  3.0596324240819587e+01 -6.4981963049270544e-03 0.0000000000000000e+00  3.0595243061562513e+01 -3.0009059237062568e-03 0.0000000000000000e+00  3.0592548562169782e+01 -2.2444260769207960e-03 0.0000000000000000e+00  3.0592353440707981e+01 -1.5390760538665923e-03 0.0000000000000000e+00  3.0591220258596579e+01 -1.1577055621582631e-03 0.0000000000000000e+00  3.0591385945030265e+01 -9.5627639134752962e-04 0.0000000000000000e+00  3.0591072801544769e+01 -8.8679645187297938e-04 0.0000000000000000e+00  3.0591192237941716e+01 -8.4674057878447848e-04 0.0000000000000000e+00  3.0591088843050567e+01 -8.4600765383713924e-04 0.0000000000000000e+00  3.0591138847935813e+01 -8.3236124945702795e-04 0.0000000000000000e+00  3.0591101930210890e+01 -8.3616501418335288e-04 0.0000000000000000e+00  3.0591120535382455e+01 -8.3085645720112585e-04 0.0000000000000000e+00  3.0591107875757150e+01 -8.3267598883322619e-04 0.0000000000000000e+00  3.0591114218995983e+01 -8.3092457111346970e-04 0.0000000000000000e+00  3.0591110198756446e+01 -8.3151765124015624e-04 0.0000000000000000e+00  3.0591112169141383e+01 -8.3102490103968924e-04 0.0000000000000000e+00  3.0591110993481394e+01 -8.3118183416159750e-04 0.0000000000000000e+00  3.0591111553684303e+01 -8.3105877726248698e-04 0.0000000000000000e+00  3.0591111235044320e+01 -8.3109462529043032e-04 0.0000000000000000e+00  3.0591111382430494e+01 -8.3106643376288888e-04 0.0000000000000000e+00  3.0591111301544359e+01 -8.3107369435548748e-04 0.0000000000000000e+00  3.0591111337868973e+01 -8.3106759234552138e-04 0.0000000000000000e+00  3.0591111318426311e+01 -8.3106890471882613e-04 0.0000000000000000e+00  3.0591111326900904e+01 -8.3106763528516779e-04 0.0000000000000000e+00  3.0591111322430610e+01 -8.3106784420628734e-04 0.0000000000000000e+00  3.0591111324318369e+01 -8.3106758598168527e-04 0.0000000000000000e+00  3.0591111323327546e+01 -8.3106761131844552e-04 0.0000000000000000e+00  3.0591111323734893e+01 -8.3106755804315878e-04 0.0000000000000000e+00  3.0591111323522078e+01 -8.3106755795381109e-04 0.0000000000000000e+00  3.0591111323607112e+01 -8.3106754320682881e-04 0.0000000000000000e+00  3.0591111323561638e+01 -8.3106754224638777e-04 0.0000000000000000e+00  3.0591111323578573e+01 -8.3106754391077460e-04 0.0000000000000000e+00  3.0591111323569166e+01 -8.3106754148045228e-04 0.0000000000000000e+00  3.0591111323570964e+01 -8.3106753927694580e-04 0.0000000000000000e+00  3.0591111323569454e+01 -8.3106754461934680e-04 0.0000000000000000e+00  3.0591111323569070e+01 -8.3106754610168102e-04 0.0000000000000000e+00  3.0591111323569930e+01 -8.31067543821907