<?xml version="1.0"?>
<VTKFile type="UnstructuredGrid"  version="0.1"  >
<UnstructuredGrid>
<Piece  NumberOfPoints="1369" NumberOfCells="2560">
<Points>
<DataArray  type="Float64"  NumberOfComponents="3"  format="ascii">0 0 0  0.75 0 0  1.5 0 0  2.25 0 0  3 0 0  3.75 0 0  4.5 0 0  5.25 0 0  6 0 0  6.75 0 0  7.5 0 0  8.25 0 0  9 0 0  9.75 0 0  10.5 0 0  11.25 0 0  12 0 0  12.75 0 0  13.5 0 0  14.25 0 0  15 0 0  15.75 0 0  16.5 0 0  17.25 0 0  18 0 0  18.75 0 0  19.5 0 0  20.25 0 0  21 0 0  21.75 0 0  22.5 0 0  23.25 0 0  24 0 0  24.75 0 0  25.5 0 0  26.25 0 0  27 0 0  27.75 0 0  28.5 0 0  29.25 0 0  30 0 0  30.75 0 0  31.5 0 0  32.25 0 0  33 0 0  33.75 0 0  34.5 0 0  35.25 0 0  36 0 0  36.75 0 0  37.5 0 0  38.25 0 0  39 0 0  39.75 0 0  40.5 0 0  41.25 0 0  42 0 0  42.75 0 0  43.5 0 0  44.25 0 0  45 0 0  45.75 0 0  46.5 0 0  47.25 0 0  48 0 0  48.75 0 0  49.5 0 0  50.25 0 0  51 0 0  51.75 0 0  52.5 0 0  53.25 0 0  54 0 0  54.75 0 0  55.5 0 0  56.25 0 0  57 0 0  57.75 0 0  58.5 0 0  59.25 0 0  60 0 0  0 0.5 0  0.75 0.5 0  1.5 0.5 0  2.25 0.5 0  3 0.5 0  3.75 0.5 0  4.5 0.5 0  5.25 0.5 0  6 0.5 0  6.75 0.5 0  7.5 0.5 0  8.25 0.5 0  9 0.5 0  9.75 0.5 0  10.5 0.5 0  11.25 0.5 0  12 0.5 0  12.75 0.5 0  13.5 0.5 0  14.25 0.5 0  15 0.5 0  15.75 0.5 0  16.5 0.5 0  17.25 0.5 0  18 0.5 0  18.75 0.5 0  19.5 0.5 0  20.25 0.5 0  21 0.5 0  21.75 0.5 0  22.5 0.5 0  23.25 0.5 0  24 0.5 0  24.75 0.5 0  25.5 0.5 0  26.25 0.5 0  27 0.5 0  27.75 0.5 0  28.5 0.5 0  29.25 0.5 0  30 0.5 0  30.75 0.5 0  31.5 0.5 0  32.25 0.5 0  33 0.5 0  33.75 0.5 0  34.5 0.5 0  35.25 0.5 0  36 0.5 0  36.75 0.5 0  37.5 0.5 0  38.25 0.5 0  39 0.5 0  39.75 0.5 0  40.5 0.5 0  41.25 0.5 0  42 0.5 0  42.75 0.5 0  43.5 0.5 0  44.25 0.5 0  45 0.5 0  45.75 0.5 0  46.5 0.5 0  47.25 0.5 0  48 0.5 0  48.75 0.5 0  49.5 0.5 0  50.25 0.5 0  51 0.5 0  51.75 0.5 0  52.5 0.5 0  53.25 0.5 0  54 0.5 0  54.75 0.5 0  55.5 0.5 0  56.25 0.5 0  57 0.5 0  57.75 0.5 0  58.5 0.5 0  59.25 0.5 0  60 0.5 0  0 1 0  0.75 1 0  1.5 1 0  2.25 1 0  3 1 0  3.75 1 0  4.5 1 0  5.25 1 0  6 1 0  6.75 1 0  7.5 1 0  8.25 1 0  9 1 0  9.75 1 0  10.5 1 0  11.25 1 0  12 1 0  12.75 1 0  13.5 1 0  14.25 1 0  15 1 0  15.75 1 0  16.5 1 0  17.25 1 0  18 1 0  18.75 1 0  19.5 1 0  20.25 1 0  21 1 0  21.75 1 0  22.5 1 0  23.25 1 0  24 1 0  24.75 1 0  25.5 1 0  26.25 1 0  27 1 0  27.75 1 0  28.5 1 0  29.25 1 0  30 1 0  30.75 1 0  31.5 1 0  32.25 1 0  33 1 0  33.75 1 0  34.5 1 0  35.25 1 0  36 1 0  36.75 1 0  37.5 1 0  38.25 1 0  39 1 0  39.75 1 0  40.5 1 0  41.25 1 0  42 1 0  42.75 1 0  43.5 1 0  44.25 1 0  45 1 0  45.75 1 0  46.5 1 0  47.25 1 0  48 1 0  48.75 1 0  49.5 1 0  50.25 1 0  51 1 0  51.75 1 0  52.5 1 0  53.25 1 0  54 1 0  54.75 1 0  55.5 1 0  56.25 1 0  57 1 0  57.75 1 0  58.5 1 0  59.25 1 0  60 1 0  0 1.5 0  0.75 1.5 0  1.5 1.5 0  2.25 1.5 0  3 1.5 0  3.75 1.5 0  4.5 1.5 0  5.25 1.5 0  6 1.5 0  6.75 1.5 0  7.5 1.5 0  8.25 1.5 0  9 1.5 0  9.75 1.5 0  10.5 1.5 0  11.25 1.5 0  12 1.5 0  12.75 1.5 0  13.5 1.5 0  14.25 1.5 0  15 1.5 0  15.75 1.5 0  16.5 1.5 0  17.25 1.5 0  18 1.5 0  18.75 1.5 0  19.5 1.5 0  20.25 1.5 0  21 1.5 0  21.75 1.5 0  22.5 1.5 0  23.25 1.5 0  24 1.5 0  24.75 1.5 0  25.5 1.5 0  26.25 1.5 0  27 1.5 0  27.75 1.5 0  28.5 1.5 0  29.25 1.5 0  30 1.5 0  30.75 1.5 0  31.5 1.5 0  32.25 1.5 0  33 1.5 0  33.75 1.5 0  34.5 1.5 0  35.25 1.5 0  36 1.5 0  36.75 1.5 0  37.5 1.5 0  38.25 1.5 0  39 1.5 0  39.75 1.5 0  40.5 1.5 0  41.25 1.5 0  42 1.5 0  42.75 1.5 0  43.5 1.5 0  44.25 1.5 0  45 1.5 0  45.75 1.5 0  46.5 1.5 0  47.25 1.5 0  48 1.5 0  48.75 1.5 0  49.5 1.5 0  50.25 1.5 0  51 1.5 0  51.75 1.5 0  52.5 1.5 0  53.25 1.5 0  54 1.5 0  54.75 1.5 0  55.5 1.5 0  56.25 1.5 0  57 1.5 0  57.75 1.5 0  58.5 1.5 0  59.25 1.5 0  60 1.5 0  0 2 0  0.75 2 0  1.5 2 0  2.25 2 0  3 2 0  3.75 2 0  4.5 2 0  5.25 2 0  6 2 0  6.75 2 0  7.5 2 0  8.25 2 0  9 2 0  9.75 2 0  10.5 2 0  11.25 2 0  12 2 0  12.75 2 0  13.5 2 0  14.25 2 0  15 2 0  15.75 2 0  16.5 2 0  17.25 2 0  18 2 0  18.75 2 0  19.5 2 0  20.25 2 0  21 2 0  21.75 2 0  22.5 2 0  23.25 2 0  24 2 0  24.75 2 0  25.5 2 0  26.25 2 0  27 2 0  27.75 2 0  28.5 2 0  29.25 2 0  30 2 0  30.75 2 0  31.5 2 0  32.25 2 0  33 2 0  33.75 2 0  34.5 2 0  35.25 2 0  36 2 0  36.75 2 0  37.5 2 0  38.25 2 0  39 2 0  39.75 2 0  40.5 2 0  41.25 2 0  42 2 0  42.75 2 0  43.5 2 0  44.25 2 0  45 2 0  45.75 2 0  46.5 2 0  47.25 2 0  48 2 0  48.75 2 0  49.5 2 0  50.25 2 0  51 2 0  51.75 2 0  52.5 2 0  53.25 2 0  54 2 0  54.75 2 0  55.5 2 0  56.25 2 0  57 2 0  57.75 2 0  58.5 2 0  59.25 2 0  60 2 0  0 2.5 0  0.75 2.5 0  1.5 2.5 0  2.25 2.5 0  3 2.5 0  3.75 2.5 0  4.5 2.5 0  5.25 2.5 0  6 2.5 0  6.75 2.5 0  7.5 2.5 0  8.25 2.5 0  9 2.5 0  9.75 2.5 0  10.5 2.5 0  11.25 2.5 0  12 2.5 0  12.75 2.5 0  13.5 2.5 0  14.25 2.5 0  15 2.5 0  15.75 2.5 0  16.5 2.5 0  17.25 2.5 0  18 2.5 0  18.75 2.5 0  19.5 2.5 0  20.25 2.5 0  21 2.5 0  21.75 2.5 0  22.5 2.5 0  23.25 2.5 0  24 2.5 0  24.75 2.5 0  25.5 2.5 0  26.25 2.5 0  27 2.5 0  27.75 2.5 0  28.5 2.5 0  29.25 2.5 0  30 2.5 0  30.75 2.5 0  31.5 2.5 0  32.25 2.5 0  33 2.5 0  33.75 2.5 0  34.5 2.5 0  35.25 2.5 0  36 2.5 0  36.75 2.5 0  37.5 2.5 0  38.25 2.5 0  39 2.5 0  39.75 2.5 0  40.5 2.5 0  41.25 2.5 0  42 2.5 0  42.75 2.5 0  43.5 2.5 0  44.25 2.5 0  45 2.5 0  45.75 2.5 0  46.5 2.5 0  47.25 2.5 0  48 2.5 0  48.75 2.5 0  49.5 2.5 0  50.25 2.5 0  51 2.5 0  51.75 2.5 0  52.5 2.5 0  53.25 2.5 0  54 2.5 0  54.75 2.5 0  55.5 2.5 0  56.25 2.5 0  57 2.5 0  57.75 2.5 0  58.5 2.5 0  59.25 2.5 0  60 2.5 0  0 3 0  0.75 3 0  1.5 3 0  2.25 3 0  3 3 0  3.75 3 0  4.5 3 0  5.25 3 0  6 3 0  6.75 3 0  7.5 3 0  8.25 3 0  9 3 0  9.75 3 0  10.5 3 0  11.25 3 0  12 3 0  12.75 3 0  13.5 3 0  14.25 3 0  15 3 0  15.75 3 0  16.5 3 0  17.25 3 0  18 3 0  18.75 3 0  19.5 3 0  20.25 3 0  21 3 0  21.75 3 0  22.5 3 0  23.25 3 0  24 3 0  24.75 3 0  25.5 3 0  26.25 3 0  27 3 0  27.75 3 0  28.5 3 0  29.25 3 0  30 3 0  30.75 3 0  31.5 3 0  32.25 3 0  33 3 0  33.75 3 0  34.5 3 0  35.25 3 0  36 3 0  36.75 3 0  37.5 3 0  38.25 3 0  39 3 0  39.75 3 0  40.5 3 0  41.25 3 0  42 3 0  42.75 3 0  43.5 3 0  44.25 3 0  45 3 0  45.75 3 0  46.5 3 0  47.25 3 0  48 3 0  48.75 3 0  49.5 3 0  50.25 3 0  51 3 0  51.75 3 0  52.5 3 0  53.25 3 0  54 3 0  54.75 3 0  55.5 3 0  56.25 3 0  57 3 0  57.75 3 0  58.5 3 0  59.25 3 0  60 3 0  0 3.5 0  0.75 3.5 0  1.5 3.5 0  2.25 3.5 0  3 3.5 0  3.75 3.5 0  4.5 3.5 0  5.25 3.5 0  6 3.5 0  6.75 3.5 0  7.5 3.5 0  8.25 3.5 0  9 3.5 0  9.75 3.5 0  10.5 3.5 0  11.25 3.5 0  12 3.5 0  12.75 3.5 0  13.5 3.5 0  14.25 3.5 0  15 3.5 0  15.75 3.5 0  16.5 3.5 0  17.25 3.5 0  18 3.5 0  18.75 3.5 0  19.5 3.5 0  20.25 3.5 0  21 3.5 0  21.75 3.5 0  22.5 3.5 0  23.25 3.5 0  24 3.5 0  24.75 3.5 0  25.5 3.5 0  26.25 3.5 0  27 3.5 0  27.75 3.5 0  28.5 3.5 0  29.25 3.5 0  30 3.5 0  30.75 3.5 0  31.5 3.5 0  32.25 3.5 0  33 3.5 0  33.75 3.5 0  34.5 3.5 0  35.25 3.5 0  36 3.5 0  36.75 3.5 0  37.5 3.5 0  38.25 3.5 0  39 3.5 0  39.75 3.5 0  40.5 3.5 0  41.25 3.5 0  42 3.5 0  42.75 3.5 0  43.5 3.5 0  44.25 3.5 0  45 3.5 0  45.75 3.5 0  46.5 3.5 0  47.25 3.5 0  48 3.5 0  48.75 3.5 0  49.5 3.5 0  50.25 3.5 0  51 3.5 0  51.75 3.5 0  52.5 3.5 0  53.25 3.5 0  54 3.5 0  54.75 3.5 0  55.5 3.5 0  56.25 3.5 0  57 3.5 0  57.75 3.5 0  58.5 3.5 0  59.25 3.5 0  60 3.5 0  0 4 0  0.75 4 0  1.5 4 0  2.25 4 0  3 4 0  3.75 4 0  4.5 4 0  5.25 4 0  6 4 0  6.75 4 0  7.5 4 0  8.25 4 0  9 4 0  9.75 4 0  10.5 4 0  11.25 4 0  12 4 0  12.75 4 0  13.5 4 0  14.25 4 0  15 4 0  15.75 4 0  16.5 4 0  17.25 4 0  18 4 0  18.75 4 0  19.5 4 0  20.25 4 0  21 4 0  21.75 4 0  22.5 4 0  23.25 4 0  24 4 0  24.75 4 0  25.5 4 0  26.25 4 0  27 4 0  27.75 4 0  28.5 4 0  29.25 4 0  30 4 0  30.75 4 0  31.5 4 0  32.25 4 0  33 4 0  33.75 4 0  34.5 4 0  35.25 4 0  36 4 0  36.75 4 0  37.5 4 0  38.25 4 0  39 4 0  39.75 4 0  40.5 4 0  41.25 4 0  42 4 0  42.75 4 0  43.5 4 0  44.25 4 0  45 4 0  45.75 4 0  46.5 4 0  47.25 4 0  48 4 0  48.75 4 0  49.5 4 0  50.25 4 0  51 4 0  51.75 4 0  52.5 4 0  53.25 4 0  54 4 0  54.75 4 0  55.5 4 0  56.25 4 0  57 4 0  57.75 4 0  58.5 4 0  59.25 4 0  60 4 0  0.375 0.25 0  1.125 0.25 0  1.875 0.25 0  2.625 0.25 0  3.375 0.25 0  4.125 0.25 0  4.875 0.25 0  5.625 0.25 0  6.375 0.25 0  7.125 0.25 0  7.875 0.25 0  8.625 0.25 0  9.375 0.25 0  10.125 0.25 0  10.875 0.25 0  11.625 0.25 0  12.375 0.25 0  13.125 0.25 0  13.875 0.25 0  14.625 0.25 0  15.375 0.25 0  16.125 0.25 0  16.875 0.25 0  17.625 0.25 0  18.375 0.25 0  19.125 0.25 0  19.875 0.25 0  20.625 0.25 0  21.375 0.25 0  22.125 0.25 0  22.875 0.25 0  23.625 0.25 0  24.375 0.25 0  25.125 0.25 0  25.875 0.25 0  26.625 0.25 0  27.375 0.25 0  28.125 0.25 0  28.875 0.25 0  29.625 0.25 0  30.375 0.25 0  31.125 0.25 0  31.875 0.25 0  32.625 0.25 0  33.375 0.25 0  34.125 0.25 0  34.875 0.25 0  35.625 0.25 0  36.375 0.25 0  37.125 0.25 0  37.875 0.25 0  38.625 0.25 0  39.375 0.25 0  40.125 0.25 0  40.875 0.25 0  41.625 0.25 0  42.375 0.25 0  43.125 0.25 0  43.875 0.25 0  44.625 0.25 0  45.375 0.25 0  46.125 0.25 0  46.875 0.25 0  47.625 0.25 0  48.375 0.25 0  49.125 0.25 0  49.875 0.25 0  50.625 0.25 0  51.375 0.25 0  52.125 0.25 0  52.875 0.25 0  53.625 0.25 0  54.375 0.25 0  55.125 0.25 0  55.875 0.25 0  56.625 0.25 0  57.375 0.25 0  58.125 0.25 0  58.875 0.25 0  59.625 0.25 0  0.375 0.75 0  1.125 0.75 0  1.875 0.75 0  2.625 0.75 0  3.375 0.75 0  4.125 0.75 0  4.875 0.75 0  5.625 0.75 0  6.375 0.75 0  7.125 0.75 0  7.875 0.75 0  8.625 0.75 0  9.375 0.75 0  10.125 0.75 0  10.875 0.75 0  11.625 0.75 0  12.375 0.75 0  13.125 0.75 0  13.875 0.75 0  14.625 0.75 0  15.375 0.75 0  16.125 0.75 0  16.875 0.75 0  17.625 0.75 0  18.375 0.75 0  19.125 0.75 0  19.875 0.75 0  20.625 0.75 0  21.375 0.75 0  22.125 0.75 0  22.875 0.75 0  23.625 0.75 0  24.375 0.75 0  25.125 0.75 0  25.875 0.75 0  26.625 0.75 0  27.375 0.75 0  28.125 0.75 0  28.875 0.75 0  29.625 0.75 0  30.375 0.75 0  31.125 0.75 0  31.875 0.75 0  32.625 0.75 0  33.375 0.75 0  34.125 0.75 0  34.875 0.75 0  35.625 0.75 0  36.375 0.75 0  37.125 0.75 0  37.875 0.75 0  38.625 0.75 0  39.375 0.75 0  40.125 0.75 0  40
[...]
<PointData  Vectors="f_8-0"> 
<DataArray  type="Float64"  Name="f_8-0"  NumberOfComponents="3" format="ascii">0.0000000000000000e+00 0.0000000000000000e+00 0.0000000000000000e+00  0.0000000000000000e+00 0.0000000000000000e+00 0.0000000000000000e+00  0.0000000000000000e+00 0.0000000000000000e+00 0.0000000000000000e+00  0.0000000000000000e+00 0.0000000000000000e+00 0.0000000000000000e+00  0.0000000000000000e+00 0.0000000000000000e+00 0.0000000000000000e+00  0.0000000000000000e+00 0.0000000000000000e+00 0.0000000000000000e+00  0.0000000000000000e+00 0.0000000000000000e+00 0.0000000000000000e+00  0.0000000000000000e+00 0.0000000000000000e+00 0.0000000000000000e+00  0.0000000000000000e+00 0.0000000000000000e+00 0.0000000000000000e+00  0.0000000000000000e+00 0.0000000000000000e+00 0.0000000000000000e+00  0.0000000000000000e+00 0.0000000000000000e+00 0.0000000000000000e+00  0.0000000000000000e+00 0.0000000000000000e+00 0.0000000000000000e+00  0.0000000000000000e+00 0.0000000000000000e+00 0.0000000000000000e+00  0.0000000000000000e+00 0.0000000000000000e+00 0.0000000000000000e+00  0.0000000000000000e+00 0.0000000000000000e+00 0.0000000000000000e+00  0.0000000000000000e+00 0.0000000000000000e+00 0.0000000000000000e+00  0.0000000000000000e+00 0.0000000000000000e+00 0.0000000000000000e+00  0.0000000000000000e+00 0.0000000000000000e+00 0.0000000000000000e+00  0.0000000000000000e+00 0.0000000000000000e+00 0.0000000000000000e+00  0.0000000000000000e+00 0.0000000000000000e+00 0.0000000000000000e+00  0.0000000000000000e+00 0.0000000000000000e+00 0.0000000000000000e+00  0.0000000000000000e+00 0.0000000000000000e+00 0.0000000000000000e+00  0.0000000000000000e+00 0.0000000000000000e+00 0.0000000000000000e+00  0.0000000000000000e+00 0.0000000000000000e+00 0.0000000000000000e+00  0.0000000000000000e+00 0.0000000000000000e+00 0.0000000000000000e+00  0.0000000000000000e+00 0.0000000000000000e+00 0.0000000000000000e+00  0.0000000000000000e+00 0.0000000000000000e+00 0.0000000000000000e+00  0.0000000000000000e+00 0.0000000000000000e+00 0.0000000000000000e+00  0.0000000000000000e+00 0.0000000000000000e+00 0.0000000000000000e+00  0.0000000000000000e+00 0.0000000000000000e+00 0.0000000000000000e+00  0.0000000000000000e+00 0.0000000000000000e+00 0.0000000000000000e+00  0.0000000000000000e+00 0.0000000000000000e+00 0.0000000000000000e+00  0.0000000000000000e+00 0.0000000000000000e+00 0.0000000000000000e+00  0.0000000000000000e+00 0.0000000000000000e+00 0.0000000000000000e+00  0.0000000000000000e+00 0.0000000000000000e+00 0.0000000000000000e+00  0.0000000000000000e+00 0.0000000000000000e+00 0.0000000000000000e+00  0.0000000000000000e+00 0.0000000000000000e+00 0.0000000000000000e+00  0.0000000000000000e+00 0.0000000000000000e+00 0.0000000000000000e+00  0.0000000000000000e+00 0.0000000000000000e+00 0.0000000000000000e+00  0.0000000000000000e+00 0.0000000000000000e+00 0.0000000000000000e+00  0.0000000000000000e+00 0.0000000000000000e+00 0.0000000000000000e+00  0.0000000000000000e+00 0.0000000000000000e+00 0.0000000000000000e+00  0.0000000000000000e+00 0.0000000000000000e+00 0.0000000000000000e+00  0.0000000000000000e+00 0.0000000000000000e+00 0.0000000000000000e+00  0.0000000000000000e+00 0.0000000000000000e+00 0.0000000000000000e+00  0.0000000000000000e+00 0.0000000000000000e+00 0.0000000000000000e+00  0.0000000000000000e+00 0.0000000000000000e+00 0.0000000000000000e+00  0.0000000000000000e+00 0.0000000000000000e+00 0.0000000000000000e+00  0.0000000000000000e+00 0.0000000000000000e+00 0.0000000000000000e+00  0.0000000000000000e+00 0.0000000000000000e+00 0.0000000000000000e+00  0.0000000000000000e+00 0.0000000000000000e+00 0.0000000000000000e+00  0.0000000000000000e+00 0.0000000000000000e+00 0.0000000000000000e+00  0.0000000000000000e+00 0.0000000000000000e+00 0.0000000000000000e+00  0.0000000000000000e+00 0.0000000000000000e+00 0.0000000000000000e+00  0.0000000000000000e+00 0.0000000000000000e+00 0.0000000000000000e+00  0.0000000000000000e+00 0.0000000000000000e+00 0.0000000000000000e+00  0.0000000000000000e+00 0.0000000000000000e+00 0.0000000000000000e+00  0.0000000000000000e+00 0.0000000000000000e+00 0.0000000000000000e+00  0.0000000000000000e+00 0.0000000000000000e+00 0.0000000000000000e+00  0.0000000000000000e+00 0.0000000000000000e+00 0.0000000000000000e+00  0.0000000000000000e+00 0.0000000000000000e+00 0.0000000000000000e+00  0.0000000000000000e+00 0.0000000000000000e+00 0.0000000000000000e+00  0.0000000000000000e+00 0.0000000000000000e+00 0.0000000000000000e+00  0.0000000000000000e+00 0.0000000000000000e+00 0.0000000000000000e+00  0.0000000000000000e+00 0.0000000000000000e+00 0.0000000000000000e+00  0.0000000000000000e+00 0.0000000000000000e+00 0.0000000000000000e+00  0.0000000000000000e+00 0.0000000000000000e+00 0.0000000000000000e+00  0.0000000000000000e+00 0.0000000000000000e+00 0.0000000000000000e+00  0.0000000000000000e+00 0.0000000000000000e+00 0.0000000000000000e+00  0.0000000000000000e+00 0.0000000000000000e+00 0.0000000000000000e+00  0.0000000000000000e+00 0.0000000000000000e+00 0.0000000000000000e+00  0.0000000000000000e+00 0.0000000000000000e+00 0.0000000000000000e+00  0.0000000000000000e+00 0.0000000000000000e+00 0.0000000000000000e+00  0.0000000000000000e+00 0.0000000000000000e+00 0.0000000000000000e+00  0.0000000000000000e+00 0.0000000000000000e+00 0.0000000000000000e+00  0.0000000000000000e+00 0.0000000000000000e+00 0.0000000000000000e+00  0.0000000000000000e+00 0.0000000000000000e+00 0.0000000000000000e+00  0.0000000000000000e+00 0.0000000000000000e+00 0.0000000000000000e+00  0.0000000000000000e+00 0.0000000000000000e+00 0.0000000000000000e+00  0.0000000000000000e+00 0.0000000000000000e+00 0.0000000000000000e+00  0.0000000000000000e+00 0.0000000000000000e+00 0.0000000000000000e+00  2.4753505843731510e+01 0.0000000000000000e+00 0.0000000000000000e+00  2.4721850668504199e+01 8.9390140677489627e-02 0.0000000000000000e+00  2.4729282248799453e+01 3.2228609409564124e-02 0.0000000000000000e+00  2.4707743287572598e+01 5.7783224300084800e-03 0.0000000000000000e+00  2.4704183131505946e+01 5.7168234450345225e-03 0.0000000000000000e+00  2.4707346950883572e+01 4.9247618792865634e-03 0.0000000000000000e+00  2.4706459112513713e+01 5.2364933107155922e-03 0.0000000000000000e+00  2.4708386291389068e+01 5.2437566228601675e-03 0.0000000000000000e+00  2.4708568984150361e+01 5.2931135300966900e-03 0.0000000000000000e+00  2.4709498116349685e+01 5.3388810825785969e-03 0.0000000000000000e+00  2.4709910923753259e+01 5.3860592094724614e-03 0.0000000000000000e+00  2.4710391529521875e+01 5.4219568140697616e-03 0.0000000000000000e+00  2.4710715668371563e+01 5.4494868002037712e-03 0.0000000000000000e+00  2.4711011452436619e+01 5.4641246259431453e-03 0.0000000000000000e+00  2.4711269413987537e+01 5.4672519295383233e-03 0.0000000000000000e+00  2.4711532861798819e+01 5.4611756366502763e-03 0.0000000000000000e+00  2.4711813489348547e+01 5.4518227830687863e-03 0.0000000000000000e+00  2.4712117809094565e+01 5.4429714985133491e-03 0.0000000000000000e+00  2.4712442636315433e+01 5.4355635332402419e-03 0.0000000000000000e+00  2.4712784966406510e+01 5.4294331450638368e-03 0.0000000000000000e+00  2.4713140451400356e+01 5.4260326968293068e-03 0.0000000000000000e+00  2.4713499183593651e+01 5.4287551851611073e-03 0.0000000000000000e+00  2.4713842180649998e+01 5.4411329442783929e-03 0.0000000000000000e+00  2.4714143307603507e+01 5.4646223277376484e-03 0.0000000000000000e+00  2.4714375644288221e+01 5.4975992515122708e-03 0.0000000000000000e+00  2.4714518882708379e+01 5.5359220067360913e-03 0.0000000000000000e+00  2.4714564309360359e+01 5.5744293530515226e-03 0.0000000000000000e+00  2.4714515892952299e+01 5.6084838288160332e-03 0.0000000000000000e+00  2.4714387969372972e+01 5.6349629168191261e-03 0.0000000000000000e+00  2.4714201090211287e+01 5.6525500703636950e-03 0.0000000000000000e+00  2.4713977661349677e+01 5.6614871458378320e-03 0.0000000000000000e+00  2.4713738472086245e+01 5.6630616208455681e-03 0.0000000000000000e+00  2.4713500559061590e+01 5.6590626944732205e-03 0.0000000000000000e+00  2.4713276346818553e+01 5.6513462819152063e-03 0.0000000000000000e+00  2.4713073742906325e+01 5.6415564288074451e-03 0.0000000000000000e+00  2.4712896801620772e+01 5.6309919229796217e-03 0.0000000000000000e+00  2.4712746625482612e+01 5.6205794894565817e-03 0.0000000000000000e+00  2.4712622274307535e+01 5.6109114125764631e-03 0.0000000000000000e+00  2.4712521551545944e+01 5.6023125005549672e-03 0.0000000000000000e+00  2.4712441615804732e+01 5.5949126515170500e-03 0.0000000000000000e+00  2.4712379415858994e+01 5.5887114910886737e-03 0.0000000000000000e+00  2.4712331974021659e+01 5.5836298155285515e-03 0.0000000000000000e+00  2.4712296551883473e+01 5.5795471806987683e-03 0.0000000000000000e+00  2.4712270731598096e+01 5.5763276083542115e-03 0.0000000000000000e+00  2.4712252440560007e+01 5.5738357902329850e-03 0.0000000000000000e+00  2.4712239941405219e+01 5.5719461863210258e-03 0.0000000000000000e+00  2.4712231803491225e+01 5.5705470709192699e-03 0.0000000000000000e+00  2.4712226867065521e+01 5.5695413665675072e-03 0.0000000000000000e+00  2.4712224206834797e+01 5.5688457783547394e-03 0.0000000000000000e+00  2.4712223098252458e+01 5.5683893694764772e-03 0.0000000000000000e+00  2.4712222987311179e+01 5.5681122381958867e-03 0.0000000000000000e+00  2.4712223463366918e+01 5.5679645188672234e-03 0.0000000000000000e+00  2.4712224234236587e+01 5.5679056538905092e-03 0.0000000000000000e+00  2.4712225103095172e+01 5.5679037061424916e-03 0.0000000000000000e+00  2.4712225947175320e+01 5.5679346135404581e-03 0.0000000000000000e+00  2.4712226698642240e+01 5.5679811641871496e-03 0.0000000000000000e+00  2.4712227328120626e+01 5.5680319583343548e-03 0.0000000000000000e+00  2.4712227831176754e+01 5.5680799955940144e-03 0.0000000000000000e+00  2.4712228217926295e+01 5.5681218144688922e-03 0.0000000000000000e+00  2.4712228505539333e+01 5.5681559032059319e-03 0.0000000000000000e+00  2.4712228713199874e+01 5.5681826669284366e-03 0.0000000000000000e+00  2.4712228859209986e+01 5.5682025095785933e-03 0.0000000000000000e+00  2.4712228959445959e+01 5.5682171184165434e-03 0.0000000000000000e+00  2.4712229027404486e+01 5.5682263688413723e-03 0.0000000000000000e+00  2.4712229075931951e+01 5.5682304958087330e-03 0.0000000000000000e+00  2.4712229121347637e+01 5.5682260655279094e-03 0.0000000000000000e+00  2.4712229187568770e+01 5.5682152172152194e-03 0.0000000000000000e+00  2.4712229263132393e+01 5.5682632381011642e-03 0.0000000000000000e+00  2.4712229055066583e+01 5.5686341478576942e-03 0.0000000000000000e+00  2.4712227209280368e+01 5.5699995434482117e-03 0.0000000000000000e+00  2.4712221202254280e+01 5.5716655437480622e-03 0.0000000000000000e+00  2.4712215688183395e+01 5.5656767089778889e-03 0.0000000000000000e+00  2.4712247401768984e+01 5.5350498501562755e-03 0.0000000000000000e+00  2.4712363019961156e+01 5.5138108542261456e-03 0.0000000000000000e+00  2.4712434424097996e+01 5.6160499501496357e-03 0.0000000000000000e+00  2.4712233294946977e+01 5.7607296160344370e-03 0.0000000000000000e+00  2.4711899937835057e+01 5.8191515086378478e-03 0.0000000000000000e+00  2.4710950907211735e+01 6.3153537440020458e-03 0.0000000000000000e+00  2.4706624146673004e+01 6.8542646313625166e-03 0.0000000000000000e+00  2.4689070311186509e+01 3.9106707108596843e-03 0.0000000000000000e+00  2.4663218976053564e+01 0.0000000000000000e+00 0.0000000000000000e+00  2.6469211080520598e+01 0.0000000000000000e+00 0.0000000000000000e+00  2.6390548984608813e+01 -2.0324230061616644e-02 0.0000000000000000e+00  2.6451027191472257e+01 1.3917315680179480e-02 0.0000000000000000e+00  2.6455733658520799e+01 6.3938894843729199e-04 0.0000000000000000e+00  2.6460854830495972e+01 -9.0747744949696944e-04 0.0000000000000000e+00  2.6459099214712879e+01 -2.4462611339803085e-03 0.0000000000000000e+00  2.6460547440093990e+01 -1.6421902312756325e-03 0.0000000000000000e+00  2.6460357893946700e+01 -1.9733479965280891e-03 0.0000000000000000e+00  2.6461074209428368e+01 -1.6929313759881405e-03 0.0000000000000000e+00  2.6461234113096072e+01 -1.6541386035240353e-03 0.0000000000000000e+00  2.6461579653644030e+01 -1.5103340681753006e-03 0.0000000000000000e+00  2.6461756621282255e+01 -1.4275417038234178e-03 0.0000000000000000e+00  2.6461944935798517e+01 -1.3548847047061582e-03 0.0000000000000000e+00  2.6462085471041615e+01 -1.3161337522724344e-03 0.0000000000000000e+00  2.6462224525569805e+01 -1.3060108647669959e-03 0.0000000000000000e+00  2.6462364059168479e+01 -1.3197039860043534e-03 0.0000000000000000e+00  2.6462516859270838e+01 -1.3426858644526329e-03 0.0000000000000000e+00  2.6462681727739778e+01 -1.3647090227862358e-03 0.0000000000000000e+00  2.6462857065585300e+01 -1.3830796207509731e-03 0.0000000000000000e+00  2.6463040594313593e+01 -1.3982431378720772e-03 0.0000000000000000e+00  2.6463229995682180e+01 -1.4070127404006729e-03 0.0000000000000000e+00  2.6463419452359098e+01 -1.4011904796233643e-03 0.0000000000000000e+00  2.6463598220844823e+01 -1.3718350123187693e-03 0.0000000000000000e+00  2.6463752062774159e+01 -1.3148254094200835e-03 0.0000000000000000e+00  2.6463867017643448e+01 -1.2336384591880569e-03 0.0000000000000000e+00  2.6463933278105809e+01 -1.1382062159006937e-03 0.0000000000000000e+00  2.6463947496519850e+01 -1.0413095443050475e-03 0.0000000000000000e+00  2.6463912954132834e+01 -9.5470464483292763e-04 0.0000000000000000e+00  2.6463838054512880e+01 -8.8653375487682685e-04 0.0000000000000000e+00  2.6463734033193077e+01 -8.4046418343332568e-04 0.0000000000000000e+00  2.6463612709097223e+01 -8.1620571244385431e-04 0.0000000000000000e+00  2.6463484783045377e+01 -8.1074200886636666e-04 0.0000000000000000e+00  2.6463358850081143e+01 -8.1968561485771467e-04 0.0000000000000000e+00  2.6463241055380607e+01 -8.3838873385256056e-04 0.0000000000000000e+00  2.6463135211292069e+01 -8.6267369208303519e-04 0.0000000000000000e+00  2.6463043176763598e+01 -8.8919846483120684e-04 0.0000000000000000e+00  2.6462965336161410e+01 -9.1554794911011662e-04 0.0000000000000000e+00  2.6462901067791233e+01 -9.4015481236475555e-04 0.0000000000000000e+00  2.6462849142265469e+01 -9.6213876298842447e-04 0.0000000000000000e+00  2.6462808028569881e+01 -9.8112634629274570e-04 0.0000000000000000e+00  2.6462776109782130e+01 -9.9708706751737821e-04 0.0000000000000000e+00  2.6462751822244208e+01 -1.0102013686182196e-03 0.0000000000000000e+00  2.6462733735991407e+01 -1.0207627977975348e-03 0.0000000000000000e+00  2.6462720593114902e+01 -1.0291105686650287e-03 0.0000000000000000e+00  2.6462711318118572e+01 -1.0355863261152312e-03 0.0000000000000000e+00  2.6462705011218375e+01 -1.0405094762474738e-03 0.0000000000000000e+00  2.6462700932724196e+01 -1.0441656341586298e-03 0.0000000000000000e+00  2.6462698484034117e+01 -1.0468037495915867e-03 0.0000000000000000e+00  2.6462697188604910e+01 -1.0486377753394101e-03 0.0000000000000000e+00  2.6462696674382435e+01 -1.0498500932014110e-03 0.0000000000000000e+00  2.6462696658012796e+01 -1.0505948526124771e-03 0.0000000000000000e+00  2.6462696930573177e+01 -1.0510005404163699e-03 0.0000000000000000e+00  2.6462697344407569e+01 -1.0511719220371309e-03 0.0000000000000000e+00  2.6462697800924918e+01 -1.0511917273657609e-03 0.0000000000000000e+00  2.6462698239362403e+01 -1.0511226232101608e-03 0.0000000000000000e+00  2.6462698626822732e+01 -1.0510096705079253e-03 0.0000000000000000e+00  2.6462698949665565e+01 -1.0508831216084283e-03 0.0000000000000000e+00  2.6462699206677211e+01 -1.0507615981370730e-03 0.0000000000000000e+00  2.6462699403682613e+01 -1.0506548822416134e-03 0.0000000000000000e+00  2.6462699549874987e+01 -1.0505670528114211e-03 0.0000000000000000e+00  2.6462699655314889e+01 -1.0504979130656691e-03 0.0000000000000000e+00  2.6462699729340308e+01 -1.0504460233763929e-03 0.0000000000000000e+00  2.6462699780270381e+01 -1.0504078765075000e-03 0.0000000000000000e+00  2.6462699814016634e+01 -1.0503823322003953e-03 0.0000000000000000e+00  2.6462699836854249e+01 -1.0503682797671900e-03 0.0000000000000000e+00  2.6462699851235065e+01 -1.0503743102399034e-03 0.0000000000000000e+00  2.6462699876108260e+01 -1.0504048750288068e-03 0.0000000000000000e+00  2.6462699936425498e+01 -1.0503857035418485e-03 0.0000000000000000e+00  2.6462700101250064e+01 -1.0498083369929990e-03 0.0000000000000000e+00  2.6462700050617645e+01 -1.0471991597753119e-03 0.0000000000000000e+00  2.6462698487838104e+01 -1.0426144318229492e-03 0.0000000000000000e+00  2.6462694896216007e+01 -1.0519282084969343e-03 0.0000000000000000e+00  2.6462703626179866e+01 -1.1167412437062332e-03 0.0000000000000000e+00  2.6462746396068777e+01 -1.1775838713180230e-03 0.0000000000000000e+00  2.6462756964834316e+01 -9.7003164970472741e-04 0.0000000000000000e+00  2.6462709789320705e+01 -7.2808624844035441e-04 0.0000000000000000e+00  2.6462940091109274e+01 -7.6061844071192942e-04 0.0000000000000000e+00  2.6463251094770833e+01 4.9856938135673095e-04 0.0000000000000000e+00  2.6462582805359602e+01 4.0253625284561358e-03 0.0000000000000000e+00  2.6461232874644583e+01 1.0233230374767539e-02 0.0000000000000000e+00  2.6464573756894861e+01 0.0000000000000000e+00 0.0000000000000000e+00  2.6287770442260499e+01 0.0000000000000000e+00 0.0000000000000000e+00  2.6292737025661815e+01 3.6773445533810345e-03 0.0000000000000000e+00  2.6293119461426677e+01 -3.9006310075568903e-03 0.0000000000000000e+00  2.6298338138149823e+01 1.5174887677969786e-04 0.0000000000000000e+00  2.6296156795356328e+01 -2.7281893794973166e-03 0.0000000000000000e+00  2.6296926322384792e+01 -2.2901184962115899e-03 0.0000000000000000e+00  2.6295408560302732e+01 -2.6318369196710843e-03 0.0000000000000000e+00  2.6295081901700009e+01 -2.3965657512342690e-03 0.0000000000000000e+00  2.6294235233228495e+01 -2.3903384836102297e-03 0.0000000000000000e+00  2.6293768531935012e+01 -2.2448482019594021e-03 0.0000000000000000e+00  2.6293263075527349e+01 -2.1612038089358801e-03 0.0000000000000000e+00  2.6292914189643344e+01 -2.0734039241309373e-03 0.0000000000000000e+00  2.6292608576913846e+01 -2.0183659471240869e-03 0.0000000000000000e+00  2.6292365377493820e+01 -1.9853363961004678e-03 0.0000000000000000e+00  2.6292140353135270e+01 -1.9805693183738240e-03 0.0000000000000000e+00  2.6291916691897800e+01 -1.9949780406357353e-03 0.0000000000000000e+00  2.6291676013654037e+01 -2.0164738779681877e-03 0.0000000000000000e+00  2.6291415776243596e+01 -2.0359636658695865e-03 0.0000000000000000e+00  2.6291137679814039e+01 -2.0518761918667350e-03 0.0000000000000000e+00  2.6290844698434082e+01 -2.0646795902456412e-03 0.0000000000000000e+00  2.6290540158578633e+01 -2.0710931111729961e-03 0.0000000000000000e+00  2.6290232288499336e+01 -2.0634172537397927e-03 0.0000000000000000e+00  2.6289937128534053e+01 -2.0338506258185001e-03 0.0000000000000000e+00  2.6289677095711792e+01 -1.9794284880869399e-03 0.0000000000000000e+00  2.6289475475052910e+01 -1.9041168251721712e-03 0.0000000000000000e+00  2.6289350004572505e+01 -1.8173901597657324e-03 0.0000000000000000e+00  2.6289308494163411e+01 -1.7308234810073059e-03 0.0000000000000000e+00  2.6289347815038571e+01 -1.6546810889659762e-03 0.0000000000000000e+00  2.6289455843792449e+01 -1.5957816251081993e-03 0.0000000000000000e+00  2.6289615018465405e+01 -1.5569163302557936e-03 0.0000000000000000e+00  2.6289806098151235e+01 -1.5374371654393087e-03 0.0000000000000000e+00  2.6290011169610079e+01 -1.5344069132099600e-03 0.0000000000000000e+00  2.6290215509313043e+01 -1.5438024963903120e-03 0.0000000000000000e+00  2.6290408344797491e+01 -1.5614712022462768e-03 0.0000000000000000e+00  2.6290582789261737e+01 -1.5837410275195011e-03 0.0000000000000000e+00  2.6290735280748706e+01 -1.6077119377317396e-03 0.0000000000000000e+00  2.6290864811393376e+01 -1.6313134878505231e-03 0.0000000000000000e+00  2.6290972146252944e+01 -1.6532209240194850e-03 0.0000000000000000e+00  2.6291059145289914e+01 -1.6727065586364888e-03 0.0000000000000000e+00  2.6291128234714829e+01 -1.68947876494728