<?xml version="1.0"?>
<VTKFile type="UnstructuredGrid"  version="0.1"  >
<UnstructuredGrid>
<Piece  NumberOfPoints="1369" NumberOfCells="2560">
<Points>
<DataArray  type="Float64"  NumberOfComponents="3"  format="ascii">0 0 0  0.75 0 0  1.5 0 0  2.25 0 0  3 0 0  3.75 0 0  4.5 0 0  5.25 0 0  6 0 0  6.75 0 0  7.5 0 0  8.25 0 0  9 0 0  9.75 0 0  10.5 0 0  11.25 0 0  12 0 0  12.75 0 0  13.5 0 0  14.25 0 0  15 0 0  15.75 0 0  16.5 0 0  17.25 0 0  18 0 0  18.75 0 0  19.5 0 0  20.25 0 0  21 0 0  21.75 0 0  22.5 0 0  23.25 0 0  24 0 0  24.75 0 0  25.5 0 0  26.25 0 0  27 0 0  27.75 0 0  28.5 0 0  29.25 0 0  30 0 0  30.75 0 0  31.5 0 0  32.25 0 0  33 0 0  33.75 0 0  34.5 0 0  35.25 0 0  36 0 0  36.75 0 0  37.5 0 0  38.25 0 0  39 0 0  39.75 0 0  40.5 0 0  41.25 0 0  42 0 0  42.75 0 0  43.5 0 0  44.25 0 0  45 0 0  45.75 0 0  46.5 0 0  47.25 0 0  48 0 0  48.75 0 0  49.5 0 0  50.25 0 0  51 0 0  51.75 0 0  52.5 0 0  53.25 0 0  54 0 0  54.75 0 0  55.5 0 0  56.25 0 0  57 0 0  57.75 0 0  58.5 0 0  59.25 0 0  60 0 0  0 0.5 0  0.75 0.5 0  1.5 0.5 0  2.25 0.5 0  3 0.5 0  3.75 0.5 0  4.5 0.5 0  5.25 0.5 0  6 0.5 0  6.75 0.5 0  7.5 0.5 0  8.25 0.5 0  9 0.5 0  9.75 0.5 0  10.5 0.5 0  11.25 0.5 0  12 0.5 0  12.75 0.5 0  13.5 0.5 0  14.25 0.5 0  15 0.5 0  15.75 0.5 0  16.5 0.5 0  17.25 0.5 0  18 0.5 0  18.75 0.5 0  19.5 0.5 0  20.25 0.5 0  21 0.5 0  21.75 0.5 0  22.5 0.5 0  23.25 0.5 0  24 0.5 0  24.75 0.5 0  25.5 0.5 0  26.25 0.5 0  27 0.5 0  27.75 0.5 0  28.5 0.5 0  29.25 0.5 0  30 0.5 0  30.75 0.5 0  31.5 0.5 0  32.25 0.5 0  33 0.5 0  33.75 0.5 0  34.5 0.5 0  35.25 0.5 0  36 0.5 0  36.75 0.5 0  37.5 0.5 0  38.25 0.5 0  39 0.5 0  39.75 0.5 0  40.5 0.5 0  41.25 0.5 0  42 0.5 0  42.75 0.5 0  43.5 0.5 0  44.25 0.5 0  45 0.5 0  45.75 0.5 0  46.5 0.5 0  47.25 0.5 0  48 0.5 0  48.75 0.5 0  49.5 0.5 0  50.25 0.5 0  51 0.5 0  51.75 0.5 0  52.5 0.5 0  53.25 0.5 0  54 0.5 0  54.75 0.5 0  55.5 0.5 0  56.25 0.5 0  57 0.5 0  57.75 0.5 0  58.5 0.5 0  59.25 0.5 0  60 0.5 0  0 1 0  0.75 1 0  1.5 1 0  2.25 1 0  3 1 0  3.75 1 0  4.5 1 0  5.25 1 0  6 1 0  6.75 1 0  7.5 1 0  8.25 1 0  9 1 0  9.75 1 0  10.5 1 0  11.25 1 0  12 1 0  12.75 1 0  13.5 1 0  14.25 1 0  15 1 0  15.75 1 0  16.5 1 0  17.25 1 0  18 1 0  18.75 1 0  19.5 1 0  20.25 1 0  21 1 0  21.75 1 0  22.5 1 0  23.25 1 0  24 1 0  24.75 1 0  25.5 1 0  26.25 1 0  27 1 0  27.75 1 0  28.5 1 0  29.25 1 0  30 1 0  30.75 1 0  31.5 1 0  32.25 1 0  33 1 0  33.75 1 0  34.5 1 0  35.25 1 0  36 1 0  36.75 1 0  37.5 1 0  38.25 1 0  39 1 0  39.75 1 0  40.5 1 0  41.25 1 0  42 1 0  42.75 1 0  43.5 1 0  44.25 1 0  45 1 0  45.75 1 0  46.5 1 0  47.25 1 0  48 1 0  48.75 1 0  49.5 1 0  50.25 1 0  51 1 0  51.75 1 0  52.5 1 0  53.25 1 0  54 1 0  54.75 1 0  55.5 1 0  56.25 1 0  57 1 0  57.75 1 0  58.5 1 0  59.25 1 0  60 1 0  0 1.5 0  0.75 1.5 0  1.5 1.5 0  2.25 1.5 0  3 1.5 0  3.75 1.5 0  4.5 1.5 0  5.25 1.5 0  6 1.5 0  6.75 1.5 0  7.5 1.5 0  8.25 1.5 0  9 1.5 0  9.75 1.5 0  10.5 1.5 0  11.25 1.5 0  12 1.5 0  12.75 1.5 0  13.5 1.5 0  14.25 1.5 0  15 1.5 0  15.75 1.5 0  16.5 1.5 0  17.25 1.5 0  18 1.5 0  18.75 1.5 0  19.5 1.5 0  20.25 1.5 0  21 1.5 0  21.75 1.5 0  22.5 1.5 0  23.25 1.5 0  24 1.5 0  24.75 1.5 0  25.5 1.5 0  26.25 1.5 0  27 1.5 0  27.75 1.5 0  28.5 1.5 0  29.25 1.5 0  30 1.5 0  30.75 1.5 0  31.5 1.5 0  32.25 1.5 0  33 1.5 0  33.75 1.5 0  34.5 1.5 0  35.25 1.5 0  36 1.5 0  36.75 1.5 0  37.5 1.5 0  38.25 1.5 0  39 1.5 0  39.75 1.5 0  40.5 1.5 0  41.25 1.5 0  42 1.5 0  42.75 1.5 0  43.5 1.5 0  44.25 1.5 0  45 1.5 0  45.75 1.5 0  46.5 1.5 0  47.25 1.5 0  48 1.5 0  48.75 1.5 0  49.5 1.5 0  50.25 1.5 0  51 1.5 0  51.75 1.5 0  52.5 1.5 0  53.25 1.5 0  54 1.5 0  54.75 1.5 0  55.5 1.5 0  56.25 1.5 0  57 1.5 0  57.75 1.5 0  58.5 1.5 0  59.25 1.5 0  60 1.5 0  0 2 0  0.75 2 0  1.5 2 0  2.25 2 0  3 2 0  3.75 2 0  4.5 2 0  5.25 2 0  6 2 0  6.75 2 0  7.5 2 0  8.25 2 0  9 2 0  9.75 2 0  10.5 2 0  11.25 2 0  12 2 0  12.75 2 0  13.5 2 0  14.25 2 0  15 2 0  15.75 2 0  16.5 2 0  17.25 2 0  18 2 0  18.75 2 0  19.5 2 0  20.25 2 0  21 2 0  21.75 2 0  22.5 2 0  23.25 2 0  24 2 0  24.75 2 0  25.5 2 0  26.25 2 0  27 2 0  27.75 2 0  28.5 2 0  29.25 2 0  30 2 0  30.75 2 0  31.5 2 0  32.25 2 0  33 2 0  33.75 2 0  34.5 2 0  35.25 2 0  36 2 0  36.75 2 0  37.5 2 0  38.25 2 0  39 2 0  39.75 2 0  40.5 2 0  41.25 2 0  42 2 0  42.75 2 0  43.5 2 0  44.25 2 0  45 2 0  45.75 2 0  46.5 2 0  47.25 2 0  48 2 0  48.75 2 0  49.5 2 0  50.25 2 0  51 2 0  51.75 2 0  52.5 2 0  53.25 2 0  54 2 0  54.75 2 0  55.5 2 0  56.25 2 0  57 2 0  57.75 2 0  58.5 2 0  59.25 2 0  60 2 0  0 2.5 0  0.75 2.5 0  1.5 2.5 0  2.25 2.5 0  3 2.5 0  3.75 2.5 0  4.5 2.5 0  5.25 2.5 0  6 2.5 0  6.75 2.5 0  7.5 2.5 0  8.25 2.5 0  9 2.5 0  9.75 2.5 0  10.5 2.5 0  11.25 2.5 0  12 2.5 0  12.75 2.5 0  13.5 2.5 0  14.25 2.5 0  15 2.5 0  15.75 2.5 0  16.5 2.5 0  17.25 2.5 0  18 2.5 0  18.75 2.5 0  19.5 2.5 0  20.25 2.5 0  21 2.5 0  21.75 2.5 0  22.5 2.5 0  23.25 2.5 0  24 2.5 0  24.75 2.5 0  25.5 2.5 0  26.25 2.5 0  27 2.5 0  27.75 2.5 0  28.5 2.5 0  29.25 2.5 0  30 2.5 0  30.75 2.5 0  31.5 2.5 0  32.25 2.5 0  33 2.5 0  33.75 2.5 0  34.5 2.5 0  35.25 2.5 0  36 2.5 0  36.75 2.5 0  37.5 2.5 0  38.25 2.5 0  39 2.5 0  39.75 2.5 0  40.5 2.5 0  41.25 2.5 0  42 2.5 0  42.75 2.5 0  43.5 2.5 0  44.25 2.5 0  45 2.5 0  45.75 2.5 0  46.5 2.5 0  47.25 2.5 0  48 2.5 0  48.75 2.5 0  49.5 2.5 0  50.25 2.5 0  51 2.5 0  51.75 2.5 0  52.5 2.5 0  53.25 2.5 0  54 2.5 0  54.75 2.5 0  55.5 2.5 0  56.25 2.5 0  57 2.5 0  57.75 2.5 0  58.5 2.5 0  59.25 2.5 0  60 2.5 0  0 3 0  0.75 3 0  1.5 3 0  2.25 3 0  3 3 0  3.75 3 0  4.5 3 0  5.25 3 0  6 3 0  6.75 3 0  7.5 3 0  8.25 3 0  9 3 0  9.75 3 0  10.5 3 0  11.25 3 0  12 3 0  12.75 3 0  13.5 3 0  14.25 3 0  15 3 0  15.75 3 0  16.5 3 0  17.25 3 0  18 3 0  18.75 3 0  19.5 3 0  20.25 3 0  21 3 0  21.75 3 0  22.5 3 0  23.25 3 0  24 3 0  24.75 3 0  25.5 3 0  26.25 3 0  27 3 0  27.75 3 0  28.5 3 0  29.25 3 0  30 3 0  30.75 3 0  31.5 3 0  32.25 3 0  33 3 0  33.75 3 0  34.5 3 0  35.25 3 0  36 3 0  36.75 3 0  37.5 3 0  38.25 3 0  39 3 0  39.75 3 0  40.5 3 0  41.25 3 0  42 3 0  42.75 3 0  43.5 3 0  44.25 3 0  45 3 0  45.75 3 0  46.5 3 0  47.25 3 0  48 3 0  48.75 3 0  49.5 3 0  50.25 3 0  51 3 0  51.75 3 0  52.5 3 0  53.25 3 0  54 3 0  54.75 3 0  55.5 3 0  56.25 3 0  57 3 0  57.75 3 0  58.5 3 0  59.25 3 0  60 3 0  0 3.5 0  0.75 3.5 0  1.5 3.5 0  2.25 3.5 0  3 3.5 0  3.75 3.5 0  4.5 3.5 0  5.25 3.5 0  6 3.5 0  6.75 3.5 0  7.5 3.5 0  8.25 3.5 0  9 3.5 0  9.75 3.5 0  10.5 3.5 0  11.25 3.5 0  12 3.5 0  12.75 3.5 0  13.5 3.5 0  14.25 3.5 0  15 3.5 0  15.75 3.5 0  16.5 3.5 0  17.25 3.5 0  18 3.5 0  18.75 3.5 0  19.5 3.5 0  20.25 3.5 0  21 3.5 0  21.75 3.5 0  22.5 3.5 0  23.25 3.5 0  24 3.5 0  24.75 3.5 0  25.5 3.5 0  26.25 3.5 0  27 3.5 0  27.75 3.5 0  28.5 3.5 0  29.25 3.5 0  30 3.5 0  30.75 3.5 0  31.5 3.5 0  32.25 3.5 0  33 3.5 0  33.75 3.5 0  34.5 3.5 0  35.25 3.5 0  36 3.5 0  36.75 3.5 0  37.5 3.5 0  38.25 3.5 0  39 3.5 0  39.75 3.5 0  40.5 3.5 0  41.25 3.5 0  42 3.5 0  42.75 3.5 0  43.5 3.5 0  44.25 3.5 0  45 3.5 0  45.75 3.5 0  46.5 3.5 0  47.25 3.5 0  48 3.5 0  48.75 3.5 0  49.5 3.5 0  50.25 3.5 0  51 3.5 0  51.75 3.5 0  52.5 3.5 0  53.25 3.5 0  54 3.5 0  54.75 3.5 0  55.5 3.5 0  56.25 3.5 0  57 3.5 0  57.75 3.5 0  58.5 3.5 0  59.25 3.5 0  60 3.5 0  0 4 0  0.75 4 0  1.5 4 0  2.25 4 0  3 4 0  3.75 4 0  4.5 4 0  5.25 4 0  6 4 0  6.75 4 0  7.5 4 0  8.25 4 0  9 4 0  9.75 4 0  10.5 4 0  11.25 4 0  12 4 0  12.75 4 0  13.5 4 0  14.25 4 0  15 4 0  15.75 4 0  16.5 4 0  17.25 4 0  18 4 0  18.75 4 0  19.5 4 0  20.25 4 0  21 4 0  21.75 4 0  22.5 4 0  23.25 4 0  24 4 0  24.75 4 0  25.5 4 0  26.25 4 0  27 4 0  27.75 4 0  28.5 4 0  29.25 4 0  30 4 0  30.75 4 0  31.5 4 0  32.25 4 0  33 4 0  33.75 4 0  34.5 4 0  35.25 4 0  36 4 0  36.75 4 0  37.5 4 0  38.25 4 0  39 4 0  39.75 4 0  40.5 4 0  41.25 4 0  42 4 0  42.75 4 0  43.5 4 0  44.25 4 0  45 4 0  45.75 4 0  46.5 4 0  47.25 4 0  48 4 0  48.75 4 0  49.5 4 0  50.25 4 0  51 4 0  51.75 4 0  52.5 4 0  53.25 4 0  54 4 0  54.75 4 0  55.5 4 0  56.25 4 0  57 4 0  57.75 4 0  58.5 4 0  59.25 4 0  60 4 0  0.375 0.25 0  1.125 0.25 0  1.875 0.25 0  2.625 0.25 0  3.375 0.25 0  4.125 0.25 0  4.875 0.25 0  5.625 0.25 0  6.375 0.25 0  7.125 0.25 0  7.875 0.25 0  8.625 0.25 0  9.375 0.25 0  10.125 0.25 0  10.875 0.25 0  11.625 0.25 0  12.375 0.25 0  13.125 0.25 0  13.875 0.25 0  14.625 0.25 0  15.375 0.25 0  16.125 0.25 0  16.875 0.25 0  17.625 0.25 0  18.375 0.25 0  19.125 0.25 0  19.875 0.25 0  20.625 0.25 0  21.375 0.25 0  22.125 0.25 0  22.875 0.25 0  23.625 0.25 0  24.375 0.25 0  25.125 0.25 0  25.875 0.25 0  26.625 0.25 0  27.375 0.25 0  28.125 0.25 0  28.875 0.25 0  29.625 0.25 0  30.375 0.25 0  31.125 0.25 0  31.875 0.25 0  32.625 0.25 0  33.375 0.25 0  34.125 0.25 0  34.875 0.25 0  35.625 0.25 0  36.375 0.25 0  37.125 0.25 0  37.875 0.25 0  38.625 0.25 0  39.375 0.25 0  40.125 0.25 0  40.875 0.25 0  41.625 0.25 0  42.375 0.25 0  43.125 0.25 0  43.875 0.25 0  44.625 0.25 0  45.375 0.25 0  46.125 0.25 0  46.875 0.25 0  47.625 0.25 0  48.375 0.25 0  49.125 0.25 0  49.875 0.25 0  50.625 0.25 0  51.375 0.25 0  52.125 0.25 0  52.875 0.25 0  53.625 0.25 0  54.375 0.25 0  55.125 0.25 0  55.875 0.25 0  56.625 0.25 0  57.375 0.25 0  58.125 0.25 0  58.875 0.25 0  59.625 0.25 0  0.375 0.75 0  1.125 0.75 0  1.875 0.75 0  2.625 0.75 0  3.375 0.75 0  4.125 0.75 0  4.875 0.75 0  5.625 0.75 0  6.375 0.75 0  7.125 0.75 0  7.875 0.75 0  8.625 0.75 0  9.375 0.75 0  10.125 0.75 0  10.875 0.75 0  11.625 0.75 0  12.375 0.75 0  13.125 0.75 0  13.875 0.75 0  14.625 0.75 0  15.375 0.75 0  16.125 0.75 0  16.875 0.75 0  17.625 0.75 0  18.375 0.75 0  19.125 0.75 0  19.875 0.75 0  20.625 0.75 0  21.375 0.75 0  22.125 0.75 0  22.875 0.75 0  23.625 0.75 0  24.375 0.75 0  25.125 0.75 0  25.875 0.75 0  26.625 0.75 0  27.375 0.75 0  28.125 0.75 0  28.875 0.75 0  29.625 0.75 0  30.375 0.75 0  31.125 0.75 0  31.875 0.75 0  32.625 0.75 0  33.375 0.75 0  34.125 0.75 0  34.875 0.75 0  35.625 0.75 0  36.375 0.75 0  37.125 0.75 0  37.875 0.75 0  38.625 0.75 0  39.375 0.75 0  40.125 0.75 0  40
[...]
<PointData  Vectors="f_8-0"> 
<DataArray  type="Float64"  Name="f_8-0"  NumberOfComponents="3" format="ascii">0.0000000000000000e+00 0.0000000000000000e+00 0.0000000000000000e+00  0.0000000000000000e+00 0.0000000000000000e+00 0.0000000000000000e+00  0.0000000000000000e+00 0.0000000000000000e+00 0.0000000000000000e+00  0.0000000000000000e+00 0.0000000000000000e+00 0.0000000000000000e+00  0.0000000000000000e+00 0.0000000000000000e+00 0.0000000000000000e+00  0.0000000000000000e+00 0.0000000000000000e+00 0.0000000000000000e+00  0.0000000000000000e+00 0.0000000000000000e+00 0.0000000000000000e+00  0.0000000000000000e+00 0.0000000000000000e+00 0.0000000000000000e+00  0.0000000000000000e+00 0.0000000000000000e+00 0.0000000000000000e+00  0.0000000000000000e+00 0.0000000000000000e+00 0.0000000000000000e+00  0.0000000000000000e+00 0.0000000000000000e+00 0.0000000000000000e+00  0.0000000000000000e+00 0.0000000000000000e+00 0.0000000000000000e+00  0.0000000000000000e+00 0.0000000000000000e+00 0.0000000000000000e+00  0.0000000000000000e+00 0.0000000000000000e+00 0.0000000000000000e+00  0.0000000000000000e+00 0.0000000000000000e+00 0.0000000000000000e+00  0.0000000000000000e+00 0.0000000000000000e+00 0.0000000000000000e+00  0.0000000000000000e+00 0.0000000000000000e+00 0.0000000000000000e+00  0.0000000000000000e+00 0.0000000000000000e+00 0.0000000000000000e+00  0.0000000000000000e+00 0.0000000000000000e+00 0.0000000000000000e+00  0.0000000000000000e+00 0.0000000000000000e+00 0.0000000000000000e+00  0.0000000000000000e+00 0.0000000000000000e+00 0.0000000000000000e+00  0.0000000000000000e+00 0.0000000000000000e+00 0.0000000000000000e+00  0.0000000000000000e+00 0.0000000000000000e+00 0.0000000000000000e+00  0.0000000000000000e+00 0.0000000000000000e+00 0.0000000000000000e+00  0.0000000000000000e+00 0.0000000000000000e+00 0.0000000000000000e+00  0.0000000000000000e+00 0.0000000000000000e+00 0.0000000000000000e+00  0.0000000000000000e+00 0.0000000000000000e+00 0.0000000000000000e+00  0.0000000000000000e+00 0.0000000000000000e+00 0.0000000000000000e+00  0.0000000000000000e+00 0.0000000000000000e+00 0.0000000000000000e+00  0.0000000000000000e+00 0.0000000000000000e+00 0.0000000000000000e+00  0.0000000000000000e+00 0.0000000000000000e+00 0.0000000000000000e+00  0.0000000000000000e+00 0.0000000000000000e+00 0.0000000000000000e+00  0.0000000000000000e+00 0.0000000000000000e+00 0.0000000000000000e+00  0.0000000000000000e+00 0.0000000000000000e+00 0.0000000000000000e+00  0.0000000000000000e+00 0.0000000000000000e+00 0.0000000000000000e+00  0.0000000000000000e+00 0.0000000000000000e+00 0.0000000000000000e+00  0.0000000000000000e+00 0.0000000000000000e+00 0.0000000000000000e+00  0.0000000000000000e+00 0.0000000000000000e+00 0.0000000000000000e+00  0.0000000000000000e+00 0.0000000000000000e+00 0.0000000000000000e+00  0.0000000000000000e+00 0.0000000000000000e+00 0.0000000000000000e+00  0.0000000000000000e+00 0.0000000000000000e+00 0.0000000000000000e+00  0.0000000000000000e+00 0.0000000000000000e+00 0.0000000000000000e+00  0.0000000000000000e+00 0.0000000000000000e+00 0.0000000000000000e+00  0.0000000000000000e+00 0.0000000000000000e+00 0.0000000000000000e+00  0.0000000000000000e+00 0.0000000000000000e+00 0.0000000000000000e+00  0.0000000000000000e+00 0.0000000000000000e+00 0.0000000000000000e+00  0.0000000000000000e+00 0.0000000000000000e+00 0.0000000000000000e+00  0.0000000000000000e+00 0.0000000000000000e+00 0.0000000000000000e+00  0.0000000000000000e+00 0.0000000000000000e+00 0.0000000000000000e+00  0.0000000000000000e+00 0.0000000000000000e+00 0.0000000000000000e+00  0.0000000000000000e+00 0.0000000000000000e+00 0.0000000000000000e+00  0.0000000000000000e+00 0.0000000000000000e+00 0.0000000000000000e+00  0.0000000000000000e+00 0.0000000000000000e+00 0.0000000000000000e+00  0.0000000000000000e+00 0.0000000000000000e+00 0.0000000000000000e+00  0.0000000000000000e+00 0.0000000000000000e+00 0.0000000000000000e+00  0.0000000000000000e+00 0.0000000000000000e+00 0.0000000000000000e+00  0.0000000000000000e+00 0.0000000000000000e+00 0.0000000000000000e+00  0.0000000000000000e+00 0.0000000000000000e+00 0.0000000000000000e+00  0.0000000000000000e+00 0.0000000000000000e+00 0.0000000000000000e+00  0.0000000000000000e+00 0.0000000000000000e+00 0.0000000000000000e+00  0.0000000000000000e+00 0.0000000000000000e+00 0.0000000000000000e+00  0.0000000000000000e+00 0.0000000000000000e+00 0.0000000000000000e+00  0.0000000000000000e+00 0.0000000000000000e+00 0.0000000000000000e+00  0.0000000000000000e+00 0.0000000000000000e+00 0.0000000000000000e+00  0.0000000000000000e+00 0.0000000000000000e+00 0.0000000000000000e+00  0.0000000000000000e+00 0.0000000000000000e+00 0.0000000000000000e+00  0.0000000000000000e+00 0.0000000000000000e+00 0.0000000000000000e+00  0.0000000000000000e+00 0.0000000000000000e+00 0.0000000000000000e+00  0.0000000000000000e+00 0.0000000000000000e+00 0.0000000000000000e+00  0.0000000000000000e+00 0.0000000000000000e+00 0.0000000000000000e+00  0.0000000000000000e+00 0.0000000000000000e+00 0.0000000000000000e+00  0.0000000000000000e+00 0.0000000000000000e+00 0.0000000000000000e+00  0.0000000000000000e+00 0.0000000000000000e+00 0.0000000000000000e+00  0.0000000000000000e+00 0.0000000000000000e+00 0.0000000000000000e+00  0.0000000000000000e+00 0.0000000000000000e+00 0.0000000000000000e+00  0.0000000000000000e+00 0.0000000000000000e+00 0.0000000000000000e+00  0.0000000000000000e+00 0.0000000000000000e+00 0.0000000000000000e+00  0.0000000000000000e+00 0.0000000000000000e+00 0.0000000000000000e+00  0.0000000000000000e+00 0.0000000000000000e+00 0.0000000000000000e+00  0.0000000000000000e+00 0.0000000000000000e+00 0.0000000000000000e+00  0.0000000000000000e+00 0.0000000000000000e+00 0.0000000000000000e+00  -2.5730823237661809e+01 0.0000000000000000e+00 0.0000000000000000e+00  -2.5715686801758448e+01 -8.1783514159097413e-04 0.0000000000000000e+00  -2.5708733649065188e+01 -1.4422131375252760e-03 0.0000000000000000e+00  -2.5707372850476343e+01 -1.4524032184656092e-03 0.0000000000000000e+00  -2.5706600195030934e+01 -1.4947892227531870e-03 0.0000000000000000e+00  -2.5705833712084001e+01 -1.5310716569460849e-03 0.0000000000000000e+00  -2.5705088864433787e+01 -1.5166621160808971e-03 0.0000000000000000e+00  -2.5704478483888931e+01 -1.4564130365509061e-03 0.0000000000000000e+00  -2.5704047909522107e+01 -1.3848362943903901e-03 0.0000000000000000e+00  -2.5703774601834823e+01 -1.3249952294506755e-03 0.0000000000000000e+00  -2.5703613686031520e+01 -1.2831352895667321e-03 0.0000000000000000e+00  -2.5703524229617976e+01 -1.2569239864609445e-03 0.0000000000000000e+00  -2.5703476687619627e+01 -1.2417914541296249e-03 0.0000000000000000e+00  -2.5703452262149337e+01 -1.2335327290600078e-03 0.0000000000000000e+00  -2.5703440020084720e+01 -1.2292045930600722e-03 0.0000000000000000e+00  -2.5703433985344116e+01 -1.2269975530871642e-03 0.0000000000000000e+00  -2.5703431043946360e+01 -1.2258958163696946e-03 0.0000000000000000e+00  -2.5703429617942330e+01 -1.2253540292738957e-03 0.0000000000000000e+00  -2.5703428928802907e+01 -1.2250898509059108e-03 0.0000000000000000e+00  -2.5703428595022718e+01 -1.2249619747407236e-03 0.0000000000000000e+00  -2.5703428433212324e+01 -1.2248998255397954e-03 0.0000000000000000e+00  -2.5703428354164789e+01 -1.2248698519731764e-03 0.0000000000000000e+00  -2.5703428315552014e+01 -1.2248550872357782e-03 0.0000000000000000e+00  -2.5703428296458835e+01 -1.2248480098938531e-03 0.0000000000000000e+00  -2.5703428287084932e+01 -1.2248444144163902e-03 0.0000000000000000e+00  -2.5703428282394558e+01 -1.2248427376718083e-03 0.0000000000000000e+00  -2.5703428280094677e+01 -1.2248418338652832e-03 0.0000000000000000e+00  -2.5703428278931231e+01 -1.2248414404263976e-03 0.0000000000000000e+00  -2.5703428278365902e+01 -1.2248412061235117e-03 0.0000000000000000e+00  -2.5703428278074643e+01 -1.2248411176934415e-03 0.0000000000000000e+00  -2.5703428277936013e+01 -1.2248410533667378e-03 0.0000000000000000e+00  -2.5703428277863331e+01 -1.2248410354027050e-03 0.0000000000000000e+00  -2.5703428277829122e+01 -1.2248410172622120e-03 0.0000000000000000e+00  -2.5703428277811515e+01 -1.2248410141848336e-03 0.0000000000000000e+00  -2.5703428277802598e+01 -1.2248410087538333e-03 0.0000000000000000e+00  -2.5703428277798810e+01 -1.2248410092254992e-03 0.0000000000000000e+00  -2.5703428277794529e+01 -1.2248410060039518e-03 0.0000000000000000e+00  -2.5703428277796995e+01 -1.2248410095053383e-03 0.0000000000000000e+00  -2.5703428277788813e+01 -1.2248410022788173e-03 0.0000000000000000e+00  -2.5703428277804317e+01 -1.2248410147695761e-03 0.0000000000000000e+00  -2.5703428277773870e+01 -1.2248409911044863e-03 0.0000000000000000e+00  -2.5703428277831527e+01 -1.2248410362240424e-03 0.0000000000000000e+00  -2.5703428277720100e+01 -1.2248409499272192e-03 0.0000000000000000e+00  -2.5703428277929390e+01 -1.2248411148537768e-03 0.0000000000000000e+00  -2.5703428277531955e+01 -1.2248408031338548e-03 0.0000000000000000e+00  -2.5703428278271758e+01 -1.2248413889619128e-03 0.0000000000000000e+00  -2.5703428276885564e+01 -1.2248402994369848e-03 0.0000000000000000e+00  -2.5703428279422184e+01 -1.2248423155867120e-03 0.0000000000000000e+00  -2.5703428274748148e+01 -1.2248386300905141e-03 0.0000000000000000e+00  -2.5703428283124797e+01 -1.2248453312647906e-03 0.0000000000000000e+00  -2.5703428267961119e+01 -1.2248333218166860e-03 0.0000000000000000e+00  -2.5703428294466757e+01 -1.2248547272162048e-03 0.0000000000000000e+00  -2.5703428247437238e+01 -1.2248172269127102e-03 0.0000000000000000e+00  -2.5703428327212041e+01 -1.2248825885672182e-03 0.0000000000000000e+00  -2.5703428188663359e+01 -1.2247710129034647e-03 0.0000000000000000e+00  -2.5703428415237621e+01 -1.2249607846260919e-03 0.0000000000000000e+00  -2.5703428029851839e+01 -1.2246461719852431e-03 0.0000000000000000e+00  -2.5703428632292500e+01 -1.2251678648108613e-03 0.0000000000000000e+00  -2.5703427623572153e+01 -1.2243301853533826e-03 0.0000000000000000e+00  -2.5703429113960535e+01 -1.2256869420672512e-03 0.0000000000000000e+00  -2.5703426621999139e+01 -1.2235792153199451e-03 0.0000000000000000e+00  -2.5703430048354175e+01 -1.2269347647395710e-03 0.0000000000000000e+00  -2.5703424169074072e+01 -1.2218778321297391e-03 0.0000000000000000e+00  -2.5703431542029424e+01 -1.2298504345038663e-03 0.0000000000000000e+00  -2.5703418180217390e+01 -1.2180450672867808e-03 0.0000000000000000e+00  -2.5703433152884191e+01 -1.2362804279252414e-03 0.0000000000000000e+00  -2.5703404309619724e+01 -1.2090436611237113e-03 0.0000000000000000e+00  -2.5703428731818622e+01 -1.2496943644527837e-03 0.0000000000000000e+00  -2.5703358119343680e+01 -1.1957331392124057e-03 0.0000000000000000e+00  -2.5703311728370700e+01 -1.3088519802033488e-03 0.0000000000000000e+00  -2.5702960852465164e+01 -1.2982099007089599e-03 0.0000000000000000e+00  -2.5702202807182470e+01 -1.7044010079006135e-03 0.0000000000000000e+00  -2.5700689061181986e+01 -1.8884901493685009e-03 0.0000000000000000e+00  -2.5698327633643625e+01 -2.1905555026500755e-03 0.0000000000000000e+00  -2.5695726578561100e+01 -1.6812973137890499e-03 0.0000000000000000e+00  -2.5690962716883899e+01 -1.0478921678915600e-03 0.0000000000000000e+00  -2.5688559946476563e+01 -3.4999259072906579e-04 0.0000000000000000e+00  -2.5683533648482907e+01 1.6308061596606251e-03 0.0000000000000000e+00  -2.5679274745031648e+01 -4.1172003876644887e-03 0.0000000000000000e+00  -2.5674109712315175e+01 -2.1669808483372511e-02 0.0000000000000000e+00  -2.5638801225345063e+01 0.0000000000000000e+00 0.0000000000000000e+00  -3.3405279324905621e+01 0.0000000000000000e+00 0.0000000000000000e+00  -3.3411037501357427e+01 1.0373184184810792e-03 0.0000000000000000e+00  -3.3410300103000466e+01 2.2521406794842953e-03 0.0000000000000000e+00  -3.3409279599338220e+01 2.3533228550218881e-03 0.0000000000000000e+00  -3.3408593552792006e+01 2.2822034922094737e-03 0.0000000000000000e+00  -3.3408067665919987e+01 2.2622452173076684e-03 0.0000000000000000e+00  -3.3407718464113508e+01 2.3868424822955162e-03 0.0000000000000000e+00  -3.3407565071936020e+01 2.5833189042116225e-03 0.0000000000000000e+00  -3.3407533331089397e+01 2.7530384480933812e-03 0.0000000000000000e+00  -3.3407543151968966e+01 2.8702761154694527e-03 0.0000000000000000e+00  -3.3407558261628125e+01 2.9440303514953383e-03 0.0000000000000000e+00  -3.3407568996322262e+01 2.9875282415215199e-03 0.0000000000000000e+00  -3.3407575157856314e+01 3.0117179042005245e-03 0.0000000000000000e+00  -3.3407578310839206e+01 3.0246279871561361e-03 0.0000000000000000e+00  -3.3407579846816397e+01 3.0313328759656749e-03 0.0000000000000000e+00  -3.3407580563218509e+01 3.0347454757813793e-03 0.0000000000000000e+00  -3.3407580899437669e+01 3.0364532610718067e-03 0.0000000000000000e+00  -3.3407581053405295e+01 3.0372939821262327e-03 0.0000000000000000e+00  -3.3407581126955918e+01 3.0377052779284614e-03 0.0000000000000000e+00  -3.3407581160672848e+01 3.0379041610202329e-03 0.0000000000000000e+00  -3.3407581177410087e+01 3.0380011979295545e-03 0.0000000000000000e+00  -3.3407581185041856e+01 3.0380478381762470e-03 0.0000000000000000e+00  -3.3407581189014429e+01 3.0380709853168996e-03 0.0000000000000000e+00  -3.3407581190789131e+01 3.0380819964802345e-03 0.0000000000000000e+00  -3.3407581191768351e+01 3.0380876689980007e-03 0.0000000000000000e+00  -3.3407581192187557e+01 3.0380902725826845e-03 0.0000000000000000e+00  -3.3407581192437803e+01 3.0380917071296623e-03 0.0000000000000000e+00  -3.3407581192537705e+01 3.0380923140884536e-03 0.0000000000000000e+00  -3.3407581192602002e+01 3.0380926887335915e-03 0.0000000000000000e+00  -3.3407581192625429e+01 3.0380928250995183e-03 0.0000000000000000e+00  -3.3407581192642205e+01 3.0380929264832595e-03 0.0000000000000000e+00  -3.3407581192647839e+01 3.0380929548158983e-03 0.0000000000000000e+00  -3.3407581192652344e+01 3.0380929830982383e-03 0.0000000000000000e+00  -3.3407581192653460e+01 3.0380929885116593e-03 0.0000000000000000e+00  -3.3407581192655265e+01 3.0380929951992824e-03 0.0000000000000000e+00  -3.3407581192652856e+01 3.0380929968674697e-03 0.0000000000000000e+00  -3.3407581192657851e+01 3.0380929976653627e-03 0.0000000000000000e+00  -3.3407581192647349e+01 3.0380930012833857e-03 0.0000000000000000e+00  -3.3407581192667976e+01 3.0380929953206888e-03 0.0000000000000000e+00  -3.3407581192628257e+01 3.0380930080184344e-03 0.0000000000000000e+00  -3.3407581192704185e+01 3.0380929835024987e-03 0.0000000000000000e+00  -3.3407581192559576e+01 3.0380930303253529e-03 0.0000000000000000e+00  -3.3407581192831927e+01 3.0380929406236849e-03 0.0000000000000000e+00  -3.3407581192317195e+01 3.0380931089149278e-03 0.0000000000000000e+00  -3.3407581193273444e+01 3.0380927916153102e-03 0.0000000000000000e+00  -3.3407581191496419e+01 3.0380933768886769e-03 0.0000000000000000e+00  -3.3407581194736089e+01 3.0380922882119474e-03 0.0000000000000000e+00  -3.3407581188823571e+01 3.0380942605388777e-03 0.0000000000000000e+00  -3.3407581199373112e+01 3.0380906499315016e-03 0.0000000000000000e+00  -3.3407581180503982e+01 3.0380970480284849e-03 0.0000000000000000e+00  -3.3407581213308703e+01 3.0380855369904723e-03 0.0000000000000000e+00  -3.3407581155972075e+01 3.0381054158028936e-03 0.0000000000000000e+00  -3.3407581252572143e+01 3.0380703068381347e-03 0.0000000000000000e+00  -3.3407581088079795e+01 3.0381291017139446e-03 0.0000000000000000e+00  -3.3407581354676744e+01 3.0380271180571712e-03 0.0000000000000000e+00  -3.3407580913357904e+01 3.0381917244345774e-03 0.0000000000000000e+00  -3.3407581594527450e+01 3.0379104404593760e-03 0.0000000000000000e+00  -3.3407580497622227e+01 3.0383444878279457e-03 0.0000000000000000e+00  -3.3407582087114449e+01 3.0376078225584258e-03 0.0000000000000000e+00  -3.3407579576193299e+01 3.0386824354805245e-03 0.0000000000000000e+00  -3.3407582918230140e+01 3.0368416753758050e-03 0.0000000000000000e+00  -3.3407577599524039e+01 3.0393402769091373e-03 0.0000000000000000e+00  -3.3407583851964795e+01 3.0349142747356250e-03 0.0000000000000000e+00  -3.3407573154821655e+01 3.0404025869859045e-03 0.0000000000000000e+00  -3.3407583186760320e+01 3.0300797427399101e-03 0.0000000000000000e+00  -3.3407561449566018e+01 3.0413683709693668e-03 0.0000000000000000e+00  -3.3407570684071395e+01 3.0165014631888193e-03 0.0000000000000000e+00  -3.3407517662269328e+01 3.0312307608189515e-03 0.0000000000000000e+00  -3.3407476508278251e+01 2.9442806932042792e-03 0.0000000000000000e+00  -3.3407285617156077e+01 2.8704288172677517e-03 0.0000000000000000e+00  -3.3406941397282480e+01 2.4417733161968130e-03 0.0000000000000000e+00  -3.3406209949790991e+01 1.8779829484306329e-03 0.0000000000000000e+00  -3.3404735345998176e+01 6.5657044678522967e-04 0.0000000000000000e+00  -3.3401526243519960e+01 -5.5155203469506482e-04 0.0000000000000000e+00  -3.3395060463317812e+01 -2.6396318699782270e-03 0.0000000000000000e+00  -3.3387065756780245e+01 -2.8649183453659643e-03 0.0000000000000000e+00  -3.3381557591476025e+01 -9.7107967257161138e-04 0.0000000000000000e+00  -3.3377830328922741e+01 3.6406319703306106e-04 0.0000000000000000e+00  -3.3377129676207296e+01 -1.5548570025212360e-03 0.0000000000000000e+00  -3.3391707559865097e+01 1.2689256429670503e-02 0.0000000000000000e+00  -3.3393719904143431e+01 0.0000000000000000e+00 0.0000000000000000e+00  -3.2937265739531526e+01 0.0000000000000000e+00 0.0000000000000000e+00  -3.2938271432767124e+01 -6.8094743531690633e-04 0.0000000000000000e+00  -3.2939064241271772e+01 -2.5088409893741164e-04 0.0000000000000000e+00  -3.2939495722317517e+01 -1.1968921454876306e-04 0.0000000000000000e+00  -3.2940016759749632e+01 -1.3402939371966559e-04 0.0000000000000000e+00  -3.2940645882870058e+01 -1.0933479863864506e-04 0.0000000000000000e+00  -3.2941248908648454e+01 5.3711513638442469e-05 0.0000000000000000e+00  -3.2941719948109828e+01 2.6041991501527526e-04 0.0000000000000000e+00  -3.2942037179355943e+01 4.0620810755089606e-04 0.0000000000000000e+00  -3.2942230832683258e+01 4.9133796324310822e-04 0.0000000000000000e+00  -3.2942341685183472e+01 5.4007017955901200e-04 0.0000000000000000e+00  -3.2942402544598245e+01 5.6737649657024269e-04 0.0000000000000000e+00  -3.2942434762661343e+01 5.8226434398361187e-04 0.0000000000000000e+00  -3.2942451370838739e+01 5.9022809113184907e-04 0.0000000000000000e+00  -3.2942459716600830e+01 5.9443448669296297e-04 0.0000000000000000e+00  -3.2942463858427978e+01 5.9660284686263742e-04 0.0000000000000000e+00  -3.2942465882464816e+01 5.9770142439598251e-04 0.0000000000000000e+00  -3.2942466872861161e+01 5.9824364757470223e-04 0.0000000000000000e+00  -3.2942467352085210e+01 5.9851099541269781e-04 0.0000000000000000e+00  -3.2942467586974381e+01 5.9863995279439458e-04 0.0000000000000000e+00  -3.2942467700384768e+01 5.9870345470795501e-04 0.0000000000000000e+00  -3.2942467756510943e+01 5.9873381093273541e-04 0.0000000000000000e+00  -3.2942467783584107e+01 5.9874903530222402e-04 0.0000000000000000e+00  -3.2942467797186517e+01 5.9875621661152850e-04 0.0000000000000000e+00  -3.2942467803723609e+01 5.9875994873701715e-04 0.0000000000000000e+00  -3.2942467807071218e+01 5.9876164880980087e-04 0.0000000000000000e+00  -3.2942467808665327e+01 5.9876258618977074e-04 0.0000000000000000e+00  -3.2942467809497757e+01 5.9876298679215317e-04 0.0000000000000000e+00  -3.2942467809888448e+01 5.9876322682247116e-04 0.0000000000000000e+00  -3.2942467810095472e+01 5.9876332106933397e-04 0.0000000000000000e+00  -3.2942467810191168e+01 5.9876338274838560e-04 0.0000000000000000e+00  -3.2942467810241489e+01 5.9876340455541140e-04 0.0000000000000000e+00  -3.2942467810266656e+01 5.9876342065556917e-04 0.0000000000000000e+00  -3.2942467810278984e+01 5.9876342664524267e-04 0.0000000000000000e+00  -3.2942467810284263e+01 5.9876342895953400e-04 0.0000000000000000e+00  -3.2942467810289521e+01 5.9876343071228950e-04 0.0000000000000000e+00  -3.2942467810284640e+01 5.9876343191513559e-04 0.0000000000000000e+00  -3.