<?xml version="1.0"?>
<VTKFile type="UnstructuredGrid"  version="0.1"  >
<UnstructuredGrid>
<Piece  NumberOfPoints="1369" NumberOfCells="2560">
<Points>
<DataArray  type="Float64"  NumberOfComponents="3"  format="ascii">0 0 0  0.75 0 0  1.5 0 0  2.25 0 0  3 0 0  3.75 0 0  4.5 0 0  5.25 0 0  6 0 0  6.75 0 0  7.5 0 0  8.25 0 0  9 0 0  9.75 0 0  10.5 0 0  11.25 0 0  12 0 0  12.75 0 0  13.5 0 0  14.25 0 0  15 0 0  15.75 0 0  16.5 0 0  17.25 0 0  18 0 0  18.75 0 0  19.5 0 0  20.25 0 0  21 0 0  21.75 0 0  22.5 0 0  23.25 0 0  24 0 0  24.75 0 0  25.5 0 0  26.25 0 0  27 0 0  27.75 0 0  28.5 0 0  29.25 0 0  30 0 0  30.75 0 0  31.5 0 0  32.25 0 0  33 0 0  33.75 0 0  34.5 0 0  35.25 0 0  36 0 0  36.75 0 0  37.5 0 0  38.25 0 0  39 0 0  39.75 0 0  40.5 0 0  41.25 0 0  42 0 0  42.75 0 0  43.5 0 0  44.25 0 0  45 0 0  45.75 0 0  46.5 0 0  47.25 0 0  48 0 0  48.75 0 0  49.5 0 0  50.25 0 0  51 0 0  51.75 0 0  52.5 0 0  53.25 0 0  54 0 0  54.75 0 0  55.5 0 0  56.25 0 0  57 0 0  57.75 0 0  58.5 0 0  59.25 0 0  60 0 0  0 0.5 0  0.75 0.5 0  1.5 0.5 0  2.25 0.5 0  3 0.5 0  3.75 0.5 0  4.5 0.5 0  5.25 0.5 0  6 0.5 0  6.75 0.5 0  7.5 0.5 0  8.25 0.5 0  9 0.5 0  9.75 0.5 0  10.5 0.5 0  11.25 0.5 0  12 0.5 0  12.75 0.5 0  13.5 0.5 0  14.25 0.5 0  15 0.5 0  15.75 0.5 0  16.5 0.5 0  17.25 0.5 0  18 0.5 0  18.75 0.5 0  19.5 0.5 0  20.25 0.5 0  21 0.5 0  21.75 0.5 0  22.5 0.5 0  23.25 0.5 0  24 0.5 0  24.75 0.5 0  25.5 0.5 0  26.25 0.5 0  27 0.5 0  27.75 0.5 0  28.5 0.5 0  29.25 0.5 0  30 0.5 0  30.75 0.5 0  31.5 0.5 0  32.25 0.5 0  33 0.5 0  33.75 0.5 0  34.5 0.5 0  35.25 0.5 0  36 0.5 0  36.75 0.5 0  37.5 0.5 0  38.25 0.5 0  39 0.5 0  39.75 0.5 0  40.5 0.5 0  41.25 0.5 0  42 0.5 0  42.75 0.5 0  43.5 0.5 0  44.25 0.5 0  45 0.5 0  45.75 0.5 0  46.5 0.5 0  47.25 0.5 0  48 0.5 0  48.75 0.5 0  49.5 0.5 0  50.25 0.5 0  51 0.5 0  51.75 0.5 0  52.5 0.5 0  53.25 0.5 0  54 0.5 0  54.75 0.5 0  55.5 0.5 0  56.25 0.5 0  57 0.5 0  57.75 0.5 0  58.5 0.5 0  59.25 0.5 0  60 0.5 0  0 1 0  0.75 1 0  1.5 1 0  2.25 1 0  3 1 0  3.75 1 0  4.5 1 0  5.25 1 0  6 1 0  6.75 1 0  7.5 1 0  8.25 1 0  9 1 0  9.75 1 0  10.5 1 0  11.25 1 0  12 1 0  12.75 1 0  13.5 1 0  14.25 1 0  15 1 0  15.75 1 0  16.5 1 0  17.25 1 0  18 1 0  18.75 1 0  19.5 1 0  20.25 1 0  21 1 0  21.75 1 0  22.5 1 0  23.25 1 0  24 1 0  24.75 1 0  25.5 1 0  26.25 1 0  27 1 0  27.75 1 0  28.5 1 0  29.25 1 0  30 1 0  30.75 1 0  31.5 1 0  32.25 1 0  33 1 0  33.75 1 0  34.5 1 0  35.25 1 0  36 1 0  36.75 1 0  37.5 1 0  38.25 1 0  39 1 0  39.75 1 0  40.5 1 0  41.25 1 0  42 1 0  42.75 1 0  43.5 1 0  44.25 1 0  45 1 0  45.75 1 0  46.5 1 0  47.25 1 0  48 1 0  48.75 1 0  49.5 1 0  50.25 1 0  51 1 0  51.75 1 0  52.5 1 0  53.25 1 0  54 1 0  54.75 1 0  55.5 1 0  56.25 1 0  57 1 0  57.75 1 0  58.5 1 0  59.25 1 0  60 1 0  0 1.5 0  0.75 1.5 0  1.5 1.5 0  2.25 1.5 0  3 1.5 0  3.75 1.5 0  4.5 1.5 0  5.25 1.5 0  6 1.5 0  6.75 1.5 0  7.5 1.5 0  8.25 1.5 0  9 1.5 0  9.75 1.5 0  10.5 1.5 0  11.25 1.5 0  12 1.5 0  12.75 1.5 0  13.5 1.5 0  14.25 1.5 0  15 1.5 0  15.75 1.5 0  16.5 1.5 0  17.25 1.5 0  18 1.5 0  18.75 1.5 0  19.5 1.5 0  20.25 1.5 0  21 1.5 0  21.75 1.5 0  22.5 1.5 0  23.25 1.5 0  24 1.5 0  24.75 1.5 0  25.5 1.5 0  26.25 1.5 0  27 1.5 0  27.75 1.5 0  28.5 1.5 0  29.25 1.5 0  30 1.5 0  30.75 1.5 0  31.5 1.5 0  32.25 1.5 0  33 1.5 0  33.75 1.5 0  34.5 1.5 0  35.25 1.5 0  36 1.5 0  36.75 1.5 0  37.5 1.5 0  38.25 1.5 0  39 1.5 0  39.75 1.5 0  40.5 1.5 0  41.25 1.5 0  42 1.5 0  42.75 1.5 0  43.5 1.5 0  44.25 1.5 0  45 1.5 0  45.75 1.5 0  46.5 1.5 0  47.25 1.5 0  48 1.5 0  48.75 1.5 0  49.5 1.5 0  50.25 1.5 0  51 1.5 0  51.75 1.5 0  52.5 1.5 0  53.25 1.5 0  54 1.5 0  54.75 1.5 0  55.5 1.5 0  56.25 1.5 0  57 1.5 0  57.75 1.5 0  58.5 1.5 0  59.25 1.5 0  60 1.5 0  0 2 0  0.75 2 0  1.5 2 0  2.25 2 0  3 2 0  3.75 2 0  4.5 2 0  5.25 2 0  6 2 0  6.75 2 0  7.5 2 0  8.25 2 0  9 2 0  9.75 2 0  10.5 2 0  11.25 2 0  12 2 0  12.75 2 0  13.5 2 0  14.25 2 0  15 2 0  15.75 2 0  16.5 2 0  17.25 2 0  18 2 0  18.75 2 0  19.5 2 0  20.25 2 0  21 2 0  21.75 2 0  22.5 2 0  23.25 2 0  24 2 0  24.75 2 0  25.5 2 0  26.25 2 0  27 2 0  27.75 2 0  28.5 2 0  29.25 2 0  30 2 0  30.75 2 0  31.5 2 0  32.25 2 0  33 2 0  33.75 2 0  34.5 2 0  35.25 2 0  36 2 0  36.75 2 0  37.5 2 0  38.25 2 0  39 2 0  39.75 2 0  40.5 2 0  41.25 2 0  42 2 0  42.75 2 0  43.5 2 0  44.25 2 0  45 2 0  45.75 2 0  46.5 2 0  47.25 2 0  48 2 0  48.75 2 0  49.5 2 0  50.25 2 0  51 2 0  51.75 2 0  52.5 2 0  53.25 2 0  54 2 0  54.75 2 0  55.5 2 0  56.25 2 0  57 2 0  57.75 2 0  58.5 2 0  59.25 2 0  60 2 0  0 2.5 0  0.75 2.5 0  1.5 2.5 0  2.25 2.5 0  3 2.5 0  3.75 2.5 0  4.5 2.5 0  5.25 2.5 0  6 2.5 0  6.75 2.5 0  7.5 2.5 0  8.25 2.5 0  9 2.5 0  9.75 2.5 0  10.5 2.5 0  11.25 2.5 0  12 2.5 0  12.75 2.5 0  13.5 2.5 0  14.25 2.5 0  15 2.5 0  15.75 2.5 0  16.5 2.5 0  17.25 2.5 0  18 2.5 0  18.75 2.5 0  19.5 2.5 0  20.25 2.5 0  21 2.5 0  21.75 2.5 0  22.5 2.5 0  23.25 2.5 0  24 2.5 0  24.75 2.5 0  25.5 2.5 0  26.25 2.5 0  27 2.5 0  27.75 2.5 0  28.5 2.5 0  29.25 2.5 0  30 2.5 0  30.75 2.5 0  31.5 2.5 0  32.25 2.5 0  33 2.5 0  33.75 2.5 0  34.5 2.5 0  35.25 2.5 0  36 2.5 0  36.75 2.5 0  37.5 2.5 0  38.25 2.5 0  39 2.5 0  39.75 2.5 0  40.5 2.5 0  41.25 2.5 0  42 2.5 0  42.75 2.5 0  43.5 2.5 0  44.25 2.5 0  45 2.5 0  45.75 2.5 0  46.5 2.5 0  47.25 2.5 0  48 2.5 0  48.75 2.5 0  49.5 2.5 0  50.25 2.5 0  51 2.5 0  51.75 2.5 0  52.5 2.5 0  53.25 2.5 0  54 2.5 0  54.75 2.5 0  55.5 2.5 0  56.25 2.5 0  57 2.5 0  57.75 2.5 0  58.5 2.5 0  59.25 2.5 0  60 2.5 0  0 3 0  0.75 3 0  1.5 3 0  2.25 3 0  3 3 0  3.75 3 0  4.5 3 0  5.25 3 0  6 3 0  6.75 3 0  7.5 3 0  8.25 3 0  9 3 0  9.75 3 0  10.5 3 0  11.25 3 0  12 3 0  12.75 3 0  13.5 3 0  14.25 3 0  15 3 0  15.75 3 0  16.5 3 0  17.25 3 0  18 3 0  18.75 3 0  19.5 3 0  20.25 3 0  21 3 0  21.75 3 0  22.5 3 0  23.25 3 0  24 3 0  24.75 3 0  25.5 3 0  26.25 3 0  27 3 0  27.75 3 0  28.5 3 0  29.25 3 0  30 3 0  30.75 3 0  31.5 3 0  32.25 3 0  33 3 0  33.75 3 0  34.5 3 0  35.25 3 0  36 3 0  36.75 3 0  37.5 3 0  38.25 3 0  39 3 0  39.75 3 0  40.5 3 0  41.25 3 0  42 3 0  42.75 3 0  43.5 3 0  44.25 3 0  45 3 0  45.75 3 0  46.5 3 0  47.25 3 0  48 3 0  48.75 3 0  49.5 3 0  50.25 3 0  51 3 0  51.75 3 0  52.5 3 0  53.25 3 0  54 3 0  54.75 3 0  55.5 3 0  56.25 3 0  57 3 0  57.75 3 0  58.5 3 0  59.25 3 0  60 3 0  0 3.5 0  0.75 3.5 0  1.5 3.5 0  2.25 3.5 0  3 3.5 0  3.75 3.5 0  4.5 3.5 0  5.25 3.5 0  6 3.5 0  6.75 3.5 0  7.5 3.5 0  8.25 3.5 0  9 3.5 0  9.75 3.5 0  10.5 3.5 0  11.25 3.5 0  12 3.5 0  12.75 3.5 0  13.5 3.5 0  14.25 3.5 0  15 3.5 0  15.75 3.5 0  16.5 3.5 0  17.25 3.5 0  18 3.5 0  18.75 3.5 0  19.5 3.5 0  20.25 3.5 0  21 3.5 0  21.75 3.5 0  22.5 3.5 0  23.25 3.5 0  24 3.5 0  24.75 3.5 0  25.5 3.5 0  26.25 3.5 0  27 3.5 0  27.75 3.5 0  28.5 3.5 0  29.25 3.5 0  30 3.5 0  30.75 3.5 0  31.5 3.5 0  32.25 3.5 0  33 3.5 0  33.75 3.5 0  34.5 3.5 0  35.25 3.5 0  36 3.5 0  36.75 3.5 0  37.5 3.5 0  38.25 3.5 0  39 3.5 0  39.75 3.5 0  40.5 3.5 0  41.25 3.5 0  42 3.5 0  42.75 3.5 0  43.5 3.5 0  44.25 3.5 0  45 3.5 0  45.75 3.5 0  46.5 3.5 0  47.25 3.5 0  48 3.5 0  48.75 3.5 0  49.5 3.5 0  50.25 3.5 0  51 3.5 0  51.75 3.5 0  52.5 3.5 0  53.25 3.5 0  54 3.5 0  54.75 3.5 0  55.5 3.5 0  56.25 3.5 0  57 3.5 0  57.75 3.5 0  58.5 3.5 0  59.25 3.5 0  60 3.5 0  0 4 0  0.75 4 0  1.5 4 0  2.25 4 0  3 4 0  3.75 4 0  4.5 4 0  5.25 4 0  6 4 0  6.75 4 0  7.5 4 0  8.25 4 0  9 4 0  9.75 4 0  10.5 4 0  11.25 4 0  12 4 0  12.75 4 0  13.5 4 0  14.25 4 0  15 4 0  15.75 4 0  16.5 4 0  17.25 4 0  18 4 0  18.75 4 0  19.5 4 0  20.25 4 0  21 4 0  21.75 4 0  22.5 4 0  23.25 4 0  24 4 0  24.75 4 0  25.5 4 0  26.25 4 0  27 4 0  27.75 4 0  28.5 4 0  29.25 4 0  30 4 0  30.75 4 0  31.5 4 0  32.25 4 0  33 4 0  33.75 4 0  34.5 4 0  35.25 4 0  36 4 0  36.75 4 0  37.5 4 0  38.25 4 0  39 4 0  39.75 4 0  40.5 4 0  41.25 4 0  42 4 0  42.75 4 0  43.5 4 0  44.25 4 0  45 4 0  45.75 4 0  46.5 4 0  47.25 4 0  48 4 0  48.75 4 0  49.5 4 0  50.25 4 0  51 4 0  51.75 4 0  52.5 4 0  53.25 4 0  54 4 0  54.75 4 0  55.5 4 0  56.25 4 0  57 4 0  57.75 4 0  58.5 4 0  59.25 4 0  60 4 0  0.375 0.25 0  1.125 0.25 0  1.875 0.25 0  2.625 0.25 0  3.375 0.25 0  4.125 0.25 0  4.875 0.25 0  5.625 0.25 0  6.375 0.25 0  7.125 0.25 0  7.875 0.25 0  8.625 0.25 0  9.375 0.25 0  10.125 0.25 0  10.875 0.25 0  11.625 0.25 0  12.375 0.25 0  13.125 0.25 0  13.875 0.25 0  14.625 0.25 0  15.375 0.25 0  16.125 0.25 0  16.875 0.25 0  17.625 0.25 0  18.375 0.25 0  19.125 0.25 0  19.875 0.25 0  20.625 0.25 0  21.375 0.25 0  22.125 0.25 0  22.875 0.25 0  23.625 0.25 0  24.375 0.25 0  25.125 0.25 0  25.875 0.25 0  26.625 0.25 0  27.375 0.25 0  28.125 0.25 0  28.875 0.25 0  29.625 0.25 0  30.375 0.25 0  31.125 0.25 0  31.875 0.25 0  32.625 0.25 0  33.375 0.25 0  34.125 0.25 0  34.875 0.25 0  35.625 0.25 0  36.375 0.25 0  37.125 0.25 0  37.875 0.25 0  38.625 0.25 0  39.375 0.25 0  40.125 0.25 0  40.875 0.25 0  41.625 0.25 0  42.375 0.25 0  43.125 0.25 0  43.875 0.25 0  44.625 0.25 0  45.375 0.25 0  46.125 0.25 0  46.875 0.25 0  47.625 0.25 0  48.375 0.25 0  49.125 0.25 0  49.875 0.25 0  50.625 0.25 0  51.375 0.25 0  52.125 0.25 0  52.875 0.25 0  53.625 0.25 0  54.375 0.25 0  55.125 0.25 0  55.875 0.25 0  56.625 0.25 0  57.375 0.25 0  58.125 0.25 0  58.875 0.25 0  59.625 0.25 0  0.375 0.75 0  1.125 0.75 0  1.875 0.75 0  2.625 0.75 0  3.375 0.75 0  4.125 0.75 0  4.875 0.75 0  5.625 0.75 0  6.375 0.75 0  7.125 0.75 0  7.875 0.75 0  8.625 0.75 0  9.375 0.75 0  10.125 0.75 0  10.875 0.75 0  11.625 0.75 0  12.375 0.75 0  13.125 0.75 0  13.875 0.75 0  14.625 0.75 0  15.375 0.75 0  16.125 0.75 0  16.875 0.75 0  17.625 0.75 0  18.375 0.75 0  19.125 0.75 0  19.875 0.75 0  20.625 0.75 0  21.375 0.75 0  22.125 0.75 0  22.875 0.75 0  23.625 0.75 0  24.375 0.75 0  25.125 0.75 0  25.875 0.75 0  26.625 0.75 0  27.375 0.75 0  28.125 0.75 0  28.875 0.75 0  29.625 0.75 0  30.375 0.75 0  31.125 0.75 0  31.875 0.75 0  32.625 0.75 0  33.375 0.75 0  34.125 0.75 0  34.875 0.75 0  35.625 0.75 0  36.375 0.75 0  37.125 0.75 0  37.875 0.75 0  38.625 0.75 0  39.375 0.75 0  40.125 0.75 0  40
[...]
<PointData  Vectors="f_8-0"> 
<DataArray  type="Float64"  Name="f_8-0"  NumberOfComponents="3" format="ascii">0.0000000000000000e+00 0.0000000000000000e+00 0.0000000000000000e+00  0.0000000000000000e+00 0.0000000000000000e+00 0.0000000000000000e+00  0.0000000000000000e+00 0.0000000000000000e+00 0.0000000000000000e+00  0.0000000000000000e+00 0.0000000000000000e+00 0.0000000000000000e+00  0.0000000000000000e+00 0.0000000000000000e+00 0.0000000000000000e+00  0.0000000000000000e+00 0.0000000000000000e+00 0.0000000000000000e+00  0.0000000000000000e+00 0.0000000000000000e+00 0.0000000000000000e+00  0.0000000000000000e+00 0.0000000000000000e+00 0.0000000000000000e+00  0.0000000000000000e+00 0.0000000000000000e+00 0.0000000000000000e+00  0.0000000000000000e+00 0.0000000000000000e+00 0.0000000000000000e+00  0.0000000000000000e+00 0.0000000000000000e+00 0.0000000000000000e+00  0.0000000000000000e+00 0.0000000000000000e+00 0.0000000000000000e+00  0.0000000000000000e+00 0.0000000000000000e+00 0.0000000000000000e+00  0.0000000000000000e+00 0.0000000000000000e+00 0.0000000000000000e+00  0.0000000000000000e+00 0.0000000000000000e+00 0.0000000000000000e+00  0.0000000000000000e+00 0.0000000000000000e+00 0.0000000000000000e+00  0.0000000000000000e+00 0.0000000000000000e+00 0.0000000000000000e+00  0.0000000000000000e+00 0.0000000000000000e+00 0.0000000000000000e+00  0.0000000000000000e+00 0.0000000000000000e+00 0.0000000000000000e+00  0.0000000000000000e+00 0.0000000000000000e+00 0.0000000000000000e+00  0.0000000000000000e+00 0.0000000000000000e+00 0.0000000000000000e+00  0.0000000000000000e+00 0.0000000000000000e+00 0.0000000000000000e+00  0.0000000000000000e+00 0.0000000000000000e+00 0.0000000000000000e+00  0.0000000000000000e+00 0.0000000000000000e+00 0.0000000000000000e+00  0.0000000000000000e+00 0.0000000000000000e+00 0.0000000000000000e+00  0.0000000000000000e+00 0.0000000000000000e+00 0.0000000000000000e+00  0.0000000000000000e+00 0.0000000000000000e+00 0.0000000000000000e+00  0.0000000000000000e+00 0.0000000000000000e+00 0.0000000000000000e+00  0.0000000000000000e+00 0.0000000000000000e+00 0.0000000000000000e+00  0.0000000000000000e+00 0.0000000000000000e+00 0.0000000000000000e+00  0.0000000000000000e+00 0.0000000000000000e+00 0.0000000000000000e+00  0.0000000000000000e+00 0.0000000000000000e+00 0.0000000000000000e+00  0.0000000000000000e+00 0.0000000000000000e+00 0.0000000000000000e+00  0.0000000000000000e+00 0.0000000000000000e+00 0.0000000000000000e+00  0.0000000000000000e+00 0.0000000000000000e+00 0.0000000000000000e+00  0.0000000000000000e+00 0.0000000000000000e+00 0.0000000000000000e+00  0.0000000000000000e+00 0.0000000000000000e+00 0.0000000000000000e+00  0.0000000000000000e+00 0.0000000000000000e+00 0.0000000000000000e+00  0.0000000000000000e+00 0.0000000000000000e+00 0.0000000000000000e+00  0.0000000000000000e+00 0.0000000000000000e+00 0.0000000000000000e+00  0.0000000000000000e+00 0.0000000000000000e+00 0.0000000000000000e+00  0.0000000000000000e+00 0.0000000000000000e+00 0.0000000000000000e+00  0.0000000000000000e+00 0.0000000000000000e+00 0.0000000000000000e+00  0.0000000000000000e+00 0.0000000000000000e+00 0.0000000000000000e+00  0.0000000000000000e+00 0.0000000000000000e+00 0.0000000000000000e+00  0.0000000000000000e+00 0.0000000000000000e+00 0.0000000000000000e+00  0.0000000000000000e+00 0.0000000000000000e+00 0.0000000000000000e+00  0.0000000000000000e+00 0.0000000000000000e+00 0.0000000000000000e+00  0.0000000000000000e+00 0.0000000000000000e+00 0.0000000000000000e+00  0.0000000000000000e+00 0.0000000000000000e+00 0.0000000000000000e+00  0.0000000000000000e+00 0.0000000000000000e+00 0.0000000000000000e+00  0.0000000000000000e+00 0.0000000000000000e+00 0.0000000000000000e+00  0.0000000000000000e+00 0.0000000000000000e+00 0.0000000000000000e+00  0.0000000000000000e+00 0.0000000000000000e+00 0.0000000000000000e+00  0.0000000000000000e+00 0.0000000000000000e+00 0.0000000000000000e+00  0.0000000000000000e+00 0.0000000000000000e+00 0.0000000000000000e+00  0.0000000000000000e+00 0.0000000000000000e+00 0.0000000000000000e+00  0.0000000000000000e+00 0.0000000000000000e+00 0.0000000000000000e+00  0.0000000000000000e+00 0.0000000000000000e+00 0.0000000000000000e+00  0.0000000000000000e+00 0.0000000000000000e+00 0.0000000000000000e+00  0.0000000000000000e+00 0.0000000000000000e+00 0.0000000000000000e+00  0.0000000000000000e+00 0.0000000000000000e+00 0.0000000000000000e+00  0.0000000000000000e+00 0.0000000000000000e+00 0.0000000000000000e+00  0.0000000000000000e+00 0.0000000000000000e+00 0.0000000000000000e+00  0.0000000000000000e+00 0.0000000000000000e+00 0.0000000000000000e+00  0.0000000000000000e+00 0.0000000000000000e+00 0.0000000000000000e+00  0.0000000000000000e+00 0.0000000000000000e+00 0.0000000000000000e+00  0.0000000000000000e+00 0.0000000000000000e+00 0.0000000000000000e+00  0.0000000000000000e+00 0.0000000000000000e+00 0.0000000000000000e+00  0.0000000000000000e+00 0.0000000000000000e+00 0.0000000000000000e+00  0.0000000000000000e+00 0.0000000000000000e+00 0.0000000000000000e+00  0.0000000000000000e+00 0.0000000000000000e+00 0.0000000000000000e+00  0.0000000000000000e+00 0.0000000000000000e+00 0.0000000000000000e+00  0.0000000000000000e+00 0.0000000000000000e+00 0.0000000000000000e+00  0.0000000000000000e+00 0.0000000000000000e+00 0.0000000000000000e+00  0.0000000000000000e+00 0.0000000000000000e+00 0.0000000000000000e+00  0.0000000000000000e+00 0.0000000000000000e+00 0.0000000000000000e+00  0.0000000000000000e+00 0.0000000000000000e+00 0.0000000000000000e+00  0.0000000000000000e+00 0.0000000000000000e+00 0.0000000000000000e+00  0.0000000000000000e+00 0.0000000000000000e+00 0.0000000000000000e+00  0.0000000000000000e+00 0.0000000000000000e+00 0.0000000000000000e+00  8.1349009043157476e+00 0.0000000000000000e+00 0.0000000000000000e+00  8.1569281990082523e+00 1.5105945992286717e-02 0.0000000000000000e+00  8.1480575859921540e+00 -2.3068637919517292e-03 0.0000000000000000e+00  8.1532163938579991e+00 1.0914843353235593e-03 0.0000000000000000e+00  8.1529589603523878e+00 3.3442629757555705e-04 0.0000000000000000e+00  8.1535444432622537e+00 5.5780456585650940e-04 0.0000000000000000e+00  8.1537140451300409e+00 5.6455326396652645e-04 0.0000000000000000e+00  8.1538497593433199e+00 5.9437867363665970e-04 0.0000000000000000e+00  8.1539232488610800e+00 6.0822500475257095e-04 0.0000000000000000e+00  8.1539684062734370e+00 6.1751425663528648e-04 0.0000000000000000e+00  8.1539948016890484e+00 6.2298634349022006e-04 0.0000000000000000e+00  8.1540102909845409e+00 6.2625883558356326e-04 0.0000000000000000e+00  8.1540192724788216e+00 6.2817160684710497e-04 0.0000000000000000e+00  8.1540244637546930e+00 6.2927817906454058e-04 0.0000000000000000e+00  8.1540274617570621e+00 6.2991462111440034e-04 0.0000000000000000e+00  8.1540291985576747e+00 6.3027928468518783e-04 0.0000000000000000e+00  8.1540302109815688e+00 6.3048922882493494e-04 0.0000000000000000e+00  8.1540308059160154e+00 6.3061043729039333e-04 0.0000000000000000e+00  8.1540311589240755e+00 6.3068121901778407e-04 0.0000000000000000e+00  8.1540313704688288e+00 6.3072276952986605e-04 0.0000000000000000e+00  8.1540314986131257e+00 6.3074751008413137e-04 0.0000000000000000e+00  8.1540315770348109e+00 6.3076231140344208e-04 0.0000000000000000e+00  8.1540316255667360e+00 6.3077130414541320e-04 0.0000000000000000e+00  8.1540316559183896e+00 6.3077678698800395e-04 0.0000000000000000e+00  8.1540316751247381e+00 6.3078018459573480e-04 0.0000000000000000e+00  8.1540316874193817e+00 6.3078229890928294e-04 0.0000000000000000e+00  8.1540316953828231e+00 6.3078363631284247e-04 0.0000000000000000e+00  8.1540317006034684e+00 6.3078448630793783e-04 0.0000000000000000e+00  8.1540317040691601e+00 6.3078503652522742e-04 0.0000000000000000e+00  8.1540317064007848e+00 6.3078539449420068e-04 0.0000000000000000e+00  8.1540317079860731e+00 6.3078563098641115e-04 0.0000000000000000e+00  8.1540317090797902e+00 6.3078578769966778e-04 0.0000000000000000e+00  8.1540317098447321e+00 6.3078589531123316e-04 0.0000000000000000e+00  8.1540317103815507e+00 6.3078596658513260e-04 0.0000000000000000e+00  8.1540317107723403e+00 6.3078601935740201e-04 0.0000000000000000e+00  8.1540317110469278e+00 6.3078605066705306e-04 0.0000000000000000e+00  8.1540317112596821e+00 6.3078607970467487e-04 0.0000000000000000e+00  8.1540317114020890e+00 6.3078609085699894e-04 0.0000000000000000e+00  8.1540317115298890e+00 6.3078611332772084e-04 0.0000000000000000e+00  8.1540317115944827e+00 6.3078610921231057e-04 0.0000000000000000e+00  8.1540317116961436e+00 6.3078613460916305e-04 0.0000000000000000e+00  8.1540317116979590e+00 6.3078611433850323e-04 0.0000000000000000e+00  8.1540317118110259e+00 6.3078615102138424e-04 0.0000000000000000e+00  8.1540317117386216e+00 6.3078611337618327e-04 0.0000000000000000e+00  8.1540317119073098e+00 6.3078616186118216e-04 0.0000000000000000e+00  8.1540317117398384e+00 6.3078611604308230e-04 0.0000000000000000e+00  8.1540317120018493e+00 6.3078615041251408e-04 0.0000000000000000e+00  8.1540317117296510e+00 6.3078615343837088e-04 0.0000000000000000e+00  8.1540317120918431e+00 6.3078605645330171e-04 0.0000000000000000e+00  8.1540317118326335e+00 6.3078630119754340e-04 0.0000000000000000e+00  8.1540317121586341e+00 6.3078570486291123e-04 0.0000000000000000e+00  8.1540317125259030e+00 6.3078671613733036e-04 0.0000000000000000e+00  8.1540317123566446e+00 6.3078459240953116e-04 0.0000000000000000e+00  8.1540317156918292e+00 6.3078753140383831e-04 0.0000000000000000e+00  8.1540317145539323e+00 6.3078111310781615e-04 0.0000000000000000e+00  8.1540317296470466e+00 6.3078763808954708e-04 0.0000000000000000e+00  8.1540317323770424e+00 6.3076859376156723e-04 0.0000000000000000e+00  8.1540317955738786e+00 6.3077751081302351e-04 0.0000000000000000e+00  8.1540318445265942e+00 6.3071859325988192e-04 0.0000000000000000e+00  8.1540321029125042e+00 6.3071692678329282e-04 0.0000000000000000e+00  8.1540324060505132e+00 6.3054085325850581e-04 0.0000000000000000e+00  8.1540334679325710e+00 6.3044261630684111e-04 0.0000000000000000e+00  8.1540354613185446e+00 6.2957212892887876e-04 0.0000000000000000e+00  8.1540426850867735e+00 6.2728592468602458e-04 0.0000000000000000e+00  8.1540639918436515e+00 6.1784518522666843e-04 0.0000000000000000e+00  8.1541323850078431e+00 5.9133314674738051e-04 0.0000000000000000e+00  8.1543160656558928e+00 5.2197378294971332e-04 0.0000000000000000e+00  8.1547628154359657e+00 3.8117167143424243e-04 0.0000000000000000e+00  8.1556748492150763e+00 1.4388364933695343e-04 0.0000000000000000e+00  8.1572611284597425e+00 -1.3143082824250605e-04 0.0000000000000000e+00  8.1594377116119432e+00 -2.9726105915899373e-04 0.0000000000000000e+00  8.1617106453191237e+00 -1.6324029964205370e-04 0.0000000000000000e+00  8.1632912232847055e+00 2.1488075427989552e-04 0.0000000000000000e+00  8.1637601011870711e+00 8.5151491293634397e-04 0.0000000000000000e+00  8.1623431832868398e+00 1.8500070831566930e-03 0.0000000000000000e+00  8.1582583056735896e+00 3.2484499385148028e-03 0.0000000000000000e+00  8.1507114780882066e+00 4.5734785394742610e-03 0.0000000000000000e+00  8.1402827396847570e+00 4.7989508789594839e-03 0.0000000000000000e+00  8.1293388391956931e+00 3.3101442584714666e-03 0.0000000000000000e+00  8.1108236610292881e+00 -1.4068760531286759e-02 0.0000000000000000e+00  8.0513681930000072e+00 0.0000000000000000e+00 0.0000000000000000e+00  1.8334600322924024e+00 0.0000000000000000e+00 0.0000000000000000e+00  1.8229996695432169e+00 -9.2940621972248672e-03 0.0000000000000000e+00  1.8327019289503490e+00 -4.6333785181957855e-04 0.0000000000000000e+00  1.8326036782281043e+00 -1.8195639203159278e-03 0.0000000000000000e+00  1.8330811038416086e+00 -1.0708224354895285e-03 0.0000000000000000e+00  1.8331880679056556e+00 -9.6635697065594302e-04 0.0000000000000000e+00  1.8332603167682844e+00 -8.4571818244665335e-04 0.0000000000000000e+00  1.8332967308222574e+00 -7.9025795170253117e-04 0.0000000000000000e+00  1.8333181086349424e+00 -7.5524690793755695e-04 0.0000000000000000e+00  1.8333306320135465e+00 -7.3475380063978233e-04 0.0000000000000000e+00  1.8333380635822625e+00 -7.2237868553777875e-04 0.0000000000000000e+00  1.8333424509350646e+00 -7.1503751339140162e-04 0.0000000000000000e+00  1.8333450241578459e+00 -7.1072439371039256e-04 0.0000000000000000e+00  1.8333465269312812e+00 -7.0821875378550682e-04 0.0000000000000000e+00  1.8333474020761846e+00 -7.0677341861668532e-04 0.0000000000000000e+00  1.8333479128695938e+00 -7.0594223724491901e-04 0.0000000000000000e+00  1.8333482120589826e+00 -7.0546365107971199e-04 0.0000000000000000e+00  1.8333483888474396e+00 -7.0518681158757818e-04 0.0000000000000000e+00  1.8333484941475378e+00 -7.0502545313014264e-04 0.0000000000000000e+00  1.8333485576290409e+00 -7.0493060173722395e-04 0.0000000000000000e+00  1.8333485962794775e+00 -7.0487426758676446e-04 0.0000000000000000e+00  1.8333486201183495e+00 -7.0484050496448655e-04 0.0000000000000000e+00  1.8333486349752455e+00 -7.0482004271230471e-04 0.0000000000000000e+00  1.8333486443563876e+00 -7.0480753903253302e-04 0.0000000000000000e+00  1.8333486503411738e+00 -7.0479980276632801e-04 0.0000000000000000e+00  1.8333486542200292e+00 -7.0479498181980820e-04 0.0000000000000000e+00  1.8333486567551456e+00 -7.0479193142964378e-04 0.0000000000000000e+00  1.8333486584334426e+00 -7.0478999100189105e-04 0.0000000000000000e+00  1.8333486595640940e+00 -7.0478873502459428e-04 0.0000000000000000e+00  1.8333486603327547e+00 -7.0478791776991412e-04 0.0000000000000000e+00  1.8333486608596932e+00 -7.0478737680741645e-04 0.0000000000000000e+00  1.8333486612290413e+00 -7.0478701663319071e-04 0.0000000000000000e+00  1.8333486614934318e+00 -7.0478677273299087e-04 0.0000000000000000e+00  1.8333486616847920e+00 -7.0478660383524482e-04 0.0000000000000000e+00  1.8333486618131740e+00 -7.0478649316826111e-04 0.0000000000000000e+00  1.8333486619228132e+00 -7.0478640897325630e-04 0.0000000000000000e+00  1.8333486619798998e+00 -7.0478635896392867e-04 0.0000000000000000e+00  1.8333486620620287e+00 -7.0478630662203939e-04 0.0000000000000000e+00  1.8333486620675179e+00 -7.0478629317663097e-04 0.0000000000000000e+00  1.8333486621540143e+00 -7.0478624969694389e-04 0.0000000000000000e+00  1.8333486621011650e+00 -7.0478626480790423e-04 0.0000000000000000e+00  1.8333486622366797e+00 -7.0478620824460125e-04 0.0000000000000000e+00  1.8333486620942558e+00 -7.0478625691569694e-04 0.0000000000000000e+00  1.8333486623187747e+00 -7.0478617720056899e-04 0.0000000000000000e+00  1.8333486620562074e+00 -7.0478626266183304e-04 0.0000000000000000e+00  1.8333486623995849e+00 -7.0478616233021546e-04 0.0000000000000000e+00  1.8333486620326709e+00 -7.0478625424198174e-04 0.0000000000000000e+00  1.8333486624347053e+00 -7.0478621232134974e-04 0.0000000000000000e+00  1.8333486621977702e+00 -7.0478617504937387e-04 0.0000000000000000e+00  1.8333486622381463e+00 -7.0478651020778292e-04 0.0000000000000000e+00  1.8333486631432401e+00 -7.0478592232317951e-04 0.0000000000000000e+00  1.8333486614782726e+00 -7.0478764868658948e-04 0.0000000000000000e+00  1.8333486668545778e+00 -7.0478553230304342e-04 0.0000000000000000e+00  1.8333486603307678e+00 -7.0479176203242855e-04 0.0000000000000000e+00  1.8333486804567125e+00 -7.0478689652005741e-04 0.0000000000000000e+00  1.8333486649527801e+00 -7.0480803086152039e-04 0.0000000000000000e+00  1.8333487336283856e+00 -7.0480473887072498e-04 0.0000000000000000e+00  1.8333487197501455e+00 -7.0488006689994973e-04 0.0000000000000000e+00  1.8333489630834312e+00 -7.0491877140622483e-04 0.0000000000000000e+00  1.8333490853929286e+00 -7.0519461741712309e-04 0.0000000000000000e+00  1.8333500989476437e+00 -7.0550123117432641e-04 0.0000000000000000e+00  1.8333515938905502e+00 -7.0679814206732873e-04 0.0000000000000000e+00  1.8333577485114030e+00 -7.0989659910141052e-04 0.0000000000000000e+00  1.8333725131654610e+00 -7.2138801024060936e-04 0.0000000000000000e+00  1.8334179227731531e+00 -7.5453713445439586e-04 0.0000000000000000e+00  1.8335272943468963e+00 -8.4715169818605669e-04 0.0000000000000000e+00  1.8337888189544240e+00 -1.0592060629265282e-03 0.0000000000000000e+00  1.8343129376029770e+00 -1.4813955701950803e-03 0.0000000000000000e+00  1.8352663739990227e+00 -2.1370121542495573e-03 0.0000000000000000e+00  1.8366234586781069e+00 -2.8474463423206237e-03 0.0000000000000000e+00  1.8380852709083735e+00 -3.0794342207257105e-03 0.0000000000000000e+00  1.8390315294041808e+00 -2.5533367679237344e-03 0.0000000000000000e+00  1.8395447063966492e+00 -1.6206063377557727e-03 0.0000000000000000e+00  1.8396490929951754e+00 -2.9654473936563397e-04 0.0000000000000000e+00  1.8395189606725879e+00 1.9772219503954398e-03 0.0000000000000000e+00  1.8387765924940969e+00 4.8190551543604966e-03 0.0000000000000000e+00  1.8381567735180044e+00 7.9116745269749676e-03 0.0000000000000000e+00  1.8359383387252795e+00 1.0212939273416415e-02 0.0000000000000000e+00  1.8334270754988444e+00 8.7056521758965590e-03 0.0000000000000000e+00  1.8261194188334959e+00 1.2075672769489751e-02 0.0000000000000000e+00  1.8204317598821598e+00 0.0000000000000000e+00 0.0000000000000000e+00  -1.1216017519433719e+00 0.0000000000000000e+00 0.0000000000000000e+00  -1.1289433425257136e+00 -1.9661642264851573e-03 0.0000000000000000e+00  -1.1311699883522053e+00 -9.4463484747754807e-04 0.0000000000000000e+00  -1.1321706541990728e+00 -2.2258804532649924e-04 0.0000000000000000e+00  -1.1327231383506000e+00 3.2803174591845800e-05 0.0000000000000000e+00  -1.1330298087722075e+00 1.9760808813343102e-04 0.0000000000000000e+00  -1.1332036648345425e+00 2.7814915679842147e-04 0.0000000000000000e+00  -1.1333055492355240e+00 3.2451253522391662e-04 0.0000000000000000e+00  -1.1333658930493338e+00 3.5102155985893425e-04 0.0000000000000000e+00  -1.1334017537667698e+00 3.6686312963544934e-04 0.0000000000000000e+00  -1.1334229211449001e+00 3.7632667049111197e-04 0.0000000000000000e+00  -1.1334353169833875e+00 3.8196002196291720e-04 0.0000000000000000e+00  -1.1334425199495608e+00 3.8526756064889391e-04 0.0000000000000000e+00  -1.1334466882640508e+00 3.8719414103108730e-04 0.0000000000000000e+00  -1.1334490978226714e+00 3.8830612196052061e-04 0.0000000000000000e+00  -1.1334504954244005e+00 3.8894772691379809e-04 0.0000000000000000e+00  -1.1334513104724868e+00 3.8931720830533845e-04 0.0000000000000000e+00  -1.1334517899282439e+00 3.8953163841698630e-04 0.0000000000000000e+00  -1.1334520744566228e+00 3.8965647885576596e-04 0.0000000000000000e+00  -1.1334522451538207e+00 3.8973012175459439e-04 0.0000000000000000e+00  -1.1334523485589183e+00 3.8977377538622051e-04 0.0000000000000000e+00  -1.1334524119321130e+00 3.8980005137205238e-04 0.0000000000000000e+00  -1.1334524511540978e+00 3.8981593944368415e-04 0.0000000000000000e+00  -1.1334524757248723e+00 3.8982569919484997e-04 0.0000000000000000e+00  -1.1334524912734711e+00 3.8983172658268702e-04 0.0000000000000000e+00  -1.1334525012453063e+00 3.8983550549576184e-04 0.0000000000000000e+00  -1.1334525077074373e+00 3.8983789041063235e-04 0.0000000000000000e+00  -1.1334525119534973e+00 3.8983941707166118e-04 0.0000000000000000e+00  -1.1334525147736481e+00 3.8984040306548064e-04 0.0000000000000000e+00  -1.1334525166757632e+00 3.8984104869919993e-04 0.0000000000000000e+00  -1.1334525179725632e+00 3.8984147582589549e-04 0.0000000000000000e+00  -1.1334525188606124e+00 3.8984175973857878e-04 0.0000000000000000e+00  -1.1334525194835039e+00 3.8984195359986317e-04 0.0000000000000000e+00  -1.1334525199325487e+00 3.8984208534064969e-04 0.0000000000000000e+00  -1.1334525202405923e+00 3.8984218103904508e-04 0.0000000000000000e+00  -1.1334525204819641e+00 3.8984224036056083e-04 0.0000000000000000e+00  -1.1334525206328272e+00 3.8984229339754687e-04 0.0000000000000000e+00  -1.1334525207890200e+00 3.8984231498690548e-04 0.0000000000000000e+00  -1.1334525208375896e+00 3.8984235555779496e-04 0.0000000000000000e+00  -1.1334525209782271e+00 3.8984