<?xml version="1.0"?>
<VTKFile type="UnstructuredGrid"  version="0.1"  >
<UnstructuredGrid>
<Piece  NumberOfPoints="1369" NumberOfCells="2560">
<Points>
<DataArray  type="Float64"  NumberOfComponents="3"  format="ascii">0 0 0  0.75 0 0  1.5 0 0  2.25 0 0  3 0 0  3.75 0 0  4.5 0 0  5.25 0 0  6 0 0  6.75 0 0  7.5 0 0  8.25 0 0  9 0 0  9.75 0 0  10.5 0 0  11.25 0 0  12 0 0  12.75 0 0  13.5 0 0  14.25 0 0  15 0 0  15.75 0 0  16.5 0 0  17.25 0 0  18 0 0  18.75 0 0  19.5 0 0  20.25 0 0  21 0 0  21.75 0 0  22.5 0 0  23.25 0 0  24 0 0  24.75 0 0  25.5 0 0  26.25 0 0  27 0 0  27.75 0 0  28.5 0 0  29.25 0 0  30 0 0  30.75 0 0  31.5 0 0  32.25 0 0  33 0 0  33.75 0 0  34.5 0 0  35.25 0 0  36 0 0  36.75 0 0  37.5 0 0  38.25 0 0  39 0 0  39.75 0 0  40.5 0 0  41.25 0 0  42 0 0  42.75 0 0  43.5 0 0  44.25 0 0  45 0 0  45.75 0 0  46.5 0 0  47.25 0 0  48 0 0  48.75 0 0  49.5 0 0  50.25 0 0  51 0 0  51.75 0 0  52.5 0 0  53.25 0 0  54 0 0  54.75 0 0  55.5 0 0  56.25 0 0  57 0 0  57.75 0 0  58.5 0 0  59.25 0 0  60 0 0  0 0.5 0  0.75 0.5 0  1.5 0.5 0  2.25 0.5 0  3 0.5 0  3.75 0.5 0  4.5 0.5 0  5.25 0.5 0  6 0.5 0  6.75 0.5 0  7.5 0.5 0  8.25 0.5 0  9 0.5 0  9.75 0.5 0  10.5 0.5 0  11.25 0.5 0  12 0.5 0  12.75 0.5 0  13.5 0.5 0  14.25 0.5 0  15 0.5 0  15.75 0.5 0  16.5 0.5 0  17.25 0.5 0  18 0.5 0  18.75 0.5 0  19.5 0.5 0  20.25 0.5 0  21 0.5 0  21.75 0.5 0  22.5 0.5 0  23.25 0.5 0  24 0.5 0  24.75 0.5 0  25.5 0.5 0  26.25 0.5 0  27 0.5 0  27.75 0.5 0  28.5 0.5 0  29.25 0.5 0  30 0.5 0  30.75 0.5 0  31.5 0.5 0  32.25 0.5 0  33 0.5 0  33.75 0.5 0  34.5 0.5 0  35.25 0.5 0  36 0.5 0  36.75 0.5 0  37.5 0.5 0  38.25 0.5 0  39 0.5 0  39.75 0.5 0  40.5 0.5 0  41.25 0.5 0  42 0.5 0  42.75 0.5 0  43.5 0.5 0  44.25 0.5 0  45 0.5 0  45.75 0.5 0  46.5 0.5 0  47.25 0.5 0  48 0.5 0  48.75 0.5 0  49.5 0.5 0  50.25 0.5 0  51 0.5 0  51.75 0.5 0  52.5 0.5 0  53.25 0.5 0  54 0.5 0  54.75 0.5 0  55.5 0.5 0  56.25 0.5 0  57 0.5 0  57.75 0.5 0  58.5 0.5 0  59.25 0.5 0  60 0.5 0  0 1 0  0.75 1 0  1.5 1 0  2.25 1 0  3 1 0  3.75 1 0  4.5 1 0  5.25 1 0  6 1 0  6.75 1 0  7.5 1 0  8.25 1 0  9 1 0  9.75 1 0  10.5 1 0  11.25 1 0  12 1 0  12.75 1 0  13.5 1 0  14.25 1 0  15 1 0  15.75 1 0  16.5 1 0  17.25 1 0  18 1 0  18.75 1 0  19.5 1 0  20.25 1 0  21 1 0  21.75 1 0  22.5 1 0  23.25 1 0  24 1 0  24.75 1 0  25.5 1 0  26.25 1 0  27 1 0  27.75 1 0  28.5 1 0  29.25 1 0  30 1 0  30.75 1 0  31.5 1 0  32.25 1 0  33 1 0  33.75 1 0  34.5 1 0  35.25 1 0  36 1 0  36.75 1 0  37.5 1 0  38.25 1 0  39 1 0  39.75 1 0  40.5 1 0  41.25 1 0  42 1 0  42.75 1 0  43.5 1 0  44.25 1 0  45 1 0  45.75 1 0  46.5 1 0  47.25 1 0  48 1 0  48.75 1 0  49.5 1 0  50.25 1 0  51 1 0  51.75 1 0  52.5 1 0  53.25 1 0  54 1 0  54.75 1 0  55.5 1 0  56.25 1 0  57 1 0  57.75 1 0  58.5 1 0  59.25 1 0  60 1 0  0 1.5 0  0.75 1.5 0  1.5 1.5 0  2.25 1.5 0  3 1.5 0  3.75 1.5 0  4.5 1.5 0  5.25 1.5 0  6 1.5 0  6.75 1.5 0  7.5 1.5 0  8.25 1.5 0  9 1.5 0  9.75 1.5 0  10.5 1.5 0  11.25 1.5 0  12 1.5 0  12.75 1.5 0  13.5 1.5 0  14.25 1.5 0  15 1.5 0  15.75 1.5 0  16.5 1.5 0  17.25 1.5 0  18 1.5 0  18.75 1.5 0  19.5 1.5 0  20.25 1.5 0  21 1.5 0  21.75 1.5 0  22.5 1.5 0  23.25 1.5 0  24 1.5 0  24.75 1.5 0  25.5 1.5 0  26.25 1.5 0  27 1.5 0  27.75 1.5 0  28.5 1.5 0  29.25 1.5 0  30 1.5 0  30.75 1.5 0  31.5 1.5 0  32.25 1.5 0  33 1.5 0  33.75 1.5 0  34.5 1.5 0  35.25 1.5 0  36 1.5 0  36.75 1.5 0  37.5 1.5 0  38.25 1.5 0  39 1.5 0  39.75 1.5 0  40.5 1.5 0  41.25 1.5 0  42 1.5 0  42.75 1.5 0  43.5 1.5 0  44.25 1.5 0  45 1.5 0  45.75 1.5 0  46.5 1.5 0  47.25 1.5 0  48 1.5 0  48.75 1.5 0  49.5 1.5 0  50.25 1.5 0  51 1.5 0  51.75 1.5 0  52.5 1.5 0  53.25 1.5 0  54 1.5 0  54.75 1.5 0  55.5 1.5 0  56.25 1.5 0  57 1.5 0  57.75 1.5 0  58.5 1.5 0  59.25 1.5 0  60 1.5 0  0 2 0  0.75 2 0  1.5 2 0  2.25 2 0  3 2 0  3.75 2 0  4.5 2 0  5.25 2 0  6 2 0  6.75 2 0  7.5 2 0  8.25 2 0  9 2 0  9.75 2 0  10.5 2 0  11.25 2 0  12 2 0  12.75 2 0  13.5 2 0  14.25 2 0  15 2 0  15.75 2 0  16.5 2 0  17.25 2 0  18 2 0  18.75 2 0  19.5 2 0  20.25 2 0  21 2 0  21.75 2 0  22.5 2 0  23.25 2 0  24 2 0  24.75 2 0  25.5 2 0  26.25 2 0  27 2 0  27.75 2 0  28.5 2 0  29.25 2 0  30 2 0  30.75 2 0  31.5 2 0  32.25 2 0  33 2 0  33.75 2 0  34.5 2 0  35.25 2 0  36 2 0  36.75 2 0  37.5 2 0  38.25 2 0  39 2 0  39.75 2 0  40.5 2 0  41.25 2 0  42 2 0  42.75 2 0  43.5 2 0  44.25 2 0  45 2 0  45.75 2 0  46.5 2 0  47.25 2 0  48 2 0  48.75 2 0  49.5 2 0  50.25 2 0  51 2 0  51.75 2 0  52.5 2 0  53.25 2 0  54 2 0  54.75 2 0  55.5 2 0  56.25 2 0  57 2 0  57.75 2 0  58.5 2 0  59.25 2 0  60 2 0  0 2.5 0  0.75 2.5 0  1.5 2.5 0  2.25 2.5 0  3 2.5 0  3.75 2.5 0  4.5 2.5 0  5.25 2.5 0  6 2.5 0  6.75 2.5 0  7.5 2.5 0  8.25 2.5 0  9 2.5 0  9.75 2.5 0  10.5 2.5 0  11.25 2.5 0  12 2.5 0  12.75 2.5 0  13.5 2.5 0  14.25 2.5 0  15 2.5 0  15.75 2.5 0  16.5 2.5 0  17.25 2.5 0  18 2.5 0  18.75 2.5 0  19.5 2.5 0  20.25 2.5 0  21 2.5 0  21.75 2.5 0  22.5 2.5 0  23.25 2.5 0  24 2.5 0  24.75 2.5 0  25.5 2.5 0  26.25 2.5 0  27 2.5 0  27.75 2.5 0  28.5 2.5 0  29.25 2.5 0  30 2.5 0  30.75 2.5 0  31.5 2.5 0  32.25 2.5 0  33 2.5 0  33.75 2.5 0  34.5 2.5 0  35.25 2.5 0  36 2.5 0  36.75 2.5 0  37.5 2.5 0  38.25 2.5 0  39 2.5 0  39.75 2.5 0  40.5 2.5 0  41.25 2.5 0  42 2.5 0  42.75 2.5 0  43.5 2.5 0  44.25 2.5 0  45 2.5 0  45.75 2.5 0  46.5 2.5 0  47.25 2.5 0  48 2.5 0  48.75 2.5 0  49.5 2.5 0  50.25 2.5 0  51 2.5 0  51.75 2.5 0  52.5 2.5 0  53.25 2.5 0  54 2.5 0  54.75 2.5 0  55.5 2.5 0  56.25 2.5 0  57 2.5 0  57.75 2.5 0  58.5 2.5 0  59.25 2.5 0  60 2.5 0  0 3 0  0.75 3 0  1.5 3 0  2.25 3 0  3 3 0  3.75 3 0  4.5 3 0  5.25 3 0  6 3 0  6.75 3 0  7.5 3 0  8.25 3 0  9 3 0  9.75 3 0  10.5 3 0  11.25 3 0  12 3 0  12.75 3 0  13.5 3 0  14.25 3 0  15 3 0  15.75 3 0  16.5 3 0  17.25 3 0  18 3 0  18.75 3 0  19.5 3 0  20.25 3 0  21 3 0  21.75 3 0  22.5 3 0  23.25 3 0  24 3 0  24.75 3 0  25.5 3 0  26.25 3 0  27 3 0  27.75 3 0  28.5 3 0  29.25 3 0  30 3 0  30.75 3 0  31.5 3 0  32.25 3 0  33 3 0  33.75 3 0  34.5 3 0  35.25 3 0  36 3 0  36.75 3 0  37.5 3 0  38.25 3 0  39 3 0  39.75 3 0  40.5 3 0  41.25 3 0  42 3 0  42.75 3 0  43.5 3 0  44.25 3 0  45 3 0  45.75 3 0  46.5 3 0  47.25 3 0  48 3 0  48.75 3 0  49.5 3 0  50.25 3 0  51 3 0  51.75 3 0  52.5 3 0  53.25 3 0  54 3 0  54.75 3 0  55.5 3 0  56.25 3 0  57 3 0  57.75 3 0  58.5 3 0  59.25 3 0  60 3 0  0 3.5 0  0.75 3.5 0  1.5 3.5 0  2.25 3.5 0  3 3.5 0  3.75 3.5 0  4.5 3.5 0  5.25 3.5 0  6 3.5 0  6.75 3.5 0  7.5 3.5 0  8.25 3.5 0  9 3.5 0  9.75 3.5 0  10.5 3.5 0  11.25 3.5 0  12 3.5 0  12.75 3.5 0  13.5 3.5 0  14.25 3.5 0  15 3.5 0  15.75 3.5 0  16.5 3.5 0  17.25 3.5 0  18 3.5 0  18.75 3.5 0  19.5 3.5 0  20.25 3.5 0  21 3.5 0  21.75 3.5 0  22.5 3.5 0  23.25 3.5 0  24 3.5 0  24.75 3.5 0  25.5 3.5 0  26.25 3.5 0  27 3.5 0  27.75 3.5 0  28.5 3.5 0  29.25 3.5 0  30 3.5 0  30.75 3.5 0  31.5 3.5 0  32.25 3.5 0  33 3.5 0  33.75 3.5 0  34.5 3.5 0  35.25 3.5 0  36 3.5 0  36.75 3.5 0  37.5 3.5 0  38.25 3.5 0  39 3.5 0  39.75 3.5 0  40.5 3.5 0  41.25 3.5 0  42 3.5 0  42.75 3.5 0  43.5 3.5 0  44.25 3.5 0  45 3.5 0  45.75 3.5 0  46.5 3.5 0  47.25 3.5 0  48 3.5 0  48.75 3.5 0  49.5 3.5 0  50.25 3.5 0  51 3.5 0  51.75 3.5 0  52.5 3.5 0  53.25 3.5 0  54 3.5 0  54.75 3.5 0  55.5 3.5 0  56.25 3.5 0  57 3.5 0  57.75 3.5 0  58.5 3.5 0  59.25 3.5 0  60 3.5 0  0 4 0  0.75 4 0  1.5 4 0  2.25 4 0  3 4 0  3.75 4 0  4.5 4 0  5.25 4 0  6 4 0  6.75 4 0  7.5 4 0  8.25 4 0  9 4 0  9.75 4 0  10.5 4 0  11.25 4 0  12 4 0  12.75 4 0  13.5 4 0  14.25 4 0  15 4 0  15.75 4 0  16.5 4 0  17.25 4 0  18 4 0  18.75 4 0  19.5 4 0  20.25 4 0  21 4 0  21.75 4 0  22.5 4 0  23.25 4 0  24 4 0  24.75 4 0  25.5 4 0  26.25 4 0  27 4 0  27.75 4 0  28.5 4 0  29.25 4 0  30 4 0  30.75 4 0  31.5 4 0  32.25 4 0  33 4 0  33.75 4 0  34.5 4 0  35.25 4 0  36 4 0  36.75 4 0  37.5 4 0  38.25 4 0  39 4 0  39.75 4 0  40.5 4 0  41.25 4 0  42 4 0  42.75 4 0  43.5 4 0  44.25 4 0  45 4 0  45.75 4 0  46.5 4 0  47.25 4 0  48 4 0  48.75 4 0  49.5 4 0  50.25 4 0  51 4 0  51.75 4 0  52.5 4 0  53.25 4 0  54 4 0  54.75 4 0  55.5 4 0  56.25 4 0  57 4 0  57.75 4 0  58.5 4 0  59.25 4 0  60 4 0  0.375 0.25 0  1.125 0.25 0  1.875 0.25 0  2.625 0.25 0  3.375 0.25 0  4.125 0.25 0  4.875 0.25 0  5.625 0.25 0  6.375 0.25 0  7.125 0.25 0  7.875 0.25 0  8.625 0.25 0  9.375 0.25 0  10.125 0.25 0  10.875 0.25 0  11.625 0.25 0  12.375 0.25 0  13.125 0.25 0  13.875 0.25 0  14.625 0.25 0  15.375 0.25 0  16.125 0.25 0  16.875 0.25 0  17.625 0.25 0  18.375 0.25 0  19.125 0.25 0  19.875 0.25 0  20.625 0.25 0  21.375 0.25 0  22.125 0.25 0  22.875 0.25 0  23.625 0.25 0  24.375 0.25 0  25.125 0.25 0  25.875 0.25 0  26.625 0.25 0  27.375 0.25 0  28.125 0.25 0  28.875 0.25 0  29.625 0.25 0  30.375 0.25 0  31.125 0.25 0  31.875 0.25 0  32.625 0.25 0  33.375 0.25 0  34.125 0.25 0  34.875 0.25 0  35.625 0.25 0  36.375 0.25 0  37.125 0.25 0  37.875 0.25 0  38.625 0.25 0  39.375 0.25 0  40.125 0.25 0  40.875 0.25 0  41.625 0.25 0  42.375 0.25 0  43.125 0.25 0  43.875 0.25 0  44.625 0.25 0  45.375 0.25 0  46.125 0.25 0  46.875 0.25 0  47.625 0.25 0  48.375 0.25 0  49.125 0.25 0  49.875 0.25 0  50.625 0.25 0  51.375 0.25 0  52.125 0.25 0  52.875 0.25 0  53.625 0.25 0  54.375 0.25 0  55.125 0.25 0  55.875 0.25 0  56.625 0.25 0  57.375 0.25 0  58.125 0.25 0  58.875 0.25 0  59.625 0.25 0  0.375 0.75 0  1.125 0.75 0  1.875 0.75 0  2.625 0.75 0  3.375 0.75 0  4.125 0.75 0  4.875 0.75 0  5.625 0.75 0  6.375 0.75 0  7.125 0.75 0  7.875 0.75 0  8.625 0.75 0  9.375 0.75 0  10.125 0.75 0  10.875 0.75 0  11.625 0.75 0  12.375 0.75 0  13.125 0.75 0  13.875 0.75 0  14.625 0.75 0  15.375 0.75 0  16.125 0.75 0  16.875 0.75 0  17.625 0.75 0  18.375 0.75 0  19.125 0.75 0  19.875 0.75 0  20.625 0.75 0  21.375 0.75 0  22.125 0.75 0  22.875 0.75 0  23.625 0.75 0  24.375 0.75 0  25.125 0.75 0  25.875 0.75 0  26.625 0.75 0  27.375 0.75 0  28.125 0.75 0  28.875 0.75 0  29.625 0.75 0  30.375 0.75 0  31.125 0.75 0  31.875 0.75 0  32.625 0.75 0  33.375 0.75 0  34.125 0.75 0  34.875 0.75 0  35.625 0.75 0  36.375 0.75 0  37.125 0.75 0  37.875 0.75 0  38.625 0.75 0  39.375 0.75 0  40.125 0.75 0  40
[...]
<PointData  Vectors="f_8-0"> 
<DataArray  type="Float64"  Name="f_8-0"  NumberOfComponents="3" format="ascii">0.0000000000000000e+00 0.0000000000000000e+00 0.0000000000000000e+00  0.0000000000000000e+00 0.0000000000000000e+00 0.0000000000000000e+00  0.0000000000000000e+00 0.0000000000000000e+00 0.0000000000000000e+00  0.0000000000000000e+00 0.0000000000000000e+00 0.0000000000000000e+00  0.0000000000000000e+00 0.0000000000000000e+00 0.0000000000000000e+00  0.0000000000000000e+00 0.0000000000000000e+00 0.0000000000000000e+00  0.0000000000000000e+00 0.0000000000000000e+00 0.0000000000000000e+00  0.0000000000000000e+00 0.0000000000000000e+00 0.0000000000000000e+00  0.0000000000000000e+00 0.0000000000000000e+00 0.0000000000000000e+00  0.0000000000000000e+00 0.0000000000000000e+00 0.0000000000000000e+00  0.0000000000000000e+00 0.0000000000000000e+00 0.0000000000000000e+00  0.0000000000000000e+00 0.0000000000000000e+00 0.0000000000000000e+00  0.0000000000000000e+00 0.0000000000000000e+00 0.0000000000000000e+00  0.0000000000000000e+00 0.0000000000000000e+00 0.0000000000000000e+00  0.0000000000000000e+00 0.0000000000000000e+00 0.0000000000000000e+00  0.0000000000000000e+00 0.0000000000000000e+00 0.0000000000000000e+00  0.0000000000000000e+00 0.0000000000000000e+00 0.0000000000000000e+00  0.0000000000000000e+00 0.0000000000000000e+00 0.0000000000000000e+00  0.0000000000000000e+00 0.0000000000000000e+00 0.0000000000000000e+00  0.0000000000000000e+00 0.0000000000000000e+00 0.0000000000000000e+00  0.0000000000000000e+00 0.0000000000000000e+00 0.0000000000000000e+00  0.0000000000000000e+00 0.0000000000000000e+00 0.0000000000000000e+00  0.0000000000000000e+00 0.0000000000000000e+00 0.0000000000000000e+00  0.0000000000000000e+00 0.0000000000000000e+00 0.0000000000000000e+00  0.0000000000000000e+00 0.0000000000000000e+00 0.0000000000000000e+00  0.0000000000000000e+00 0.0000000000000000e+00 0.0000000000000000e+00  0.0000000000000000e+00 0.0000000000000000e+00 0.0000000000000000e+00  0.0000000000000000e+00 0.0000000000000000e+00 0.0000000000000000e+00  0.0000000000000000e+00 0.0000000000000000e+00 0.0000000000000000e+00  0.0000000000000000e+00 0.0000000000000000e+00 0.0000000000000000e+00  0.0000000000000000e+00 0.0000000000000000e+00 0.0000000000000000e+00  0.0000000000000000e+00 0.0000000000000000e+00 0.0000000000000000e+00  0.0000000000000000e+00 0.0000000000000000e+00 0.0000000000000000e+00  0.0000000000000000e+00 0.0000000000000000e+00 0.0000000000000000e+00  0.0000000000000000e+00 0.0000000000000000e+00 0.0000000000000000e+00  0.0000000000000000e+00 0.0000000000000000e+00 0.0000000000000000e+00  0.0000000000000000e+00 0.0000000000000000e+00 0.0000000000000000e+00  0.0000000000000000e+00 0.0000000000000000e+00 0.0000000000000000e+00  0.0000000000000000e+00 0.0000000000000000e+00 0.0000000000000000e+00  0.0000000000000000e+00 0.0000000000000000e+00 0.0000000000000000e+00  0.0000000000000000e+00 0.0000000000000000e+00 0.0000000000000000e+00  0.0000000000000000e+00 0.0000000000000000e+00 0.0000000000000000e+00  0.0000000000000000e+00 0.0000000000000000e+00 0.0000000000000000e+00  0.0000000000000000e+00 0.0000000000000000e+00 0.0000000000000000e+00  0.0000000000000000e+00 0.0000000000000000e+00 0.0000000000000000e+00  0.0000000000000000e+00 0.0000000000000000e+00 0.0000000000000000e+00  0.0000000000000000e+00 0.0000000000000000e+00 0.0000000000000000e+00  0.0000000000000000e+00 0.0000000000000000e+00 0.0000000000000000e+00  0.0000000000000000e+00 0.0000000000000000e+00 0.0000000000000000e+00  0.0000000000000000e+00 0.0000000000000000e+00 0.0000000000000000e+00  0.0000000000000000e+00 0.0000000000000000e+00 0.0000000000000000e+00  0.0000000000000000e+00 0.0000000000000000e+00 0.0000000000000000e+00  0.0000000000000000e+00 0.0000000000000000e+00 0.0000000000000000e+00  0.0000000000000000e+00 0.0000000000000000e+00 0.0000000000000000e+00  0.0000000000000000e+00 0.0000000000000000e+00 0.0000000000000000e+00  0.0000000000000000e+00 0.0000000000000000e+00 0.0000000000000000e+00  0.0000000000000000e+00 0.0000000000000000e+00 0.0000000000000000e+00  0.0000000000000000e+00 0.0000000000000000e+00 0.0000000000000000e+00  0.0000000000000000e+00 0.0000000000000000e+00 0.0000000000000000e+00  0.0000000000000000e+00 0.0000000000000000e+00 0.0000000000000000e+00  0.0000000000000000e+00 0.0000000000000000e+00 0.0000000000000000e+00  0.0000000000000000e+00 0.0000000000000000e+00 0.0000000000000000e+00  0.0000000000000000e+00 0.0000000000000000e+00 0.0000000000000000e+00  0.0000000000000000e+00 0.0000000000000000e+00 0.0000000000000000e+00  0.0000000000000000e+00 0.0000000000000000e+00 0.0000000000000000e+00  0.0000000000000000e+00 0.0000000000000000e+00 0.0000000000000000e+00  0.0000000000000000e+00 0.0000000000000000e+00 0.0000000000000000e+00  0.0000000000000000e+00 0.0000000000000000e+00 0.0000000000000000e+00  0.0000000000000000e+00 0.0000000000000000e+00 0.0000000000000000e+00  0.0000000000000000e+00 0.0000000000000000e+00 0.0000000000000000e+00  0.0000000000000000e+00 0.0000000000000000e+00 0.0000000000000000e+00  0.0000000000000000e+00 0.0000000000000000e+00 0.0000000000000000e+00  0.0000000000000000e+00 0.0000000000000000e+00 0.0000000000000000e+00  0.0000000000000000e+00 0.0000000000000000e+00 0.0000000000000000e+00  0.0000000000000000e+00 0.0000000000000000e+00 0.0000000000000000e+00  0.0000000000000000e+00 0.0000000000000000e+00 0.0000000000000000e+00  0.0000000000000000e+00 0.0000000000000000e+00 0.0000000000000000e+00  0.0000000000000000e+00 0.0000000000000000e+00 0.0000000000000000e+00  0.0000000000000000e+00 0.0000000000000000e+00 0.0000000000000000e+00  0.0000000000000000e+00 0.0000000000000000e+00 0.0000000000000000e+00  0.0000000000000000e+00 0.0000000000000000e+00 0.0000000000000000e+00  -1.7496561912554544e+01 0.0000000000000000e+00 0.0000000000000000e+00  -1.7447534434367231e+01 -6.4409532276574481e-04 0.0000000000000000e+00  -1.7432031788881304e+01 -5.7940929999993731e-03 0.0000000000000000e+00  -1.7428473943261970e+01 -5.7135249530651999e-03 0.0000000000000000e+00  -1.7427096683381105e+01 -5.4650943187769842e-03 0.0000000000000000e+00  -1.7426402458127797e+01 -5.2985664802178110e-03 0.0000000000000000e+00  -1.7425993081628679e+01 -5.2005520088085075e-03 0.0000000000000000e+00  -1.7425740959122312e+01 -5.1410851377167062e-03 0.0000000000000000e+00  -1.7425586954978748e+01 -5.1038057852862617e-03 0.0000000000000000e+00  -1.7425495530051908e+01 -5.0807519777953348e-03 0.0000000000000000e+00  -1.7425442950153844e+01 -5.0668603179163723e-03 0.0000000000000000e+00  -1.7425413599437075e+01 -5.0587675883319782e-03 0.0000000000000000e+00  -1.7425397644617792e+01 -5.0541859848909692e-03 0.0000000000000000e+00  -1.7425389155274956e+01 -5.0516793921158874e-03 0.0000000000000000e+00  -1.7425384709726128e+01 -5.0503314174301052e-03 0.0000000000000000e+00  -1.7425382406308238e+01 -5.0496228247667993e-03 0.0000000000000000e+00  -1.7425381221023528e+01 -5.0492510258100800e-03 0.0000000000000000e+00  -1.7425380612605565e+01 -5.0490600257867141e-03 0.0000000000000000e+00  -1.7425380300591815e+01 -5.0489607646190702e-03 0.0000000000000000e+00  -1.7425380140154054e+01 -5.0489104647024963e-03 0.0000000000000000e+00  -1.7425380057521458e+01 -5.0488842075745860e-03 0.0000000000000000e+00  -1.7425380014711187e+01 -5.0488710012966962e-03 0.0000000000000000e+00  -1.7425379992508958e+01 -5.0488639832299183e-03 0.0000000000000000e+00  -1.7425379980890494e+01 -5.0488604885845709e-03 0.0000000000000000e+00  -1.7425379974828459e+01 -5.0488585718402625e-03 0.0000000000000000e+00  -1.7425379971622043e+01 -5.0488576390467473e-03 0.0000000000000000e+00  -1.7425379969942671e+01 -5.0488571031437083e-03 0.0000000000000000e+00  -1.7425379969044243e+01 -5.0488568528028379e-03 0.0000000000000000e+00  -1.7425379968571981e+01 -5.0488567002262685e-03 0.0000000000000000e+00  -1.7425379968317429e+01 -5.0488566325813614e-03 0.0000000000000000e+00  -1.7425379968180916e+01 -5.0488565879369318e-03 0.0000000000000000e+00  -1.7425379968109930e+01 -5.0488565702439250e-03 0.0000000000000000e+00  -1.7425379968066252e+01 -5.0488565540049738e-03 0.0000000000000000e+00  -1.7425379968051224e+01 -5.0488565568453476e-03 0.0000000000000000e+00  -1.7425379968027453e+01 -5.0488565380157569e-03 0.0000000000000000e+00  -1.7425379968045945e+01 -5.0488565608936848e-03 0.0000000000000000e+00  -1.7425379967997703e+01 -5.0488565176752221e-03 0.0000000000000000e+00  -1.7425379968072956e+01 -5.0488565927690830e-03 0.0000000000000000e+00  -1.7425379967936728e+01 -5.0488564597406449e-03 0.0000000000000000e+00  -1.7425379968171530e+01 -5.0488566904221812e-03 0.0000000000000000e+00  -1.7425379967765014e+01 -5.0488562939777961e-03 0.0000000000000000e+00  -1.7425379968455381e+01 -5.0488569698768134e-03 0.0000000000000000e+00  -1.7425379967290169e+01 -5.0488558271996236e-03 0.0000000000000000e+00  -1.7425379969232736e+01 -5.0488577395234905e-03 0.0000000000000000e+00  -1.7425379966024398e+01 -5.0488545748819400e-03 0.0000000000000000e+00  -1.7425379971250088e+01 -5.0488597542443928e-03 0.0000000000000000e+00  -1.7425379962816994e+01 -5.0488513844364280e-03 0.0000000000000000e+00  -1.7425379976191419e+01 -5.0488647564973961e-03 0.0000000000000000e+00  -1.7425379955150060e+01 -5.0488436950328766e-03 0.0000000000000000e+00  -1.7425379987533194e+01 -5.0488764648881045e-03 0.0000000000000000e+00  -1.7425379937901834e+01 -5.0488263031645622e-03 0.0000000000000000e+00  -1.7425380011681206e+01 -5.0489021755991152e-03 0.0000000000000000e+00  -1.7425379901370025e+01 -5.0487896494052567e-03 0.0000000000000000e+00  -1.7425380058650703e+01 -5.0489548436624433e-03 0.0000000000000000e+00  -1.7425379827836853e+01 -5.0487184509940006e-03 0.0000000000000000e+00  -1.7425380138792235e+01 -5.0490550444613359e-03 0.0000000000000000e+00  -1.7425379683593590e+01 -5.0485938707915349e-03 0.0000000000000000e+00  -1.7425380240687154e+01 -5.0492311457103712e-03 0.0000000000000000e+00  -1.7425379393449312e+01 -5.0484105807998263e-03 0.0000000000000000e+00  -1.7425380231294806e+01 -5.0495136735891665e-03 0.0000000000000000e+00  -1.7425378753555979e+01 -5.0482382846949230e-03 0.0000000000000000e+00  -1.7425379522283585e+01 -5.0498871994526561e-03 0.0000000000000000e+00  -1.7425377228481118e+01 -5.0483155808825784e-03 0.0000000000000000e+00  -1.7425376310770819e+01 -5.0499350632708228e-03 0.0000000000000000e+00  -1.7425372965536514e+01 -5.0491617098892454e-03 0.0000000000000000e+00  -1.7425361052765265e+01 -5.0495102573425883e-03 0.0000000000000000e+00  -1.7425336368249550e+01 -5.0614131099581215e-03 0.0000000000000000e+00  -1.7425217396722790e+01 -5.0821696741657268e-03 0.0000000000000000e+00  -1.7424941721035356e+01 -5.1994791311103577e-03 0.0000000000000000e+00  -1.7424142172745242e+01 -5.3672855843956658e-03 0.0000000000000000e+00  -1.7422734479925676e+01 -5.7907274556530291e-03 0.0000000000000000e+00  -1.7420007434805662e+01 -6.0441871818360466e-03 0.0000000000000000e+00  -1.7416659296266999e+01 -6.5393063043336494e-03 0.0000000000000000e+00  -1.7412139846995931e+01 -5.9828830253375017e-03 0.0000000000000000e+00  -1.7410112477699773e+01 -5.8250311318318775e-03 0.0000000000000000e+00  -1.7408585877657380e+01 -3.4670296906162950e-03 0.0000000000000000e+00  -1.7411681544287390e+01 -5.0189465280397125e-03 0.0000000000000000e+00  -1.7412164877979652e+01 -5.4485096145441515e-03 0.0000000000000000e+00  -1.7410234952028148e+01 -2.1261767718101759e-02 0.0000000000000000e+00  -1.7420446239907690e+01 -6.3607590346811363e-02 0.0000000000000000e+00  -1.7364155693362484e+01 0.0000000000000000e+00 0.0000000000000000e+00  -2.6762409984690692e+01 0.0000000000000000e+00 0.0000000000000000e+00  -2.6771052130346334e+01 -3.9946176154670799e-03 0.0000000000000000e+00  -2.6770893672941629e+01 -2.1853677731709702e-04 0.0000000000000000e+00  -2.6770131542791308e+01 1.0992712619811399e-03 0.0000000000000000e+00  -2.6769816604528138e+01 1.7403179444132784e-03 0.0000000000000000e+00  -2.6769700918630335e+01 2.0790126420820961e-03 0.0000000000000000e+00  -2.6769671675270821e+01 2.2651249643394510e-03 0.0000000000000000e+00  -2.6769667250832086e+01 2.3734439172289831e-03 0.0000000000000000e+00  -2.6769668543731644e+01 2.4398357551693979e-03 0.0000000000000000e+00  -2.6769670432771353e+01 2.4801261597009587e-03 0.0000000000000000e+00  -2.6769671749186497e+01 2.5041581628733561e-03 0.0000000000000000e+00  -2.6769672451534635e+01 2.5181531804987349e-03 0.0000000000000000e+00  -2.6769672819461391e+01 2.5260550403714143e-03 0.0000000000000000e+00  -2.6769673008748903e+01 2.5303405071102998e-03 0.0000000000000000e+00  -2.6769673112103622e+01 2.5326214137685616e-03 0.0000000000000000e+00  -2.6769673162166857e+01 2.5338119220621063e-03 0.0000000000000000e+00  -2.6769673187438297e+01 2.5344354215860341e-03 0.0000000000000000e+00  -2.6769673198164572e+01 2.5347555919622588e-03 0.0000000000000000e+00  -2.6769673203736406e+01 2.5349225025864514e-03 0.0000000000000000e+00  -2.6769673205944262e+01 2.5350070203917600e-03 0.0000000000000000e+00  -2.6769673207305733e+01 2.5350513178391595e-03 0.0000000000000000e+00  -2.6769673207783210e+01 2.5350734983975269e-03 0.0000000000000000e+00  -2.6769673208145647e+01 2.5350853792978339e-03 0.0000000000000000e+00  -2.6769673208239201e+01 2.5350912355917490e-03 0.0000000000000000e+00  -2.6769673208339377e+01 2.5350945024222638e-03 0.0000000000000000e+00  -2.6769673208350863e+01 2.5350960585818968e-03 0.0000000000000000e+00  -2.6769673208379210e+01 2.5350969810171153e-03 0.0000000000000000e+00  -2.6769673208377778e+01 2.5350973967762616e-03 0.0000000000000000e+00  -2.6769673208387193e+01 2.5350976625810387e-03 0.0000000000000000e+00  -2.6769673208382581e+01 2.5350977735434889e-03 0.0000000000000000e+00  -2.6769673208388763e+01 2.5350978503786790e-03 0.0000000000000000e+00  -2.6769673208381317e+01 2.5350978834761820e-03 0.0000000000000000e+00  -2.6769673208393744e+01 2.5350979010105149e-03 0.0000000000000000e+00  -2.6769673208371998e+01 2.5350979196099438e-03 0.0000000000000000e+00  -2.6769673208409731e+01 2.5350979082537539e-03 0.0000000000000000e+00  -2.6769673208343715e+01 2.5350979435797131e-03 0.0000000000000000e+00  -2.6769673208459540e+01 2.5350978874488519e-03 0.0000000000000000e+00  -2.6769673208257434e+01 2.5350979904287382e-03 0.0000000000000000e+00  -2.6769673208605045e+01 2.5350978138534803e-03 0.0000000000000000e+00  -2.6769673208010815e+01 2.5350981190193729e-03 0.0000000000000000e+00  -2.6769673209012815e+01 2.5350975955671829e-03 0.0000000000000000e+00  -2.6769673207338631e+01 2.5350984842185688e-03 0.0000000000000000e+00  -2.6769673210102081e+01 2.5350969923839633e-03 0.0000000000000000e+00  -2.6769673205590873e+01 2.5350994702683185e-03 0.0000000000000000e+00  -2.6769673212850758e+01 2.5350953940550367e-03 0.0000000000000000e+00  -2.6769673201304204e+01 2.5351020068873284e-03 0.0000000000000000e+00  -2.6769673219348594e+01 2.5350913799546226e-03 0.0000000000000000e+00  -2.6769673191469742e+01 2.5351081777598228e-03 0.0000000000000000e+00  -2.6769673233590446e+01 2.5350818563373671e-03 0.0000000000000000e+00  -2.6769673170551386e+01 2.5351222426141982e-03 0.0000000000000000e+00  -2.6769673262056649e+01 2.5350606216278733e-03 0.0000000000000000e+00  -2.6769673129641522e+01 2.5351519547058107e-03 0.0000000000000000e+00  -2.6769673312381439e+01 2.5350163106573464e-03 0.0000000000000000e+00  -2.6769673056575684e+01 2.5352089085839162e-03 0.0000000000000000e+00  -2.6769673384702180e+01 2.5349298937704886e-03 0.0000000000000000e+00  -2.6769672937423866e+01 2.5353028947694392e-03 0.0000000000000000e+00  -2.6769673437480222e+01 2.5347712139962854e-03 0.0000000000000000e+00  -2.6769672755188058e+01 2.5354123319059432e-03 0.0000000000000000e+00  -2.6769673264598612e+01 2.5344870671216717e-03 0.0000000000000000e+00  -2.6769672450619119e+01 2.5353746273011333e-03 0.0000000000000000e+00  -2.6769672075594617e+01 2.5339466854247174e-03 0.0000000000000000e+00  -2.6769671582767444e+01 2.5345565684088238e-03 0.0000000000000000e+00  -2.6769666900418986e+01 2.5326748094513900e-03 0.0000000000000000e+00  -2.6769666308486489e+01 2.5304413784698987e-03 0.0000000000000000e+00  -2.6769642604424433e+01 2.5259144815349523e-03 0.0000000000000000e+00  -2.6769622526471583e+01 2.5024728748158512e-03 0.0000000000000000e+00  -2.6769499192808638e+01 2.4554406689740868e-03 0.0000000000000000e+00  -2.6769312311975035e+01 2.2815858561517307e-03 0.0000000000000000e+00  -2.6768728626267286e+01 1.9539903137567156e-03 0.0000000000000000e+00  -2.6767819406281944e+01 1.2000028656044745e-03 0.0000000000000000e+00  -2.6765768510088204e+01 1.8775266699360798e-04 0.0000000000000000e+00  -2.6762987473739717e+01 -1.3244208613565009e-03 0.0000000000000000e+00  -2.6758593153935202e+01 -2.0026840920715108e-03 0.0000000000000000e+00  -2.6756125000940891e+01 -1.4960974439475630e-03 0.0000000000000000e+00  -2.6754022074182306e+01 1.3640945758206988e-03 0.0000000000000000e+00  -2.6754560643518374e+01 2.8509060921071546e-03 0.0000000000000000e+00  -2.6752143045936464e+01 5.9647441028104174e-03 0.0000000000000000e+00  -2.6758609738881471e+01 8.4252367645380449e-03 0.0000000000000000e+00  -2.6759835587319827e+01 1.4901154718085020e-03 0.0000000000000000e+00  -2.6795432706663874e+01 3.5338996954712147e-02 0.0000000000000000e+00  -2.6763636136727783e+01 0.0000000000000000e+00 0.0000000000000000e+00  -2.7794495427387137e+01 0.0000000000000000e+00 0.0000000000000000e+00  -2.7806033662127245e+01 -2.6658902272035448e-03 0.0000000000000000e+00  -2.7811299100018378e+01 -1.0079509657140403e-03 0.0000000000000000e+00  -2.7813321480210497e+01 8.5523178204491312e-05 0.0000000000000000e+00  -2.7814257029152287e+01 6.2758803001809022e-04 0.0000000000000000e+00  -2.7814772403543891e+01 9.1487730757143027e-04 0.0000000000000000e+00  -2.7815075587297567e+01 1.0567233386034739e-03 0.0000000000000000e+00  -2.7815257643339972e+01 1.1320381717855527e-03 0.0000000000000000e+00  -2.7815366679144873e+01 1.1765873098916093e-03 0.0000000000000000e+00  -2.7815430695816794e+01 1.2030555157220920e-03 0.0000000000000000e+00  -2.7815467145201023e+01 1.2188487687108597e-03 0.0000000000000000e+00  -2.7815487410999744e+01 1.2280660939899776e-03 0.0000000000000000e+00  -2.7815498416551577e+01 1.2332649665947092e-03 0.0000000000000000e+00  -2.7815504291879108e+01 1.2360729337706497e-03 0.0000000000000000e+00  -2.7815507365494916e+01 1.2375752696099536e-03 0.0000000000000000e+00  -2.7815508960390670e+01 1.2383623796106255e-03 0.0000000000000000e+00  -2.7815509778281118e+01 1.2387786213070796e-03 0.0000000000000000e+00  -2.7815510199607139e+01 1.2389923934684863e-03 0.0000000000000000e+00  -2.7815510415026925e+01 1.2391047082850181e-03 0.0000000000000000e+00  -2.7815510526651369e+01 1.2391612292531678e-03 0.0000000000000000e+00  -2.7815510583893445e+01 1.2391910937299667e-03 0.0000000000000000e+00  -2.7815510613836963e+01 1.2392059000978317e-03 0.0000000000000000e+00  -2.7815510629242432e+01 1.2392139233604058e-03 0.0000000000000000e+00  -2.7815510637392556e+01 1.2392178238330839e-03 0.0000000000000000e+00  -2.7815510641598319e+01 1.2392200358987298e-03 0.0000000000000000e+00  -2.7815510643850697e+01 1.2392210715067623e-03 0.0000000000000000e+00  -2.7815510645016079e+01 1.2392216978375447e-03 0.0000000000000000e+00  -2.7815510645649610e+01 1.2392219725990310e-03 0.0000000000000000e+00  -2.7815510645975760e+01 1.2392221532161981e-03 0.0000000000000000e+00  -2.7815510646157833e+01 1.2392222277169140e-03 0.0000000000000000e+00  -2.7815510646246775e+01 1.2392222804187398e-03 0.0000000000000000e+00  -2.7815510646308383e+01 1.2392222990270459e-03 0.0000000000000000e+00  -2.7815510646319538e+01 1.2392223171828073e-03 0.0000000000000000e+00  -2.7815510646364718e+01 1.2392223174964535e-03 0.0000000000000000e+00  -2.7815510646319037e+01 1.2392223310461832e-03 0.0000000000000000e+00  -2.7815510646418598e+01 1.2392223165706190e-03 0.0000000000000000e+00  -2.7815510646253916e+01 1.2392223478128700e-03 0.0000000000000000e+00  -2.78