<?xml version="1.0"?>
<VTKFile type="UnstructuredGrid"  version="0.1"  >
<UnstructuredGrid>
<Piece  NumberOfPoints="1369" NumberOfCells="2560">
<Points>
<DataArray  type="Float64"  NumberOfComponents="3"  format="ascii">0 0 0  0.75 0 0  1.5 0 0  2.25 0 0  3 0 0  3.75 0 0  4.5 0 0  5.25 0 0  6 0 0  6.75 0 0  7.5 0 0  8.25 0 0  9 0 0  9.75 0 0  10.5 0 0  11.25 0 0  12 0 0  12.75 0 0  13.5 0 0  14.25 0 0  15 0 0  15.75 0 0  16.5 0 0  17.25 0 0  18 0 0  18.75 0 0  19.5 0 0  20.25 0 0  21 0 0  21.75 0 0  22.5 0 0  23.25 0 0  24 0 0  24.75 0 0  25.5 0 0  26.25 0 0  27 0 0  27.75 0 0  28.5 0 0  29.25 0 0  30 0 0  30.75 0 0  31.5 0 0  32.25 0 0  33 0 0  33.75 0 0  34.5 0 0  35.25 0 0  36 0 0  36.75 0 0  37.5 0 0  38.25 0 0  39 0 0  39.75 0 0  40.5 0 0  41.25 0 0  42 0 0  42.75 0 0  43.5 0 0  44.25 0 0  45 0 0  45.75 0 0  46.5 0 0  47.25 0 0  48 0 0  48.75 0 0  49.5 0 0  50.25 0 0  51 0 0  51.75 0 0  52.5 0 0  53.25 0 0  54 0 0  54.75 0 0  55.5 0 0  56.25 0 0  57 0 0  57.75 0 0  58.5 0 0  59.25 0 0  60 0 0  0 0.5 0  0.75 0.5 0  1.5 0.5 0  2.25 0.5 0  3 0.5 0  3.75 0.5 0  4.5 0.5 0  5.25 0.5 0  6 0.5 0  6.75 0.5 0  7.5 0.5 0  8.25 0.5 0  9 0.5 0  9.75 0.5 0  10.5 0.5 0  11.25 0.5 0  12 0.5 0  12.75 0.5 0  13.5 0.5 0  14.25 0.5 0  15 0.5 0  15.75 0.5 0  16.5 0.5 0  17.25 0.5 0  18 0.5 0  18.75 0.5 0  19.5 0.5 0  20.25 0.5 0  21 0.5 0  21.75 0.5 0  22.5 0.5 0  23.25 0.5 0  24 0.5 0  24.75 0.5 0  25.5 0.5 0  26.25 0.5 0  27 0.5 0  27.75 0.5 0  28.5 0.5 0  29.25 0.5 0  30 0.5 0  30.75 0.5 0  31.5 0.5 0  32.25 0.5 0  33 0.5 0  33.75 0.5 0  34.5 0.5 0  35.25 0.5 0  36 0.5 0  36.75 0.5 0  37.5 0.5 0  38.25 0.5 0  39 0.5 0  39.75 0.5 0  40.5 0.5 0  41.25 0.5 0  42 0.5 0  42.75 0.5 0  43.5 0.5 0  44.25 0.5 0  45 0.5 0  45.75 0.5 0  46.5 0.5 0  47.25 0.5 0  48 0.5 0  48.75 0.5 0  49.5 0.5 0  50.25 0.5 0  51 0.5 0  51.75 0.5 0  52.5 0.5 0  53.25 0.5 0  54 0.5 0  54.75 0.5 0  55.5 0.5 0  56.25 0.5 0  57 0.5 0  57.75 0.5 0  58.5 0.5 0  59.25 0.5 0  60 0.5 0  0 1 0  0.75 1 0  1.5 1 0  2.25 1 0  3 1 0  3.75 1 0  4.5 1 0  5.25 1 0  6 1 0  6.75 1 0  7.5 1 0  8.25 1 0  9 1 0  9.75 1 0  10.5 1 0  11.25 1 0  12 1 0  12.75 1 0  13.5 1 0  14.25 1 0  15 1 0  15.75 1 0  16.5 1 0  17.25 1 0  18 1 0  18.75 1 0  19.5 1 0  20.25 1 0  21 1 0  21.75 1 0  22.5 1 0  23.25 1 0  24 1 0  24.75 1 0  25.5 1 0  26.25 1 0  27 1 0  27.75 1 0  28.5 1 0  29.25 1 0  30 1 0  30.75 1 0  31.5 1 0  32.25 1 0  33 1 0  33.75 1 0  34.5 1 0  35.25 1 0  36 1 0  36.75 1 0  37.5 1 0  38.25 1 0  39 1 0  39.75 1 0  40.5 1 0  41.25 1 0  42 1 0  42.75 1 0  43.5 1 0  44.25 1 0  45 1 0  45.75 1 0  46.5 1 0  47.25 1 0  48 1 0  48.75 1 0  49.5 1 0  50.25 1 0  51 1 0  51.75 1 0  52.5 1 0  53.25 1 0  54 1 0  54.75 1 0  55.5 1 0  56.25 1 0  57 1 0  57.75 1 0  58.5 1 0  59.25 1 0  60 1 0  0 1.5 0  0.75 1.5 0  1.5 1.5 0  2.25 1.5 0  3 1.5 0  3.75 1.5 0  4.5 1.5 0  5.25 1.5 0  6 1.5 0  6.75 1.5 0  7.5 1.5 0  8.25 1.5 0  9 1.5 0  9.75 1.5 0  10.5 1.5 0  11.25 1.5 0  12 1.5 0  12.75 1.5 0  13.5 1.5 0  14.25 1.5 0  15 1.5 0  15.75 1.5 0  16.5 1.5 0  17.25 1.5 0  18 1.5 0  18.75 1.5 0  19.5 1.5 0  20.25 1.5 0  21 1.5 0  21.75 1.5 0  22.5 1.5 0  23.25 1.5 0  24 1.5 0  24.75 1.5 0  25.5 1.5 0  26.25 1.5 0  27 1.5 0  27.75 1.5 0  28.5 1.5 0  29.25 1.5 0  30 1.5 0  30.75 1.5 0  31.5 1.5 0  32.25 1.5 0  33 1.5 0  33.75 1.5 0  34.5 1.5 0  35.25 1.5 0  36 1.5 0  36.75 1.5 0  37.5 1.5 0  38.25 1.5 0  39 1.5 0  39.75 1.5 0  40.5 1.5 0  41.25 1.5 0  42 1.5 0  42.75 1.5 0  43.5 1.5 0  44.25 1.5 0  45 1.5 0  45.75 1.5 0  46.5 1.5 0  47.25 1.5 0  48 1.5 0  48.75 1.5 0  49.5 1.5 0  50.25 1.5 0  51 1.5 0  51.75 1.5 0  52.5 1.5 0  53.25 1.5 0  54 1.5 0  54.75 1.5 0  55.5 1.5 0  56.25 1.5 0  57 1.5 0  57.75 1.5 0  58.5 1.5 0  59.25 1.5 0  60 1.5 0  0 2 0  0.75 2 0  1.5 2 0  2.25 2 0  3 2 0  3.75 2 0  4.5 2 0  5.25 2 0  6 2 0  6.75 2 0  7.5 2 0  8.25 2 0  9 2 0  9.75 2 0  10.5 2 0  11.25 2 0  12 2 0  12.75 2 0  13.5 2 0  14.25 2 0  15 2 0  15.75 2 0  16.5 2 0  17.25 2 0  18 2 0  18.75 2 0  19.5 2 0  20.25 2 0  21 2 0  21.75 2 0  22.5 2 0  23.25 2 0  24 2 0  24.75 2 0  25.5 2 0  26.25 2 0  27 2 0  27.75 2 0  28.5 2 0  29.25 2 0  30 2 0  30.75 2 0  31.5 2 0  32.25 2 0  33 2 0  33.75 2 0  34.5 2 0  35.25 2 0  36 2 0  36.75 2 0  37.5 2 0  38.25 2 0  39 2 0  39.75 2 0  40.5 2 0  41.25 2 0  42 2 0  42.75 2 0  43.5 2 0  44.25 2 0  45 2 0  45.75 2 0  46.5 2 0  47.25 2 0  48 2 0  48.75 2 0  49.5 2 0  50.25 2 0  51 2 0  51.75 2 0  52.5 2 0  53.25 2 0  54 2 0  54.75 2 0  55.5 2 0  56.25 2 0  57 2 0  57.75 2 0  58.5 2 0  59.25 2 0  60 2 0  0 2.5 0  0.75 2.5 0  1.5 2.5 0  2.25 2.5 0  3 2.5 0  3.75 2.5 0  4.5 2.5 0  5.25 2.5 0  6 2.5 0  6.75 2.5 0  7.5 2.5 0  8.25 2.5 0  9 2.5 0  9.75 2.5 0  10.5 2.5 0  11.25 2.5 0  12 2.5 0  12.75 2.5 0  13.5 2.5 0  14.25 2.5 0  15 2.5 0  15.75 2.5 0  16.5 2.5 0  17.25 2.5 0  18 2.5 0  18.75 2.5 0  19.5 2.5 0  20.25 2.5 0  21 2.5 0  21.75 2.5 0  22.5 2.5 0  23.25 2.5 0  24 2.5 0  24.75 2.5 0  25.5 2.5 0  26.25 2.5 0  27 2.5 0  27.75 2.5 0  28.5 2.5 0  29.25 2.5 0  30 2.5 0  30.75 2.5 0  31.5 2.5 0  32.25 2.5 0  33 2.5 0  33.75 2.5 0  34.5 2.5 0  35.25 2.5 0  36 2.5 0  36.75 2.5 0  37.5 2.5 0  38.25 2.5 0  39 2.5 0  39.75 2.5 0  40.5 2.5 0  41.25 2.5 0  42 2.5 0  42.75 2.5 0  43.5 2.5 0  44.25 2.5 0  45 2.5 0  45.75 2.5 0  46.5 2.5 0  47.25 2.5 0  48 2.5 0  48.75 2.5 0  49.5 2.5 0  50.25 2.5 0  51 2.5 0  51.75 2.5 0  52.5 2.5 0  53.25 2.5 0  54 2.5 0  54.75 2.5 0  55.5 2.5 0  56.25 2.5 0  57 2.5 0  57.75 2.5 0  58.5 2.5 0  59.25 2.5 0  60 2.5 0  0 3 0  0.75 3 0  1.5 3 0  2.25 3 0  3 3 0  3.75 3 0  4.5 3 0  5.25 3 0  6 3 0  6.75 3 0  7.5 3 0  8.25 3 0  9 3 0  9.75 3 0  10.5 3 0  11.25 3 0  12 3 0  12.75 3 0  13.5 3 0  14.25 3 0  15 3 0  15.75 3 0  16.5 3 0  17.25 3 0  18 3 0  18.75 3 0  19.5 3 0  20.25 3 0  21 3 0  21.75 3 0  22.5 3 0  23.25 3 0  24 3 0  24.75 3 0  25.5 3 0  26.25 3 0  27 3 0  27.75 3 0  28.5 3 0  29.25 3 0  30 3 0  30.75 3 0  31.5 3 0  32.25 3 0  33 3 0  33.75 3 0  34.5 3 0  35.25 3 0  36 3 0  36.75 3 0  37.5 3 0  38.25 3 0  39 3 0  39.75 3 0  40.5 3 0  41.25 3 0  42 3 0  42.75 3 0  43.5 3 0  44.25 3 0  45 3 0  45.75 3 0  46.5 3 0  47.25 3 0  48 3 0  48.75 3 0  49.5 3 0  50.25 3 0  51 3 0  51.75 3 0  52.5 3 0  53.25 3 0  54 3 0  54.75 3 0  55.5 3 0  56.25 3 0  57 3 0  57.75 3 0  58.5 3 0  59.25 3 0  60 3 0  0 3.5 0  0.75 3.5 0  1.5 3.5 0  2.25 3.5 0  3 3.5 0  3.75 3.5 0  4.5 3.5 0  5.25 3.5 0  6 3.5 0  6.75 3.5 0  7.5 3.5 0  8.25 3.5 0  9 3.5 0  9.75 3.5 0  10.5 3.5 0  11.25 3.5 0  12 3.5 0  12.75 3.5 0  13.5 3.5 0  14.25 3.5 0  15 3.5 0  15.75 3.5 0  16.5 3.5 0  17.25 3.5 0  18 3.5 0  18.75 3.5 0  19.5 3.5 0  20.25 3.5 0  21 3.5 0  21.75 3.5 0  22.5 3.5 0  23.25 3.5 0  24 3.5 0  24.75 3.5 0  25.5 3.5 0  26.25 3.5 0  27 3.5 0  27.75 3.5 0  28.5 3.5 0  29.25 3.5 0  30 3.5 0  30.75 3.5 0  31.5 3.5 0  32.25 3.5 0  33 3.5 0  33.75 3.5 0  34.5 3.5 0  35.25 3.5 0  36 3.5 0  36.75 3.5 0  37.5 3.5 0  38.25 3.5 0  39 3.5 0  39.75 3.5 0  40.5 3.5 0  41.25 3.5 0  42 3.5 0  42.75 3.5 0  43.5 3.5 0  44.25 3.5 0  45 3.5 0  45.75 3.5 0  46.5 3.5 0  47.25 3.5 0  48 3.5 0  48.75 3.5 0  49.5 3.5 0  50.25 3.5 0  51 3.5 0  51.75 3.5 0  52.5 3.5 0  53.25 3.5 0  54 3.5 0  54.75 3.5 0  55.5 3.5 0  56.25 3.5 0  57 3.5 0  57.75 3.5 0  58.5 3.5 0  59.25 3.5 0  60 3.5 0  0 4 0  0.75 4 0  1.5 4 0  2.25 4 0  3 4 0  3.75 4 0  4.5 4 0  5.25 4 0  6 4 0  6.75 4 0  7.5 4 0  8.25 4 0  9 4 0  9.75 4 0  10.5 4 0  11.25 4 0  12 4 0  12.75 4 0  13.5 4 0  14.25 4 0  15 4 0  15.75 4 0  16.5 4 0  17.25 4 0  18 4 0  18.75 4 0  19.5 4 0  20.25 4 0  21 4 0  21.75 4 0  22.5 4 0  23.25 4 0  24 4 0  24.75 4 0  25.5 4 0  26.25 4 0  27 4 0  27.75 4 0  28.5 4 0  29.25 4 0  30 4 0  30.75 4 0  31.5 4 0  32.25 4 0  33 4 0  33.75 4 0  34.5 4 0  35.25 4 0  36 4 0  36.75 4 0  37.5 4 0  38.25 4 0  39 4 0  39.75 4 0  40.5 4 0  41.25 4 0  42 4 0  42.75 4 0  43.5 4 0  44.25 4 0  45 4 0  45.75 4 0  46.5 4 0  47.25 4 0  48 4 0  48.75 4 0  49.5 4 0  50.25 4 0  51 4 0  51.75 4 0  52.5 4 0  53.25 4 0  54 4 0  54.75 4 0  55.5 4 0  56.25 4 0  57 4 0  57.75 4 0  58.5 4 0  59.25 4 0  60 4 0  0.375 0.25 0  1.125 0.25 0  1.875 0.25 0  2.625 0.25 0  3.375 0.25 0  4.125 0.25 0  4.875 0.25 0  5.625 0.25 0  6.375 0.25 0  7.125 0.25 0  7.875 0.25 0  8.625 0.25 0  9.375 0.25 0  10.125 0.25 0  10.875 0.25 0  11.625 0.25 0  12.375 0.25 0  13.125 0.25 0  13.875 0.25 0  14.625 0.25 0  15.375 0.25 0  16.125 0.25 0  16.875 0.25 0  17.625 0.25 0  18.375 0.25 0  19.125 0.25 0  19.875 0.25 0  20.625 0.25 0  21.375 0.25 0  22.125 0.25 0  22.875 0.25 0  23.625 0.25 0  24.375 0.25 0  25.125 0.25 0  25.875 0.25 0  26.625 0.25 0  27.375 0.25 0  28.125 0.25 0  28.875 0.25 0  29.625 0.25 0  30.375 0.25 0  31.125 0.25 0  31.875 0.25 0  32.625 0.25 0  33.375 0.25 0  34.125 0.25 0  34.875 0.25 0  35.625 0.25 0  36.375 0.25 0  37.125 0.25 0  37.875 0.25 0  38.625 0.25 0  39.375 0.25 0  40.125 0.25 0  40.875 0.25 0  41.625 0.25 0  42.375 0.25 0  43.125 0.25 0  43.875 0.25 0  44.625 0.25 0  45.375 0.25 0  46.125 0.25 0  46.875 0.25 0  47.625 0.25 0  48.375 0.25 0  49.125 0.25 0  49.875 0.25 0  50.625 0.25 0  51.375 0.25 0  52.125 0.25 0  52.875 0.25 0  53.625 0.25 0  54.375 0.25 0  55.125 0.25 0  55.875 0.25 0  56.625 0.25 0  57.375 0.25 0  58.125 0.25 0  58.875 0.25 0  59.625 0.25 0  0.375 0.75 0  1.125 0.75 0  1.875 0.75 0  2.625 0.75 0  3.375 0.75 0  4.125 0.75 0  4.875 0.75 0  5.625 0.75 0  6.375 0.75 0  7.125 0.75 0  7.875 0.75 0  8.625 0.75 0  9.375 0.75 0  10.125 0.75 0  10.875 0.75 0  11.625 0.75 0  12.375 0.75 0  13.125 0.75 0  13.875 0.75 0  14.625 0.75 0  15.375 0.75 0  16.125 0.75 0  16.875 0.75 0  17.625 0.75 0  18.375 0.75 0  19.125 0.75 0  19.875 0.75 0  20.625 0.75 0  21.375 0.75 0  22.125 0.75 0  22.875 0.75 0  23.625 0.75 0  24.375 0.75 0  25.125 0.75 0  25.875 0.75 0  26.625 0.75 0  27.375 0.75 0  28.125 0.75 0  28.875 0.75 0  29.625 0.75 0  30.375 0.75 0  31.125 0.75 0  31.875 0.75 0  32.625 0.75 0  33.375 0.75 0  34.125 0.75 0  34.875 0.75 0  35.625 0.75 0  36.375 0.75 0  37.125 0.75 0  37.875 0.75 0  38.625 0.75 0  39.375 0.75 0  40.125 0.75 0  40
[...]
<PointData  Vectors="f_8-0"> 
<DataArray  type="Float64"  Name="f_8-0"  NumberOfComponents="3" format="ascii">0.0000000000000000e+00 0.0000000000000000e+00 0.0000000000000000e+00  0.0000000000000000e+00 0.0000000000000000e+00 0.0000000000000000e+00  0.0000000000000000e+00 0.0000000000000000e+00 0.0000000000000000e+00  0.0000000000000000e+00 0.0000000000000000e+00 0.0000000000000000e+00  0.0000000000000000e+00 0.0000000000000000e+00 0.0000000000000000e+00  0.0000000000000000e+00 0.0000000000000000e+00 0.0000000000000000e+00  0.0000000000000000e+00 0.0000000000000000e+00 0.0000000000000000e+00  0.0000000000000000e+00 0.0000000000000000e+00 0.0000000000000000e+00  0.0000000000000000e+00 0.0000000000000000e+00 0.0000000000000000e+00  0.0000000000000000e+00 0.0000000000000000e+00 0.0000000000000000e+00  0.0000000000000000e+00 0.0000000000000000e+00 0.0000000000000000e+00  0.0000000000000000e+00 0.0000000000000000e+00 0.0000000000000000e+00  0.0000000000000000e+00 0.0000000000000000e+00 0.0000000000000000e+00  0.0000000000000000e+00 0.0000000000000000e+00 0.0000000000000000e+00  0.0000000000000000e+00 0.0000000000000000e+00 0.0000000000000000e+00  0.0000000000000000e+00 0.0000000000000000e+00 0.0000000000000000e+00  0.0000000000000000e+00 0.0000000000000000e+00 0.0000000000000000e+00  0.0000000000000000e+00 0.0000000000000000e+00 0.0000000000000000e+00  0.0000000000000000e+00 0.0000000000000000e+00 0.0000000000000000e+00  0.0000000000000000e+00 0.0000000000000000e+00 0.0000000000000000e+00  0.0000000000000000e+00 0.0000000000000000e+00 0.0000000000000000e+00  0.0000000000000000e+00 0.0000000000000000e+00 0.0000000000000000e+00  0.0000000000000000e+00 0.0000000000000000e+00 0.0000000000000000e+00  0.0000000000000000e+00 0.0000000000000000e+00 0.0000000000000000e+00  0.0000000000000000e+00 0.0000000000000000e+00 0.0000000000000000e+00  0.0000000000000000e+00 0.0000000000000000e+00 0.0000000000000000e+00  0.0000000000000000e+00 0.0000000000000000e+00 0.0000000000000000e+00  0.0000000000000000e+00 0.0000000000000000e+00 0.0000000000000000e+00  0.0000000000000000e+00 0.0000000000000000e+00 0.0000000000000000e+00  0.0000000000000000e+00 0.0000000000000000e+00 0.0000000000000000e+00  0.0000000000000000e+00 0.0000000000000000e+00 0.0000000000000000e+00  0.0000000000000000e+00 0.0000000000000000e+00 0.0000000000000000e+00  0.0000000000000000e+00 0.0000000000000000e+00 0.0000000000000000e+00  0.0000000000000000e+00 0.0000000000000000e+00 0.0000000000000000e+00  0.0000000000000000e+00 0.0000000000000000e+00 0.0000000000000000e+00  0.0000000000000000e+00 0.0000000000000000e+00 0.0000000000000000e+00  0.0000000000000000e+00 0.0000000000000000e+00 0.0000000000000000e+00  0.0000000000000000e+00 0.0000000000000000e+00 0.0000000000000000e+00  0.0000000000000000e+00 0.0000000000000000e+00 0.0000000000000000e+00  0.0000000000000000e+00 0.0000000000000000e+00 0.0000000000000000e+00  0.0000000000000000e+00 0.0000000000000000e+00 0.0000000000000000e+00  0.0000000000000000e+00 0.0000000000000000e+00 0.0000000000000000e+00  0.0000000000000000e+00 0.0000000000000000e+00 0.0000000000000000e+00  0.0000000000000000e+00 0.0000000000000000e+00 0.0000000000000000e+00  0.0000000000000000e+00 0.0000000000000000e+00 0.0000000000000000e+00  0.0000000000000000e+00 0.0000000000000000e+00 0.0000000000000000e+00  0.0000000000000000e+00 0.0000000000000000e+00 0.0000000000000000e+00  0.0000000000000000e+00 0.0000000000000000e+00 0.0000000000000000e+00  0.0000000000000000e+00 0.0000000000000000e+00 0.0000000000000000e+00  0.0000000000000000e+00 0.0000000000000000e+00 0.0000000000000000e+00  0.0000000000000000e+00 0.0000000000000000e+00 0.0000000000000000e+00  0.0000000000000000e+00 0.0000000000000000e+00 0.0000000000000000e+00  0.0000000000000000e+00 0.0000000000000000e+00 0.0000000000000000e+00  0.0000000000000000e+00 0.0000000000000000e+00 0.0000000000000000e+00  0.0000000000000000e+00 0.0000000000000000e+00 0.0000000000000000e+00  0.0000000000000000e+00 0.0000000000000000e+00 0.0000000000000000e+00  0.0000000000000000e+00 0.0000000000000000e+00 0.0000000000000000e+00  0.0000000000000000e+00 0.0000000000000000e+00 0.0000000000000000e+00  0.0000000000000000e+00 0.0000000000000000e+00 0.0000000000000000e+00  0.0000000000000000e+00 0.0000000000000000e+00 0.0000000000000000e+00  0.0000000000000000e+00 0.0000000000000000e+00 0.0000000000000000e+00  0.0000000000000000e+00 0.0000000000000000e+00 0.0000000000000000e+00  0.0000000000000000e+00 0.0000000000000000e+00 0.0000000000000000e+00  0.0000000000000000e+00 0.0000000000000000e+00 0.0000000000000000e+00  0.0000000000000000e+00 0.0000000000000000e+00 0.0000000000000000e+00  0.0000000000000000e+00 0.0000000000000000e+00 0.0000000000000000e+00  0.0000000000000000e+00 0.0000000000000000e+00 0.0000000000000000e+00  0.0000000000000000e+00 0.0000000000000000e+00 0.0000000000000000e+00  0.0000000000000000e+00 0.0000000000000000e+00 0.0000000000000000e+00  0.0000000000000000e+00 0.0000000000000000e+00 0.0000000000000000e+00  0.0000000000000000e+00 0.0000000000000000e+00 0.0000000000000000e+00  0.0000000000000000e+00 0.0000000000000000e+00 0.0000000000000000e+00  0.0000000000000000e+00 0.0000000000000000e+00 0.0000000000000000e+00  0.0000000000000000e+00 0.0000000000000000e+00 0.0000000000000000e+00  0.0000000000000000e+00 0.0000000000000000e+00 0.0000000000000000e+00  0.0000000000000000e+00 0.0000000000000000e+00 0.0000000000000000e+00  0.0000000000000000e+00 0.0000000000000000e+00 0.0000000000000000e+00  0.0000000000000000e+00 0.0000000000000000e+00 0.0000000000000000e+00  0.0000000000000000e+00 0.0000000000000000e+00 0.0000000000000000e+00  0.0000000000000000e+00 0.0000000000000000e+00 0.0000000000000000e+00  0.0000000000000000e+00 0.0000000000000000e+00 0.0000000000000000e+00  2.5657632727075836e+01 0.0000000000000000e+00 0.0000000000000000e+00  2.5692885227977193e+01 -2.1660524039623333e-02 0.0000000000000000e+00  2.5698049739592964e+01 -4.1189458822188151e-03 0.0000000000000000e+00  2.5702314981507261e+01 1.6276167783682645e-03 0.0000000000000000e+00  2.5707366676710745e+01 -3.4912940960324005e-04 0.0000000000000000e+00  2.5709770556722116e+01 -1.0552788033125673e-03 0.0000000000000000e+00  2.5714565631763918e+01 -1.6900552749802371e-03 0.0000000000000000e+00  2.5717196152535802e+01 -2.1965690854363839e-03 0.0000000000000000e+00  2.5719578067074369e+01 -1.8934548455283213e-03 0.0000000000000000e+00  2.5721105527662868e+01 -1.7081989697260848e-03 0.0000000000000000e+00  2.5721872240561471e+01 -1.2997035943849574e-03 0.0000000000000000e+00  2.5722227856841084e+01 -1.3095937027612493e-03 0.0000000000000000e+00  2.5722276194640681e+01 -1.1955116716645009e-03 0.0000000000000000e+00  2.5722347915611341e+01 -1.2496123950237698e-03 0.0000000000000000e+00  2.5722323755296152e+01 -1.2086207681387719e-03 0.0000000000000000e+00  2.5722352981808172e+01 -1.2360260193046799e-03 0.0000000000000000e+00  2.5722338020918539e+01 -1.2176229552085937e-03 0.0000000000000000e+00  2.5722351549905358e+01 -1.2295235706121495e-03 0.0000000000000000e+00  2.5722344153429713e+01 -1.2214677730850360e-03 0.0000000000000000e+00  2.5722350104584034e+01 -1.2265738876682747e-03 0.0000000000000000e+00  2.5722346657440045e+01 -1.2231791894507995e-03 0.0000000000000000e+00  2.5722349180018956e+01 -1.2253108541465819e-03 0.0000000000000000e+00  2.5722347677111291e+01 -1.2239365046158002e-03 0.0000000000000000e+00  2.5722348698790938e+01 -1.2247850676190396e-03 0.0000000000000000e+00  2.5722348090047905e+01 -1.2242558696967545e-03 0.0000000000000000e+00  2.5722348480769227e+01 -1.2245750926551848e-03 0.0000000000000000e+00  2.5722348251390091e+01 -1.2243823003348518e-03 0.0000000000000000e+00  2.5722348392037869e+01 -1.2244956983014849e-03 0.0000000000000000e+00  2.5722348311124644e+01 -1.2244291913084541e-03 0.0000000000000000e+00  2.5722348358935033e+01 -1.2244673684126549e-03 0.0000000000000000e+00  2.5722348332002490e+01 -1.2244455515520126e-03 0.0000000000000000e+00  2.5722348347440608e+01 -1.2244577997937689e-03 0.0000000000000000e+00  2.5722348338913239e+01 -1.2244509586034462e-03 0.0000000000000000e+00  2.5722348343680785e+01 -1.2244547230824880e-03 0.0000000000000000e+00  2.5722348341094253e+01 -1.2244526614309937e-03 0.0000000000000000e+00  2.5722348342512081e+01 -1.2244537770409666e-03 0.0000000000000000e+00  2.5722348341756589e+01 -1.2244531745389600e-03 0.0000000000000000e+00  2.5722348342159549e+01 -1.2244534950524874e-03 0.0000000000000000e+00  2.5722348341944517e+01 -1.2244533256594305e-03 0.0000000000000000e+00  2.5722348342057710e+01 -1.2244534148541217e-03 0.0000000000000000e+00  2.5722348341996788e+01 -1.2244533683536953e-03 0.0000000000000000e+00  2.5722348342027551e+01 -1.2244533925900444e-03 0.0000000000000000e+00  2.5722348342011614e+01 -1.2244533816090991e-03 0.0000000000000000e+00  2.5722348342023814e+01 -1.2244533871538154e-03 0.0000000000000000e+00  2.5722348342020830e+01 -1.2244533841298739e-03 0.0000000000000000e+00  2.5722348342024759e+01 -1.2244533863891144e-03 0.0000000000000000e+00  2.5722348342027551e+01 -1.2244533872824979e-03 0.0000000000000000e+00  2.5722348342037545e+01 -1.2244533915447525e-03 0.0000000000000000e+00  2.5722348342053948e+01 -1.2244533936025253e-03 0.0000000000000000e+00  2.5722348342082960e+01 -1.2244534101613432e-03 0.0000000000000000e+00  2.5722348342148823e+01 -1.2244534263662309e-03 0.0000000000000000e+00  2.5722348342273492e+01 -1.2244534843593245e-03 0.0000000000000000e+00  2.5722348342533163e+01 -1.2244535635733849e-03 0.0000000000000000e+00  2.5722348343042270e+01 -1.2244537796177659e-03 0.0000000000000000e+00  2.5722348344099284e+01 -1.2244541388306753e-03 0.0000000000000000e+00  2.5722348346196686e+01 -1.2244549746845117e-03 0.0000000000000000e+00  2.5722348350502575e+01 -1.2244565294176144e-03 0.0000000000000000e+00  2.5722348359152395e+01 -1.2244598874617996e-03 0.0000000000000000e+00  2.5722348376875210e+01 -1.2244665224114739e-03 0.0000000000000000e+00  2.5722348412899976e+01 -1.2244804425650152e-03 0.0000000000000000e+00  2.5722348487050880e+01 -1.2245088278858855e-03 0.0000000000000000e+00  2.5722348639583991e+01 -1.2245679364006991e-03 0.0000000000000000e+00  2.5722348955733384e+01 -1.2246900446432570e-03 0.0000000000000000e+00  2.5722349611264846e+01 -1.2249431400597074e-03 0.0000000000000000e+00  2.5722350973013313e+01 -1.2254638446662117e-03 0.0000000000000000e+00  2.5722353791536712e+01 -1.2265254604093194e-03 0.0000000000000000e+00  2.5722359591975604e+01 -1.2286575399307583e-03 0.0000000000000000e+00  2.5722371391323215e+01 -1.2328483049563901e-03 0.0000000000000000e+00  2.5722394994654373e+01 -1.2408654299791795e-03 0.0000000000000000e+00  2.5722441053740599e+01 -1.2555970183894954e-03 0.0000000000000000e+00  2.5722527950091902e+01 -1.2812048363536168e-03 0.0000000000000000e+00  2.5722684713536193e+01 -1.3222817084282284e-03 0.0000000000000000e+00  2.5722951860290991e+01 -1.3813730596073561e-03 0.0000000000000000e+00  2.5723374504345241e+01 -1.4527699538447747e-03 0.0000000000000000e+00  2.5723976993479504e+01 -1.5140985577501492e-03 0.0000000000000000e+00  2.5724717274734900e+01 -1.5306269939834535e-03 0.0000000000000000e+00  2.5725484295515628e+01 -1.4960652754920512e-03 0.0000000000000000e+00  2.5726261167034863e+01 -1.4546800981516533e-03 0.0000000000000000e+00  2.5727628605435630e+01 -1.4456782663905935e-03 0.0000000000000000e+00  2.5734589970767225e+01 -8.2274527755608136e-04 0.0000000000000000e+00  2.5749717358587557e+01 0.0000000000000000e+00 0.0000000000000000e+00  3.3428622047453835e+01 0.0000000000000000e+00 0.0000000000000000e+00  3.3426596690435808e+01 1.2674173254409771e-02 0.0000000000000000e+00  3.3412014700773071e+01 -1.5597224136814501e-03 0.0000000000000000e+00  3.3412699128542322e+01 3.4711131888761531e-04 0.0000000000000000e+00  3.3416424201185791e+01 -9.6935381106735515e-04 0.0000000000000000e+00  3.3421902612656602e+01 -2.8690790328027814e-03 0.0000000000000000e+00  3.3429876808970050e+01 -2.6689979110833639e-03 0.0000000000000000e+00  3.3436365314334068e+01 -5.8188643936237623e-04 0.0000000000000000e+00  3.3439605740672306e+01 6.3578413619149214e-04 0.0000000000000000e+00  3.3441098543420551e+01 1.8663473034433861e-03 0.0000000000000000e+00  3.3441839814286119e+01 2.4354344171410957e-03 0.0000000000000000e+00  3.3442189031372465e+01 2.8684412124413130e-03 0.0000000000000000e+00  3.3442382664323368e+01 2.9437712119094058e-03 0.0000000000000000e+00  3.3442425039006508e+01 3.0319590573713202e-03 0.0000000000000000e+00  3.3442478872445150e+01 3.0173348273065058e-03 0.0000000000000000e+00  3.3442469851592740e+01 3.0425859119596914e-03 0.0000000000000000e+00  3.3442491901272696e+01 3.0312367417030697e-03 0.0000000000000000e+00  3.3442481874344459e+01 3.0417250408687258e-03 0.0000000000000000e+00  3.3442492712693209e+01 3.0361869324771387e-03 0.0000000000000000e+00  3.3442486431138775e+01 3.0406875050513257e-03 0.0000000000000000e+00  3.3442491816305562e+01 3.0381594369825586e-03 0.0000000000000000e+00  3.3442488448862264e+01 3.0400325573859957e-03 0.0000000000000000e+00  3.3442490991344719e+01 3.0389428708116942e-03 0.0000000000000000e+00  3.3442489386153113e+01 3.0396930561364679e-03 0.0000000000000000e+00  3.3442490497671258e+01 3.0392520859376278e-03 0.0000000000000000e+00  3.3442489808387720e+01 3.0395387923224876e-03 0.0000000000000000e+00  3.3442490256118390e+01 3.0393712686330077e-03 0.0000000000000000e+00  3.3442489985834733e+01 3.0394753393600342e-03 0.0000000000000000e+00  3.3442490152956836e+01 3.0394154027091210e-03 0.0000000000000000e+00  3.3442490054835872e+01 3.0394512750181860e-03 0.0000000000000000e+00  3.3442490113181385e+01 3.0394309785944556e-03 0.0000000000000000e+00  3.3442490079796663e+01 3.0394427541022661e-03 0.0000000000000000e+00  3.3442490099029698e+01 3.0394362101135832e-03 0.0000000000000000e+00  3.3442490088274681e+01 3.0394399119221390e-03 0.0000000000000000e+00  3.3442490094310116e+01 3.0394378885699428e-03 0.0000000000000000e+00  3.3442490091001886e+01 3.0394390036613036e-03 0.0000000000000000e+00  3.3442490092824507e+01 3.0394384082416360e-03 0.0000000000000000e+00  3.3442490091844121e+01 3.0394387345022591e-03 0.0000000000000000e+00  3.3442490092370022e+01 3.0394385607035619e-03 0.0000000000000000e+00  3.3442490092088129e+01 3.0394386534516610e-03 0.0000000000000000e+00  3.3442490092234543e+01 3.0394386053609586e-03 0.0000000000000000e+00  3.3442490092155204e+01 3.0394386297571616e-03 0.0000000000000000e+00  3.3442490092193026e+01 3.0394386138746995e-03 0.0000000000000000e+00  3.3442490092174729e+01 3.0394386198152818e-03 0.0000000000000000e+00  3.3442490092187519e+01 3.0394386181396434e-03 0.0000000000000000e+00  3.3442490092182481e+01 3.0394386193970820e-03 0.0000000000000000e+00  3.3442490092182879e+01 3.0394386147925769e-03 0.0000000000000000e+00  3.3442490092182823e+01 3.0394386086891058e-03 0.0000000000000000e+00  3.3442490092184698e+01 3.0394386049539582e-03 0.0000000000000000e+00  3.3442490092182176e+01 3.0394385796975107e-03 0.0000000000000000e+00  3.3442490092176833e+01 3.0394385547719087e-03 0.0000000000000000e+00  3.3442490092162352e+01 3.0394384637539335e-03 0.0000000000000000e+00  3.3442490092140666e+01 3.0394383415519983e-03 0.0000000000000000e+00  3.3442490092079353e+01 3.0394379986145438e-03 0.0000000000000000e+00  3.3442490091986564e+01 3.0394374461973810e-03 0.0000000000000000e+00  3.3442490091750429e+01 3.0394361215926916e-03 0.0000000000000000e+00  3.3442490091356369e+01 3.0394337146096577e-03 0.0000000000000000e+00  3.3442490090428215e+01 3.0394284304395597e-03 0.0000000000000000e+00  3.3442490088744833e+01 3.0394181346264739e-03 0.0000000000000000e+00  3.3442490084939507e+01 3.0393963674429556e-03 0.0000000000000000e+00  3.3442490077617819e+01 3.0393522971270933e-03 0.0000000000000000e+00  3.3442490061469265e+01 3.0392602137111588e-03 0.0000000000000000e+00  3.3442490028881849e+01 3.0390706554041082e-03 0.0000000000000000e+00  3.3442489957573947e+01 3.0386773064829935e-03 0.0000000000000000e+00  3.3442489808200101e+01 3.0378704533117811e-03 0.0000000000000000e+00  3.3442489481688554e+01 3.0362269473719703e-03 0.0000000000000000e+00  3.3442488786083871e+01 3.0329337356467022e-03 0.0000000000000000e+00  3.3442487293608281e+01 3.0264487927249865e-03 0.0000000000000000e+00  3.3442484224977868e+01 3.0139325938014602e-03 0.0000000000000000e+00  3.3442478203153499e+01 2.9904263101167413e-03 0.0000000000000000e+00  3.3442467627488909e+01 2.9480415046321895e-03 0.0000000000000000e+00  3.3442452466368927e+01 2.8759728225626600e-03 0.0000000000000000e+00  3.3442441633359188e+01 2.7609835145787900e-03 0.0000000000000000e+00  3.3442469871792355e+01 2.5933343099618211e-03 0.0000000000000000e+00  3.3442616407245509e+01 2.3962758153254792e-03 0.0000000000000000e+00  3.3442958546637307e+01 2.2668047626919719e-03 0.0000000000000000e+00  3.3443481180627103e+01 2.2816473439164269e-03 0.0000000000000000e+00  3.3444166667601600e+01 2.3503237720587104e-03 0.0000000000000000e+00  3.3445187929113537e+01 2.2469811022438843e-03 0.0000000000000000e+00  3.3445927046426156e+01 1.0318600304147789e-03 0.0000000000000000e+00  3.3440163221634734e+01 0.0000000000000000e+00 0.0000000000000000e+00  3.3030761123676079e+01 0.0000000000000000e+00 0.0000000000000000e+00  3.3016346330142461e+01 -7.5719560725921375e-03 0.0000000000000000e+00  3.3019439499323909e+01 7.9897366439010142e-05 0.0000000000000000e+00  3.3014684058391389e+01 -1.1868477669433703e-03 0.0000000000000000e+00  3.3012480503688444e+01 -1.6931608069557099e-03 0.0000000000000000e+00  3.3004992057223767e+01 -4.3107737132784159e-03 0.0000000000000000e+00  3.2998369079610278e+01 -5.6632298467074365e-03 0.0000000000000000e+00  3.2993457682421948e+01 -3.8866912849995655e-03 0.0000000000000000e+00  3.2990786220521649e+01 -1.8703532015191785e-03 0.0000000000000000e+00  3.2989329845934584e+01 -7.0935219046621984e-04 0.0000000000000000e+00  3.2988505905024986e+01 5.2796806857429388e-05 0.0000000000000000e+00  3.2988271097864597e+01 3.4180496406077633e-04 0.0000000000000000e+00  3.2988078458254556e+01 5.2654458180053125e-04 0.0000000000000000e+00  3.2988105951414525e+01 5.5503484549007350e-04 0.0000000000000000e+00  3.2988036935857316e+01 5.9450361203849912e-04 0.0000000000000000e+00  3.2988072656543835e+01 5.8919121466551971e-04 0.0000000000000000e+00  3.2988038080866588e+01 6.0133715137906105e-04 0.0000000000000000e+00  3.2988059071037860e+01 5.9729453071968842e-04 0.0000000000000000e+00  3.2988042036036994e+01 6.0175204326600167e-04 0.0000000000000000e+00  3.2988052772046956e+01 5.9997336737563931e-04 0.0000000000000000e+00  3.2988044828712439e+01 6.0156136162170493e-04 0.0000000000000000e+00  3.2988049891538836e+01 6.0087102951065737e-04 0.0000000000000000e+00  3.2988046380836813e+01 6.0141540755452117e-04 0.0000000000000000e+00  3.2988048600017713e+01 6.0116114722597296e-04 0.0000000000000000e+00  3.2988047137902264e+01 6.0134543004396158e-04 0.0000000000000000e+00  3.2988048043541994e+01 6.0125395118485142e-04 0.0000000000000000e+00  3.2988047471991514e+01 6.0131627096672146e-04 0.0000000000000000e+00  3.2988047817141641e+01 6.0128395280194182e-04 0.0000000000000000e+00  3.2988047607226534e+01 6.0130491580276065e-04 0.0000000000000000e+00  3.2988047730724688e+01 6.0129377296450016e-04 0.0000000000000000e+00  3.2988047657968330e+01 6.0130070690503237e-04 0.0000000000000000e+00  3.2988047699727147e+01 6.0129698603779186e-04 0.0000000000000000e+00  3.2988047675790419e+01 6.0129921880365902e-04 0.0000000000000000e+00  3.2988047689223784e+01 6.0129802433486084e-04 0.0000000000000000e+00  3.2988047681700941e+01 6.0129871860216183e-04 0.0000000000000000e+00  3.2988047685839959e+01 6.0129834269552528e-04 0.0000000000000000e+00  3.2988047683570429e+01 6.0129855809338878e-04 0.0000000000000000e+00  3.2988047684799987e+01 6.0129845049794006e-04 0.0000000000000000e+00  3.2988047684137612e+01 6.0129851008314120e-04 0.0000000000000000e+00  3.2988047684488869e+01 6.0129847928016092e-04 0.00000000000