<?xml version="1.0"?>
<VTKFile type="UnstructuredGrid"  version="0.1"  >
<UnstructuredGrid>
<Piece  NumberOfPoints="1369" NumberOfCells="2560">
<Points>
<DataArray  type="Float64"  NumberOfComponents="3"  format="ascii">0 0 0  0.75 0 0  1.5 0 0  2.25 0 0  3 0 0  3.75 0 0  4.5 0 0  5.25 0 0  6 0 0  6.75 0 0  7.5 0 0  8.25 0 0  9 0 0  9.75 0 0  10.5 0 0  11.25 0 0  12 0 0  12.75 0 0  13.5 0 0  14.25 0 0  15 0 0  15.75 0 0  16.5 0 0  17.25 0 0  18 0 0  18.75 0 0  19.5 0 0  20.25 0 0  21 0 0  21.75 0 0  22.5 0 0  23.25 0 0  24 0 0  24.75 0 0  25.5 0 0  26.25 0 0  27 0 0  27.75 0 0  28.5 0 0  29.25 0 0  30 0 0  30.75 0 0  31.5 0 0  32.25 0 0  33 0 0  33.75 0 0  34.5 0 0  35.25 0 0  36 0 0  36.75 0 0  37.5 0 0  38.25 0 0  39 0 0  39.75 0 0  40.5 0 0  41.25 0 0  42 0 0  42.75 0 0  43.5 0 0  44.25 0 0  45 0 0  45.75 0 0  46.5 0 0  47.25 0 0  48 0 0  48.75 0 0  49.5 0 0  50.25 0 0  51 0 0  51.75 0 0  52.5 0 0  53.25 0 0  54 0 0  54.75 0 0  55.5 0 0  56.25 0 0  57 0 0  57.75 0 0  58.5 0 0  59.25 0 0  60 0 0  0 0.5 0  0.75 0.5 0  1.5 0.5 0  2.25 0.5 0  3 0.5 0  3.75 0.5 0  4.5 0.5 0  5.25 0.5 0  6 0.5 0  6.75 0.5 0  7.5 0.5 0  8.25 0.5 0  9 0.5 0  9.75 0.5 0  10.5 0.5 0  11.25 0.5 0  12 0.5 0  12.75 0.5 0  13.5 0.5 0  14.25 0.5 0  15 0.5 0  15.75 0.5 0  16.5 0.5 0  17.25 0.5 0  18 0.5 0  18.75 0.5 0  19.5 0.5 0  20.25 0.5 0  21 0.5 0  21.75 0.5 0  22.5 0.5 0  23.25 0.5 0  24 0.5 0  24.75 0.5 0  25.5 0.5 0  26.25 0.5 0  27 0.5 0  27.75 0.5 0  28.5 0.5 0  29.25 0.5 0  30 0.5 0  30.75 0.5 0  31.5 0.5 0  32.25 0.5 0  33 0.5 0  33.75 0.5 0  34.5 0.5 0  35.25 0.5 0  36 0.5 0  36.75 0.5 0  37.5 0.5 0  38.25 0.5 0  39 0.5 0  39.75 0.5 0  40.5 0.5 0  41.25 0.5 0  42 0.5 0  42.75 0.5 0  43.5 0.5 0  44.25 0.5 0  45 0.5 0  45.75 0.5 0  46.5 0.5 0  47.25 0.5 0  48 0.5 0  48.75 0.5 0  49.5 0.5 0  50.25 0.5 0  51 0.5 0  51.75 0.5 0  52.5 0.5 0  53.25 0.5 0  54 0.5 0  54.75 0.5 0  55.5 0.5 0  56.25 0.5 0  57 0.5 0  57.75 0.5 0  58.5 0.5 0  59.25 0.5 0  60 0.5 0  0 1 0  0.75 1 0  1.5 1 0  2.25 1 0  3 1 0  3.75 1 0  4.5 1 0  5.25 1 0  6 1 0  6.75 1 0  7.5 1 0  8.25 1 0  9 1 0  9.75 1 0  10.5 1 0  11.25 1 0  12 1 0  12.75 1 0  13.5 1 0  14.25 1 0  15 1 0  15.75 1 0  16.5 1 0  17.25 1 0  18 1 0  18.75 1 0  19.5 1 0  20.25 1 0  21 1 0  21.75 1 0  22.5 1 0  23.25 1 0  24 1 0  24.75 1 0  25.5 1 0  26.25 1 0  27 1 0  27.75 1 0  28.5 1 0  29.25 1 0  30 1 0  30.75 1 0  31.5 1 0  32.25 1 0  33 1 0  33.75 1 0  34.5 1 0  35.25 1 0  36 1 0  36.75 1 0  37.5 1 0  38.25 1 0  39 1 0  39.75 1 0  40.5 1 0  41.25 1 0  42 1 0  42.75 1 0  43.5 1 0  44.25 1 0  45 1 0  45.75 1 0  46.5 1 0  47.25 1 0  48 1 0  48.75 1 0  49.5 1 0  50.25 1 0  51 1 0  51.75 1 0  52.5 1 0  53.25 1 0  54 1 0  54.75 1 0  55.5 1 0  56.25 1 0  57 1 0  57.75 1 0  58.5 1 0  59.25 1 0  60 1 0  0 1.5 0  0.75 1.5 0  1.5 1.5 0  2.25 1.5 0  3 1.5 0  3.75 1.5 0  4.5 1.5 0  5.25 1.5 0  6 1.5 0  6.75 1.5 0  7.5 1.5 0  8.25 1.5 0  9 1.5 0  9.75 1.5 0  10.5 1.5 0  11.25 1.5 0  12 1.5 0  12.75 1.5 0  13.5 1.5 0  14.25 1.5 0  15 1.5 0  15.75 1.5 0  16.5 1.5 0  17.25 1.5 0  18 1.5 0  18.75 1.5 0  19.5 1.5 0  20.25 1.5 0  21 1.5 0  21.75 1.5 0  22.5 1.5 0  23.25 1.5 0  24 1.5 0  24.75 1.5 0  25.5 1.5 0  26.25 1.5 0  27 1.5 0  27.75 1.5 0  28.5 1.5 0  29.25 1.5 0  30 1.5 0  30.75 1.5 0  31.5 1.5 0  32.25 1.5 0  33 1.5 0  33.75 1.5 0  34.5 1.5 0  35.25 1.5 0  36 1.5 0  36.75 1.5 0  37.5 1.5 0  38.25 1.5 0  39 1.5 0  39.75 1.5 0  40.5 1.5 0  41.25 1.5 0  42 1.5 0  42.75 1.5 0  43.5 1.5 0  44.25 1.5 0  45 1.5 0  45.75 1.5 0  46.5 1.5 0  47.25 1.5 0  48 1.5 0  48.75 1.5 0  49.5 1.5 0  50.25 1.5 0  51 1.5 0  51.75 1.5 0  52.5 1.5 0  53.25 1.5 0  54 1.5 0  54.75 1.5 0  55.5 1.5 0  56.25 1.5 0  57 1.5 0  57.75 1.5 0  58.5 1.5 0  59.25 1.5 0  60 1.5 0  0 2 0  0.75 2 0  1.5 2 0  2.25 2 0  3 2 0  3.75 2 0  4.5 2 0  5.25 2 0  6 2 0  6.75 2 0  7.5 2 0  8.25 2 0  9 2 0  9.75 2 0  10.5 2 0  11.25 2 0  12 2 0  12.75 2 0  13.5 2 0  14.25 2 0  15 2 0  15.75 2 0  16.5 2 0  17.25 2 0  18 2 0  18.75 2 0  19.5 2 0  20.25 2 0  21 2 0  21.75 2 0  22.5 2 0  23.25 2 0  24 2 0  24.75 2 0  25.5 2 0  26.25 2 0  27 2 0  27.75 2 0  28.5 2 0  29.25 2 0  30 2 0  30.75 2 0  31.5 2 0  32.25 2 0  33 2 0  33.75 2 0  34.5 2 0  35.25 2 0  36 2 0  36.75 2 0  37.5 2 0  38.25 2 0  39 2 0  39.75 2 0  40.5 2 0  41.25 2 0  42 2 0  42.75 2 0  43.5 2 0  44.25 2 0  45 2 0  45.75 2 0  46.5 2 0  47.25 2 0  48 2 0  48.75 2 0  49.5 2 0  50.25 2 0  51 2 0  51.75 2 0  52.5 2 0  53.25 2 0  54 2 0  54.75 2 0  55.5 2 0  56.25 2 0  57 2 0  57.75 2 0  58.5 2 0  59.25 2 0  60 2 0  0 2.5 0  0.75 2.5 0  1.5 2.5 0  2.25 2.5 0  3 2.5 0  3.75 2.5 0  4.5 2.5 0  5.25 2.5 0  6 2.5 0  6.75 2.5 0  7.5 2.5 0  8.25 2.5 0  9 2.5 0  9.75 2.5 0  10.5 2.5 0  11.25 2.5 0  12 2.5 0  12.75 2.5 0  13.5 2.5 0  14.25 2.5 0  15 2.5 0  15.75 2.5 0  16.5 2.5 0  17.25 2.5 0  18 2.5 0  18.75 2.5 0  19.5 2.5 0  20.25 2.5 0  21 2.5 0  21.75 2.5 0  22.5 2.5 0  23.25 2.5 0  24 2.5 0  24.75 2.5 0  25.5 2.5 0  26.25 2.5 0  27 2.5 0  27.75 2.5 0  28.5 2.5 0  29.25 2.5 0  30 2.5 0  30.75 2.5 0  31.5 2.5 0  32.25 2.5 0  33 2.5 0  33.75 2.5 0  34.5 2.5 0  35.25 2.5 0  36 2.5 0  36.75 2.5 0  37.5 2.5 0  38.25 2.5 0  39 2.5 0  39.75 2.5 0  40.5 2.5 0  41.25 2.5 0  42 2.5 0  42.75 2.5 0  43.5 2.5 0  44.25 2.5 0  45 2.5 0  45.75 2.5 0  46.5 2.5 0  47.25 2.5 0  48 2.5 0  48.75 2.5 0  49.5 2.5 0  50.25 2.5 0  51 2.5 0  51.75 2.5 0  52.5 2.5 0  53.25 2.5 0  54 2.5 0  54.75 2.5 0  55.5 2.5 0  56.25 2.5 0  57 2.5 0  57.75 2.5 0  58.5 2.5 0  59.25 2.5 0  60 2.5 0  0 3 0  0.75 3 0  1.5 3 0  2.25 3 0  3 3 0  3.75 3 0  4.5 3 0  5.25 3 0  6 3 0  6.75 3 0  7.5 3 0  8.25 3 0  9 3 0  9.75 3 0  10.5 3 0  11.25 3 0  12 3 0  12.75 3 0  13.5 3 0  14.25 3 0  15 3 0  15.75 3 0  16.5 3 0  17.25 3 0  18 3 0  18.75 3 0  19.5 3 0  20.25 3 0  21 3 0  21.75 3 0  22.5 3 0  23.25 3 0  24 3 0  24.75 3 0  25.5 3 0  26.25 3 0  27 3 0  27.75 3 0  28.5 3 0  29.25 3 0  30 3 0  30.75 3 0  31.5 3 0  32.25 3 0  33 3 0  33.75 3 0  34.5 3 0  35.25 3 0  36 3 0  36.75 3 0  37.5 3 0  38.25 3 0  39 3 0  39.75 3 0  40.5 3 0  41.25 3 0  42 3 0  42.75 3 0  43.5 3 0  44.25 3 0  45 3 0  45.75 3 0  46.5 3 0  47.25 3 0  48 3 0  48.75 3 0  49.5 3 0  50.25 3 0  51 3 0  51.75 3 0  52.5 3 0  53.25 3 0  54 3 0  54.75 3 0  55.5 3 0  56.25 3 0  57 3 0  57.75 3 0  58.5 3 0  59.25 3 0  60 3 0  0 3.5 0  0.75 3.5 0  1.5 3.5 0  2.25 3.5 0  3 3.5 0  3.75 3.5 0  4.5 3.5 0  5.25 3.5 0  6 3.5 0  6.75 3.5 0  7.5 3.5 0  8.25 3.5 0  9 3.5 0  9.75 3.5 0  10.5 3.5 0  11.25 3.5 0  12 3.5 0  12.75 3.5 0  13.5 3.5 0  14.25 3.5 0  15 3.5 0  15.75 3.5 0  16.5 3.5 0  17.25 3.5 0  18 3.5 0  18.75 3.5 0  19.5 3.5 0  20.25 3.5 0  21 3.5 0  21.75 3.5 0  22.5 3.5 0  23.25 3.5 0  24 3.5 0  24.75 3.5 0  25.5 3.5 0  26.25 3.5 0  27 3.5 0  27.75 3.5 0  28.5 3.5 0  29.25 3.5 0  30 3.5 0  30.75 3.5 0  31.5 3.5 0  32.25 3.5 0  33 3.5 0  33.75 3.5 0  34.5 3.5 0  35.25 3.5 0  36 3.5 0  36.75 3.5 0  37.5 3.5 0  38.25 3.5 0  39 3.5 0  39.75 3.5 0  40.5 3.5 0  41.25 3.5 0  42 3.5 0  42.75 3.5 0  43.5 3.5 0  44.25 3.5 0  45 3.5 0  45.75 3.5 0  46.5 3.5 0  47.25 3.5 0  48 3.5 0  48.75 3.5 0  49.5 3.5 0  50.25 3.5 0  51 3.5 0  51.75 3.5 0  52.5 3.5 0  53.25 3.5 0  54 3.5 0  54.75 3.5 0  55.5 3.5 0  56.25 3.5 0  57 3.5 0  57.75 3.5 0  58.5 3.5 0  59.25 3.5 0  60 3.5 0  0 4 0  0.75 4 0  1.5 4 0  2.25 4 0  3 4 0  3.75 4 0  4.5 4 0  5.25 4 0  6 4 0  6.75 4 0  7.5 4 0  8.25 4 0  9 4 0  9.75 4 0  10.5 4 0  11.25 4 0  12 4 0  12.75 4 0  13.5 4 0  14.25 4 0  15 4 0  15.75 4 0  16.5 4 0  17.25 4 0  18 4 0  18.75 4 0  19.5 4 0  20.25 4 0  21 4 0  21.75 4 0  22.5 4 0  23.25 4 0  24 4 0  24.75 4 0  25.5 4 0  26.25 4 0  27 4 0  27.75 4 0  28.5 4 0  29.25 4 0  30 4 0  30.75 4 0  31.5 4 0  32.25 4 0  33 4 0  33.75 4 0  34.5 4 0  35.25 4 0  36 4 0  36.75 4 0  37.5 4 0  38.25 4 0  39 4 0  39.75 4 0  40.5 4 0  41.25 4 0  42 4 0  42.75 4 0  43.5 4 0  44.25 4 0  45 4 0  45.75 4 0  46.5 4 0  47.25 4 0  48 4 0  48.75 4 0  49.5 4 0  50.25 4 0  51 4 0  51.75 4 0  52.5 4 0  53.25 4 0  54 4 0  54.75 4 0  55.5 4 0  56.25 4 0  57 4 0  57.75 4 0  58.5 4 0  59.25 4 0  60 4 0  0.375 0.25 0  1.125 0.25 0  1.875 0.25 0  2.625 0.25 0  3.375 0.25 0  4.125 0.25 0  4.875 0.25 0  5.625 0.25 0  6.375 0.25 0  7.125 0.25 0  7.875 0.25 0  8.625 0.25 0  9.375 0.25 0  10.125 0.25 0  10.875 0.25 0  11.625 0.25 0  12.375 0.25 0  13.125 0.25 0  13.875 0.25 0  14.625 0.25 0  15.375 0.25 0  16.125 0.25 0  16.875 0.25 0  17.625 0.25 0  18.375 0.25 0  19.125 0.25 0  19.875 0.25 0  20.625 0.25 0  21.375 0.25 0  22.125 0.25 0  22.875 0.25 0  23.625 0.25 0  24.375 0.25 0  25.125 0.25 0  25.875 0.25 0  26.625 0.25 0  27.375 0.25 0  28.125 0.25 0  28.875 0.25 0  29.625 0.25 0  30.375 0.25 0  31.125 0.25 0  31.875 0.25 0  32.625 0.25 0  33.375 0.25 0  34.125 0.25 0  34.875 0.25 0  35.625 0.25 0  36.375 0.25 0  37.125 0.25 0  37.875 0.25 0  38.625 0.25 0  39.375 0.25 0  40.125 0.25 0  40.875 0.25 0  41.625 0.25 0  42.375 0.25 0  43.125 0.25 0  43.875 0.25 0  44.625 0.25 0  45.375 0.25 0  46.125 0.25 0  46.875 0.25 0  47.625 0.25 0  48.375 0.25 0  49.125 0.25 0  49.875 0.25 0  50.625 0.25 0  51.375 0.25 0  52.125 0.25 0  52.875 0.25 0  53.625 0.25 0  54.375 0.25 0  55.125 0.25 0  55.875 0.25 0  56.625 0.25 0  57.375 0.25 0  58.125 0.25 0  58.875 0.25 0  59.625 0.25 0  0.375 0.75 0  1.125 0.75 0  1.875 0.75 0  2.625 0.75 0  3.375 0.75 0  4.125 0.75 0  4.875 0.75 0  5.625 0.75 0  6.375 0.75 0  7.125 0.75 0  7.875 0.75 0  8.625 0.75 0  9.375 0.75 0  10.125 0.75 0  10.875 0.75 0  11.625 0.75 0  12.375 0.75 0  13.125 0.75 0  13.875 0.75 0  14.625 0.75 0  15.375 0.75 0  16.125 0.75 0  16.875 0.75 0  17.625 0.75 0  18.375 0.75 0  19.125 0.75 0  19.875 0.75 0  20.625 0.75 0  21.375 0.75 0  22.125 0.75 0  22.875 0.75 0  23.625 0.75 0  24.375 0.75 0  25.125 0.75 0  25.875 0.75 0  26.625 0.75 0  27.375 0.75 0  28.125 0.75 0  28.875 0.75 0  29.625 0.75 0  30.375 0.75 0  31.125 0.75 0  31.875 0.75 0  32.625 0.75 0  33.375 0.75 0  34.125 0.75 0  34.875 0.75 0  35.625 0.75 0  36.375 0.75 0  37.125 0.75 0  37.875 0.75 0  38.625 0.75 0  39.375 0.75 0  40.125 0.75 0  40
[...]
<PointData  Vectors="f_8-0"> 
<DataArray  type="Float64"  Name="f_8-0"  NumberOfComponents="3" format="ascii">0.0000000000000000e+00 0.0000000000000000e+00 0.0000000000000000e+00  0.0000000000000000e+00 0.0000000000000000e+00 0.0000000000000000e+00  0.0000000000000000e+00 0.0000000000000000e+00 0.0000000000000000e+00  0.0000000000000000e+00 0.0000000000000000e+00 0.0000000000000000e+00  0.0000000000000000e+00 0.0000000000000000e+00 0.0000000000000000e+00  0.0000000000000000e+00 0.0000000000000000e+00 0.0000000000000000e+00  0.0000000000000000e+00 0.0000000000000000e+00 0.0000000000000000e+00  0.0000000000000000e+00 0.0000000000000000e+00 0.0000000000000000e+00  0.0000000000000000e+00 0.0000000000000000e+00 0.0000000000000000e+00  0.0000000000000000e+00 0.0000000000000000e+00 0.0000000000000000e+00  0.0000000000000000e+00 0.0000000000000000e+00 0.0000000000000000e+00  0.0000000000000000e+00 0.0000000000000000e+00 0.0000000000000000e+00  0.0000000000000000e+00 0.0000000000000000e+00 0.0000000000000000e+00  0.0000000000000000e+00 0.0000000000000000e+00 0.0000000000000000e+00  0.0000000000000000e+00 0.0000000000000000e+00 0.0000000000000000e+00  0.0000000000000000e+00 0.0000000000000000e+00 0.0000000000000000e+00  0.0000000000000000e+00 0.0000000000000000e+00 0.0000000000000000e+00  0.0000000000000000e+00 0.0000000000000000e+00 0.0000000000000000e+00  0.0000000000000000e+00 0.0000000000000000e+00 0.0000000000000000e+00  0.0000000000000000e+00 0.0000000000000000e+00 0.0000000000000000e+00  0.0000000000000000e+00 0.0000000000000000e+00 0.0000000000000000e+00  0.0000000000000000e+00 0.0000000000000000e+00 0.0000000000000000e+00  0.0000000000000000e+00 0.0000000000000000e+00 0.0000000000000000e+00  0.0000000000000000e+00 0.0000000000000000e+00 0.0000000000000000e+00  0.0000000000000000e+00 0.0000000000000000e+00 0.0000000000000000e+00  0.0000000000000000e+00 0.0000000000000000e+00 0.0000000000000000e+00  0.0000000000000000e+00 0.0000000000000000e+00 0.0000000000000000e+00  0.0000000000000000e+00 0.0000000000000000e+00 0.0000000000000000e+00  0.0000000000000000e+00 0.0000000000000000e+00 0.0000000000000000e+00  0.0000000000000000e+00 0.0000000000000000e+00 0.0000000000000000e+00  0.0000000000000000e+00 0.0000000000000000e+00 0.0000000000000000e+00  0.0000000000000000e+00 0.0000000000000000e+00 0.0000000000000000e+00  0.0000000000000000e+00 0.0000000000000000e+00 0.0000000000000000e+00  0.0000000000000000e+00 0.0000000000000000e+00 0.0000000000000000e+00  0.0000000000000000e+00 0.0000000000000000e+00 0.0000000000000000e+00  0.0000000000000000e+00 0.0000000000000000e+00 0.0000000000000000e+00  0.0000000000000000e+00 0.0000000000000000e+00 0.0000000000000000e+00  0.0000000000000000e+00 0.0000000000000000e+00 0.0000000000000000e+00  0.0000000000000000e+00 0.0000000000000000e+00 0.0000000000000000e+00  0.0000000000000000e+00 0.0000000000000000e+00 0.0000000000000000e+00  0.0000000000000000e+00 0.0000000000000000e+00 0.0000000000000000e+00  0.0000000000000000e+00 0.0000000000000000e+00 0.0000000000000000e+00  0.0000000000000000e+00 0.0000000000000000e+00 0.0000000000000000e+00  0.0000000000000000e+00 0.0000000000000000e+00 0.0000000000000000e+00  0.0000000000000000e+00 0.0000000000000000e+00 0.0000000000000000e+00  0.0000000000000000e+00 0.0000000000000000e+00 0.0000000000000000e+00  0.0000000000000000e+00 0.0000000000000000e+00 0.0000000000000000e+00  0.0000000000000000e+00 0.0000000000000000e+00 0.0000000000000000e+00  0.0000000000000000e+00 0.0000000000000000e+00 0.0000000000000000e+00  0.0000000000000000e+00 0.0000000000000000e+00 0.0000000000000000e+00  0.0000000000000000e+00 0.0000000000000000e+00 0.0000000000000000e+00  0.0000000000000000e+00 0.0000000000000000e+00 0.0000000000000000e+00  0.0000000000000000e+00 0.0000000000000000e+00 0.0000000000000000e+00  0.0000000000000000e+00 0.0000000000000000e+00 0.0000000000000000e+00  0.0000000000000000e+00 0.0000000000000000e+00 0.0000000000000000e+00  0.0000000000000000e+00 0.0000000000000000e+00 0.0000000000000000e+00  0.0000000000000000e+00 0.0000000000000000e+00 0.0000000000000000e+00  0.0000000000000000e+00 0.0000000000000000e+00 0.0000000000000000e+00  0.0000000000000000e+00 0.0000000000000000e+00 0.0000000000000000e+00  0.0000000000000000e+00 0.0000000000000000e+00 0.0000000000000000e+00  0.0000000000000000e+00 0.0000000000000000e+00 0.0000000000000000e+00  0.0000000000000000e+00 0.0000000000000000e+00 0.0000000000000000e+00  0.0000000000000000e+00 0.0000000000000000e+00 0.0000000000000000e+00  0.0000000000000000e+00 0.0000000000000000e+00 0.0000000000000000e+00  0.0000000000000000e+00 0.0000000000000000e+00 0.0000000000000000e+00  0.0000000000000000e+00 0.0000000000000000e+00 0.0000000000000000e+00  0.0000000000000000e+00 0.0000000000000000e+00 0.0000000000000000e+00  0.0000000000000000e+00 0.0000000000000000e+00 0.0000000000000000e+00  0.0000000000000000e+00 0.0000000000000000e+00 0.0000000000000000e+00  0.0000000000000000e+00 0.0000000000000000e+00 0.0000000000000000e+00  0.0000000000000000e+00 0.0000000000000000e+00 0.0000000000000000e+00  0.0000000000000000e+00 0.0000000000000000e+00 0.0000000000000000e+00  0.0000000000000000e+00 0.0000000000000000e+00 0.0000000000000000e+00  0.0000000000000000e+00 0.0000000000000000e+00 0.0000000000000000e+00  0.0000000000000000e+00 0.0000000000000000e+00 0.0000000000000000e+00  0.0000000000000000e+00 0.0000000000000000e+00 0.0000000000000000e+00  0.0000000000000000e+00 0.0000000000000000e+00 0.0000000000000000e+00  0.0000000000000000e+00 0.0000000000000000e+00 0.0000000000000000e+00  0.0000000000000000e+00 0.0000000000000000e+00 0.0000000000000000e+00  0.0000000000000000e+00 0.0000000000000000e+00 0.0000000000000000e+00  0.0000000000000000e+00 0.0000000000000000e+00 0.0000000000000000e+00  -2.1729812692549824e+00 0.0000000000000000e+00 0.0000000000000000e+00  -2.2327974476557304e+00 -3.3223831304033564e-02 0.0000000000000000e+00  -2.2490157882517932e+00 -3.0037077996051499e-03 0.0000000000000000e+00  -2.2609695130542882e+00 2.1411741347628463e-03 0.0000000000000000e+00  -2.2741485030190667e+00 2.7392069611166508e-03 0.0000000000000000e+00  -2.2851247236877423e+00 1.6830251441118768e-03 0.0000000000000000e+00  -2.2913186175976819e+00 -2.3317987010051334e-04 0.0000000000000000e+00  -2.2943979233540150e+00 -1.4586989524391237e-03 0.0000000000000000e+00  -2.2944694423467307e+00 -2.4918589663147084e-03 0.0000000000000000e+00  -2.2931910038267804e+00 -2.9046358911795512e-03 0.0000000000000000e+00  -2.2908302739165740e+00 -3.2478401102200680e-03 0.0000000000000000e+00  -2.2880552505297538e+00 -3.3215879301643435e-03 0.0000000000000000e+00  -2.2851864014525685e+00 -3.2258267606654861e-03 0.0000000000000000e+00  -2.2828719890538314e+00 -2.9305172661536123e-03 0.0000000000000000e+00  -2.2812483056586492e+00 -2.6508009166384613e-03 0.0000000000000000e+00  -2.2803038922882646e+00 -2.4245032885247811e-03 0.0000000000000000e+00  -2.2797933250159632e+00 -2.2992972629120954e-03 0.0000000000000000e+00  -2.2795514100293275e+00 -2.2286121048746585e-03 0.0000000000000000e+00  -2.2794311341539473e+00 -2.2001442044095572e-03 0.0000000000000000e+00  -2.2793754566149844e+00 -2.1847109480642312e-03 0.0000000000000000e+00  -2.2793435481208513e+00 -2.1794706180311009e-03 0.0000000000000000e+00  -2.2793267679202809e+00 -2.1754588637733609e-03 0.0000000000000000e+00  -2.2793154721063535e+00 -2.1740639399556497e-03 0.0000000000000000e+00  -2.2793091237591616e+00 -2.1725836995787383e-03 0.0000000000000000e+00  -2.2793046978385489e+00 -2.1720540579754388e-03 0.0000000000000000e+00  -2.2793022137412349e+00 -2.1714586949779313e-03 0.0000000000000000e+00  -2.2793004930573781e+00 -2.1712518567572900e-03 0.0000000000000000e+00  -2.2792995275353336e+00 -2.1710200970064784e-03 0.0000000000000000e+00  -2.2792988632919235e+00 -2.1709407463146313e-03 0.0000000000000000e+00  -2.2792984798913078e+00 -2.1708535978484872e-03 0.0000000000000000e+00  -2.2792982195936697e+00 -2.1708214777776498e-03 0.0000000000000000e+00  -2.2792980596062544e+00 -2.1707895900559644e-03 0.0000000000000000e+00  -2.2792979545906094e+00 -2.1707750173159839e-03 0.0000000000000000e+00  -2.2792978837540452e+00 -2.1707637837150434e-03 0.0000000000000000e+00  -2.2792978398812114e+00 -2.1707563970093540e-03 0.0000000000000000e+00  -2.2792978067809186e+00 -2.1707526961834175e-03 0.0000000000000000e+00  -2.2792977877217422e+00 -2.1707487059281672e-03 0.0000000000000000e+00  -2.2792977715842699e+00 -2.1707476406782884e-03 0.0000000000000000e+00  -2.2792977629097821e+00 -2.1707454437082715e-03 0.0000000000000000e+00  -2.2792977547837419e+00 -2.1707452134913131e-03 0.0000000000000000e+00  -2.2792977506000960e+00 -2.1707440146453497e-03 0.0000000000000000e+00  -2.2792977463946467e+00 -2.1707440133453743e-03 0.0000000000000000e+00  -2.2792977442381499e+00 -2.1707433666928295e-03 0.0000000000000000e+00  -2.2792977419992235e+00 -2.1707433880306030e-03 0.0000000000000000e+00  -2.2792977408072934e+00 -2.1707430544730638e-03 0.0000000000000000e+00  -2.2792977395783112e+00 -2.1707430660093696e-03 0.0000000000000000e+00  -2.2792977388778111e+00 -2.1707428947797705e-03 0.0000000000000000e+00  -2.2792977381857957e+00 -2.1707428930583094e-03 0.0000000000000000e+00  -2.2792977377564325e+00 -2.1707428052746298e-03 0.0000000000000000e+00  -2.2792977373512957e+00 -2.1707427976029162e-03 0.0000000000000000e+00  -2.2792977370814422e+00 -2.1707427515439840e-03 0.0000000000000000e+00  -2.2792977368398830e+00 -2.1707427431362967e-03 0.0000000000000000e+00  -2.2792977366664231e+00 -2.1707427192294996e-03 0.0000000000000000e+00  -2.2792977365148173e+00 -2.1707427125328481e-03 0.0000000000000000e+00  -2.2792977364014479e+00 -2.1707427009325115e-03 0.0000000000000000e+00  -2.2792977362989206e+00 -2.1707426973996843e-03 0.0000000000000000e+00  -2.2792977362121665e+00 -2.1707426926595476e-03 0.0000000000000000e+00  -2.2792977361236422e+00 -2.1707426976482506e-03 0.0000000000000000e+00  -2.2792977360106939e+00 -2.1707427145212020e-03 0.0000000000000000e+00  -2.2792977358313773e+00 -2.1707427546063239e-03 0.0000000000000000e+00  -2.2792977354813493e+00 -2.1707428608061423e-03 0.0000000000000000e+00  -2.2792977347333330e+00 -2.1707430882512827e-03 0.0000000000000000e+00  -2.2792977330617417e+00 -2.1707436427551674e-03 0.0000000000000000e+00  -2.2792977293083614e+00 -2.1707448452691772e-03 0.0000000000000000e+00  -2.2792977207883407e+00 -2.1707476821019446e-03 0.0000000000000000e+00  -2.2792977015456568e+00 -2.1707539561446909e-03 0.0000000000000000e+00  -2.2792976578570636e+00 -2.1707686016547659e-03 0.0000000000000000e+00  -2.2792975585802253e+00 -2.1708018341114774e-03 0.0000000000000000e+00  -2.2792973310011608e+00 -2.1708801346674712e-03 0.0000000000000000e+00  -2.2792968044528741e+00 -2.1710638771688857e-03 0.0000000000000000e+00  -2.2792955670898012e+00 -2.1715079789694325e-03 0.0000000000000000e+00  -2.2792926098940796e+00 -2.1725904537924470e-03 0.0000000000000000e+00  -2.2792853765195189e+00 -2.1753347813005669e-03 0.0000000000000000e+00  -2.2792674322060611e+00 -2.1821100929692171e-03 0.0000000000000000e+00  -2.2792212422588038e+00 -2.2010256462593023e-03 0.0000000000000000e+00  -2.2791066518003822e+00 -2.2397461783465384e-03 0.0000000000000000e+00  -2.2787780564728433e+00 -2.4143486657111084e-03 0.0000000000000000e+00  -2.2781584918473134e+00 -2.3424690371899454e-03 0.0000000000000000e+00  -2.2750941751399703e+00 -5.3307877196244347e-03 0.0000000000000000e+00  -2.2802891807342882e+00 1.3797883913037072e-02 0.0000000000000000e+00  -2.2197117004534088e+00 0.0000000000000000e+00 0.0000000000000000e+00  6.3261618868093299e+00 0.0000000000000000e+00 0.0000000000000000e+00  6.3440930751343823e+00 1.6846794744767777e-02 0.0000000000000000e+00  6.3269976192148176e+00 9.6024577573852483e-03 0.0000000000000000e+00  6.3261429519178103e+00 1.4124654176310229e-02 0.0000000000000000e+00  6.3228505968092863e+00 1.1919174914589941e-02 0.0000000000000000e+00  6.3236590845355884e+00 8.0454103103553883e-03 0.0000000000000000e+00  6.3228472484148286e+00 4.6321771177335385e-03 0.0000000000000000e+00  6.3231304232937129e+00 1.5293443941646093e-03 0.0000000000000000e+00  6.3228552273557419e+00 -3.2393683903850500e-04 0.0000000000000000e+00  6.3234283511923506e+00 -1.5584434272622849e-03 0.0000000000000000e+00  6.3238766761866598e+00 -2.1358767947567592e-03 0.0000000000000000e+00  6.3248883982671948e+00 -2.6926832596556307e-03 0.0000000000000000e+00  6.3263180871387217e+00 -2.6062291780054540e-03 0.0000000000000000e+00  6.3281130076384606e+00 -2.0520953971712498e-03 0.0000000000000000e+00  6.3296120001732179e+00 -1.2703046864576675e-03 0.0000000000000000e+00  6.3307063785781974e+00 -6.5139065094845406e-04 0.0000000000000000e+00  6.3313371508028187e+00 -2.3279189809028770e-04 0.0000000000000000e+00  6.3316920102708885e+00 -1.6086767543384720e-05 0.0000000000000000e+00  6.3318575249678037e+00 9.6929493212624245e-05 0.0000000000000000e+00  6.3319450931431831e+00 1.4365088815349337e-04 0.0000000000000000e+00  6.3319833743292593e+00 1.6852285138717874e-04 0.0000000000000000e+00  6.3320070985726264e+00 1.7848828723616113e-04 0.0000000000000000e+00  6.3320181796423629e+00 1.8557802027610257e-04 0.0000000000000000e+00  6.3320264988051855e+00 1.8869110787317000e-04 0.0000000000000000e+00  6.3320305505084811e+00 1.9138243012486425e-04 0.0000000000000000e+00  6.3320338035599866e+00 1.9257922166494049e-04 0.0000000000000000e+00  6.3320353631680915e+00 1.9365184683816755e-04 0.0000000000000000e+00  6.3320366349887474e+00 1.9411098286313815e-04 0.0000000000000000e+00  6.3320372335434456e+00 1.9452649809366922e-04 0.0000000000000000e+00  6.3320377260179743e+00 1.9470071346110843e-04 0.0000000000000000e+00  6.3320379618384202e+00 1.9485853345747181e-04 0.0000000000000000e+00  6.3320381535336239e+00 1.9492760702446684e-04 0.0000000000000000e+00  6.3320382525615440e+00 1.9498719416463989e-04 0.0000000000000000e+00  6.3320383281904000e+00 1.9501709205551045e-04 0.0000000000000000e+00  6.3320383731586150e+00 1.9503945412613420e-04 0.0000000000000000e+00  6.3320384034302597e+00 1.9505365694338076e-04 0.0000000000000000e+00  6.3320384252945736e+00 1.9506193460413270e-04 0.0000000000000000e+00  6.3320384376123595e+00 1.9506914107756375e-04 0.0000000000000000e+00  6.3320384487503336e+00 1.9507213936147548e-04 0.0000000000000000e+00  6.3320384539065966e+00 1.9507591964496962e-04 0.0000000000000000e+00  6.3320384597325665e+00 1.9507699442706253e-04 0.0000000000000000e+00  6.3320384620114218e+00 1.9507898805888195e-04 0.0000000000000000e+00  6.3320384651012098e+00 1.9507938384714606e-04 0.0000000000000000e+00  6.3320384662049500e+00 1.9508043277664241e-04 0.0000000000000000e+00  6.3320384678617074e+00 1.9508060313101460e-04 0.0000000000000000e+00  6.3320384684611728e+00 1.9508114933885251e-04 0.0000000000000000e+00  6.3320384693606453e+00 1.9508124174637056e-04 0.0000000000000000e+00  6.3320384697188228e+00 1.9508152682083703e-04 0.0000000000000000e+00  6.3320384702162755e+00 1.9508158915998216e-04 0.0000000000000000e+00  6.3320384704452159e+00 1.9508173880991586e-04 0.0000000000000000e+00  6.3320384707277793e+00 1.9508178363013815e-04 0.0000000000000000e+00  6.3320384708787349e+00 1.9508186389642938e-04 0.0000000000000000e+00  6.3320384710427859e+00 1.9508189506248230e-04 0.0000000000000000e+00  6.3320384711421980e+00 1.9508193925401348e-04 0.0000000000000000e+00  6.3320384712399296e+00 1.9508195768149387e-04 0.0000000000000000e+00  6.3320384713072544e+00 1.9508197994112491e-04 0.0000000000000000e+00  6.3320384713712867e+00 1.9508198443447681e-04 0.0000000000000000e+00  6.3320384714225195e+00 1.9508198623178363e-04 0.0000000000000000e+00  6.3320384714742373e+00 1.9508194494146343e-04 0.0000000000000000e+00  6.3320384715382403e+00 1.9508187374159698e-04 0.0000000000000000e+00  6.3320384716307201e+00 1.9508163702088805e-04 0.0000000000000000e+00  6.3320384718172118e+00 1.9508118217017789e-04 0.0000000000000000e+00  6.3320384721872989e+00 1.9507998479075439e-04 0.0000000000000000e+00  6.3320384730398773e+00 1.9507748168642980e-04 0.0000000000000000e+00  6.3320384749042562e+00 1.9507147495097308e-04 0.0000000000000000e+00  6.3320384791668189e+00 1.9505839732707330e-04 0.0000000000000000e+00  6.3320384885921746e+00 1.9502799975650053e-04 0.0000000000000000e+00  6.3320385097271785e+00 1.9495981645172949e-04 0.0000000000000000e+00  6.3320385564017663e+00 1.9480048630884288e-04 0.0000000000000000e+00  6.3320386609990491e+00 1.9442858811590351e-04 0.0000000000000000e+00  6.3320389008920870e+00 1.9352989583166073e-04 0.0000000000000000e+00  6.3320394734509771e+00 1.9132757880544490e-04 0.0000000000000000e+00  6.3320408710138745e+00 1.8584388333049235e-04 0.0000000000000000e+00  6.3320442947761171e+00 1.7193983088748040e-04 0.0000000000000000e+00  6.3320532568180896e+00 1.3655793937986102e-04 0.0000000000000000e+00  6.3320765461710478e+00 4.1870237524429084e-05 0.0000000000000000e+00  6.3321479888905365e+00 -1.8237525055971415e-04 0.0000000000000000e+00  6.3323587760339572e+00 -8.7815348836196969e-04 0.0000000000000000e+00  6.3330460926145378e+00 -1.7325096256259691e-03 0.0000000000000000e+00  6.3376944023804107e+00 -8.4220830738318438e-03 0.0000000000000000e+00  6.3340960972824716e+00 0.0000000000000000e+00 0.0000000000000000e+00  9.9230912844488195e+00 0.0000000000000000e+00 0.0000000000000000e+00  9.9230566737074444e+00 1.1378789703421085e-03 0.0000000000000000e+00  9.9354852916186154e+00 6.4957411397370199e-03 0.0000000000000000e+00  9.9502350907535604e+00 5.8629476193026000e-03 0.0000000000000000e+00  9.9666844295980059e+00 6.3427475219570229e-03 0.0000000000000000e+00  9.9764200457842058e+00 4.7599274010271175e-03 0.0000000000000000e+00  9.9837028893494519e+00 2.8065681117354952e-03 0.0000000000000000e+00  9.9861658200708163e+00 1.4929177185374297e-03 0.0000000000000000e+00  9.9870162425890605e+00 9.3829214477789504e-05 0.0000000000000000e+00  9.9856994699435724e+00 -5.8886431928549445e-04 0.0000000000000000e+00  9.9840300649059657e+00 -1.0859348499042561e-03 0.0000000000000000e+00  9.9814844293315605e+00 -1.5943912240001510e-03 0.0000000000000000e+00  9.9789614041049521e+00 -1.9256057733575197e-03 0.0000000000000000e+00  9.9767027508362158e+00 -1.5963640893551102e-03 0.0000000000000000e+00  9.9752244319909327e+00 -9.5550605516064153e-04 0.0000000000000000e+00  9.9743095105467106e+00 -2.9732545734671457e-04 0.0000000000000000e+00  9.9738665787799938e+00 1.5617223199689448e-04 0.0000000000000000e+00  9.9736343134458139e+00 4.3249751791266192e-04 0.0000000000000000e+00  9.9735401720573140e+00 5.6875973124767402e-04 0.0000000000000000e+00  9.9734849143316993e+00 6.3778475502582579e-04 0.0000000000000000e+00  9.9734624435475414e+00 6.6706163027868345e-04 0.0000000000000000e+00  9.9734444767678951e+00 6.8300397273565901e-04 0.0000000000000000e+00  9.9734367533330719e+00 6.9003245700082426e-04 0.0000000000000000e+00  9.9734296051545428e+00 6.9494203659966963e-04 0.0000000000000000e+00  9.9734266202829858e+00 6.9731880859382031e-04 0.0000000000000000e+00  9.9734237484905393e+00 6.9920434225692401e-04 0.0000000000000000e+00  9.9734226224708227e+00 7.0012295639816343e-04 0.0000000000000000e+00  9.9734214860282950e+00 7.0086503537875435e-04 0.0000000000000000e+00  9.9734210646652350e+00 7.0121653895831055e-04 0.0000000000000000e+00  9.9734206117994653e+00 7.0150163752020047e-04 0.0000000000000000e+00  9.9734204468177907e+00 7.0163572766120672e-04 0.0000000000000000e+00  9.9734202630111479e+00 7.0174416311930650e-04 0.0000000000000000e+00  9.9734201923432426e+00 7.0179761616009342e-04 0.0000000000000000e+00  9.9734201166191099e+00 7.0183904594014958e-04 0.0000000000000000e+00  9.9734200830354887e+00 7.0186205132758057e-04 0.0000000000000000e+00  9.9734200516257321e+00 7.0187799171295422e-04 0.0000000000000000e+00  9.9734200342256916e+00 7.0188870636007027e-04 0.0000000000000000e+00  9.9734200211644790e+00 7.0189486738519188e-04 0.0000000000000000e+00  9.9734200116369998e+00 7.0190016033849843e-