<?xml version="1.0"?>
<VTKFile type="UnstructuredGrid"  version="0.1"  >
<UnstructuredGrid>
<Piece  NumberOfPoints="1369" NumberOfCells="2560">
<Points>
<DataArray  type="Float64"  NumberOfComponents="3"  format="ascii">0 0 0  0.75 0 0  1.5 0 0  2.25 0 0  3 0 0  3.75 0 0  4.5 0 0  5.25 0 0  6 0 0  6.75 0 0  7.5 0 0  8.25 0 0  9 0 0  9.75 0 0  10.5 0 0  11.25 0 0  12 0 0  12.75 0 0  13.5 0 0  14.25 0 0  15 0 0  15.75 0 0  16.5 0 0  17.25 0 0  18 0 0  18.75 0 0  19.5 0 0  20.25 0 0  21 0 0  21.75 0 0  22.5 0 0  23.25 0 0  24 0 0  24.75 0 0  25.5 0 0  26.25 0 0  27 0 0  27.75 0 0  28.5 0 0  29.25 0 0  30 0 0  30.75 0 0  31.5 0 0  32.25 0 0  33 0 0  33.75 0 0  34.5 0 0  35.25 0 0  36 0 0  36.75 0 0  37.5 0 0  38.25 0 0  39 0 0  39.75 0 0  40.5 0 0  41.25 0 0  42 0 0  42.75 0 0  43.5 0 0  44.25 0 0  45 0 0  45.75 0 0  46.5 0 0  47.25 0 0  48 0 0  48.75 0 0  49.5 0 0  50.25 0 0  51 0 0  51.75 0 0  52.5 0 0  53.25 0 0  54 0 0  54.75 0 0  55.5 0 0  56.25 0 0  57 0 0  57.75 0 0  58.5 0 0  59.25 0 0  60 0 0  0 0.5 0  0.75 0.5 0  1.5 0.5 0  2.25 0.5 0  3 0.5 0  3.75 0.5 0  4.5 0.5 0  5.25 0.5 0  6 0.5 0  6.75 0.5 0  7.5 0.5 0  8.25 0.5 0  9 0.5 0  9.75 0.5 0  10.5 0.5 0  11.25 0.5 0  12 0.5 0  12.75 0.5 0  13.5 0.5 0  14.25 0.5 0  15 0.5 0  15.75 0.5 0  16.5 0.5 0  17.25 0.5 0  18 0.5 0  18.75 0.5 0  19.5 0.5 0  20.25 0.5 0  21 0.5 0  21.75 0.5 0  22.5 0.5 0  23.25 0.5 0  24 0.5 0  24.75 0.5 0  25.5 0.5 0  26.25 0.5 0  27 0.5 0  27.75 0.5 0  28.5 0.5 0  29.25 0.5 0  30 0.5 0  30.75 0.5 0  31.5 0.5 0  32.25 0.5 0  33 0.5 0  33.75 0.5 0  34.5 0.5 0  35.25 0.5 0  36 0.5 0  36.75 0.5 0  37.5 0.5 0  38.25 0.5 0  39 0.5 0  39.75 0.5 0  40.5 0.5 0  41.25 0.5 0  42 0.5 0  42.75 0.5 0  43.5 0.5 0  44.25 0.5 0  45 0.5 0  45.75 0.5 0  46.5 0.5 0  47.25 0.5 0  48 0.5 0  48.75 0.5 0  49.5 0.5 0  50.25 0.5 0  51 0.5 0  51.75 0.5 0  52.5 0.5 0  53.25 0.5 0  54 0.5 0  54.75 0.5 0  55.5 0.5 0  56.25 0.5 0  57 0.5 0  57.75 0.5 0  58.5 0.5 0  59.25 0.5 0  60 0.5 0  0 1 0  0.75 1 0  1.5 1 0  2.25 1 0  3 1 0  3.75 1 0  4.5 1 0  5.25 1 0  6 1 0  6.75 1 0  7.5 1 0  8.25 1 0  9 1 0  9.75 1 0  10.5 1 0  11.25 1 0  12 1 0  12.75 1 0  13.5 1 0  14.25 1 0  15 1 0  15.75 1 0  16.5 1 0  17.25 1 0  18 1 0  18.75 1 0  19.5 1 0  20.25 1 0  21 1 0  21.75 1 0  22.5 1 0  23.25 1 0  24 1 0  24.75 1 0  25.5 1 0  26.25 1 0  27 1 0  27.75 1 0  28.5 1 0  29.25 1 0  30 1 0  30.75 1 0  31.5 1 0  32.25 1 0  33 1 0  33.75 1 0  34.5 1 0  35.25 1 0  36 1 0  36.75 1 0  37.5 1 0  38.25 1 0  39 1 0  39.75 1 0  40.5 1 0  41.25 1 0  42 1 0  42.75 1 0  43.5 1 0  44.25 1 0  45 1 0  45.75 1 0  46.5 1 0  47.25 1 0  48 1 0  48.75 1 0  49.5 1 0  50.25 1 0  51 1 0  51.75 1 0  52.5 1 0  53.25 1 0  54 1 0  54.75 1 0  55.5 1 0  56.25 1 0  57 1 0  57.75 1 0  58.5 1 0  59.25 1 0  60 1 0  0 1.5 0  0.75 1.5 0  1.5 1.5 0  2.25 1.5 0  3 1.5 0  3.75 1.5 0  4.5 1.5 0  5.25 1.5 0  6 1.5 0  6.75 1.5 0  7.5 1.5 0  8.25 1.5 0  9 1.5 0  9.75 1.5 0  10.5 1.5 0  11.25 1.5 0  12 1.5 0  12.75 1.5 0  13.5 1.5 0  14.25 1.5 0  15 1.5 0  15.75 1.5 0  16.5 1.5 0  17.25 1.5 0  18 1.5 0  18.75 1.5 0  19.5 1.5 0  20.25 1.5 0  21 1.5 0  21.75 1.5 0  22.5 1.5 0  23.25 1.5 0  24 1.5 0  24.75 1.5 0  25.5 1.5 0  26.25 1.5 0  27 1.5 0  27.75 1.5 0  28.5 1.5 0  29.25 1.5 0  30 1.5 0  30.75 1.5 0  31.5 1.5 0  32.25 1.5 0  33 1.5 0  33.75 1.5 0  34.5 1.5 0  35.25 1.5 0  36 1.5 0  36.75 1.5 0  37.5 1.5 0  38.25 1.5 0  39 1.5 0  39.75 1.5 0  40.5 1.5 0  41.25 1.5 0  42 1.5 0  42.75 1.5 0  43.5 1.5 0  44.25 1.5 0  45 1.5 0  45.75 1.5 0  46.5 1.5 0  47.25 1.5 0  48 1.5 0  48.75 1.5 0  49.5 1.5 0  50.25 1.5 0  51 1.5 0  51.75 1.5 0  52.5 1.5 0  53.25 1.5 0  54 1.5 0  54.75 1.5 0  55.5 1.5 0  56.25 1.5 0  57 1.5 0  57.75 1.5 0  58.5 1.5 0  59.25 1.5 0  60 1.5 0  0 2 0  0.75 2 0  1.5 2 0  2.25 2 0  3 2 0  3.75 2 0  4.5 2 0  5.25 2 0  6 2 0  6.75 2 0  7.5 2 0  8.25 2 0  9 2 0  9.75 2 0  10.5 2 0  11.25 2 0  12 2 0  12.75 2 0  13.5 2 0  14.25 2 0  15 2 0  15.75 2 0  16.5 2 0  17.25 2 0  18 2 0  18.75 2 0  19.5 2 0  20.25 2 0  21 2 0  21.75 2 0  22.5 2 0  23.25 2 0  24 2 0  24.75 2 0  25.5 2 0  26.25 2 0  27 2 0  27.75 2 0  28.5 2 0  29.25 2 0  30 2 0  30.75 2 0  31.5 2 0  32.25 2 0  33 2 0  33.75 2 0  34.5 2 0  35.25 2 0  36 2 0  36.75 2 0  37.5 2 0  38.25 2 0  39 2 0  39.75 2 0  40.5 2 0  41.25 2 0  42 2 0  42.75 2 0  43.5 2 0  44.25 2 0  45 2 0  45.75 2 0  46.5 2 0  47.25 2 0  48 2 0  48.75 2 0  49.5 2 0  50.25 2 0  51 2 0  51.75 2 0  52.5 2 0  53.25 2 0  54 2 0  54.75 2 0  55.5 2 0  56.25 2 0  57 2 0  57.75 2 0  58.5 2 0  59.25 2 0  60 2 0  0 2.5 0  0.75 2.5 0  1.5 2.5 0  2.25 2.5 0  3 2.5 0  3.75 2.5 0  4.5 2.5 0  5.25 2.5 0  6 2.5 0  6.75 2.5 0  7.5 2.5 0  8.25 2.5 0  9 2.5 0  9.75 2.5 0  10.5 2.5 0  11.25 2.5 0  12 2.5 0  12.75 2.5 0  13.5 2.5 0  14.25 2.5 0  15 2.5 0  15.75 2.5 0  16.5 2.5 0  17.25 2.5 0  18 2.5 0  18.75 2.5 0  19.5 2.5 0  20.25 2.5 0  21 2.5 0  21.75 2.5 0  22.5 2.5 0  23.25 2.5 0  24 2.5 0  24.75 2.5 0  25.5 2.5 0  26.25 2.5 0  27 2.5 0  27.75 2.5 0  28.5 2.5 0  29.25 2.5 0  30 2.5 0  30.75 2.5 0  31.5 2.5 0  32.25 2.5 0  33 2.5 0  33.75 2.5 0  34.5 2.5 0  35.25 2.5 0  36 2.5 0  36.75 2.5 0  37.5 2.5 0  38.25 2.5 0  39 2.5 0  39.75 2.5 0  40.5 2.5 0  41.25 2.5 0  42 2.5 0  42.75 2.5 0  43.5 2.5 0  44.25 2.5 0  45 2.5 0  45.75 2.5 0  46.5 2.5 0  47.25 2.5 0  48 2.5 0  48.75 2.5 0  49.5 2.5 0  50.25 2.5 0  51 2.5 0  51.75 2.5 0  52.5 2.5 0  53.25 2.5 0  54 2.5 0  54.75 2.5 0  55.5 2.5 0  56.25 2.5 0  57 2.5 0  57.75 2.5 0  58.5 2.5 0  59.25 2.5 0  60 2.5 0  0 3 0  0.75 3 0  1.5 3 0  2.25 3 0  3 3 0  3.75 3 0  4.5 3 0  5.25 3 0  6 3 0  6.75 3 0  7.5 3 0  8.25 3 0  9 3 0  9.75 3 0  10.5 3 0  11.25 3 0  12 3 0  12.75 3 0  13.5 3 0  14.25 3 0  15 3 0  15.75 3 0  16.5 3 0  17.25 3 0  18 3 0  18.75 3 0  19.5 3 0  20.25 3 0  21 3 0  21.75 3 0  22.5 3 0  23.25 3 0  24 3 0  24.75 3 0  25.5 3 0  26.25 3 0  27 3 0  27.75 3 0  28.5 3 0  29.25 3 0  30 3 0  30.75 3 0  31.5 3 0  32.25 3 0  33 3 0  33.75 3 0  34.5 3 0  35.25 3 0  36 3 0  36.75 3 0  37.5 3 0  38.25 3 0  39 3 0  39.75 3 0  40.5 3 0  41.25 3 0  42 3 0  42.75 3 0  43.5 3 0  44.25 3 0  45 3 0  45.75 3 0  46.5 3 0  47.25 3 0  48 3 0  48.75 3 0  49.5 3 0  50.25 3 0  51 3 0  51.75 3 0  52.5 3 0  53.25 3 0  54 3 0  54.75 3 0  55.5 3 0  56.25 3 0  57 3 0  57.75 3 0  58.5 3 0  59.25 3 0  60 3 0  0 3.5 0  0.75 3.5 0  1.5 3.5 0  2.25 3.5 0  3 3.5 0  3.75 3.5 0  4.5 3.5 0  5.25 3.5 0  6 3.5 0  6.75 3.5 0  7.5 3.5 0  8.25 3.5 0  9 3.5 0  9.75 3.5 0  10.5 3.5 0  11.25 3.5 0  12 3.5 0  12.75 3.5 0  13.5 3.5 0  14.25 3.5 0  15 3.5 0  15.75 3.5 0  16.5 3.5 0  17.25 3.5 0  18 3.5 0  18.75 3.5 0  19.5 3.5 0  20.25 3.5 0  21 3.5 0  21.75 3.5 0  22.5 3.5 0  23.25 3.5 0  24 3.5 0  24.75 3.5 0  25.5 3.5 0  26.25 3.5 0  27 3.5 0  27.75 3.5 0  28.5 3.5 0  29.25 3.5 0  30 3.5 0  30.75 3.5 0  31.5 3.5 0  32.25 3.5 0  33 3.5 0  33.75 3.5 0  34.5 3.5 0  35.25 3.5 0  36 3.5 0  36.75 3.5 0  37.5 3.5 0  38.25 3.5 0  39 3.5 0  39.75 3.5 0  40.5 3.5 0  41.25 3.5 0  42 3.5 0  42.75 3.5 0  43.5 3.5 0  44.25 3.5 0  45 3.5 0  45.75 3.5 0  46.5 3.5 0  47.25 3.5 0  48 3.5 0  48.75 3.5 0  49.5 3.5 0  50.25 3.5 0  51 3.5 0  51.75 3.5 0  52.5 3.5 0  53.25 3.5 0  54 3.5 0  54.75 3.5 0  55.5 3.5 0  56.25 3.5 0  57 3.5 0  57.75 3.5 0  58.5 3.5 0  59.25 3.5 0  60 3.5 0  0 4 0  0.75 4 0  1.5 4 0  2.25 4 0  3 4 0  3.75 4 0  4.5 4 0  5.25 4 0  6 4 0  6.75 4 0  7.5 4 0  8.25 4 0  9 4 0  9.75 4 0  10.5 4 0  11.25 4 0  12 4 0  12.75 4 0  13.5 4 0  14.25 4 0  15 4 0  15.75 4 0  16.5 4 0  17.25 4 0  18 4 0  18.75 4 0  19.5 4 0  20.25 4 0  21 4 0  21.75 4 0  22.5 4 0  23.25 4 0  24 4 0  24.75 4 0  25.5 4 0  26.25 4 0  27 4 0  27.75 4 0  28.5 4 0  29.25 4 0  30 4 0  30.75 4 0  31.5 4 0  32.25 4 0  33 4 0  33.75 4 0  34.5 4 0  35.25 4 0  36 4 0  36.75 4 0  37.5 4 0  38.25 4 0  39 4 0  39.75 4 0  40.5 4 0  41.25 4 0  42 4 0  42.75 4 0  43.5 4 0  44.25 4 0  45 4 0  45.75 4 0  46.5 4 0  47.25 4 0  48 4 0  48.75 4 0  49.5 4 0  50.25 4 0  51 4 0  51.75 4 0  52.5 4 0  53.25 4 0  54 4 0  54.75 4 0  55.5 4 0  56.25 4 0  57 4 0  57.75 4 0  58.5 4 0  59.25 4 0  60 4 0  0.375 0.25 0  1.125 0.25 0  1.875 0.25 0  2.625 0.25 0  3.375 0.25 0  4.125 0.25 0  4.875 0.25 0  5.625 0.25 0  6.375 0.25 0  7.125 0.25 0  7.875 0.25 0  8.625 0.25 0  9.375 0.25 0  10.125 0.25 0  10.875 0.25 0  11.625 0.25 0  12.375 0.25 0  13.125 0.25 0  13.875 0.25 0  14.625 0.25 0  15.375 0.25 0  16.125 0.25 0  16.875 0.25 0  17.625 0.25 0  18.375 0.25 0  19.125 0.25 0  19.875 0.25 0  20.625 0.25 0  21.375 0.25 0  22.125 0.25 0  22.875 0.25 0  23.625 0.25 0  24.375 0.25 0  25.125 0.25 0  25.875 0.25 0  26.625 0.25 0  27.375 0.25 0  28.125 0.25 0  28.875 0.25 0  29.625 0.25 0  30.375 0.25 0  31.125 0.25 0  31.875 0.25 0  32.625 0.25 0  33.375 0.25 0  34.125 0.25 0  34.875 0.25 0  35.625 0.25 0  36.375 0.25 0  37.125 0.25 0  37.875 0.25 0  38.625 0.25 0  39.375 0.25 0  40.125 0.25 0  40.875 0.25 0  41.625 0.25 0  42.375 0.25 0  43.125 0.25 0  43.875 0.25 0  44.625 0.25 0  45.375 0.25 0  46.125 0.25 0  46.875 0.25 0  47.625 0.25 0  48.375 0.25 0  49.125 0.25 0  49.875 0.25 0  50.625 0.25 0  51.375 0.25 0  52.125 0.25 0  52.875 0.25 0  53.625 0.25 0  54.375 0.25 0  55.125 0.25 0  55.875 0.25 0  56.625 0.25 0  57.375 0.25 0  58.125 0.25 0  58.875 0.25 0  59.625 0.25 0  0.375 0.75 0  1.125 0.75 0  1.875 0.75 0  2.625 0.75 0  3.375 0.75 0  4.125 0.75 0  4.875 0.75 0  5.625 0.75 0  6.375 0.75 0  7.125 0.75 0  7.875 0.75 0  8.625 0.75 0  9.375 0.75 0  10.125 0.75 0  10.875 0.75 0  11.625 0.75 0  12.375 0.75 0  13.125 0.75 0  13.875 0.75 0  14.625 0.75 0  15.375 0.75 0  16.125 0.75 0  16.875 0.75 0  17.625 0.75 0  18.375 0.75 0  19.125 0.75 0  19.875 0.75 0  20.625 0.75 0  21.375 0.75 0  22.125 0.75 0  22.875 0.75 0  23.625 0.75 0  24.375 0.75 0  25.125 0.75 0  25.875 0.75 0  26.625 0.75 0  27.375 0.75 0  28.125 0.75 0  28.875 0.75 0  29.625 0.75 0  30.375 0.75 0  31.125 0.75 0  31.875 0.75 0  32.625 0.75 0  33.375 0.75 0  34.125 0.75 0  34.875 0.75 0  35.625 0.75 0  36.375 0.75 0  37.125 0.75 0  37.875 0.75 0  38.625 0.75 0  39.375 0.75 0  40.125 0.75 0  40
[...]
<PointData  Vectors="f_8-0"> 
<DataArray  type="Float64"  Name="f_8-0"  NumberOfComponents="3" format="ascii">0.0000000000000000e+00 0.0000000000000000e+00 0.0000000000000000e+00  0.0000000000000000e+00 0.0000000000000000e+00 0.0000000000000000e+00  0.0000000000000000e+00 0.0000000000000000e+00 0.0000000000000000e+00  0.0000000000000000e+00 0.0000000000000000e+00 0.0000000000000000e+00  0.0000000000000000e+00 0.0000000000000000e+00 0.0000000000000000e+00  0.0000000000000000e+00 0.0000000000000000e+00 0.0000000000000000e+00  0.0000000000000000e+00 0.0000000000000000e+00 0.0000000000000000e+00  0.0000000000000000e+00 0.0000000000000000e+00 0.0000000000000000e+00  0.0000000000000000e+00 0.0000000000000000e+00 0.0000000000000000e+00  0.0000000000000000e+00 0.0000000000000000e+00 0.0000000000000000e+00  0.0000000000000000e+00 0.0000000000000000e+00 0.0000000000000000e+00  0.0000000000000000e+00 0.0000000000000000e+00 0.0000000000000000e+00  0.0000000000000000e+00 0.0000000000000000e+00 0.0000000000000000e+00  0.0000000000000000e+00 0.0000000000000000e+00 0.0000000000000000e+00  0.0000000000000000e+00 0.0000000000000000e+00 0.0000000000000000e+00  0.0000000000000000e+00 0.0000000000000000e+00 0.0000000000000000e+00  0.0000000000000000e+00 0.0000000000000000e+00 0.0000000000000000e+00  0.0000000000000000e+00 0.0000000000000000e+00 0.0000000000000000e+00  0.0000000000000000e+00 0.0000000000000000e+00 0.0000000000000000e+00  0.0000000000000000e+00 0.0000000000000000e+00 0.0000000000000000e+00  0.0000000000000000e+00 0.0000000000000000e+00 0.0000000000000000e+00  0.0000000000000000e+00 0.0000000000000000e+00 0.0000000000000000e+00  0.0000000000000000e+00 0.0000000000000000e+00 0.0000000000000000e+00  0.0000000000000000e+00 0.0000000000000000e+00 0.0000000000000000e+00  0.0000000000000000e+00 0.0000000000000000e+00 0.0000000000000000e+00  0.0000000000000000e+00 0.0000000000000000e+00 0.0000000000000000e+00  0.0000000000000000e+00 0.0000000000000000e+00 0.0000000000000000e+00  0.0000000000000000e+00 0.0000000000000000e+00 0.0000000000000000e+00  0.0000000000000000e+00 0.0000000000000000e+00 0.0000000000000000e+00  0.0000000000000000e+00 0.0000000000000000e+00 0.0000000000000000e+00  0.0000000000000000e+00 0.0000000000000000e+00 0.0000000000000000e+00  0.0000000000000000e+00 0.0000000000000000e+00 0.0000000000000000e+00  0.0000000000000000e+00 0.0000000000000000e+00 0.0000000000000000e+00  0.0000000000000000e+00 0.0000000000000000e+00 0.0000000000000000e+00  0.0000000000000000e+00 0.0000000000000000e+00 0.0000000000000000e+00  0.0000000000000000e+00 0.0000000000000000e+00 0.0000000000000000e+00  0.0000000000000000e+00 0.0000000000000000e+00 0.0000000000000000e+00  0.0000000000000000e+00 0.0000000000000000e+00 0.0000000000000000e+00  0.0000000000000000e+00 0.0000000000000000e+00 0.0000000000000000e+00  0.0000000000000000e+00 0.0000000000000000e+00 0.0000000000000000e+00  0.0000000000000000e+00 0.0000000000000000e+00 0.0000000000000000e+00  0.0000000000000000e+00 0.0000000000000000e+00 0.0000000000000000e+00  0.0000000000000000e+00 0.0000000000000000e+00 0.0000000000000000e+00  0.0000000000000000e+00 0.0000000000000000e+00 0.0000000000000000e+00  0.0000000000000000e+00 0.0000000000000000e+00 0.0000000000000000e+00  0.0000000000000000e+00 0.0000000000000000e+00 0.0000000000000000e+00  0.0000000000000000e+00 0.0000000000000000e+00 0.0000000000000000e+00  0.0000000000000000e+00 0.0000000000000000e+00 0.0000000000000000e+00  0.0000000000000000e+00 0.0000000000000000e+00 0.0000000000000000e+00  0.0000000000000000e+00 0.0000000000000000e+00 0.0000000000000000e+00  0.0000000000000000e+00 0.0000000000000000e+00 0.0000000000000000e+00  0.0000000000000000e+00 0.0000000000000000e+00 0.0000000000000000e+00  0.0000000000000000e+00 0.0000000000000000e+00 0.0000000000000000e+00  0.0000000000000000e+00 0.0000000000000000e+00 0.0000000000000000e+00  0.0000000000000000e+00 0.0000000000000000e+00 0.0000000000000000e+00  0.0000000000000000e+00 0.0000000000000000e+00 0.0000000000000000e+00  0.0000000000000000e+00 0.0000000000000000e+00 0.0000000000000000e+00  0.0000000000000000e+00 0.0000000000000000e+00 0.0000000000000000e+00  0.0000000000000000e+00 0.0000000000000000e+00 0.0000000000000000e+00  0.0000000000000000e+00 0.0000000000000000e+00 0.0000000000000000e+00  0.0000000000000000e+00 0.0000000000000000e+00 0.0000000000000000e+00  0.0000000000000000e+00 0.0000000000000000e+00 0.0000000000000000e+00  0.0000000000000000e+00 0.0000000000000000e+00 0.0000000000000000e+00  0.0000000000000000e+00 0.0000000000000000e+00 0.0000000000000000e+00  0.0000000000000000e+00 0.0000000000000000e+00 0.0000000000000000e+00  0.0000000000000000e+00 0.0000000000000000e+00 0.0000000000000000e+00  0.0000000000000000e+00 0.0000000000000000e+00 0.0000000000000000e+00  0.0000000000000000e+00 0.0000000000000000e+00 0.0000000000000000e+00  0.0000000000000000e+00 0.0000000000000000e+00 0.0000000000000000e+00  0.0000000000000000e+00 0.0000000000000000e+00 0.0000000000000000e+00  0.0000000000000000e+00 0.0000000000000000e+00 0.0000000000000000e+00  0.0000000000000000e+00 0.0000000000000000e+00 0.0000000000000000e+00  0.0000000000000000e+00 0.0000000000000000e+00 0.0000000000000000e+00  0.0000000000000000e+00 0.0000000000000000e+00 0.0000000000000000e+00  0.0000000000000000e+00 0.0000000000000000e+00 0.0000000000000000e+00  0.0000000000000000e+00 0.0000000000000000e+00 0.0000000000000000e+00  0.0000000000000000e+00 0.0000000000000000e+00 0.0000000000000000e+00  0.0000000000000000e+00 0.0000000000000000e+00 0.0000000000000000e+00  0.0000000000000000e+00 0.0000000000000000e+00 0.0000000000000000e+00  0.0000000000000000e+00 0.0000000000000000e+00 0.0000000000000000e+00  0.0000000000000000e+00 0.0000000000000000e+00 0.0000000000000000e+00  -1.7167953873803157e+01 0.0000000000000000e+00 0.0000000000000000e+00  -1.7141772838890265e+01 2.2218898128068278e-03 0.0000000000000000e+00  -1.7137328179902866e+01 -3.1663468504268479e-04 0.0000000000000000e+00  -1.7138992180538065e+01 -1.2274748317657415e-03 0.0000000000000000e+00  -1.7139640812316728e+01 -2.0959003280261210e-03 0.0000000000000000e+00  -1.7138838376452917e+01 -2.7464633453790489e-03 0.0000000000000000e+00  -1.7137093630096189e+01 -3.1154191048742607e-03 0.0000000000000000e+00  -1.7134990700138129e+01 -3.2398757524396832e-03 0.0000000000000000e+00  -1.7132942836730251e+01 -3.2026136371434118e-03 0.0000000000000000e+00  -1.7131170562328105e+01 -3.0827532903155543e-03 0.0000000000000000e+00  -1.7129739552244473e+01 -2.9432929485267824e-03 0.0000000000000000e+00  -1.7128614115490247e+01 -2.8206390407534030e-03 0.0000000000000000e+00  -1.7127720403486897e+01 -2.7277000599649358e-03 0.0000000000000000e+00  -1.7126977053041482e+01 -2.6683725040012214e-03 0.0000000000000000e+00  -1.7126295385407406e+01 -2.6467055565144778e-03 0.0000000000000000e+00  -1.7125594814770270e+01 -2.6571458543389573e-03 0.0000000000000000e+00  -1.7124830445364619e+01 -2.6832596533223610e-03 0.0000000000000000e+00  -1.7123997406631734e+01 -2.7095514454795961e-03 0.0000000000000000e+00  -1.7123108343063883e+01 -2.7314061489803441e-03 0.0000000000000000e+00  -1.7122173664494611e+01 -2.7508680921059995e-03 0.0000000000000000e+00  -1.7121204366001734e+01 -2.7667911355294685e-03 0.0000000000000000e+00  -1.7120229114840971e+01 -2.7702045466760123e-03 0.0000000000000000e+00  -1.7119304773150663e+01 -2.7487389460830679e-03 0.0000000000000000e+00  -1.7118508901747802e+01 -2.6944251482250341e-03 0.0000000000000000e+00  -1.7117918462577968e+01 -2.6088187571117415e-03 0.0000000000000000e+00  -1.7117587237350843e+01 -2.5025648751521830e-03 0.0000000000000000e+00  -1.7117532473283028e+01 -2.3910905699016430e-03 0.0000000000000000e+00  -1.7117734213142690e+01 -2.2893397714477339e-03 0.0000000000000000e+00  -1.7118144471092204e+01 -2.2080615995836951e-03 0.0000000000000000e+00  -1.7118700733922072e+01 -2.1523910994908392e-03 0.0000000000000000e+00  -1.7119338800056564e+01 -2.1223929127247377e-03 0.0000000000000000e+00  -1.7120002065326226e+01 -2.1146100346295018e-03 0.0000000000000000e+00  -1.7120646484693090e+01 -2.1238227235197056e-03 0.0000000000000000e+00  -1.7121241844560810e+01 -2.1444742651813295e-03 0.0000000000000000e+00  -1.7121770559171168e+01 -2.1715990669756175e-03 0.0000000000000000e+00  -1.7122225202025348e+01 -2.2012656961961363e-03 0.0000000000000000e+00  -1.7122605692937771e+01 -2.2306747098588451e-03 0.0000000000000000e+00  -1.7122916709894074e+01 -2.2580430255620932e-03 0.0000000000000000e+00  -1.7123165596378101e+01 -2.2823973018087636e-03 0.0000000000000000e+00  -1.7123360828796368e+01 -2.3033484214169926e-03 0.0000000000000000e+00  -1.7123510990585974e+01 -2.3208938705030465e-03 0.0000000000000000e+00  -1.7123624149791880e+01 -2.3352616891247424e-03 0.0000000000000000e+00  -1.7123707530561045e+01 -2.3467988422782677e-03 0.0000000000000000e+00  -1.7123767384049192e+01 -2.3558955498791181e-03 0.0000000000000000e+00  -1.7123808985151484e+01 -2.3629384622778876e-03 0.0000000000000000e+00  -1.7123836700624921e+01 -2.3682843307539039e-03 0.0000000000000000e+00  -1.7123854090004990e+01 -2.3722487429209890e-03 0.0000000000000000e+00  -1.7123864013953142e+01 -2.3751042126210070e-03 0.0000000000000000e+00  -1.7123868735854295e+01 -2.3770835217023856e-03 0.0000000000000000e+00  -1.7123870011575455e+01 -2.3783846319822060e-03 0.0000000000000000e+00  -1.7123869167449552e+01 -2.3791750947690349e-03 0.0000000000000000e+00  -1.7123867170579697e+01 -2.3795952804545177e-03 0.0000000000000000e+00  -1.7123864691756200e+01 -2.3797600781642033e-03 0.0000000000000000e+00  -1.7123862168341741e+01 -2.3797611720753203e-03 0.0000000000000000e+00  -1.7123859853234375e+01 -2.3796671382236147e-03 0.0000000000000000e+00  -1.7123857878851990e+01 -2.3795296485693584e-03 0.0000000000000000e+00  -1.7123856268472696e+01 -2.3793779828358906e-03 0.0000000000000000e+00  -1.7123855035296632e+01 -2.3792409637124639e-03 0.0000000000000000e+00  -1.7123854074293835e+01 -2.3791105016691401e-03 0.0000000000000000e+00  -1.7123853445988129e+01 -2.3790287538767519e-03 0.0000000000000000e+00  -1.7123852874223402e+01 -2.3789164520103072e-03 0.0000000000000000e+00  -1.7123852707189489e+01 -2.3789294171228420e-03 0.0000000000000000e+00  -1.7123852213028140e+01 -2.3787512170935715e-03 0.0000000000000000e+00  -1.7123852499949525e+01 -2.3789853899801898e-03 0.0000000000000000e+00  -1.7123851751063878e+01 -2.3784726355748184e-03 0.0000000000000000e+00  -1.7123852634954979e+01 -2.3793648819973442e-03 0.0000000000000000e+00  -1.7123851328073709e+01 -2.3776985559799801e-03 0.0000000000000000e+00  -1.7123853316541446e+01 -2.3803662345221908e-03 0.0000000000000000e+00  -1.7123852009319197e+01 -2.3748771799087295e-03 0.0000000000000000e+00  -1.7123858075305229e+01 -2.3802035391821811e-03 0.0000000000000000e+00  -1.7123866094588198e+01 -2.3628953282316739e-03 0.0000000000000000e+00  -1.7123848966284008e+01 -2.3914346849843245e-03 0.0000000000000000e+00  -1.7123751465759849e+01 -2.4652089750134467e-03 0.0000000000000000e+00  -1.7123041784247871e+01 -2.8656912548982016e-03 0.0000000000000000e+00  -1.7122783507939651e+01 -2.7152554101542415e-03 0.0000000000000000e+00  -1.7124223797472169e+01 -6.5374051722899042e-04 0.0000000000000000e+00  -1.7129450064713598e+01 8.0027031424365438e-04 0.0000000000000000e+00  -1.7127946133951717e+01 -1.0446389804531671e-03 0.0000000000000000e+00  -1.7124949284095049e+01 -8.0084656203737968e-03 0.0000000000000000e+00  -1.7119202851697700e+01 -3.3771550929917522e-02 0.0000000000000000e+00  -1.7075358837965766e+01 0.0000000000000000e+00 0.0000000000000000e+00  -2.0208431707846731e+01 0.0000000000000000e+00 0.0000000000000000e+00  -2.0215290660490037e+01 3.4783824629794555e-03 0.0000000000000000e+00  -2.0215311470455813e+01 4.7907785932393742e-03 0.0000000000000000e+00  -2.0213471272552539e+01 3.3694998140526792e-03 0.0000000000000000e+00  -2.0211343330690305e+01 1.8392418939159256e-03 0.0000000000000000e+00  -2.0209347351423183e+01 8.4164645377871874e-04 0.0000000000000000e+00  -2.0207733137500316e+01 4.3182019028463128e-04 0.0000000000000000e+00  -2.0206571066202969e+01 4.5490793258063479e-04 0.0000000000000000e+00  -2.0205803704604978e+01 7.1256731559298577e-04 0.0000000000000000e+00  -2.0205325871493464e+01 1.0560768565188300e-03 0.0000000000000000e+00  -2.0205033181313958e+01 1.3715660418762243e-03 0.0000000000000000e+00  -2.0204819128178205e+01 1.6090960786474958e-03 0.0000000000000000e+00  -2.0204616425188178e+01 1.7683916023436923e-03 0.0000000000000000e+00  -2.0204390259932655e+01 1.8469581161246200e-03 0.0000000000000000e+00  -2.0204103493032196e+01 1.8396479656797042e-03 0.0000000000000000e+00  -2.0203730629234599e+01 1.7744689099040728e-03 0.0000000000000000e+00  -2.0203283657376563e+01 1.6981727778193634e-03 0.0000000000000000e+00  -2.0202796711679682e+01 1.6385562204530313e-03 0.0000000000000000e+00  -2.0202294915444085e+01 1.5940907864369822e-03 0.0000000000000000e+00  -2.0201787481970065e+01 1.5583066857621309e-03 0.0000000000000000e+00  -2.0201286114283892e+01 1.5420669090411849e-03 0.0000000000000000e+00  -2.0200821875823724e+01 1.5732221422357878e-03 0.0000000000000000e+00  -2.0200443255900240e+01 1.6778842008955525e-03 0.0000000000000000e+00  -2.0200198640863864e+01 1.8627727706099274e-03 0.0000000000000000e+00  -2.0200117526017110e+01 2.1099219248888706e-03 0.0000000000000000e+00  -2.0200201254712024e+01 2.3844281272600082e-03 0.0000000000000000e+00  -2.0200425543723689e+01 2.6475539256233392e-03 0.0000000000000000e+00  -2.0200750388026094e+01 2.8681350033764306e-03 0.0000000000000000e+00  -2.0201131506921339e+01 3.0282962116038206e-03 0.0000000000000000e+00  -2.0201529169691749e+01 3.1237223724761660e-03 0.0000000000000000e+00  -2.0201912976215954e+01 3.1603904822589597e-03 0.0000000000000000e+00  -2.0202263026168762e+01 3.1501854100301429e-03 0.0000000000000000e+00  -2.0202568772788801e+01 3.1069337447466672e-03 0.0000000000000000e+00  -2.0202826820074822e+01 3.0436546306852972e-03 0.0000000000000000e+00  -2.0203038579597315e+01 2.9710561895229005e-03 0.0000000000000000e+00  -2.0203208263262749e+01 2.8970446996992574e-03 0.0000000000000000e+00  -2.0203341389924724e+01 2.8268609653591390e-03 0.0000000000000000e+00  -2.0203443788922041e+01 2.7635469091046336e-03 0.0000000000000000e+00  -2.0203521010537127e+01 2.7085030929508039e-03 0.0000000000000000e+00  -2.0203578025583326e+01 2.6620137236773858e-03 0.0000000000000000e+00  -2.0203619112822743e+01 2.6236699891316207e-03 0.0000000000000000e+00  -2.0203647854380854e+01 2.5926847642859692e-03 0.0000000000000000e+00  -2.0203667188769277e+01 2.5681073635841355e-03 0.0000000000000000e+00  -2.0203679489443964e+01 2.5489625044230213e-03 0.0000000000000000e+00  -2.0203686650983034e+01 2.5343309709185921e-03 0.0000000000000000e+00  -2.0203690170749564e+01 2.5233897482982970e-03 0.0000000000000000e+00  -2.0203691219626524e+01 2.5154236521761097e-03 0.0000000000000000e+00  -2.0203690699054214e+01 2.5098208348215702e-03 0.0000000000000000e+00  -2.0203689286057408e+01 2.5060609873892152e-03 0.0000000000000000e+00  -2.0203687469489072e+01 2.5037033080980210e-03 0.0000000000000000e+00  -2.0203685582251605e+01 2.5023772260679171e-03 0.0000000000000000e+00  -2.0203683830465057e+01 2.5017763799554688e-03 0.0000000000000000e+00  -2.0203682324287918e+01 2.5016545467127331e-03 0.0000000000000000e+00  -2.0203681100963209e+01 2.5018212643958837e-03 0.0000000000000000e+00  -2.0203680158230668e+01 2.5021372188062784e-03 0.0000000000000000e+00  -2.0203679454010654e+01 2.5025055728881058e-03 0.0000000000000000e+00  -2.0203678963834843e+01 2.5028680215957565e-03 0.0000000000000000e+00  -2.0203678602878114e+01 2.5031865900659376e-03 0.0000000000000000e+00  -2.0203678407876698e+01 2.5034577412577979e-03 0.0000000000000000e+00  -2.0203678198887957e+01 2.5036566590374044e-03 0.0000000000000000e+00  -2.0203678213911431e+01 2.5038369338527640e-03 0.0000000000000000e+00  -2.0203677982528319e+01 2.5039085331040488e-03 0.0000000000000000e+00  -2.0203678212782091e+01 2.5040715232482178e-03 0.0000000000000000e+00  -2.0203677839809679e+01 2.5039803490594877e-03 0.0000000000000000e+00  -2.0203678215659334e+01 2.5042592766520494e-03 0.0000000000000000e+00  -2.0203677943205978e+01 2.5039250252808566e-03 0.0000000000000000e+00  -2.0203677736596454e+01 2.5044861710825542e-03 0.0000000000000000e+00  -2.0203678957805295e+01 2.5042884841418125e-03 0.0000000000000000e+00  -2.0203675646410808e+01 2.5055622229793019e-03 0.0000000000000000e+00  -2.0203680591360730e+01 2.5090152180106146e-03 0.0000000000000000e+00  -2.0203660610996359e+01 2.5045794938718465e-03 0.0000000000000000e+00  -2.0203653757807373e+01 2.4720714201239094e-03 0.0000000000000000e+00  -2.0203559424652266e+01 2.2412863698965217e-03 0.0000000000000000e+00  -2.0203774334350726e+01 1.9469603827346799e-03 0.0000000000000000e+00  -2.0204322264394154e+01 2.7412221946919446e-03 0.0000000000000000e+00  -2.0204930760343821e+01 5.2151701814662161e-03 0.0000000000000000e+00  -2.0199435737246180e+01 2.7981779905860257e-03 0.0000000000000000e+00  -2.0193013799766476e+01 6.2215671454146995e-04 0.0000000000000000e+00  -2.0190665524150152e+01 -2.2922310228421796e-03 0.0000000000000000e+00  -2.0213222933024333e+01 1.6871417868158756e-02 0.0000000000000000e+00  -2.0202772860121925e+01 0.0000000000000000e+00 0.0000000000000000e+00  -1.6645285414613507e+01 0.0000000000000000e+00 0.0000000000000000e+00  -1.6648933720158283e+01 1.3974214083311220e-03 0.0000000000000000e+00  -1.6647560710803948e+01 9.0760025062067780e-04 0.0000000000000000e+00  -1.6646112978191667e+01 -3.2328379317400543e-04 0.0000000000000000e+00  -1.6645953009325794e+01 -1.3933193245696013e-03 0.0000000000000000e+00  -1.6646931000212014e+01 -1.9519825202196489e-03 0.0000000000000000e+00  -1.6648543147826086e+01 -2.0521579102004556e-03 0.0000000000000000e+00  -1.6650331518311983e+01 -1.8550178691515704e-03 0.0000000000000000e+00  -1.6652004057065120e+01 -1.5393773365668033e-03 0.0000000000000000e+00  -1.6653414259939570e+01 -1.2072972439744355e-03 0.0000000000000000e+00  -1.6654540050091150e+01 -9.3488455616191858e-04 0.0000000000000000e+00  -1.6655427442610414e+01 -7.5778568778833786e-04 0.0000000000000000e+00  -1.6656139800765594e+01 -6.5332662627428425e-04 0.0000000000000000e+00  -1.6656747442910429e+01 -6.1378259467347583e-04 0.0000000000000000e+00  -1.6657325908036746e+01 -6.4810191227713783e-04 0.0000000000000000e+00  -1.6657935740204735e+01 -7.2915427053104145e-04 0.0000000000000000e+00  -1.6658603934535428e+01 -8.0811918678792480e-04 0.0000000000000000e+00  -1.6659328035196655e+01 -8.6039731312094231e-04 0.0000000000000000e+00  -1.6660096428859816e+01 -8.9381379769596790e-04 0.0000000000000000e+00  -1.6660900079330084e+01 -9.1860432193923791e-04 0.0000000000000000e+00  -1.6661726116749769e+01 -9.2409126383940663e-04 0.0000000000000000e+00  -1.6662543854262793e+01 -8.8269219759981382e-04 0.0000000000000000e+00  -1.6663299737422747e+01 -7.7108843826502070e-04 0.0000000000000000e+00  -1.6663927209071346e+01 -5.8709291949825303e-04 0.0000000000000000e+00  -1.6664365677604813e+01 -3.5208172669906672e-04 0.0000000000000000e+00  -1.6664577899316988e+01 -1.0118515099009594e-04 0.0000000000000000e+00  -1.6664558388563215e+01 1.3001440508078163e-04 0.0000000000000000e+00  -1.6664331444074886e+01 3.1544252251972267e-04 0.0000000000000000e+00  -1.6663942050802095e+01 4.4240664927210717e-04 0.0000000000000000e+00  -1.6663444345677050e+01 5.1045917704430673e-04 0.0000000000000000e+00  -1.6662891456117325e+01 5.2757971660232720e-04 0.0000000000000000e+00  -1.6662328638833564e+01 5.0591535517301774e-04 0.0000000000000000e+00  -1.6661790000811035e+01 4.5833572665402659e-04 0.0000000000000000e+00  -1.6661298079426551e+01 3.9626838861259568e-04 0.0000000000000000e+00  -1.6660865228246841e+01 3.2868568204246445e-04 0.0000000000000000e+00  -1.6660495837988798e+01 2.6192377948257393e-04 0.0000000000000000e+00  -1.6660188695726792e+01 1.9997399024095628e-04 0.000000000000