<?xml version="1.0"?>
<VTKFile type="UnstructuredGrid"  version="0.1"  >
<UnstructuredGrid>
<Piece  NumberOfPoints="1369" NumberOfCells="2560">
<Points>
<DataArray  type="Float64"  NumberOfComponents="3"  format="ascii">0 0 0  0.75 0 0  1.5 0 0  2.25 0 0  3 0 0  3.75 0 0  4.5 0 0  5.25 0 0  6 0 0  6.75 0 0  7.5 0 0  8.25 0 0  9 0 0  9.75 0 0  10.5 0 0  11.25 0 0  12 0 0  12.75 0 0  13.5 0 0  14.25 0 0  15 0 0  15.75 0 0  16.5 0 0  17.25 0 0  18 0 0  18.75 0 0  19.5 0 0  20.25 0 0  21 0 0  21.75 0 0  22.5 0 0  23.25 0 0  24 0 0  24.75 0 0  25.5 0 0  26.25 0 0  27 0 0  27.75 0 0  28.5 0 0  29.25 0 0  30 0 0  30.75 0 0  31.5 0 0  32.25 0 0  33 0 0  33.75 0 0  34.5 0 0  35.25 0 0  36 0 0  36.75 0 0  37.5 0 0  38.25 0 0  39 0 0  39.75 0 0  40.5 0 0  41.25 0 0  42 0 0  42.75 0 0  43.5 0 0  44.25 0 0  45 0 0  45.75 0 0  46.5 0 0  47.25 0 0  48 0 0  48.75 0 0  49.5 0 0  50.25 0 0  51 0 0  51.75 0 0  52.5 0 0  53.25 0 0  54 0 0  54.75 0 0  55.5 0 0  56.25 0 0  57 0 0  57.75 0 0  58.5 0 0  59.25 0 0  60 0 0  0 0.5 0  0.75 0.5 0  1.5 0.5 0  2.25 0.5 0  3 0.5 0  3.75 0.5 0  4.5 0.5 0  5.25 0.5 0  6 0.5 0  6.75 0.5 0  7.5 0.5 0  8.25 0.5 0  9 0.5 0  9.75 0.5 0  10.5 0.5 0  11.25 0.5 0  12 0.5 0  12.75 0.5 0  13.5 0.5 0  14.25 0.5 0  15 0.5 0  15.75 0.5 0  16.5 0.5 0  17.25 0.5 0  18 0.5 0  18.75 0.5 0  19.5 0.5 0  20.25 0.5 0  21 0.5 0  21.75 0.5 0  22.5 0.5 0  23.25 0.5 0  24 0.5 0  24.75 0.5 0  25.5 0.5 0  26.25 0.5 0  27 0.5 0  27.75 0.5 0  28.5 0.5 0  29.25 0.5 0  30 0.5 0  30.75 0.5 0  31.5 0.5 0  32.25 0.5 0  33 0.5 0  33.75 0.5 0  34.5 0.5 0  35.25 0.5 0  36 0.5 0  36.75 0.5 0  37.5 0.5 0  38.25 0.5 0  39 0.5 0  39.75 0.5 0  40.5 0.5 0  41.25 0.5 0  42 0.5 0  42.75 0.5 0  43.5 0.5 0  44.25 0.5 0  45 0.5 0  45.75 0.5 0  46.5 0.5 0  47.25 0.5 0  48 0.5 0  48.75 0.5 0  49.5 0.5 0  50.25 0.5 0  51 0.5 0  51.75 0.5 0  52.5 0.5 0  53.25 0.5 0  54 0.5 0  54.75 0.5 0  55.5 0.5 0  56.25 0.5 0  57 0.5 0  57.75 0.5 0  58.5 0.5 0  59.25 0.5 0  60 0.5 0  0 1 0  0.75 1 0  1.5 1 0  2.25 1 0  3 1 0  3.75 1 0  4.5 1 0  5.25 1 0  6 1 0  6.75 1 0  7.5 1 0  8.25 1 0  9 1 0  9.75 1 0  10.5 1 0  11.25 1 0  12 1 0  12.75 1 0  13.5 1 0  14.25 1 0  15 1 0  15.75 1 0  16.5 1 0  17.25 1 0  18 1 0  18.75 1 0  19.5 1 0  20.25 1 0  21 1 0  21.75 1 0  22.5 1 0  23.25 1 0  24 1 0  24.75 1 0  25.5 1 0  26.25 1 0  27 1 0  27.75 1 0  28.5 1 0  29.25 1 0  30 1 0  30.75 1 0  31.5 1 0  32.25 1 0  33 1 0  33.75 1 0  34.5 1 0  35.25 1 0  36 1 0  36.75 1 0  37.5 1 0  38.25 1 0  39 1 0  39.75 1 0  40.5 1 0  41.25 1 0  42 1 0  42.75 1 0  43.5 1 0  44.25 1 0  45 1 0  45.75 1 0  46.5 1 0  47.25 1 0  48 1 0  48.75 1 0  49.5 1 0  50.25 1 0  51 1 0  51.75 1 0  52.5 1 0  53.25 1 0  54 1 0  54.75 1 0  55.5 1 0  56.25 1 0  57 1 0  57.75 1 0  58.5 1 0  59.25 1 0  60 1 0  0 1.5 0  0.75 1.5 0  1.5 1.5 0  2.25 1.5 0  3 1.5 0  3.75 1.5 0  4.5 1.5 0  5.25 1.5 0  6 1.5 0  6.75 1.5 0  7.5 1.5 0  8.25 1.5 0  9 1.5 0  9.75 1.5 0  10.5 1.5 0  11.25 1.5 0  12 1.5 0  12.75 1.5 0  13.5 1.5 0  14.25 1.5 0  15 1.5 0  15.75 1.5 0  16.5 1.5 0  17.25 1.5 0  18 1.5 0  18.75 1.5 0  19.5 1.5 0  20.25 1.5 0  21 1.5 0  21.75 1.5 0  22.5 1.5 0  23.25 1.5 0  24 1.5 0  24.75 1.5 0  25.5 1.5 0  26.25 1.5 0  27 1.5 0  27.75 1.5 0  28.5 1.5 0  29.25 1.5 0  30 1.5 0  30.75 1.5 0  31.5 1.5 0  32.25 1.5 0  33 1.5 0  33.75 1.5 0  34.5 1.5 0  35.25 1.5 0  36 1.5 0  36.75 1.5 0  37.5 1.5 0  38.25 1.5 0  39 1.5 0  39.75 1.5 0  40.5 1.5 0  41.25 1.5 0  42 1.5 0  42.75 1.5 0  43.5 1.5 0  44.25 1.5 0  45 1.5 0  45.75 1.5 0  46.5 1.5 0  47.25 1.5 0  48 1.5 0  48.75 1.5 0  49.5 1.5 0  50.25 1.5 0  51 1.5 0  51.75 1.5 0  52.5 1.5 0  53.25 1.5 0  54 1.5 0  54.75 1.5 0  55.5 1.5 0  56.25 1.5 0  57 1.5 0  57.75 1.5 0  58.5 1.5 0  59.25 1.5 0  60 1.5 0  0 2 0  0.75 2 0  1.5 2 0  2.25 2 0  3 2 0  3.75 2 0  4.5 2 0  5.25 2 0  6 2 0  6.75 2 0  7.5 2 0  8.25 2 0  9 2 0  9.75 2 0  10.5 2 0  11.25 2 0  12 2 0  12.75 2 0  13.5 2 0  14.25 2 0  15 2 0  15.75 2 0  16.5 2 0  17.25 2 0  18 2 0  18.75 2 0  19.5 2 0  20.25 2 0  21 2 0  21.75 2 0  22.5 2 0  23.25 2 0  24 2 0  24.75 2 0  25.5 2 0  26.25 2 0  27 2 0  27.75 2 0  28.5 2 0  29.25 2 0  30 2 0  30.75 2 0  31.5 2 0  32.25 2 0  33 2 0  33.75 2 0  34.5 2 0  35.25 2 0  36 2 0  36.75 2 0  37.5 2 0  38.25 2 0  39 2 0  39.75 2 0  40.5 2 0  41.25 2 0  42 2 0  42.75 2 0  43.5 2 0  44.25 2 0  45 2 0  45.75 2 0  46.5 2 0  47.25 2 0  48 2 0  48.75 2 0  49.5 2 0  50.25 2 0  51 2 0  51.75 2 0  52.5 2 0  53.25 2 0  54 2 0  54.75 2 0  55.5 2 0  56.25 2 0  57 2 0  57.75 2 0  58.5 2 0  59.25 2 0  60 2 0  0 2.5 0  0.75 2.5 0  1.5 2.5 0  2.25 2.5 0  3 2.5 0  3.75 2.5 0  4.5 2.5 0  5.25 2.5 0  6 2.5 0  6.75 2.5 0  7.5 2.5 0  8.25 2.5 0  9 2.5 0  9.75 2.5 0  10.5 2.5 0  11.25 2.5 0  12 2.5 0  12.75 2.5 0  13.5 2.5 0  14.25 2.5 0  15 2.5 0  15.75 2.5 0  16.5 2.5 0  17.25 2.5 0  18 2.5 0  18.75 2.5 0  19.5 2.5 0  20.25 2.5 0  21 2.5 0  21.75 2.5 0  22.5 2.5 0  23.25 2.5 0  24 2.5 0  24.75 2.5 0  25.5 2.5 0  26.25 2.5 0  27 2.5 0  27.75 2.5 0  28.5 2.5 0  29.25 2.5 0  30 2.5 0  30.75 2.5 0  31.5 2.5 0  32.25 2.5 0  33 2.5 0  33.75 2.5 0  34.5 2.5 0  35.25 2.5 0  36 2.5 0  36.75 2.5 0  37.5 2.5 0  38.25 2.5 0  39 2.5 0  39.75 2.5 0  40.5 2.5 0  41.25 2.5 0  42 2.5 0  42.75 2.5 0  43.5 2.5 0  44.25 2.5 0  45 2.5 0  45.75 2.5 0  46.5 2.5 0  47.25 2.5 0  48 2.5 0  48.75 2.5 0  49.5 2.5 0  50.25 2.5 0  51 2.5 0  51.75 2.5 0  52.5 2.5 0  53.25 2.5 0  54 2.5 0  54.75 2.5 0  55.5 2.5 0  56.25 2.5 0  57 2.5 0  57.75 2.5 0  58.5 2.5 0  59.25 2.5 0  60 2.5 0  0 3 0  0.75 3 0  1.5 3 0  2.25 3 0  3 3 0  3.75 3 0  4.5 3 0  5.25 3 0  6 3 0  6.75 3 0  7.5 3 0  8.25 3 0  9 3 0  9.75 3 0  10.5 3 0  11.25 3 0  12 3 0  12.75 3 0  13.5 3 0  14.25 3 0  15 3 0  15.75 3 0  16.5 3 0  17.25 3 0  18 3 0  18.75 3 0  19.5 3 0  20.25 3 0  21 3 0  21.75 3 0  22.5 3 0  23.25 3 0  24 3 0  24.75 3 0  25.5 3 0  26.25 3 0  27 3 0  27.75 3 0  28.5 3 0  29.25 3 0  30 3 0  30.75 3 0  31.5 3 0  32.25 3 0  33 3 0  33.75 3 0  34.5 3 0  35.25 3 0  36 3 0  36.75 3 0  37.5 3 0  38.25 3 0  39 3 0  39.75 3 0  40.5 3 0  41.25 3 0  42 3 0  42.75 3 0  43.5 3 0  44.25 3 0  45 3 0  45.75 3 0  46.5 3 0  47.25 3 0  48 3 0  48.75 3 0  49.5 3 0  50.25 3 0  51 3 0  51.75 3 0  52.5 3 0  53.25 3 0  54 3 0  54.75 3 0  55.5 3 0  56.25 3 0  57 3 0  57.75 3 0  58.5 3 0  59.25 3 0  60 3 0  0 3.5 0  0.75 3.5 0  1.5 3.5 0  2.25 3.5 0  3 3.5 0  3.75 3.5 0  4.5 3.5 0  5.25 3.5 0  6 3.5 0  6.75 3.5 0  7.5 3.5 0  8.25 3.5 0  9 3.5 0  9.75 3.5 0  10.5 3.5 0  11.25 3.5 0  12 3.5 0  12.75 3.5 0  13.5 3.5 0  14.25 3.5 0  15 3.5 0  15.75 3.5 0  16.5 3.5 0  17.25 3.5 0  18 3.5 0  18.75 3.5 0  19.5 3.5 0  20.25 3.5 0  21 3.5 0  21.75 3.5 0  22.5 3.5 0  23.25 3.5 0  24 3.5 0  24.75 3.5 0  25.5 3.5 0  26.25 3.5 0  27 3.5 0  27.75 3.5 0  28.5 3.5 0  29.25 3.5 0  30 3.5 0  30.75 3.5 0  31.5 3.5 0  32.25 3.5 0  33 3.5 0  33.75 3.5 0  34.5 3.5 0  35.25 3.5 0  36 3.5 0  36.75 3.5 0  37.5 3.5 0  38.25 3.5 0  39 3.5 0  39.75 3.5 0  40.5 3.5 0  41.25 3.5 0  42 3.5 0  42.75 3.5 0  43.5 3.5 0  44.25 3.5 0  45 3.5 0  45.75 3.5 0  46.5 3.5 0  47.25 3.5 0  48 3.5 0  48.75 3.5 0  49.5 3.5 0  50.25 3.5 0  51 3.5 0  51.75 3.5 0  52.5 3.5 0  53.25 3.5 0  54 3.5 0  54.75 3.5 0  55.5 3.5 0  56.25 3.5 0  57 3.5 0  57.75 3.5 0  58.5 3.5 0  59.25 3.5 0  60 3.5 0  0 4 0  0.75 4 0  1.5 4 0  2.25 4 0  3 4 0  3.75 4 0  4.5 4 0  5.25 4 0  6 4 0  6.75 4 0  7.5 4 0  8.25 4 0  9 4 0  9.75 4 0  10.5 4 0  11.25 4 0  12 4 0  12.75 4 0  13.5 4 0  14.25 4 0  15 4 0  15.75 4 0  16.5 4 0  17.25 4 0  18 4 0  18.75 4 0  19.5 4 0  20.25 4 0  21 4 0  21.75 4 0  22.5 4 0  23.25 4 0  24 4 0  24.75 4 0  25.5 4 0  26.25 4 0  27 4 0  27.75 4 0  28.5 4 0  29.25 4 0  30 4 0  30.75 4 0  31.5 4 0  32.25 4 0  33 4 0  33.75 4 0  34.5 4 0  35.25 4 0  36 4 0  36.75 4 0  37.5 4 0  38.25 4 0  39 4 0  39.75 4 0  40.5 4 0  41.25 4 0  42 4 0  42.75 4 0  43.5 4 0  44.25 4 0  45 4 0  45.75 4 0  46.5 4 0  47.25 4 0  48 4 0  48.75 4 0  49.5 4 0  50.25 4 0  51 4 0  51.75 4 0  52.5 4 0  53.25 4 0  54 4 0  54.75 4 0  55.5 4 0  56.25 4 0  57 4 0  57.75 4 0  58.5 4 0  59.25 4 0  60 4 0  0.375 0.25 0  1.125 0.25 0  1.875 0.25 0  2.625 0.25 0  3.375 0.25 0  4.125 0.25 0  4.875 0.25 0  5.625 0.25 0  6.375 0.25 0  7.125 0.25 0  7.875 0.25 0  8.625 0.25 0  9.375 0.25 0  10.125 0.25 0  10.875 0.25 0  11.625 0.25 0  12.375 0.25 0  13.125 0.25 0  13.875 0.25 0  14.625 0.25 0  15.375 0.25 0  16.125 0.25 0  16.875 0.25 0  17.625 0.25 0  18.375 0.25 0  19.125 0.25 0  19.875 0.25 0  20.625 0.25 0  21.375 0.25 0  22.125 0.25 0  22.875 0.25 0  23.625 0.25 0  24.375 0.25 0  25.125 0.25 0  25.875 0.25 0  26.625 0.25 0  27.375 0.25 0  28.125 0.25 0  28.875 0.25 0  29.625 0.25 0  30.375 0.25 0  31.125 0.25 0  31.875 0.25 0  32.625 0.25 0  33.375 0.25 0  34.125 0.25 0  34.875 0.25 0  35.625 0.25 0  36.375 0.25 0  37.125 0.25 0  37.875 0.25 0  38.625 0.25 0  39.375 0.25 0  40.125 0.25 0  40.875 0.25 0  41.625 0.25 0  42.375 0.25 0  43.125 0.25 0  43.875 0.25 0  44.625 0.25 0  45.375 0.25 0  46.125 0.25 0  46.875 0.25 0  47.625 0.25 0  48.375 0.25 0  49.125 0.25 0  49.875 0.25 0  50.625 0.25 0  51.375 0.25 0  52.125 0.25 0  52.875 0.25 0  53.625 0.25 0  54.375 0.25 0  55.125 0.25 0  55.875 0.25 0  56.625 0.25 0  57.375 0.25 0  58.125 0.25 0  58.875 0.25 0  59.625 0.25 0  0.375 0.75 0  1.125 0.75 0  1.875 0.75 0  2.625 0.75 0  3.375 0.75 0  4.125 0.75 0  4.875 0.75 0  5.625 0.75 0  6.375 0.75 0  7.125 0.75 0  7.875 0.75 0  8.625 0.75 0  9.375 0.75 0  10.125 0.75 0  10.875 0.75 0  11.625 0.75 0  12.375 0.75 0  13.125 0.75 0  13.875 0.75 0  14.625 0.75 0  15.375 0.75 0  16.125 0.75 0  16.875 0.75 0  17.625 0.75 0  18.375 0.75 0  19.125 0.75 0  19.875 0.75 0  20.625 0.75 0  21.375 0.75 0  22.125 0.75 0  22.875 0.75 0  23.625 0.75 0  24.375 0.75 0  25.125 0.75 0  25.875 0.75 0  26.625 0.75 0  27.375 0.75 0  28.125 0.75 0  28.875 0.75 0  29.625 0.75 0  30.375 0.75 0  31.125 0.75 0  31.875 0.75 0  32.625 0.75 0  33.375 0.75 0  34.125 0.75 0  34.875 0.75 0  35.625 0.75 0  36.375 0.75 0  37.125 0.75 0  37.875 0.75 0  38.625 0.75 0  39.375 0.75 0  40.125 0.75 0  40
[...]
<PointData  Vectors="f_8-0"> 
<DataArray  type="Float64"  Name="f_8-0"  NumberOfComponents="3" format="ascii">0.0000000000000000e+00 0.0000000000000000e+00 0.0000000000000000e+00  0.0000000000000000e+00 0.0000000000000000e+00 0.0000000000000000e+00  0.0000000000000000e+00 0.0000000000000000e+00 0.0000000000000000e+00  0.0000000000000000e+00 0.0000000000000000e+00 0.0000000000000000e+00  0.0000000000000000e+00 0.0000000000000000e+00 0.0000000000000000e+00  0.0000000000000000e+00 0.0000000000000000e+00 0.0000000000000000e+00  0.0000000000000000e+00 0.0000000000000000e+00 0.0000000000000000e+00  0.0000000000000000e+00 0.0000000000000000e+00 0.0000000000000000e+00  0.0000000000000000e+00 0.0000000000000000e+00 0.0000000000000000e+00  0.0000000000000000e+00 0.0000000000000000e+00 0.0000000000000000e+00  0.0000000000000000e+00 0.0000000000000000e+00 0.0000000000000000e+00  0.0000000000000000e+00 0.0000000000000000e+00 0.0000000000000000e+00  0.0000000000000000e+00 0.0000000000000000e+00 0.0000000000000000e+00  0.0000000000000000e+00 0.0000000000000000e+00 0.0000000000000000e+00  0.0000000000000000e+00 0.0000000000000000e+00 0.0000000000000000e+00  0.0000000000000000e+00 0.0000000000000000e+00 0.0000000000000000e+00  0.0000000000000000e+00 0.0000000000000000e+00 0.0000000000000000e+00  0.0000000000000000e+00 0.0000000000000000e+00 0.0000000000000000e+00  0.0000000000000000e+00 0.0000000000000000e+00 0.0000000000000000e+00  0.0000000000000000e+00 0.0000000000000000e+00 0.0000000000000000e+00  0.0000000000000000e+00 0.0000000000000000e+00 0.0000000000000000e+00  0.0000000000000000e+00 0.0000000000000000e+00 0.0000000000000000e+00  0.0000000000000000e+00 0.0000000000000000e+00 0.0000000000000000e+00  0.0000000000000000e+00 0.0000000000000000e+00 0.0000000000000000e+00  0.0000000000000000e+00 0.0000000000000000e+00 0.0000000000000000e+00  0.0000000000000000e+00 0.0000000000000000e+00 0.0000000000000000e+00  0.0000000000000000e+00 0.0000000000000000e+00 0.0000000000000000e+00  0.0000000000000000e+00 0.0000000000000000e+00 0.0000000000000000e+00  0.0000000000000000e+00 0.0000000000000000e+00 0.0000000000000000e+00  0.0000000000000000e+00 0.0000000000000000e+00 0.0000000000000000e+00  0.0000000000000000e+00 0.0000000000000000e+00 0.0000000000000000e+00  0.0000000000000000e+00 0.0000000000000000e+00 0.0000000000000000e+00  0.0000000000000000e+00 0.0000000000000000e+00 0.0000000000000000e+00  0.0000000000000000e+00 0.0000000000000000e+00 0.0000000000000000e+00  0.0000000000000000e+00 0.0000000000000000e+00 0.0000000000000000e+00  0.0000000000000000e+00 0.0000000000000000e+00 0.0000000000000000e+00  0.0000000000000000e+00 0.0000000000000000e+00 0.0000000000000000e+00  0.0000000000000000e+00 0.0000000000000000e+00 0.0000000000000000e+00  0.0000000000000000e+00 0.0000000000000000e+00 0.0000000000000000e+00  0.0000000000000000e+00 0.0000000000000000e+00 0.0000000000000000e+00  0.0000000000000000e+00 0.0000000000000000e+00 0.0000000000000000e+00  0.0000000000000000e+00 0.0000000000000000e+00 0.0000000000000000e+00  0.0000000000000000e+00 0.0000000000000000e+00 0.0000000000000000e+00  0.0000000000000000e+00 0.0000000000000000e+00 0.0000000000000000e+00  0.0000000000000000e+00 0.0000000000000000e+00 0.0000000000000000e+00  0.0000000000000000e+00 0.0000000000000000e+00 0.0000000000000000e+00  0.0000000000000000e+00 0.0000000000000000e+00 0.0000000000000000e+00  0.0000000000000000e+00 0.0000000000000000e+00 0.0000000000000000e+00  0.0000000000000000e+00 0.0000000000000000e+00 0.0000000000000000e+00  0.0000000000000000e+00 0.0000000000000000e+00 0.0000000000000000e+00  0.0000000000000000e+00 0.0000000000000000e+00 0.0000000000000000e+00  0.0000000000000000e+00 0.0000000000000000e+00 0.0000000000000000e+00  0.0000000000000000e+00 0.0000000000000000e+00 0.0000000000000000e+00  0.0000000000000000e+00 0.0000000000000000e+00 0.0000000000000000e+00  0.0000000000000000e+00 0.0000000000000000e+00 0.0000000000000000e+00  0.0000000000000000e+00 0.0000000000000000e+00 0.0000000000000000e+00  0.0000000000000000e+00 0.0000000000000000e+00 0.0000000000000000e+00  0.0000000000000000e+00 0.0000000000000000e+00 0.0000000000000000e+00  0.0000000000000000e+00 0.0000000000000000e+00 0.0000000000000000e+00  0.0000000000000000e+00 0.0000000000000000e+00 0.0000000000000000e+00  0.0000000000000000e+00 0.0000000000000000e+00 0.0000000000000000e+00  0.0000000000000000e+00 0.0000000000000000e+00 0.0000000000000000e+00  0.0000000000000000e+00 0.0000000000000000e+00 0.0000000000000000e+00  0.0000000000000000e+00 0.0000000000000000e+00 0.0000000000000000e+00  0.0000000000000000e+00 0.0000000000000000e+00 0.0000000000000000e+00  0.0000000000000000e+00 0.0000000000000000e+00 0.0000000000000000e+00  0.0000000000000000e+00 0.0000000000000000e+00 0.0000000000000000e+00  0.0000000000000000e+00 0.0000000000000000e+00 0.0000000000000000e+00  0.0000000000000000e+00 0.0000000000000000e+00 0.0000000000000000e+00  0.0000000000000000e+00 0.0000000000000000e+00 0.0000000000000000e+00  0.0000000000000000e+00 0.0000000000000000e+00 0.0000000000000000e+00  0.0000000000000000e+00 0.0000000000000000e+00 0.0000000000000000e+00  0.0000000000000000e+00 0.0000000000000000e+00 0.0000000000000000e+00  0.0000000000000000e+00 0.0000000000000000e+00 0.0000000000000000e+00  0.0000000000000000e+00 0.0000000000000000e+00 0.0000000000000000e+00  0.0000000000000000e+00 0.0000000000000000e+00 0.0000000000000000e+00  0.0000000000000000e+00 0.0000000000000000e+00 0.0000000000000000e+00  0.0000000000000000e+00 0.0000000000000000e+00 0.0000000000000000e+00  0.0000000000000000e+00 0.0000000000000000e+00 0.0000000000000000e+00  0.0000000000000000e+00 0.0000000000000000e+00 0.0000000000000000e+00  0.0000000000000000e+00 0.0000000000000000e+00 0.0000000000000000e+00  1.8901762062785860e+01 0.0000000000000000e+00 0.0000000000000000e+00  1.8974580930972106e+01 -8.3378917830117541e-02 0.0000000000000000e+00  1.8948558106941768e+01 -2.7362396997055140e-02 0.0000000000000000e+00  1.8947777711551332e+01 -8.0415143966813697e-03 0.0000000000000000e+00  1.8942281005028619e+01 -6.4922840039243141e-03 0.0000000000000000e+00  1.8936636752733126e+01 -4.3700845315393531e-03 0.0000000000000000e+00  1.8938599630771193e+01 -8.1562853099696828e-03 0.0000000000000000e+00  1.8940969248996019e+01 -7.7705216272486452e-03 0.0000000000000000e+00  1.8947608157700639e+01 -9.5258823171569720e-03 0.0000000000000000e+00  1.8953311569935558e+01 -8.8442482824985253e-03 0.0000000000000000e+00  1.8960279035016136e+01 -9.3320542240276794e-03 0.0000000000000000e+00  1.8966201289652204e+01 -8.8637567446882577e-03 0.0000000000000000e+00  1.8972361020800633e+01 -8.8539324774303454e-03 0.0000000000000000e+00  1.8977474924684689e+01 -8.2940736737033161e-03 0.0000000000000000e+00  1.8981784829710683e+01 -7.8947048089593134e-03 0.0000000000000000e+00  1.8984801738848876e+01 -7.3990032848481714e-03 0.0000000000000000e+00  1.8986874847797157e+01 -7.0935412433149238e-03 0.0000000000000000e+00  1.8988153475389772e+01 -6.8657504397948701e-03 0.0000000000000000e+00  1.8988965455492082e+01 -6.7438570461607070e-03 0.0000000000000000e+00  1.8989490550846650e+01 -6.6751918453267483e-03 0.0000000000000000e+00  1.8989852555660029e+01 -6.6314178792564894e-03 0.0000000000000000e+00  1.8990129485238064e+01 -6.6113784614966501e-03 0.0000000000000000e+00  1.8990338289560384e+01 -6.5887790450600931e-03 0.0000000000000000e+00  1.8990514836291386e+01 -6.5809180084514503e-03 0.0000000000000000e+00  1.8990652380835261e+01 -6.5670828013012529e-03 0.0000000000000000e+00  1.8990776166799627e+01 -6.5651697669699971e-03 0.0000000000000000e+00  1.8990880366211940e+01 -6.5590378076647582e-03 0.0000000000000000e+00  1.8990984754283605e+01 -6.5615748774046955e-03 0.0000000000000000e+00  1.8991084463367567e+01 -6.5602912817000767e-03 0.0000000000000000e+00  1.8991190935578825e+01 -6.5637845250412644e-03 0.0000000000000000e+00  1.8991297956678338e+01 -6.5636621962394219e-03 0.0000000000000000e+00  1.8991410529159790e+01 -6.5657804738824812e-03 0.0000000000000000e+00  1.8991522212934537e+01 -6.5645311622296865e-03 0.0000000000000000e+00  1.8991633436709250e+01 -6.5633437556514330e-03 0.0000000000000000e+00  1.8991736536934184e+01 -6.5584388662766170e-03 0.0000000000000000e+00  1.8991827940804953e+01 -6.5521645978943279e-03 0.0000000000000000e+00  1.8991899787070697e+01 -6.5428308676676967e-03 0.0000000000000000e+00  1.8991948566212479e+01 -6.5327928665638900e-03 0.0000000000000000e+00  1.8991970412862148e+01 -6.5219063594103071e-03 0.0000000000000000e+00  1.8991966130393539e+01 -6.5121870946873968e-03 0.0000000000000000e+00  1.8991937588487684e+01 -6.5037822011274667e-03 0.0000000000000000e+00  1.8991889767333152e+01 -6.4977563966088780e-03 0.0000000000000000e+00  1.8991827838094888e+01 -6.4938544853209981e-03 0.0000000000000000e+00  1.8991757825689163e+01 -6.4922384510252137e-03 0.0000000000000000e+00  1.8991684753772731e+01 -6.4923315241341411e-03 0.0000000000000000e+00  1.8991613065381756e+01 -6.4938592769967739e-03 0.0000000000000000e+00  1.8991545801884211e+01 -6.4962450061487320e-03 0.0000000000000000e+00  1.8991485082935075e+01 -6.4991745600460173e-03 0.0000000000000000e+00  1.8991431912702097e+01 -6.5022580982316029e-03 0.0000000000000000e+00  1.8991386629523113e+01 -6.5053043320229187e-03 0.0000000000000000e+00  1.8991348949526682e+01 -6.5081236213705715e-03 0.0000000000000000e+00  1.8991318286767804e+01 -6.5106497182973724e-03 0.0000000000000000e+00  1.8991293826244867e+01 -6.5128277566335263e-03 0.0000000000000000e+00  1.8991274703927903e+01 -6.5146660094911402e-03 0.0000000000000000e+00  1.8991260046248037e+01 -6.5161761497447993e-03 0.0000000000000000e+00  1.8991249050003265e+01 -6.5173956740211909e-03 0.0000000000000000e+00  1.8991240989718261e+01 -6.5183585338093111e-03 0.0000000000000000e+00  1.8991235242140544e+01 -6.5191056856949512e-03 0.0000000000000000e+00  1.8991231277277080e+01 -6.5196719751850554e-03 0.0000000000000000e+00  1.8991228658683958e+01 -6.5200917044483343e-03 0.0000000000000000e+00  1.8991227030351187e+01 -6.5203933814548315e-03 0.0000000000000000e+00  1.8991226109439204e+01 -6.5206028356222393e-03 0.0000000000000000e+00  1.8991225674475096e+01 -6.5207412873479181e-03 0.0000000000000000e+00  1.8991225557104304e+01 -6.5208270979046955e-03 0.0000000000000000e+00  1.8991225632697489e+01 -6.5208751434262871e-03 0.0000000000000000e+00  1.8991225813078913e+01 -6.5208981918838168e-03 0.0000000000000000e+00  1.8991226040159869e+01 -6.5209075732341028e-03 0.0000000000000000e+00  1.8991226282591331e+01 -6.5209168578901624e-03 0.0000000000000000e+00  1.8991226539807531e+01 -6.5209501380020943e-03 0.0000000000000000e+00  1.8991226865058696e+01 -6.5210671974607901e-03 0.0000000000000000e+00  1.8991227449665210e+01 -6.5214353388258779e-03 0.0000000000000000e+00  1.8991228877553731e+01 -6.5225227246492106e-03 0.0000000000000000e+00  1.8991232860104159e+01 -6.5256332481803576e-03 0.0000000000000000e+00  1.8991244393001459e+01 -6.5343675844007033e-03 0.0000000000000000e+00  1.8991278505860667e+01 -6.5583092668338892e-03 0.0000000000000000e+00  1.8991381280878723e+01 -6.6205499987791487e-03 0.0000000000000000e+00  1.8991696715038810e+01 -6.7656834298723441e-03 0.0000000000000000e+00  1.8992717450184838e+01 -7.0125600435811657e-03 0.0000000000000000e+00  1.8996166655102943e+01 -7.0004627764952473e-03 0.0000000000000000e+00  1.9012626577639768e+01 -4.9046363869890768e-04 0.0000000000000000e+00  1.9065623564761285e+01 0.0000000000000000e+00 0.0000000000000000e+00  3.2907814386153483e+01 0.0000000000000000e+00 0.0000000000000000e+00  3.2930169238498102e+01 5.6240090756721560e-02 0.0000000000000000e+00  3.2893691993131505e+01 6.1162099038828245e-03 0.0000000000000000e+00  3.2895025684954568e+01 1.4967118481523926e-02 0.0000000000000000e+00  3.2890018553884850e+01 1.0410483435738915e-02 0.0000000000000000e+00  3.2892935412423256e+01 3.3681816532765301e-03 0.0000000000000000e+00  3.2890695320502118e+01 2.2174637295847791e-03 0.0000000000000000e+00  3.2891437291258100e+01 -2.5181651297880251e-03 0.0000000000000000e+00  3.2889294378403839e+01 -2.2684266959387927e-03 0.0000000000000000e+00  3.2889985751071990e+01 -3.8132201186981858e-03 0.0000000000000000e+00  3.2889299120343864e+01 -2.9110478100687195e-03 0.0000000000000000e+00  3.2890206981825962e+01 -3.4869976484534796e-03 0.0000000000000000e+00  3.2890984973548598e+01 -3.0178111360066287e-03 0.0000000000000000e+00  3.2893407333281758e+01 -2.7397482325537139e-03 0.0000000000000000e+00  3.2895919358533597e+01 -1.6327672801736922e-03 0.0000000000000000e+00  3.2898699867308935e+01 -6.4920357220050258e-04 0.0000000000000000e+00  3.2900763689925469e+01 3.7645622704696971e-04 0.0000000000000000e+00  3.2902360225175109e+01 1.0372742599913469e-03 0.0000000000000000e+00  3.2903321157188955e+01 1.5091336034401990e-03 0.0000000000000000e+00  3.2903974246313943e+01 1.7570242646512315e-03 0.0000000000000000e+00  3.2904358202532769e+01 1.9121077812549838e-03 0.0000000000000000e+00  3.2904637182347450e+01 1.9974897828644207e-03 0.0000000000000000e+00  3.2904828323090349e+01 2.0544524876352954e-03 0.0000000000000000e+00  3.2904981222675616e+01 2.0965096638282518e-03 0.0000000000000000e+00  3.2905099597730427e+01 2.1246475893251433e-03 0.0000000000000000e+00  3.2905193277403832e+01 2.1483164411056194e-03 0.0000000000000000e+00  3.2905268704298493e+01 2.1586009221956732e-03 0.0000000000000000e+00  3.2905328752694409e+01 2.1656671446073014e-03 0.0000000000000000e+00  3.2905383993061008e+01 2.1633515549814475e-03 0.0000000000000000e+00  3.2905434862601183e+01 2.1619896043560960e-03 0.0000000000000000e+00  3.2905488603975684e+01 2.1569953555651005e-03 0.0000000000000000e+00  3.2905542547349050e+01 2.1552379405386196e-03 0.0000000000000000e+00  3.2905601038701747e+01 2.1530621689324512e-03 0.0000000000000000e+00  3.2905661668585672e+01 2.1557477618598872e-03 0.0000000000000000e+00  3.2905727033445146e+01 2.1617429786049752e-03 0.0000000000000000e+00  3.2905793549874844e+01 2.1748864612921755e-03 0.0000000000000000e+00  3.2905859816889773e+01 2.1932850887623847e-03 0.0000000000000000e+00  3.2905919799451524e+01 2.2174538922934287e-03 0.0000000000000000e+00  3.2905969806247477e+01 2.2437963997303193e-03 0.0000000000000000e+00  3.2906004817402533e+01 2.2705779887928720e-03 0.0000000000000000e+00  3.2906023286855657e+01 2.2943540024757555e-03 0.0000000000000000e+00  3.2906024336212255e+01 2.3138145409657032e-03 0.0000000000000000e+00  3.2906010076811320e+01 2.3274307147154167e-03 0.0000000000000000e+00  3.2905983098196678e+01 2.3354347457702029e-03 0.0000000000000000e+00  3.2905947344062007e+01 2.3380912753751199e-03 0.0000000000000000e+00  3.2905906301912424e+01 2.3365931648630088e-03 0.0000000000000000e+00  3.2905863463306055e+01 2.3319290890313113e-03 0.0000000000000000e+00  3.2905821364901492e+01 2.3253381701923378e-03 0.0000000000000000e+00  3.2905782020604974e+01 2.3177014936745055e-03 0.0000000000000000e+00  3.2905746566716815e+01 2.3098385652951868e-03 0.0000000000000000e+00  3.2905715659011058e+01 2.3022415553820628e-03 0.0000000000000000e+00  3.2905689402173692e+01 2.2952845703590554e-03 0.0000000000000000e+00  3.2905667642105655e+01 2.2891283753165882e-03 0.0000000000000000e+00  3.2905649977707391e+01 2.2838560903898166e-03 0.0000000000000000e+00  3.2905635935118070e+01 2.2794438543520070e-03 0.0000000000000000e+00  3.2905624982020164e+01 2.2758380861242367e-03 0.0000000000000000e+00  3.2905616613051848e+01 2.2729460133904681e-03 0.0000000000000000e+00  3.2905610350667985e+01 2.2706741339991545e-03 0.0000000000000000e+00  3.2905605778125420e+01 2.2689231222895300e-03 0.0000000000000000e+00  3.2905602531412271e+01 2.2676041911492313e-03 0.0000000000000000e+00  3.2905600307056226e+01 2.2666348419877447e-03 0.0000000000000000e+00  3.2905598851979683e+01 2.2659445407614887e-03 0.0000000000000000e+00  3.2905597961982515e+01 2.2654714149819401e-03 0.0000000000000000e+00  3.2905597473213298e+01 2.2651637327380882e-03 0.0000000000000000e+00  3.2905597258319823e+01 2.2649776886054314e-03 0.0000000000000000e+00  3.2905597220019473e+01 2.2648771096159021e-03 0.0000000000000000e+00  3.2905597287117182e+01 2.2648307044496403e-03 0.0000000000000000e+00  3.2905597409792030e+01 2.2648083881827230e-03 0.0000000000000000e+00  3.2905597556368619e+01 2.2647679915366124e-03 0.0000000000000000e+00  3.2905597711476588e+01 2.2646246782510823e-03 0.0000000000000000e+00  3.2905597882022974e+01 2.2641385468249058e-03 0.0000000000000000e+00  3.2905598121138034e+01 2.2626657655925001e-03 0.0000000000000000e+00  3.2905598580894221e+01 2.2584142758971556e-03 0.0000000000000000e+00  3.2905599660018467e+01 2.2463958701326231e-03 0.0000000000000000e+00  3.2905602808739502e+01 2.2126871457011478e-03 0.0000000000000000e+00  3.2905613532749861e+01 2.1209117764082754e-03 0.0000000000000000e+00  3.2905653278011926e+01 1.8823254237005586e-03 0.0000000000000000e+00  3.2905799877596294e+01 1.2839155138575115e-03 0.0000000000000000e+00  3.2906394746555435e+01 -4.8027007503633687e-05 0.0000000000000000e+00  3.2906426795774848e+01 -4.0020876411897242e-03 0.0000000000000000e+00  3.2893893949109611e+01 0.0000000000000000e+00 0.0000000000000000e+00  3.7464971152128967e+01 0.0000000000000000e+00 0.0000000000000000e+00  3.7415663602367232e+01 -3.4000260815481825e-02 0.0000000000000000e+00  3.7425242012498380e+01 -1.1454254403264156e-03 0.0000000000000000e+00  3.7424600097084344e+01 -3.9696645177290883e-03 0.0000000000000000e+00  3.7446179937609138e+01 5.5691073749491895e-04 0.0000000000000000e+00  3.7445836826368200e+01 2.5008878370343947e-03 0.0000000000000000e+00  3.7452954415870764e+01 -3.7983234774719500e-04 0.0000000000000000e+00  3.7447045253327168e+01 1.1016537824563427e-03 0.0000000000000000e+00  3.7445233630803109e+01 -1.1998739148775962e-03 0.0000000000000000e+00  3.7437635518800562e+01 -5.7586086165086901e-04 0.0000000000000000e+00  3.7433289883904010e+01 -1.3897236256229756e-03 0.0000000000000000e+00  3.7426683857139608e+01 -1.2249744807249551e-03 0.0000000000000000e+00  3.7421783181483683e+01 -2.0893539388377848e-03 0.0000000000000000e+00  3.7416223030654052e+01 -2.1421022344867966e-03 0.0000000000000000e+00  3.7412363136179145e+01 -1.9631896273399310e-03 0.0000000000000000e+00  3.7409074306038356e+01 -1.1366397929358034e-03 0.0000000000000000e+00  3.7407177456558117e+01 -3.4164685618145936e-04 0.0000000000000000e+00  3.7405790571626021e+01 4.1720317504284241e-04 0.0000000000000000e+00  3.7405072847296744e+01 9.0590826656796266e-04 0.0000000000000000e+00  3.7404527832078863e+01 1.2370346414680019e-03 0.0000000000000000e+00  3.7404218339841599e+01 1.4146075390029415e-03 0.0000000000000000e+00  3.7403949213349499e+01 1.5264220384437613e-03 0.0000000000000000e+00  3.7403766402515679e+01 1.5912879380764750e-03 0.0000000000000000e+00  3.7403603038568512e+01 1.6371048355191891e-03 0.0000000000000000e+00  3.7403479160198771e+01 1.6711981191975000e-03 0.0000000000000000e+00  3.7403370544309318e+01 1.6955596521316708e-03 0.0000000000000000e+00  3.7403277954429079e+01 1.7133099313809920e-03 0.0000000000000000e+00  3.7403191179117940e+01 1.7209951184053440e-03 0.0000000000000000e+00  3.7403104738926608e+01 1.7241793424470750e-03 0.0000000000000000e+00  3.7403017188007802e+01 1.7218656244519155e-03 0.0000000000000000e+00  3.7402924993210647e+01 1.7197012624243987e-03 0.0000000000000000e+00  3.7402831132929244e+01 1.7161214105329318e-03 0.0000000000000000e+00  3.7402734018471584e+01 1.7143868273897264e-03 0.0000000000000000e+00  3.7402638335351135e+01 1.7133880568000483e-03 0.0000000000000000e+00  3.7402545449091647e+01 1.7163573057172058e-03 0.0000000000000000e+00  3.7402462221827392e+01 1.7234918631782025e-03 0.0000000000000000e+00  3.7402392527098321e+01 1.7369522577114036e-03 0.0000000000000000e+00  3.7402342738665389e+01 1.7555945855013283e-03 0.0000000000000000e+00  3.7402314985640139e+01 1.7786867127878297e-03 0.0000000000000000e+00  3.7402311176069929e+01 1.8032495443726869e-03 0