<?xml version="1.0"?>
<VTKFile type="UnstructuredGrid"  version="0.1"  >
<UnstructuredGrid>
<Piece  NumberOfPoints="1369" NumberOfCells="2560">
<Points>
<DataArray  type="Float64"  NumberOfComponents="3"  format="ascii">0 0 0  0.75 0 0  1.5 0 0  2.25 0 0  3 0 0  3.75 0 0  4.5 0 0  5.25 0 0  6 0 0  6.75 0 0  7.5 0 0  8.25 0 0  9 0 0  9.75 0 0  10.5 0 0  11.25 0 0  12 0 0  12.75 0 0  13.5 0 0  14.25 0 0  15 0 0  15.75 0 0  16.5 0 0  17.25 0 0  18 0 0  18.75 0 0  19.5 0 0  20.25 0 0  21 0 0  21.75 0 0  22.5 0 0  23.25 0 0  24 0 0  24.75 0 0  25.5 0 0  26.25 0 0  27 0 0  27.75 0 0  28.5 0 0  29.25 0 0  30 0 0  30.75 0 0  31.5 0 0  32.25 0 0  33 0 0  33.75 0 0  34.5 0 0  35.25 0 0  36 0 0  36.75 0 0  37.5 0 0  38.25 0 0  39 0 0  39.75 0 0  40.5 0 0  41.25 0 0  42 0 0  42.75 0 0  43.5 0 0  44.25 0 0  45 0 0  45.75 0 0  46.5 0 0  47.25 0 0  48 0 0  48.75 0 0  49.5 0 0  50.25 0 0  51 0 0  51.75 0 0  52.5 0 0  53.25 0 0  54 0 0  54.75 0 0  55.5 0 0  56.25 0 0  57 0 0  57.75 0 0  58.5 0 0  59.25 0 0  60 0 0  0 0.5 0  0.75 0.5 0  1.5 0.5 0  2.25 0.5 0  3 0.5 0  3.75 0.5 0  4.5 0.5 0  5.25 0.5 0  6 0.5 0  6.75 0.5 0  7.5 0.5 0  8.25 0.5 0  9 0.5 0  9.75 0.5 0  10.5 0.5 0  11.25 0.5 0  12 0.5 0  12.75 0.5 0  13.5 0.5 0  14.25 0.5 0  15 0.5 0  15.75 0.5 0  16.5 0.5 0  17.25 0.5 0  18 0.5 0  18.75 0.5 0  19.5 0.5 0  20.25 0.5 0  21 0.5 0  21.75 0.5 0  22.5 0.5 0  23.25 0.5 0  24 0.5 0  24.75 0.5 0  25.5 0.5 0  26.25 0.5 0  27 0.5 0  27.75 0.5 0  28.5 0.5 0  29.25 0.5 0  30 0.5 0  30.75 0.5 0  31.5 0.5 0  32.25 0.5 0  33 0.5 0  33.75 0.5 0  34.5 0.5 0  35.25 0.5 0  36 0.5 0  36.75 0.5 0  37.5 0.5 0  38.25 0.5 0  39 0.5 0  39.75 0.5 0  40.5 0.5 0  41.25 0.5 0  42 0.5 0  42.75 0.5 0  43.5 0.5 0  44.25 0.5 0  45 0.5 0  45.75 0.5 0  46.5 0.5 0  47.25 0.5 0  48 0.5 0  48.75 0.5 0  49.5 0.5 0  50.25 0.5 0  51 0.5 0  51.75 0.5 0  52.5 0.5 0  53.25 0.5 0  54 0.5 0  54.75 0.5 0  55.5 0.5 0  56.25 0.5 0  57 0.5 0  57.75 0.5 0  58.5 0.5 0  59.25 0.5 0  60 0.5 0  0 1 0  0.75 1 0  1.5 1 0  2.25 1 0  3 1 0  3.75 1 0  4.5 1 0  5.25 1 0  6 1 0  6.75 1 0  7.5 1 0  8.25 1 0  9 1 0  9.75 1 0  10.5 1 0  11.25 1 0  12 1 0  12.75 1 0  13.5 1 0  14.25 1 0  15 1 0  15.75 1 0  16.5 1 0  17.25 1 0  18 1 0  18.75 1 0  19.5 1 0  20.25 1 0  21 1 0  21.75 1 0  22.5 1 0  23.25 1 0  24 1 0  24.75 1 0  25.5 1 0  26.25 1 0  27 1 0  27.75 1 0  28.5 1 0  29.25 1 0  30 1 0  30.75 1 0  31.5 1 0  32.25 1 0  33 1 0  33.75 1 0  34.5 1 0  35.25 1 0  36 1 0  36.75 1 0  37.5 1 0  38.25 1 0  39 1 0  39.75 1 0  40.5 1 0  41.25 1 0  42 1 0  42.75 1 0  43.5 1 0  44.25 1 0  45 1 0  45.75 1 0  46.5 1 0  47.25 1 0  48 1 0  48.75 1 0  49.5 1 0  50.25 1 0  51 1 0  51.75 1 0  52.5 1 0  53.25 1 0  54 1 0  54.75 1 0  55.5 1 0  56.25 1 0  57 1 0  57.75 1 0  58.5 1 0  59.25 1 0  60 1 0  0 1.5 0  0.75 1.5 0  1.5 1.5 0  2.25 1.5 0  3 1.5 0  3.75 1.5 0  4.5 1.5 0  5.25 1.5 0  6 1.5 0  6.75 1.5 0  7.5 1.5 0  8.25 1.5 0  9 1.5 0  9.75 1.5 0  10.5 1.5 0  11.25 1.5 0  12 1.5 0  12.75 1.5 0  13.5 1.5 0  14.25 1.5 0  15 1.5 0  15.75 1.5 0  16.5 1.5 0  17.25 1.5 0  18 1.5 0  18.75 1.5 0  19.5 1.5 0  20.25 1.5 0  21 1.5 0  21.75 1.5 0  22.5 1.5 0  23.25 1.5 0  24 1.5 0  24.75 1.5 0  25.5 1.5 0  26.25 1.5 0  27 1.5 0  27.75 1.5 0  28.5 1.5 0  29.25 1.5 0  30 1.5 0  30.75 1.5 0  31.5 1.5 0  32.25 1.5 0  33 1.5 0  33.75 1.5 0  34.5 1.5 0  35.25 1.5 0  36 1.5 0  36.75 1.5 0  37.5 1.5 0  38.25 1.5 0  39 1.5 0  39.75 1.5 0  40.5 1.5 0  41.25 1.5 0  42 1.5 0  42.75 1.5 0  43.5 1.5 0  44.25 1.5 0  45 1.5 0  45.75 1.5 0  46.5 1.5 0  47.25 1.5 0  48 1.5 0  48.75 1.5 0  49.5 1.5 0  50.25 1.5 0  51 1.5 0  51.75 1.5 0  52.5 1.5 0  53.25 1.5 0  54 1.5 0  54.75 1.5 0  55.5 1.5 0  56.25 1.5 0  57 1.5 0  57.75 1.5 0  58.5 1.5 0  59.25 1.5 0  60 1.5 0  0 2 0  0.75 2 0  1.5 2 0  2.25 2 0  3 2 0  3.75 2 0  4.5 2 0  5.25 2 0  6 2 0  6.75 2 0  7.5 2 0  8.25 2 0  9 2 0  9.75 2 0  10.5 2 0  11.25 2 0  12 2 0  12.75 2 0  13.5 2 0  14.25 2 0  15 2 0  15.75 2 0  16.5 2 0  17.25 2 0  18 2 0  18.75 2 0  19.5 2 0  20.25 2 0  21 2 0  21.75 2 0  22.5 2 0  23.25 2 0  24 2 0  24.75 2 0  25.5 2 0  26.25 2 0  27 2 0  27.75 2 0  28.5 2 0  29.25 2 0  30 2 0  30.75 2 0  31.5 2 0  32.25 2 0  33 2 0  33.75 2 0  34.5 2 0  35.25 2 0  36 2 0  36.75 2 0  37.5 2 0  38.25 2 0  39 2 0  39.75 2 0  40.5 2 0  41.25 2 0  42 2 0  42.75 2 0  43.5 2 0  44.25 2 0  45 2 0  45.75 2 0  46.5 2 0  47.25 2 0  48 2 0  48.75 2 0  49.5 2 0  50.25 2 0  51 2 0  51.75 2 0  52.5 2 0  53.25 2 0  54 2 0  54.75 2 0  55.5 2 0  56.25 2 0  57 2 0  57.75 2 0  58.5 2 0  59.25 2 0  60 2 0  0 2.5 0  0.75 2.5 0  1.5 2.5 0  2.25 2.5 0  3 2.5 0  3.75 2.5 0  4.5 2.5 0  5.25 2.5 0  6 2.5 0  6.75 2.5 0  7.5 2.5 0  8.25 2.5 0  9 2.5 0  9.75 2.5 0  10.5 2.5 0  11.25 2.5 0  12 2.5 0  12.75 2.5 0  13.5 2.5 0  14.25 2.5 0  15 2.5 0  15.75 2.5 0  16.5 2.5 0  17.25 2.5 0  18 2.5 0  18.75 2.5 0  19.5 2.5 0  20.25 2.5 0  21 2.5 0  21.75 2.5 0  22.5 2.5 0  23.25 2.5 0  24 2.5 0  24.75 2.5 0  25.5 2.5 0  26.25 2.5 0  27 2.5 0  27.75 2.5 0  28.5 2.5 0  29.25 2.5 0  30 2.5 0  30.75 2.5 0  31.5 2.5 0  32.25 2.5 0  33 2.5 0  33.75 2.5 0  34.5 2.5 0  35.25 2.5 0  36 2.5 0  36.75 2.5 0  37.5 2.5 0  38.25 2.5 0  39 2.5 0  39.75 2.5 0  40.5 2.5 0  41.25 2.5 0  42 2.5 0  42.75 2.5 0  43.5 2.5 0  44.25 2.5 0  45 2.5 0  45.75 2.5 0  46.5 2.5 0  47.25 2.5 0  48 2.5 0  48.75 2.5 0  49.5 2.5 0  50.25 2.5 0  51 2.5 0  51.75 2.5 0  52.5 2.5 0  53.25 2.5 0  54 2.5 0  54.75 2.5 0  55.5 2.5 0  56.25 2.5 0  57 2.5 0  57.75 2.5 0  58.5 2.5 0  59.25 2.5 0  60 2.5 0  0 3 0  0.75 3 0  1.5 3 0  2.25 3 0  3 3 0  3.75 3 0  4.5 3 0  5.25 3 0  6 3 0  6.75 3 0  7.5 3 0  8.25 3 0  9 3 0  9.75 3 0  10.5 3 0  11.25 3 0  12 3 0  12.75 3 0  13.5 3 0  14.25 3 0  15 3 0  15.75 3 0  16.5 3 0  17.25 3 0  18 3 0  18.75 3 0  19.5 3 0  20.25 3 0  21 3 0  21.75 3 0  22.5 3 0  23.25 3 0  24 3 0  24.75 3 0  25.5 3 0  26.25 3 0  27 3 0  27.75 3 0  28.5 3 0  29.25 3 0  30 3 0  30.75 3 0  31.5 3 0  32.25 3 0  33 3 0  33.75 3 0  34.5 3 0  35.25 3 0  36 3 0  36.75 3 0  37.5 3 0  38.25 3 0  39 3 0  39.75 3 0  40.5 3 0  41.25 3 0  42 3 0  42.75 3 0  43.5 3 0  44.25 3 0  45 3 0  45.75 3 0  46.5 3 0  47.25 3 0  48 3 0  48.75 3 0  49.5 3 0  50.25 3 0  51 3 0  51.75 3 0  52.5 3 0  53.25 3 0  54 3 0  54.75 3 0  55.5 3 0  56.25 3 0  57 3 0  57.75 3 0  58.5 3 0  59.25 3 0  60 3 0  0 3.5 0  0.75 3.5 0  1.5 3.5 0  2.25 3.5 0  3 3.5 0  3.75 3.5 0  4.5 3.5 0  5.25 3.5 0  6 3.5 0  6.75 3.5 0  7.5 3.5 0  8.25 3.5 0  9 3.5 0  9.75 3.5 0  10.5 3.5 0  11.25 3.5 0  12 3.5 0  12.75 3.5 0  13.5 3.5 0  14.25 3.5 0  15 3.5 0  15.75 3.5 0  16.5 3.5 0  17.25 3.5 0  18 3.5 0  18.75 3.5 0  19.5 3.5 0  20.25 3.5 0  21 3.5 0  21.75 3.5 0  22.5 3.5 0  23.25 3.5 0  24 3.5 0  24.75 3.5 0  25.5 3.5 0  26.25 3.5 0  27 3.5 0  27.75 3.5 0  28.5 3.5 0  29.25 3.5 0  30 3.5 0  30.75 3.5 0  31.5 3.5 0  32.25 3.5 0  33 3.5 0  33.75 3.5 0  34.5 3.5 0  35.25 3.5 0  36 3.5 0  36.75 3.5 0  37.5 3.5 0  38.25 3.5 0  39 3.5 0  39.75 3.5 0  40.5 3.5 0  41.25 3.5 0  42 3.5 0  42.75 3.5 0  43.5 3.5 0  44.25 3.5 0  45 3.5 0  45.75 3.5 0  46.5 3.5 0  47.25 3.5 0  48 3.5 0  48.75 3.5 0  49.5 3.5 0  50.25 3.5 0  51 3.5 0  51.75 3.5 0  52.5 3.5 0  53.25 3.5 0  54 3.5 0  54.75 3.5 0  55.5 3.5 0  56.25 3.5 0  57 3.5 0  57.75 3.5 0  58.5 3.5 0  59.25 3.5 0  60 3.5 0  0 4 0  0.75 4 0  1.5 4 0  2.25 4 0  3 4 0  3.75 4 0  4.5 4 0  5.25 4 0  6 4 0  6.75 4 0  7.5 4 0  8.25 4 0  9 4 0  9.75 4 0  10.5 4 0  11.25 4 0  12 4 0  12.75 4 0  13.5 4 0  14.25 4 0  15 4 0  15.75 4 0  16.5 4 0  17.25 4 0  18 4 0  18.75 4 0  19.5 4 0  20.25 4 0  21 4 0  21.75 4 0  22.5 4 0  23.25 4 0  24 4 0  24.75 4 0  25.5 4 0  26.25 4 0  27 4 0  27.75 4 0  28.5 4 0  29.25 4 0  30 4 0  30.75 4 0  31.5 4 0  32.25 4 0  33 4 0  33.75 4 0  34.5 4 0  35.25 4 0  36 4 0  36.75 4 0  37.5 4 0  38.25 4 0  39 4 0  39.75 4 0  40.5 4 0  41.25 4 0  42 4 0  42.75 4 0  43.5 4 0  44.25 4 0  45 4 0  45.75 4 0  46.5 4 0  47.25 4 0  48 4 0  48.75 4 0  49.5 4 0  50.25 4 0  51 4 0  51.75 4 0  52.5 4 0  53.25 4 0  54 4 0  54.75 4 0  55.5 4 0  56.25 4 0  57 4 0  57.75 4 0  58.5 4 0  59.25 4 0  60 4 0  0.375 0.25 0  1.125 0.25 0  1.875 0.25 0  2.625 0.25 0  3.375 0.25 0  4.125 0.25 0  4.875 0.25 0  5.625 0.25 0  6.375 0.25 0  7.125 0.25 0  7.875 0.25 0  8.625 0.25 0  9.375 0.25 0  10.125 0.25 0  10.875 0.25 0  11.625 0.25 0  12.375 0.25 0  13.125 0.25 0  13.875 0.25 0  14.625 0.25 0  15.375 0.25 0  16.125 0.25 0  16.875 0.25 0  17.625 0.25 0  18.375 0.25 0  19.125 0.25 0  19.875 0.25 0  20.625 0.25 0  21.375 0.25 0  22.125 0.25 0  22.875 0.25 0  23.625 0.25 0  24.375 0.25 0  25.125 0.25 0  25.875 0.25 0  26.625 0.25 0  27.375 0.25 0  28.125 0.25 0  28.875 0.25 0  29.625 0.25 0  30.375 0.25 0  31.125 0.25 0  31.875 0.25 0  32.625 0.25 0  33.375 0.25 0  34.125 0.25 0  34.875 0.25 0  35.625 0.25 0  36.375 0.25 0  37.125 0.25 0  37.875 0.25 0  38.625 0.25 0  39.375 0.25 0  40.125 0.25 0  40.875 0.25 0  41.625 0.25 0  42.375 0.25 0  43.125 0.25 0  43.875 0.25 0  44.625 0.25 0  45.375 0.25 0  46.125 0.25 0  46.875 0.25 0  47.625 0.25 0  48.375 0.25 0  49.125 0.25 0  49.875 0.25 0  50.625 0.25 0  51.375 0.25 0  52.125 0.25 0  52.875 0.25 0  53.625 0.25 0  54.375 0.25 0  55.125 0.25 0  55.875 0.25 0  56.625 0.25 0  57.375 0.25 0  58.125 0.25 0  58.875 0.25 0  59.625 0.25 0  0.375 0.75 0  1.125 0.75 0  1.875 0.75 0  2.625 0.75 0  3.375 0.75 0  4.125 0.75 0  4.875 0.75 0  5.625 0.75 0  6.375 0.75 0  7.125 0.75 0  7.875 0.75 0  8.625 0.75 0  9.375 0.75 0  10.125 0.75 0  10.875 0.75 0  11.625 0.75 0  12.375 0.75 0  13.125 0.75 0  13.875 0.75 0  14.625 0.75 0  15.375 0.75 0  16.125 0.75 0  16.875 0.75 0  17.625 0.75 0  18.375 0.75 0  19.125 0.75 0  19.875 0.75 0  20.625 0.75 0  21.375 0.75 0  22.125 0.75 0  22.875 0.75 0  23.625 0.75 0  24.375 0.75 0  25.125 0.75 0  25.875 0.75 0  26.625 0.75 0  27.375 0.75 0  28.125 0.75 0  28.875 0.75 0  29.625 0.75 0  30.375 0.75 0  31.125 0.75 0  31.875 0.75 0  32.625 0.75 0  33.375 0.75 0  34.125 0.75 0  34.875 0.75 0  35.625 0.75 0  36.375 0.75 0  37.125 0.75 0  37.875 0.75 0  38.625 0.75 0  39.375 0.75 0  40.125 0.75 0  40
[...]
<PointData  Vectors="f_8-0"> 
<DataArray  type="Float64"  Name="f_8-0"  NumberOfComponents="3" format="ascii">0.0000000000000000e+00 0.0000000000000000e+00 0.0000000000000000e+00  0.0000000000000000e+00 0.0000000000000000e+00 0.0000000000000000e+00  0.0000000000000000e+00 0.0000000000000000e+00 0.0000000000000000e+00  0.0000000000000000e+00 0.0000000000000000e+00 0.0000000000000000e+00  0.0000000000000000e+00 0.0000000000000000e+00 0.0000000000000000e+00  0.0000000000000000e+00 0.0000000000000000e+00 0.0000000000000000e+00  0.0000000000000000e+00 0.0000000000000000e+00 0.0000000000000000e+00  0.0000000000000000e+00 0.0000000000000000e+00 0.0000000000000000e+00  0.0000000000000000e+00 0.0000000000000000e+00 0.0000000000000000e+00  0.0000000000000000e+00 0.0000000000000000e+00 0.0000000000000000e+00  0.0000000000000000e+00 0.0000000000000000e+00 0.0000000000000000e+00  0.0000000000000000e+00 0.0000000000000000e+00 0.0000000000000000e+00  0.0000000000000000e+00 0.0000000000000000e+00 0.0000000000000000e+00  0.0000000000000000e+00 0.0000000000000000e+00 0.0000000000000000e+00  0.0000000000000000e+00 0.0000000000000000e+00 0.0000000000000000e+00  0.0000000000000000e+00 0.0000000000000000e+00 0.0000000000000000e+00  0.0000000000000000e+00 0.0000000000000000e+00 0.0000000000000000e+00  0.0000000000000000e+00 0.0000000000000000e+00 0.0000000000000000e+00  0.0000000000000000e+00 0.0000000000000000e+00 0.0000000000000000e+00  0.0000000000000000e+00 0.0000000000000000e+00 0.0000000000000000e+00  0.0000000000000000e+00 0.0000000000000000e+00 0.0000000000000000e+00  0.0000000000000000e+00 0.0000000000000000e+00 0.0000000000000000e+00  0.0000000000000000e+00 0.0000000000000000e+00 0.0000000000000000e+00  0.0000000000000000e+00 0.0000000000000000e+00 0.0000000000000000e+00  0.0000000000000000e+00 0.0000000000000000e+00 0.0000000000000000e+00  0.0000000000000000e+00 0.0000000000000000e+00 0.0000000000000000e+00  0.0000000000000000e+00 0.0000000000000000e+00 0.0000000000000000e+00  0.0000000000000000e+00 0.0000000000000000e+00 0.0000000000000000e+00  0.0000000000000000e+00 0.0000000000000000e+00 0.0000000000000000e+00  0.0000000000000000e+00 0.0000000000000000e+00 0.0000000000000000e+00  0.0000000000000000e+00 0.0000000000000000e+00 0.0000000000000000e+00  0.0000000000000000e+00 0.0000000000000000e+00 0.0000000000000000e+00  0.0000000000000000e+00 0.0000000000000000e+00 0.0000000000000000e+00  0.0000000000000000e+00 0.0000000000000000e+00 0.0000000000000000e+00  0.0000000000000000e+00 0.0000000000000000e+00 0.0000000000000000e+00  0.0000000000000000e+00 0.0000000000000000e+00 0.0000000000000000e+00  0.0000000000000000e+00 0.0000000000000000e+00 0.0000000000000000e+00  0.0000000000000000e+00 0.0000000000000000e+00 0.0000000000000000e+00  0.0000000000000000e+00 0.0000000000000000e+00 0.0000000000000000e+00  0.0000000000000000e+00 0.0000000000000000e+00 0.0000000000000000e+00  0.0000000000000000e+00 0.0000000000000000e+00 0.0000000000000000e+00  0.0000000000000000e+00 0.0000000000000000e+00 0.0000000000000000e+00  0.0000000000000000e+00 0.0000000000000000e+00 0.0000000000000000e+00  0.0000000000000000e+00 0.0000000000000000e+00 0.0000000000000000e+00  0.0000000000000000e+00 0.0000000000000000e+00 0.0000000000000000e+00  0.0000000000000000e+00 0.0000000000000000e+00 0.0000000000000000e+00  0.0000000000000000e+00 0.0000000000000000e+00 0.0000000000000000e+00  0.0000000000000000e+00 0.0000000000000000e+00 0.0000000000000000e+00  0.0000000000000000e+00 0.0000000000000000e+00 0.0000000000000000e+00  0.0000000000000000e+00 0.0000000000000000e+00 0.0000000000000000e+00  0.0000000000000000e+00 0.0000000000000000e+00 0.0000000000000000e+00  0.0000000000000000e+00 0.0000000000000000e+00 0.0000000000000000e+00  0.0000000000000000e+00 0.0000000000000000e+00 0.0000000000000000e+00  0.0000000000000000e+00 0.0000000000000000e+00 0.0000000000000000e+00  0.0000000000000000e+00 0.0000000000000000e+00 0.0000000000000000e+00  0.0000000000000000e+00 0.0000000000000000e+00 0.0000000000000000e+00  0.0000000000000000e+00 0.0000000000000000e+00 0.0000000000000000e+00  0.0000000000000000e+00 0.0000000000000000e+00 0.0000000000000000e+00  0.0000000000000000e+00 0.0000000000000000e+00 0.0000000000000000e+00  0.0000000000000000e+00 0.0000000000000000e+00 0.0000000000000000e+00  0.0000000000000000e+00 0.0000000000000000e+00 0.0000000000000000e+00  0.0000000000000000e+00 0.0000000000000000e+00 0.0000000000000000e+00  0.0000000000000000e+00 0.0000000000000000e+00 0.0000000000000000e+00  0.0000000000000000e+00 0.0000000000000000e+00 0.0000000000000000e+00  0.0000000000000000e+00 0.0000000000000000e+00 0.0000000000000000e+00  0.0000000000000000e+00 0.0000000000000000e+00 0.0000000000000000e+00  0.0000000000000000e+00 0.0000000000000000e+00 0.0000000000000000e+00  0.0000000000000000e+00 0.0000000000000000e+00 0.0000000000000000e+00  0.0000000000000000e+00 0.0000000000000000e+00 0.0000000000000000e+00  0.0000000000000000e+00 0.0000000000000000e+00 0.0000000000000000e+00  0.0000000000000000e+00 0.0000000000000000e+00 0.0000000000000000e+00  0.0000000000000000e+00 0.0000000000000000e+00 0.0000000000000000e+00  0.0000000000000000e+00 0.0000000000000000e+00 0.0000000000000000e+00  0.0000000000000000e+00 0.0000000000000000e+00 0.0000000000000000e+00  0.0000000000000000e+00 0.0000000000000000e+00 0.0000000000000000e+00  0.0000000000000000e+00 0.0000000000000000e+00 0.0000000000000000e+00  0.0000000000000000e+00 0.0000000000000000e+00 0.0000000000000000e+00  0.0000000000000000e+00 0.0000000000000000e+00 0.0000000000000000e+00  0.0000000000000000e+00 0.0000000000000000e+00 0.0000000000000000e+00  0.0000000000000000e+00 0.0000000000000000e+00 0.0000000000000000e+00  0.0000000000000000e+00 0.0000000000000000e+00 0.0000000000000000e+00  1.9268998020682053e+00 0.0000000000000000e+00 0.0000000000000000e+00  1.8872007069521064e+00 -4.7686678626778299e-02 0.0000000000000000e+00  1.8732189749884705e+00 -9.2715491981857946e-03 0.0000000000000000e+00  1.8627643826704037e+00 -7.4567037793782463e-04 0.0000000000000000e+00  1.8508561551816631e+00 2.3314075784188371e-04 0.0000000000000000e+00  1.8400352465449941e+00 -2.9357066218471602e-04 0.0000000000000000e+00  1.8345428503353098e+00 -2.4220663798957369e-03 0.0000000000000000e+00  1.8318643517330759e+00 -3.4818136337371789e-03 0.0000000000000000e+00  1.8323668336399295e+00 -4.5499596557083922e-03 0.0000000000000000e+00  1.8340292282965471e+00 -4.9017385720154108e-03 0.0000000000000000e+00  1.8369239379070079e+00 -5.2741577999329799e-03 0.0000000000000000e+00  1.8400019531178968e+00 -5.1824793670145119e-03 0.0000000000000000e+00  1.8428593324818312e+00 -4.9549215939907187e-03 0.0000000000000000e+00  1.8448518053906906e+00 -4.5836996004574963e-03 0.0000000000000000e+00  1.8461043603179896e+00 -4.3307116723601798e-03 0.0000000000000000e+00  1.8467376583039397e+00 -4.1491725664503706e-03 0.0000000000000000e+00  1.8470542516064870e+00 -4.0724612782102312e-03 0.0000000000000000e+00  1.8471838181100075e+00 -4.0285740933378011e-03 0.0000000000000000e+00  1.8472482541331368e+00 -4.0169058954836658e-03 0.0000000000000000e+00  1.8472737798486385e+00 -4.0079770820338461e-03 0.0000000000000000e+00  1.8472902046048369e+00 -4.0067197090748298e-03 0.0000000000000000e+00  1.8472973167210918e+00 -4.0041433401118683e-03 0.0000000000000000e+00  1.8473028394642961e+00 -4.0039298070269390e-03 0.0000000000000000e+00  1.8473052544581017e+00 -4.0029802484100605e-03 0.0000000000000000e+00  1.8473071963454002e+00 -4.0029200371860764e-03 0.0000000000000000e+00  1.8473080248013267e+00 -4.0025766284843712e-03 0.0000000000000000e+00  1.8473086818853417e+00 -4.0025560632076457e-03 0.0000000000000000e+00  1.8473089714307076e+00 -4.0024433525139300e-03 0.0000000000000000e+00  1.8473091829716626e+00 -4.0024303436908930e-03 0.0000000000000000e+00  1.8473092927162309e+00 -4.0023996742472260e-03 0.0000000000000000e+00  1.8473093558910987e+00 -4.0023884125374625e-03 0.0000000000000000e+00  1.8473094026392431e+00 -4.0023841113396418e-03 0.0000000000000000e+00  1.8473094187082413e+00 -4.0023751332003300e-03 0.0000000000000000e+00  1.8473094407050423e+00 -4.0023776421586913e-03 0.0000000000000000e+00  1.8473094431042112e+00 -4.0023713840061440e-03 0.0000000000000000e+00  1.8473094540313926e+00 -4.0023745210018740e-03 0.0000000000000000e+00  1.8473094532448646e+00 -4.0023706176607462e-03 0.0000000000000000e+00  1.8473094587479129e+00 -4.0023728806985910e-03 0.0000000000000000e+00  1.8473094577131124e+00 -4.0023706560657563e-03 0.0000000000000000e+00  1.8473094604485778e+00 -4.0023720065823897e-03 0.0000000000000000e+00  1.8473094597669364e+00 -4.0023708267371205e-03 0.0000000000000000e+00  1.8473094610818501e+00 -4.0023715475326340e-03 0.0000000000000000e+00  1.8473094607336746e+00 -4.0023709622843814e-03 0.0000000000000000e+00  1.8473094613607348e+00 -4.0023713137254226e-03 0.0000000000000000e+00  1.8473094612020300e+00 -4.0023710389390796e-03 0.0000000000000000e+00  1.8473094614908123e+00 -4.0023712001784600e-03 0.0000000000000000e+00  1.8473094614301366e+00 -4.0023710772322486e-03 0.0000000000000000e+00  1.8473094615573740e+00 -4.0023711471168571e-03 0.0000000000000000e+00  1.8473094615451275e+00 -4.0023710937941298e-03 0.0000000000000000e+00  1.8473094616080084e+00 -4.0023711217801947e-03 0.0000000000000000e+00  1.8473094616018166e+00 -4.0023711007585085e-03 0.0000000000000000e+00  1.8473094616335193e+00 -4.0023711121515764e-03 0.0000000000000000e+00  1.8473094616357546e+00 -4.0023711034350073e-03 0.0000000000000000e+00  1.8473094616508166e+00 -4.0023711086611497e-03 0.0000000000000000e+00  1.8473094616629919e+00 -4.0023711064672727e-03 0.0000000000000000e+00  1.8473094616829739e+00 -4.0023711151488334e-03 0.0000000000000000e+00  1.8473094617228156e+00 -4.0023711225898352e-03 0.0000000000000000e+00  1.8473094618046590e+00 -4.0023711544973440e-03 0.0000000000000000e+00  1.8473094619807573e+00 -4.0023712012951388e-03 0.0000000000000000e+00  1.8473094623813229e+00 -4.0023713536020845e-03 0.0000000000000000e+00  1.8473094632679301e+00 -4.0023716355251388e-03 0.0000000000000000e+00  1.8473094652522155e+00 -4.0023723292411462e-03 0.0000000000000000e+00  1.8473094696452130e+00 -4.0023737697613190e-03 0.0000000000000000e+00  1.8473094793349949e+00 -4.0023770296945538e-03 0.0000000000000000e+00  1.8473095005751603e+00 -4.0023839991953714e-03 0.0000000000000000e+00  1.8473095469170784e+00 -4.0023993349634530e-03 0.0000000000000000e+00  1.8473096474643400e+00 -4.0024323206498827e-03 0.0000000000000000e+00  1.8473098650402755e+00 -4.0025042491015472e-03 0.0000000000000000e+00  1.8473103350918356e+00 -4.0026604974156069e-03 0.0000000000000000e+00  1.8473113530286991e+00 -4.0030052925607573e-03 0.0000000000000000e+00  1.8473135715980233e+00 -4.0037768511767624e-03 0.0000000000000000e+00  1.8473184741134825e+00 -4.0055500875812045e-03 0.0000000000000000e+00  1.8473295422472382e+00 -4.0097577335367262e-03 0.0000000000000000e+00  1.8473552311007142e+00 -4.0200022264941845e-03 0.0000000000000000e+00  1.8474165576505122e+00 -4.0459543704867134e-03 0.0000000000000000e+00  1.8475672303581667e+00 -4.1089892533675504e-03 0.0000000000000000e+00  1.8479431403504702e+00 -4.2885174454518459e-03 0.0000000000000000e+00  1.8488613791873556e+00 -4.4702049384264158e-03 0.0000000000000000e+00  1.8512399875560925e+00 -5.9427288861758137e-03 0.0000000000000000e+00  1.8532657742857108e+00 1.2223379794641059e-02 0.0000000000000000e+00  1.9283883754427493e+00 0.0000000000000000e+00 0.0000000000000000e+00  1.0980731732631412e+01 0.0000000000000000e+00 0.0000000000000000e+00  1.1012543345606865e+01 2.2888732741992407e-02 0.0000000000000000e+00  1.0987133810374877e+01 8.5080741463652368e-03 0.0000000000000000e+00  1.0987193455070127e+01 1.4530699551997754e-02 0.0000000000000000e+00  1.0982332183537844e+01 1.2293318224559827e-02 0.0000000000000000e+00  1.0983606832318946e+01 8.0846755355290945e-03 0.0000000000000000e+00  1.0982327056550925e+01 4.9147893604487370e-03 0.0000000000000000e+00  1.0982698690745037e+01 1.4914486055455831e-03 0.0000000000000000e+00  1.0982349701206184e+01 -1.1702280042914331e-04 0.0000000000000000e+00  1.0983043147919718e+01 -1.3959410314277310e-03 0.0000000000000000e+00  1.0983503642573003e+01 -2.0965422500383375e-03 0.0000000000000000e+00  1.0985067424421674e+01 -2.5049088979823748e-03 0.0000000000000000e+00  1.0986971495430474e+01 -1.9527622989262531e-03 0.0000000000000000e+00  1.0988947976380841e+01 -1.1420626029900723e-03 0.0000000000000000e+00  1.0990311953570867e+01 -3.1935249869857084e-04 0.0000000000000000e+00  1.0991209924625796e+01 1.9315946544687918e-04 0.0000000000000000e+00  1.0991658400912140e+01 5.0596072488747151e-04 0.0000000000000000e+00  1.0991902419456002e+01 6.3981742070380967e-04 0.0000000000000000e+00  1.0991999728347366e+01 7.0999473244121351e-04 0.0000000000000000e+00  1.0992054629743711e+01 7.3263750207560425e-04 0.0000000000000000e+00  1.0992073666940593e+01 7.4755747176462827e-04 0.0000000000000000e+00  1.0992088119516003e+01 7.5153200635955520e-04 0.0000000000000000e+00  1.0992092800959485e+01 7.5595355920402051e-04 0.0000000000000000e+00  1.0992097615085950e+01 7.5699573681945029e-04 0.0000000000000000e+00  1.0992099031104297e+01 7.5859149998743197e-04 0.0000000000000000e+00  1.0992100755090577e+01 7.5891414966564041e-04 0.0000000000000000e+00  1.0992101198956039e+01 7.5948693926369815e-04 0.0000000000000000e+00  1.0992101804868938e+01 7.5958969757790665e-04 0.0000000000000000e+00  1.0992101949263624e+01 7.5978254599438086e-04 0.0000000000000000e+00  1.0992102152084682e+01 7.5982163478464915e-04 0.0000000000000000e+00  1.0992102207342853e+01 7.5987972702062402e-04 0.0000000000000000e+00  1.0992102269352275e+01 7.5989996219166746e-04 0.0000000000000000e+00  1.0992102296208424e+01 7.5991333736266761e-04 0.0000000000000000e+00  1.0992102311487651e+01 7.5992591579280330e-04 0.0000000000000000e+00  1.0992102326740163e+01 7.5992620379713722e-04 0.0000000000000000e+00  1.0992102328069404e+01 7.5993415333458741e-04 0.0000000000000000e+00  1.0992102337057316e+01 7.5993175467538895e-04 0.0000000000000000e+00  1.0992102335258060e+01 7.5993652258897742e-04 0.0000000000000000e+00  1.0992102340408559e+01 7.5993438556124795e-04 0.0000000000000000e+00  1.0992102338621111e+01 7.5993705984371508e-04 0.0000000000000000e+00  1.0992102341429613e+01 7.5993569474777168e-04 0.0000000000000000e+00  1.0992102340268447e+01 7.5993709939540881e-04 0.0000000000000000e+00  1.0992102341719679e+01 7.5993634984184376e-04 0.0000000000000000e+00  1.0992102341088485e+01 7.5993704646923755e-04 0.0000000000000000e+00  1.0992102341799271e+01 7.5993667731685745e-04 0.0000000000000000e+00  1.0992102341492696e+01 7.5993700275026695e-04 0.0000000000000000e+00  1.0992102341826795e+01 7.5993683381295088e-04 0.0000000000000000e+00  1.0992102341692759e+01 7.5993697998853337e-04 0.0000000000000000e+00  1.0992102341845481e+01 7.5993690888268668e-04 0.0000000000000000e+00  1.0992102341790565e+01 7.5993697150463586e-04 0.0000000000000000e+00  1.0992102341857612e+01 7.5993694353019821e-04 0.0000000000000000e+00  1.0992102341840544e+01 7.5993696847517767e-04 0.0000000000000000e+00  1.0992102341868994e+01 7.5993695705349842e-04 0.0000000000000000e+00  1.0992102341866222e+01 7.5993696658163950e-04 0.0000000000000000e+00  1.0992102341879630e+01 7.5993695957091926e-04 0.0000000000000000e+00  1.0992102341883884e+01 7.5993695423682325e-04 0.0000000000000000e+00  1.0992102341892142e+01 7.5993692890607815e-04 0.0000000000000000e+00  1.0992102341906087e+01 7.5993688248897015e-04 0.0000000000000000e+00  1.0992102341934327e+01 7.5993675867611120e-04 0.0000000000000000e+00  1.0992102341997091e+01 7.5993651251341095e-04 0.0000000000000000e+00  1.0992102342129899e+01 7.5993590748504359e-04 0.0000000000000000e+00  1.0992102342436850e+01 7.5993466603513783e-04 0.0000000000000000e+00  1.0992102343086119e+01 7.5993176653179229e-04 0.0000000000000000e+00  1.0992102344547128e+01 7.5992569679010039e-04 0.0000000000000000e+00  1.0992102347666174e+01 7.5991189980132898e-04 0.0000000000000000e+00  1.0992102354626310e+01 7.5988267260054777e-04 0.0000000000000000e+00  1.0992102369676655e+01 7.5981775681918955e-04 0.0000000000000000e+00  1.0992102402926808e+01 7.5967955048106132e-04 0.0000000000000000e+00  1.0992102473990055e+01 7.5937781894154803e-04 0.0000000000000000e+00  1.0992102623612000e+01 7.5873050348496400e-04 0.0000000000000000e+00  1.0992102928572606e+01 7.5729506658197914e-04 0.0000000000000000e+00  1.0992103567726103e+01 7.5403214319810341e-04 0.0000000000000000e+00  1.0992104970565935e+01 7.4631528191527324e-04 0.0000000000000000e+00  1.0992108153306400e+01 7.2774715895999713e-04 0.0000000000000000e+00  1.0992115700442795e+01 6.8177760583964554e-04 0.0000000000000000e+00  1.0992134453209491e+01 5.6383605188960965e-04 0.0000000000000000e+00  1.0992191976114864e+01 2.6389114519045529e-04 0.0000000000000000e+00  1.0992354549279343e+01 -5.5233022763297873e-04 0.0000000000000000e+00  1.0993111175085502e+01 -2.1675276261766065e-03 0.0000000000000000e+00  1.0995413511410263e+01 -8.5271547487436299e-03 0.0000000000000000e+00  1.0993206333674493e+01 0.0000000000000000e+00 0.0000000000000000e+00  1.4149670904644241e+01 0.0000000000000000e+00 0.0000000000000000e+00  1.4141232375676164e+01 -3.2427867126269510e-03 0.0000000000000000e+00  1.4154340318322266e+01 5.7211934031204861e-03 0.0000000000000000e+00  1.4167800255615566e+01 4.4199680116788990e-03 0.0000000000000000e+00  1.4185702839508613e+01 6.0040149246145119e-03 0.0000000000000000e+00  1.4194608516006261e+01 4.5342533164936440e-03 0.0000000000000000e+00  1.4202229937230651e+01 2.7290546422936036e-03 0.0000000000000000e+00  1.4203914417478384e+01 1.4268228031884061e-03 0.0000000000000000e+00  1.4204538921255052e+01 -7.8122479376183790e-05 0.0000000000000000e+00  1.4202726376201907e+01 -5.2463113075196439e-04 0.0000000000000000e+00  1.4200687618322913e+01 -1.3722221612064807e-03 0.0000000000000000e+00  1.4197609393188891e+01 -1.9520635434696944e-03 0.0000000000000000e+00  1.4195079327719682e+01 -1.9138100154403417e-03 0.0000000000000000e+00  1.4193057438650298e+01 -1.1870610832993521e-03 0.0000000000000000e+00  1.4191949651335914e+01 -4.2433370132187020e-04 0.0000000000000000e+00  1.4191296501575630e+01 1.8768740783253385e-04 0.0000000000000000e+00  1.4191036550271312e+01 5.3561565917680854e-04 0.0000000000000000e+00  1.4190891654682659e+01 7.2958214159347316e-04 0.0000000000000000e+00  1.4190849472554913e+01 8.1200615282514402e-04 0.0000000000000000e+00  1.4190815464389154e+01 8.5402992073470004e-04 0.0000000000000000e+00  1.4190807976747202e+01 8.6903935247044004e-04 0.0000000000000000e+00  1.4190796780033693e+01 8.7852365198365877e-04 0.0000000000000000e+00  1.4190794861503640e+01 8.8174564925953000e-04 0.0000000000000000e+00  1.4190790626582205e+01 8.8463455118046913e-04 0.0000000000000000e+00  1.4190790145936955e+01 8.8558424108182141e-04 0.0000000000000000e+00  1.4190788546717414e+01 8.8660439047290112e-04 0.0000000000000000e+00  1.4190788470295134e+01 8.8691401956192666e-04 0.0000000000000000e+00  1.4190787875891036e+01 8.8727146092572957e-04 0.0000000000000000e+00  1.4190787878766013e+01 8.8737454344302920e-04 0.0000000000000000e+00  1.4190787664024082e+01 8.8749311792167660e-04 0.0000000000000000e+00  1.4190787667417272e+01 8.8753113348158288e-04 0.0000000000000000e+00  1.4190787595099208e+01 8.8756694476604036e-04 0.0000000000000000e+00  1.4190787591027316e+01 8.8758392098068977e-04 0.0000000000000000e+00  1.4190787570486846e+01 8.8759266198617690e-04 0.0000000000000000e+00  1.4190787563537249e+01 8.8760158592920491e-04 0.0000000000000000e+00  1.4190787560304873e+01 8.8760237569382927e-04 0.0000000000000000e+00  1.4190787553945206e+01 8.8760738071685572e-04 0.0000000000000000e+00  1.4190787555406644e+01 8.8760640965232919e-04 0.0000000000000000e+00  1.4190787550818412e+01 8.8760919091810818e-04 0.0000000000000000e+00  1.4190787552801606e+01 8.8760822155874370e-04 0.0000000