<?xml version="1.0"?>
<VTKFile type="UnstructuredGrid"  version="0.1"  >
<UnstructuredGrid>
<Piece  NumberOfPoints="1369" NumberOfCells="2560">
<Points>
<DataArray  type="Float64"  NumberOfComponents="3"  format="ascii">0 0 0  0.75 0 0  1.5 0 0  2.25 0 0  3 0 0  3.75 0 0  4.5 0 0  5.25 0 0  6 0 0  6.75 0 0  7.5 0 0  8.25 0 0  9 0 0  9.75 0 0  10.5 0 0  11.25 0 0  12 0 0  12.75 0 0  13.5 0 0  14.25 0 0  15 0 0  15.75 0 0  16.5 0 0  17.25 0 0  18 0 0  18.75 0 0  19.5 0 0  20.25 0 0  21 0 0  21.75 0 0  22.5 0 0  23.25 0 0  24 0 0  24.75 0 0  25.5 0 0  26.25 0 0  27 0 0  27.75 0 0  28.5 0 0  29.25 0 0  30 0 0  30.75 0 0  31.5 0 0  32.25 0 0  33 0 0  33.75 0 0  34.5 0 0  35.25 0 0  36 0 0  36.75 0 0  37.5 0 0  38.25 0 0  39 0 0  39.75 0 0  40.5 0 0  41.25 0 0  42 0 0  42.75 0 0  43.5 0 0  44.25 0 0  45 0 0  45.75 0 0  46.5 0 0  47.25 0 0  48 0 0  48.75 0 0  49.5 0 0  50.25 0 0  51 0 0  51.75 0 0  52.5 0 0  53.25 0 0  54 0 0  54.75 0 0  55.5 0 0  56.25 0 0  57 0 0  57.75 0 0  58.5 0 0  59.25 0 0  60 0 0  0 0.5 0  0.75 0.5 0  1.5 0.5 0  2.25 0.5 0  3 0.5 0  3.75 0.5 0  4.5 0.5 0  5.25 0.5 0  6 0.5 0  6.75 0.5 0  7.5 0.5 0  8.25 0.5 0  9 0.5 0  9.75 0.5 0  10.5 0.5 0  11.25 0.5 0  12 0.5 0  12.75 0.5 0  13.5 0.5 0  14.25 0.5 0  15 0.5 0  15.75 0.5 0  16.5 0.5 0  17.25 0.5 0  18 0.5 0  18.75 0.5 0  19.5 0.5 0  20.25 0.5 0  21 0.5 0  21.75 0.5 0  22.5 0.5 0  23.25 0.5 0  24 0.5 0  24.75 0.5 0  25.5 0.5 0  26.25 0.5 0  27 0.5 0  27.75 0.5 0  28.5 0.5 0  29.25 0.5 0  30 0.5 0  30.75 0.5 0  31.5 0.5 0  32.25 0.5 0  33 0.5 0  33.75 0.5 0  34.5 0.5 0  35.25 0.5 0  36 0.5 0  36.75 0.5 0  37.5 0.5 0  38.25 0.5 0  39 0.5 0  39.75 0.5 0  40.5 0.5 0  41.25 0.5 0  42 0.5 0  42.75 0.5 0  43.5 0.5 0  44.25 0.5 0  45 0.5 0  45.75 0.5 0  46.5 0.5 0  47.25 0.5 0  48 0.5 0  48.75 0.5 0  49.5 0.5 0  50.25 0.5 0  51 0.5 0  51.75 0.5 0  52.5 0.5 0  53.25 0.5 0  54 0.5 0  54.75 0.5 0  55.5 0.5 0  56.25 0.5 0  57 0.5 0  57.75 0.5 0  58.5 0.5 0  59.25 0.5 0  60 0.5 0  0 1 0  0.75 1 0  1.5 1 0  2.25 1 0  3 1 0  3.75 1 0  4.5 1 0  5.25 1 0  6 1 0  6.75 1 0  7.5 1 0  8.25 1 0  9 1 0  9.75 1 0  10.5 1 0  11.25 1 0  12 1 0  12.75 1 0  13.5 1 0  14.25 1 0  15 1 0  15.75 1 0  16.5 1 0  17.25 1 0  18 1 0  18.75 1 0  19.5 1 0  20.25 1 0  21 1 0  21.75 1 0  22.5 1 0  23.25 1 0  24 1 0  24.75 1 0  25.5 1 0  26.25 1 0  27 1 0  27.75 1 0  28.5 1 0  29.25 1 0  30 1 0  30.75 1 0  31.5 1 0  32.25 1 0  33 1 0  33.75 1 0  34.5 1 0  35.25 1 0  36 1 0  36.75 1 0  37.5 1 0  38.25 1 0  39 1 0  39.75 1 0  40.5 1 0  41.25 1 0  42 1 0  42.75 1 0  43.5 1 0  44.25 1 0  45 1 0  45.75 1 0  46.5 1 0  47.25 1 0  48 1 0  48.75 1 0  49.5 1 0  50.25 1 0  51 1 0  51.75 1 0  52.5 1 0  53.25 1 0  54 1 0  54.75 1 0  55.5 1 0  56.25 1 0  57 1 0  57.75 1 0  58.5 1 0  59.25 1 0  60 1 0  0 1.5 0  0.75 1.5 0  1.5 1.5 0  2.25 1.5 0  3 1.5 0  3.75 1.5 0  4.5 1.5 0  5.25 1.5 0  6 1.5 0  6.75 1.5 0  7.5 1.5 0  8.25 1.5 0  9 1.5 0  9.75 1.5 0  10.5 1.5 0  11.25 1.5 0  12 1.5 0  12.75 1.5 0  13.5 1.5 0  14.25 1.5 0  15 1.5 0  15.75 1.5 0  16.5 1.5 0  17.25 1.5 0  18 1.5 0  18.75 1.5 0  19.5 1.5 0  20.25 1.5 0  21 1.5 0  21.75 1.5 0  22.5 1.5 0  23.25 1.5 0  24 1.5 0  24.75 1.5 0  25.5 1.5 0  26.25 1.5 0  27 1.5 0  27.75 1.5 0  28.5 1.5 0  29.25 1.5 0  30 1.5 0  30.75 1.5 0  31.5 1.5 0  32.25 1.5 0  33 1.5 0  33.75 1.5 0  34.5 1.5 0  35.25 1.5 0  36 1.5 0  36.75 1.5 0  37.5 1.5 0  38.25 1.5 0  39 1.5 0  39.75 1.5 0  40.5 1.5 0  41.25 1.5 0  42 1.5 0  42.75 1.5 0  43.5 1.5 0  44.25 1.5 0  45 1.5 0  45.75 1.5 0  46.5 1.5 0  47.25 1.5 0  48 1.5 0  48.75 1.5 0  49.5 1.5 0  50.25 1.5 0  51 1.5 0  51.75 1.5 0  52.5 1.5 0  53.25 1.5 0  54 1.5 0  54.75 1.5 0  55.5 1.5 0  56.25 1.5 0  57 1.5 0  57.75 1.5 0  58.5 1.5 0  59.25 1.5 0  60 1.5 0  0 2 0  0.75 2 0  1.5 2 0  2.25 2 0  3 2 0  3.75 2 0  4.5 2 0  5.25 2 0  6 2 0  6.75 2 0  7.5 2 0  8.25 2 0  9 2 0  9.75 2 0  10.5 2 0  11.25 2 0  12 2 0  12.75 2 0  13.5 2 0  14.25 2 0  15 2 0  15.75 2 0  16.5 2 0  17.25 2 0  18 2 0  18.75 2 0  19.5 2 0  20.25 2 0  21 2 0  21.75 2 0  22.5 2 0  23.25 2 0  24 2 0  24.75 2 0  25.5 2 0  26.25 2 0  27 2 0  27.75 2 0  28.5 2 0  29.25 2 0  30 2 0  30.75 2 0  31.5 2 0  32.25 2 0  33 2 0  33.75 2 0  34.5 2 0  35.25 2 0  36 2 0  36.75 2 0  37.5 2 0  38.25 2 0  39 2 0  39.75 2 0  40.5 2 0  41.25 2 0  42 2 0  42.75 2 0  43.5 2 0  44.25 2 0  45 2 0  45.75 2 0  46.5 2 0  47.25 2 0  48 2 0  48.75 2 0  49.5 2 0  50.25 2 0  51 2 0  51.75 2 0  52.5 2 0  53.25 2 0  54 2 0  54.75 2 0  55.5 2 0  56.25 2 0  57 2 0  57.75 2 0  58.5 2 0  59.25 2 0  60 2 0  0 2.5 0  0.75 2.5 0  1.5 2.5 0  2.25 2.5 0  3 2.5 0  3.75 2.5 0  4.5 2.5 0  5.25 2.5 0  6 2.5 0  6.75 2.5 0  7.5 2.5 0  8.25 2.5 0  9 2.5 0  9.75 2.5 0  10.5 2.5 0  11.25 2.5 0  12 2.5 0  12.75 2.5 0  13.5 2.5 0  14.25 2.5 0  15 2.5 0  15.75 2.5 0  16.5 2.5 0  17.25 2.5 0  18 2.5 0  18.75 2.5 0  19.5 2.5 0  20.25 2.5 0  21 2.5 0  21.75 2.5 0  22.5 2.5 0  23.25 2.5 0  24 2.5 0  24.75 2.5 0  25.5 2.5 0  26.25 2.5 0  27 2.5 0  27.75 2.5 0  28.5 2.5 0  29.25 2.5 0  30 2.5 0  30.75 2.5 0  31.5 2.5 0  32.25 2.5 0  33 2.5 0  33.75 2.5 0  34.5 2.5 0  35.25 2.5 0  36 2.5 0  36.75 2.5 0  37.5 2.5 0  38.25 2.5 0  39 2.5 0  39.75 2.5 0  40.5 2.5 0  41.25 2.5 0  42 2.5 0  42.75 2.5 0  43.5 2.5 0  44.25 2.5 0  45 2.5 0  45.75 2.5 0  46.5 2.5 0  47.25 2.5 0  48 2.5 0  48.75 2.5 0  49.5 2.5 0  50.25 2.5 0  51 2.5 0  51.75 2.5 0  52.5 2.5 0  53.25 2.5 0  54 2.5 0  54.75 2.5 0  55.5 2.5 0  56.25 2.5 0  57 2.5 0  57.75 2.5 0  58.5 2.5 0  59.25 2.5 0  60 2.5 0  0 3 0  0.75 3 0  1.5 3 0  2.25 3 0  3 3 0  3.75 3 0  4.5 3 0  5.25 3 0  6 3 0  6.75 3 0  7.5 3 0  8.25 3 0  9 3 0  9.75 3 0  10.5 3 0  11.25 3 0  12 3 0  12.75 3 0  13.5 3 0  14.25 3 0  15 3 0  15.75 3 0  16.5 3 0  17.25 3 0  18 3 0  18.75 3 0  19.5 3 0  20.25 3 0  21 3 0  21.75 3 0  22.5 3 0  23.25 3 0  24 3 0  24.75 3 0  25.5 3 0  26.25 3 0  27 3 0  27.75 3 0  28.5 3 0  29.25 3 0  30 3 0  30.75 3 0  31.5 3 0  32.25 3 0  33 3 0  33.75 3 0  34.5 3 0  35.25 3 0  36 3 0  36.75 3 0  37.5 3 0  38.25 3 0  39 3 0  39.75 3 0  40.5 3 0  41.25 3 0  42 3 0  42.75 3 0  43.5 3 0  44.25 3 0  45 3 0  45.75 3 0  46.5 3 0  47.25 3 0  48 3 0  48.75 3 0  49.5 3 0  50.25 3 0  51 3 0  51.75 3 0  52.5 3 0  53.25 3 0  54 3 0  54.75 3 0  55.5 3 0  56.25 3 0  57 3 0  57.75 3 0  58.5 3 0  59.25 3 0  60 3 0  0 3.5 0  0.75 3.5 0  1.5 3.5 0  2.25 3.5 0  3 3.5 0  3.75 3.5 0  4.5 3.5 0  5.25 3.5 0  6 3.5 0  6.75 3.5 0  7.5 3.5 0  8.25 3.5 0  9 3.5 0  9.75 3.5 0  10.5 3.5 0  11.25 3.5 0  12 3.5 0  12.75 3.5 0  13.5 3.5 0  14.25 3.5 0  15 3.5 0  15.75 3.5 0  16.5 3.5 0  17.25 3.5 0  18 3.5 0  18.75 3.5 0  19.5 3.5 0  20.25 3.5 0  21 3.5 0  21.75 3.5 0  22.5 3.5 0  23.25 3.5 0  24 3.5 0  24.75 3.5 0  25.5 3.5 0  26.25 3.5 0  27 3.5 0  27.75 3.5 0  28.5 3.5 0  29.25 3.5 0  30 3.5 0  30.75 3.5 0  31.5 3.5 0  32.25 3.5 0  33 3.5 0  33.75 3.5 0  34.5 3.5 0  35.25 3.5 0  36 3.5 0  36.75 3.5 0  37.5 3.5 0  38.25 3.5 0  39 3.5 0  39.75 3.5 0  40.5 3.5 0  41.25 3.5 0  42 3.5 0  42.75 3.5 0  43.5 3.5 0  44.25 3.5 0  45 3.5 0  45.75 3.5 0  46.5 3.5 0  47.25 3.5 0  48 3.5 0  48.75 3.5 0  49.5 3.5 0  50.25 3.5 0  51 3.5 0  51.75 3.5 0  52.5 3.5 0  53.25 3.5 0  54 3.5 0  54.75 3.5 0  55.5 3.5 0  56.25 3.5 0  57 3.5 0  57.75 3.5 0  58.5 3.5 0  59.25 3.5 0  60 3.5 0  0 4 0  0.75 4 0  1.5 4 0  2.25 4 0  3 4 0  3.75 4 0  4.5 4 0  5.25 4 0  6 4 0  6.75 4 0  7.5 4 0  8.25 4 0  9 4 0  9.75 4 0  10.5 4 0  11.25 4 0  12 4 0  12.75 4 0  13.5 4 0  14.25 4 0  15 4 0  15.75 4 0  16.5 4 0  17.25 4 0  18 4 0  18.75 4 0  19.5 4 0  20.25 4 0  21 4 0  21.75 4 0  22.5 4 0  23.25 4 0  24 4 0  24.75 4 0  25.5 4 0  26.25 4 0  27 4 0  27.75 4 0  28.5 4 0  29.25 4 0  30 4 0  30.75 4 0  31.5 4 0  32.25 4 0  33 4 0  33.75 4 0  34.5 4 0  35.25 4 0  36 4 0  36.75 4 0  37.5 4 0  38.25 4 0  39 4 0  39.75 4 0  40.5 4 0  41.25 4 0  42 4 0  42.75 4 0  43.5 4 0  44.25 4 0  45 4 0  45.75 4 0  46.5 4 0  47.25 4 0  48 4 0  48.75 4 0  49.5 4 0  50.25 4 0  51 4 0  51.75 4 0  52.5 4 0  53.25 4 0  54 4 0  54.75 4 0  55.5 4 0  56.25 4 0  57 4 0  57.75 4 0  58.5 4 0  59.25 4 0  60 4 0  0.375 0.25 0  1.125 0.25 0  1.875 0.25 0  2.625 0.25 0  3.375 0.25 0  4.125 0.25 0  4.875 0.25 0  5.625 0.25 0  6.375 0.25 0  7.125 0.25 0  7.875 0.25 0  8.625 0.25 0  9.375 0.25 0  10.125 0.25 0  10.875 0.25 0  11.625 0.25 0  12.375 0.25 0  13.125 0.25 0  13.875 0.25 0  14.625 0.25 0  15.375 0.25 0  16.125 0.25 0  16.875 0.25 0  17.625 0.25 0  18.375 0.25 0  19.125 0.25 0  19.875 0.25 0  20.625 0.25 0  21.375 0.25 0  22.125 0.25 0  22.875 0.25 0  23.625 0.25 0  24.375 0.25 0  25.125 0.25 0  25.875 0.25 0  26.625 0.25 0  27.375 0.25 0  28.125 0.25 0  28.875 0.25 0  29.625 0.25 0  30.375 0.25 0  31.125 0.25 0  31.875 0.25 0  32.625 0.25 0  33.375 0.25 0  34.125 0.25 0  34.875 0.25 0  35.625 0.25 0  36.375 0.25 0  37.125 0.25 0  37.875 0.25 0  38.625 0.25 0  39.375 0.25 0  40.125 0.25 0  40.875 0.25 0  41.625 0.25 0  42.375 0.25 0  43.125 0.25 0  43.875 0.25 0  44.625 0.25 0  45.375 0.25 0  46.125 0.25 0  46.875 0.25 0  47.625 0.25 0  48.375 0.25 0  49.125 0.25 0  49.875 0.25 0  50.625 0.25 0  51.375 0.25 0  52.125 0.25 0  52.875 0.25 0  53.625 0.25 0  54.375 0.25 0  55.125 0.25 0  55.875 0.25 0  56.625 0.25 0  57.375 0.25 0  58.125 0.25 0  58.875 0.25 0  59.625 0.25 0  0.375 0.75 0  1.125 0.75 0  1.875 0.75 0  2.625 0.75 0  3.375 0.75 0  4.125 0.75 0  4.875 0.75 0  5.625 0.75 0  6.375 0.75 0  7.125 0.75 0  7.875 0.75 0  8.625 0.75 0  9.375 0.75 0  10.125 0.75 0  10.875 0.75 0  11.625 0.75 0  12.375 0.75 0  13.125 0.75 0  13.875 0.75 0  14.625 0.75 0  15.375 0.75 0  16.125 0.75 0  16.875 0.75 0  17.625 0.75 0  18.375 0.75 0  19.125 0.75 0  19.875 0.75 0  20.625 0.75 0  21.375 0.75 0  22.125 0.75 0  22.875 0.75 0  23.625 0.75 0  24.375 0.75 0  25.125 0.75 0  25.875 0.75 0  26.625 0.75 0  27.375 0.75 0  28.125 0.75 0  28.875 0.75 0  29.625 0.75 0  30.375 0.75 0  31.125 0.75 0  31.875 0.75 0  32.625 0.75 0  33.375 0.75 0  34.125 0.75 0  34.875 0.75 0  35.625 0.75 0  36.375 0.75 0  37.125 0.75 0  37.875 0.75 0  38.625 0.75 0  39.375 0.75 0  40.125 0.75 0  40
[...]
<PointData  Vectors="f_8-0"> 
<DataArray  type="Float64"  Name="f_8-0"  NumberOfComponents="3" format="ascii">0.0000000000000000e+00 0.0000000000000000e+00 0.0000000000000000e+00  0.0000000000000000e+00 0.0000000000000000e+00 0.0000000000000000e+00  0.0000000000000000e+00 0.0000000000000000e+00 0.0000000000000000e+00  0.0000000000000000e+00 0.0000000000000000e+00 0.0000000000000000e+00  0.0000000000000000e+00 0.0000000000000000e+00 0.0000000000000000e+00  0.0000000000000000e+00 0.0000000000000000e+00 0.0000000000000000e+00  0.0000000000000000e+00 0.0000000000000000e+00 0.0000000000000000e+00  0.0000000000000000e+00 0.0000000000000000e+00 0.0000000000000000e+00  0.0000000000000000e+00 0.0000000000000000e+00 0.0000000000000000e+00  0.0000000000000000e+00 0.0000000000000000e+00 0.0000000000000000e+00  0.0000000000000000e+00 0.0000000000000000e+00 0.0000000000000000e+00  0.0000000000000000e+00 0.0000000000000000e+00 0.0000000000000000e+00  0.0000000000000000e+00 0.0000000000000000e+00 0.0000000000000000e+00  0.0000000000000000e+00 0.0000000000000000e+00 0.0000000000000000e+00  0.0000000000000000e+00 0.0000000000000000e+00 0.0000000000000000e+00  0.0000000000000000e+00 0.0000000000000000e+00 0.0000000000000000e+00  0.0000000000000000e+00 0.0000000000000000e+00 0.0000000000000000e+00  0.0000000000000000e+00 0.0000000000000000e+00 0.0000000000000000e+00  0.0000000000000000e+00 0.0000000000000000e+00 0.0000000000000000e+00  0.0000000000000000e+00 0.0000000000000000e+00 0.0000000000000000e+00  0.0000000000000000e+00 0.0000000000000000e+00 0.0000000000000000e+00  0.0000000000000000e+00 0.0000000000000000e+00 0.0000000000000000e+00  0.0000000000000000e+00 0.0000000000000000e+00 0.0000000000000000e+00  0.0000000000000000e+00 0.0000000000000000e+00 0.0000000000000000e+00  0.0000000000000000e+00 0.0000000000000000e+00 0.0000000000000000e+00  0.0000000000000000e+00 0.0000000000000000e+00 0.0000000000000000e+00  0.0000000000000000e+00 0.0000000000000000e+00 0.0000000000000000e+00  0.0000000000000000e+00 0.0000000000000000e+00 0.0000000000000000e+00  0.0000000000000000e+00 0.0000000000000000e+00 0.0000000000000000e+00  0.0000000000000000e+00 0.0000000000000000e+00 0.0000000000000000e+00  0.0000000000000000e+00 0.0000000000000000e+00 0.0000000000000000e+00  0.0000000000000000e+00 0.0000000000000000e+00 0.0000000000000000e+00  0.0000000000000000e+00 0.0000000000000000e+00 0.0000000000000000e+00  0.0000000000000000e+00 0.0000000000000000e+00 0.0000000000000000e+00  0.0000000000000000e+00 0.0000000000000000e+00 0.0000000000000000e+00  0.0000000000000000e+00 0.0000000000000000e+00 0.0000000000000000e+00  0.0000000000000000e+00 0.0000000000000000e+00 0.0000000000000000e+00  0.0000000000000000e+00 0.0000000000000000e+00 0.0000000000000000e+00  0.0000000000000000e+00 0.0000000000000000e+00 0.0000000000000000e+00  0.0000000000000000e+00 0.0000000000000000e+00 0.0000000000000000e+00  0.0000000000000000e+00 0.0000000000000000e+00 0.0000000000000000e+00  0.0000000000000000e+00 0.0000000000000000e+00 0.0000000000000000e+00  0.0000000000000000e+00 0.0000000000000000e+00 0.0000000000000000e+00  0.0000000000000000e+00 0.0000000000000000e+00 0.0000000000000000e+00  0.0000000000000000e+00 0.0000000000000000e+00 0.0000000000000000e+00  0.0000000000000000e+00 0.0000000000000000e+00 0.0000000000000000e+00  0.0000000000000000e+00 0.0000000000000000e+00 0.0000000000000000e+00  0.0000000000000000e+00 0.0000000000000000e+00 0.0000000000000000e+00  0.0000000000000000e+00 0.0000000000000000e+00 0.0000000000000000e+00  0.0000000000000000e+00 0.0000000000000000e+00 0.0000000000000000e+00  0.0000000000000000e+00 0.0000000000000000e+00 0.0000000000000000e+00  0.0000000000000000e+00 0.0000000000000000e+00 0.0000000000000000e+00  0.0000000000000000e+00 0.0000000000000000e+00 0.0000000000000000e+00  0.0000000000000000e+00 0.0000000000000000e+00 0.0000000000000000e+00  0.0000000000000000e+00 0.0000000000000000e+00 0.0000000000000000e+00  0.0000000000000000e+00 0.0000000000000000e+00 0.0000000000000000e+00  0.0000000000000000e+00 0.0000000000000000e+00 0.0000000000000000e+00  0.0000000000000000e+00 0.0000000000000000e+00 0.0000000000000000e+00  0.0000000000000000e+00 0.0000000000000000e+00 0.0000000000000000e+00  0.0000000000000000e+00 0.0000000000000000e+00 0.0000000000000000e+00  0.0000000000000000e+00 0.0000000000000000e+00 0.0000000000000000e+00  0.0000000000000000e+00 0.0000000000000000e+00 0.0000000000000000e+00  0.0000000000000000e+00 0.0000000000000000e+00 0.0000000000000000e+00  0.0000000000000000e+00 0.0000000000000000e+00 0.0000000000000000e+00  0.0000000000000000e+00 0.0000000000000000e+00 0.0000000000000000e+00  0.0000000000000000e+00 0.0000000000000000e+00 0.0000000000000000e+00  0.0000000000000000e+00 0.0000000000000000e+00 0.0000000000000000e+00  0.0000000000000000e+00 0.0000000000000000e+00 0.0000000000000000e+00  0.0000000000000000e+00 0.0000000000000000e+00 0.0000000000000000e+00  0.0000000000000000e+00 0.0000000000000000e+00 0.0000000000000000e+00  0.0000000000000000e+00 0.0000000000000000e+00 0.0000000000000000e+00  0.0000000000000000e+00 0.0000000000000000e+00 0.0000000000000000e+00  0.0000000000000000e+00 0.0000000000000000e+00 0.0000000000000000e+00  0.0000000000000000e+00 0.0000000000000000e+00 0.0000000000000000e+00  0.0000000000000000e+00 0.0000000000000000e+00 0.0000000000000000e+00  0.0000000000000000e+00 0.0000000000000000e+00 0.0000000000000000e+00  0.0000000000000000e+00 0.0000000000000000e+00 0.0000000000000000e+00  0.0000000000000000e+00 0.0000000000000000e+00 0.0000000000000000e+00  0.0000000000000000e+00 0.0000000000000000e+00 0.0000000000000000e+00  0.0000000000000000e+00 0.0000000000000000e+00 0.0000000000000000e+00  0.0000000000000000e+00 0.0000000000000000e+00 0.0000000000000000e+00  1.9108438209236496e+01 0.0000000000000000e+00 0.0000000000000000e+00  1.9081615490032785e+01 7.0942446826188041e-02 0.0000000000000000e+00  1.9074682600248288e+01 1.6613556052465513e-02 0.0000000000000000e+00  1.9066386246927735e+01 5.1049603348388931e-03 0.0000000000000000e+00  1.9063934683120824e+01 5.3562359823336693e-03 0.0000000000000000e+00  1.9065684522544988e+01 5.4410572189662132e-03 0.0000000000000000e+00  1.9064838745458484e+01 5.3404841456358371e-03 0.0000000000000000e+00  1.9065317307041731e+01 5.4048133659997883e-03 0.0000000000000000e+00  1.9065182819395858e+01 5.3902367996900222e-03 0.0000000000000000e+00  1.9065261435856183e+01 5.4007034811532836e-03 0.0000000000000000e+00  1.9065250266897088e+01 5.4005033339139625e-03 0.0000000000000000e+00  1.9065261916186614e+01 5.4021479984245275e-03 0.0000000000000000e+00  1.9065262452470058e+01 5.4025149542601507e-03 0.0000000000000000e+00  1.9065264417516694e+01 5.4028428167754621e-03 0.0000000000000000e+00  1.9065264928398427e+01 5.4029754627020234e-03 0.0000000000000000e+00  1.9065265333488391e+01 5.4030530120037987e-03 0.0000000000000000e+00  1.9065265498490398e+01 5.4030900299901234e-03 0.0000000000000000e+00  1.9065265593376800e+01 5.4031093958592400e-03 0.0000000000000000e+00  1.9065265638109054e+01 5.4031190272278411e-03 0.0000000000000000e+00  1.9065265661474786e+01 5.4031238951167812e-03 0.0000000000000000e+00  1.9065265673004660e+01 5.4031263448627862e-03 0.0000000000000000e+00  1.9065265678879541e+01 5.4031275698830528e-03 0.0000000000000000e+00  1.9065265681810274e+01 5.4031281902601237e-03 0.0000000000000000e+00  1.9065265683293326e+01 5.4031285007309533e-03 0.0000000000000000e+00  1.9065265684035896e+01 5.4031286600487571e-03 0.0000000000000000e+00  1.9065265684413632e+01 5.4031287358575911e-03 0.0000000000000000e+00  1.9065265684593665e+01 5.4031287758583039e-03 0.0000000000000000e+00  1.9065265684686644e+01 5.4031287953108355e-03 0.0000000000000000e+00  1.9065265684746123e+01 5.4031288052713861e-03 0.0000000000000000e+00  1.9065265684763808e+01 5.4031288089989426e-03 0.0000000000000000e+00  1.9065265684781025e+01 5.4031288113320329e-03 0.0000000000000000e+00  1.9065265684790678e+01 5.4031288124428440e-03 0.0000000000000000e+00  1.9065265684803844e+01 5.4031288160514947e-03 0.0000000000000000e+00  1.9065265684796966e+01 5.4031288178600064e-03 0.0000000000000000e+00  1.9065265684795950e+01 5.4031288128486964e-03 0.0000000000000000e+00  1.9065265684801570e+01 5.4031288173150968e-03 0.0000000000000000e+00  1.9065265684799744e+01 5.4031288132110333e-03 0.0000000000000000e+00  1.9065265684799769e+01 5.4031288187079704e-03 0.0000000000000000e+00  1.9065265684801119e+01 5.4031288136866182e-03 0.0000000000000000e+00  1.9065265684811113e+01 5.4031288166771401e-03 0.0000000000000000e+00  1.9065265684807418e+01 5.4031288184292151e-03 0.0000000000000000e+00  1.9065265684806427e+01 5.4031288167513446e-03 0.0000000000000000e+00  1.9065265684810750e+01 5.4031288137606024e-03 0.0000000000000000e+00  1.9065265684814783e+01 5.4031288124326724e-03 0.0000000000000000e+00  1.9065265684830397e+01 5.4031288031903806e-03 0.0000000000000000e+00  1.9065265684868201e+01 5.4031287979931239e-03 0.0000000000000000e+00  1.9065265684923524e+01 5.4031287670627693e-03 0.0000000000000000e+00  1.9065265685078781e+01 5.4031287292740579e-03 0.0000000000000000e+00  1.9065265685327898e+01 5.4031286211319255e-03 0.0000000000000000e+00  1.9065265685979941e+01 5.4031284329387969e-03 0.0000000000000000e+00  1.9065265687102659e+01 5.4031280061136253e-03 0.0000000000000000e+00  1.9065265689755908e+01 5.4031271740856987e-03 0.0000000000000000e+00  1.9065265694651508e+01 5.4031254731179996e-03 0.0000000000000000e+00  1.9065265705408731e+01 5.4031219960918170e-03 0.0000000000000000e+00  1.9065265726060030e+01 5.4031150879488869e-03 0.0000000000000000e+00  1.9065265769548336e+01 5.4031008762334210e-03 0.0000000000000000e+00  1.9065265854799893e+01 5.4030728646265814e-03 0.0000000000000000e+00  1.9065266029897504e+01 5.4030152801022614e-03 0.0000000000000000e+00  1.9065266376425086e+01 5.4029011405136336e-03 0.0000000000000000e+00  1.9065267081765771e+01 5.4026604836603246e-03 0.0000000000000000e+00  1.9065268515653493e+01 5.4021444194509985e-03 0.0000000000000000e+00  1.9065271595756858e+01 5.4009179327023094e-03 0.0000000000000000e+00  1.9065278612647862e+01 5.3978640226875650e-03 0.0000000000000000e+00  1.9065295810590982e+01 5.3900021321440254e-03 0.0000000000000000e+00  1.9065339168208851e+01 5.3706471339920589e-03 0.0000000000000000e+00  1.9065446479523079e+01 5.3266555802306808e-03 0.0000000000000000e+00  1.9065694661442201e+01 5.2387819177871775e-03 0.0000000000000000e+00  1.9066212728313747e+01 5.0903645485209353e-03 0.0000000000000000e+00  1.9067156040717585e+01 4.8942189389400677e-03 0.0000000000000000e+00  1.9068602607171435e+01 4.7196879994266146e-03 0.0000000000000000e+00  1.9070400378749934e+01 4.6730073386114287e-03 0.0000000000000000e+00  1.9072169195123731e+01 4.7928623073956759e-03 0.0000000000000000e+00  1.9073551951038898e+01 5.0338162335883717e-03 0.0000000000000000e+00  1.9074291267364767e+01 5.4222455740880636e-03 0.0000000000000000e+00  1.9073936378554688e+01 6.0813206723111315e-03 0.0000000000000000e+00  1.9071835439417185e+01 7.0344023968476202e-03 0.0000000000000000e+00  1.9067275861571012e+01 8.2340706566001506e-03 0.0000000000000000e+00  1.9059568413161116e+01 9.3540351033158213e-03 0.0000000000000000e+00  1.9047787586317334e+01 9.3338716954944456e-03 0.0000000000000000e+00  1.9025594249975999e+01 4.3298296968285908e-03 0.0000000000000000e+00  1.8998125625603535e+01 0.0000000000000000e+00 0.0000000000000000e+00  1.6056696052549167e+01 0.0000000000000000e+00 0.0000000000000000e+00  1.6011341832333496e+01 -6.1338748768116000e-03 0.0000000000000000e+00  1.6047909599588341e+01 8.6095427357825074e-03 0.0000000000000000e+00  1.6048128170757916e+01 -2.3674194687359987e-03 0.0000000000000000e+00  1.6049346128965929e+01 -1.3983654691326237e-03 0.0000000000000000e+00  1.6048700867470554e+01 -2.6129937952801357e-03 0.0000000000000000e+00  1.6049074921774405e+01 -2.1399816604932708e-03 0.0000000000000000e+00  1.6048976961326826e+01 -2.2747090899768742e-03 0.0000000000000000e+00  1.6049046213733924e+01 -2.1991656251391053e-03 0.0000000000000000e+00  1.6049038015428064e+01 -2.2065313303969176e-03 0.0000000000000000e+00  1.6049049446134308e+01 -2.1950447629280855e-03 0.0000000000000000e+00  1.6049050173426775e+01 -2.1936064806171679e-03 0.0000000000000000e+00  1.6049052249989622e+01 -2.1914748576469167e-03 0.0000000000000000e+00  1.6049052804765100e+01 -2.1907529407794268e-03 0.0000000000000000e+00  1.6049053250319506e+01 -2.1902672657370587e-03 0.0000000000000000e+00  1.6049053432885120e+01 -2.1900474049032972e-03 0.0000000000000000e+00  1.6049053539512972e+01 -2.1899264220838367e-03 0.0000000000000000e+00  1.6049053589995278e+01 -2.1898671101423547e-03 0.0000000000000000e+00  1.6049053616544526e+01 -2.1898364173164779e-03 0.0000000000000000e+00  1.6049053629677822e+01 -2.1898211149449912e-03 0.0000000000000000e+00  1.6049053636348631e+01 -2.1898133515663920e-03 0.0000000000000000e+00  1.6049053639716973e+01 -2.1898094658352272e-03 0.0000000000000000e+00  1.6049053641406395e+01 -2.1898074996789104e-03 0.0000000000000000e+00  1.6049053642257022e+01 -2.1898065165886840e-03 0.0000000000000000e+00  1.6049053642674622e+01 -2.1898060164016152e-03 0.0000000000000000e+00  1.6049053642886367e+01 -2.1898057720799642e-03 0.0000000000000000e+00  1.6049053642978638e+01 -2.1898056411592810e-03 0.0000000000000000e+00  1.6049053643033176e+01 -2.1898055856494894e-03 0.0000000000000000e+00  1.6049053643070305e+01 -2.1898055500668614e-03 0.0000000000000000e+00  1.6049053643080047e+01 -2.1898055359399105e-03 0.0000000000000000e+00  1.6049053643093657e+01 -2.1898055283870077e-03 0.0000000000000000e+00  1.6049053643102674e+01 -2.1898055250717872e-03 0.0000000000000000e+00  1.6049053643108994e+01 -2.1898055192281487e-03 0.0000000000000000e+00  1.6049053643111353e+01 -2.1898055136181870e-03 0.0000000000000000e+00  1.6049053643108490e+01 -2.1898055177711488e-03 0.0000000000000000e+00  1.6049053643101896e+01 -2.1898055170158429e-03 0.0000000000000000e+00  1.6049053643106621e+01 -2.1898055173785098e-03 0.0000000000000000e+00  1.6049053643103885e+01 -2.1898055166952712e-03 0.0000000000000000e+00  1.6049053643113211e+01 -2.1898055234217603e-03 0.0000000000000000e+00  1.6049053643120615e+01 -2.1898055118100587e-03 0.0000000000000000e+00  1.6049053643126513e+01 -2.1898055174057311e-03 0.0000000000000000e+00  1.6049053643116430e+01 -2.1898055139899300e-03 0.0000000000000000e+00  1.6049053643123354e+01 -2.1898055255536414e-03 0.0000000000000000e+00  1.6049053643118242e+01 -2.1898055236586359e-03 0.0000000000000000e+00  1.6049053643138784e+01 -2.1898055486763478e-03 0.0000000000000000e+00  1.6049053643147232e+01 -2.1898055582450899e-03 0.0000000000000000e+00  1.6049053643215636e+01 -2.1898056338755982e-03 0.0000000000000000e+00  1.6049053643285383e+01 -2.1898057236037810e-03 0.0000000000000000e+00  1.6049053643526396e+01 -2.1898059805741288e-03 0.0000000000000000e+00  1.6049053643912632e+01 -2.1898064424237963e-03 0.0000000000000000e+00  1.6049053644834441e+01 -2.1898074405305393e-03 0.0000000000000000e+00  1.6049053646595180e+01 -2.1898094742167054e-03 0.0000000000000000e+00  1.6049053650320985e+01 -2.1898134828267934e-03 0.0000000000000000e+00  1.6049053657780593e+01 -2.1898219356613594e-03 0.0000000000000000e+00  1.6049053672883606e+01 -2.1898382489856159e-03 0.0000000000000000e+00  1.6049053703430026e+01 -2.1898725197890723e-03 0.0000000000000000e+00  1.6049053764249841e+01 -2.1899386449331249e-03 0.0000000000000000e+00  1.6049053887373827e+01 -2.1900761851370741e-03 0.0000000000000000e+00  1.6049054133652646e+01 -2.1903455610341382e-03 0.0000000000000000e+00  1.6049054641148224e+01 -2.1909164569767878e-03 0.0000000000000000e+00  1.6049055703403035e+01 -2.1921339702462078e-03 0.0000000000000000e+00  1.6049058058458741e+01 -2.1950278971865109e-03 0.0000000000000000e+00  1.6049063532530262e+01 -2.2022174120464731e-03 0.0000000000000000e+00  1.6049076890920638e+01 -2.2207534903403593e-03 0.0000000000000000e+00  1.6049109666942705e+01 -2.2665531313977669e-03 0.0000000000000000e+00  1.6049187900994639e+01 -2.3715219356759748e-03 0.0000000000000000e+00  1.6049362662518138e+01 -2.5841704351889580e-03 0.0000000000000000e+00  1.6049717537008881e+01 -2.9509855938463806e-03 0.0000000000000000e+00  1.6050345470364878e+01 -3.4481617902591519e-03 0.0000000000000000e+00  1.6051259420591514e+01 -3.8978275692105706e-03 0.0000000000000000e+00  1.6052276347652882e+01 -4.0139122618578884e-03 0.0000000000000000e+00  1.6053129207504689e+01 -3.7274923072301465e-03 0.0000000000000000e+00  1.6053791909031734e+01 -3.2290911754846051e-03 0.0000000000000000e+00  1.6054338321048313e+01 -2.4473409650774785e-03 0.0000000000000000e+00  1.6054650629985531e+01 -1.1217870055893167e-03 0.0000000000000000e+00  1.6054697279365680e+01 7.7829383042091400e-04 0.0000000000000000e+00  1.6054356639042350e+01 3.3088909976516558e-03 0.0000000000000000e+00  1.6053392789414222e+01 6.2922506288101447e-03 0.0000000000000000e+00  1.6051129554717843e+01 9.7563119196637880e-03 0.0000000000000000e+00  1.6047464113570584e+01 1.5642619398598116e-02 0.0000000000000000e+00  1.6033706657543089e+01 0.0000000000000000e+00 0.0000000000000000e+00  1.2664939622592282e+01 0.0000000000000000e+00 0.0000000000000000e+00  1.2664358065121323e+01 1.7718093229311344e-03 0.0000000000000000e+00  1.2668275306072845e+01 7.3449391167091597e-04 0.0000000000000000e+00  1.2672313456072850e+01 5.8656104998003973e-04 0.0000000000000000e+00  1.2672388261303174e+01 -5.0332486855805673e-04 0.0000000000000000e+00  1.2672456358108089e+01 -3.5693108108716216e-04 0.0000000000000000e+00  1.2672321305074059e+01 -4.3624657740673402e-04 0.0000000000000000e+00  1.2672288177242489e+01 -3.7190351676972248e-04 0.0000000000000000e+00  1.2672251050258408e+01 -3.6964046671848256e-04 0.0000000000000000e+00  1.2672237612580991e+01 -3.5556732545452996e-04 0.0000000000000000e+00  1.2672228236879082e+01 -3.5219489140593535e-04 0.0000000000000000e+00  1.2672224076563877e+01 -3.4905706093578588e-04 0.0000000000000000e+00  1.2672221658171839e+01 -3.4782002674040973e-04 0.0000000000000000e+00  1.2672220484594201e+01 -3.4704716521597942e-04 0.0000000000000000e+00  1.2672219856130299e+01 -3.4668182758597934e-04 0.0000000000000000e+00  1.2672219542101582e+01 -3.4648267047213268e-04 0.0000000000000000e+00  1.2672219380154770e+01 -3.4638353561471634e-04 0.0000000000000000e+00  1.2672219298758247e+01 -3.4633215653282238e-04 0.0000000000000000e+00  1.2672219257484745e+01 -3.4630632900268501e-04 0.0000000000000000e+00  1.2672219236741627e+01 -3.4629320425585747e-04 0.0000000000000000e+00  1.2672219226291389e+01 -3.4628662617245949e-04 0.0000000000000000e+00  1.2672219221027792e+01 -3.4628331777625937e-04 0.0000000000000000e+00  1.2672219218385552e+01 -3.4628164250320975e-04 0.0000000000000000e+00  1.2672219217047711e+01 -3.4628080200976527e-04 0.0000000000000000e+00  1.2672219216379348e+01 -3.4628036860601227e-04 0.0000000000000000e+00  1.2672219216036458e+01 -3.4628016485850274e-04 0.0000000000000000e+00  1.2672219215867276e+01 -3.4628004696791412e-04 0.0000000000000000e+00  1.2672219215780927e+01 -3.4628000751549530e-04 0.0000000000000000e+00  1.2672219215729998e+01 -3.4627998554048972e-04 0.0000000000000000e+00  1.2672219215711827e+01 -3.4627996073012112e-04 0.0000000000000000e+00  1.2672219215700645e+01 -3.4627996171403914e-04 0.0000000000000000e+00  1.2672219215691587e+01 -3.4627995947567080e-04 0.0000000000000000e+00  1.2672219215689685e+01 -3.4627995904445210e-04 0.0000000000000000e+00  1.2672219215691696e+01 -3.4627994254879976e-04 0.0000000000000000e+00  1.2672219215689179e+01 -3.4627995031513584e-04 0.0000000000000000e+00  1.2672219215690680e+01 -3.4627994345453353e-04 0.0000000000000000e+00  1.2672219215687900e+01 -3.4627995286844898e-04 0.0000000000000000e+00  1.2672219215688711e+01 -3.4627994879371136e-04 0.0000000000000000e+00  1.2672219215688871e+01 -3.4627995290495591e-04 0.0000000000000000e+00  1.2672219215688159e+01 -3.4627995724638639