<?xml version="1.0"?>
<VTKFile type="UnstructuredGrid"  version="0.1"  >
<UnstructuredGrid>
<Piece  NumberOfPoints="289" NumberOfCells="512">
<Points>
<DataArray  type="Float64"  NumberOfComponents="3"  format="ascii">0 0 0  0.0625 0 0  0.125 0 0  0.1875 0 0  0.25 0 0  0.3125 0 0  0.375 0 0  0.4375 0 0  0.5 0 0  0.5625 0 0  0.625 0 0  0.6875 0 0  0.75 0 0  0.8125 0 0  0.875 0 0  0.9375 0 0  1 0 0  0 0.0625 0  0.0624992224265465 0.06250048346008244 0  0.1249984217800006 0.0625009878333098 0  0.1874975748433873 0.06250153533051039 0  0.2499966583372004 0.06250215091674595 0  0.3124956490523098 0.06250286420282306 0  0.3749945241873953 0.06250371214829376 0  0.437493261955727 0.06250474328524643 0  0.4999918425138171 0.06250602486630863 0  0.562490249239087 0.06250765590997001 0  0.6249884703496648 0.06250979288906933 0  0.6874865008643122 0.06251270455646012 0  0.7499843451927657 0.06251689969055847 0  0.8124820224207029 0.0625234546093185 0  0.8749795853815943 0.06253494197190408 0  0.9374772093297439 0.06255834415649658 0  0.9999756297407134 0.06261510304010484 0  0 0.125 0  0.06249846791897858 0.125000945934314 0  0.124996889742252 0.1250019323995185 0  0.1874952190289477 0.1250030023363861 0  0.2499934090766323 0.1250042037676087 0  0.3124914131190321 0.1250055931888404 0  0.3749891849372055 0.1250072402606653 0  0.4374866800232347 0.1250092348449998 0  0.4999838574155316 0.1250116983147797 0  0.5624806822705878 0.1250148028760246 0  0.6249771291220025 0.1250188064138715 0  0.6874731855436979 0.125024118319017 0  0.7499688553375925 0.1250314282005019 0  0.8124641581891814 0.1250419603784946 0  0.8749591126341043 0.1250579551845428 0  0.937453637990763 0.1250833925261096 0  0.9999470451807625 0.1251238610140321 0  0 0.1875 0  0.06249775957415545 0.187501367793374 0  0.1249954502093897 0.1875027933383372 0  0.1874930023056871 0.1875043375989997 0  0.249990345530363 0.1875060682492045 0  0.3124874089400427 0.1875080639557322 0  0.3749841217282586 0.1875104200120601 0  0.4374804148306761 0.1875132562534573 0  0.4999762236091441 0.1875167287829781 0  0.562471491778756 0.1875210480540867 0  0.6249661766093819 0.1875265074286094 0  0.6874602552038768 0.1875335281778121 0  0.7499537313831943 0.1875427266097847 0  0.8124466428850303 0.1875549957396954 0  0.8749390722807106 0.1875715272568655 0  0.9374311906027573 0.1875934474568609 0  0.999923517785053 0.1876199472951189 0  0 0.25 0  0.06249712028841797 0.2500017318082852 0  0.1249941492382029 0.2500035353961901 0  0.1874909943630318 0.2500054862127521 0  0.2499875615688772 0.2500076672849175 0  0.312483754980007 0.2500101737964645 0  0.3749794775931803 0.2500131187301608 0  0.4374746331076138 0.2500166401292979 0  0.4999691293014581 0.2500209106932905 0  0.5624628832955545 0.2500261505087458 0  0.624955828914462 0.2500326433825217 0  0.6874479260748882 0.2500407554337257 0  0.7499391716882903 0.2500509484865009 0  0.812429611014244 0.2500637637553802 0  0.8749193475507875 0.2500797116806474 0  0.9374085443178837 0.2500989398152469 0  0.9998973641384098 0.2501205818169451 0  0 0.3125 0  0.0624965724857696 0.3125020239475765 0  0.1249930321392681 0.312504130055725 0  0.1874892642737559 0.3125064043066367 0  0.249985151198802 0.3125089404871882 0  0.3124805714449008 0.3125118446369207 0  0.3749753999791181 0.3125152401406507 0  0.4374695098938527 0.3125192736207202 0  0.4999627761432187 0.3125241216029023 0  0.5624550819461238 0.3125299974407963 0  0.6249463283932982 0.3125371568017747 0  0.6874364474753641 0.3125458973940122 0  0.7499254180681846 0.3125565433112528 0  0.8124132833094643 0.3125693951584755 0  0.8749001664474799 0.3125846160456199 0  0.9373862817800355 0.3126020276711035 0  0.999871946061175 0.3126208678150663 0  0 0.375 0  0.06249613765100346 0.3750022338323723 0  0.1249921425965037 0.3750045564047008 0  0.1874878793169301 0.3750070602086242 0  0.2499832072913738 0.3750098453292338 0  0.3124779792334195 0.3750130235511665 0  0.3749720403886873 0.3750167227453768 0  0.4374652295128643 0.3750210914179337 0  0.4999573823573162 0.3750263029647631 0  0.5624483386864766 0.3750325584985082 0  0.624937953928272 0.3750400858391564 0  0.6874261163154943 0.3750491300657614 0  0.7499127695088096 0.3750599277638523 0  0.8123979388552758 0.3750726536346218 0  0.8748817564401321 0.3750873283954074 0  0.9373644761100077 0.3751036910931583 0  0.9998464638835225 0.3751210817630952 0  0 0.4375 0  0.06249583561524202 0.4375023548905646 0  0.1249915212705452 0.4375048013622623 0  0.1874869029797058 0.4375074345405955 0  0.2499818191451348 0.4375103566894114 0  0.3124760973574264 0.4375136809342754 0  0.3749695521585148 0.4375175350609857 0  0.4374619844869519 0.4375220651770924 0  0.4999531838970846 0.43752743869261 0  0.5624429351018022 0.4375338454683718 0  0.6249310308223508 0.4375414949390006 0  0.6874172930602936 0.4375506054022844 0  0.749901604189969 0.4375613795729225 0  0.8123839468810294 0.4375739588001347 0  0.8748644470560669 0.4375883496663676 0  0.9373434074404204 0.4376043261455884 0  0.9998213153681684 0.4376213333091867 0  0 0.5 0  0.06249568356197094 0.5000023842922149 0  0.1249912038058836 0.5000048594660792 0  0.1874863919760429 0.5000075196630518 0  0.2499810685867032 0.5000104655892003 0  0.3124750383317478 0.5000138078953738 0  0.3749680855972693 0.500017670598498 0  0.4374599712873817 0.5000221943994495 0  0.4999504322361296 0.5000275395436417 0  0.562439185305213 0.5000338874916679 0  0.6249259393336334 0.5000414400003508 0  0.6874104191527132 0.5000504130827427 0  0.7498924061298153 0.5000610215086315 0  0.8123717975029947 0.5000734469337387 0  0.8748486795981788 0.5000877799493754 0  0.9373233961589783 0.5001039258568587 0  0.9997965770652547 0.5001214732708273 0  0 0.5625 0  0.06249569475837707 0.5625023227500955 0  0.1249912182312933 0.56250473241482 0  0.1874863922121318 0.5625073188342782 0  0.2499810244030454 0.5625101777634662 0  0.3124749010747074 0.5625134139400053 0  0.3749677796199678 0.5625171442714113 0  0.437459381492221 0.5625215011624056 0  0.4999493867196357 0.562526635988763 0  0.5624374324066682 0.562532722693922 0  0.6249231195898356 0.5625399613689493 0  0.687406035551457 0.562548581236796 0  0.7498858015582394 0.5625588410263179 0  0.8123621564949157 0.5625710207174549 0  0.8748350790622993 0.5625853891892119 0  0.9373049255611969 0.5626021144224288 0  0.9997725120198577 0.562621060796613 0  0 0.625 0  0.06249587707348479 0.6250021742443379 0  0.1249915818570126 0.6250044284916818 0  0.1874869337962346 0.6250068452901572 0  0.2499817351037689 0.6250095123627468 0  0.3124757610543152 0.6250125253289903 0  0.374968749089733 0.62501599063603 0  0.4374603866830618 0.6250200288871401 0  0.4999502985532091 0.6250247789513371 0  0.5624380352208941 0.6250304036250607 0  0.6249230676941774 0.6250370982905817 0  0.6874047981483306 0.6250451049372371 0  0.7498826044203483 0.6250547344128689 0  0.8123559452918172 0.6250663972058166 0  0.8748245546741584 0.6250806299513095 0  0.9372887201554554 0.6250980654843408 0  0.9997495307483187 0.6251192100703173 0  0 0.6875 0  0.06249623142070514 0.6875019456973295 0  0.1249922979335978 0.6875039619121225 0  0.1874880254518766 0.6875061212791151 0  0.2499832203811621 0.687508500754221 0  0.3124776578683697 0.6875111838897737 0  0.3749710675086848 0.6875142633190982 0  0.437463115545756 0.687517843699912 0  0.4999533828045469 0.6875220456852154 0  0.5624413385332364 0.6875270122002771 0  0.6249263130923732 0.6875329198040669 0  0.6874074792423929 0.6875400008583891 0  0.7498838664980166 0.6875485873010607 0  0.8123544600269379 0.6875591931364863 0  0.8748184715119708 0.6875726517122911 0  0.937275874054714 0.6875902817325581 0  0.9997281275864948 0.6876138843064586 0  0 0.75 0  0.06249675034884591 0.7500016466013114 0  0.1249933525320921 0.7500033520819192 0  0.1874896490395955 0.7500051769740514 0  0.2499854621928138 0.7500071851777664 0  0.3124805812667433 0.750009445675098 0  0.3749747457598095 0.7500120343160714 0  0.4374676226880754 0.7500150358046945 0  0.4999587750619101 0.7500185462468976 0  0.5624476180914926 0.7500226772547328 0  0.6249333601763675 0.7500275642677608 0  0.687414930439443 0.7500333860285968 0  0.7498909116451009 0.7500404126546585 0  0.8123595454955388 0.7500491234904306 0  0.8748189883125844 0.7500604804795699 0  0.9372681773464137 0.7500764862559054 0  0.9997086997109632 0.7501010066715014 0  0 0.8125 0  0.06249741708074195 0.8125012885960983 0  0.124994712290092 0.8125026227425772 0  0.1874917552647171 0.8125040491714732 0  0.2499883970848099 0.8125056169991813 0  0.3124844578334255 0.812507378832611 0  0.3749797095435212 0.812509391725746 0  0.4374738514151011 0.8125117178421235 0  0.4999664722737813 0.8125144245788036 0  0.5624569920743201 0.8125175838242306 0  0.6249445694540544 0.8125212702746686 0  0.6874279568113375 0.8125255607046531 0  0.7499052851919693 0.8125305449748496 0  0.8123737986488468 0.8125363930558394 0  0.8748297344757868 0.8125436339722177 0  0.9372691278408202 0.8125541203153364 0  0.9996915273577273 0.8125737591172756 0  0 0.875 0  0.06249820532801542 0.8750008850071315 0  0.12499632376634 0.8750018010182443 0  0.1874942619138045 0.8750027797777574 0  0.2499919120078177 0.8750038544985548 0  0.3124891419281854 0.8750050604370138 0  0.3749857809217503 0.8750064351619075 0  0.4374815977416536 0.875008018133948 0  0.499976265232998 0.8750098487277342 0  0.5624693000439216 0.8750119607089473 0  0.6249599551461594 0.8750143686280507 0  0.6874470200997802 0.8750170360312088 0  0.7499284386529006 0.8750198048739103 0  0.8124005779912353 0.875022255046543 0  0.8748569594079747 0.8750235140877191 0  0.9372870007638698 0.875022548522255 0  0.9996810936558778 0.8750226950626738 0  0 0.9375 0  0.06249908015495068 0.9375004503730692 0  0.1249981150595043 0.9375009164335961 0  0.1874970559189582 0.9375014142196623 0  0.2499958460758263 0.9375019604519635 0  0.3124944154047969 0.9375025727488298 0  0.3749926720956241 0.9375032695882557 0  0.437490489633065 0.9
[...]
<PointData  Vectors="f_54"> 
<DataArray  type="Float64"  Name="f_54"  NumberOfComponents="3" format="ascii">0.0000000000000000e+00 0.0000000000000000e+00 0.0000000000000000e+00  0.0000000000000000e+00 0.0000000000000000e+00 0.0000000000000000e+00  0.0000000000000000e+00 0.0000000000000000e+00 0.0000000000000000e+00  0.0000000000000000e+00 0.0000000000000000e+00 0.0000000000000000e+00  0.0000000000000000e+00 0.0000000000000000e+00 0.0000000000000000e+00  0.0000000000000000e+00 0.0000000000000000e+00 0.0000000000000000e+00  0.0000000000000000e+00 0.0000000000000000e+00 0.0000000000000000e+00  0.0000000000000000e+00 0.0000000000000000e+00 0.0000000000000000e+00  0.0000000000000000e+00 0.0000000000000000e+00 0.0000000000000000e+00  0.0000000000000000e+00 0.0000000000000000e+00 0.0000000000000000e+00  0.0000000000000000e+00 0.0000000000000000e+00 0.0000000000000000e+00  0.0000000000000000e+00 0.0000000000000000e+00 0.0000000000000000e+00  0.0000000000000000e+00 0.0000000000000000e+00 0.0000000000000000e+00  0.0000000000000000e+00 0.0000000000000000e+00 0.0000000000000000e+00  0.0000000000000000e+00 0.0000000000000000e+00 0.0000000000000000e+00  0.0000000000000000e+00 0.0000000000000000e+00 0.0000000000000000e+00  0.0000000000000000e+00 0.0000000000000000e+00 0.0000000000000000e+00  0.0000000000000000e+00 0.0000000000000000e+00 0.0000000000000000e+00  -1.0393717667677894e-07 1.1111770085172191e-07 0.0000000000000000e+00  -2.1085657883619550e-07 2.2711911513990036e-07 0.0000000000000000e+00  -3.2373598358346816e-07 3.5320064506640259e-07 0.0000000000000000e+00  -4.4553904018592555e-07 4.9523333403617502e-07 0.0000000000000000e+00  -5.7918813198556988e-07 6.6023007471333344e-07 0.0000000000000000e+00  -7.2751512398010959e-07 8.5701739513031952e-07 0.0000000000000000e+00  -8.9318669617740459e-07 1.0972891281636516e-06 0.0000000000000000e+00  -1.0786062197969959e-06 1.3973925702442768e-06 0.0000000000000000e+00  -1.2858022479078965e-06 1.7815937583198202e-06 0.0000000000000000e+00  -1.5163244150997480e-06 2.2885378847359446e-06 0.0000000000000000e+00  -1.7711803827392144e-06 2.9851926932022049e-06 0.0000000000000000e+00  -2.0508716736269138e-06 4.0000100241021299e-06 0.0000000000000000e+00  -2.3557029902657581e-06 5.6106208525259651e-06 0.0000000000000000e+00  -2.6872254855237148e-06 8.5026974493009520e-06 0.0000000000000000e+00  -3.0553941991145551e-06 1.4619407284404863e-05 0.0000000000000000e+00  -3.5149509464991527e-06 3.0223981407063989e-05 0.0000000000000000e+00  0.0000000000000000e+00 0.0000000000000000e+00 0.0000000000000000e+00  -2.0489110113925905e-07 2.1735052415065121e-07 0.0000000000000000e+00  -4.1574923306517884e-07 4.4415363507602663e-07 0.0000000000000000e+00  -6.3854091004593160e-07 6.9044133573936448e-07 0.0000000000000000e+00  -8.7922022804759615e-07 9.6748778316329662e-07 0.0000000000000000e+00  -1.1436808309517371e-06 1.2886459364448003e-06 0.0000000000000000e+00  -1.4376607129328579e-06 1.6705135969445499e-06 0.0000000000000000e+00  -1.7665909594217956e-06 2.1346897414031119e-06 0.0000000000000000e+00  -2.1353894982626718e-06 2.7105994433424996e-06 0.0000000000000000e+00  -2.5482174219866219e-06 3.4403067976335128e-06 0.0000000000000000e+00  -3.0082374077429111e-06 4.3871441421579438e-06 0.0000000000000000e+00  -3.5174302867472321e-06 5.6518535126668284e-06 0.0000000000000000e+00  -4.0764932768848907e-06 7.4035607310450076e-06 0.0000000000000000e+00  -4.6846004980205269e-06 9.9383858230866179e-06 0.0000000000000000e+00  -5.3377087081651227e-06 1.3776894011111302e-05 0.0000000000000000e+00  -6.0192837622638722e-06 1.9734214674774177e-05 0.0000000000000000e+00  -6.6551438243177311e-06 2.8335174529707746e-05 0.0000000000000000e+00  0.0000000000000000e+00 0.0000000000000000e+00 0.0000000000000000e+00  -2.9987836573191202e-07 3.1413094323621901e-07 0.0000000000000000e+00  -6.0870584835851477e-07 6.4170037553486935e-07 0.0000000000000000e+00  -9.3545227679920976e-07 9.9691571688804923e-07 0.0000000000000000e+00  -1.2891099014779202e-06 1.3956168682029561e-06 0.0000000000000000e+00  -1.6786384794242030e-06 1.8563297814764817e-06 0.0000000000000000e+00  -2.1128330468921058e-06 2.4016656406132049e-06 0.0000000000000000e+00  -2.6000950458430633e-06 3.0603012028853308e-06 0.0000000000000000e+00  -3.1481004883911234e-06 3.8699224182556877e-06 0.0000000000000000e+00  -3.7633847608510017e-06 4.8817554584197120e-06 0.0000000000000000e+00  -4.4509078160790947e-06 6.1676662557424730e-06 0.0000000000000000e+00  -5.2137274051549536e-06 7.8311741161922149e-06 0.0000000000000000e+00  -6.0529802662810037e-06 1.0023422710186082e-05 0.0000000000000000e+00  -6.9684141120977514e-06 1.2961480614939521e-05 0.0000000000000000e+00  -7.9596912915194007e-06 1.6930572746809925e-05 0.0000000000000000e+00  -9.0290258212320826e-06 2.2203034437877206e-05 0.0000000000000000e+00  -1.0190873634087360e-05 2.8718114963521462e-05 0.0000000000000000e+00  0.0000000000000000e+00 0.0000000000000000e+00 0.0000000000000000e+00  -3.8591788772552317e-07 3.9747386216505581e-07 0.0000000000000000e+00  -7.8374204251378324e-07 8.1159874481673848e-07 0.0000000000000000e+00  -1.2054475791130262e-06 1.2598973720293495e-06 0.0000000000000000e+00  -1.6631194967550248e-06 1.7617211043685077e-06 0.0000000000000000e+00  -2.1689155643493514e-06 2.3393686996124206e-06 0.0000000000000000e+00  -2.7349164222951079e-06 3.0194829041169650e-06 0.0000000000000000e+00  -3.3728254720444826e-06 3.8348724105039566e-06 0.0000000000000000e+00  -4.0934919664811864e-06 4.8269496191712057e-06 0.0000000000000000e+00  -4.9062607290514548e-06 6.0489980391563489e-06 0.0000000000000000e+00  -5.8182167204217057e-06 7.5703957650628924e-06 0.0000000000000000e+00  -6.8335153119807321e-06 9.4814574881937729e-06 0.0000000000000000e+00  -7.9532038600277966e-06 1.1897032899709309e-05 0.0000000000000000e+00  -9.1763044123203259e-06 1.4952912573055167e-05 0.0000000000000000e+00  -1.0503553085421654e-05 1.8780107051788888e-05 0.0000000000000000e+00  -1.1946222546860610e-05 2.3428598027257889e-05 0.0000000000000000e+00  -1.3542969157029763e-05 2.8715547878027599e-05 0.0000000000000000e+00  0.0000000000000000e+00 0.0000000000000000e+00 0.0000000000000000e+00  -4.6005298085478044e-07 4.6416690825563943e-07 0.0000000000000000e+00  -9.3489583452669712e-07 9.4732099423377733e-07 0.0000000000000000e+00  -1.4394720837689545e-06 1.4693470201159357e-06 0.0000000000000000e+00  -1.9889962669746932e-06 2.0519883471162114e-06 0.0000000000000000e+00  -2.5989737367047954e-06 2.7199189852651121e-06 0.0000000000000000e+00  -3.2850705496047251e-06 3.5019899214882932e-06 0.0000000000000000e+00  -4.0627687757303002e-06 4.4327020806374286e-06 0.0000000000000000e+00  -4.9467412095811869e-06 5.5539242038003192e-06 0.0000000000000000e+00  -5.9498979615291179e-06 6.9167700906304654e-06 0.0000000000000000e+00  -7.0821197252150454e-06 8.5832839233672479e-06 0.0000000000000000e+00  -8.3488395456415421e-06 1.0626974664292913e-05 0.0000000000000000e+00  -9.7499345154371575e-06 1.3129996498445525e-05 0.0000000000000000e+00  -1.1279962226967782e-05 1.6172607741322772e-05 0.0000000000000000e+00  -1.2931906829576102e-05 1.9807917914245293e-05 0.0000000000000000e+00  -1.4709243424049040e-05 2.4015435138732395e-05 0.0000000000000000e+00  -1.6659445600294877e-05 2.8641631685520883e-05 0.0000000000000000e+00  0.0000000000000000e+00 0.0000000000000000e+00 0.0000000000000000e+00  -5.1939987893300768e-07 5.1187344052206074e-07 0.0000000000000000e+00  -1.0563150066131176e-06 1.0441684039969988e-06 0.0000000000000000e+00  -1.6285439833458054e-06 1.6181739027056721e-06 0.0000000000000000e+00  -2.2544107499155599e-06 2.2569525715435412e-06 0.0000000000000000e+00  -2.9528980137739463e-06 2.9863064343135974e-06 0.0000000000000000e+00  -3.7436016318843855e-06 3.8358205153270104e-06 0.0000000000000000e+00  -4.6464074339804265e-06 4.8399684284358023e-06 0.0000000000000000e+00  -5.6807652084059912e-06 6.0391959068106468e-06 0.0000000000000000e+00  -6.8644175532062385e-06 7.4807593930909832e-06 0.0000000000000000e+00  -8.2114601866114717e-06 9.2188330707510942e-06 0.0000000000000000e+00  -9.7297137349641779e-06 1.1312940891263315e-05 0.0000000000000000e+00  -1.1417650052682487e-05 1.3823091203423775e-05 0.0000000000000000e+00  -1.3261615732445307e-05 1.6799285824112699e-05 0.0000000000000000e+00  -1.5234773133039528e-05 2.0263226258366547e-05 0.0000000000000000e+00  -1.7299280894205446e-05 2.4183420543549846e-05 0.0000000000000000e+00  -1.9409031322236878e-05 2.8455807038009017e-05 0.0000000000000000e+00  0.0000000000000000e+00 0.0000000000000000e+00 0.0000000000000000e+00  -5.6123241158925548e-07 5.3915809100714692e-07 0.0000000000000000e+00  -1.1424182219237822e-06 1.0993013575800441e-06 0.0000000000000000e+00  -1.7639724269532226e-06 1.7022191365903694e-06 0.0000000000000000e+00  -2.4471945801182266e-06 2.3713269142933894e-06 0.0000000000000000e+00  -3.2145899926443001e-06 3.1325102532738397e-06 0.0000000000000000e+00  -4.0900071595491205e-06 4.0149814859400797e-06 0.0000000000000000e+00  -5.0984614582789552e-06 5.0521019319330811e-06 0.0000000000000000e+00  -6.2654508571811392e-06 6.2820540337295351e-06 0.0000000000000000e+00  -7.6154906493156710e-06 7.7481282620652628e-06 0.0000000000000000e+00  -9.1695210146635803e-06 9.4981962175331354e-06 0.0000000000000000e+00  -1.0940825834598528e-05 1.1582664567116629e-05 0.0000000000000000e+00  -1.2929250561852560e-05 1.4049895053802661e-05 0.0000000000000000e+00  -1.5113991392664432e-05 1.6937944086897306e-05 0.0000000000000000e+00  -1.7446208688256666e-05 2.0262023307664142e-05 0.0000000000000000e+00  -1.9844011277270759e-05 2.3999035545504679e-05 0.0000000000000000e+00  -2.2192480058159603e-05 2.8073672999460011e-05 0.0000000000000000e+00  0.0000000000000000e+00 0.0000000000000000e+00 0.0000000000000000e+00  -5.8311107493399635e-07 5.4545581996308910e-07 0.0000000000000000e+00  -1.1881494387603814e-06 1.1116545292613522e-06 0.0000000000000000e+00  -1.8377255731798386e-06 1.7200645885806078e-06 0.0000000000000000e+00  -2.5557930401486135e-06 2.3936097680879403e-06 0.0000000000000000e+00  -3.3682419081494562e-06 3.1574016437733561e-06 0.0000000000000000e+00  -4.3033492070643807e-06 4.0394565611306501e-06 0.0000000000000000e+00  -5.3919438557814137e-06 5.0713500743186345e-06 0.0000000000000000e+00  -6.6670372545957391e-06 6.2887129385856239e-06 0.0000000000000000e+00  -8.1625103806239543e-06 7.7313952588673903e-06 0.0000000000000000e+00  -9.9102305403975480e-06 9.4430118353563179e-06 0.0000000000000000e+00  -1.1934729727918585e-05 1.1469434239585936e-05 0.0000000000000000e+00  -1.4244441835811905e-05 1.3855644709581005e-05 0.0000000000000000e+00  -1.6818804145017506e-05 1.6640306366623964e-05 0.0000000000000000e+00  -1.9591996324971550e-05 1.9847622083370051e-05 0.0000000000000000e+00  -2.2438062280861560e-05 2.3476804956213532e-05 0.0000000000000000e+00  -2.5171108766839929e-05 2.7490826731392989e-05 0.0000000000000000e+00  0.0000000000000000e+00 0.0000000000000000e+00 0.0000000000000000e+00  -5.8306022518226826e-07 5.3100737531644838e-07 0.0000000000000000e+00  -1.1893373307237925e-06 1.0817896011007097e-06 0.0000000000000000e+00  -1.8429778148977577e-06 1.6727637162568352e-06 0.0000000000000000e+00  -2.5699953572001056e-06 2.3256286437837181e-06 0.0000000000000000e+00  -3.3992138224640177e-06 3.0640041870034820e-06 0.0000000000000000e+00  -4.3631733260543931e-06 3.9140552023282696e-06 0.0000000000000000e+00  -5.4988852922953091e-06 4.9050741677498112e-06 0.0000000000000000e+00  -6.8481873002943914e-06 6.0699745151004008e-06 0.0000000000000000e+00  -8.4572097625040352e-06 7.4456192767580296e-06 0.0000000000000000e+00  -1.0374070499062325e-05 9.0728737957951148e-06 0.0000000000000000e+00  -1.2643316139794679e-05 1.0996221970905579e-05 0.0000000000000000e+00  -1.5294874007966210e-05 1.3262700940763329e-05 0.0000000000000000e+00  -1.8324693212613403e-05 1.5919730446092827e-05 0.0000000000000000e+00  -2.1664863947349318e-05 1.9011045647067331e-05 0.0000000000000000e+00  -2.5145181687634553e-05 2.2569430464223196e-05 0.0000000000000000e+00  -2.8460165792671369e-05 2.6605294694964591e-05 0.0000000000000000e+00  0.0000000000000000e+00 0.0000000000000000e+00 0.0000000000000000e+00  -5.5978835178777390e-07 4.9677932688544454e-07 0.0000000000000000e+00  -1.1431541277184519e-06 1.0117246188581358e-06 0.0000000000000000e+00  -1.7748409082546713e-06 1.5635594618524689e-06 0.0000000000000000e+00  -2.4819789333405562e-06 2.1721182950855540e-06 0.0000000000000000e+00  -3.2954191591125406e-06 2.8589041397854064e-06 0.0000000000000000e+00  -4.2512090070206882e-06 3.6476466978392702e-06 0.0000000000000000e+00  -5.3921868402745364e-06 4.5648606425315321e-06 0.0000000000000000e+00  -6.7695492454566193e-06 5.6404117741804409e-06 0.0000000000000000e+00  -8.4439817166869710e-06 6.9081216087533244e-06 0.0000000000000000e+00  -1.0485413008816371e-05 8.4064884483631877e-06 0.0000000000000000e+00  -1.2969457367837992e-05 1.0179673711133473e-05 0.0000000000000000e+00  -1.5966904459770523e-05 1.2278942197382533e-05 0.0000000000000000e+00  -1.9520113979310998e-05 1.4764542412413785e-05 0.0000000000000000e+00  -2.3597552620475315e-05 1.7707015247006967e-05 0.0000000000000000e+00  -2.8017795999717376e-05 2.1184143351322074e-05 0.0000000000000000e+00  -3.2344039419577852e-05 2.5264591642306430e-05 0.0000000000000000e+00  0.0000000000000000e+00 0.0000000000000000e+00 0.0000000000000000e+00  -5.1293310996240088e-07 4.4437936042283151e-07 0.0000000000000000e+00  -1.0486401340179000e-06 9.0476075113089500e-07 0.0000000000000000e+00  -1.6312381749874659e-06 1.3976174959043915e-06 0.0000000000000000e+00  -2.2876393021291450e-06 1.9403611649250547e-06 0.0000000000000000e+00  -3.0492449753288912e-06 2.5518190266145004e-06 0.0000000000000000e+00  -3.9540144033419815e-06 3.2527261641741655e-06 0.0000000000000000e+00  -5.0490443879864500e-06 4.0662517325610680e-06 0.0000000000000000e+00  -6.3937586369247600e-06 5.0186073178456259e-06 0.0000000000000000e+00  -8.0636427374787867e-06 6.1398494563175212e-06 0.0000000000000000e+00  -1.0153995321492259e-05 7.4651205034895497e-06 0.0000000000000000e+00  -1.2782013734243213e-05 9.0368168557912392e-06 0.0000000000000000e+00  -1.6082969357370150e-05 1.0908549405839760e-05 0.0000000000000000e+00  -2.0191125652979792e-05 1.3152087164579705e-05 0.0000000000000000e+00  -2.5187384901049013e-05 1.5867829654890442e-05 0.0000000000000000e+00  -3.0984712691727228e-05 1.9194923849228210e-05 0.0000000000000000e+00  -3.7117175083366442e-05 2.3303860719413515e-05 0.0000000000000000e+00  0.0000000000000000e+00 0.0000000000000000e+00 0.0000000000000000e+00  -4.4329661801510585e-07 3.7597063833006675e-07 0.0000000000000000e+00  -9.0722368101109540e-07 7.6531141651471737e-07 0.0000000000000000e+00  -1.4138156666100094e-06 1.1817740831515757e-06 0.0000000000000000e+00  -1.9880712196126060e-06 1.6398692074444627e-06 0.0000000000000000e+00  -2.6598728334654986e-06 2.1552552662438024e-06 0.0000000000000000e+00  -3.4665101360355937e-06 2.7451451869731307e-06 0.0000000000000000e+00  -4.4561470067671036e-06 3.4287524644710181e-06 0.0000000000000000e+00  -5.6926967334048382e-06 4.2278294931231913e-06 0.0000000000000000e+00  -7.2626911320375959e-06 5.1674236315461276e-06 0.0000000000000000e+00  -9.2847115720418590e-06 6.2771486753984732e-06 0.0000000000000000e+00  -1.1921366398562928e-05 7.5936699626720570e-06 0.0000000000000000e+00  -1.5391505919506682e-05 9.1659941723704156e-06 0.0000000000000000e+00  -1.9973691991983829e-05 1.1066931193174275e-05 0.0000000000000000e+00  -2.5975936428864045e-05 1.3416615756640467e-05 0.0000000000000000e+00  -3.3616804085219908e-05 1.6422963446867184e-05 0.0000000000000000e+00  -4.2730788771034537e-05 2.0419477606935509e-05 0.0000000000000000e+00  0.0000000000000000e+00 0.0000000000000000e+00 0.0000000000000000e+00  -3.5302160730327964e-07 2.9418480510444225e-07 0.0000000000000000e+00  -7.2312989748153467e-07 5.9872979360018516e-07 0.0000000000000000e+00  -1.1287115089250484e-06 9.2428334323557185e-07 0.0000000000000000e+00  -1.5909309714426650e-06 1.2820652285448381e-06 0.0000000000000000e+00  -2.1356270741571061e-06 1.6841576139894666e-06 0.0000000000000000e+00  -2.7959505721130809e-06 2.1438037560160472e-06 0.0000000000000000e+00  -3.6162539754064445e-06 2.6757211235934301e-06 0.0000000000000000e+00  -4.6580661300815821e-06 3.2964438635346492e-06 0.0000000000000000e+00  -6.0095271261399198e-06 4.0247342246506884e-06 0.0000000000000000e+00  -7.8005150686414345e-06 4.8821855520550950e-06 0.0000000000000000e+00  -1.0226827267286743e-05 5.8944317577893768e-06 0.0000000000000000e+00  -1.3587427824360149e-05 7.0943970193550386e-06 0.0000000000000000e+00  -1.8335474860545501e-05 8.5323873967025845e-06 0.0000000000000000e+00  -2.5125084830321557e-05 1.0307793171485898e-05 0.0000000000000000e+00  -3.4775331897636136e-05 1.2659480992453336e-05 0.0000000000000000e+00  -4.7980773792734726e-05 1.6151771719007496e-05 0.0000000000000000e+00  0.0000000000000000e+00 0.0000000000000000e+00 0.0000000000000000e+00  -2.4565189800714148e-07 2.0203212855228288e-07 0.0000000000000000e+00  -5.0355027659278667e-07 4.1112945756362498e-07 0.0000000000000000e+00  -7.8695095775474936e-07 6.3454956594452055e-07 0.0000000000000000e+00  -1.1112867968589782e-06 8.7992970921151294e-07 0.0000000000000000e+00  -1.4957133507280694e-06 1.1554760086939749e-06 0.0000000000000000e+00  -1.9653497751711789e-06 1.4701474236665394e-06 0.0000000000000000e+00  -2.5547577381084773e-06 1.8338206708908044e-06 0.0000000000000000e+00  -3.3136384258488963e-06 2.2573967496163627e-06 0.0000000000000000e+00  -4.3165992283598853e-06 2.7527442888307759e-06 0.0000000000000000e+00  -5.6806100037475941e-06 3.3322174950214262e-06 0.0000000000000000e+00  -7.5973726454489241e-06 4.0071524775284052e-06 0.0000000000000000e+00  -1.0394893028329156e-05 4.7842664976117111e-06 0.0000000000000000e+00  -1.4654138900578660e-05 5.6595967581726832e-06 0.0000000000000000e+00  -2.1411333633222749e-05 6.6213280119334952e-06 0.0000000000000000e+00  -3.2375269156490743e-05 7.7533820728651895e-06 0.0000000000000000e+00  -4.9271711782673745e-05 1.0000466266117468e-05 0.0000000000000000e+00  0.0000000000000000e+00 0.0000000000000000e+00 0.0000000000000000e+00  -1.2602854277061713e-07 1.0280841948149800e-07 0.0000000000000000e+00  -2.5845658970391478e-07 2.0919695330070830e-07 0.0000000000000000e+00  -4.0423721505872329e-07 3.2284174033702733e-07 0.0000000000000000e+00  -5.7152458315076919e-07 4.4760757863755781e-07 0.0000000000000000e+00  -7.7054796517952747e-07 5.8763950869680716e-07 0.0000000000000000e+00  -1.0149123332853220e-06 7.4744569056178525e-07 0.0000000000000000e+00  -1.3236849459158254e-06 9.3195314596189178e-07 0.0000000000000000e+00  -1.7249603786550011e-06 1.1464825972242973e-06 0.0000000000000000e+00  -2.2623330523704176e-06 1.3964850292695597e-06 0.0000000000000000e+00  -3.0074459477280660e-06 1.6865689901122819e-06 0.0000000000000000e+00  -4.0862306490916096e-06 2.0173546772959899e-06 0.0000000000000000e+00  -5.7388691684564925e-06 2.3753696178938027e-06 0.0000000000000000e+00  -8.4715356143847596e-06 2.6994083867763541e-06 0.0000000000000000e+00  -1.3485396603943316e-05 2.7623712169144743e-06 0.0000000000000000e+00  -2.4030481645458064e-05 1.7314000740888367e-06 0.0000000000000000e+00  -5.0108678646658545e-05 -3.5569019824294457e-06 0.0000000000000000e+00  0.0000000000000000e+00 0.0000000000000000e+00 0.0000000000000000e+00  0.0000000000000000e+00 0.0000000000000000e+00 0.0000000000000000e+00  0.0000000000000000e+00 0.0000000000000000e+00 0.0000000000000000e+00  0.0000000000000000e+00 0.0000000000000000e+00 0.0000000000000000e+00  0.0000000000000000e+00 0.0000000000000000e+00 0.0000000000000000e+00  0.0000000000000000e+00 0.0000000000000000e+00 0.0000000000000000e+00  0.0000000000000000e+00 0.0000000000000000e+00 0.0000000000000000e+00  0.0000000000000000e+00 0.0000000000000000e+00 0.0000000000000000e+00  0.0000000000000000e+00 0.0000000000000000e+00 0.000