<?xml version="1.0"?>
<VTKFile type="UnstructuredGrid"  version="0.1"  >
<UnstructuredGrid>
<Piece  NumberOfPoints="289" NumberOfCells="512">
<Points>
<DataArray  type="Float64"  NumberOfComponents="3"  format="ascii">0 0 0  0.0625 0 0  0.125 0 0  0.1875 0 0  0.25 0 0  0.3125 0 0  0.375 0 0  0.4375 0 0  0.5 0 0  0.5625 0 0  0.625 0 0  0.6875 0 0  0.75 0 0  0.8125 0 0  0.875 0 0  0.9375 0 0  1 0 0  0 0.0625 0  0.06249904380048241 0.06250123513291687 0  0.1249980595896728 0.06250252219041424 0  0.1874970191120115 0.06250391619691295 0  0.2499958941318175 0.06250547880401265 0  0.3124946566491336 0.06250728288844958 0  0.3749932793822458 0.06250941918843873 0  0.4374917366044091 0.06251200677742562 0  0.4999900054134375 0.0625152109524186 0  0.5624880674961018 0.06251927617811194 0  0.6249859114352818 0.06252459168491276 0  0.6874835356335729 0.06253183379415295 0  0.7499809520581253 0.06254230600775583 0  0.8124781911524446 0.06255884290513639 0  0.8749753066888853 0.06258849406203462 0  0.9374723647812611 0.06265138797858925 0  0.9999693242859035 0.06281286967230094 0  0 0.125 0  0.06249811572833661 0.1250024181396918 0  0.1249961754443149 0.1250049370122266 0  0.1874941225872797 0.1250076630894651 0  0.2499919004596713 0.1250107150292457 0  0.3124894525705116 0.1250142318808057 0  0.3749867235155915 0.1250183845445694 0  0.4374836605778003 0.1250233931194034 0  0.4999802162149181 0.1250295549976686 0  0.5624763515600961 0.1250372930817487 0  0.6249720410002777 0.1250472427696262 0  0.6874672778985585 0.1250604153125903 0  0.7499620819454627 0.1250785114713549 0  0.8124565110031651 0.1251045118039882 0  0.8749506916283 0.1251436352612571 0  0.9374449360050316 0.1252038730142906 0  0.9999402765997739 0.1252890673572405 0  0 0.1875 0  0.06249724398212955 0.1875035001974747 0  0.1249944040726226 0.187507144192547 0  0.1874913954066042 0.1875110833969993 0  0.2499881324740702 0.1875154852234387 0  0.3124845294103766 0.1875205433692612 0  0.3749805010951565 0.1875264914557734 0  0.4374759653575851 0.1875336223728354 0  0.4999708465725321 0.187542317185641 0  0.5624650808583738 0.1875530899541014 0  0.6249586229043221 0.1875666585104861 0  0.6874514540701946 0.1875840550929945 0  0.7499435905208568 0.1876067880980566 0  0.8124350874552836 0.187637030690994 0  0.8749260243690637 0.1876776606216534 0  0.9374164032184277 0.1877315278170053 0  0.9999056223198292 0.1877986994427946 0  0 0.25 0  0.06249645658234178 0.2500044382303725 0  0.1249928018032899 0.2500090557121889 0  0.187488922719513 0.2500140403433984 0  0.2499847047135641 0.2500195979630457 0  0.3124800314506483 0.250025963216936 0  0.3749747859042719 0.2500334130176933 0  0.4374688528926868 0.2500422840212047 0  0.4999621235908036 0.2500529959888756 0  0.5624545024263808 0.2500660831764501 0  0.6249459165559209 0.2500822350813346 0  0.687436327636312 0.2501023433512928 0  0.7499257447508501 0.2501275366350506 0  0.8124142362124724 0.2501591448716572 0  0.8749019383556582 0.2501984461559901 0  0.9373890745157042 0.2502459155830919 0  0.9998761113739985 0.2502996985958622 0  0 0.3125 0  0.06249578106386262 0.3125051967795143 0  0.124991424252139 0.3125105996234935 0  0.187486789255344 0.3125164235531912 0  0.2499817323891512 0.3125229019257781 0  0.3124761058290935 0.3125302968185913 0  0.3749697581280118 0.312538910882501 0  0.4374625366312103 0.3125491010766889 0  0.499954292514813 0.3125612943492864 0  0.5624448892131015 0.312576004291578 0  0.6249342148616883 0.3125938451435718 0  0.6874221989107496 0.3126155334334955 0  0.7499088321028039 0.3126418549369711 0  0.8123941875724612 0.312673552330968 0  0.8748784393608255 0.3127110602544965 0  0.9373618731916908 0.3127540108910181 0  0.9998448688583165 0.3128005519680683 0  0 0.375 0  0.06249524391943768 0.3750057490343354 0  0.1249903252784805 0.3750117219919188 0  0.1874850779434378 0.375018151574173 0  0.2499793299268374 0.375025288231053 0  0.3124729014057701 0.3750334095644319 0  0.3749656041239546 0.3750428301584477 0  0.4374572429733751 0.375053911506947 0  0.4999476208135819 0.3750670709925069 0  0.5624365478301683 0.375082787459262 0  0.6249238568179083 0.3751015982772033 0  0.6874094254469747 0.3751240782092006 0  0.7498932054723941 0.3751507834318226 0  0.8123752566280801 0.3751821362558761 0  0.8748557796011309 0.3752182253148476 0  0.9373351388524751 0.375258524420181 0  0.9998138649451018 0.3753016333976788 0  0 0.4375 0  0.06249486972638717 0.4375060771456594 0  0.1249895552816277 0.4375123872897908 0  0.1874838674856953 0.4375191717884317 0  0.2499776080283782 0.4375266887410502 0  0.3124705656962845 0.4375352213923366 0  0.3749625138721462 0.4375450862662239 0  0.43745321023914 0.437556640331242 0  0.499942400100997 0.4375702857436163 0  0.5624298253130426 0.4375864694677465 0  0.6249152413699799 0.4376056731518834 0  0.6873984453591657 0.4376283859965613 0  0.7498793165767146 0.4376550504843774 0  0.8123578685958265 0.4376859695784412 0  0.8748343055556451 0.4377211686803898 0  0.9373090669932714 0.4377602232418734 0  0.9997828392807377 0.4378020971131196 0  0 0.5 0  0.06249467991423733 0.500006172053039 0  0.1249891587321497 0.5000125778055526 0  0.1874832286702517 0.5000194588388697 0  0.2499766688666957 0.5000270724610266 0  0.3124692392282489 0.5000356993753702 0  0.374960675103184 0.5000456508161321 0  0.4374506837131233 0.5000572744047479 0  0.4999389440022703 0.5000709573630409 0  0.5624251126249497 0.5000871248220775 0  0.6249088401550664 0.5001062298125798 0  0.6873898029238635 0.5001287303373594 0  0.7498677561679363 0.5001550482952712 0  0.8123426112848451 0.5001855059203458 0  0.8748145307779317 0.5002202384717713 0  0.937284016802077 0.5002590849371011 0  0.9997519485799928 0.500301450853476 0  0 0.5625 0  0.06249469117668167 0.5625060330722821 0  0.1249891709186568 0.5625122926338346 0  0.1874832193267767 0.5625190126156275 0  0.2499765991368071 0.5625264418267066 0  0.3124690467106791 0.5625348512435406 0  0.3749602629595305 0.5625445408901248 0  0.437449904861701 0.5625558457475538 0  0.4999375791472196 0.5625691397008126 0  0.562422841294687 0.5625848359593517 0  0.6249052054927061 0.562603381779394 0  0.6873841746894273 0.5626252449916922 0  0.7498593034045932 0.5626508904578889 0  0.8123303063843265 0.5626807469552261 0  0.8747972159697845 0.562715168679621 0  0.9372605588767958 0.5627543947465098 0  0.99972146510905 0.5627984895618506 0  0 0.625 0  0.06249491360285607 0.6250056674288987 0  0.1249896140344938 0.6250115466537239 0  0.1874838780347627 0.6250178564993981 0  0.2499774609385036 0.6250248299473198 0  0.3124700846428823 0.6250327213162201 0  0.3749614241270189 0.6250418134443472 0  0.4374510925031338 0.6250524246416925 0  0.4999386254220253 0.6250649149330314 0  0.5624234674748451 0.6250796907634256 0  0.6249049668415012 0.6250972069465471 0  0.6873823909205383 0.6251179644982582 0  0.7498549856907378 0.6251425040265456 0  0.812322112702897 0.6251713986247777 0  0.8747834978406923 0.6252052603783772 0  0.9372395834219988 0.6252447853458181 0  0.999691842348471 0.6252908230040458 0  0 0.6875 0  0.06249534869990794 0.6875050898269408 0  0.1249904929344152 0.687510369676341 0  0.1874852170286776 0.6875160361287994 0  0.2499792809365048 0.6875222991169754 0  0.3124724055652673 0.6875293890671734 0  0.3749642549214536 0.6875375646105178 0  0.4374544138907214 0.68754712105309 0  0.4999423607581019 0.6875583997408554 0  0.5624274348264355 0.6875717982672047 0  0.6249088031107685 0.6875877809928804 0  0.6873854389069651 0.6876068884569396 0  0.7498561438505634 0.6876297435539658 0  0.8123196789343268 0.6876570557930759 0  0.8747751126291623 0.6876896468494061 0  0.9372224893796789 0.6877285934317174 0  0.9996636858028745 0.6877757055847618 0  0 0.75 0  0.06249598758979631 0.7500043220440876 0  0.1249917911412685 0.7500088057218454 0  0.1874872151880826 0.7500136185692324 0  0.24998203895774 0.7500189402868275 0  0.3124760002039141 0.7500249696421259 0  0.3749687741694493 0.7500319325149285 0  0.4374599450045837 0.7500400917446319 0  0.4999489660781242 0.7500497596659836 0  0.5624351049069114 0.7500613143493169 0  0.6249173692351654 0.7500752201125688 0  0.6873944171482792 0.7500920505965718 0  0.7498644766026391 0.7501125061940143 0  0.8123253622447386 0.7501374056274216 0  0.8747748186018008 0.7501676321008807 0  0.9372116368861766 0.7502041505101428 0  0.9996379396991558 0.7502489904413218 0  0 0.8125 0  0.06249680976062594 0.8125033924664968 0  0.1249934679221642 0.8125069122166148 0  0.1874898124817564 0.8125106914727502 0  0.249985658078523 0.8125148727573929 0  0.3124807803138164 0.8125196150748993 0  0.3749748942061307 0.8125251016255378 0  0.4374676228140604 0.8125315501364346 0  0.4999584496318686 0.8125392275482157 0  0.5624466443549166 0.812548471727974 0  0.624931145608618 0.8125597237184561 0  0.6874103775771848 0.8125735727732294 0  0.7498819798008196 0.81259080531438 0  0.812342481298302 0.8126124028647966 0  0.8747871891272789 0.8126392884409539 0  0.9372113479338765 0.8126713075221663 0  0.9996153114952905 0.8127051736801333 0  0 0.875 0  0.06249778279248439 0.8750023354359815 0  0.1249954573838823 0.875004758810155 0  0.1874929075827635 0.8750073616591603 0  0.2499899990796472 0.8750102430996908 0  0.3124865668128931 0.8750135145955857 0  0.3749823968714841 0.8750173062469262 0  0.4374771987029177 0.8750217758548866 0  0.499970559975384 0.8750271230787244 0  0.5624618695659406 0.8750336131161693 0  0.6249501800223042 0.8750416185067547 0  0.6874339516573867 0.875051695274202 0  0.7499105624375885 0.8750647193031948 0  0.812375372334463 0.8750820935768752 0  0.8748201040780564 0.8751058113986898 0  0.9372312735659024 0.8751366615689588 0  0.9995969980218716 0.8751602051689146 0  0 0.9375 0  0.06249886340929728 0.9375011902864051 0  0.1249976704320444 0.9375024255165136 0  0.1874963603275294 0.9375037525412673 0  0.2499948624219295 0.9375052222565535 0  0.3124930890116813 0.937506892228969 0  0.3749909249238202 0.9375088302944145 0  0.43748821091836 0.937
[...]
<PointData  Vectors="f_54"> 
<DataArray  type="Float64"  Name="f_54"  NumberOfComponents="3" format="ascii">0.0000000000000000e+00 0.0000000000000000e+00 0.0000000000000000e+00  0.0000000000000000e+00 0.0000000000000000e+00 0.0000000000000000e+00  0.0000000000000000e+00 0.0000000000000000e+00 0.0000000000000000e+00  0.0000000000000000e+00 0.0000000000000000e+00 0.0000000000000000e+00  0.0000000000000000e+00 0.0000000000000000e+00 0.0000000000000000e+00  0.0000000000000000e+00 0.0000000000000000e+00 0.0000000000000000e+00  0.0000000000000000e+00 0.0000000000000000e+00 0.0000000000000000e+00  0.0000000000000000e+00 0.0000000000000000e+00 0.0000000000000000e+00  0.0000000000000000e+00 0.0000000000000000e+00 0.0000000000000000e+00  0.0000000000000000e+00 0.0000000000000000e+00 0.0000000000000000e+00  0.0000000000000000e+00 0.0000000000000000e+00 0.0000000000000000e+00  0.0000000000000000e+00 0.0000000000000000e+00 0.0000000000000000e+00  0.0000000000000000e+00 0.0000000000000000e+00 0.0000000000000000e+00  0.0000000000000000e+00 0.0000000000000000e+00 0.0000000000000000e+00  0.0000000000000000e+00 0.0000000000000000e+00 0.0000000000000000e+00  0.0000000000000000e+00 0.0000000000000000e+00 0.0000000000000000e+00  0.0000000000000000e+00 0.0000000000000000e+00 0.0000000000000000e+00  0.0000000000000000e+00 0.0000000000000000e+00 0.0000000000000000e+00  1.0663685059783770e-07 -9.3165975794348547e-08 0.0000000000000000e+00  2.1642732377457909e-07 -1.9040437923597640e-07 0.0000000000000000e+00  3.3252731808078147e-07 -2.9604163405785759e-07 0.0000000000000000e+00  4.5809550960818561e-07 -4.1495597505173435e-07 0.0000000000000000e+00  5.9627062664940309e-07 -5.5295806820232481e-07 0.0000000000000000e+00  7.5011985648449030e-07 -7.1733717852027514e-07 0.0000000000000000e+00  9.2254896000080214e-07 -9.1771715596648152e-07 0.0000000000000000e+00  1.1161659199127819e-06 -1.1675081935143980e-06 0.0000000000000000e+00  1.3330922375522834e-06 -1.4865636393351936e-06 0.0000000000000000e+00  1.5747178669034417e-06 -1.9064396855800841e-06 0.0000000000000000e+00  1.8413902519034000e-06 -2.4817354541664673e-06 0.0000000000000000e+00  2.1319893966543395e-06 -3.3169666696085719e-06 0.0000000000000000e+00  2.4431782519132872e-06 -4.6371744141756441e-06 0.0000000000000000e+00  2.7674968331873828e-06 -6.9944697738680682e-06 0.0000000000000000e+00  3.0871110095999963e-06 -1.1938305917362859e-05 0.0000000000000000e+00  3.3508704734357509e-06 -2.4400217446822054e-05 0.0000000000000000e+00  0.0000000000000000e+00 0.0000000000000000e+00 0.0000000000000000e+00  2.1012094441974489e-07 -1.8226018651071751e-07 0.0000000000000000e+00  4.2654241199908104e-07 -3.7240718607844409e-07 0.0000000000000000e+00  6.5557944187372664e-07 -5.7879905126446711e-07 0.0000000000000000e+00  9.0357170938975002e-07 -8.1081088858961438e-07 0.0000000000000000e+00  1.1768478446210732e-06 -1.0795167831227156e-06 0.0000000000000000e+00  1.4816317029502074e-06 -1.3986376147137391e-06 0.0000000000000000e+00  1.8238708561350083e-06 -1.7859666165736765e-06 0.0000000000000000e+00  2.2089699607006862e-06 -2.2656626736763302e-06 0.0000000000000000e+00  2.6414177368300912e-06 -2.8721639947187742e-06 0.0000000000000000e+00  3.1243071273104753e-06 -3.6572244407187274e-06 0.0000000000000000e+00  3.6587630892607030e-06 -4.7031236231219843e-06 0.0000000000000000e+00  4.2433075152810421e-06 -6.1481496950704308e-06 0.0000000000000000e+00  4.8732035086437753e-06 -8.2353184977697685e-06 0.0000000000000000e+00  5.5398763739079353e-06 -1.1395884839970024e-05 0.0000000000000000e+00  6.2309688354730822e-06 -1.6325853712771029e-05 0.0000000000000000e+00  6.9345473647130337e-06 -2.3607465012573755e-05 0.0000000000000000e+00  0.0000000000000000e+00 0.0000000000000000e+00 0.0000000000000000e+00  3.0730898326889959e-07 -2.6347113996927771e-07 0.0000000000000000e+00  6.2404289430180730e-07 -5.3816521051791893e-07 0.0000000000000000e+00  9.5967314886318131e-07 -8.3593205370877560e-07 0.0000000000000000e+00  1.3237557493234561e-06 -1.1699609547445149e-06 0.0000000000000000e+00  1.7259026295104889e-06 -1.5556404776301954e-06 0.0000000000000000e+00  2.1756655825807458e-06 -2.0116958151226147e-06 0.0000000000000000e+00  2.6823006093024269e-06 -2.5617934381256509e-06 0.0000000000000000e+00  3.2543825414424547e-06 -3.2369223334784058e-06 0.0000000000000000e+00  3.8992486267292114e-06 -4.0790601532410946e-06 0.0000000000000000e+00  4.6222703493765558e-06 -5.1469301351659511e-06 0.0000000000000000e+00  5.4259920754322786e-06 -6.5249699041710349e-06 0.0000000000000000e+00  6.3092464359763322e-06 -8.3364280121164525e-06 0.0000000000000000e+00  7.2664998027566915e-06 -1.0758566960407924e-05 0.0000000000000000e+00  8.2880475615253012e-06 -1.4024900729189492e-05 0.0000000000000000e+00  9.3628453982437592e-06 -1.8356952156432920e-05 0.0000000000000000e+00  1.0489875402592059e-05 -2.3675524626227968e-05 0.0000000000000000e+00  0.0000000000000000e+00 0.0000000000000000e+00 0.0000000000000000e+00  3.9507913979402241e-07 -3.3346449137069958e-07 0.0000000000000000e+00  8.0265060980680157e-07 -6.8085219752416838e-07 0.0000000000000000e+00  1.2353140560477329e-06 -1.0568000554642813e-06 0.0000000000000000e+00  1.7058701421104509e-06 -1.4774509108105214e-06 0.0000000000000000e+00  2.2273299166404449e-06 -1.9613693208793444e-06 0.0000000000000000e+00  2.8128086432951250e-06 -2.5306784103484207e-06 0.0000000000000000e+00  3.4752563200595074e-06 -3.2125339094097304e-06 0.0000000000000000e+00  4.2269751764595180e-06 -4.0410842717595179e-06 0.0000000000000000e+00  5.0788811004950131e-06 -5.0600820936589470e-06 0.0000000000000000e+00  6.0394893147479542e-06 -6.3262380760975191e-06 0.0000000000000000e+00  7.1136550118339096e-06 -7.9130287198343672e-06 0.0000000000000000e+00  8.3011867959460467e-06 -9.9134241542230949e-06 0.0000000000000000e+00  9.5955728795867377e-06 -1.2436656833728115e-05 0.0000000000000000e+00  1.0983156738276776e-05 -1.5586768629542741e-05 0.0000000000000000e+00  1.2442820597957024e-05 -1.9399745992008592e-05 0.0000000000000000e+00  1.3943773661326667e-05 -2.3721807768975144e-05 0.0000000000000000e+00  0.0000000000000000e+00 0.0000000000000000e+00 0.0000000000000000e+00  4.7036520066548795e-07 -3.8954035477630940e-07 0.0000000000000000e+00  9.5617112472329024e-07 -7.9498104992344822e-07 0.0000000000000000e+00  1.4730631229814185e-06 -1.2329622549964938e-06 0.0000000000000000e+00  2.0370768485138473e-06 -1.7216637919527448e-06 0.0000000000000000e+00  2.6647284140213300e-06 -2.2816882446285033e-06 0.0000000000000000e+00  3.3729659918583541e-06 -2.9370809943565963e-06 0.0000000000000000e+00  4.1789164009017345e-06 -3.7165244611407862e-06 0.0000000000000000e+00  5.0993488408155307e-06 -4.6547114697828224e-06 0.0000000000000000e+00  6.1497743179415397e-06 -5.7938101801013920e-06 0.0000000000000000e+00  7.3431150764887872e-06 -7.1847035090338635e-06 0.0000000000000000e+00  8.6879299041989328e-06 -8.8871700019035691e-06 0.0000000000000000e+00  1.0186285458229693e-05 -1.0967126828817836e-05 0.0000000000000000e+00  1.1831523999622758e-05 -1.3487241039007772e-05 0.0000000000000000e+00  1.3606354023770826e-05 -1.6485002404521947e-05 0.0000000000000000e+00  1.5481776583248665e-05 -1.9932665857651902e-05 0.0000000000000000e+00  1.7417414024012034e-05 -2.3685237806332285e-05 0.0000000000000000e+00  0.0000000000000000e+00 0.0000000000000000e+00 0.0000000000000000e+00  5.3021837385911870e-07 -4.2972061275980370e-07 0.0000000000000000e+00  1.0786099087793966e-06 -8.7657033843472841e-07 0.0000000000000000e+00  1.6636908227797925e-06 -1.3584001497478913e-06 0.0000000000000000e+00  2.3046412971923706e-06 -1.8945429694771264e-06 0.0000000000000000e+00  3.0215307026803720e-06 -2.5066183100691060e-06 0.0000000000000000e+00  3.8353935272640918e-06 -3.2193980669608179e-06 0.0000000000000000e+00  4.7680700639805123e-06 -4.0617158778696558e-06 0.0000000000000000e+00  5.8416981526591767e-06 -5.0673411598258712e-06 0.0000000000000000e+00  7.0777167272501121e-06 -6.2756146714555183e-06 0.0000000000000000e+00  8.4952335924189191e-06 -7.7314070790562779e-06 0.0000000000000000e+00  1.0108645403420120e-05 -9.4835544185227631e-06 0.0000000000000000e+00  1.1924515570999816e-05 -1.1580314989826954e-05 0.0000000000000000e+00  1.3937953824973777e-05 -1.4059737960946652e-05 0.0000000000000000e+00  1.6129102443018855e-05 -1.6932859891035394e-05 0.0000000000000000e+00  1.8460730203797980e-05 -2.0160265526084799e-05 0.0000000000000000e+00  2.0878150772139269e-05 -2.3630947354262524e-05 0.0000000000000000e+00  0.0000000000000000e+00 0.0000000000000000e+00 0.0000000000000000e+00  5.7190423247574344e-07 -4.5277431345925038e-07 0.0000000000000000e+00  1.1643615803774214e-06 -9.2317828263447956e-07 0.0000000000000000e+00  1.7984471610617155e-06 -1.4295188264809664e-06 0.0000000000000000e+00  2.4962601371268676e-06 -1.9914765834865872e-06 0.0000000000000000e+00  3.2813469911415974e-06 -2.6308211921952827e-06 0.0000000000000000e+00  4.1789878299813511e-06 -3.3721403298624853e-06 0.0000000000000000e+00  5.2162450792167251e-06 -4.2435430009380232e-06 0.0000000000000000e+00  6.4216227991592310e-06 -5.2772374286278249e-06 0.0000000000000000e+00  7.8241223476495693e-06 -6.5097761029940235e-06 0.0000000000000000e+00  9.4514209059639639e-06 -7.9815805960698890e-06 0.0000000000000000e+00  1.1326880358384541e-05 -9.7350892594040731e-06 0.0000000000000000e+00  1.3465186802022078e-05 -1.1810541408407791e-05 0.0000000000000000e+00  1.5866733553161590e-05 -1.4238191053536974e-05 0.0000000000000000e+00  1.8511496268260670e-05 -1.7026090231640654e-05 0.0000000000000000e+00  2.1354072839234209e-05 -2.0144320178468850e-05 0.0000000000000000e+00  2.4322357746019252e-05 -2.3510315118049896e-05 0.0000000000000000e+00  0.0000000000000000e+00 0.0000000000000000e+00 0.0000000000000000e+00  5.9303945431259047e-07 -4.5819791572330835e-07 0.0000000000000000e+00  1.2084837670956527e-06 -9.3384542088564470e-07 0.0000000000000000e+00  1.8694706035631783e-06 -1.4450111343176622e-06 0.0000000000000000e+00  2.6005944737937252e-06 -2.0110074011964400e-06 0.0000000000000000e+00  3.4285924059342697e-06 -2.6530239768313950e-06 0.0000000000000000e+00  4.3829413734154375e-06 -3.3947597430857458e-06 0.0000000000000000e+00  5.4962669730525336e-06 -4.2630195406370110e-06 0.0000000000000000e+00  6.8043849260224330e-06 -5.2882034667426744e-06 0.0000000000000000e+00  8.3456827816430806e-06 -6.5045492265910534e-06 0.0000000000000000e+00  1.0159402095453376e-05 -7.9498811304886828e-06 0.0000000000000000e+00  1.2282235857963126e-05 -9.6644584084859287e-06 0.0000000000000000e+00  1.4742615443402127e-05 -1.1688296471801846e-05 0.0000000000000000e+00  1.7552345107510037e-05 -1.4056088037305489e-05 0.0000000000000000e+00  2.0696188249522951e-05 -1.6788693179947120e-05 0.0000000000000000e+00  2.4121879889179795e-05 -1.9880385639240928e-05 0.0000000000000000e+00  2.7735382076438855e-05 -2.3282197877384934e-05 0.0000000000000000e+00  0.0000000000000000e+00 0.0000000000000000e+00 0.0000000000000000e+00  5.9176797011968063e-07 -4.4616813439412892e-07 0.0000000000000000e+00  1.2070576336382162e-06 -9.0898682644235297e-07 0.0000000000000000e+00  1.8703466745368609e-06 -1.4056605004455497e-06 0.0000000000000000e+00  2.6080388529897264e-06 -1.9544988025669227e-06 0.0000000000000000e+00  3.4494639664222515e-06 -2.5754789296095311e-06 0.0000000000000000e+00  4.4278870060777746e-06 -3.2908128677424867e-06 0.0000000000000000e+00  5.5814554646881923e-06 -4.1255103902245352e-06 0.0000000000000000e+00  6.9539160151701984e-06 -5.1079192764794807e-06 0.0000000000000000e+00  8.5947625107443285e-06 -6.2702117799515866e-06 0.0000000000000000e+00  1.0558207580290475e-05 -7.6487661094102961e-06 0.0000000000000000e+00  1.2899994461153402e-05 -9.2843435432410108e-06 0.0000000000000000e+00  1.5670672248931835e-05 -1.1221822415621561e-05 0.0000000000000000e+00  1.8903874470420316e-05 -1.3508859698308390e-05 0.0000000000000000e+00  2.2599137085549443e-05 -1.6191899222231251e-05 0.0000000000000000e+00  2.6702063303094584e-05 -1.9306082716721830e-05 0.0000000000000000e+00  3.1090671969191047e-05 -2.2853244770352837e-05 0.0000000000000000e+00  0.0000000000000000e+00 0.0000000000000000e+00 0.0000000000000000e+00  5.6696825516581334e-07 -4.1748078910810222e-07 0.0000000000000000e+00  1.1576213573642528e-06 -8.5026257845429016e-07 0.0000000000000000e+00  1.7968038907613886e-06 -1.3141297673699356e-06 0.0000000000000000e+00  2.5117283802808046e-06 -1.8258262458143387e-06 0.0000000000000000e+00  3.3333077395542227e-06 -2.4035484361579279e-06 0.0000000000000000e+00  4.2976472891507889e-06 -3.0674571166789923e-06 0.0000000000000000e+00  5.4476996927178262e-06 -3.8402250586764635e-06 0.0000000000000000e+00  6.8349952855643234e-06 -4.7476591719582362e-06 0.0000000000000000e+00  8.5211647819105510e-06 -5.8194826026985482e-06 0.0000000000000000e+00  1.0578584527208203e-05 -7.0904488630440777e-06 0.0000000000000000e+00  1.3088780227743162e-05 -8.6020881339111307e-06 0.0000000000000000e+00  1.6136150084403099e-05 -1.0405485890878552e-05 0.0000000000000000e+00  1.9793348405670106e-05 -1.2565268907204879e-05 0.0000000000000000e+00  2.4094522809332261e-05 -1.5163576749600910e-05 0.0000000000000000e+00  2.8996790836700845e-05 -1.8298453606044677e-05 0.0000000000000000e+00  3.4343995578517406e-05 -2.2061588152598602e-05 0.0000000000000000e+00  0.0000000000000000e+00 0.0000000000000000e+00 0.0000000000000000e+00  5.1847280452771425e-07 -3.7348281761875384e-07 0.0000000000000000e+00  1.0596402132798532e-06 -7.6043968759444076e-07 0.0000000000000000e+00  1.6474982504748339e-06 -1.1747517448617305e-06 0.0000000000000000e+00  2.3087350913316197e-06 -1.6311033353104664e-06 0.0000000000000000e+00  3.0743540232006968e-06 -2.1453972627184108e-06 0.0000000000000000e+00  3.9816450237005120e-06 -2.7351940433633731e-06 0.0000000000000000e+00  5.0766350352099117e-06 -3.4202053528775721e-06 0.0000000000000000e+00  6.4171154033825472e-06 -4.2229125422504310e-06 0.0000000000000000e+00  8.0762100127006929e-06 -5.1694722959149288e-06 0.0000000000000000e+00  1.0146059743729789e-05 -6.2912636239781690e-06 0.0000000000000000e+00  1.2740259053273863e-05 -7.6278043449378634e-06 0.0000000000000000e+00  1.5991687008534571e-05 -9.2324018997035135e-06 0.0000000000000000e+00  2.0038800629343252e-05 -1.1182690282892057e-05 0.0000000000000000e+00  2.4988898988212301e-05 -1.3598136293117892e-05 0.0000000000000000e+00  3.0846868206825358e-05 -1.6661993968152247e-05 0.0000000000000000e+00  3.7420480299934005e-05 -2.0627564295943639e-05 0.0000000000000000e+00  0.0000000000000000e+00 0.0000000000000000e+00 0.0000000000000000e+00  4.4726855665710260e-07 -3.1599949934574551e-07 0.0000000000000000e+00  9.1494937273273726e-07 -6.4324671413166946e-07 0.0000000000000000e+00  1.4247887040657590e-06 -9.9331454624768802e-07 0.0000000000000000e+00  2.0013265628192357e-06 -1.3784117811913876e-06 0.0000000000000000e+00  2.6736839858034156e-06 -1.8117072726888039e-06 0.0000000000000000e+00  3.4778840477172078e-06 -2.3076662781342232e-06 0.0000000000000000e+00  4.4599990673003271e-06 -2.8824186045177602e-06 0.0000000000000000e+00  5.6805119573151320e-06 -3.5542110925272507e-06 0.0000000000000000e+00  7.2203551282664505e-06 -4.3440821931497518e-06 0.0000000000000000e+00  9.1890005749300500e-06 -5.2771131271313644e-06 0.0000000000000000e+00  1.1734291169167642e-05 -6.3851493741935392e-06 0.0000000000000000e+00  1.5051317284231700e-05 -7.7131729470795317e-06 0.0000000000000000e+00  1.9381112686719937e-05 -9.3343125886211768e-06 0.0000000000000000e+00  2.4975422161043350e-05 -1.1383419783143033e-05 0.0000000000000000e+00  3.1981634275712503e-05 -1.4122750948344211e-05 0.0000000000000000e+00  4.0205697838283191e-05 -1.8032958399266872e-05 0.0000000000000000e+00  0.0000000000000000e+00 0.0000000000000000e+00 0.0000000000000000e+00  3.5563618747459136e-07 -2.4725667653754666e-07 0.0000000000000000e+00  7.2807898587278811e-07 -5.0321771664233865e-07 0.0000000000000000e+00  1.1353530009221497e-06 -7.7682776810285326e-07 0.0000000000000000e+00  1.5980617420287662e-06 -1.0774950803087683e-06 0.0000000000000000e+00  2.1411215272043297e-06 -1.4153170924179620e-06 0.0000000000000000e+00  2.7961392753736962e-06 -1.8012939809875959e-06 0.0000000000000000e+00  3.6048684690092537e-06 -2.2475186404314484e-06 0.0000000000000000e+00  4.6244408862516980e-06 -2.7673248013327419e-06 0.0000000000000000e+00  5.9355030581080831e-06 -3.3753749703999740e-06 0.0000000000000000e+00  7.6550241564139030e-06 -4.0877199621846922e-06 0.0000000000000000e+00  9.9562248387497277e-06 -4.9221410928561100e-06 0.0000000000000000e+00  1.3097741824428008e-05 -5.9002510336203964e-06 0.0000000000000000e+00  1.7458494723131057e-05 -7.0570487887623211e-06 0.0000000000000000e+00  2.3549831980511344e-05 -8.4770603307981697e-06 0.0000000000000000e+00  3.1898679478231782e-05 -1.0410637469432506e-05 0.0000000000000000e+00  4.2550132894775673e-05 -1.3560840591832229e-05 0.0000000000000000e+00  0.0000000000000000e+00 0.0000000000000000e+00 0.0000000000000000e+00  2.4718165108619902e-07 -1.6979844172962593e-07 0.0000000000000000e+00  5.0635642922665888e-07 -3.4552500276121382e-07 0.0000000000000000e+00  7.9045453338830936e-07 -5.3326421579803859e-07 0.0000000000000000e+00  1.1144077651302290e-06 -7.3939740126556988e-07 0.0000000000000000e+00  1.4965480211028605e-06 -9.7073587434289798e-07 0.0000000000000000e+00  1.9606071394545146e-06 -1.2346229940907299e-06 0.0000000000000000e+00  2.5387833068229263e-06 -1.5389638678148526e-06 0.0000000000000000e+00  3.2767130796589692e-06 -1.8920866628447828e-06 0.0000000000000000e+00  4.2419370612434996e-06 -2.3022105727905794e-06 0.0000000000000000e+00  5.5389746756073510e-06 -2.7759990209708590e-06 0.0000000000000000e+00  7.3372391877103911e-06 -3.3150373122900040e-06 0.0000000000000000e+00  9.9240501895255924e-06 -3.9079425640553266e-06 0.0000000000000000e+00  1.3804188367106080e-05 -4.5152820662986678e-06 0.0000000000000000e+00  1.9865770567611134e-05 -5.0547280032856103e-06 0.0000000000000000e+00  2.9511845703377658e-05 -5.4783535527491473e-06 0.0000000000000000e+00  4.3777431382199050e-05 -6.5474596566232178e-06 0.0000000000000000e+00  0.0000000000000000e+00 0.0000000000000000e+00 0.0000000000000000e+00  1.2672070176118625e-07 -8.6402909727402947e-08 0.0000000000000000e+00  2.5969171519560542e-07 -1.7580676096150282e-07 0.0000000000000000e+00  4.0567465832302577e-07 -2.7128897579131568e-07 0.0000000000000000e+00  5.7252962497271328e-07 -3.7606993244032370e-07 0.0000000000000000e+00  7.7000190147624623e-07 -4.9357160691151465e-07 0.0000000000000000e+00  1.0108779556982443e-06 -6.2744906865457725e-07 0.0000000000000000e+00  1.3128219054103670e-06 -7.8155554763450313e-07 0.0000000000000000e+00  1.7014971294012022e-06 -9.5974114784895653e-07 0.0000000000000000e+00  2.2162401407517820e-06 -1.1652207665633409e-06 0.0000000000000000e+00  2.9211590041259894e-06 -1.3987783181360798e-06 0.0000000000000000e+00  3.9287519673797760e-06 -1.6536621053503851e-06 0.0000000000000000e+00  5.4552854718427194e-06 -1.9004892626159491e-06 0.0000000000000000e+00  7.9653542089222172e-06 -2.0399037032139505e-06 0.0000000000000000e+00  1.2593585414058607e-05 -1.7437545351250755e-06 0.0000000000000000e+00  2.2510248055811121e-05 1.1462397838917403e-07 0.0000000000000000e+00  4.7732021524262044e-05 7.6202693241156579e-06 0.0000000000000000e+00  0.0000000000000000e+00 0.0000000000000000e+00 0.0000000000000000e+00  0.0000000000000000e+00 0.0000000000000000e+00 0.0000000000000000e+00  0.0000000000000000e+00 0.0000000000000000e+00 0.0000000000000000e+00  0.0000000000000000e+00 0.0000000000000000e+00 0.0000000000000000e+00  0.0000000000000000e+00 0.0000000000000000e+00 0.0000000000000000e+00  0.0000000000000000e+00 0.0000000000000000e+00 0.0000000000000000e+00  0.0000000000000000e+00 0.0000000000000000e+00 0.0000000000000000e+00  0.0000000000000000e+00 0.0000000000000000e+00 0.0000000000000000e+00  0.0000000000000000e+00 0.0000000000000000e+00 0.000000