<?xml version="1.0"?>
<VTKFile type="UnstructuredGrid"  version="0.1"  >
<UnstructuredGrid>
<Piece  NumberOfPoints="289" NumberOfCells="512">
<Points>
<DataArray  type="Float64"  NumberOfComponents="3"  format="ascii">0 0 0  0.0625 0 0  0.125 0 0  0.1875 0 0  0.25 0 0  0.3125 0 0  0.375 0 0  0.4375 0 0  0.5 0 0  0.5625 0 0  0.625 0 0  0.6875 0 0  0.75 0 0  0.8125 0 0  0.875 0 0  0.9375 0 0  1 0 0  0 0.0625 0  0.06249830711891021 0.06250177566613235 0  0.1249965641855135 0.06250362843334058 0  0.18749472098763 0.06250564020694103 0  0.2499927272547283 0.06250790326131922 0  0.3124905330047394 0.06251052740512358 0  0.3749880893523884 0.06251365027658731 0  0.4374853499345916 0.06251745350135549 0  0.4999822730977844 0.06252219013350571 0  0.562478824975953 0.0625282349494263 0  0.6249749836021256 0.06253618422133747 0  0.6874707443681168 0.06254707154725063 0  0.7499661278557685 0.06256288201004889 0  0.8124611932994764 0.06258791337260355 0  0.8749560668372433 0.06263279723133239 0  0.9374510051050033 0.06272770086335279 0  0.9999465140623613 0.062969914615777 0  0 0.125 0  0.06249666429268443 0.1250034741455161 0  0.1249932285761721 0.1250070976383779 0  0.1874895923780184 0.1250110287332559 0  0.2499856548044584 0.1250154447836524 0  0.3124813150775106 0.1250205550682059 0  0.3749764739970476 0.1250266186397398 0  0.4374710366487465 0.1250339712044285 0  0.4999649166536718 0.1250430684051485 0  0.5624580421880931 0.1250545597252659 0  0.6249503639029631 0.1250694213368564 0  0.6874418648406866 0.1250892051977652 0  0.7499325728803955 0.1251165178332686 0  0.8124225786387441 0.1251559265347837 0  0.8749120722698351 0.1252154616921907 0  0.9374014595300427 0.1253076630585989 0  0.9998918422682814 0.12544030784983 0  0 0.1875 0  0.06249512153045335 0.1875050232155381 0  0.1249900934428327 0.1875102590409235 0  0.1874847650678347 0.1875159319236497 0  0.2499789843461336 0.1875222914403362 0  0.3124725982375546 0.1875296284483421 0  0.3749654545173793 0.1875382964731406 0  0.4374574054738782 0.1875487419220819 0  0.4999483139965052 0.187561548973241 0  0.5624380624163494 0.1875775087315668 0  0.6249265641489136 0.1875977277952563 0  0.6874137775539299 0.1876237971195186 0  0.7498997200750616 0.1876580377030669 0  0.8123844770280049 0.1877037837746539 0  0.8748681857363447 0.1877654234490361 0  0.9373509151061645 0.1878471752455283 0  0.9998320698891949 0.1879482715320362 0  0 0.25 0  0.06249372847858602 0.2500063596268239 0  0.1249872586298533 0.2500129831958293 0  0.1874803900689281 0.2500201481071525 0  0.2499729191569115 0.250028159979876 0  0.3124646387917822 0.2500373698222365 0  0.3749553400265662 0.2500481953603031 0  0.4374448162703389 0.2500611487289482 0  0.4999328708591569 0.2500768733631661 0  0.5624193286762182 0.250096193254163 0  0.6249040521166004 0.2501201763531319 0  0.6873869608451282 0.250150206748261 0  0.74986805328481 0.2501880368639992 0  0.8123474256415207 0.2502357285322414 0  0.8748252835184164 0.2502952554980984 0  0.9373019565715686 0.2503673398963284 0  0.9997780510174208 0.25044917080373 0  0 0.3125 0  0.0624925338636166 0.3125074320482496 0  0.1249848225797682 0.3125151658167875 0  0.1874766174043118 0.312523516952747 0  0.2499676633231299 0.3125328299192728 0  0.3124576975512373 0.3125434945084241 0  0.3749464502191904 0.3125559649026041 0  0.4374336482941091 0.3125707819997078 0  0.4999190239601795 0.3125885991397994 0  0.5624023287324138 0.3126102096855397 0  0.6248833543069456 0.3126365706753612 0  0.6873619602915099 0.3126688071792114 0  0.7498381072393433 0.3127081624401178 0  0.8123118908238921 0.3127558248000143 0  0.8747835703340188 0.3128125200776787 0  0.9372535831082818 0.312877758969093 0  0.9997225237068602 0.3129488275278454 0  0 0.375 0  0.06249158449971126 0.3750082026916545 0  0.1249828804653337 0.3750167308674579 0  0.1874735936213944 0.3750259235791888 0  0.2499634190745 0.3750361475938764 0  0.3124520376672731 0.3750478123896531 0  0.374939114687743 0.3750613862313839 0  0.4374243022893612 0.3750774129899287 0  0.4999072474136612 0.3750965282543531 0  0.562387607403519 0.3751194710331817 0  0.6248650756062547 0.3751470830733639 0  0.6873394186612246 0.3751802804188525 0  0.7498105252344216 0.3752199706976558 0  0.8122784621195902 0.3752668775020216 0  0.8747435278943475 0.3753212331249282 0  0.9372062882068757 0.375382347895303 0  0.9996675743686392 0.3754482204888721 0  0 0.4375 0  0.06249092374411216 0.4375086477741006 0  0.1249815211729691 0.4375176311608387 0  0.1874714574833689 0.4375272984965071 0  0.2499603815431959 0.4375380238296933 0  0.3124479191096701 0.4375502202143139 0  0.3749336682086114 0.4375643531330763 0  0.4374171982654091 0.4375809532607834 0  0.4998980553884408 0.4376006266704744 0  0.5623757771919951 0.4376240586438865 0  0.6248499214682637 0.4376520040766643 0  0.687320113276161 0.4376852528348933 0  0.7497861134475223 0.4377245529527687 0  0.8122479063821292 0.4377704713225542 0  0.8747057946976232 0.4378231784461292 0  0.9371604735711555 0.4378821746178959 0  0.9996130456586589 0.4379460390674395 0  0 0.5 0  0.06249058932828294 0.5000087571422277 0  0.1249808229580286 0.5000178472611653 0  0.1874703334794765 0.5000276149897139 0  0.2499587302970384 0.5000384283390514 0  0.3124455886983751 0.5000506904817312 0  0.3749304403148284 0.5000648513113869 0  0.4374127665666602 0.5000814180466524 0  0.4998919979270458 0.5001009633740565 0  0.5623675236552508 0.5001241283918547 0  0.6248387189819247 0.5001516157780989 0  0.6873049990077612 0.5001841661147149 0  0.7497659091053507 0.5002225074240688 0  0.812221256809563 0.5002672656504893 0  0.8746712745591264 0.5003188239580366 0  0.9371167721434636 0.5003771238291199 0  0.9995592004764301 0.5004414116774558 0  0 0.5625 0  0.06249061057169984 0.562508533404936 0  0.1249808477410601 0.5625173854836111 0  0.1874703229863809 0.5625268854143067 0  0.2499586171714638 0.5625373833619439 0  0.3124452646468801 0.5625492610244883 0  0.374929737199913 0.5625629420589907 0  0.4374114289840924 0.5625789020303338 0  0.4998896451206649 0.5625976772314795 0  0.5623635993706821 0.5626198713472196 0  0.6248324305878098 0.5626461584753405 0  0.6872952536525639 0.5626772803980358 0  0.7497512667916921 0.5627140347657402 0  0.812199938190487 0.5627572475097528 0  0.8746412779437085 0.5628077136255326 0  0.9370761469563454 0.562866069293541 0  0.9995064540562125 0.562932523876899 0  0 0.625 0  0.06249100510908538 0.6250079908395925 0  0.1249816342619603 0.6250162755628198 0  0.1874714932748823 0.6250251573536592 0  0.2499601503594076 0.6250349579584062 0  0.3124471149684989 0.6250460271402936 0  0.3749318141062931 0.6250587523259167 0  0.4374135660531946 0.6250735685477551 0  0.4998915529137236 0.6250909689694795 0  0.5623647965310584 0.6251115167595074 0  0.6248321485276673 0.6251358600819845 0  0.6872923163981511 0.625164753666006 0  0.7497439648645177 0.6251990923207611 0  0.8121859511868688 0.625239961090618 0  0.8746177547525545 0.6252886944314321 0  0.9370400912606672 0.6253468906819106 0  0.9994554759509382 0.625416207117073 0  0 0.6875 0  0.06249177543035282 0.6875071542152791 0  0.1249831906653441 0.687514568263723 0  0.187473865130427 0.6875225099924598 0  0.2499633755252681 0.6875312632480834 0  0.3124512300796827 0.6875411361773345 0  0.3749368372716617 0.687552469985991 0  0.4374194669428224 0.6875656485844537 0  0.4998982022554483 0.6875811100488282 0  0.5623718831053278 0.6875993619318395 0  0.6248390478529738 0.6876210047587104 0  0.6872978954106421 0.6876467725131816 0  0.7497463219981189 0.6876776067397899 0  0.8121821448914971 0.6877147919099766 0  0.8746036994672501 0.6877601863893669 0  0.9370109946456119 0.6878165536174942 0  0.9994072405171838 0.6878878424709846 0  0 0.75 0  0.06249290572622289 0.750006057568571 0  0.1249854875257352 0.7500123329596232 0  0.1874774006274442 0.7500190506030567 0  0.2499682559455853 0.7500264481178814 0  0.3124575917458887 0.7500347832385529 0  0.3749448368343205 0.7500443412531853 0  0.4374292606174978 0.7500554434174553 0  0.4999099038570162 0.7500684573093411 0  0.5623854827301198 0.7500838112313911 0  0.6248542602486515 0.7501020173875615 0  0.6873138901030529 0.7501237146179625 0  0.749761276619803 0.7501497553288792 0  0.8121926007762079 0.7501813914177029 0  0.8746038997361302 0.7502206715524993 0  0.9369929511108576 0.7502712381543706 0  0.9993631509460928 0.7503396951955937 0  0 0.8125 0  0.06249435970364172 0.812504742905115 0  0.1249884527408674 0.8125096550716258 0  0.1874819934379588 0.8125149108317964 0  0.2499746552352434 0.8125206946227173 0  0.3124660432138097 0.8125272062897683 0  0.374955656399812 0.8125346667347448 0  0.4374428329392319 0.8125433241250715 0  0.4999266670268602 0.8125534610240989 0  0.5624058795557118 0.8125654031397898 0  0.624878614171642 0.8125795313670321 0  0.6873421192750592 0.8125963020647911 0  0.7497922814986924 0.8126162918446969 0  0.8122230669558052 0.812640321237838 0  0.8746263318283032 0.8126698284246049 0  0.9369937448280581 0.8127079539112649 0  0.999324975534813 0.8127620610944069 0  0 0.875 0  0.06249608010663215 0.875003258790628 0  0.1249919699534514 0.8750066332602326 0  0.1874874646695999 0.875010242517791 0  0.2499823276676757 0.8750142124862756 0  0.3124762684983154 0.8750186794338142 0  0.3749689111658114 0.8750237936089458 0  0.4374597455135836 0.8750297228758098 0  0.4999480483263911 0.8750366559088653 0  0.5624327488229298 0.8750448035913017 0  0.6249121887111099 0.8750543949447857 0  0.6873836767336029 0.8750656585949363 0  0.7498426395640574 0.8750787708515918 0  0.8122810181425332 0.8750937454536487 0  0.8746845702872545 0.8751103226085006 0  0.9370306659226938 0.8751286185960527 0  0.9993024565313754 0.8751556104907071 0  0 0.9375 0  0.06249799056114252 0.9375016588215931 0  0.1249958819844594 0.9375033763422779 0  0.1874935671649134 0.937505212988849 0  0.2499909216015141 0.93750723260975 0  0.3124877909484753 0.9375095042195568 0  0.374983972716205 0.9375121037185906 0  0.4374791871870056 0
[...]
<PointData  Vectors="f_54"> 
<DataArray  type="Float64"  Name="f_54"  NumberOfComponents="3" format="ascii">0.0000000000000000e+00 0.0000000000000000e+00 0.0000000000000000e+00  0.0000000000000000e+00 0.0000000000000000e+00 0.0000000000000000e+00  0.0000000000000000e+00 0.0000000000000000e+00 0.0000000000000000e+00  0.0000000000000000e+00 0.0000000000000000e+00 0.0000000000000000e+00  0.0000000000000000e+00 0.0000000000000000e+00 0.0000000000000000e+00  0.0000000000000000e+00 0.0000000000000000e+00 0.0000000000000000e+00  0.0000000000000000e+00 0.0000000000000000e+00 0.0000000000000000e+00  0.0000000000000000e+00 0.0000000000000000e+00 0.0000000000000000e+00  0.0000000000000000e+00 0.0000000000000000e+00 0.0000000000000000e+00  0.0000000000000000e+00 0.0000000000000000e+00 0.0000000000000000e+00  0.0000000000000000e+00 0.0000000000000000e+00 0.0000000000000000e+00  0.0000000000000000e+00 0.0000000000000000e+00 0.0000000000000000e+00  0.0000000000000000e+00 0.0000000000000000e+00 0.0000000000000000e+00  0.0000000000000000e+00 0.0000000000000000e+00 0.0000000000000000e+00  0.0000000000000000e+00 0.0000000000000000e+00 0.0000000000000000e+00  0.0000000000000000e+00 0.0000000000000000e+00 0.0000000000000000e+00  0.0000000000000000e+00 0.0000000000000000e+00 0.0000000000000000e+00  0.0000000000000000e+00 0.0000000000000000e+00 0.0000000000000000e+00  5.9908825232410870e-08 -4.0532159201028549e-08 0.0000000000000000e+00  1.2161647576538416e-07 -8.2841235545469484e-08 0.0000000000000000e+00  1.8692607365163273e-07 -1.2881367376983477e-07 0.0000000000000000e+00  2.5765039908765769e-07 -1.8057489902930556e-07 0.0000000000000000e+00  3.3560335172311218e-07 -2.4065317010504398e-07 0.0000000000000000e+00  4.2257494186598725e-07 -3.1221364817017952e-07 0.0000000000000000e+00  5.2028320798961992e-07 -3.9942392592305311e-07 0.0000000000000000e+00  6.3029538900606034e-07 -5.0807249635175798e-07 0.0000000000000000e+00  7.5390857802344448e-07 -6.4669874043195448e-07 0.0000000000000000e+00  8.9197481607601857e-07 -8.2882524629843131e-07 0.0000000000000000e+00  1.0446405122138912e-06 -1.0777501678091528e-06 0.0000000000000000e+00  1.2109228008877810e-06 -1.4378111184689201e-06 0.0000000000000000e+00  1.3878804226048357e-06 -2.0035882258457744e-06 0.0000000000000000e+00  1.5684909813779407e-06 -3.0037618012874887e-06 0.0000000000000000e+00  1.7345762412048835e-06 -5.0671436590171510e-06 0.0000000000000000e+00  1.8285459060575390e-06 -1.0145277223403132e-05 0.0000000000000000e+00  0.0000000000000000e+00 0.0000000000000000e+00 0.0000000000000000e+00  1.1801890473036258e-07 -7.9287392759746261e-08 0.0000000000000000e+00  2.3962749051362292e-07 -1.6201648977129313e-07 0.0000000000000000e+00  3.6842958532578528e-07 -2.5183254336296972e-07 0.0000000000000000e+00  5.0805886532555343e-07 -3.5282198328263859e-07 0.0000000000000000e+00  6.6216768333934752e-07 -4.6980644051430882e-07 0.0000000000000000e+00  8.3438367944524127e-07 -6.0874945904026418e-07 0.0000000000000000e+00  1.0282213643831930e-06 -7.7736574741582045e-07 0.0000000000000000e+00  1.2469344126581725e-06 -9.8609888314932031e-07 0.0000000000000000e+00  1.4932923785974782e-06 -1.2497890211070658e-06 0.0000000000000000e+00  1.7692617645814614e-06 -1.5906761539012052e-06 0.0000000000000000e+00  2.0755639460066293e-06 -2.0440625152404436e-06 0.0000000000000000e+00  2.4110745089797447e-06 -2.6693339643124459e-06 0.0000000000000000e+00  2.7720659967414012e-06 -3.5714750191551838e-06 0.0000000000000000e+00  3.1516759465073385e-06 -4.9402482176443926e-06 0.0000000000000000e+00  3.5423492605771212e-06 -7.1005348845918888e-06 0.0000000000000000e+00  3.9570880380424912e-06 -1.0441064171070483e-05 0.0000000000000000e+00  0.0000000000000000e+00 0.0000000000000000e+00 0.0000000000000000e+00  1.7254228853040814e-07 -1.1460271931251267e-07 0.0000000000000000e+00  3.5044444414854897e-07 -2.3410391694118225e-07 0.0000000000000000e+00  5.3910115906262954e-07 -3.6367369158576783e-07 0.0000000000000000e+00  7.4397779194810156e-07 -5.0906487589380831e-07 0.0000000000000000e+00  9.7060815633894808e-07 -6.7698492703994713e-07 0.0000000000000000e+00  1.2245456086325845e-06 -8.7558524617649338e-07 0.0000000000000000e+00  1.5112486797995022e-06 -1.1151479115355226e-06 0.0000000000000000e+00  1.8358810223295539e-06 -1.4091004275040002e-06 0.0000000000000000e+00  2.2030047366166215e-06 -1.7755742433488836e-06 0.0000000000000000e+00  2.6161458114964228e-06 -2.2398522002962677e-06 0.0000000000000000e+00  3.0772076726882204e-06 -2.8381932142156084e-06 0.0000000000000000e+00  3.5856943847244662e-06 -3.6234557771227852e-06 0.0000000000000000e+00  4.1376465312112758e-06 -4.6717040916602743e-06 0.0000000000000000e+00  4.7239415538002649e-06 -6.0831523943977154e-06 0.0000000000000000e+00  5.3263346308524182e-06 -7.9500492053860562e-06 0.0000000000000000e+00  5.9024020388768498e-06 -1.0205606036129346e-05 0.0000000000000000e+00  0.0000000000000000e+00 0.0000000000000000e+00 0.0000000000000000e+00  2.2171085082152061e-07 -1.4502246014049028e-07 0.0000000000000000e+00  4.5050837660851653e-07 -2.9612291198977341e-07 0.0000000000000000e+00  6.9355022943510441e-07 -4.5969001682115198e-07 0.0000000000000000e+00  9.5813530016907638e-07 -6.4277053813076629e-07 0.0000000000000000e+00  1.2517274416868945e-06 -8.5346760950630049e-07 0.0000000000000000e+00  1.5819198542414316e-06 -1.1014325134353500e-06 0.0000000000000000e+00  1.9563151365442264e-06 -1.3984980246683726e-06 0.0000000000000000e+00  2.3822940964867303e-06 -1.7595139862330770e-06 0.0000000000000000e+00  2.8666474413390277e-06 -2.2034506542799839e-06 0.0000000000000000e+00  3.4150504178991633e-06 -2.7548005698690640e-06 0.0000000000000000e+00  4.0313717289533271e-06 -3.4451416681283058e-06 0.0000000000000000e+00  4.7168193523047618e-06 -4.3141773277431585e-06 0.0000000000000000e+00  5.4689194344647088e-06 -5.4080862775850474e-06 0.0000000000000000e+00  6.2802719556109706e-06 -6.7696831144958066e-06 0.0000000000000000e+00  7.1370180249443271e-06 -8.4098580565348912e-06 0.0000000000000000e+00  8.0183396523243749e-06 -1.0253496585550720e-05 0.0000000000000000e+00  0.0000000000000000e+00 0.0000000000000000e+00 0.0000000000000000e+00  2.6379870538715185e-07 -1.6936733176343383e-07 0.0000000000000000e+00  5.3633043858506126e-07 -3.4567555135168651e-07 0.0000000000000000e+00  8.2645444142192189e-07 -5.3618957453606399e-07 0.0000000000000000e+00  1.1432790595693373e-06 -7.4885125189468556e-07 0.0000000000000000e+00  1.4962334899258871e-06 -9.9266680932589405e-07 0.0000000000000000e+00  1.8950705311758597e-06 -1.2781529039183136e-06 0.0000000000000000e+00  2.3497681109565756e-06 -1.6178557299653872e-06 0.0000000000000000e+00  2.8702931119010766e-06 -2.0269416485043369e-06 0.0000000000000000e+00  3.4661917943213940e-06 -2.5238143413630939e-06 0.0000000000000000e+00  4.1459829430482532e-06 -3.1306083134794614e-06 0.0000000000000000e+00  4.9163602849017466e-06 -3.8731755140226212e-06 0.0000000000000000e+00  5.7812652837873963e-06 -4.7797126479255012e-06 0.0000000000000000e+00  6.7409645367939160e-06 -5.8763644744054805e-06 0.0000000000000000e+00  7.7913206131129294e-06 -7.1771493957082949e-06 0.0000000000000000e+00  8.9233471760689830e-06 -8.6657446930879238e-06 0.0000000000000000e+00  1.0122244885325704e-05 -1.0272303660779650e-05 0.0000000000000000e+00  0.0000000000000000e+00 0.0000000000000000e+00 0.0000000000000000e+00  2.9715912826027555e-07 -1.8677379930717328e-07 0.0000000000000000e+00  6.0456227152639576e-07 -3.8102199361634271e-07 0.0000000000000000e+00  9.3265594803570938e-07 -5.9053737605990360e-07 0.0000000000000000e+00  1.2922858492128250e-06 -8.2376888059487869e-07 0.0000000000000000e+00  1.6948434545664352e-06 -1.0901790016592022e-06 0.0000000000000000e+00  2.1523394469634651e-06 -1.4006296003154380e-06 0.0000000000000000e+00  2.6773633430497425e-06 -1.7677882037198180e-06 0.0000000000000000e+00  3.2828782911493447e-06 -2.2065186330606786e-06 0.0000000000000000e+00  3.9817944700370808e-06 -2.7341622578476888e-06 0.0000000000000000e+00  4.7862746321418540e-06 -3.3705069428825877e-06 0.0000000000000000e+00  5.7067692098629137e-06 -4.1370512625720405e-06 0.0000000000000000e+00  6.7508815284341958e-06 -5.0548873538995048e-06 0.0000000000000000e+00  7.9223530541656211e-06 -6.1402168887978241e-06 0.0000000000000000e+00  9.2207543468312579e-06 -7.3965075200627783e-06 0.0000000000000000e+00  1.0642924980901543e-05 -8.8034380756801069e-06 0.0000000000000000e+00  1.2188315111823032e-05 -1.0306323864616026e-05 0.0000000000000000e+00  0.0000000000000000e+00 0.0000000000000000e+00 0.0000000000000000e+00  3.2027947920943607e-07 -1.9670698248056293e-07 0.0000000000000000e+00  6.5210386394311402e-07 -4.0109946661198261e-07 0.0000000000000000e+00  1.0073172864585086e-06 -6.2116354790042682e-07 0.0000000000000000e+00  1.3983557839241323e-06 -8.6549727529333574e-07 0.0000000000000000e+00  1.8384993669228806e-06 -1.1436328738674247e-06 0.0000000000000000e+00  2.3420567556190912e-06 -1.4663701302089515e-06 0.0000000000000000e+00  2.9244343062694641e-06 -1.8461060112755729e-06 0.0000000000000000e+00  3.6020185855279933e-06 -2.2971190462059534e-06 0.0000000000000000e+00  4.3917795182727663e-06 -2.8357179051632405e-06 0.0000000000000000e+00  5.3104911955781692e-06 -3.4800790071081595e-06 0.0000000000000000e+00  6.3734990870955053e-06 -4.2494666022178428e-06 0.0000000000000000e+00  7.5930868151555850e-06 -5.1623593387241018e-06 0.0000000000000000e+00  8.9767810528852355e-06 -6.2328742341849933e-06 0.0000000000000000e+00  1.0526414795623541e-05 -7.4650047734052027e-06 0.0000000000000000e+00  1.2239293259441678e-05 -8.8450242549938849e-06 0.0000000000000000e+00  1.4112699140170255e-05 -1.0334520694673611e-05 0.0000000000000000e+00  0.0000000000000000e+00 0.0000000000000000e+00 0.0000000000000000e+00  3.3185611857450090e-07 -1.9895390415672314e-07 0.0000000000000000e+00  6.7625381068610763e-07 -4.0550171219367794e-07 0.0000000000000000e+00  1.0461465149063382e-06 -6.2751273723486261e-07 0.0000000000000000e+00  1.4553081187066720e-06 -8.7341138199706447e-07 0.0000000000000000e+00  1.9187220380235768e-06 -1.1524655075848141e-06 0.0000000000000000e+00  2.4529258183688453e-06 -1.4750822767611855e-06 0.0000000000000000e+00  3.0762600426857670e-06 -1.8531025484567454e-06 0.0000000000000000e+00  3.8089319912337029e-06 -2.3000696712087602e-06 0.0000000000000000e+00  4.6727517534557649e-06 -2.8314208883167684e-06 0.0000000000000000e+00  5.6903397856862536e-06 -3.4645009491344377e-06 0.0000000000000000e+00  6.8835728762120512e-06 -4.2182155086280534e-06 0.0000000000000000e+00  8.2711126966499510e-06 -5.1120125243926316e-06 0.0000000000000000e+00  9.8652073003620276e-06 -6.1636990288588374e-06 0.0000000000000000e+00  1.1668778491508556e-05 -7.3854079626520480e-06 0.0000000000000000e+00  1.3675074272327939e-05 -8.7769846600559320e-06 0.0000000000000000e+00  1.5872506718521655e-05 -1.0316577507117192e-05 0.0000000000000000e+00  0.0000000000000000e+00 0.0000000000000000e+00 0.0000000000000000e+00  3.3088888413378176e-07 -1.9360408908037866e-07 0.0000000000000000e+00  6.7490243332180309e-07 -3.9443508202969536e-07 0.0000000000000000e+00  1.0456958171949512e-06 -6.0996498487903472e-07 0.0000000000000000e+00  1.4579912020157221e-06 -8.4815564860482645e-07 0.0000000000000000e+00  1.9281303287052736e-06 -1.1177140194804448e-06 0.0000000000000000e+00  2.4746302531553242e-06 -1.4283593111462157e-06 0.0000000000000000e+00  3.1187019337609240e-06 -1.7911063065540956e-06 0.0000000000000000e+00  3.8846375309313411e-06 -2.2185704242174610e-06 0.0000000000000000e+00  4.7998808394932858e-06 -2.7253026445390131e-06 0.0000000000000000e+00  5.8944549414956286e-06 -3.3281622353036440e-06 0.0000000000000000e+00  7.1992426131825508e-06 -4.0467165477181329e-06 0.0000000000000000e+00  8.7424850122623964e-06 -4.9035716945925453e-06 0.0000000000000000e+00  1.0544063765621612e-05 -5.9242689811177895e-06 0.0000000000000000e+00  1.2608329053759453e-05 -7.1357100809824441e-06 0.0000000000000000e+00  1.4919617320235473e-05 -8.5607365463320355e-06 0.0000000000000000e+00  1.7451298033728420e-05 -1.0204536806927799e-05 0.0000000000000000e+00  0.0000000000000000e+00 0.0000000000000000e+00 0.0000000000000000e+00  3.1679092895881482e-07 -1.8102256808551890e-07 0.0000000000000000e+00  6.4676089217015696e-07 -3.6866196374850215e-07 0.0000000000000000e+00  1.0037276883389662e-06 -5.6974527604686744e-07 0.0000000000000000e+00  1.4028085974612470e-06 -7.9151600970429213e-07 0.0000000000000000e+00  1.8611473251006232e-06 -1.0418522965571115e-06 0.0000000000000000e+00  2.3987212406421755e-06 -1.3295011196295289e-06 0.0000000000000000e+00  3.0392239213897422e-06 -1.6643448324774635e-06 0.0000000000000000e+00  3.8109619653296534e-06 -2.0577344058191207e-06 0.0000000000000000e+00  4.7475861418328736e-06 -2.5229600967953046e-06 0.0000000000000000e+00  5.8882442047038815e-06 -3.0759945124714110e-06 0.0000000000000000e+00  7.2763305330721348e-06 -3.7367360649848648e-06 0.0000000000000000e+00  8.9553889107715018e-06 -4.5310558858940319e-06 0.0000000000000000e+00  1.0960108953123010e-05 -5.4938132379774594e-06 0.0000000000000000e+00  1.3300743645277882e-05 -6.6721152832486250e-06 0.0000000000000000e+00  1.5943640740871489e-05 -8.1254173364459149e-06 0.0000000000000000e+00  1.8805552378823563e-05 -9.9137137125815307e-06 0.0000000000000000e+00  0.0000000000000000e+00 0.0000000000000000e+00 0.0000000000000000e+00  2.8950442665405804e-07 -1.6181782823059401e-07 0.0000000000000000e+00  5.9160843616606513e-07 -3.2943579902808218e-07 0.0000000000000000e+00  9.1962579200086823e-07 -5.0882543074880797e-07 0.0000000000000000e+00  1.2883412244896541e-06 -7.0629311202515753e-07 0.0000000000000000e+00  1.7148923348927005e-06 -9.2865317299699215e-07 0.0000000000000000e+00  2.2198333258959224e-06 -1.1834127821554214e-06 0.0000000000000000e+00  2.8284426530912618e-06 -1.4789871344072872e-06 0.0000000000000000e+00  3.5723096080866953e-06 -1.8249900592470676e-06 0.0000000000000000e+00  4.4911395610610388e-06 -2.2327053789035665e-06 0.0000000000000000e+00  5.6344579846337823e-06 -2.7159723995788592e-06 0.0000000000000000e+00  7.0622746210446626e-06 -3.2929705046910237e-06 0.0000000000000000e+00  8.8424508138950434e-06 -3.9898187979732203e-06 0.0000000000000000e+00  1.1040080469980064e-05 -4.8474377887318143e-06 0.0000000000000000e+00  1.3690794003811224e-05 -5.9330527991926724e-06 0.0000000000000000e+00  1.6748609513785634e-05 -7.3545739471510322e-06 0.0000000000000000e+00  2.0011664988404703e-05 -9.2648128410400953e-06 0.0000000000000000e+00  0.0000000000000000e+00 0.0000000000000000e+00 0.0000000000000000e+00  2.4960622352998145e-07 -1.3680555725552548e-07 0.0000000000000000e+00  5.1052564620982551e-07 -2.7842786030681201e-07 0.0000000000000000e+00  7.9480273800917440e-07 -4.2981384640484790e-07 0.0000000000000000e+00  1.1160068847089422e-06 -5.9615914230791641e-07 0.0000000000000000e+00  1.4902047260957627e-06 -7.8302857633086702e-07 0.0000000000000000e+00  1.9372182088508347e-06 -9.9647315260497245e-07 0.0000000000000000e+00  2.4823223432191590e-06 -1.2431485851949327e-06 0.0000000000000000e+00  3.1585820768871924e-06 -1.5304576382320503e-06 0.0000000000000000e+00  4.0100523447704305e-06 -1.8667883197819740e-06 0.0000000000000000e+00  5.0959740304469082e-06 -2.2620561284648627e-06 0.0000000000000000e+00  6.4956139019135958e-06 -2.7291129998021746e-06 0.0000000000000000e+00  8.3117927800920406e-06 -3.2874525221911641e-06 0.0000000000000000e+00  1.0666748174557011e-05 -3.9725411953412519e-06 0.0000000000000000e+00  1.3673699952519269e-05 -4.8573403791731015e-06 0.0000000000000000e+00  1.7348676360797441e-05 -6.0940241645859660e-06 0.0000000000000000e+00  2.1410109049173405e-05 -7.9642656794370316e-06 0.0000000000000000e+00  0.0000000000000000e+00 0.0000000000000000e+00 0.0000000000000000e+00  1.9838140139864529e-07 -1.0696887150794568e-07 0.0000000000000000e+00  4.0606662626719217e-07 -2.1764583225386704e-07 0.0000000000000000e+00  6.3302746009898024e-07 -3.3582895451223436e-07 0.0000000000000000e+00  8.9064451130621288e-07 -4.6548200377797453e-07 0.0000000000000000e+00  1.1926538993946129e-06 -6.1080249770519960e-07 0.0000000000000000e+00  1.5564454162462130e-06 -7.7626550303312311e-07 0.0000000000000000e+00  2.0049507245824205e-06 -9.6662300722437851e-07 0.0000000000000000e+00  2.5695063146645769e-06 -1.1868254656977804e-06 0.0000000000000000e+00  3.2943160312086693e-06 -1.4418176933153637e-06 0.0000000000000000e+00  4.2434932039118895e-06 -1.7361732843065868e-06 0.0000000000000000e+00  5.5120395559471272e-06 -2.0736944840570435e-06 0.0000000000000000e+00  7.2419064830451705e-06 -2.4578870182512468e-06 0.0000000000000000e+00  9.6410029651630049e-06 -2.8971934746451475e-06 0.0000000000000000e+00  1.2988489416751185e-05 -3.4285538601450921e-06 0.0000000000000000e+00  1.7563077711023524e-05 -4.1981683172097466e-06 0.0000000000000000e+00  2.3333988538056129e-05 -5.6675319080200227e-06 0.0000000000000000e+00  0.0000000000000000e+00 0.0000000000000000e+00 0.0000000000000000e+00  1.3783958855231708e-07 -7.3416890916358372e-08 0.0000000000000000e+00  2.8231347634638820e-07 -1.4934766642472681e-07 0.0000000000000000e+00  4.4057038748051783e-07 -2.3036053648951849e-07 0.0000000000000000e+00  6.2085415536775374e-07 -3.1911875317241387e-07 0.0000000000000000e+00  8.3327028378009153e-07 -4.1840787920030411e-07 0.0000000000000000e+00  1.0908852044810420e-06 -5.3112640409535987e-07 0.0000000000000000e+00  1.4114194806608624e-06 -6.6019906637898482e-07 0.0000000000000000e+00  1.8200109199362137e-06 -8.0832489176517222e-07 0.0000000000000000e+00  2.3539580402091774e-06 -9.7736540549902642e-07 0.0000000000000000e+00  3.0712502311688307e-06 -1.1669413415476038e-06 0.0000000000000000e+00  4.0665444964511886e-06 -1.3713058844400870e-06 0.0000000000000000e+00  5.5019230853028342e-06 -1.5726838503615510e-06 0.0000000000000000e+00  7.6657959320965037e-06 -1.7287940744420857e-06 0.0000000000000000e+00  1.1075294247109790e-05 -1.7595825075629536e-06 0.0000000000000000e+00  1.6580925389446865e-05 -1.5993546378917554e-06 0.0000000000000000e+00  2.4978871440456455e-05 -1.7579904856155656e-06 0.0000000000000000e+00  0.0000000000000000e+00 0.0000000000000000e+00 0.0000000000000000e+00  7.0652096295559885e-08 -3.7344957575295769e-08 0.0000000000000000e+00  1.4476042708126696e-07 -7.5958527665772810e-08 0.0000000000000000e+00  2.2606218752096451e-07 -1.1713423760422126e-07 0.0000000000000000e+00  3.1889636995101735e-07 -1.6220696591645772e-07 0.0000000000000000e+00  4.2863625972760939e-07 -2.1255886413099304e-07 0.0000000000000000e+00  5.6232783369512125e-07 -2.6959727873313773e-07 0.0000000000000000e+00  7.2971067631082907e-07 -3.3466976956464807e-07 0.0000000000000000e+00  9.4496816691593907e-07 -4.0883277184592665e-07 0.0000000000000000e+00  1.2299400715825595e-06 -4.9226304938478953e-07 0.0000000000000000e+00  1.6204692816896536e-06 -5.8274690818570007e-07 0.0000000000000000e+00  2.1800189293771510e-06 -6.7163150203688636e-07 0.0000000000000000e+00  3.0317319368691904e-06 -7.3228254672116498e-07 0.0000000000000000e+00  4.4419680130771612e-06 -6.8471030276050925e-07 0.0000000000000000e+00  7.0619099963622145e-06 -2.7865152400262791e-07 0.0000000000000000e+00  1.2698046529422702e-05 1.3210616052319762e-06 0.0000000000000000e+00  2.6963865605367971e-05 7.0851714160403730e-06 0.0000000000000000e+00  0.0000000000000000e+00 0.0000000000000000e+00 0.0000000000000000e+00  0.0000000000000000e+00 0.0000000000000000e+00 0.0000000000000000e+00  0.0000000000000000e+00 0.0000000000000000e+00 0.0000000000000000e+00  0.0000000000000000e+00 0.0000000000000000e+00 0.0000000000000000e+00  0.0000000000000000e+00 0.0000000000000000e+00 0.0000000000000000e+00  0.0000000000000000e+00 0.0000000000000000e+00 0.0000000000000000e+00  0.0000000000000000e+00 0.0000000000000000e+00 0.0000000000000000e+00  0.0000000000000000e+00 0.0000000000000000e+00 0.0000000000000000e+00  0.0000000000000000e+00 0.0000000000000000e+00 0.000000