<?xml version="1.0"?>
<VTKFile type="UnstructuredGrid"  version="0.1"  >
<UnstructuredGrid>
<Piece  NumberOfPoints="289" NumberOfCells="512">
<Points>
<DataArray  type="Float64"  NumberOfComponents="3"  format="ascii">0 0 0  0.0625 0 0  0.125 0 0  0.1875 0 0  0.25 0 0  0.3125 0 0  0.375 0 0  0.4375 0 0  0.5 0 0  0.5625 0 0  0.625 0 0  0.6875 0 0  0.75 0 0  0.8125 0 0  0.875 0 0  0.9375 0 0  1 0 0  0 0.0625 0  0.06250182269689254 0.06249837563350116 0  0.1250036993682803 0.0624966795444073 0  0.1875056840197735 0.06249483537512373 0  0.250007830718784 0.06249275686448969 0  0.3125101932099313 0.06249034101254849 0  0.3750128240314345 0.06248745828304526 0  0.4375157729628392 0.06248393727118277 0  0.5000190846449081 0.06247953874058691 0  0.5625227952265947 0.06247390816366731 0  0.6250269278666017 0.06246648179370599 0  0.6875314866757345 0.06245628398224195 0  0.7500364476540018 0.06244144584566344 0  0.8125417414468771 0.06241793622396014 0  0.8750472099094418 0.06237583093002193 0  0.9375524748651756 0.06228711648263123 0  1.000056514546059 0.06206176429323284 0  0 0.125 0  0.06250359145171996 0.124996822874161 0  0.1250072907300412 0.1249935068975976 0  0.1875112058969758 0.1249899046167127 0  0.2500154454668523 0.1249858503102252 0  0.3125201178082509 0.1249811477266188 0  0.3750253295476547 0.1249755530513599 0  0.4375311826265789 0.124968749321099 0  0.5000377696909869 0.1249603053320743 0  0.5625451675658796 0.1249496056323767 0  0.625053428686935 0.1249357248297094 0  0.6875625704599334 0.1249171918503097 0  0.750072562376482 0.1248915356286882 0  0.8125833097617993 0.1248544184985436 0  0.8750946299047443 0.1247981635663572 0  0.9376062073787159 0.1247105015166408 0  1.000117487868797 0.1245820258485982 0  0 0.1875 0  0.06250525248868202 0.1874954088630608 0  0.1250106662550654 0.1874906202944665 0  0.1875164033582064 0.1874854254181548 0  0.2500226273534254 0.1874795912817781 0  0.3125295028274171 0.1874728453677316 0  0.3750371934392993 0.1874648550992588 0  0.4375458579119441 0.1874551989406941 0  0.5000556434443951 0.1874433235672996 0  0.5625666761528919 0.1874284780476353 0  0.6250790484790217 0.1874096107138745 0  0.6875928041617937 0.1873852088710547 0  0.7501079226710716 0.1873530654320418 0  0.8126243080673687 0.1873100097010369 0  0.8751417967780059 0.187251873579506 0  0.9376602349395476 0.1871747158208859 0  1.000179826595347 0.1870798836798752 0  0 0.25 0  0.06250675241150672 0.2499941921873397 0  0.1250137185516587 0.2499881397416701 0  0.1875211139738118 0.2499815850148093 0  0.2500291577359601 0.2499742432797835 0  0.3125380726012397 0.2499657862018685 0  0.3750480832744141 0.2499558212778727 0  0.4375594118610144 0.2499438651384538 0  0.5000722697026569 0.2499293080271749 0  0.5625868448577656 0.2499113664935544 0  0.6251032849066925 0.249889022697294 0  0.6876216756621822 0.2498609555944823 0  0.7501420179847653 0.2498254916757972 0  0.8126642073232571 0.2497806629091805 0  0.8751880227643524 0.2497245912297013 0  0.9377131260443797 0.2496566113354899 0  1.000239006083546 0.2495794336112756 0  0 0.3125 0  0.06250803879479523 0.3124932200475768 0  0.1250163417010293 0.3124861612094233 0  0.1875251763243035 0.312478531149641 0  0.250034817022033 0.3124700098641613 0  0.3125455464977266 0.3124602337195131 0  0.3750576550489914 0.3124487769256883 0  0.4375714363458568 0.3124351297223089 0  0.5000871784277542 0.3124186731287714 0  0.5626051485566576 0.3123986517631889 0  0.6251255708531815 0.3123741503595567 0  0.6876485965595925 0.312344088901567 0  0.7501742686162689 0.3123072701376925 0  0.8127024850476562 0.3122625459315309 0  0.8752329686252962 0.3122092088345099 0  0.9377652513193906 0.3121477104427729 0  1.000298683724644 0.3120806022093927 0  0 0.375 0  0.06250906124768102 0.374992526689673 0  0.1250184332598575 0.3749847536303344 0  0.1875284326674237 0.3749763680319293 0  0.2500393875303153 0.3749670305442058 0  0.3125516412453518 0.3749563607221076 0  0.3750655539321675 0.3749439212496555 0  0.4375814998476465 0.3749292011575062 0  0.500099858915361 0.3749115993433048 0  0.5626210000357663 0.3748904119064608 0  0.6251452537218716 0.3748648310143761 0  0.6876728722346883 0.3748339703422902 0  0.75020397740801 0.374796943137189 0  0.812738500343412 0.3747530308802372 0  0.8752761230279356 0.3747019804218661 0  0.9378162378669853 0.3746444211433076 0  1.000357942804888 0.374582244165843 0  0 0.4375 0  0.06250977307530654 0.4374921329657091 0  0.1250198975062945 0.4374839583115135 0  0.1875307335773041 0.4374751563163304 0  0.2500426591400762 0.4374653827889214 0  0.3125560768997176 0.4374542562106182 0  0.3750714193913017 0.4374413444724988 0  0.4375891499495052 0.4374261518148065 0  0.5001097571134252 0.4374081076114689 0  0.5626337388607313 0.437386560523248 0  0.6251615720802499 0.4373607847181762 0  0.6876936623935215 0.4373300096593186 0  0.7502302710242 0.4372934908840279 0  0.812771420676543 0.4372506432303985 0  0.8753167929793181 0.4372012518605718 0  0.9378656452670115 0.4371457453962774 0  1.000416787367054 0.4370854483385057 0  0 0.5 0  0.06251013361544527 0.4999920467329182 0  0.1250206501212288 0.4999837900436893 0  0.1875319449390704 0.499974915637309 0  0.2500444384229686 0.4999650873100041 0  0.3125585876098821 0.4999539356951965 0  0.3750748964878647 0.4999410469039425 0  0.4375939230847002 0.4999259515431023 0  0.5001162803632977 0.4999081152453914 0  0.5626426259834155 0.4998869329580874 0  0.6251736335137499 0.4998617310528148 0  0.6877099352455459 0.4998317840988381 0  0.7502520261252003 0.4997963569829059 0  0.8128001231951466 0.4997547873986779 0  0.8753539909828241 0.499706626330952 0  0.9379127747717859 0.4996518495556141 0  1.0004749226298 0.4995911314144156 0  0 0.5625 0  0.06251011124212084 0.5624922637792737 0  0.1250206243361036 0.5624842391919619 0  0.1875319574751868 0.5624756283757101 0  0.2500445617600403 0.5624661143395938 0  0.3125589382897798 0.5624553511917063 0  0.3750756554218784 0.5624429541971733 0  0.4375953649997779 0.562428489739939 0  0.5001188146897743 0.5624114653543106 0  0.5626468507013856 0.5623913200968217 0  0.6251804006053236 0.5623674157243238 0  0.6877204196334447 0.5623390298029802 0  0.7502677772752878 0.5623053541782992 0  0.812823059793275 0.5622655090985021 0  0.8753862815434194 0.5622186000471134 0  0.9379565538072147 0.5621638761693984 0  1.000531861349149 0.562101086979879 0  0 0.625 0  0.06250968689489607 0.6249927690359217 0  0.1250197783123151 0.6249852742576759 0  0.1875306985909454 0.6249772438225684 0  0.2500429124800729 0.624968389696038 0  0.3125569478764042 0.6249583993651658 0  0.3750734212799166 0.6249469272379405 0  0.4375930660252603 0.6249335853803503 0  0.5001167617976492 0.6249179327785688 0  0.5626455606167184 0.6248994613313856 0  0.6251806979018544 0.6248775749790535 0  0.6877235654697852 0.6248515557224642 0  0.7502756051817452 0.6248205081317323 0  0.8128380616207571 0.6247832779635885 0  0.8754115306041295 0.6247383662826 0  0.9379953134119678 0.6246839379608725 0  1.000586821378768 0.6246181795589764 0  0 0.6875 0  0.06250885781153832 0.6874935379394166 0  0.1250181031347629 0.6874868446592126 0  0.1875281457110597 0.687479682440803 0  0.250039441191373 0.6874718004629663 0  0.3125525188045267 0.6874629281534668 0  0.3750680149545546 0.6874527682737027 0  0.4375867149525438 0.6874409892398379 0  0.5001096045402426 0.68742721540675 0  0.5626379305472313 0.6874110122713769 0  0.6251732633917156 0.6873918597918598 0  0.6877175381109539 0.6873690996941637 0  0.7502730167232898 0.6873418303186118 0  0.8128420542602235 0.6873087081132352 0  0.8754264745832206 0.6872676197090716 0  0.9380263656727742 0.6872152849527424 0  1.000638494331433 0.6871471790844015 0  0 0.75 0  0.062507640933643 0.749994537887496 0  0.1250156303350984 0.749988883669735 0  0.1875243394529758 0.7499828402889928 0  0.2500341871573201 0.7499762007553392 0  0.3125456703949915 0.7499687433117085 0  0.3750594037229115 0.7499602266956361 0  0.437576172885765 0.7499503853122964 0  0.5000970090146474 0.7499389235764484 0  0.5626232912711497 0.7499255071207397 0  0.6251568841500746 0.7499097444158632 0  0.6877003038387944 0.7498911417660659 0  0.7502568670882421 0.7498689892456117 0  0.8128306645330979 0.7498420807089677 0  0.8754259539372354 0.7498080822902594 0  0.9380451974778153 0.7497623393128787 0  1.000685044357281 0.7496964822554639 0  0 0.8125 0  0.06250607527049888 0.8124957297622223 0  0.1250124374092837 0.8124913115080719 0  0.18751939408157 0.8124865937514241 0  0.2500272969020287 0.8124814181371101 0  0.3125365709764321 0.8124756164185472 0  0.3750477554004087 0.8124690080761198 0  0.4375615621023768 0.8124613990767948 0  0.5000789648904582 0.8124525825664335 0  0.562601337877887 0.8124423425234296 0  0.6251306732311149 0.8124304606937665 0  0.6876699195381388 0.812416721660245 0  0.7502234755752053 0.8124008865894353 0  0.8127977758441557 0.8123825168276351 0  0.8754014761540734 0.8123602468598029 0  0.9380434269726372 0.8123294256984629 0  1.000724270518267 0.8122767073941201 0  0 0.875 0  0.0625042224286283 0.874997069475919 0  0.1250086495429317 0.8749940385113332 0  0.1875135020278659 0.8749908045260313 0  0.2500190346769303 0.8749872607894787 0  0.312525560220017 0.8749832949022113 0  0.3750334833914508 0.8749787882636046 0  0.4375433531628276 0.8749736176171705 0  0.5000559474370175 0.8749676610518746 0  0.5625724172667111 0.8749608137647776 0  0.6250945436899706 0.8749530254394423 0  0.6876252133077739 0.8749443848253909 0  0.750169320895414 0.8749353000980986 0  0.8127354605843716 0.8749268264927946 0  0.8753387193910553 0.8749209246788554 0  0.9380027261879845 0.8749183520981069 0  1.000743533385671 0.8748994618856649 0  0 0.9375 0  0.0625021646387126 0.9374985094590329 0  0.1250044359445129 0.9374969682003499 0  0.1875069293143401 0.9374953245047674 0  0.2500097788639585 0.9374935247516305 0  0.3125131508337284 0.9374915128741867 0  0.37501726328627 0.9374892305778734 0  0.4375224174034821 0.9374866192818725
[...]
<PointData  Vectors="f_54"> 
<DataArray  type="Float64"  Name="f_54"  NumberOfComponents="3" format="ascii">0.0000000000000000e+00 0.0000000000000000e+00 0.0000000000000000e+00  0.0000000000000000e+00 0.0000000000000000e+00 0.0000000000000000e+00  0.0000000000000000e+00 0.0000000000000000e+00 0.0000000000000000e+00  0.0000000000000000e+00 0.0000000000000000e+00 0.0000000000000000e+00  0.0000000000000000e+00 0.0000000000000000e+00 0.0000000000000000e+00  0.0000000000000000e+00 0.0000000000000000e+00 0.0000000000000000e+00  0.0000000000000000e+00 0.0000000000000000e+00 0.0000000000000000e+00  0.0000000000000000e+00 0.0000000000000000e+00 0.0000000000000000e+00  0.0000000000000000e+00 0.0000000000000000e+00 0.0000000000000000e+00  0.0000000000000000e+00 0.0000000000000000e+00 0.0000000000000000e+00  0.0000000000000000e+00 0.0000000000000000e+00 0.0000000000000000e+00  0.0000000000000000e+00 0.0000000000000000e+00 0.0000000000000000e+00  0.0000000000000000e+00 0.0000000000000000e+00 0.0000000000000000e+00  0.0000000000000000e+00 0.0000000000000000e+00 0.0000000000000000e+00  0.0000000000000000e+00 0.0000000000000000e+00 0.0000000000000000e+00  0.0000000000000000e+00 0.0000000000000000e+00 0.0000000000000000e+00  0.0000000000000000e+00 0.0000000000000000e+00 0.0000000000000000e+00  0.0000000000000000e+00 0.0000000000000000e+00 0.0000000000000000e+00  3.5677863320926030e-08 -5.1500990823434506e-08 0.0000000000000000e+00  7.2412206435595858e-08 -1.0527032849971762e-07 0.0000000000000000e+00  1.1126321324890021e-07 -1.6372536177502692e-07 0.0000000000000000e+00  1.5329165925951406e-07 -2.2959808345800657e-07 0.0000000000000000e+00  1.9955059958255092e-07 -3.0615309767108269e-07 0.0000000000000000e+00  2.5106609879899116e-07 -3.9750074169348381e-07 0.0000000000000000e+00  3.0880253770148527e-07 -5.0908801715278947e-07 0.0000000000000000e+00  3.7360716597042342e-07 -6.4853133013252683e-07 0.0000000000000000e+00  4.4612675389959596e-07 -8.2714220054198713e-07 0.0000000000000000e+00  5.2668460258625153e-07 -1.0629593516775288e-06 0.0000000000000000e+00  6.1509420465513042e-07 -1.3873409724943037e-06 0.0000000000000000e+00  7.1035761971042825e-07 -1.8608131549507361e-06 0.0000000000000000e+00  8.1014984966474062e-07 -2.6155940729224516e-06 0.0000000000000000e+00  9.1004376845994463e-07 -3.9834218766323448e-06 0.0000000000000000e+00  1.0036120336297962e-06 -6.9242993531018299e-06 0.0000000000000000e+00  1.0936653476473165e-06 -1.4614940752678821e-05 0.0000000000000000e+00  0.0000000000000000e+00 0.0000000000000000e+00 0.0000000000000000e+00  7.0299519133024979e-08 -1.0073410921614942e-07 0.0000000000000000e+00  1.4271033271567558e-07 -2.0585901798944764e-07 0.0000000000000000e+00  2.1935434944403491e-07 -3.2004175685386624e-07 0.0000000000000000e+00  3.0236170270745398e-07 -4.4852912882549186e-07 0.0000000000000000e+00  3.9385806333524709e-07 -5.9753835500399281e-07 0.0000000000000000e+00  4.9593054804175232e-07 -7.7480091746121253e-07 0.0000000000000000e+00  6.1056361482022008e-07 -9.9038087957970667e-07 0.0000000000000000e+00  7.3953520537954359e-07 -1.2579901116402503e-06 0.0000000000000000e+00  8.8426156339076675e-07 -1.5972282927094664e-06 0.0000000000000000e+00  1.0455744995920063e-06 -2.0375983005645707e-06 0.0000000000000000e+00  1.2233996543332277e-06 -2.6260096087182764e-06 0.0000000000000000e+00  1.4162497226982493e-06 -3.4411106795414360e-06 0.0000000000000000e+00  1.6202341550998106e-06 -4.6199737443272057e-06 0.0000000000000000e+00  1.8263757359041549e-06 -6.3997845824720018e-06 0.0000000000000000e+00  2.0107574935844808e-06 -9.1293665970795737e-06 0.0000000000000000e+00  2.0907919648333928e-06 -1.2879254246130913e-05 0.0000000000000000e+00  0.0000000000000000e+00 0.0000000000000000e+00 0.0000000000000000e+00  1.0280856391591039e-07 -1.4557480888546262e-07 0.0000000000000000e+00  2.0877621752772795e-07 -2.9739191166841237e-07 0.0000000000000000e+00  3.2108582003391160e-07 -4.6206029695185498e-07 0.0000000000000000e+00  4.4294979950834576e-07 -6.4695172594679470e-07 0.0000000000000000e+00  5.7760078367881556e-07 -8.6069334029659044e-07 0.0000000000000000e+00  7.2825126585488950e-07 -1.1138211972296359e-06 0.0000000000000000e+00  8.9800975589247641e-07 -1.4197039947880954e-06 0.0000000000000000e+00  1.0897399342408273e-06 -1.7959137588390634e-06 0.0000000000000000e+00  1.3058495794547752e-06 -2.2663312765098492e-06 0.0000000000000000e+00  1.5479989966684585e-06 -2.8644360769290300e-06 0.0000000000000000e+00  1.8167288549115095e-06 -3.6383892518747909e-06 0.0000000000000000e+00  2.1110443839853716e-06 -4.6583483766099841e-06 0.0000000000000000e+00  2.4281530737706791e-06 -6.0246998588827178e-06 0.0000000000000000e+00  2.7643215045098914e-06 -7.8687209054288312e-06 0.0000000000000000e+00  3.1216784162643350e-06 -1.0317061692945946e-05 0.0000000000000000e+00  3.5456908430682278e-06 -1.3371541221826019e-05 0.0000000000000000e+00  0.0000000000000000e+00 0.0000000000000000e+00 0.0000000000000000e+00  1.3215607564438295e-07 -1.8417033657516789e-07 0.0000000000000000e+00  2.6849997143613399e-07 -3.7607439879171902e-07 0.0000000000000000e+00  4.1326539853807236e-07 -5.8386152495061132e-07 0.0000000000000000e+00  5.7075668690949539e-07 -8.1653661943105030e-07 0.0000000000000000e+00  7.4535397938215725e-07 -1.0844843403074023e-06 0.0000000000000000e+00  9.4147916685466633e-07 -1.4001232850651633e-06 0.0000000000000000e+00  1.1635056908745000e-06 -1.7787587069047211e-06 0.0000000000000000e+00  1.4155937752694135e-06 -2.2397214791225136e-06 0.0000000000000000e+00  1.7014334516362321e-06 -2.8078901791572405e-06 0.0000000000000000e+00  2.0238837938281142e-06 -3.5156490306400423e-06 0.0000000000000000e+00  2.3845127755157627e-06 -4.4051130908331901e-06 0.0000000000000000e+00  2.7830749014737680e-06 -5.5297406610866750e-06 0.0000000000000000e+00  3.2170131678148731e-06 -6.9525870845562731e-06 0.0000000000000000e+00  3.6810423052309563e-06 -8.7344870994819176e-06 0.0000000000000000e+00  4.1659271925179934e-06 -1.0899933407881695e-05 0.0000000000000000e+00  4.6479925833544529e-06 -1.3370642046281042e-05 0.0000000000000000e+00  0.0000000000000000e+00 0.0000000000000000e+00 0.0000000000000000e+00  1.5731282077193274e-07 -2.1502901000010670e-07 0.0000000000000000e+00  3.1980151370937233e-07 -4.3887454221018278e-07 0.0000000000000000e+00  4.9272109294495835e-07 -6.8078046467851455e-07 0.0000000000000000e+00  6.8146283226838738e-07 -9.5086141717526370e-07 0.0000000000000000e+00  8.9158866868692502e-07 -1.2606064771389083e-06 0.0000000000000000e+00  1.1288202383818596e-06 -1.6234656368374347e-06 0.0000000000000000e+00  1.3989606786947603e-06 -2.0555440327977175e-06 0.0000000000000000e+00  1.7077234095955113e-06 -2.5764126244419852e-06 0.0000000000000000e+00  2.0604405838163642e-06 -3.2099945000667129e-06 0.0000000000000000e+00  2.4616283641000031e-06 -3.9853593934400577e-06 0.0000000000000000e+00  2.9144013115212118e-06 -4.9369699385159671e-06 0.0000000000000000e+00  3.4197569115830707e-06 -6.1033321118401506e-06 0.0000000000000000e+00  3.9757859187439288e-06 -7.5219693587166070e-06 0.0000000000000000e+00  4.5768704475943565e-06 -9.2173359895325676e-06 0.0000000000000000e+00  5.2129004214252913e-06 -1.1178112083503901e-05 0.0000000000000000e+00  5.8693759780798718e-06 -1.3325142322656964e-05 0.0000000000000000e+00  0.0000000000000000e+00 0.0000000000000000e+00 0.0000000000000000e+00  1.7729095383755736e-07 -2.3706878543053086e-07 0.0000000000000000e+00  3.6067172855815997e-07 -4.8361582662524937e-07 0.0000000000000000e+00  5.5635687426187445e-07 -7.4953092671685090e-07 0.0000000000000000e+00  7.7079044885359287e-07 -1.0455355522874491e-06 0.0000000000000000e+00  1.0107273674667746e-06 -1.3836377533580368e-06 0.0000000000000000e+00  1.2832673628607556e-06 -1.7776261154911585e-06 0.0000000000000000e+00  1.5958144830800325e-06 -2.2435969374912382e-06 0.0000000000000000e+00  1.9559265771489401e-06 -2.8004775273988221e-06 0.0000000000000000e+00  2.3710117806354134e-06 -3.4704440098896549e-06 0.0000000000000000e+00  2.8478272811231978e-06 -4.2790081308246608e-06 0.0000000000000000e+00  3.3917470424051276e-06 -5.2543299342100754e-06 0.0000000000000000e+00  4.0057978228319064e-06 -6.4249819135567143e-06 0.0000000000000000e+00  4.6895173000250894e-06 -7.8150201296040897e-06 0.0000000000000000e+00  5.4377395028798673e-06 -9.4351810416678550e-06 0.0000000000000000e+00  6.2393874702640392e-06 -1.1270344641432535e-05 0.0000000000000000e+00  7.0760657543507495e-06 -1.3268051444007402e-05 0.0000000000000000e+00  0.0000000000000000e+00 0.0000000000000000e+00 0.0000000000000000e+00  1.9117743756639657e-07 -2.4962952214835380e-07 0.0000000000000000e+00  3.8923810900152099e-07 -5.0899218244789719e-07 0.0000000000000000e+00  6.0124753008631435e-07 -7.8820001736853714e-07 0.0000000000000000e+00  8.3462145556255707e-07 -1.0981271323376170e-06 0.0000000000000000e+00  1.0972740600806062e-06 -1.4508075704825728e-06 0.0000000000000000e+00  1.3977238562028872e-06 -1.8598426330870749e-06 0.0000000000000000e+00  1.7451263493515341e-06 -2.3407981717420351e-06 0.0000000000000000e+00  2.1491870659133053e-06 -2.9115420594254797e-06 0.0000000000000000e+00  2.6198905821909183e-06 -3.5924186805771794e-06 0.0000000000000000e+00  3.1669658763262506e-06 -4.4060702055690150e-06 0.0000000000000000e+00  3.7990079788341431e-06 -5.3765880723807882e-06 0.0000000000000000e+00  4.5222120672898940e-06 -6.5275319909889956e-06 0.0000000000000000e+00  5.3387754608039011e-06 -7.8782756225043729e-06 0.0000000000000000e+00  6.2451928116878460e-06 -9.4383467174860003e-06 0.0000000000000000e+00  7.2308347496053491e-06 -1.1200284340183144e-05 0.0000000000000000e+00  8.2771021619764041e-06 -1.3133219659599974e-05 0.0000000000000000e+00  0.0000000000000000e+00 0.0000000000000000e+00 0.0000000000000000e+00  1.9818037377115372e-07 -2.5245849266680060e-07 0.0000000000000000e+00  4.0385789494554034e-07 -5.1452860719304380e-07 0.0000000000000000e+00  6.2477873828375412e-07 -7.9616004662417594e-07 0.0000000000000000e+00  8.6918246707521759e-07 -1.1079823977396650e-06 0.0000000000000000e+00  1.1460368801202108e-06 -1.4616493063084329e-06 0.0000000000000000e+00  1.4652468514546794e-06 -1.8701787115263934e-06 0.0000000000000000e+00  1.8378064225159117e-06 -2.3482700688130007e-06 0.0000000000000000e+00  2.2758395977274012e-06 -2.9125590581343710e-06 0.0000000000000000e+00  2.7924413861778957e-06 -3.5817386216903041e-06 0.0000000000000000e+00  3.4011895518994808e-06 -4.3764304107014891e-06 0.0000000000000000e+00  4.1151639984728062e-06 -5.3186361392042299e-06 0.0000000000000000e+00  4.9453239194894842e-06 -6.4305500076515652e-06 0.0000000000000000e+00  5.8982296284037789e-06 -7.7325093103398179e-06 0.0000000000000000e+00  6.9734592845017996e-06 -9.2399567548046111e-06 0.0000000000000000e+00  8.1616830586540385e-06 -1.0959494142291184e-05 0.0000000000000000e+00  9.4448388643663097e-06 -1.2884151336153057e-05 0.0000000000000000e+00  0.0000000000000000e+00 0.0000000000000000e+00 0.0000000000000000e+00  1.9768777384740817e-07 -2.4567959136860572e-07 0.0000000000000000e+00  4.0323858018294597e-07 -5.0051125891688255e-07 0.0000000000000000e+00  6.2483438053065124e-07 -7.7394161541327361e-07 0.0000000000000000e+00  8.7130403814739682e-07 -1.0760122542859371e-06 0.0000000000000000e+00  1.1524604842935776e-06 -1.4176571008204673e-06 0.0000000000000000e+00  1.4794431920271654e-06 -1.8109946921650877e-06 0.0000000000000000e+00  1.8650441761340644e-06 -2.2696048537730518e-06 0.0000000000000000e+00  2.3239648635689599e-06 -2.8087717123209827e-06 0.0000000000000000e+00  2.8728984580954532e-06 -3.4456668822750035e-06 0.0000000000000000e+00  3.5302509100048479e-06 -4.1994408700102967e-06 0.0000000000000000e+00  4.3152078006572164e-06 -5.0911918935879262e-06 0.0000000000000000e+00  5.2457680320056953e-06 -6.1437930089451240e-06 0.0000000000000000e+00  6.3354365756809168e-06 -7.3815730537447014e-06 0.0000000000000000e+00  7.5888024022711947e-06 -8.8298228391210885e-06 0.0000000000000000e+00  8.9976662319131323e-06 -1.0513926894238231e-05 0.0000000000000000e+00  1.0541783429928689e-05 -1.2457427952903830e-05 0.0000000000000000e+00  0.0000000000000000e+00 0.0000000000000000e+00 0.0000000000000000e+00  1.8933582096543225e-07 -2.2975461809017841e-07 0.0000000000000000e+00  3.8658073437047927e-07 -4.6790495706913344e-07 0.0000000000000000e+00  6.0002598377045714e-07 -7.2309746461900228e-07 0.0000000000000000e+00  8.3875296947549739e-07 -1.0044890918832805e-06 0.0000000000000000e+00  1.1130777280677458e-06 -1.3220026826846154e-06 0.0000000000000000e+00  1.4350488087510443e-06 -1.6865819017221792e-06 0.0000000000000000e+00  1.8189997698210155e-06 -2.1104454672169213e-06 0.0000000000000000e+00  2.2821273452389799e-06 -2.6073445927587725e-06 0.0000000000000000e+00  2.8450017468326733e-06 -3.1928400651570417e-06 0.0000000000000000e+00  3.5317891674472842e-06 -3.8846438922739258e-06 0.0000000000000000e+00  4.3697449596941664e-06 -4.7031237967641502e-06 0.0000000000000000e+00  5.3872117739236811e-06 -5.6721484160444715e-06 0.0000000000000000e+00  6.6090583877448197e-06 -6.8205265734471782e-06 0.0000000000000000e+00  8.0487570879567049e-06 -8.1842584198500515e-06 0.0000000000000000e+00  9.6985043215076111e-06 -9.8094425794272595e-06 0.0000000000000000e+00  1.1525203771423374e-05 -1.1754591038990646e-05 0.0000000000000000e+00  0.0000000000000000e+00 0.0000000000000000e+00 0.0000000000000000e+00  1.7308035867893559e-07 -2.0544174832464397e-07 0.0000000000000000e+00  3.5373111142790277e-07 -4.1826799585734211e-07 0.0000000000000000e+00  5.4994807172470595e-07 -6.4607048963148491e-07 0.0000000000000000e+00  7.7062118862351458e-07 -8.9686686491588891e-07 0.0000000000000000e+00  1.0260723166229059e-06 -1.1793149060900806e-06 0.0000000000000000e+00  1.3287072880652341e-06 -1.5029304489601347e-06 0.0000000000000000e+00  1.6938238206598732e-06 -1.8783153507747258e-06 0.0000000000000000e+00  2.1406043705141700e-06 -2.3174129806704983e-06 0.0000000000000000e+00  2.6932739661906056e-06 -2.8338341967529541e-06 0.0000000000000000e+00  3.3822651471447339e-06 -3.4433507040505732e-06 0.0000000000000000e+00  4.2449022879894896e-06 -4.1647568297756919e-06 0.0000000000000000e+00  5.3244277831143578e-06 -5.0214787454229545e-06 0.0000000000000000e+00  6.6649896754232086e-06 -6.0445540918074428e-06 0.0000000000000000e+00  8.2988170463954359e-06 -7.2777856609386176e-06 0.0000000000000000e+00  1.0222523438732452e-05 -8.7856761886925511e-06 0.0000000000000000e+00  1.2369562521517949e-05 -1.0664446535584486e-05 0.0000000000000000e+00  0.0000000000000000e+00 0.0000000000000000e+00 0.0000000000000000e+00  1.4926152029390975e-07 -1.7375335209388668e-07 0.0000000000000000e+00  3.0532546740536606e-07 -3.5366743944359490e-07 0.0000000000000000e+00  4.7542818431781485e-07 -5.4606707521592579e-07 0.0000000000000000e+00  6.6773100181024386e-07 -7.5761705547931582e-07 0.0000000000000000e+00  8.9191030271723699e-07 -9.9549320094131252e-07 0.0000000000000000e+00  1.1599223313567645e-06 -1.2675569280975913e-06 0.0000000000000000e+00  1.4870374458321786e-06 -1.5825396496596994e-06 0.0000000000000000e+00  1.8932675603976938e-06 -1.9502535108125455e-06 0.0000000000000000e+00  2.4053290444035193e-06 -2.3818695288438913e-06 0.0000000000000000e+00  3.0592368557095758e-06 -2.8903617275475226e-06 0.0000000000000000e+00  3.9033555215609904e-06 -3.4913471346658018e-06 0.0000000000000000e+00  5.0008306514934822e-06 -4.2048358555813578e-06 0.0000000000000000e+00  6.4278962206482785e-06 -5.0589473768560580e-06 0.0000000000000000e+00  8.2592079956009859e-06 -6.0973623473444758e-06 0.0000000000000000e+00  1.0523312303590282e-05 -7.3919953493424974e-06 0.0000000000000000e+00  1.3112714214950649e-05 -9.0581158477182019e-06 0.0000000000000000e+00  0.0000000000000000e+00 0.0000000000000000e+00 0.0000000000000000e+00  1.1864799380516548e-07 -1.3591352762375568e-07 0.0000000000000000e+00  2.4289213244214826e-07 -2.7659435487782152e-07 0.0000000000000000e+00  3.7872359409362706e-07 -4.2693117730250814e-07 0.0000000000000000e+00  5.3298576011027472e-07 -5.9206567356938953e-07 0.0000000000000000e+00  7.1394575795646486e-07 -7.7751818294058336e-07 0.0000000000000000e+00  9.3207748109540025e-07 -9.8931280000911074e-07 0.0000000000000000e+00  1.2011986539186580e-06 -1.2341019140344648e-06 0.0000000000000000e+00  1.5401908063670799e-06 -1.5192914275828111e-06 0.0000000000000000e+00  1.9756714433669527e-06 -1.8531729037001709e-06 0.0000000000000000e+00  2.5461908321946186e-06 -2.2450892358539023e-06 0.0000000000000000e+00  3.3087224329707343e-06 -2.7057394777372326e-06 0.0000000000000000e+00  4.3479955814624822e-06 -3.2480141679315104e-06 0.0000000000000000e+00  5.7869572933181496e-06 -3.8896772193671370e-06 0.0000000000000000e+00  7.7871438337781620e-06 -4.6616238305686325e-06 0.0000000000000000e+00  1.0498833307158172e-05 -5.6280783805719703e-06 0.0000000000000000e+00  1.3871382036280791e-05 -6.8984618321675987e-06 0.0000000000000000e+00  0.0000000000000000e+00 0.0000000000000000e+00 0.0000000000000000e+00  8.2445933005768630e-08 -9.3315196273623136e-08 0.0000000000000000e+00  1.6888255842618262e-07 -1.8987784489242962e-07 0.0000000000000000e+00  2.6360398161747579e-07 -2.9301509419005757e-07 0.0000000000000000e+00  3.7156496025533630e-07 -4.0622061654057177e-07 0.0000000000000000e+00  4.9884164250259056e-07 -5.3323528086618680e-07 0.0000000000000000e+00  6.5329054175954995e-07 -6.7812293033429646e-07 0.0000000000000000e+00  8.4556005958977852e-07 -8.4533410759223795e-07 0.0000000000000000e+00  1.0907345257638403e-06 -1.0397399500688175e-06 0.0000000000000000e+00  1.4111443896871215e-06 -1.2665924851635602e-06 0.0000000000000000e+00  1.8413976748739710e-06 -1.5313074980214072e-06 0.0000000000000000e+00  2.4377592520525027e-06 -1.8388452688311754e-06 0.0000000000000000e+00  3.2960822524414546e-06 -2.1923188925056275e-06 0.0000000000000000e+00  4.5855936372445353e-06 -2.5909101243634643e-06 0.0000000000000000e+00  6.6043844097456731e-06 -3.0325074277883506e-06 0.0000000000000000e+00  9.8139320201394215e-06 -3.5614813635374839e-06 0.0000000000000000e+00  1.4467821518020625e-05 -4.5974219910103898e-06 0.0000000000000000e+00  0.0000000000000000e+00 0.0000000000000000e+00 0.0000000000000000e+00  4.2259827077111957e-08 -4.7476916670498591e-08 0.0000000000000000e+00  8.6598395644289929e-08 -9.6598084686112175e-08 0.0000000000000000e+00  1.3525982960866789e-07 -1.4904708640605536e-07 0.0000000000000000e+00  1.9085051538597341e-07 -2.0658972305224248e-07 0.0000000000000000e+00  2.5659819902936207e-07 -2.7111276131097211e-07 0.0000000000000000e+00  3.3673307873223284e-07 -3.4465776310911108e-07 0.0000000000000000e+00  4.3709471166678195e-07 -4.2944210573581686e-07 0.0000000000000000e+00  5.6616826091227114e-07 -5.2784586432148975e-07 0.0000000000000000e+00  7.3698125188972051e-07 -6.4230500030814413e-07 0.0000000000000000e+00  9.7085070969203748e-07 -7.7493781792678729e-07 0.0000000000000000e+00  1.3054612415843944e-06 -9.2637572605495356e-07 0.0000000000000000e+00  1.8141068133353551e-06 -1.0920776878659916e-06 0.0000000000000000e+00  2.6568615604458974e-06 -1.2501260173831104e-06 0.0000000000000000e+00  4.2332670680702971e-06 -1.3179865724828123e-06 0.0000000000000000e+00  7.6929562150023649e-06 -9.8743514974914282e-07 0.0000000000000000e+00  1.6845657624905858e-05 9.5746744247098758e-07 0.0000000000000000e+00  0.0000000000000000e+00 0.0000000000000000e+00 0.0000000000000000e+00  0.0000000000000000e+00 0.0000000000000000e+00 0.0000000000000000e+00  0.0000000000000000e+00 0.0000000000000000e+00 0.0000000000000000e+00  0.0000000000000000e+00 0.0000000000000000e+00 0.0000000000000000e+00  0.0000000000000000e+00 0.0000000000000000e+00 0.0000000000000000e+00  0.0000000000000000e+00 0.0000000000000000e+00 0.0000000000000000e+00  0.0000000000000000e+00 0.0000000000000000e+00 0.0000000000000000e+00  0.0000000000000000e+00 0.0000000000000000e+00 0.0000000000000000e+00  0.0000000000000000e+00 0.0000000000000000e+00 0.00000