<?xml version="1.0"?>
<VTKFile type="UnstructuredGrid"  version="0.1"  >
<UnstructuredGrid>
<Piece  NumberOfPoints="289" NumberOfCells="512">
<Points>
<DataArray  type="Float64"  NumberOfComponents="3"  format="ascii">0 0 0  0.0625 0 0  0.125 0 0  0.1875 0 0  0.25 0 0  0.3125 0 0  0.375 0 0  0.4375 0 0  0.5 0 0  0.5625 0 0  0.625 0 0  0.6875 0 0  0.75 0 0  0.8125 0 0  0.875 0 0  0.9375 0 0  1 0 0  0 0.0625 0  0.06250078656759367 0.0624995812540248 0  0.1250015966760514 0.06249914212505861 0  0.1875024537010696 0.06249866077185653 0  0.2500033810902046 0.06249811215639792 0  0.3125044022112539 0.06249746585875146 0  0.3750055399913272 0.062496682977383 0  0.4375068162744801 0.06249571134125056 0  0.5000082508301524 0.06249447751022608 0  0.5625098599493824 0.06249287232616379 0  0.6250116545465078 0.06249072260560638 0  0.6875136375406233 0.06248773064498898 0  0.7500157996395388 0.0624833322282177 0  0.8125181099848915 0.06247632826178447 0  0.8750204873486319 0.06246382502617684 0  0.9375226941918403 0.06243785856126009 0  1.000023933442778 0.06237356607945356 0  0 0.125 0  0.06250154972909737 0.1249991826721119 0  0.125003146444166 0.1249983260447648 0  0.1875048368997247 0.1249973881020005 0  0.250006668131445 0.1249963209072894 0  0.3125086872267582 0.1249950666552829 0  0.3750109406780217 0.1249935522329993 0  0.437513473171548 0.1249916811460032 0  0.5000163256789916 0.124989320720176 0  0.5625195327535574 0.1249862805485791 0  0.6250231190008144 0.1249822740960134 0  0.6875270948076828 0.1249768468567294 0  0.7500314516820372 0.1249692371405015 0  0.812536158716496 0.1249581049278565 0  0.8750411679570279 0.1249410389894162 0  0.9375464699000109 0.1249139276343555 0  1.000052415638249 0.1248718798611666 0  0 0.1875 0  0.06250226625993162 0.18749882313681 0  0.1250046027063536 0.1874975908143184 0  0.1875070794209389 0.1874962439435118 0  0.2500097672494065 0.1874947155936444 0  0.3125127376432418 0.1874929259515341 0  0.3750160618785635 0.1874907756781323 0  0.4375198094194592 0.1874881366246221 0  0.5000240452066553 0.1874848382496631 0  0.5625288257129923 0.1874806470392447 0  0.6250341937481374 0.1874752346653239 0  0.68754017225512 0.1874681289710833 0  0.7500467577496899 0.1874586431746997 0  0.8125539144922158 0.1874457958619792 0  0.8750615696563767 0.1874283133989421 0  0.9375695983070169 0.1874050878382456 0  1.000077703650889 0.1873772716062354 0  0 0.25 0  0.06250291311740525 0.2499985187847558 0  0.1250059190970705 0.2499969696407064 0  0.1875091110982496 0.249995280496476 0  0.2500125839303625 0.2499933704257828 0  0.3125164341930543 0.2499911441941485 0  0.3750207595998892 0.249988485441707 0  0.437525657146874 0.2499852478408173 0  0.5000312197767276 0.2499812434259137 0  0.562537531242757 0.2499762272713749 0  0.6250446590514974 0.2499698782099576 0  0.6875526457379967 0.2499617775506174 0  0.750061499388653 0.2499513949238251 0  0.8125711853806765 0.2499381094991393 0  0.8750816231490854 0.2499213367775862 0  0.9375926974071906 0.2499008890463225 0  1.000104324900166 0.2498776112297154 0  0 0.3125 0  0.06250346769881075 0.3124982820774343 0  0.1250070499387312 0.3124964879658093 0  0.1875108622970617 0.3124945371979218 0  0.2500150234042804 0.3124923402650834 0  0.3125196556915584 0.3124897932757843 0  0.375024885165688 0.3124867716214039 0  0.437530839745155 0.3124831223755828 0  0.500037645617333 0.3124786553674776 0  0.5625454210622336 0.3124731334577309 0  0.6250542673169028 0.3124662639560921 0  0.6875642564451512 0.3124576961861451 0  0.7500754169557221 0.3124470362279896 0  0.8125877191175308 0.3124338999299719 0  0.8751010632507987 0.3124180364136969 0  0.9376152741983508 0.3123995472967879 0  1.000130095923511 0.3123791461966036 0  0 0.375 0  0.06250390830178397 0.3749981212838968 0  0.1250079511114623 0.3749961624543373 0  0.1875122650800631 0.3749940392961742 0  0.2500169919102775 0.374991659021076 0  0.3125222800997843 0.3749889153650043 0  0.3750282856421638 0.3749856830069524 0  0.4375351710849555 0.3749818112697767 0  0.5000431021563506 0.3749771174172145 0  0.5625522410037329 0.3749713806215652 0  0.6250627350440322 0.3749643391582088 0  0.6875747006904444 0.3749556959640207 0  0.750088202047968 0.3749451414976361 0  0.8126032262960218 0.3749324066993823 0  0.8751196598445962 0.3749173579903222 0  0.9376372716545224 0.3749001291431115 0  1.000155710891897 0.3748812363084116 0  0 0.4375 0  0.06250421483989725 0.4374980403526142 0  0.1250085814528792 0.4374960008046512 0  0.1875132552123565 0.4374937977721859 0  0.2500183991489809 0.4374913400523671 0  0.3125241871374986 0.4374885245422063 0  0.3750308061333383 0.4374852314469082 0  0.4375384567567154 0.4374813189684569 0  0.5000473511687623 0.43747661776033 0  0.5625577067538721 0.4374709260569774 0  0.625069733715906 0.4374640075691685 0  0.6875836145618773 0.437455596215014 0  0.7500994740635502 0.4374454144775662 0  0.8126173403745395 0.4374332145325007 0  0.8751371022466181 0.4374188497410402 0  0.9376584736265398 0.4374023717184138 0  1.000180983029031 0.4373841185107153 0  0 0.5 0  0.06250436984573826 0.4999980391057059 0  0.125008904767684 0.4999960022111896 0  0.1875137751654509 0.4999938102389544 0  0.2500191622092492 0.4999913778161236 0  0.3125252629258118 0.4999886097458238 0  0.3750322946827989 0.4999853970118193 0  0.4375404983714435 0.4999816121688166 0  0.5000501390433679 0.4999771040518172 0  0.5625615019610767 0.4999716919934526 0  0.6250748809934902 0.4999651603870108 0  0.6875905552584436 0.4999572558612197 0  0.7501087495765385 0.4999476920696642 0  0.8126295761366982 0.4999361714303259 0  0.8751529611221894 0.4999224377611927 0  0.9376785729306941 0.4999063724752825 0  1.000205785740458 0.4998881234004957 0  0 0.5625 0  0.06250435975743776 0.5624981136824903 0  0.1250088924588071 0.5624961583108077 0  0.1875137781916479 0.562494062507264 0  0.2500192111762919 0.5624917502210141 0  0.3125254071164844 0.5624891381101687 0  0.3750326106423801 0.5624861324874587 0  0.4375411023544687 0.5624826254775767 0  0.5000512042909921 0.562478489794339 0  0.5625632814545753 0.5624735712157121 0  0.6250777351439284 0.5624676775612892 0  0.6875949811980704 0.5624605633187834 0  0.7501154034598638 0.5624519115158849 0  0.8126392720086896 0.5624413220506017 0  0.8751666222073757 0.5624283326518187 0  0.9376971125667102 0.5624125249893468 0  1.000229920351503 0.5623937852767926 0  0 0.625 0  0.06250417642823018 0.6249982571743432 0  0.1250085266793866 0.6249964544980489 0  0.1875132333767075 0.6249945306519364 0  0.2500184964327963 0.6249924214881732 0  0.3125245427898097 0.6249900585269311 0  0.375031637323105 0.6249873671916792 0  0.4375400949442507 0.6249842643229826 0  0.5000502932979427 0.6249806539446575 0  0.5625626840707856 0.6249764191917048 0  0.6250777982145397 0.6249714065489748 0  0.6875962355287544 0.6249653962959413 0  0.7501186215386652 0.6249580521293623 0  0.8126455060269868 0.6249488496405902 0  0.8751771761191243 0.6249370126376058 0  0.9377133846678873 0.6249215594032022 0  1.000253088594664 0.6249016636254688 0  0 0.6875 0  0.0625038187219218 0.687498460406619 0  0.125007803743201 0.6874968715405133 0  0.1875121313193976 0.6874951835370763 0  0.250016997302113 0.6874933456170225 0  0.3125226289635981 0.6874913058784043 0  0.3750292993347007 0.687489011277888 0  0.4375373449929772 0.6874864075239384 0  0.500047188010508 0.6874834379205338 0  0.5625593618103957 0.6874800385964708 0  0.6250745379390072 0.6874761240951481 0  0.6875935441672301 0.6874715505989707 0  0.7501173504640765 0.6874660334031412 0  0.8126469747114459 0.6874589859730084 0  0.8751832285327842 0.6874492683809219 0  0.9377262212983852 0.6874349673181821 0  1.000274682259529 0.6874136945706684 0  0 0.75 0  0.06250329396861676 0.7499987128172576 0  0.12500673733319 0.7499973874194853 0  0.1875104897374548 0.7499959857715959 0  0.2500147311261765 0.7499944706315358 0  0.3125196747452254 0.7499928066425092 0  0.3750255839831421 0.7499909623329913 0  0.4375327951515876 0.7499889133470009 0  0.5000417489733067 0.7499866469289563 0  0.562553034059269 0.7499841664824498 0  0.6250674449684966 0.7499814912385846 0  0.6875860525297367 0.749978635605909 0  0.7501102673013743 0.7499755269226598 0  0.8126418319635528 0.7499717663944173 0  0.8751825805599762 0.749966064877464 0  0.9377336572212648 0.7499552641590879 0  1.000293902514489 0.7499338988610852 0  0 0.8125 0  0.06250261897619688 0.8124990033493621 0  0.1250053608556003 0.812497979243925 0  0.1875083579173519 0.8124969009204857 0  0.2500117611680459 0.8124957435407351 0  0.3125157529485453 0.8124944862379007 0  0.3750205641811626 0.8124931158072666 0  0.4375264993792086 0.8124916332440624 0  0.5000339744151061 0.8124900650495448 0  0.5625435750885222 0.8124884820972997 0  0.6250561489620866 0.8124870288570266 0  0.6875729474220128 0.812485960257309 0  0.7500958315861581 0.8124856550324189 0  0.8126275140889164 0.8124864662995029 0  0.8751716359887909 0.812487929736759 0  0.937731978193829 0.8124860540514168 0  1.00030941143373 0.8124672858843841 0  0 0.875 0  0.06250182025895273 0.874999321229177 0  0.1250037281787211 0.8749986249621248 0  0.1875058186417164 0.8749978945201202 0  0.2500082010673302 0.8749971153783815 0  0.3125110095856225 0.8749962774100363 0  0.3750144175571423 0.8749953790557522 0  0.4375186597998637 0.8749944352395808 0  0.5000240685754681 0.8749934926987417 0  0.5625311347626308 0.874992660374748 0  0.6250406165378289 0.8749921710021167 0  0.6875537398050516 0.8749925069860378 0  0.7500725756534091 0.8749946497087483 0  0.8126007358718088 0.8750005021896535 0  0.8751444716948424 0.8750131474472134 0  0.9377132247174388 0.8750337971141597 0  1.000311688719103 0.875035771135647 0  0 0.9375 0  0.06250093319641997 0.9374996564732867 0  0.1250019120714524 0.9374993045003956 0  0.1875029862475384 0.9374989361757499 0  0.2500042133303995 0.9374985449984029 0  0.3125056646390769 0.937498127347539 0  0.375007433614259 0.9374976852998774 0  0.4375096491671936 0.93749723224019
[...]
<PointData  Vectors="f_54"> 
<DataArray  type="Float64"  Name="f_54"  NumberOfComponents="3" format="ascii">0.0000000000000000e+00 0.0000000000000000e+00 0.0000000000000000e+00  0.0000000000000000e+00 0.0000000000000000e+00 0.0000000000000000e+00  0.0000000000000000e+00 0.0000000000000000e+00 0.0000000000000000e+00  0.0000000000000000e+00 0.0000000000000000e+00 0.0000000000000000e+00  0.0000000000000000e+00 0.0000000000000000e+00 0.0000000000000000e+00  0.0000000000000000e+00 0.0000000000000000e+00 0.0000000000000000e+00  0.0000000000000000e+00 0.0000000000000000e+00 0.0000000000000000e+00  0.0000000000000000e+00 0.0000000000000000e+00 0.0000000000000000e+00  0.0000000000000000e+00 0.0000000000000000e+00 0.0000000000000000e+00  0.0000000000000000e+00 0.0000000000000000e+00 0.0000000000000000e+00  0.0000000000000000e+00 0.0000000000000000e+00 0.0000000000000000e+00  0.0000000000000000e+00 0.0000000000000000e+00 0.0000000000000000e+00  0.0000000000000000e+00 0.0000000000000000e+00 0.0000000000000000e+00  0.0000000000000000e+00 0.0000000000000000e+00 0.0000000000000000e+00  0.0000000000000000e+00 0.0000000000000000e+00 0.0000000000000000e+00  0.0000000000000000e+00 0.0000000000000000e+00 0.0000000000000000e+00  0.0000000000000000e+00 0.0000000000000000e+00 0.0000000000000000e+00  0.0000000000000000e+00 0.0000000000000000e+00 0.0000000000000000e+00  1.0840866026316596e-07 -1.1183472728932741e-07 0.0000000000000000e+00  2.2002503385886412e-07 -2.2856412496527150e-07 0.0000000000000000e+00  3.3806488841579476e-07 -3.5539548570293078e-07 0.0000000000000000e+00  4.6574770507545860e-07 -4.9820384703843902e-07 0.0000000000000000e+00  6.0627410251665759e-07 -6.6399348150379199e-07 0.0000000000000000e+00  7.6277332740297481e-07 -8.6156035988077188e-07 0.0000000000000000e+00  9.3821044688925072e-07 -1.1025305683118044e-06 0.0000000000000000e+00  1.1352431530195901e-06 -1.4031216515653384e-06 0.0000000000000000e+00  1.3560182003387733e-06 -1.7873676099732872e-06 0.0000000000000000e+00  1.6018944081009425e-06 -2.2935134109350853e-06 0.0000000000000000e+00  1.8730624730775163e-06 -2.9878481548423095e-06 0.0000000000000000e+00  2.1679707048411934e-06 -3.9976774148952565e-06 0.0000000000000000e+00  2.4822757921377430e-06 -5.5987054226015482e-06 0.0000000000000000e+00  2.8065155397060099e-06 -8.4736043637275152e-06 0.0000000000000000e+00  3.1205338256478534e-06 -1.4563439436683626e-05 0.0000000000000000e+00  3.3817343786036682e-06 -3.0155247405855234e-05 0.0000000000000000e+00  0.0000000000000000e+00 0.0000000000000000e+00 0.0000000000000000e+00  2.1361093209541883e-07 -2.1877620973444098e-07 0.0000000000000000e+00  4.3363097366968350e-07 -4.4703107329664865e-07 0.0000000000000000e+00  6.6649489711666059e-07 -6.9482311681788411e-07 0.0000000000000000e+00  9.1866461119257690e-07 -9.7344164384493934e-07 0.0000000000000000e+00  1.1965942724357657e-06 -1.2962337638123511e-06 0.0000000000000000e+00  1.5066356196876292e-06 -1.6797545550178059e-06 0.0000000000000000e+00  1.8548624055687463e-06 -2.1454973069758931e-06 0.0000000000000000e+00  2.2467938817693655e-06 -2.7226762062921303e-06 0.0000000000000000e+00  2.6870005350341970e-06 -3.4529719957900217e-06 0.0000000000000000e+00  3.1785794336733198e-06 -4.3990554484926489e-06 0.0000000000000000e+00  3.7224838868496237e-06 -5.6605630186683750e-06 0.0000000000000000e+00  4.3166538498548819e-06 -7.4048042682349005e-06 0.0000000000000000e+00  4.9547154905864173e-06 -9.9248990346397031e-06 0.0000000000000000e+00  5.6232828418309630e-06 -1.3736148606556445e-05 0.0000000000000000e+00  6.2937067515301842e-06 -1.9642437554146540e-05 0.0000000000000000e+00  6.8890861660702883e-06 -2.8132929051923115e-05 0.0000000000000000e+00  0.0000000000000000e+00 0.0000000000000000e+00 0.0000000000000000e+00  3.1240416614285464e-07 -3.1623929492267734e-07 0.0000000000000000e+00  6.3439613316062790e-07 -6.4596450161281237e-07 0.0000000000000000e+00  9.7562584824998672e-07 -1.0034323127955413e-06 0.0000000000000000e+00  1.3458328911143118e-06 -1.4045199792563638e-06 0.0000000000000000e+00  1.7548199988457565e-06 -1.8677682890146450e-06 0.0000000000000000e+00  2.2123373482566391e-06 -2.4157626833492212e-06 0.0000000000000000e+00  2.7278442050897627e-06 -3.0770832927288665e-06 0.0000000000000000e+00  3.3101157571583288e-06 -3.8891990351243444e-06 0.0000000000000000e+00  3.9666705315356878e-06 -4.9029202578318111e-06 0.0000000000000000e+00  4.7030129204169850e-06 -6.1893792350614172e-06 0.0000000000000000e+00  5.5217254327541659e-06 -7.8508740972763420e-06 0.0000000000000000e+00  6.4215338629622918e-06 -1.0036625566983472e-05 0.0000000000000000e+00  7.3967197372898714e-06 -1.2960886972157286e-05 0.0000000000000000e+00  8.4381978559770105e-06 -1.6905296966729160e-05 0.0000000000000000e+00  9.5417505146817003e-06 -2.2139421995229741e-05 0.0000000000000000e+00  1.0748764963527400e-05 -2.8609061638491474e-05 0.0000000000000000e+00  0.0000000000000000e+00 0.0000000000000000e+00 0.0000000000000000e+00  4.0160879550073954e-07 -4.0021604007187969e-07 0.0000000000000000e+00  8.1592575885052997e-07 -8.1715836691988058e-07 0.0000000000000000e+00  1.2557852877059753e-06 -1.2684291396219904e-06 0.0000000000000000e+00  1.7342314574975312e-06 -1.7734512717594580e-06 0.0000000000000000e+00  2.2645316652387389e-06 -2.3545790788986820e-06 0.0000000000000000e+00  2.8600732209134007e-06 -3.0384797277443425e-06 0.0000000000000000e+00  3.5340943215541080e-06 -3.8579281684716072e-06 0.0000000000000000e+00  4.2991986817825645e-06 -4.8541985404083447e-06 0.0000000000000000e+00  5.1666098463096059e-06 -6.0802550505275722e-06 0.0000000000000000e+00  6.1451458722655628e-06 -7.6048546782222800e-06 0.0000000000000000e+00  7.2399504489170902e-06 -9.5172105490883101e-06 0.0000000000000000e+00  8.4511180551267104e-06 -1.1930355441186474e-05 0.0000000000000000e+00  9.7725022777618601e-06 -1.4977320647880147e-05 0.0000000000000000e+00  1.1191083501437432e-05 -1.8785468895633937e-05 0.0000000000000000e+00  1.2686357234025773e-05 -2.3401524348401651e-05 0.0000000000000000e+00  1.4221203571978644e-05 -2.8645328054365876e-05 0.0000000000000000e+00  0.0000000000000000e+00 0.0000000000000000e+00 0.0000000000000000e+00  4.7810408472198390e-07 -4.6746595654583087e-07 0.0000000000000000e+00  9.7191468139860117e-07 -9.5402677646911441e-07 0.0000000000000000e+00  1.4973635636062064e-06 -1.4796820947733564e-06 0.0000000000000000e+00  2.0707860142653632e-06 -2.0662905138160072e-06 0.0000000000000000e+00  2.7090178625285952e-06 -2.7386393394945232e-06 0.0000000000000000e+00  3.4293529172453180e-06 -3.5256838027332932e-06 0.0000000000000000e+00  4.2492939121936919e-06 -4.4620040454330261e-06 0.0000000000000000e+00  5.1860187563872794e-06 -5.5894909845112995e-06 0.0000000000000000e+00  6.2554808078293613e-06 -6.9591631268644281e-06 0.0000000000000000e+00  7.4710793112248275e-06 -8.6327422773009799e-06 0.0000000000000000e+00  8.8418914655038896e-06 -1.0682995242521847e-05 0.0000000000000000e+00  1.0370568464988751e-05 -1.3190583889478606e-05 0.0000000000000000e+00  1.2051164520749763e-05 -1.6232962548191241e-05 0.0000000000000000e+00  1.3867336173924359e-05 -1.9858131828565163e-05 0.0000000000000000e+00  1.5791426962235910e-05 -2.4036141721589513e-05 0.0000000000000000e+00  1.7785680443436327e-05 -2.8594085413717204e-05 0.0000000000000000e+00  0.0000000000000000e+00 0.0000000000000000e+00 0.0000000000000000e+00  5.3889189343575786e-07 -5.1562090925110823e-07 0.0000000000000000e+00  1.0962674378055848e-06 -1.0518041533086113e-06 0.0000000000000000e+00  1.6909740709893804e-06 -1.6299899367377523e-06 0.0000000000000000e+00  2.3425416194657681e-06 -2.2734034631254241e-06 0.0000000000000000e+00  3.0714172945462005e-06 -3.0080266618357694e-06 0.0000000000000000e+00  3.8990508220730551e-06 -3.8636469844553216e-06 0.0000000000000000e+00  4.8477434864162682e-06 -4.8749653969904239e-06 0.0000000000000000e+00  5.9401471336038725e-06 -6.0826746180507630e-06 0.0000000000000000e+00  7.1982740357811305e-06 -7.5342736850084552e-06 0.0000000000000000e+00  8.6418713370778422e-06 -9.2841087508577347e-06 0.0000000000000000e+00  1.0286051530954557e-05 -1.1391648760180392e-05 0.0000000000000000e+00  1.2138190610255630e-05 -1.3916279084852816e-05 0.0000000000000000e+00  1.4194341697593902e-05 -1.6906102617027936e-05 0.0000000000000000e+00  1.6435753586556741e-05 -2.0378219097463165e-05 0.0000000000000000e+00  1.8826412359981812e-05 -2.4290975752874989e-05 0.0000000000000000e+00  2.1312521031844292e-05 -2.8518725271787418e-05 0.0000000000000000e+00  0.0000000000000000e+00 0.0000000000000000e+00 0.0000000000000000e+00  5.8119584791547619e-07 -5.4321432003236683e-07 0.0000000000000000e+00  1.1832920872188311e-06 -1.1075833445348402e-06 0.0000000000000000e+00  1.8277304528778385e-06 -1.7150788965534433e-06 0.0000000000000000e+00  2.5370007217148903e-06 -2.3893216795067482e-06 0.0000000000000000e+00  3.3350767806274398e-06 -3.1564402545462618e-06 0.0000000000000000e+00  4.2477156457092612e-06 -4.0459473398122482e-06 0.0000000000000000e+00  5.3025184855113899e-06 -5.0915877736752683e-06 0.0000000000000000e+00  6.5286013308953630e-06 -6.3320429492651674e-06 0.0000000000000000e+00  7.9556605877406661e-06 -7.8112528765594430e-06 0.0000000000000000e+00  9.6121597771301137e-06 -9.5779125599464405e-06 0.0000000000000000e+00  1.1522346622004768e-05 -1.1683396880289268e-05 0.0000000000000000e+00  1.3701905762306085e-05 -1.4177005710683157e-05 0.0000000000000000e+00  1.6152368685062884e-05 -1.7097195455719019e-05 0.0000000000000000e+00  1.8855035412735632e-05 -2.0457892269083347e-05 0.0000000000000000e+00  2.1766059942815077e-05 -2.4230966346066613e-05 0.0000000000000000e+00  2.4815076845860881e-05 -2.8330098330323181e-05 0.0000000000000000e+00  0.0000000000000000e+00 0.0000000000000000e+00 0.0000000000000000e+00  6.0260044480943377e-07 -5.4965500202142140e-07 0.0000000000000000e+00  1.2279789741157768e-06 -1.1202415048897671e-06 0.0000000000000000e+00  1.8996633007141321e-06 -1.7334305824392370e-06 0.0000000000000000e+00  2.6426675317339254e-06 -2.4123800695166431e-06 0.0000000000000000e+00  3.4841936971577145e-06 -3.1824896321049356e-06 0.0000000000000000e+00  4.4542455878258062e-06 -4.0721502671259511e-06 0.0000000000000000e+00  5.5860540088596298e-06 -5.1134474233174788e-06 0.0000000000000000e+00  6.9161339404074589e-06 -6.3427303575623098e-06 0.0000000000000000e+00  8.4836790466050036e-06 -7.8008846571294341e-06 0.0000000000000000e+00  1.0328851303764160e-05 -9.5330292652620870e-06 0.0000000000000000e+00  1.2489379197670819e-05 -1.1587197563983882e-05 0.0000000000000000e+00  1.4994843562071220e-05 -1.4011366123721086e-05 0.0000000000000000e+00  1.7858330156952342e-05 -1.6848020359078202e-05 0.0000000000000000e+00  2.1066104218739187e-05 -2.0125424014535330e-05 0.0000000000000000e+00  2.4567863790327474e-05 -2.3845093411155346e-05 0.0000000000000000e+00  2.8272444680509635e-05 -2.7965813702710044e-05 0.0000000000000000e+00  0.0000000000000000e+00 0.0000000000000000e+00 0.0000000000000000e+00  6.0122953817245989e-07 -5.3516744238685152e-07 0.0000000000000000e+00  1.2263661655873189e-06 -1.0903038129990296e-06 0.0000000000000000e+00  1.9002866218915135e-06 -1.6860329827975118e-06 0.0000000000000000e+00  2.6498283282195440e-06 -2.3442954510961224e-06 0.0000000000000000e+00  3.5048082007675601e-06 -3.0890132517740885e-06 0.0000000000000000e+00  4.4990521991142145e-06 -3.9467535012056484e-06 0.0000000000000000e+00  5.6713642653386606e-06 -4.9473740600712149e-06 0.0000000000000000e+00  7.0662643613288514e-06 -6.1246207830937779e-06 0.0000000000000000e+00  8.7341539578343824e-06 -7.5166288822700914e-06 0.0000000000000000e+00  1.0730294743209139e-05 -9.1662604739068325e-06 0.0000000000000000e+00  1.3111608477178576e-05 -1.1121177338879479e-05 0.0000000000000000e+00  1.5929916693153951e-05 -1.3433463002008315e-05 0.0000000000000000e+00  1.9220181153059058e-05 -1.6158355050815957e-05 0.0000000000000000e+00  2.2983375856736071e-05 -1.9350971191142552e-05 0.0000000000000000e+00  2.7167037468197567e-05 -2.3058450181445024e-05 0.0000000000000000e+00  3.1652720752856555e-05 -2.7302763326235432e-05 0.0000000000000000e+00  0.0000000000000000e+00 0.0000000000000000e+00 0.0000000000000000e+00  5.7595576441997557e-07 -5.0071541266441299e-07 0.0000000000000000e+00  1.1759774986304970e-06 -1.0197811901595591e-06 0.0000000000000000e+00  1.8253012783958336e-06 -1.5761143078076226e-06 0.0000000000000000e+00  2.5515696250541721e-06 -2.1897736324390513e-06 0.0000000000000000e+00  3.3861855096529541e-06 -2.8825407953375420e-06 0.0000000000000000e+00  4.3658289782101790e-06 -3.6785143656684847e-06 0.0000000000000000e+00  5.5341400439262633e-06 -4.6047286004239143e-06 0.0000000000000000e+00  6.9434791310770879e-06 -5.6918260152177547e-06 0.0000000000000000e+00  8.6564775077125087e-06 -6.9748553420624686e-06 0.0000000000000000e+00  1.0746696670397735e-05 -8.4943501979822567e-06 0.0000000000000000e+00  1.3297010455799400e-05 -1.0297978848658395e-05 0.0000000000000000e+00  1.6393236919117117e-05 -1.2443198113443576e-05 0.0000000000000000e+00  2.0109335343477986e-05 -1.5001268699944357e-05 0.0000000000000000e+00  2.4480429387707071e-05 -1.8062017428696552e-05 0.0000000000000000e+00  2.9464431398199642e-05 -2.1735390623513209e-05 0.0000000000000000e+00  3.4907409156305323e-05 -2.6138024970203998e-05 0.0000000000000000e+00  0.0000000000000000e+00 0.0000000000000000e+00 0.0000000000000000e+00  5.2662173658398616e-07 -4.4791843237530757e-07 0.0000000000000000e+00  1.0762964967122723e-06 -9.1200002373823653e-07 0.0000000000000000e+00  1.6733860842326561e-06 -1.4088825636131023e-06 0.0000000000000000e+00  2.3449848314797126e-06 -1.9561630396200525e-06 0.0000000000000000e+00  3.1225660450364800e-06 -2.5728893200409661e-06 0.0000000000000000e+00  4.0439821296987467e-06 -3.2800737460251704e-06 0.0000000000000000e+00  5.1559501809967634e-06 -4.1012557861031037e-06 0.0000000000000000e+00  6.5171223358758880e-06 -5.0631783920443681e-06 0.0000000000000000e+00  8.2017019183384127e-06 -6.1967271944586468e-06 0.0000000000000000e+00  1.0303169084298569e-05 -7.5384597897979055e-06 0.0000000000000000e+00  1.2936716933779018e-05 -9.1333993033447062e-06 0.0000000000000000e+00  1.6236958222424935e-05 -1.1040362863188120e-05 0.0000000000000000e+00  2.0343815047673987e-05 -1.3341875118818102e-05 0.0000000000000000e+00  2.5364915009798792e-05 -1.6160923364370497e-05 0.0000000000000000e+00  3.1303150969954652e-05 -1.9683695246258775e-05 0.0000000000000000e+00  3.7962162108355392e-05 -2.4175039636768512e-05 0.0000000000000000e+00  0.0000000000000000e+00 0.0000000000000000e+00 0.0000000000000000e+00  4.5424151733506852e-07 -3.7896430592560171e-07 0.0000000000000000e+00  9.2921173656128293e-07 -7.7142731423751028e-07 0.0000000000000000e+00  1.4469782181945246e-06 -1.1912666606942192e-06 0.0000000000000000e+00  2.0324415182095240e-06 -1.6531264224610185e-06 0.0000000000000000e+00  2.7151463115471194e-06 -2.1728079763819961e-06 0.0000000000000000e+00  3.5316333706704917e-06 -2.7676759527779009e-06 0.0000000000000000e+00  4.5286287198364322e-06 -3.4571002674656010e-06 0.0000000000000000e+00  5.7674629469793212e-06 -4.2629872527477332e-06 0.0000000000000000e+00  7.3301892166689819e-06 -5.2105329895432510e-06 0.0000000000000000e+00  9.3277734641718073e-06 -6.3295292364210667e-06 0.0000000000000000e+00  1.1910022393015613e-05 -7.6570305564564025e-06 0.0000000000000000e+00  1.5274448491863781e-05 -9.2433082076990570e-06 0.0000000000000000e+00  1.9664520922205972e-05 -1.1165407796553958e-05 0.0000000000000000e+00  2.5332762173897309e-05 -1.3556761381983359e-05 0.0000000000000000e+00  3.2421473680797995e-05 -1.6664370469240271e-05 0.0000000000000000e+00  4.0718650227525725e-05 -2.0930983928852230e-05 0.0000000000000000e+00  0.0000000000000000e+00 0.0000000000000000e+00 0.0000000000000000e+00  3.6113999108150404e-07 -2.9651766780372025e-07 0.0000000000000000e+00  7.3934255893810536e-07 -6.0348789948093690e-07 0.0000000000000000e+00  1.1528911937382429e-06 -9.3164442171046063e-07 0.0000000000000000e+00  1.6226825754119966e-06 -1.2922882239742927e-06 0.0000000000000000e+00  2.1739822348297471e-06 -1.6975691602136808e-06 0.0000000000000000e+00  2.8388323407573587e-06 -2.1607634056802812e-06 0.0000000000000000e+00  3.6595518147563043e-06 -2.6965420130470558e-06 0.0000000000000000e+00  4.6940365343447179e-06 -3.3212239511876286e-06 0.0000000000000000e+00  6.0240061270149630e-06 -4.0530135324634096e-06 0.0000000000000000e+00  7.7679927798334094e-06 -4.9122749802610706e-06 0.0000000000000000e+00  1.0101559284239948e-05 -5.9221486620766405e-06 0.0000000000000000e+00  1.3286865607945598e-05 -7.1108155032357053e-06 0.0000000000000000e+00  1.7707803516173098e-05 -8.5202525384765077e-06 0.0000000000000000e+00  2.3880963969691605e-05 -1.0237200695565373e-05 0.0000000000000000e+00  3.2331817728533378e-05 -1.2487416167281200e-05 0.0000000000000000e+00  4.3077953167744712e-05 -1.5840542404226305e-05 0.0000000000000000e+00  0.0000000000000000e+00 0.0000000000000000e+00 0.0000000000000000e+00  2.5098320491127094e-07 -2.0362440365031071e-07 0.0000000000000000e+00  5.1413924618564478e-07 -4.1437165182537366e-07 0.0000000000000000e+00  8.0257950863055699e-07 -6.3954891094784315e-07 0.0000000000000000e+00  1.1314423298114042e-06 -8.8683319290706550e-07 0.0000000000000000e+00  1.5193081172892659e-06 -1.1644463533697700e-06 0.0000000000000000e+00  1.9902231986029719e-06 -1.4813089586960398e-06 0.0000000000000000e+00  2.5768038988616138e-06 -1.8471421988891106e-06 0.0000000000000000e+00  3.3252723948792293e-06 -2.2724432486349446e-06 0.0000000000000000e+00  4.3040388035013648e-06 -2.7681545401604664e-06 0.0000000000000000e+00  5.6190036618117781e-06 -3.3446033172205782e-06 0.0000000000000000e+00  7.4419466022535315e-06 -4.0087621574011475e-06 0.0000000000000000e+00  1.0064562875880675e-05 -4.7579838842045521e-06 0.0000000000000000e+00  1.4000178229975627e-05 -5.5682336383906683e-06 0.0000000000000000e+00  2.0153148047225275e-05 -6.3853285536584116e-06 0.0000000000000000e+00  2.9947796023041987e-05 -7.2092197643061563e-06 0.0000000000000000e+00  4.4384792410145429e-05 -8.8418229619633453e-06 0.0000000000000000e+00  0.0000000000000000e+00 0.0000000000000000e+00 0.0000000000000000e+00  1.2866020459244694e-07 -1.0361358855242171e-07 0.0000000000000000e+00  2.6366305931478285e-07 -2.1083429118725632e-07 0.0000000000000000e+00  4.1186301942957390e-07 -3.2535993564032718e-07 0.0000000000000000e+00  5.8122630983556272e-07 -4.5106929779501254e-07 0.0000000000000000e+00  7.8162649339120347e-07 -5.9210340331603823e-07 0.0000000000000000e+00  1.0260135546632364e-06 -7.5292680126021725e-07 0.0000000000000000e+00  1.3322716523817819e-06 -9.3833768415408947e-07 0.0000000000000000e+00  1.7263786697085235e-06 -1.1533454664702915e-06 0.0000000000000000e+00  2.2481545564884155e-06 -1.4026960020480200e-06 0.0000000000000000e+00  2.9625220838392925e-06 -1.6894259237337095e-06 0.0000000000000000e+00  3.9835233060611758e-06 -2.0106143658483257e-06 0.0000000000000000e+00  5.5308110381483291e-06 -2.3445666467024138e-06 0.0000000000000000e+00  8.0778385866524102e-06 -2.6100103007503235e-06 0.0000000000000000e+00  1.2787672847758632e-05 -2.5271357029304882e-06 0.0000000000000000e+00  2.2945895469562377e-05 -1.1090075131563885e-06 0.0000000000000000e+00  4.9178966109370275e-05 5.3368899396524065e-06 0.0000000000000000e+00  0.0000000000000000e+00 0.0000000000000000e+00 0.0000000000000000e+00  0.0000000000000000e+00 0.0000000000000000e+00 0.0000000000000000e+00  0.0000000000000000e+00 0.0000000000000000e+00 0.0000000000000000e+00  0.0000000000000000e+00 0.0000000000000000e+00 0.0000000000000000e+00  0.0000000000000000e+00 0.0000000000000000e+00 0.0000000000000000e+00  0.0000000000000000e+00 0.0000000000000000e+00 0.0000000000000000e+00  0.0000000000000000e+00 0.0000000000000000e+00 0.0000000000000000e+00  0.0000000000000000e+00 0.0000000000000000e+00 0.0000000000000000e+00  0.0000000000000000e+00 0.0000000000000000e+00 0.00000