<?xml version="1.0"?>
<VTKFile type="UnstructuredGrid"  version="0.1"  >
<UnstructuredGrid>
<Piece  NumberOfPoints="289" NumberOfCells="512">
<Points>
<DataArray  type="Float64"  NumberOfComponents="3"  format="ascii">0 0 0  0.0625 0 0  0.125 0 0  0.1875 0 0  0.25 0 0  0.3125 0 0  0.375 0 0  0.4375 0 0  0.5 0 0  0.5625 0 0  0.625 0 0  0.6875 0 0  0.75 0 0  0.8125 0 0  0.875 0 0  0.9375 0 0  1 0 0  0 0.0625 0  0.06250166526985361 0.06249861920562839 0  0.1250033800887265 0.06249717586562415 0  0.1875051939181241 0.06249560326167788 0  0.2500071563244735 0.06249382570568669 0  0.3125093166459449 0.06249175236267835 0  0.3750117232055705 0.06248926842045451 0  0.4375144219120137 0.06248622131944938 0  0.5000174540926851 0.06248239751935251 0  0.5625208534022474 0.06247748015656052 0  0.6250246415888027 0.06247096540746306 0  0.687528822585142 0.06246198217869781 0  0.7500333731750333 0.06244886400623977 0  0.8125382242111576 0.0624280203959981 0  0.8750432117878013 0.06239061927732156 0  0.9375479293929012 0.06231174402361408 0  1.000051272133293 0.06211133356679171 0  0 0.125 0  0.06250328113575726 0.1249973007258354 0  0.1250066612229004 0.1249944805096985 0  0.1875102392129728 0.1249914106586583 0  0.2500141145653594 0.1249879459185131 0  0.3125183867390049 0.1249839133709215 0  0.3750231537800119 0.1249790970431608 0  0.4375285096838564 0.124973214864588 0  0.5000345402286189 0.124965881798871 0  0.5625413170282517 0.1249565472576264 0  0.6250488896333091 0.1249443830422828 0  0.6875572755396007 0.1249280735262529 0  0.7500664477447232 0.1249054115689198 0  0.8125763185690018 0.1248725275512245 0  0.8750867160902244 0.1248225774024849 0  0.937597344741522 0.1247446136310665 0  1.000107713701375 0.1246301241394716 0  0 0.1875 0  0.06250479839563448 0.1874961029435185 0  0.1250097447153476 0.187492034286988 0  0.1875149873145281 0.1874876121105448 0  0.2500206760504829 0.187482632643366 0  0.3125269619172074 0.1874768561992699 0  0.3750339953332585 0.1874699885797747 0  0.4375419225774883 0.1874616549096856 0  0.5000508798882073 0.1874513610038874 0  0.5625609848591417 0.1874384342619165 0  0.6250723250558454 0.1874219314741786 0  0.6875849443617792 0.1874004961619299 0  0.7500988287417678 0.1873721519770532 0  0.8126138959299364 0.187334067259022 0  0.8751300022531293 0.1872825387778876 0  0.9376470120862421 0.1872141294882775 0  1.000165105239902 0.1871303584726492 0  0 0.25 0  0.06250616822036037 0.2499950765057476 0  0.125012532337181 0.2499899410677625 0  0.1875192896045694 0.2499843700020931 0  0.2500266406423723 0.2499781150343456 0  0.312534789698709 0.2499708882374277 0  0.3750439431493361 0.2499623432535563 0  0.4375543055019429 0.2499520508997562 0  0.5000660721455134 0.2499394667651381 0  0.5625794181931437 0.249923888213787 0  0.6250944831457462 0.2499043995113998 0  0.6876113519424031 0.2498798100759476 0  0.7501300344913046 0.2498486110688916 0  0.8126504481516503 0.2498090293383467 0  0.8751724101630984 0.2497593749494634 0  0.937695643199251 0.2496990451973529 0  1.000219746119978 0.2496304155891642 0  0 0.3125 0  0.06250734270439874 0.312494261750476 0  0.125014927286977 0.312488282951124 0  0.1875229985258088 0.3124818109346318 0  0.2500318075421914 0.3124745679360227 0  0.3125416133499533 0.3124662364998565 0  0.3750526823052877 0.3124564424154935 0  0.4375652844515479 0.3124447344795067 0  0.50007968558941 0.312430560913346 0  0.5625961338662875 0.31241324378677 0  0.6251148399546714 0.312391956564972 0  0.687635950739197 0.3123657183140027 0  0.7501595181265065 0.3123334350360537 0  0.8126854671595414 0.3122940476945331 0  0.8752135702672251 0.3122468812968798 0  0.9377434349582168 0.3121922824852815 0  1.000274510922424 0.3121324459008709 0  0 0.375 0  0.06250827584541237 0.3749936872851102 0  0.1250168360395429 0.3749871175270995 0  0.1875259700558458 0.3749800219894588 0  0.2500359779706136 0.3749721079620521 0  0.3125471741275007 0.3749630454642709 0  0.3750598885513246 0.3749524525899353 0  0.4375744648161706 0.374939879597234 0  0.5000912526623205 0.3749247928050561 0  0.5626105932884065 0.3749065613539923 0  0.625132795149742 0.3748844537322895 0  0.6876580986715722 0.3748576576680652 0  0.7501866300913482 0.3748253470143981 0  0.8127183481640501 0.3747868299498678 0  0.8752529925093054 0.3747418122168578 0  0.9377900470834718 0.3746907662772139 0  1.000328732251077 0.3746352623172726 0  0 0.4375 0  0.0625089250651138 0.437493369611435 0  0.1250181713200929 0.4374864773686101 0  0.1875280679659825 0.4374790506876836 0  0.2500389603731228 0.4374707951643126 0  0.3125512168170962 0.4374613828890447 0  0.3750652331602161 0.4374504400951043 0  0.4375814339627851 0.4374375345144719 0  0.5001002677414329 0.4374221637039799 0  0.5626221931589597 0.4374037472742136 0  0.6251476520550131 0.437381628865266 0  0.6876770249625218 0.437355098239014 0  0.7502105661607974 0.4373234496057818 0  0.8127483199651836 0.4372860964743828 0  0.8752900293067299 0.4372427579858099 0  0.9378350611335793 0.4371937023774325 0  1.000382384918241 0.4371399685879839 0  0 0.5 0  0.06250925333966344 0.4999933135546789 0  0.1250188563733952 0.4999863711522621 0  0.1875291702039671 0.4999789074047497 0  0.2500405787632799 0.4999706378532182 0  0.3125534995939844 0.4999612489543634 0  0.3750683933239254 0.4999503876520514 0  0.4375857703191236 0.4999376507375978 0  0.5001061918224163 0.499922574679825 0  0.5626302611604759 0.4999046274995679 0  0.6251585983854019 0.4998832058724333 0  0.6876917895339127 0.4998576433834723 0  0.7502303010997177 0.4998272401088743 0  0.8127743546280417 0.4997913292122805 0  0.8753237706550189 0.4997494005649034 0  0.937877819518848 0.499701296869116 0  1.000435152266453 0.4996474678986146 0  0 0.5625 0  0.06250923193075154 0.562493513234428 0  0.1250188305527024 0.5624867858065524 0  0.1875291775536242 0.5624795691284629 0  0.2500406846476023 0.5624715986553894 0  0.3125538091855414 0.5624625855816762 0  0.3750690699471106 0.5624522081289219 0  0.437587062045962 0.5624401022280344 0  0.5001084683932422 0.562425851281924 0  0.56263406259138 0.5624089745132251 0  0.6251646940377232 0.562388913291486 0  0.6877012403344285 0.5623650153997103 0  0.75024450619023 0.5623365201866682 0  0.812795046876865 0.562302556835644 0  0.875352909671581 0.5622621896213149 0  0.9379173366557694 0.5622145808738319 0  1.000486563362571 0.562159375401402 0  0 0.625 0  0.06250884358852576 0.6249939533717161 0  0.1250180560137594 0.6249876892561631 0  0.1875280243753701 0.6249809838723804 0  0.2500391725586941 0.6249736008486516 0  0.3125519819431483 0.6249652847709626 0  0.3750670145904286 0.6249557543819799 0  0.4375849389765524 0.624944694895346 0  0.5001065569407427 0.6249317481864407 0  0.5626328275341324 0.6249164982212262 0  0.625164877545306 0.6248984466470259 0  0.687703977910726 0.6248769700971162 0  0.7502514489318548 0.6248512485761518 0  0.8128084389421083 0.624820161264511 0  0.8753755195224766 0.624782182240103 0  0.9379521056386901 0.6247354060784824 0  1.00053592088661 0.6246779935260437 0  0 0.6875 0  0.06250808593437603 0.687494610803052 0  0.1250165249547697 0.6874890335318554 0  0.1875256906782484 0.687483075494044 0  0.2500359984481052 0.687476534896265 0  0.3125479304894914 0.6874691964572358 0  0.3750620664398567 0.6874608270479846 0  0.4375791212552006 0.6874511708731124 0  0.5000999919990051 0.6874399427255249 0  0.562625812932342 0.6874268155705563 0  0.6251580123460919 0.6874113938362065 0  0.6876983501504421 0.687393154326542 0  0.7502488847835009 0.687371321284689 0  0.8128117637529436 0.6873446266588564 0  0.8753886636937034 0.6873109251680475 0  0.9379797074628702 0.6872667907013872 0  1.000582026660134 0.6872076725271709 0  0 0.75 0  0.06250697454361663 0.7499954561203663 0  0.1250142664218251 0.7499907581348479 0  0.1875222140293678 0.7499857489122344 0  0.2500311990006131 0.7499802655764558 0  0.3125416738706484 0.7499741372755797 0  0.375054197954551 0.7499671837435343 0  0.4375694859389356 0.7499592148105663 0  0.5000884751306318 0.749950030462785 0  0.5626124184234482 0.7499394192057425 0  0.6251430085613565 0.7499271471363422 0  0.6876825285618035 0.7499129158963559 0  0.7502339862097407 0.7498962331159046 0  0.8128010903815318 0.7498760666279523 0  0.8753877070469194 0.7498500497399474 0  0.9379961039221533 0.7498130643407751 0  1.000623351377165 0.7497561864087183 0  0 0.8125 0  0.06250554508123971 0.8124964553529062 0  0.1250113512914582 0.812492793528065 0  0.1875176989925932 0.8124888956650506 0  0.2500249084297647 0.8124846399857285 0  0.3125333665486777 0.8124799014382651 0  0.3750435637320116 0.8124745530168019 0  0.4375561471407859 0.8124684699931792 0  0.5000720013879819 0.8124615390222812 0  0.5625923738697832 0.8124536748891509 0  0.6251190717546788 0.8124448472294924 0  0.6876547676831062 0.8124351120080684 0  0.7502034447310931 0.8124246061376609 0  0.812770921089263 0.812413327747194 0  0.8753650095494715 0.8124001005147906 0  0.9379937071513372 0.812379141620959 0  1.000657929798633 0.8123325832515983 0  0 0.875 0  0.06250385377290818 0.8749975715637982 0  0.1250078938136213 0.8749950644968767 0  0.1875123211876131 0.8749923994305772 0  0.2500173679053058 0.8749894959876724 0  0.3125233185492871 0.8749862735240193 0  0.3750305411761118 0.8749826539597818 0  0.4375395346733543 0.8749785687588579 0  0.5000510055264439 0.8749739743015158 0  0.5625659985170889 0.8749688846899074 0  0.6250861294349509 0.8749634414087961 0  0.6876140157399405 0.8749580602631173 0  0.7501540924941321 0.8749537287179754 0  0.8127141333090717 0.8749525165882156 0  0.8753077208387839 0.8749578826839468 0  0.9379558117408409 0.8749708577487714 0  1.000670933736633 0.8749576348577611 0  0 0.9375 0  0.06250197560514614 0.9374987661932107 0  0.1250040482653261 0.9374974929829024 0  0.1875063231102694 0.9374961407407667 0  0.2500089222517868 0.9374946696933537 0  0.3125119969524529 0.9374930406950474 0  0.3750157454968271 0.9374912174989983 0  0.437520441581261 0.9374891722200682 0  0.50
[...]
<PointData  Vectors="f_54"> 
<DataArray  type="Float64"  Name="f_54"  NumberOfComponents="3" format="ascii">0.0000000000000000e+00 0.0000000000000000e+00 0.0000000000000000e+00  0.0000000000000000e+00 0.0000000000000000e+00 0.0000000000000000e+00  0.0000000000000000e+00 0.0000000000000000e+00 0.0000000000000000e+00  0.0000000000000000e+00 0.0000000000000000e+00 0.0000000000000000e+00  0.0000000000000000e+00 0.0000000000000000e+00 0.0000000000000000e+00  0.0000000000000000e+00 0.0000000000000000e+00 0.0000000000000000e+00  0.0000000000000000e+00 0.0000000000000000e+00 0.0000000000000000e+00  0.0000000000000000e+00 0.0000000000000000e+00 0.0000000000000000e+00  0.0000000000000000e+00 0.0000000000000000e+00 0.0000000000000000e+00  0.0000000000000000e+00 0.0000000000000000e+00 0.0000000000000000e+00  0.0000000000000000e+00 0.0000000000000000e+00 0.0000000000000000e+00  0.0000000000000000e+00 0.0000000000000000e+00 0.0000000000000000e+00  0.0000000000000000e+00 0.0000000000000000e+00 0.0000000000000000e+00  0.0000000000000000e+00 0.0000000000000000e+00 0.0000000000000000e+00  0.0000000000000000e+00 0.0000000000000000e+00 0.0000000000000000e+00  0.0000000000000000e+00 0.0000000000000000e+00 0.0000000000000000e+00  0.0000000000000000e+00 0.0000000000000000e+00 0.0000000000000000e+00  0.0000000000000000e+00 0.0000000000000000e+00 0.0000000000000000e+00  5.6594917696467568e-08 -7.0251148943923781e-08 0.0000000000000000e+00  1.1486637043291389e-07 -1.4358920378739433e-07 0.0000000000000000e+00  1.7649702145449463e-07 -2.2330217713407992e-07 0.0000000000000000e+00  2.4317209624173019e-07 -3.1310363716844836e-07 0.0000000000000000e+00  3.1656787234240512e-07 -4.1742723283083060e-07 0.0000000000000000e+00  3.9832420447299261e-07 -5.4184958050018292e-07 0.0000000000000000e+00  4.8999517565652723e-07 -6.9375306128936733e-07 0.0000000000000000e+00  5.9297145534385279e-07 -8.8344975599384223e-07 0.0000000000000000e+00  7.0836653682648998e-07 -1.1262396010945531e-06 0.0000000000000000e+00  8.3685410899020857e-07 -1.4464960733747724e-06 0.0000000000000000e+00  9.7842790477949798e-07 -1.8865305185811646e-06 0.0000000000000000e+00  1.1320099560221309e-06 -2.5278309920269225e-06 0.0000000000000000e+00  1.2947240293092459e-06 -3.5477815113371230e-06 0.0000000000000000e+00  1.4604863748824895e-06 -5.3891703564977966e-06 0.0000000000000000e+00  1.6179723579777380e-06 -9.3250434016064424e-06 0.0000000000000000e+00  1.7542500876657918e-06 -1.9536955453048734e-05 0.0000000000000000e+00  0.0000000000000000e+00 0.0000000000000000e+00 0.0000000000000000e+00  1.1151387910847453e-07 -1.3741620725073732e-07 0.0000000000000000e+00  2.2637747427659579e-07 -2.8080876454224058e-07 0.0000000000000000e+00  3.4795758342878917e-07 -4.3652694401659564e-07 0.0000000000000000e+00  4.7963656268611701e-07 -6.1170432714105473e-07 0.0000000000000000e+00  6.2479486927354638e-07 -8.1478672420010956e-07 0.0000000000000000e+00  7.8676200085798915e-07 -1.0562667078892842e-06 0.0000000000000000e+00  9.6872415269876309e-07 -1.3497885356352228e-06 0.0000000000000000e+00  1.1735766166718811e-06 -1.7139240289587989e-06 0.0000000000000000e+00  1.4037087027405929e-06 -2.1751979696691731e-06 0.0000000000000000e+00  1.6607065263591163e-06 -2.7735143083432398e-06 0.0000000000000000e+00  1.9449454379292495e-06 -3.5723064866213708e-06 0.0000000000000000e+00  2.2549865911195326e-06 -4.6779734769843944e-06 0.0000000000000000e+00  2.5864640272570599e-06 -6.2763153401155604e-06 0.0000000000000000e+00  2.9291961718310677e-06 -8.6908855187123524e-06 0.0000000000000000e+00  3.2569361822355432e-06 -1.2409292812478555e-05 0.0000000000000000e+00  3.4831409470355497e-06 -1.7613143665373400e-05 0.0000000000000000e+00  0.0000000000000000e+00 0.0000000000000000e+00 0.0000000000000000e+00  1.6308156027645757e-07 -1.9860330395107743e-07 0.0000000000000000e+00  3.3117380492696623e-07 -4.0570563140170959e-07 0.0000000000000000e+00  5.0932494898325555e-07 -6.3030131759957284e-07 0.0000000000000000e+00  7.0263230221722639e-07 -8.8241701359027270e-07 0.0000000000000000e+00  9.1622993253183744e-07 -1.1737775605442610e-06 0.0000000000000000e+00  1.1552296591541389e-06 -1.5186886976388648e-06 0.0000000000000000e+00  1.4245975947659626e-06 -1.9352840707806086e-06 0.0000000000000000e+00  1.7289486065160248e-06 -2.4473755032002753e-06 0.0000000000000000e+00  2.0722442010554523e-06 -3.0872964095890691e-06 0.0000000000000000e+00  2.4573882484053702e-06 -3.9003498485416345e-06 0.0000000000000000e+00  2.8857361467101789e-06 -4.9516942221136650e-06 0.0000000000000000e+00  3.3565904650383598e-06 -6.3362889781171949e-06 0.0000000000000000e+00  3.8669601739591986e-06 -8.1901786505116742e-06 0.0000000000000000e+00  4.4127511631705665e-06 -1.0691602629948833e-05 0.0000000000000000e+00  4.9968352257320333e-06 -1.4011822686063797e-05 0.0000000000000000e+00  5.6709157505402291e-06 -1.8137666427827320e-05 0.0000000000000000e+00  0.0000000000000000e+00 0.0000000000000000e+00 0.0000000000000000e+00  2.0963547811007992e-07 -2.5128831184595180e-07 0.0000000000000000e+00  4.2591143767924499e-07 -5.1311072982072269e-07 0.0000000000000000e+00  6.5554017942336080e-07 -7.9656327615063243e-07 0.0000000000000000e+00  9.0534665324915726e-07 -1.1139007673268274e-06 0.0000000000000000e+00  1.1822778791894540e-06 -1.4792457434724381e-06 0.0000000000000000e+00  1.4933517242875556e-06 -1.9094721458331096e-06 0.0000000000000000e+00  1.8455198443571228e-06 -2.4253558728281747e-06 0.0000000000000000e+00  2.2454184828808800e-06 -3.0531102641480664e-06 0.0000000000000000e+00  2.6989845292660603e-06 -3.8264372286403987e-06 0.0000000000000000e+00  3.2109279918728628e-06 -4.7891660683507385e-06 0.0000000000000000e+00  3.7840840860881117e-06 -5.9982547555042490e-06 0.0000000000000000e+00  4.4187302964885596e-06 -7.5259672048904346e-06 0.0000000000000000e+00  5.1120519445688164e-06 -9.4575013989187807e-06 0.0000000000000000e+00  5.8579779326571524e-06 -1.1874888392512824e-05 0.0000000000000000e+00  6.6466943177216762e-06 -1.4810249412853704e-05 0.0000000000000000e+00  7.4551403209275245e-06 -1.8154778234136215e-05 0.0000000000000000e+00  0.0000000000000000e+00 0.0000000000000000e+00 0.0000000000000000e+00  2.4954516659840728e-07 -2.9343586614338298e-07 0.0000000000000000e+00  5.0729582791904674e-07 -5.9888711761345287e-07 0.0000000000000000e+00  7.8158107767729530e-07 -9.2894782697989395e-07 0.0000000000000000e+00  1.0809444321939436e-06 -1.2973929976577640e-06 0.0000000000000000e+00  1.4141974072412911e-06 -1.7198605094883647e-06 0.0000000000000000e+00  1.7904012125792837e-06 -2.2146438390162226e-06 0.0000000000000000e+00  2.2187422778236730e-06 -2.8036283910246248e-06 0.0000000000000000e+00  2.7082617663539556e-06 -3.5133818321623418e-06 0.0000000000000000e+00  3.2673983068299536e-06 -4.3763412216094761e-06 0.0000000000000000e+00  3.9033135632461797e-06 -5.4318678094252318e-06 0.0000000000000000e+00  4.6210014845945741e-06 -6.7265487227812407e-06 0.0000000000000000e+00  5.4222433881232033e-06 -8.3123245877089847e-06 0.0000000000000000e+00  6.3045598332113398e-06 -1.0239624967057614e-05 0.0000000000000000e+00  7.2603875419510041e-06 -1.2540943193156702e-05 0.0000000000000000e+00  8.2767334799309602e-06 -1.5200168745449499e-05 0.0000000000000000e+00  9.3363739801996340e-06 -1.8110193230409136e-05 0.0000000000000000e+00  0.0000000000000000e+00 0.0000000000000000e+00 0.0000000000000000e+00  2.8124590296215136e-07 -3.2356556659234008e-07 0.0000000000000000e+00  5.7214550743621371e-07 -6.6005641041473126e-07 0.0000000000000000e+00  8.8254765489009280e-07 -1.0229564643438704e-06 0.0000000000000000e+00  1.2226612094440834e-06 -1.4268798941963591e-06 0.0000000000000000e+00  1.6031808159034796e-06 -1.8881884427206956e-06 0.0000000000000000e+00  2.0353357395783435e-06 -2.4256605002337749e-06 0.0000000000000000e+00  2.5308176944655111e-06 -3.0612029687935112e-06 0.0000000000000000e+00  3.1015296265349673e-06 -3.8205537303241569e-06 0.0000000000000000e+00  3.7590851831601878e-06 -4.7338337203803168e-06 0.0000000000000000e+00  4.5139861847770538e-06 -5.8356375466457196e-06 0.0000000000000000e+00  5.3744267067233838e-06 -7.1640539071116139e-06 0.0000000000000000e+00  6.3447357353422294e-06 -8.7575559768435324e-06 0.0000000000000000e+00  7.4235890950802677e-06 -1.0648203528691276e-05 0.0000000000000000e+00  8.6022796226596250e-06 -1.2849569453544196e-05 0.0000000000000000e+00  9.8634500649473553e-06 -1.5339649099273175e-05 0.0000000000000000e+00  1.1180530986790547e-05 -1.8045321257141475e-05 0.0000000000000000e+00  0.0000000000000000e+00 0.0000000000000000e+00 0.0000000000000000e+00  3.0329071994622286e-07 -3.4076936698597910e-07 0.0000000000000000e+00  6.1749385755019107e-07 -6.9482070631258019e-07 0.0000000000000000e+00  9.5380805987135019e-07 -1.0759521216122837e-06 0.0000000000000000e+00  1.3239821648674014e-06 -1.4990004859595201e-06 0.0000000000000000e+00  1.7405454645805310e-06 -1.9803835055339165e-06 0.0000000000000000e+00  2.2169677267595799e-06 -2.5386541723266643e-06 0.0000000000000000e+00  2.7676972344300544e-06 -3.1950404106968605e-06 0.0000000000000000e+00  3.4079988942456373e-06 -3.9739006031397223e-06 0.0000000000000000e+00  4.1534828269986335e-06 -4.9029512488587615e-06 0.0000000000000000e+00  5.0191848223677778e-06 -6.0130010042591460e-06 0.0000000000000000e+00  6.0180532100214836e-06 -7.3367472699907675e-06 0.0000000000000000e+00  7.1587490280639986e-06 -8.9059836509430523e-06 0.0000000000000000e+00  8.4428309887398537e-06 -1.0746451909126541e-05 0.0000000000000000e+00  9.8617177799467730e-06 -1.2869862560132222e-05 0.0000000000000000e+00  1.1394260265406892e-05 -1.5263828172225049e-05 0.0000000000000000e+00  1.3006084944991252e-05 -1.7882906467655158e-05 0.0000000000000000e+00  0.0000000000000000e+00 0.0000000000000000e+00 0.0000000000000000e+00  3.1442294872697935e-07 -3.4469305891926053e-07 0.0000000000000000e+00  6.4073455446523554e-07 -7.0251157424748196e-07 0.0000000000000000e+00  9.9121619114116175e-07 -1.0870435991926026e-06 0.0000000000000000e+00  1.3789268348246655e-06 -1.5128075135674746e-06 0.0000000000000000e+00  1.8180708186560851e-06 -1.9957236530086799e-06 0.0000000000000000e+00  2.3243207251381045e-06 -2.5535814119750273e-06 0.0000000000000000e+00  2.9150434643920040e-06 -3.2064760052397762e-06 0.0000000000000000e+00  3.6093370775285134e-06 -3.9771606652697001e-06 0.0000000000000000e+00  4.4277267537261655e-06 -4.8912151756792022e-06 0.0000000000000000e+00  5.3912933851633177e-06 -5.9768661106705447e-06 0.0000000000000000e+00  6.5199362398127102e-06 -7.2642093476838486e-06 0.0000000000000000e+00  7.8294597287606692e-06 -8.7834983323118091e-06 0.0000000000000000e+00  9.3273406874555355e-06 -1.0562119660391691e-05 0.0000000000000000e+00  1.1007553199430371e-05 -1.2619965632544891e-05 0.0000000000000000e+00  1.2845820993785561e-05 -1.4963204813504283e-05 0.0000000000000000e+00  1.4797834085641416e-05 -1.7576790609122728e-05 0.0000000000000000e+00  0.0000000000000000e+00 0.0000000000000000e+00 0.0000000000000000e+00  3.1366894118503736e-07 -3.3549589246928948e-07 0.0000000000000000e+00  6.3981142806280310e-07 -6.8349823029865983e-07 0.0000000000000000e+00  9.9140602511862155e-07 -1.0569185154116435e-06 0.0000000000000000e+00  1.3824545846007303e-06 -1.4694858556529454e-06 0.0000000000000000e+00  1.8285140972349552e-06 -1.9361572097972303e-06 0.0000000000000000e+00  2.3472343656904663e-06 -2.4735230235597722e-06 0.0000000000000000e+00  2.9588644659642474e-06 -3.1001953430788479e-06 0.0000000000000000e+00  3.6866395304346215e-06 -3.8371556627738355e-06 0.0000000000000000e+00  4.5568705115729981e-06 -4.7080285643199620e-06 0.0000000000000000e+00  5.5984188261724347e-06 -5.7392367164243150e-06 0.0000000000000000e+00  6.8410445697623318e-06 -6.9599843517731216e-06 0.0000000000000000e+00  8.3119237983299745e-06 -8.4020028908284849e-06 0.0000000000000000e+00  1.0029622640703593e-05 -1.0098939270545141e-05 0.0000000000000000e+00  1.1995417460632744e-05 -1.2085080991755319e-05 0.0000000000000000e+00  1.4183693557418249e-05 -1.4392630345517660e-05 0.0000000000000000e+00  1.6536398427802614e-05 -1.7045897555255143e-05 0.0000000000000000e+00  0.0000000000000000e+00 0.0000000000000000e+00 0.0000000000000000e+00  3.0044658317485069e-07 -3.1379946072109764e-07 0.0000000000000000e+00  6.1344542423836084e-07 -6.3907873471228058e-07 0.0000000000000000e+00  9.5215600310032134e-07 -9.8766411875831424e-07 0.0000000000000000e+00  1.3309917840457380e-06 -1.3720860574035158e-06 0.0000000000000000e+00  1.7663253927189270e-06 -1.8059336043603385e-06 0.0000000000000000e+00  2.2772780863451669e-06 -2.3042115843899841e-06 0.0000000000000000e+00  2.8865949645635712e-06 -2.8837028440292385e-06 0.0000000000000000e+00  3.6215588375133780e-06 -3.5633456337203538e-06 0.0000000000000000e+00  4.5147914049707016e-06 -4.3646565103940684e-06 0.0000000000000000e+00  5.6045846628095400e-06 -5.3122723495577360e-06 0.0000000000000000e+00  6.9340384747732941e-06 -6.4347600297698330e-06 0.0000000000000000e+00  8.5477203324888879e-06 -7.7659374968520483e-06 0.0000000000000000e+00  1.0483957964919441e-05 -9.3469799805912894e-06 0.0000000000000000e+00  1.2760924983365415e-05 -1.1229286154081874e-05 0.0000000000000000e+00  1.5357214206026329e-05 -1.3476890392994730e-05 0.0000000000000000e+00  1.8195387025955881e-05 -1.6164312527224714e-05 0.0000000000000000e+00  0.0000000000000000e+00 0.0000000000000000e+00 0.0000000000000000e+00  2.7467970763206738e-07 -2.8063247262583221e-07 0.0000000000000000e+00  5.6137973828915875e-07 -5.7136694822716313e-07 0.0000000000000000e+00  8.7279815046058940e-07 -8.8259288907193794e-07 0.0000000000000000e+00  1.2230555570434626e-06 -1.2252884866024411e-06 0.0000000000000000e+00  1.6285516050546682e-06 -1.6113188760332414e-06 0.0000000000000000e+00  2.1090048196728138e-06 -2.0537425412372488e-06 0.0000000000000000e+00  2.6887435956296276e-06 -2.5671377556684507e-06 0.0000000000000000e+00  3.3982982828969025e-06 -3.1679791545850520e-06 0.0000000000000000e+00  4.2762703525501615e-06 -3.8751362310843020e-06 0.0000000000000000e+00  5.3712436554156331e-06 -4.7106534834020920e-06 0.0000000000000000e+00  6.7429938492833669e-06 -5.7011419671813767e-06 0.0000000000000000e+00  8.4611783361591835e-06 -6.8804011813216271e-06 0.0000000000000000e+00  1.0597786306344509e-05 -8.2942678858176331e-06 0.0000000000000000e+00  1.3207296332329781e-05 -1.0008837902471200e-05 0.0000000000000000e+00  1.6288941842956111e-05 -1.2122125521503668e-05 0.0000000000000000e+00  1.9738847527793155e-05 -1.4775502166265811e-05 0.0000000000000000e+00  0.0000000000000000e+00 0.0000000000000000e+00 0.0000000000000000e+00  2.3690216192465138e-07 -2.3737404301679525e-07 0.0000000000000000e+00  4.8460991685085080e-07 -4.8317881660490033e-07 0.0000000000000000e+00  7.5462134384729306e-07 -7.4607303869964886e-07 0.0000000000000000e+00  1.0599085999375587e-06 -1.0351853335201249e-06 0.0000000000000000e+00  1.4158596471245625e-06 -1.3603517230664136e-06 0.0000000000000000e+00  1.8415007949950486e-06 -1.7323595712274482e-06 0.0000000000000000e+00  2.3611535925995716e-06 -2.1632082885698642e-06 0.0000000000000000e+00  3.0067290645258752e-06 -2.6664134907069773e-06 0.0000000000000000e+00  3.8208993735880385e-06 -3.2574215469898939e-06 0.0000000000000000e+00  4.8613315116520485e-06 -3.9542982547503588e-06 0.0000000000000000e+00  6.2057833743628681e-06 -4.7790833810931765e-06 0.0000000000000000e+00  7.9565395544282710e-06 -5.7607167061593083e-06 0.0000000000000000e+00  1.0239065767617338e-05 -6.9414835328581083e-06 0.0000000000000000e+00  1.3181833225005166e-05 -8.3905294731596683e-06 0.0000000000000000e+00  1.6852514392068197e-05 -1.0228431038775883e-05 0.0000000000000000e+00  2.1129281351081803e-05 -1.2659446767905430e-05 0.0000000000000000e+00  0.0000000000000000e+00 0.0000000000000000e+00 0.0000000000000000e+00  1.8832963379455088e-07 -1.8569582049515487e-07 0.0000000000000000e+00  3.8555187483219322e-07 -3.7791678120568528e-07 0.0000000000000000e+00  6.0119042092542567e-07 -5.8335664681501411e-07 0.0000000000000000e+00  8.4612831040959499e-07 -8.0905791771681299e-07 0.0000000000000000e+00  1.1335207677351828e-06 -1.0625848403396944e-06 0.0000000000000000e+00  1.4800471607349665e-06 -1.3521947654743424e-06 0.0000000000000000e+00  1.9077311149898533e-06 -1.6870066766485579e-06 0.0000000000000000e+00  2.4466971386701926e-06 -2.0771663557569635e-06 0.0000000000000000e+00  3.1394602159002541e-06 -2.5340137744238409e-06 0.0000000000000000e+00  4.0476804307593148e-06 -3.0702893562010416e-06 0.0000000000000000e+00  5.2626638895653253e-06 -3.7005470838561794e-06 0.0000000000000000e+00  6.9206542056909318e-06 -4.4424381305515998e-06 0.0000000000000000e+00  9.2207209254175348e-06 -5.3212032327030169e-06 0.0000000000000000e+00  1.2429027274609670e-05 -6.3844922955291035e-06 0.0000000000000000e+00  1.6810170416573438e-05 -7.7432444776045513e-06 0.0000000000000000e+00  2.2351748347426267e-05 -9.6336036074312402e-06 0.0000000000000000e+00  0.0000000000000000e+00 0.0000000000000000e+00 0.0000000000000000e+00  1.3087493925379363e-07 -1.2750280961119764e-07 0.0000000000000000e+00  2.6809300291766120e-07 -2.5945088515975390e-07 0.0000000000000000e+00  4.1848229527882862e-07 -4.0039998881453533e-07 0.0000000000000000e+00  5.8992515197752719e-07 -5.5513445582632133e-07 0.0000000000000000e+00  7.9209398581600645e-07 -7.2877674999514646e-07 0.0000000000000000e+00  1.0375040683457762e-06 -9.2688763604182650e-07 0.0000000000000000e+00  1.3431292574611462e-06 -1.1555433950382587e-06 0.0000000000000000e+00  1.7330257524114604e-06 -1.4213569244134441e-06 0.0000000000000000e+00  2.2428093034590321e-06 -1.7313621807609853e-06 0.0000000000000000e+00  2.9276511890827824e-06 -2.0925715974981387e-06 0.0000000000000000e+00  3.8771376459483065e-06 -2.5107870922983910e-06 0.0000000000000000e+00  5.2435917934485830e-06 -2.9879084012037475e-06 0.0000000000000000e+00  7.2953547423428586e-06 -3.5173545987403740e-06 0.0000000000000000e+00  1.0504743503189096e-05 -4.0844042895845493e-06 0.0000000000000000e+00  1.5608128398503869e-05 -4.7283221016857432e-06 0.0000000000000000e+00  2.3064979879093262e-05 -6.0066126967963369e-06 0.0000000000000000e+00  0.0000000000000000e+00 0.0000000000000000e+00 0.0000000000000000e+00  6.7086288083834737e-08 -6.4873424079832780e-08 0.0000000000000000e+00  1.3747723434543505e-07 -1.3199763861225643e-07 0.0000000000000000e+00  2.1474190827744227e-07 -2.0367785292281598e-07 0.0000000000000000e+00  3.0302753689084678e-07 -2.8233167881190036e-07 0.0000000000000000e+00  4.0747319712477842e-07 -3.7054103307291622e-07 0.0000000000000000e+00  5.3481810288862149e-07 -4.7109495027180274e-07 0.0000000000000000e+00  6.9436916796936064e-07 -5.8700903148383284e-07 0.0000000000000000e+00  8.9964904664261199e-07 -7.2148363280565138e-07 0.0000000000000000e+00  1.1714009417171695e-06 -8.7769671711331187e-07 0.0000000000000000e+00  1.5434921266626649e-06 -1.0581335042596205e-06 0.0000000000000000e+00  2.0755529791594394e-06 -1.2625552466696410e-06 0.0000000000000000e+00  2.8828505024406890e-06 -1.4817287706627973e-06 0.0000000000000000e+00  4.2151239833963030e-06 -1.6770247406941225e-06 0.0000000000000000e+00  6.6902065904077620e-06 -1.7093462601421514e-06 0.0000000000000000e+00  1.2070540862240057e-05 -1.0723858540314648e-06 0.0000000000000000e+00  2.6146549416563575e-05 2.1893774231109856e-06 0.0000000000000000e+00  0.0000000000000000e+00 0.0000000000000000e+00 0.0000000000000000e+00  0.0000000000000000e+00 0.0000000000000000e+00 0.0000000000000000e+00  0.0000000000000000e+00 0.0000000000000000e+00 0.0000000000000000e+00  0.0000000000000000e+00 0.0000000000000000e+00 0.0000000000000000e+00  0.0000000000000000e+00 0.0000000000000000e+00 0.0000000000000000e+00  0.0000000000000000e+00 0.0000000000000000e+00 0.0000000000000000e+00  0.0000000000000000e+00 0.0000000000000000e+00 0.0000000000000000e+00  0.0000000000000000e+00 0.0000000000000000e+00 0.0000000000000000e+00  0.0000000000000000e+00 0.0000000000000000e+00 0.00000