<?xml version="1.0"?>
<VTKFile type="UnstructuredGrid"  version="0.1"  >
<UnstructuredGrid>
<Piece  NumberOfPoints="289" NumberOfCells="512">
<Points>
<DataArray  type="Float64"  NumberOfComponents="3"  format="ascii">0 0 0  0.0625 0 0  0.125 0 0  0.1875 0 0  0.25 0 0  0.3125 0 0  0.375 0 0  0.4375 0 0  0.5 0 0  0.5625 0 0  0.625 0 0  0.6875 0 0  0.75 0 0  0.8125 0 0  0.875 0 0  0.9375 0 0  1 0 0  0 0.0625 0  0.06250075002002413 0.06249904124748753 0  0.1250015223867054 0.06249803957428382 0  0.1875023393785615 0.06249694922819841 0  0.2500032233247801 0.06249571836239069 0  0.3125041964525453 0.06249428482175289 0  0.3750052805245023 0.0624925700976393 0  0.4375064961860227 0.06249046986782615 0  0.5000078619314389 0.06248783798385712 0  0.5625093925701956 0.06248445718998574 0  0.6250110969857939 0.06247998102352056 0  0.68751297471781 0.06247380766460229 0  0.750015010195386 0.06246477710075528 0  0.8125171619187599 0.06245036026638658 0  0.8750193424774438 0.0624242295803161 0  0.9375213988322518 0.06236815238341697 0  1.000023247580397 0.06222221401751296 0  0 0.125 0  0.06250147772916616 0.1249981252970836 0  0.1250030000748874 0.1249961675754128 0  0.1875046116006012 0.1249940385635522 0  0.2500063571065757 0.1249916387533147 0  0.312508281399462 0.1249888498393552 0  0.3750104286492136 0.1249855242034202 0  0.4375128411780923 0.1249814691182738 0  0.5000155575192038 0.1249764214139753 0  0.5625186095688931 0.1249700044220084 0  0.6250220185986298 0.1249616509266236 0  0.6875257896396754 0.1249504593511292 0  0.7500299027707963 0.1249349191725462 0  0.8125342959926454 0.1249123992515069 0  0.8750388181560352 0.1248783438577564 0  0.9375430555012847 0.1248260091841632 0  1.000045565185217 0.1247536233520726 0  0 0.1875 0  0.06250216097667663 0.1874972922372838 0  0.1250043886318285 0.18749446660951 0  0.1875067497680868 0.1874913982725505 0  0.2500093118781945 0.1874879475899627 0  0.3125121429843798 0.1874839505835027 0  0.3750153108727134 0.187479206265256 0  0.4375188814918387 0.1874734587533136 0  0.5000229162893322 0.1874663707885118 0  0.5625274683017687 0.1874574831604968 0  0.6250325769343936 0.187446151484243 0  0.68753826166011 0.1874314488208347 0  0.7500445157152996 0.1874120261311679 0  0.8125513040558527 0.1873859570108546 0  0.8750585841788663 0.187350733895546 0  0.9375664385626425 0.1873039838439579 0  1.000075763870462 0.1872459407768563 0  0 0.25 0  0.06250277778591187 0.2499965769068415 0  0.125005643843907 0.2499930080859205 0  0.1875086869793589 0.2499891398914084 0  0.2500119975302593 0.2499848020817856 0  0.312515667495513 0.2499797976377212 0  0.3750197898808075 0.2499738900352999 0  0.4375244569404457 0.2499667866504825 0  0.5000297569869244 0.249958116614313 0  0.5625357695012545 0.2499474012863096 0  0.6250425584781486 0.2499340164049014 0  0.6875501643984842 0.2499171493035432 0  0.7500585961127427 0.2498957683808899 0  0.812567825338828 0.2498686580416864 0  0.8750777869191194 0.2498346484445905 0  0.937588373099016 0.2497932724233369 0  1.000099279840442 0.2497460149183293 0  0 0.3125 0  0.06250330660254619 0.312496007164643 0  0.1250067221550601 0.3124918486635906 0  0.1875103568357329 0.3124873506832431 0  0.2500143236923159 0.3124823225338553 0  0.312518739351527 0.3124765468480153 0  0.375023723802038 0.3124697681156831 0  0.4375293988150151 0.312461679055449 0  0.500035884506113 0.3124519046428272 0  0.5625432935500783 0.3124399845883942 0  0.6250517227221999 0.3124253575269523 0  0.6875612418814288 0.3124073557785819 0  0.750071881334277 0.3123852309150366 0  0.8125836196430311 0.3123582500555379 0  0.8750963747338524 0.3123259271331727 0  0.9376100010500911 0.3122884544767577 0  1.000124308562208 0.3122473033292705 0  0 0.375 0  0.06250372673536513 0.3749956029495471 0  0.125007581500513 0.3749910284487302 0  0.1875116945628952 0.3749860912027339 0  0.250016200963526 0.3749805898507933 0  0.3125212421716288 0.3749742981105353 0  0.3750269667451248 0.3749669550727713 0  0.4375335294338341 0.3749582547180011 0  0.5000410879953172 0.3749478353296435 0  0.5625497968569528 0.3749352707343646 0  0.6250597967578368 0.374920067718679 0  0.6875711998122981 0.374901678209591 0  0.7500840702620138 0.374879541205578 0  0.8125984026266088 0.3748531764236401 0  0.8751141006818011 0.374822351749466 0  0.9376309614085376 0.3747873199052374 0  1.000148664130835 0.3747490295749941 0  0 0.4375 0  0.06250401903864501 0.4374953760519213 0  0.1250081826422768 0.4374905707139969 0  0.1875126389267235 0.4374853953951508 0  0.2500175432640048 0.4374796468956755 0  0.3125230613027843 0.4374730996929875 0  0.3750293710740369 0.4374654979229934 0  0.4375366635152707 0.4374565473667443 0  0.5000451404196403 0.4374459083231358 0  0.5625550084293959 0.4374331912786849 0  0.6250664673536833 0.4374179590028808 0  0.6875796910488176 0.4373997412377713 0  0.7500947998102439 0.4373780711427352 0  0.8126118253183376 0.4373525543070649 0  0.8751306731305593 0.4373229768611797 0  0.9376510929791848 0.4372894412763499 0  1.000172671025528 0.4372524824528639 0  0 0.5 0  0.06250416686590687 0.4999953304207164 0  0.1250084910798737 0.4999904827069039 0  0.187513135089082 0.4999852723495393 0  0.2500182715672237 0.4999795020011015 0  0.3125240882327416 0.4999729548877108 0  0.3750307920709886 0.4999653881655824 0  0.437538612281848 0.4999565264967947 0  0.500047800756623 0.4999460564740358 0  0.5625586281417869 0.4999336231031306 0  0.6250713726137574 0.4999188304346039 0  0.6875862976320094 0.4999012496467576 0  0.7501036148932575 0.4998804392504169 0  0.8126234309724543 0.4998559829687977 0  0.8751456828926852 0.4998275498262699 0  0.9376700804816611 0.4997949761223696 0  1.000196087858069 0.4997583605298411 0  0 0.5625 0  0.06250415729156476 0.5624954628120535 0  0.1250084795480803 0.5624907571043262 0  0.187513138472167 0.5624857088934243 0  0.2500183192098128 0.5624801332489161 0  0.3125242273200892 0.5624738287595625 0  0.3750310957968553 0.5624665719878678 0  0.4375391916450455 0.5624581120042802 0  0.5000488208432241 0.5624481651566942 0  0.5625603293759356 0.5624364102805958 0  0.6250740962238567 0.5624224845769685 0  0.6875905117826681 0.5624059804358673 0  0.7501099328728255 0.562386443857312 0  0.8126326057472716 0.5623633766399059 0  0.8751585567373973 0.5623362486839178 0  0.9376874742184768 0.5623045347828568 0  1.000218646305739 0.5622677989240581 0  0 0.625 0  0.06250398254479123 0.6249957636223687 0  0.1250081310101142 0.6249913737794733 0  0.1875126195517657 0.624986672485096 0  0.2500176388036428 0.6249814927365602 0  0.3125234051315698 0.6249756540006727 0  0.3750301709559672 0.6249689576726631 0  0.4375382361342655 0.6249611824111864 0  0.5000479597428207 0.6249520790464193 0  0.562559770217987 0.6249413642913624 0  0.6250741691291188 0.6249287115881346 0  0.6875917191385582 0.6249137360098876 0  0.7501129996684184 0.6248959686815371 0  0.8126385065807493 0.6248748168088514 0  0.8751684741206585 0.6248495136075704 0  0.937702632058949 0.6248190867007321 0  1.000240012637274 0.624782414633628 0  0 0.6875 0  0.06250364152781153 0.687496217805919 0  0.1250074419032352 0.6874923016906066 0  0.1875115692586819 0.6874881141557644 0  0.2500162104424005 0.6874835106170206 0  0.3125215822840062 0.6874783359293412 0  0.3750279452297007 0.6874724209444459 0  0.4375356201988327 0.687465578946623 0  0.5000450092432362 0.6874576014665187 0  0.5625566195588675 0.6874482521583895 0  0.6250710875448714 0.6874372556849825 0  0.6875891928639614 0.6874242752011712 0  0.7501118385273826 0.6874088665780472 0  0.8126399489902989 0.6873903917006038 0  0.8751742103931771 0.6873678768813244 0  0.9377145884980498 0.6873398424478844 0  1.000259740972844 0.6873042250156967 0  0 0.75 0  0.06250314120619763 0.7499968058234332 0  0.125006425204719 0.749993500810009 0  0.1875100043355892 0.7499899714582331 0  0.2500140503695027 0.7499860990524517 0  0.3125187669328108 0.7499817572461663 0  0.3750244056027605 0.7499768098680499 0  0.4375312876598692 0.7499711089551923 0  0.5000398340880771 0.7499644927829719 0  0.5625506067970231 0.7499567829593174 0  0.6250643630928525 0.7499477777464801 0  0.6875821199658252 0.7499372339462725 0  0.7501052068156192 0.7499248184504744 0  0.8126352379327404 0.7499099882896597 0  0.8751738352670659 0.7498917301295273 0  0.9377217912756342 0.7498681265166544 0  1.00027743640123 0.7498360912858301 0  0 0.8125 0  0.06250249758162353 0.8124975045905576 0  0.1250051126985199 0.8124949240543629 0  0.1875079716243874 0.8124921714375481 0  0.2500112185931296 0.8124891562848672 0  0.312515027886036 0.8124857832085474 0  0.3750196203933004 0.812481950934268 0  0.4375252876640349 0.8124775521576036 0  0.5000324282683022 0.8124724747173365 0  0.562541604215249 0.8124666047400562 0  0.625053629334004 0.8124598320626053 0  0.6875697053829242 0.8124520554136025 0  0.7500916166071695 0.8124431723897937 0  0.8126219467512947 0.8124329948585973 0  0.8751640936261518 0.8124209000062905 0  0.9377213073332088 0.8124047811353781 0  1.000293165481137 0.8123793635431185 0  0 0.875 0  0.06250173592178083 0.8749982883927685 0  0.1250035557111904 0.87499651915833 0  0.1875055499717676 0.874994633564054 0  0.2500078232709593 0.8749925708203732 0  0.3125105039204594 0.874990267416731 0  0.3750137579744505 0.8749876570693099 0  0.4375178107282084 0.8749846718880947 0  0.5000229816554418 0.8749812460327751 0  0.5625297440492969 0.8749773245986932 0  0.6250388314682562 0.8749728836741439 0  0.6875514349652491 0.8749679738551426 0  0.750069576090114 0.8749628082399048 0  0.8125967959852499 0.8749579034734316 0  0.8751392399345451 0.8749540786187188 0  0.9377061326553282 0.8749507214388637 0  1.000301216248712 0.8749326449824112 0  0 0.9375 0  0.06250088996833295 0.93749912972287 0  0.1250018236499128 0.9374982303902678 0  0.1875028484390377 0.937497272436712 0  0.2500040194063924 0.937496225375692 0  0.3125054048171533 0.9374950575890457 0  0.3750070942585176 0.9374937365629825 0  0.4375092116005371 0.9374922300882641 0 
[...]
<PointData  Vectors="f_54"> 
<DataArray  type="Float64"  Name="f_54"  NumberOfComponents="3" format="ascii">0.0000000000000000e+00 0.0000000000000000e+00 0.0000000000000000e+00  0.0000000000000000e+00 0.0000000000000000e+00 0.0000000000000000e+00  0.0000000000000000e+00 0.0000000000000000e+00 0.0000000000000000e+00  0.0000000000000000e+00 0.0000000000000000e+00 0.0000000000000000e+00  0.0000000000000000e+00 0.0000000000000000e+00 0.0000000000000000e+00  0.0000000000000000e+00 0.0000000000000000e+00 0.0000000000000000e+00  0.0000000000000000e+00 0.0000000000000000e+00 0.0000000000000000e+00  0.0000000000000000e+00 0.0000000000000000e+00 0.0000000000000000e+00  0.0000000000000000e+00 0.0000000000000000e+00 0.0000000000000000e+00  0.0000000000000000e+00 0.0000000000000000e+00 0.0000000000000000e+00  0.0000000000000000e+00 0.0000000000000000e+00 0.0000000000000000e+00  0.0000000000000000e+00 0.0000000000000000e+00 0.0000000000000000e+00  0.0000000000000000e+00 0.0000000000000000e+00 0.0000000000000000e+00  0.0000000000000000e+00 0.0000000000000000e+00 0.0000000000000000e+00  0.0000000000000000e+00 0.0000000000000000e+00 0.0000000000000000e+00  0.0000000000000000e+00 0.0000000000000000e+00 0.0000000000000000e+00  0.0000000000000000e+00 0.0000000000000000e+00 0.0000000000000000e+00  0.0000000000000000e+00 0.0000000000000000e+00 0.0000000000000000e+00  -1.1256779493323545e-07 1.0120144692707979e-07 0.0000000000000000e+00  -2.2846174089954598e-07 2.0682425102502383e-07 0.0000000000000000e+00  -3.5101756927542695e-07 3.2157232220184466e-07 0.0000000000000000e+00  -4.8357376436246978e-07 4.5074958586513532e-07 0.0000000000000000e+00  -6.2944765103935179e-07 6.0067432685615842e-07 0.0000000000000000e+00  -7.9188044840972953e-07 7.7927347828323642e-07 0.0000000000000000e+00  -9.7394077135984616e-07 9.9701362062543770e-07 0.0000000000000000e+00  -1.1783767478043148e-06 1.2684793683383068e-06 0.0000000000000000e+00  -1.4074079975682257e-06 1.6152613224932285e-06 0.0000000000000000e+00  -1.6624477544599482e-06 2.0716740181669303e-06 0.0000000000000000e+00  -1.9437328188160666e-06 2.6970916453847999e-06 0.0000000000000000e+00  -2.2497821292527490e-06 3.6052197010505628e-06 0.0000000000000000e+00  -2.5763930778382126e-06 5.0411810640973512e-06 0.0000000000000000e+00  -2.9141312496921639e-06 7.6078685141028310e-06 0.0000000000000000e+00  -3.2405558234729822e-06 1.3005339551304088e-05 0.0000000000000000e+00  -3.4933291219166380e-06 2.6694479463356424e-05 0.0000000000000000e+00  0.0000000000000000e+00 0.0000000000000000e+00 0.0000000000000000e+00  -2.2180875268004082e-07 1.9798099924701053e-07 0.0000000000000000e+00  -4.5026386069023411e-07 4.0452556414125665e-07 0.0000000000000000e+00  -6.9204054847084298e-07 6.2872150796331797e-07 0.0000000000000000e+00  -9.5384002251991602e-07 8.8076296246756346e-07 0.0000000000000000e+00  -1.2423522128990033e-06 1.1726931134184588e-06 0.0000000000000000e+00  -1.5641563667441509e-06 1.5194362208236192e-06 0.0000000000000000e+00  -1.9255378017709692e-06 1.9403493243920844e-06 0.0000000000000000e+00  -2.3322007212879432e-06 2.4617176269518269e-06 0.0000000000000000e+00  -2.7888615409917976e-06 3.1210117871704899e-06 0.0000000000000000e+00  -3.2987147297814551e-06 3.9745408317383682e-06 0.0000000000000000e+00  -3.8627703487335298e-06 5.1118204299985453e-06 0.0000000000000000e+00  -4.4790581598350377e-06 6.6832952236939726e-06 0.0000000000000000e+00  -5.1416532375373856e-06 8.9533376115077747e-06 0.0000000000000000e+00  -5.8393730271010028e-06 1.2390888766247821e-05 0.0000000000000000e+00  -6.5538956632462072e-06 1.7750076339095274e-05 0.0000000000000000e+00  -7.2577575685484001e-06 2.5635195898074164e-05 0.0000000000000000e+00  0.0000000000000000e+00 0.0000000000000000e+00 0.0000000000000000e+00  -3.2439972361949853e-07 2.8619401478184047e-07 0.0000000000000000e+00  -6.5874364714561193e-07 5.8457545690861488e-07 0.0000000000000000e+00  -1.0130433565644240e-06 9.0802894290335692e-07 0.0000000000000000e+00  -1.3974003181314545e-06 1.2708967156632226e-06 0.0000000000000000e+00  -1.8219767198500605e-06 1.6899157742573319e-06 0.0000000000000000e+00  -2.2968732377620605e-06 2.1854574445120800e-06 0.0000000000000000e+00  -2.8318790118365858e-06 2.7832762048590961e-06 0.0000000000000000e+00  -3.4360604609057206e-06 3.5171046608072789e-06 0.0000000000000000e+00  -4.1171634988776376e-06 4.4326482984437040e-06 0.0000000000000000e+00  -4.8808230835575187e-06 5.5938580311456726e-06 0.0000000000000000e+00  -5.7296119762334215e-06 7.0927036990860880e-06 0.0000000000000000e+00  -6.6620327777099319e-06 9.0634544293657254e-06 0.0000000000000000e+00  -7.6717184226490770e-06 1.1699291354331690e-05 0.0000000000000000e+00  -8.7475817732930562e-06 1.5254925858384963e-05 0.0000000000000000e+00  -9.8773842949333258e-06 1.9973054639368713e-05 0.0000000000000000e+00  -1.1064070668856203e-05 2.5775323900160222e-05 0.0000000000000000e+00  0.0000000000000000e+00 0.0000000000000000e+00 0.0000000000000000e+00  -4.1704077201431139e-07 3.6221515401663749e-07 0.0000000000000000e+00  -8.4726475744844664e-07 7.3955187887851347e-07 0.0000000000000000e+00  -1.3039892845344755e-06 1.1479245744552102e-06 0.0000000000000000e+00  -1.8007454840191446e-06 1.6048871118927088e-06 0.0000000000000000e+00  -2.3512902168033387e-06 2.1306316666513136e-06 0.0000000000000000e+00  -2.9694956500061463e-06 2.7492292256797371e-06 0.0000000000000000e+00  -3.6690656690912750e-06 3.4902389870078238e-06 0.0000000000000000e+00  -4.4630258494896684e-06 4.3908499283839374e-06 0.0000000000000000e+00  -5.3629401640324138e-06 5.4987362088884838e-06 0.0000000000000000e+00  -6.3778316474556092e-06 6.8757284710300389e-06 0.0000000000000000e+00  -7.5128373643658097e-06 8.6019906265700198e-06 0.0000000000000000e+00  -8.7677223874256662e-06 1.0779037388130462e-05 0.0000000000000000e+00  -1.0135515542360906e-05 1.3526282017456660e-05 0.0000000000000000e+00  -1.1601649777255272e-05 1.6957744588137458e-05 0.0000000000000000e+00  -1.3143660906380361e-05 2.1113569307561650e-05 0.0000000000000000e+00  -1.4728232500640580e-05 2.5826766647970438e-05 0.0000000000000000e+00  0.0000000000000000e+00 0.0000000000000000e+00 0.0000000000000000e+00  -4.9649194214890545e-07 4.2310996097735431e-07 0.0000000000000000e+00  -1.0092814789376735e-06 8.6349068135045358e-07 0.0000000000000000e+00  -1.5549028961766738e-06 1.3392327314472021e-06 0.0000000000000000e+00  -2.1503052887689171e-06 1.8701034181057569e-06 0.0000000000000000e+00  -2.8129507534549579e-06 2.4785104904394917e-06 0.0000000000000000e+00  -3.5607664964285685e-06 3.1906165249894393e-06 0.0000000000000000e+00  -4.4118807857282138e-06 4.0376458622090950e-06 0.0000000000000000e+00  -5.3840606134101511e-06 5.0573914615639608e-06 0.0000000000000000e+00  -6.4937652393054555e-06 6.2958293731781315e-06 0.0000000000000000e+00  -7.7547470780580984e-06 7.8084997138115228e-06 0.0000000000000000e+00  -9.1761877177691649e-06 9.6607513324175804e-06 0.0000000000000000e+00  -1.0760471364550694e-05 1.1924804029886362e-05 0.0000000000000000e+00  -1.2500875399572212e-05 1.4669590146675243e-05 0.0000000000000000e+00  -1.4379654351377456e-05 1.7936882900313829e-05 0.0000000000000000e+00  -1.6367091796870914e-05 2.1697460173675169e-05 0.0000000000000000e+00  -1.8422208871711442e-05 2.5793670711508965e-05 0.0000000000000000e+00  0.0000000000000000e+00 0.0000000000000000e+00 0.0000000000000000e+00  -5.5963921269472324e-07 4.6673010204291000e-07 0.0000000000000000e+00  -1.1384628564437884e-06 9.5206742109961165e-07 0.0000000000000000e+00  -1.7560352691287938e-06 1.4754156039799447e-06 0.0000000000000000e+00  -2.4326255394845552e-06 2.0577923103313308e-06 0.0000000000000000e+00  -3.1894490113535688e-06 2.7227073324773104e-06 0.0000000000000000e+00  -4.0487518946153977e-06 3.4971090997609842e-06 0.0000000000000000e+00  -5.0336487110275749e-06 4.4123819181570841e-06 0.0000000000000000e+00  -6.1675931844544390e-06 5.5053105356971981e-06 0.0000000000000000e+00  -7.4733367620047301e-06 6.8187947984680143e-06 0.0000000000000000e+00  -8.9712215268504737e-06 8.4018427127322512e-06 0.0000000000000000e+00  -1.0676694867644965e-05 1.0307927694227037e-05 0.0000000000000000e+00  -1.2597063601437039e-05 1.2590130178942153e-05 0.0000000000000000e+00  -1.4727766061045629e-05 1.5290759567474338e-05 0.0000000000000000e+00  -1.7048831173578799e-05 1.8423148711971387e-05 0.0000000000000000e+00  -1.9522602328833586e-05 2.1946105153745401e-05 0.0000000000000000e+00  -2.2093950063774793e-05 2.5740580137340945e-05 0.0000000000000000e+00  0.0000000000000000e+00 0.0000000000000000e+00 0.0000000000000000e+00  -6.0359739460055716e-07 4.9174095707595833e-07 0.0000000000000000e+00  -1.2288937187231242e-06 1.0026344177069447e-06 0.0000000000000000e+00  -1.8981513023855716e-06 1.5525751750563472e-06 0.0000000000000000e+00  -2.6347179563883920e-06 2.1629537223897664e-06 0.0000000000000000e+00  -3.4634777823428315e-06 2.8574361922762110e-06 0.0000000000000000e+00  -4.4111584553858269e-06 3.6627607044042076e-06 0.0000000000000000e+00  -5.5063893642048781e-06 4.6095083737193760e-06 0.0000000000000000e+00  -6.7793512463561920e-06 5.7327427958824386e-06 0.0000000000000000e+00  -8.2607925421528251e-06 7.0722963265053581e-06 0.0000000000000000e+00  -9.9801266295871204e-06 8.6722887247919023e-06 0.0000000000000000e+00  -1.1962307519262547e-05 1.0579175244835932e-05 0.0000000000000000e+00  -1.4223287323789367e-05 1.2837269037618698e-05 0.0000000000000000e+00  -1.6764203982238934e-05 1.5480448335370251e-05 0.0000000000000000e+00  -1.9565142749468296e-05 1.8519132888084360e-05 0.0000000000000000e+00  -2.2580312224118512e-05 2.1923469976341091e-05 0.0000000000000000e+00  -2.5737282403087725e-05 2.5607652325995023e-05 0.0000000000000000e+00  0.0000000000000000e+00 0.0000000000000000e+00 0.0000000000000000e+00  -6.2585473282886305e-07 4.9759973722015224e-07 0.0000000000000000e+00  -1.2753644408409386e-06 1.0141577093830338e-06 0.0000000000000000e+00  -1.9729627930560016e-06 1.5693046174105610e-06 0.0000000000000000e+00  -2.7446257724749388e-06 2.1840244305312291e-06 0.0000000000000000e+00  -3.6185991069488098e-06 2.8813440340744463e-06 0.0000000000000000e+00  -4.6260337328982168e-06 3.6870212210867631e-06 0.0000000000000000e+00  -5.8014237918306120e-06 4.6301956659818941e-06 0.0000000000000000e+00  -7.1826594716061833e-06 5.7439249194797980e-06 0.0000000000000000e+00  -8.8103866194763766e-06 7.0654564042437314e-06 0.0000000000000000e+00  -1.0726210358638988e-05 8.6359737703896990e-06 0.0000000000000000e+00  -1.2969128572845718e-05 1.0499389517859377e-05 0.0000000000000000e+00  -1.5569545467431876e-05 1.2699535678486315e-05 0.0000000000000000e+00  -1.8540534540445868e-05 1.5274870095220913e-05 0.0000000000000000e+00  -2.1867066410803989e-05 1.8249695583840077e-05 0.0000000000000000e+00  -2.5495992643995144e-05 2.1621165149018544e-05 0.0000000000000000e+00  -2.9332244254319278e-05 2.5342492317160806e-05 0.0000000000000000e+00  0.0000000000000000e+00 0.0000000000000000e+00 0.0000000000000000e+00  -6.2445866425136168e-07 4.8450347182068903e-07 0.0000000000000000e+00  -1.2737512972230600e-06 9.8709836388856100e-07 0.0000000000000000e+00  -1.9737180787257814e-06 1.5264714630003270e-06 0.0000000000000000e+00  -2.7522360432788260e-06 2.1225111380381406e-06 0.0000000000000000e+00  -3.6402772975448673e-06 2.7969177771929840e-06 0.0000000000000000e+00  -4.6729780596250850e-06 3.5738188306207950e-06 0.0000000000000000e+00  -5.8906439887782580e-06 4.4803777151758678e-06 0.0000000000000000e+00  -7.3395139524352652e-06 5.5473752366113672e-06 0.0000000000000000e+00  -9.0719251735344524e-06 6.8097286086279392e-06 0.0000000000000000e+00  -1.1145236859642166e-05 8.3068928645496020e-06 0.0000000000000000e+00  -1.3618471151485787e-05 1.0083044877120801e-05 0.0000000000000000e+00  -1.6545214483491631e-05 1.2186822918421265e-05 0.0000000000000000e+00  -1.9961243437634665e-05 1.4670033144702816e-05 0.0000000000000000e+00  -2.3866432753526280e-05 1.7583838885737196e-05 0.0000000000000000e+00  -2.8204092165557050e-05 2.0969171122586850e-05 0.0000000000000000e+00  -3.2847619121786274e-05 2.4835797237957666e-05 0.0000000000000000e+00  0.0000000000000000e+00 0.0000000000000000e+00 0.0000000000000000e+00  -5.9823392898394967e-07 4.5332159059394346e-07 0.0000000000000000e+00  -1.2214727424034281e-06 9.2326966612801875e-07 0.0000000000000000e+00  -1.8959348922241248e-06 1.4269845353101447e-06 0.0000000000000000e+00  -2.6503406359433698e-06 1.9826491024275648e-06 0.0000000000000000e+00  -3.5173197501791073e-06 2.6100229645742276e-06 0.0000000000000000e+00  -4.5349885810158079e-06 3.3309953028513152e-06 0.0000000000000000e+00  -5.7487003423995119e-06 4.1701730872944860e-06 0.0000000000000000e+00  -7.2128764625459038e-06 5.1555427851848951e-06 0.0000000000000000e+00  -8.9926195261964227e-06 6.3192913497039416e-06 0.0000000000000000e+00  -1.1164397267512356e-05 7.6989618376764980e-06 0.0000000000000000e+00  -1.3814347269526962e-05 9.3392546585986805e-06 0.0000000000000000e+00  -1.7031602503934893e-05 1.1294902670070334e-05 0.0000000000000000e+00  -2.0892725253072563e-05 1.3634859650376473e-05 0.0000000000000000e+00  -2.5433154454997720e-05 1.6446719832144315e-05 0.0000000000000000e+00  -3.0606015027800833e-05 1.9836097946024827e-05 0.0000000000000000e+00  -3.6243255879571761e-05 2.3906506022680244e-05 0.0000000000000000e+00  0.0000000000000000e+00 0.0000000000000000e+00 0.0000000000000000e+00  -5.4701303664329609e-07 4.0552113331227238e-07 0.0000000000000000e+00  -1.1179832720122765e-06 8.2568509089567244e-07 0.0000000000000000e+00  -1.7382249186310992e-06 1.2755627328240858e-06 0.0000000000000000e+00  -2.4358942457356791e-06 1.7710979865912806e-06 0.0000000000000000e+00  -3.2437021595267307e-06 2.3295575450258063e-06 0.0000000000000000e+00  -4.2009952869869223e-06 2.9700051620028755e-06 0.0000000000000000e+00  -5.3563432445012347e-06 3.7138310377265838e-06 0.0000000000000000e+00  -6.7707365778750251e-06 4.5854080646892534e-06 0.0000000000000000e+00  -8.5213572191080621e-06 5.6130393434860160e-06 0.0000000000000000e+00  -1.0705471861402307e-05 6.8305566245503051e-06 0.0000000000000000e+00  -1.3442998628900672e-05 8.2803096082620189e-06 0.0000000000000000e+00  -1.6874168264007628e-05 1.0018935042841995e-05 0.0000000000000000e+00  -2.1144862908009122e-05 1.2128105934916817e-05 0.0000000000000000e+00  -2.6367261167803855e-05 1.4732446298133470e-05 0.0000000000000000e+00  -3.2543164649380803e-05 1.8022335607650999e-05 0.0000000000000000e+00  -3.9460770078375692e-05 2.2262102623271691e-05 0.0000000000000000e+00  0.0000000000000000e+00 0.0000000000000000e+00 0.0000000000000000e+00  -4.7184624151919367e-07 3.4308707694169520e-07 0.0000000000000000e+00  -9.6523764575095015e-07 6.9839905032551487e-07 0.0000000000000000e+00  -1.5031073698717697e-06 1.0784994376926547e-06 0.0000000000000000e+00  -2.1113357674226625e-06 1.4966440958685592e-06 0.0000000000000000e+00  -2.8206345582707087e-06 1.9671333392305887e-06 0.0000000000000000e+00  -3.6689942662696344e-06 2.5056772540678629e-06 0.0000000000000000e+00  -4.7050038585032757e-06 3.1297946280293646e-06 0.0000000000000000e+00  -5.9924530557991869e-06 3.8592994904088222e-06 0.0000000000000000e+00  -7.6167089635573526e-06 4.7170156827783198e-06 0.0000000000000000e+00  -9.6932664710434477e-06 5.7300783269219758e-06 0.0000000000000000e+00  -1.2378152177284141e-05 6.9327220699918104e-06 0.0000000000000000e+00  -1.5877333675714294e-05 8.3727426064210280e-06 0.0000000000000000e+00  -2.0445332713709395e-05 1.0126616878577089e-05 0.0000000000000000e+00  -2.6347701008097558e-05 1.2333178086182499e-05 0.0000000000000000e+00  -3.3738122446653770e-05 1.5259322232501662e-05 0.0000000000000000e+00  -4.2403938734737263e-05 1.9391633396684522e-05 0.0000000000000000e+00  0.0000000000000000e+00 0.0000000000000000e+00 0.0000000000000000e+00  -3.7514685060450791e-07 2.6843771584088704e-07 0.0000000000000000e+00  -7.6803047018068429e-07 5.4633720055061103e-07 0.0000000000000000e+00  -1.1976532361695319e-06 8.4340840523191830e-07 0.0000000000000000e+00  -1.6857362507803505e-06 1.1698676229947333e-06 0.0000000000000000e+00  -2.2585457129943568e-06 1.5366843437665499e-06 0.0000000000000000e+00  -2.9493979037516200e-06 1.9558173060624685e-06 0.0000000000000000e+00  -3.8023008250485823e-06 2.4404291807251372e-06 0.0000000000000000e+00  -4.8774691678523684e-06 3.0050633127105325e-06 0.0000000000000000e+00  -6.2599070454817830e-06 3.6657670328899775e-06 0.0000000000000000e+00  -8.0729334661777137e-06 4.4401972512933162e-06 0.0000000000000000e+00  -1.0499265812791429e-05 5.3480227908955410e-06 0.0000000000000000e+00  -1.3811966554713854e-05 6.4130947875717967e-06 0.0000000000000000e+00  -1.8411656963526190e-05 7.6730396206773775e-06 0.0000000000000000e+00  -2.4840066216601463e-05 9.2151985009013332e-06 0.0000000000000000e+00  -3.3657165210189272e-05 1.1291300587345227e-05 0.0000000000000000e+00  -4.4915050484978468e-05 1.4594083296527697e-05 0.0000000000000000e+00  0.0000000000000000e+00 0.0000000000000000e+00 0.0000000000000000e+00  -2.6072299123412813e-07 1.8433556207868400e-07 0.0000000000000000e+00  -5.3410085013953524e-07 3.7511566401877415e-07 0.0000000000000000e+00  -8.3376129392538683e-07 5.7894537490814048e-07 0.0000000000000000e+00  -1.1754408314431562e-06 8.0275521343770546e-07 0.0000000000000000e+00  -1.5784566446738472e-06 1.0539487016790226e-06 0.0000000000000000e+00  -2.0678113987511454e-06 1.3405198821669157e-06 0.0000000000000000e+00  -2.6774206914708205e-06 1.6711005902591156e-06 0.0000000000000000e+00  -3.4553469487272111e-06 2.0548433365331262e-06 0.0000000000000000e+00  -4.4727141039675738e-06 2.5009185124568687e-06 0.0000000000000000e+00  -5.8395928806003333e-06 3.0171115051349468e-06 0.0000000000000000e+00  -7.7344538167615432e-06 3.6063721349195905e-06 0.0000000000000000e+00  -1.0460225566969266e-05 4.2590492562137388e-06 0.0000000000000000e+00  -1.4549981426795168e-05 4.9380458536485064e-06 0.0000000000000000e+00  -2.0944271355809284e-05 5.5646072533780189e-06 0.0000000000000000e+00  -3.1135104027176683e-05 6.0986858288710442e-06 0.0000000000000000e+00  -4.6237346541206556e-05 7.3266278971670418e-06 0.0000000000000000e+00  0.0000000000000000e+00 0.0000000000000000e+00 0.0000000000000000e+00  -1.3365478864666777e-07 9.3796342505501677e-08 0.0000000000000000e+00  -2.7390371261302009e-07 1.9085510140350828e-07 0.0000000000000000e+00  -4.2787139919632368e-07 2.9451684039033067e-07 0.0000000000000000e+00  -6.0383909752538425e-07 4.0827940736375419e-07 0.0000000000000000e+00  -8.1207203555177136e-07 5.3586377429403395e-07 0.0000000000000000e+00  -1.0660348901698961e-06 6.8125340369735831e-07 0.0000000000000000e+00  -1.3843222529552070e-06 8.4866853568674024e-07 0.0000000000000000e+00  -1.7939390906162436e-06 1.0423769696460322e-06 0.0000000000000000e+00  -2.3362615426107658e-06 1.2660804238918627e-06 0.0000000000000000e+00  -3.0786929252675526e-06 1.5211524600367990e-06 0.0000000000000000e+00  -4.1394630886670900e-06 1.8016065136789982e-06 0.0000000000000000e+00  -5.7457839068122766e-06 2.0791748925038596e-06 0.0000000000000000e+00  -8.3858688423169605e-06 2.2563788319175633e-06 0.0000000000000000e+00  -1.3254400818065782e-05 2.0082627257597819e-06 0.0000000000000000e+00  -2.3712781715245255e-05 2.0794771279146774e-07 0.0000000000000000e+00  -5.0603001839470169e-05 -7.3171595486518048e-06 0.0000000000000000e+00  0.0000000000000000e+00 0.0000000000000000e+00 0.0000000000000000e+00  0.0000000000000000e+00 0.0000000000000000e+00 0.0000000000000000e+00  0.0000000000000000e+00 0.0000000000000000e+00 0.0000000000000000e+00  0.0000000000000000e+00 0.0000000000000000e+00 0.0000000000000000e+00  0.0000000000000000e+00 0.0000000000000000e+00 0.0000000000000000e+00  0.0000000000000000e+00 0.0000000000000000e+00 0.0000000000000000e+00  0.0000000000000000e+00 0.0000000000000000e+00 0.0000000000000000e+00  0.0000000000000000e+00 0.0000000000000000e+00 0.0000000000000000e+00  0.0000000000000000e+00 0.0000000000000000e+00 0.000