<?xml version="1.0"?>
<VTKFile type="UnstructuredGrid"  version="0.1"  >
<UnstructuredGrid>
<Piece  NumberOfPoints="289" NumberOfCells="512">
<Points>
<DataArray  type="Float64"  NumberOfComponents="3"  format="ascii">0 0 0  0.0625 0 0  0.125 0 0  0.1875 0 0  0.25 0 0  0.3125 0 0  0.375 0 0  0.4375 0 0  0.5 0 0  0.5625 0 0  0.625 0 0  0.6875 0 0  0.75 0 0  0.8125 0 0  0.875 0 0  0.9375 0 0  1 0 0  0 0.0625 0  0.06249822946552826 0.06250163581291487 0  0.1249964068692913 0.06250334124011597 0  0.1874944799023914 0.06250519009740371 0  0.2499923962641101 0.06250726522284147 0  0.3124901040550584 0.06250966471406585 0  0.3749875526530799 0.06251251090225288 0  0.4374846942241545 0.06251596446882952 0  0.4999814859922443 0.06252024848039563 0  0.5624778933355584 0.06252569251191305 0  0.6249738936999695 0.06253282015508836 0  0.6874694812944186 0.06254253776267532 0  0.7499646728541589 0.06255658141920964 0  0.8124595165627564 0.06257868989861889 0  0.8749541141056693 0.06261803193642508 0  0.9374487005204905 0.06270032180705282 0  0.9999439992973929 0.06290738112349274 0  0 0.125 0  0.06249651110394723 0.1250032018141304 0  0.1249929181428879 0.1250065386177382 0  0.1874891164208972 0.1250101531879304 0  0.2499850009376296 0.1250142049123548 0  0.3124804670147094 0.1250188809389623 0  0.3749754118976342 0.1250244117027386 0  0.4374697376583008 0.1250310943583105 0  0.4999633556758707 0.1250393306347158 0  0.5624561928544908 0.1250496917008426 0  0.6249481995158144 0.1250630351677866 0  0.6874393585683954 0.1250807252539414 0  0.7499296951108058 0.1251050582165825 0  0.8124192849535985 0.1251400775084931 0  0.8749082582840242 0.1251929790684587 0  0.9373967813072407 0.125275445055068 0  0.9998849194299024 0.1253975747853744 0  0 0.1875 0  0.06249489707953064 0.1875046326289691 0  0.1249896383764117 0.1875094577938006 0  0.1874840668194739 0.1875146783807663 0  0.2499780240793845 0.1875205191273794 0  0.3124713510983311 0.1875272406349096 0  0.3749638900967034 0.1875351579066344 0  0.4374554885967664 0.1875446665618249 0  0.4999460059686896 0.1875562818956417 0  0.5624353228533597 0.1875706993277666 0  0.6249233534670987 0.1875888898543555 0  0.6874100601383172 0.1876122496309622 0  0.7498954682905915 0.1876428200753527 0  0.8123796780034181 0.1876835478645125 0  0.8748628636124728 0.187738342065795 0  0.9373452400062621 0.1878109912915505 0  0.9998269369091599 0.1879004850132187 0  0 0.25 0  0.06249343922505816 0.2500058707090822 0  0.1249866717814488 0.2500119811067642 0  0.1874794886460366 0.2500185826615083 0  0.2499716776301004 0.2500259513998208 0  0.3124630232953974 0.2500344027716161 0  0.374953308830723 0.2500443100407335 0  0.437442320700409 0.250056128099063 0  0.4999298569161177 0.2500704251791793 0  0.5624157396832654 0.2500879252766907 0  0.6248998328024575 0.2501095629858503 0  0.6873820634046516 0.2501365463493315 0  0.7498624462387677 0.250170402970154 0  0.8123411069232033 0.2502129293504694 0  0.8748182994280203 0.2502658398352316 0  0.9372944179100878 0.2503297216840888 0  0.9997700380406342 0.2504019566882582 0  0 0.3125 0  0.06249218847970044 0.3125068688986232 0  0.1249841212515555 0.3125140128153284 0  0.1874755386591205 0.3125217189976807 0  0.2499661747392012 0.3125302998491649 0  0.3124557558055735 0.3125401072153106 0  0.3749440013899935 0.3125515487213874 0  0.437430628674456 0.3125651067062885 0  0.4999153617536022 0.3125813597782978 0  0.5623979471475503 0.3126010055328248 0  0.6248781767495474 0.3126248792598507 0  0.687355918563388 0.3126539550511341 0  0.7498311538686598 0.3126892984852731 0  0.8123040167566948 0.31273190982892 0  0.8747748288593556 0.3127823589672383 0  0.9372441200013197 0.3128401159411385 0  0.9997126233581667 0.3129026765528793 0  0 0.375 0  0.06249119386532109 0.3750075918651628 0  0.1249820864427497 0.3750154818068342 0  0.187472370292583 0.3750239798995281 0  0.2499617270955513 0.3750334205925473 0  0.3124498239879027 0.3750441757302276 0  0.3749363124396452 0.3750566682874577 0  0.4374208311429119 0.3750713863956026 0  0.4999030148616788 0.3750888962084602 0  0.5623825116487605 0.375109850119164 0  0.6248590110065722 0.3751349830160882 0  0.687332284992597 0.3751650826627371 0  0.7498022422658112 0.3752009103700069 0  0.8122689909090328 0.3752430372985973 0  0.8747328993270477 0.3752915615640343 0  0.9371946368012468 0.3753457131002014 0  0.9996551693354881 0.3754034902953056 0  0 0.4375 0  0.06249050087474269 0.4375080165482707 0  0.1249806606299455 0.4375163421954033 0  0.187470129177943 0.4375252974376506 0  0.2499585395109706 0.437535225706136 0  0.312445500722518 0.4375465050518496 0  0.3749305933632473 0.4375595597001911 0  0.4374133688464589 0.4375748706187073 0  0.499893355497201 0.4375929831906135 0  0.5623700749193384 0.4376145082716901 0  0.6248430733872908 0.4376401099795869 0  0.6873119733175146 0.4376704693154208 0  0.7497765482898258 0.4377062076982035 0  0.8122368196673898 0.4377477513935149 0  0.8746931617648623 0.4377951236671562 0  0.9371463863551214 0.4378476786868337 0  0.9995977637035766 0.437903849231475 0  0 0.5 0  0.06249014919262474 0.500008131924556 0  0.124979926142229 0.5000165725395198 0  0.1874689463297659 0.5000256411927514 0  0.2499568010401124 0.5000356785692162 0  0.3124430459815754 0.5000470573167326 0  0.3749271914125235 0.5000601922724618 0  0.4374086954833262 0.5000755494792182 0  0.499886963830479 0.5000936523953646 0  0.5623613604120004 0.5001150824640568 0  0.6248312370963098 0.50014046938379 0  0.6872959920243388 0.5001704639750638 0  0.7497551674840331 0.5002056837057288 0  0.8122085931937033 0.5002466184814121 0  0.8746565646673241 0.5002934836649864 0  0.9371000142883135 0.5003460103096228 0  0.999540592909698 0.500403170799217 0  0 0.5625 0  0.06249016975490067 0.5625079384017735 0  0.1249799483408725 0.5625161743997678 0  0.1874689288094983 0.5625250154759319 0  0.2499566721201597 0.5625347889005343 0  0.3124426904818444 0.5625458516365759 0  0.3749264305509245 0.56255860004545 0  0.4374072576875797 0.5625734789462776 0  0.4998844441290469 0.5625909891993711 0  0.5623571668119693 0.5626116924577592 0  0.6248245251691786 0.562636211048581 0  0.6872855956500277 0.5626652200563306 0  0.7497395464904317 0.5626994272545258 0  0.8121858378104264 0.5627395332528922 0  0.8746245152791721 0.5627861552361936 0  0.9370565497651889 0.5628396750887177 0  0.9994840715859395 0.5628999314152954 0  0 0.625 0  0.06249058128583027 0.625007447072835 0  0.1249807683712122 0.6250151707386008 0  0.1874701480763905 0.6250234566673434 0  0.2499582676924545 0.6250326087669971 0  0.3124446127407189 0.6250429585539103 0  0.3749285820478194 0.6250548747808876 0  0.4374094600748585 0.6250687733656456 0  0.4998863879649048 0.6250851277030055 0  0.5623583380675391 0.6251044796395306 0  0.6248241032433427 0.625127451897004 0  0.6872823240506252 0.6251547637125658 0  0.7497315953004142 0.6251872527359476 0  0.8121707145606932 0.6252259059475452 0  0.8745991384138256 0.6252718929304725 0  0.937017641915644 0.6253265519576655 0  0.9994289458837509 0.6253911403548285 0  0 0.6875 0  0.06249138663170737 0.6875066789384476 0  0.1249823953010709 0.6875136043700391 0  0.1874726268510774 0.6875210309435783 0  0.2499616371402782 0.6875292297898842 0  0.3124489099307332 0.6875384972923738 0  0.3749338239104001 0.687549164589274 0  0.4374156116476571 0.6875616082826045 0  0.4998933087858035 0.6875762631960562 0  0.5623656940201306 0.6875936387823497 0  0.624831226886283 0.6876143423096421 0  0.6872880062149325 0.6876391149689423 0  0.7497338059199389 0.6876688928012764 0  0.8121663059412684 0.687704914585234 0  0.8745837152263615 0.6877489132007305 0  0.936985986166421 0.6878034268213822 0  0.9993764347949072 0.6878721373214268 0  0 0.75 0  0.06249256941571991 0.7500056640944076 0  0.1249847987207258 0.7500115364095519 0  0.187476326138381 0.750017832194054 0  0.2499667431963757 0.7500247809851855 0  0.3124555648693179 0.7500326344700183 0  0.3749421907569006 0.7500416753799705 0  0.437425852370763 0.7500522281310853 0  0.4999055399650219 0.7500646724198979 0  0.5623799010003058 0.750079461927627 0  0.6248471036763058 0.7500971521158004 0  0.6873046701665388 0.7501184448517254 0  0.7497493239981708 0.7501442660082978 0  0.8121770064327853 0.7501759130450529 0  0.874583465799205 0.7502153659356824 0  0.936966211801209 0.7502660111857682 0  0.9993285749356029 0.7503344249194021 0  0 0.8125 0  0.06249409171838061 0.8125044408083957 0  0.1249879033210816 0.8125090445206991 0  0.1874811349416335 0.8125139796697212 0  0.2499734436169712 0.8125194262902562 0  0.3124644143375559 0.8125255824134979 0  0.3749535203098897 0.8125326716333535 0  0.4374400651481742 0.812540952458346 0  0.499923095272422 0.8125507305827977 0  0.5624012634789802 0.8125623758986502 0  0.6248726137138366 0.8125763471679074 0  0.6873342449296037 0.8125932290418986 0  0.7497818157081484 0.8126137892863446 0  0.8122089424815228 0.8126390720903071 0  0.8746069609056129 0.8126705754282052 0  0.936966869642594 0.8127107277013232 0  0.9992880400759117 0.812764832022244 0  0 0.875 0  0.06249589356099221 0.875003054393189 0  0.124991587205951 0.8750062207261631 0  0.1874868658386442 0.8750096148881187 0  0.2499814809301312 0.8750133608670958 0  0.3124751271905939 0.875017595402978 0  0.3749674091940722 0.8750224735015449 0  0.4374577901909871 0.8750281753505867 0  0.4999455091013933 0.8750349154289286 0  0.5624294391631812 0.8750429548944043 0  0.6249078361071095 0.8750526184674449 0  0.6873778711537716 0.8750643161281144 0  0.7498347407861031 0.8750785646096914 0  0.8122699794014865 0.8750959798865184 0  0.8746685760512575 0.8751171079164169 0  0.9370063036790092 0.8751414849525155 0  0.9992624986824633 0.8751629382279583 0  0 0.9375 0  0.06249789484303112 0.9375015558111575 0  0.124995685499332 0.9375031686262402 0  0.187493259505458 0.937504897489392 0  0.2499904860621609 0.9375068056372619 0  0.3124872029253703 0.9375089629314967 0  0.3749831971443457 0.9375114487667455 0  0.4374781744763325 0
[...]
<PointData  Vectors="f_54"> 
<DataArray  type="Float64"  Name="f_54"  NumberOfComponents="3" format="ascii">0.0000000000000000e+00 0.0000000000000000e+00 0.0000000000000000e+00  0.0000000000000000e+00 0.0000000000000000e+00 0.0000000000000000e+00  0.0000000000000000e+00 0.0000000000000000e+00 0.0000000000000000e+00  0.0000000000000000e+00 0.0000000000000000e+00 0.0000000000000000e+00  0.0000000000000000e+00 0.0000000000000000e+00 0.0000000000000000e+00  0.0000000000000000e+00 0.0000000000000000e+00 0.0000000000000000e+00  0.0000000000000000e+00 0.0000000000000000e+00 0.0000000000000000e+00  0.0000000000000000e+00 0.0000000000000000e+00 0.0000000000000000e+00  0.0000000000000000e+00 0.0000000000000000e+00 0.0000000000000000e+00  0.0000000000000000e+00 0.0000000000000000e+00 0.0000000000000000e+00  0.0000000000000000e+00 0.0000000000000000e+00 0.0000000000000000e+00  0.0000000000000000e+00 0.0000000000000000e+00 0.0000000000000000e+00  0.0000000000000000e+00 0.0000000000000000e+00 0.0000000000000000e+00  0.0000000000000000e+00 0.0000000000000000e+00 0.0000000000000000e+00  0.0000000000000000e+00 0.0000000000000000e+00 0.0000000000000000e+00  0.0000000000000000e+00 0.0000000000000000e+00 0.0000000000000000e+00  0.0000000000000000e+00 0.0000000000000000e+00 0.0000000000000000e+00  0.0000000000000000e+00 0.0000000000000000e+00 0.0000000000000000e+00  -4.3324119541105107e-08 5.9147739334716227e-08 0.0000000000000000e+00  -8.7931392075906541e-08 1.2086933716739118e-07 0.0000000000000000e+00  -1.3510561792203751e-07 1.8789836937965043e-07 0.0000000000000000e+00  -1.8613218457275388e-07 2.6331725600964125e-07 0.0000000000000000e+00  -2.4228894225782995e-07 3.5079869372541650e-07 0.0000000000000000e+00  -3.0482510513400568e-07 4.5495314972062781e-07 0.0000000000000000e+00  -3.7492391526619200e-07 5.8187493319177346e-07 0.0000000000000000e+00  -4.5364470901167631e-07 7.4007054605585431e-07 0.0000000000000000e+00  -5.4183958606658142e-07 9.4216235493623333e-07 0.0000000000000000e+00  -6.4003768789788820e-07 1.2082762483752097e-06 0.0000000000000000e+00  -7.4828238141253473e-07 1.5734009657871751e-06 0.0000000000000000e+00  -8.6588666247310098e-07 2.1050393846215133e-06 0.0000000000000000e+00  -9.9104409898453731e-07 2.9503803053156928e-06 0.0000000000000000e+00  -1.1203357915528298e-06 4.4772154039900157e-06 0.0000000000000000e+00  -1.2494830377823461e-06 7.7418137128966893e-06 0.0000000000000000e+00  -1.3858457089659756e-06 1.6190464974927911e-05 0.0000000000000000e+00  0.0000000000000000e+00 0.0000000000000000e+00 0.0000000000000000e+00  -8.5364842881145300e-08 1.1572119896913396e-07 0.0000000000000000e+00  -1.7329285853608636e-07 2.3642682603629188e-07 0.0000000000000000e+00  -2.6635264018830304e-07 3.6739727992118009e-07 0.0000000000000000e+00  -3.6712376712132956e-07 5.1455510478127269e-07 0.0000000000000000e+00  -4.7818269257211298e-07 6.8489695404925419e-07 0.0000000000000000e+00  -6.0206482509266012e-07 8.8709578458680600e-07 0.0000000000000000e+00  -7.4119426809344696e-07 1.1324087972300499e-06 0.0000000000000000e+00  -8.9777286710757239e-07 1.4361401035492003e-06 0.0000000000000000e+00  -1.0736207752922245e-06 1.8201372213469004e-06 0.0000000000000000e+00  -1.2699601907409020e-06 2.3172732433274662e-06 0.0000000000000000e+00  -1.4871254301856125e-06 2.9798291257328638e-06 0.0000000000000000e+00  -1.7241387439544435e-06 3.8955090211601898e-06 0.0000000000000000e+00  -1.9778966418252601e-06 5.2172824011999582e-06 0.0000000000000000e+00  -2.2408337798945202e-06 7.2103144992801888e-06 0.0000000000000000e+00  -2.4917533134125685e-06 1.0268166529563362e-05 0.0000000000000000e+00  -2.6536043992450173e-06 1.4503523690697383e-05 0.0000000000000000e+00  0.0000000000000000e+00 0.0000000000000000e+00 0.0000000000000000e+00  -1.2484409540590920e-07 1.6731224350797378e-07 0.0000000000000000e+00  -2.5352156789140782e-07 3.4171742618484583e-07 0.0000000000000000e+00  -3.8988411976802670e-07 5.3070147167407496e-07 0.0000000000000000e+00  -5.3781933746330469e-07 7.4259420818598837e-07 0.0000000000000000e+00  -7.0123989568964865e-07 9.8711278767404886e-07 0.0000000000000000e+00  -8.8403738571177768e-07 1.2760827882112214e-06 0.0000000000000000e+00  -1.0899875587731415e-06 1.6244585567089709e-06 0.0000000000000000e+00  -1.3225943023636549e-06 2.0518401601629852e-06 0.0000000000000000e+00  -1.5848627491840875e-06 2.5848089472909848e-06 0.0000000000000000e+00  -1.8789998693447242e-06 3.2605855414404132e-06 0.0000000000000000e+00  -2.2060591169285978e-06 4.1326922045566738e-06 0.0000000000000000e+00  -2.5655942910462490e-06 5.2791151293462486e-06 0.0000000000000000e+00  -2.9555611821882198e-06 6.8115131563015943e-06 0.0000000000000000e+00  -3.3734775381465562e-06 8.8760357680079955e-06 0.0000000000000000e+00  -3.8236547764634233e-06 1.1613709212880994e-05 0.0000000000000000e+00  -4.3548760880955691e-06 1.5023151611207402e-05 0.0000000000000000e+00  0.0000000000000000e+00 0.0000000000000000e+00 0.0000000000000000e+00  -1.6049305980792073e-07 2.1181384665166585e-07 0.0000000000000000e+00  -3.2606561199398821e-07 4.3242847283374679e-07 0.0000000000000000e+00  -5.0184018785969629e-07 6.7109086540706786e-07 0.0000000000000000e+00  -6.9302289284780788e-07 9.3799383934867005e-07 0.0000000000000000e+00  -9.0490852336248141e-07 1.2448526912068738e-06 0.0000000000000000e+00  -1.1428393920731657e-06 1.6056234093386336e-06 0.0000000000000000e+00  -1.4120988504250552e-06 2.0374376574062898e-06 0.0000000000000000e+00  -1.7177199698177862e-06 2.5618513510788454e-06 0.0000000000000000e+00  -2.0641931441976456e-06 3.2065143586172688e-06 0.0000000000000000e+00  -2.4550674334438570e-06 4.0073206053026515e-06 0.0000000000000000e+00  -2.8924652378060897e-06 5.0108527022721359e-06 0.0000000000000000e+00  -3.3765760377105041e-06 6.2761447856836082e-06 0.0000000000000000e+00  -3.9052610601769023e-06 7.8727108844742522e-06 0.0000000000000000e+00  -4.4738835090681724e-06 9.8673592380172417e-06 0.0000000000000000e+00  -5.0745246560788596e-06 1.2286083303234632e-05 0.0000000000000000e+00  -5.6861175104705487e-06 1.5039515887041195e-05 0.0000000000000000e+00  0.0000000000000000e+00 0.0000000000000000e+00 0.0000000000000000e+00  -1.9106625170120567e-07 2.4751849700409412e-07 0.0000000000000000e+00  -3.8840867148051546e-07 5.0509128411897528e-07 0.0000000000000000e+00  -5.9838601616142262e-07 7.8323367126777616e-07 0.0000000000000000e+00  -8.2751751134014155e-07 1.0934239402603796e-06 0.0000000000000000e+00  -1.0825209894741312e-06 1.4486561131920454e-06 0.0000000000000000e+00  -1.3702957695997466e-06 1.8640798630695162e-06 0.0000000000000000e+00  -1.6978240967051312e-06 2.3577530554250409e-06 0.0000000000000000e+00  -2.0719609423583362e-06 2.9515140854379073e-06 0.0000000000000000e+00  -2.4990815579177528e-06 3.6719261149796190e-06 0.0000000000000000e+00  -2.9845643413573064e-06 4.5511052209018591e-06 0.0000000000000000e+00  -3.5321101316192061e-06 5.6269251911506845e-06 0.0000000000000000e+00  -4.1429438818466764e-06 6.9414396891442044e-06 0.0000000000000000e+00  -4.8150065120086672e-06 8.5352255976174290e-06 0.0000000000000000e+00  -5.5422927810999357e-06 1.0433926986428620e-05 0.0000000000000000e+00  -6.3145216057049667e-06 1.2623151624046425e-05 0.0000000000000000e+00  -7.1182661170656136e-06 1.5013487145687741e-05 0.0000000000000000e+00  0.0000000000000000e+00 0.0000000000000000e+00 0.0000000000000000e+00  -2.1536676116943576e-07 2.7317185005579024e-07 0.0000000000000000e+00  -4.3811757310356735e-07 5.5718312440723345e-07 0.0000000000000000e+00  -6.7577527630525241e-07 8.6332161234708541e-07 0.0000000000000000e+00  -9.3613378720926254e-07 1.2037974497615438e-06 0.0000000000000000e+00  -1.2273508280773570e-06 1.5922423253385312e-06 0.0000000000000000e+00  -1.5579810904850741e-06 2.0442454655216053e-06 0.0000000000000000e+00  -1.9369158905732180e-06 2.5779164258750021e-06 0.0000000000000000e+00  -2.3731848710557956e-06 3.2144290017894942e-06 0.0000000000000000e+00  -2.8755661953331909e-06 3.9784281630934740e-06 0.0000000000000000e+00  -3.4519501062078867e-06 4.8980443993721890e-06 0.0000000000000000e+00  -4.1084170285478819e-06 6.0040204957713700e-06 0.0000000000000000e+00  -4.8480389741060453e-06 7.3270947208787789e-06 0.0000000000000000e+00  -5.6695011553698948e-06 8.8923884189950646e-06 0.0000000000000000e+00  -6.5657576870166250e-06 1.0709533330780786e-05 0.0000000000000000e+00  -7.5230233075707551e-06 1.2758788663342500e-05 0.0000000000000000e+00  -8.5202768423635881e-06 1.4978616503936917e-05 0.0000000000000000e+00  0.0000000000000000e+00 0.0000000000000000e+00 0.0000000000000000e+00  -2.3228560497411141e-07 2.8798694741285928e-07 0.0000000000000000e+00  -4.7291917272238606e-07 5.8714454276571838e-07 0.0000000000000000e+00  -7.3046004265372408e-07 9.0906337178010730e-07 0.0000000000000000e+00  -1.0138837796685477e-06 1.2661853989906919e-06 0.0000000000000000e+00  -1.3327545411222266e-06 1.6722429062462620e-06 0.0000000000000000e+00  -1.6973425118489078e-06 2.1427004284729143e-06 0.0000000000000000e+00  -2.1186463201012579e-06 2.6951734192990381e-06 0.0000000000000000e+00  -2.6082603660062969e-06 3.3497618939567854e-06 0.0000000000000000e+00  -3.1780030223470121e-06 4.1291760663694237e-06 0.0000000000000000e+00  -3.8391999475595325e-06 5.0584329672641790e-06 0.0000000000000000e+00  -4.6015122884976043e-06 6.1637635468371200e-06 0.0000000000000000e+00  -5.4712403818250237e-06 7.4702127532416086e-06 0.0000000000000000e+00  -6.4491596565174831e-06 8.9973401873412116e-06 0.0000000000000000e+00  -7.5281895032955145e-06 1.0752679885856259e-05 0.0000000000000000e+00  -8.6915283523258528e-06 1.2723593218427920e-05 0.0000000000000000e+00  -9.9121325058169091e-06 1.4870059884478459e-05 0.0000000000000000e+00  0.0000000000000000e+00 0.0000000000000000e+00 0.0000000000000000e+00  -2.4085702004183214e-07 2.9163005806736461e-07 0.0000000000000000e+00  -4.9081108599185727e-07 5.9433904807415588e-07 0.0000000000000000e+00  -7.5925612470870247e-07 9.1959067103098382e-07 0.0000000000000000e+00  -1.0561766344326002e-06 1.2796189820853081e-06 0.0000000000000000e+00  -1.3924254344039123e-06 1.6878138746096195e-06 0.0000000000000000e+00  -1.7799655004021597e-06 2.1590951615727818e-06 0.0000000000000000e+00  -2.2320353079235266e-06 2.7102488449015879e-06 0.0000000000000000e+00  -2.7631660002474776e-06 3.3601735920634224e-06 0.0000000000000000e+00  -3.3889336016443558e-06 4.1299465244993325e-06 0.0000000000000000e+00  -4.1252725579551876e-06 5.0425636307657604e-06 0.0000000000000000e+00  -4.9871234855972874e-06 6.1221465969884106e-06 0.0000000000000000e+00  -5.9861819489962714e-06 7.3923548322515317e-06 0.0000000000000000e+00  -7.1276463791463495e-06 8.8737427247062644e-06 0.0000000000000000e+00  -8.4062644652121255e-06 1.0579915919511743e-05 0.0000000000000000e+00  -9.8027321776065267e-06 1.2512564329759724e-05 0.0000000000000000e+00  -1.1282364932449156e-05 1.4655488143809036e-05 0.0000000000000000e+00  0.0000000000000000e+00 0.0000000000000000e+00 0.0000000000000000e+00  -2.4032955124323858e-07 2.8419009258948995e-07 0.0000000000000000e+00  -4.9020710163483988e-07 5.7898249930743985e-07 0.0000000000000000e+00  -7.5956814458170280e-07 8.9532734476906432e-07 0.0000000000000000e+00  -1.0591279597253675e-06 1.2448644988765208e-06 0.0000000000000000e+00  -1.4007857777369656e-06 1.6402663540895281e-06 0.0000000000000000e+00  -1.7980316280965621e-06 2.0955703937350988e-06 0.0000000000000000e+00  -2.2663263867808433e-06 2.6264850259519921e-06 0.0000000000000000e+00  -2.8233857460898796e-06 3.2506398983056882e-06 0.0000000000000000e+00  -3.4892304392535546e-06 3.9877369068247024e-06 0.0000000000000000e+00  -4.2857574542940099e-06 4.8595434686014700e-06 0.0000000000000000e+00  -5.2354406864399966e-06 5.8896617917554074e-06 0.0000000000000000e+00  -6.3586263188635488e-06 7.1030147358883243e-06 0.0000000000000000e+00  -7.6688920957159091e-06 8.5250071383301463e-06 0.0000000000000000e+00  -9.1664148400214431e-06 1.0180299159243270e-05 0.0000000000000000e+00  -1.0830711955384155e-05 1.2090896265129851e-05 0.0000000000000000e+00  -1.2616580507592062e-05 1.4272549669644614e-05 0.0000000000000000e+00  0.0000000000000000e+00 0.0000000000000000e+00 0.0000000000000000e+00  -2.3024967688292727e-07 2.6614097115565697e-07 0.0000000000000000e+00  -4.7011192263029109e-07 5.4206245480017956e-07 0.0000000000000000e+00  -7.2966971461031055e-07 8.3785519360976678e-07 0.0000000000000000e+00  -1.0199644689014824e-06 1.1642212960111656e-06 0.0000000000000000e+00  -1.3535344470271819e-06 1.5327820374870276e-06 0.0000000000000000e+00  -1.7450161150162522e-06 1.9563853611109446e-06 0.0000000000000000e+00  -2.2118082556377990e-06 2.4494100143195850e-06 0.0000000000000000e+00  -2.7747606003789159e-06 3.0280635391645309e-06 0.0000000000000000e+00  -3.4587676802274795e-06 3.7106771973609627e-06 0.0000000000000000e+00  -4.2929897646109301e-06 4.5180190042063496e-06 0.0000000000000000e+00  -5.3101416203457656e-06 5.4736859644829749e-06 0.0000000000000000e+00  -6.5438653919198817e-06 6.6047063089531789e-06 0.0000000000000000e+00  -8.0227559422295698e-06 7.9425691441177612e-06 0.0000000000000000e+00  -9.7596817618110977e-06 9.5249086639473427e-06 0.0000000000000000e+00  -1.1737043004521983e-05 1.1397651748562806e-05 0.0000000000000000e+00  -1.3894560188045444e-05 1.3615432730707325e-05 0.0000000000000000e+00  0.0000000000000000e+00 0.0000000000000000e+00 0.0000000000000000e+00  -2.1055044460385388e-07 2.3830228045849930e-07 0.0000000000000000e+00  -4.3031087933986255e-07 4.8525791705334143e-07 0.0000000000000000e+00  -6.6901965700041940e-07 7.4979100107678340e-07 0.0000000000000000e+00  -9.3750533701707926e-07 1.0413572575769304e-06 0.0000000000000000e+00  -1.2483431476303394e-06 1.3702182508302377e-06 0.0000000000000000e+00  -1.6166510348573953e-06 1.7477267732802862e-06 0.0000000000000000e+00  -2.0610761159975472e-06 2.1866319682993485e-06 0.0000000000000000e+00  -2.6050074533129091e-06 2.7014218652543323e-06 0.0000000000000000e+00  -3.2779920910585372e-06 3.3087411301717060e-06 0.0000000000000000e+00  -4.1171657958799460e-06 4.0279631075189334e-06 0.0000000000000000e+00  -5.1681148040874659e-06 4.8820749198181309e-06 0.0000000000000000e+00  -6.4837589828978669e-06 5.8991795913601774e-06 0.0000000000000000e+00  -8.1184002075984530e-06 7.1151672876215093e-06 0.0000000000000000e+00  -1.0112353786411092e-05 8.5785001317834774e-06 0.0000000000000000e+00  -1.2463128035384292e-05 1.0358611232004285e-05 0.0000000000000000e+00  -1.5089890779344757e-05 1.2559925759479143e-05 0.0000000000000000e+00  0.0000000000000000e+00 0.0000000000000000e+00 0.0000000000000000e+00  -1.8163262094896949e-07 2.0179974499397203e-07 0.0000000000000000e+00  -3.7154912894563142e-07 4.1086125360950427e-07 0.0000000000000000e+00  -5.7857558183151477e-07 6.3467348715643280e-07 0.0000000000000000e+00  -8.1267049860577074e-07 8.8117072865757872e-07 0.0000000000000000e+00  -1.0856490843354045e-06 1.1589682804923794e-06 0.0000000000000000e+00  -1.4121230597917699e-06 1.4776170459586708e-06 0.0000000000000000e+00  -1.8107734819755545e-06 1.8478917837069168e-06 0.0000000000000000e+00  -2.3061107825182120e-06 2.2821401895429970e-06 0.0000000000000000e+00  -2.9309019594029206e-06 2.7947442195091660e-06 0.0000000000000000e+00  -3.7293959878155997e-06 3.4027922818168190e-06 0.0000000000000000e+00  -4.7611706600099028e-06 4.1271533104764038e-06 0.0000000000000000e+00  -6.1043861582173295e-06 4.9943268754710172e-06 0.0000000000000000e+00  -7.8544419524575387e-06 6.0398111627563265e-06 0.0000000000000000e+00  -1.0107953040531314e-05 7.3144842584232347e-06 0.0000000000000000e+00  -1.2913115773855583e-05 8.8972353851413910e-06 0.0000000000000000e+00  -1.6171367163054681e-05 1.0923207050808141e-05 0.0000000000000000e+00  0.0000000000000000e+00 0.0000000000000000e+00 0.0000000000000000e+00  -1.4442138546499842e-07 1.5802450064909546e-07 0.0000000000000000e+00  -2.9566393882434404e-07 3.2169868122198744e-07 0.0000000000000000e+00  -4.6104440547697997e-07 4.9685023525803139e-07 0.0000000000000000e+00  -6.4892616028606714e-07 6.8965541522526099e-07 0.0000000000000000e+00  -8.6942332016436419e-07 9.0682743932464862e-07 0.0000000000000000e+00  -1.1353667556320979e-06 1.1558252847840669e-06 0.0000000000000000e+00  -1.4637087767479882e-06 1.4450976489707896e-06 0.0000000000000000e+00  -1.8776502132769467e-06 1.7843867810334959e-06 0.0000000000000000e+00  -2.4099476418864868e-06 2.1851342129426491e-06 0.0000000000000000e+00  -3.1081112452178327e-06 2.6610613588192969e-06 0.0000000000000000e+00  -4.0424555245588358e-06 3.2290574951569177e-06 0.0000000000000000e+00  -5.3177373643929627e-06 3.9106351496323658e-06 0.0000000000000000e+00  -7.0865222199957364e-06 4.7344992084008760e-06 0.0000000000000000e+00  -9.5514352739789398e-06 5.7412875469554387e-06 0.0000000000000000e+00  -1.2909789810830281e-05 6.9910497417330905e-06 0.0000000000000000e+00  -1.7133811918581226e-05 8.5596948087813788e-06 0.0000000000000000e+00  0.0000000000000000e+00 0.0000000000000000e+00 0.0000000000000000e+00  -1.0037960409537597e-07 1.0858921123289260e-07 0.0000000000000000e+00  -2.0562732949975348e-07 2.2104405790094008e-07 0.0000000000000000e+00  -3.2099296034178918e-07 3.4135303725317992e-07 0.0000000000000000e+00  -4.5253957406243500e-07 4.7374503792338107e-07 0.0000000000000000e+00  -6.0771262861153395e-07 6.2282108435895502e-07 0.0000000000000000e+00  -7.9615499581331427e-07 7.9370232067630993e-07 0.0000000000000000e+00  -1.0309591551719241e-06 9.9220460323287273e-07 0.0000000000000000e+00  -1.3307025136344875e-06 1.2250544541359031e-06 0.0000000000000000e+00  -1.7229225973749264e-06 1.5001652427393092e-06 0.0000000000000000e+00  -2.2503234459087195e-06 1.8269920344041378e-06 0.0000000000000000e+00  -2.9822971242596837e-06 2.2169708416275990e-06 0.0000000000000000e+00  -4.0368230881131585e-06 2.6840299957019672e-06 0.0000000000000000e+00  -5.6214509651998026e-06 3.2453070421032567e-06 0.0000000000000000e+00  -8.1003984326363731e-06 3.9237402870487395e-06 0.0000000000000000e+00  -1.2039699314263536e-05 4.7643909188179263e-06 0.0000000000000000e+00  -1.7787670513814679e-05 5.9358809538696013e-06 0.0000000000000000e+00  0.0000000000000000e+00 0.0000000000000000e+00 0.0000000000000000e+00  -5.1461532840947490e-08 5.5279460216413896e-08 0.0000000000000000e+00  -1.0546041801921170e-07 1.1252209118182025e-07 0.0000000000000000e+00  -1.6474241975526237e-07 1.7375387943555955e-07 0.0000000000000000e+00  -2.3250004696547550e-07 2.4112365291869320e-07 0.0000000000000000e+00  -3.1269320447292767e-07 3.1697088546221142e-07 0.0000000000000000e+00  -4.1052145707593162e-07 4.0390222193509861e-07 0.0000000000000000e+00  -5.3317666974686188e-07 5.0488148783300449e-07 0.0000000000000000e+00  -6.9112762404284809e-07 6.2333809496874146e-07 0.0000000000000000e+00  -9.0046725215778149e-07 7.6329377383182291e-07 0.0000000000000000e+00  -1.1875338733724669e-06 9.2948315509428011e-07 0.0000000000000000e+00  -1.5988211492274677e-06 1.1273510060494175e-06 0.0000000000000000e+00  -2.2244079666061352e-06 1.3624741748837999e-06 0.0000000000000000e+00  -3.2596119290866981e-06 1.6377273783112656e-06 0.0000000000000000e+00  -5.1859408448534239e-06 1.9418027536430334e-06 0.0000000000000000e+00  -9.3581073627274790e-06 2.2038113142636243e-06 0.0000000000000000e+00  -2.0056961847847028e-05 2.1111880614561209e-06 0.0000000000000000e+00  0.0000000000000000e+00 0.0000000000000000e+00 0.0000000000000000e+00  0.0000000000000000e+00 0.0000000000000000e+00 0.0000000000000000e+00  0.0000000000000000e+00 0.0000000000000000e+00 0.0000000000000000e+00  0.0000000000000000e+00 0.0000000000000000e+00 0.0000000000000000e+00  0.0000000000000000e+00 0.0000000000000000e+00 0.0000000000000000e+00  0.0000000000000000e+00 0.0000000000000000e+00 0.0000000000000000e+00  0.0000000000000000e+00 0.0000000000000000e+00 0.0000000000000000e+00  0.0000000000000000e+00 0.0000000000000000e+00 0.0000000000000000e+00  0.0000000000000000e+00 0.0000000000000000e+00 0.0000