<?xml version="1.0"?>
<VTKFile type="UnstructuredGrid"  version="0.1"  >
<UnstructuredGrid>
<Piece  NumberOfPoints="289" NumberOfCells="512">
<Points>
<DataArray  type="Float64"  NumberOfComponents="3"  format="ascii">0 0 0  0.0625 0 0  0.125 0 0  0.1875 0 0  0.25 0 0  0.3125 0 0  0.375 0 0  0.4375 0 0  0.5 0 0  0.5625 0 0  0.625 0 0  0.6875 0 0  0.75 0 0  0.8125 0 0  0.875 0 0  0.9375 0 0  1 0 0  0 0.0625 0  0.0625018144985006 0.062498426722254 0  0.1250036829680742 0.06249678243503627 0  0.1875056593089038 0.06249499140350986 0  0.2500077975332247 0.06249296775415921 0  0.3125101514019377 0.06249060848855896 0  0.3750127735652592 0.06248778349111606 0  0.4375157140329169 0.06248431993783333 0  0.5000190178010402 0.06247997597486083 0  0.5625227214567328 0.0624743927207909 0  0.6250268485058011 0.06246699940125561 0  0.6875314028084216 0.06245680866452544 0  0.7500363581637581 0.06244193002565722 0  0.8125416375223229 0.06241828489422543 0  0.8750470603802838 0.06237582110641306 0  0.9375521902866982 0.06228610777870482 0  1.000055895265094 0.06205751617217131 0  0 0.125 0  0.06250357517246942 0.1249969242207535 0  0.1250072581314362 0.1249937111141227 0  0.1875111567095077 0.124990214576951 0  0.2500153792889642 0.1249862697906227 0  0.3125200342478375 0.1249816806678322 0  0.3750252284183617 0.124976202444111 0  0.437531064205407 0.1249695155983042 0  0.5000376350289213 0.1249611841056598 0  0.5625450188053237 0.1249505845407834 0  0.6250532692522138 0.1249367791175455 0  0.6875624047910899 0.1249182780059703 0  0.7500723944295447 0.1248925819288579 0  0.8125831383991198 0.1248553114380092 0  0.8750944361026668 0.1247987362461744 0  0.9376059161129986 0.1247105821530249 0  1.000116831472174 0.1245819035400553 0  0 0.1875 0  0.06250522840086933 0.1874955588069248 0  0.1250106179414332 0.1874909227140237 0  0.1875163302929531 0.1874858851406931 0  0.2500225287593497 0.1874802148202954 0  0.3125293778802093 0.1874736399064307 0  0.3750370415638512 0.1874658269504572 0  0.4375456791981802 0.1874563513100997 0  0.5000554392080204 0.1874446534315402 0  0.5625664496532869 0.1874299719315762 0  0.6250788057756218 0.1874112391874285 0  0.6875925550428863 0.1873869197780333 0  0.7501076815777407 0.1873547766186734 0  0.8126240952578204 0.1873116046654741 0  0.8751416420658595 0.1872532118334183 0  0.937660197102162 0.1871756911192836 0  1.000180094810308 0.187080587384117 0  0 0.25 0  0.06250672096989796 0.2499943880463706 0  0.1250136553496242 0.2499885352737253 0  0.1875210180975802 0.2499821875792571 0  0.2500290278366555 0.2499750630879379 0  0.3125379071427706 0.249966835142841 0  0.3750478809106733 0.2499571110987835 0  0.4375591719988058 0.2499454047649324 0  0.500071993324209 0.2499310997797849 0  0.5625865356966352 0.2499134009727814 0  0.6251029510969391 0.2498912722327653 0  0.6876213320295337 0.2498633665032955 0  0.7501416892760444 0.2498279763808301 0  0.8126639330230926 0.2497830945454325 0  0.8751878649563073 0.2497268053846815 0  0.9377131824097903 0.24965841683889 0  1.00023942111571 0.2495806001337969 0  0 0.3125 0  0.06250800067442309 0.3124934578533595 0  0.125016264866586 0.3124866422264473 0  0.1875250593216366 0.3124792659325789 0  0.2500346576952708 0.3124710134460516 0  0.3125453422457598 0.3124615244365992 0  0.3750574032375715 0.3124503745264707 0  0.4375711349610255 0.3124370524781079 0  0.5000868270939793 0.3124209336104819 0  0.5626047500930399 0.312401250949301 0  0.6251251336057914 0.3123770698545204 0  0.6876481378293583 0.3123472813587809 0  0.7501738195984164 0.3123106485814782 0  0.8127020977879866 0.3122659735034319 0  0.8752327254622811 0.3122124910033304 0  0.9377652767320848 0.3121505905288822 0  1.000299157365161 0.3120827593269715 0  0 0.375 0  0.06250901738671291 0.3749928008879384 0  0.1250183445790798 0.3749853093151848 0  0.1875282970234403 0.3749772195948277 0  0.2500392017200908 0.3749681989660503 0  0.3125514012208594 0.3749578726030844 0  0.3750652551738948 0.3749458071228024 0  0.4375811380049744 0.3749314927177002 0  0.5000994308777447 0.3749143251169291 0  0.5626205056754915 0.3748935908171306 0  0.6251446986460774 0.3748684633309248 0  0.6876722719865792 0.3748380257147825 0  0.7502033636168411 0.3748013458958474 0  0.8127379292211182 0.3747576433766912 0  0.8752756860866345 0.3747065853820556 0  0.9378160732434513 0.3746487026353249 0  1.000358241879205 0.374585762712883 0  0 0.4375 0  0.06250972471451521 0.4374924361337275 0  0.125019799392803 0.4374845740257106 0  0.1875305827654825 0.4374761032899261 0  0.2500424511844854 0.4374666888730761 0  0.312555805967274 0.4374559578842041 0  0.3750710785020696 0.4374434857222985 0  0.4375887314624362 0.4374287819517127 0  0.5001092536439277 0.4374112773757131 0  0.5626331449198675 0.4373903156318746 0  0.6251608868627171 0.4373651558753047 0  0.6876928942964763 0.4373349981230368 0  0.7502294445908096 0.4372990491400929 0  0.8127705865901376 0.4372566512185988 0  0.8753160412649431 0.4372074900645793 0  0.9378651207934184 0.437151865362731 0  1.000416705371614 0.4370909363069771 0  0 0.5 0  0.06251008232265355 0.4999923693787384 0  0.1250205456849065 0.4999844468493422 0  0.1875317835708352 0.4999759298064774 0  0.2500442143444027 0.4999664940273248 0  0.3125582930012197 0.4999557823677422 0  0.3750745214952239 0.4999433930566244 0  0.4375934559893713 0.4999288678631725 0  0.5001157080943514 0.4999116809665954 0  0.5626419352798775 0.4998912303731247 0  0.6251728132296442 0.4998668355104877 0  0.6877089805410127 0.4998377475939253 0  0.7502509455564351 0.4998031838300607 0  0.8127989498717811 0.4997624021186531 0  0.8753527987592258 0.4997148369417149 0  0.9379116996632954 0.4996603117606738 0  1.000474188673146 0.4995993125366864 0  0 0.5625 0  0.06251005890832649 0.5624925942982727 0  0.1250205173929756 0.5624849136856853 0  0.1875317913579553 0.5624766742185995 0  0.2500443294310751 0.5624675737613823 0  0.3125586299764102 0.5624572825622914 0  0.3750752583034844 0.5624454334362332 0  0.4375948629073719 0.5624316113929361 0  0.5001181879515884 0.5624153424616108 0  0.5626460763986232 0.562396081311975 0  0.6251794537304075 0.5623731971894267 0  0.6877192760110553 0.5623459582651326 0  0.750266419630503 0.5623135175061481 0  0.8128214889384724 0.5622749125491227 0  0.8753845349585156 0.5622291140966251 0  0.9379547332044166 0.5621751953077002 0  1.00053016829942 0.5621127297391965 0  0 0.625 0  0.06250963568972652 0.6249930939034798 0  0.1250196733065475 0.6249859388881729 0  0.1875305346403968 0.6249782787958097 0  0.2500426815716227 0.6249698429545191 0  0.3125566386375331 0.6249603387612008 0  0.3750730183004192 0.6249494439099107 0  0.4375925489845161 0.6249367977269394 0  0.5001161044300565 0.6249219903505415 0  0.5626447296472868 0.624904547041302 0  0.6251796523046356 0.6248839023580722 0  0.6877222568495092 0.6248593553626702 0  0.7502739809028106 0.62482999456966 0  0.8128360736114641 0.6247945882100733 0  0.875409154278854 0.6247514722071716 0  0.9379925816570134 0.624698568538381 0  1.000583876810694 0.6246338338485821 0  0 0.6875 0  0.06250881008998591 0.6874938422078762 0  0.1250180049522933 0.6874874686863095 0  0.1875279916755834 0.6874806583038156 0  0.2500392228232452 0.6874731792212204 0  0.3125522238455227 0.6874647836925011 0  0.3750676263490331 0.6874552028730521 0  0.4375862094026535 0.687444141119312 0  0.5001089505169313 0.687431268234979 0  0.5626370856494789 0.6874162057340418 0  0.6251721710525185 0.6873984980829385 0  0.687716124006978 0.6873775499831661 0  0.7502711861985197 0.6873524946167794 0  0.8128396942297224 0.6873219413278819 0  0.8754234672286926 0.6872835693407995 0  0.9380226245297532 0.6872336935824245 0  1.000634022989582 0.6871673887906695 0  0 0.75 0  0.06250759909376526 0.7499948060233323 0  0.1250155440050771 0.7499894348630748 0  0.1875242034356128 0.749983705688794 0  0.2500339932107921 0.7499774306426019 0  0.3125454064219891 0.7499704119607329 0  0.3750590525264443 0.7499624398714039 0  0.4375757103030466 0.7499532913979745 0  0.5000964011425857 0.7499427295976687 0  0.5626224903632079 0.7499305008153712 0  0.6251558226086763 0.7499163219296243 0  0.6876988856490964 0.7498998347484753 0  0.75025495643927 0.7498804688343967 0  0.8128280736060901 0.749857079086114 0  0.875422439671681 0.7498271165214153 0  0.9380404965546114 0.7497851497412383 0  1.000678986553391 0.7497217317517776 0  0 0.8125 0  0.06250604157204016 0.8124959468005309 0  0.1250123677127471 0.8124917585628004 0  0.1875192838859801 0.8124872981060521 0  0.2500271390206268 0.8124824243791174 0  0.3125363547332584 0.8124769916314831 0  0.3750474653633222 0.8124708502636906 0  0.4375611761104425 0.8124638505954869 0  0.5000784509717663 0.8124558515124841 0  0.5626006493760749 0.8124467367405557 0  0.6251297409685118 0.8124364409761148 0  0.6876686389635168 0.8124249802060939 0  0.7502216853265392 0.8124124428574871 0  0.8127952222992786 0.8123987582285583 0  0.8753977621522532 0.812382622496668 0  0.9380379932045063 0.8123579637842703 0  1.000716784691053 0.8123063271379377 0  0 0.875 0  0.06250419879326906 0.8749972223870928 0  0.1250086005735906 0.8749943539762179 0  0.1875134244030939 0.8749913029299492 0  0.2500189230668462 0.8749879757770145 0  0.3125254066391753 0.8749842778532074 0  0.3750332761600768 0.8749801158552591 0  0.4375430752512471 0.8749754046003073 0  0.5000555738006627 0.8749700823194637 0  0.5625719104691048 0.8749641437287859 0  0.6250938464974961 0.8749577107819757 0  0.6876242355851507 0.8749511825836255 0  0.7501679145777623 0.8749455394521279 0  0.8127333649899896 0.8749428646915396 0  0.8753354149612124 0.8749466473046528 0  0.9379969577228464 0.8749577902015016 0  1.000731691122417 0.8749409320447435 0  0 0.9375 0  0.06250215246090531 0.9374985885341134 0  0.1250044106871691 0.9374971315040481 0  0.1875068892153 0.9374955829722335 0  0.2500097210874281 0.9374938965480905 0  0.31251307111025 0.9374920260179347 0  0.3750171553296551 0.9374899274957613 0  0.4375222719716944 0.9374
[...]
<PointData  Vectors="f_54"> 
<DataArray  type="Float64"  Name="f_54"  NumberOfComponents="3" format="ascii">0.0000000000000000e+00 0.0000000000000000e+00 0.0000000000000000e+00  0.0000000000000000e+00 0.0000000000000000e+00 0.0000000000000000e+00  0.0000000000000000e+00 0.0000000000000000e+00 0.0000000000000000e+00  0.0000000000000000e+00 0.0000000000000000e+00 0.0000000000000000e+00  0.0000000000000000e+00 0.0000000000000000e+00 0.0000000000000000e+00  0.0000000000000000e+00 0.0000000000000000e+00 0.0000000000000000e+00  0.0000000000000000e+00 0.0000000000000000e+00 0.0000000000000000e+00  0.0000000000000000e+00 0.0000000000000000e+00 0.0000000000000000e+00  0.0000000000000000e+00 0.0000000000000000e+00 0.0000000000000000e+00  0.0000000000000000e+00 0.0000000000000000e+00 0.0000000000000000e+00  0.0000000000000000e+00 0.0000000000000000e+00 0.0000000000000000e+00  0.0000000000000000e+00 0.0000000000000000e+00 0.0000000000000000e+00  0.0000000000000000e+00 0.0000000000000000e+00 0.0000000000000000e+00  0.0000000000000000e+00 0.0000000000000000e+00 0.0000000000000000e+00  0.0000000000000000e+00 0.0000000000000000e+00 0.0000000000000000e+00  0.0000000000000000e+00 0.0000000000000000e+00 0.0000000000000000e+00  0.0000000000000000e+00 0.0000000000000000e+00 0.0000000000000000e+00  0.0000000000000000e+00 0.0000000000000000e+00 0.0000000000000000e+00  3.5677973614879155e-08 -5.1504282785120258e-08 0.0000000000000000e+00  7.2414258008353729e-08 -1.0527751529366839e-07 0.0000000000000000e+00  1.1127142123737240e-07 -1.6373766012823570e-07 0.0000000000000000e+00  1.5331401942405059e-07 -2.2961750495898734e-07 0.0000000000000000e+00  1.9960147951462424e-07 -3.0618272260194320e-07 0.0000000000000000e+00  2.5117075803289367e-07 -3.9754506815730510e-07 0.0000000000000000e+00  3.0900479183828759e-07 -5.0915329619030853e-07 0.0000000000000000e+00  3.7398208794719763e-07 -6.4862560616739801e-07 0.0000000000000000e+00  4.4680112628127207e-07 -8.2727430751714281e-07 0.0000000000000000e+00  5.2786838973921916e-07 -1.0631350087191879e-06 0.0000000000000000e+00  6.1712506447099570e-07 -1.3875515428078442e-06 0.0000000000000000e+00  7.1375241883927363e-07 -1.8610065463344521e-06 0.0000000000000000e+00  8.1562657363495222e-07 -2.6156023442620458e-06 0.0000000000000000e+00  9.1837409265270655e-07 -3.9827809771979102e-06 0.0000000000000000e+00  1.0148231291997765e-06 -6.9217847072037479e-06 0.0000000000000000e+00  1.1039465938760015e-06 -1.4607320357499472e-05 0.0000000000000000e+00  0.0000000000000000e+00 0.0000000000000000e+00 0.0000000000000000e+00  7.0297956390914570e-08 -1.0074015731062279e-07 0.0000000000000000e+00  1.4271025757766299e-07 -2.0587222283590552e-07 0.0000000000000000e+00  2.1936279379272955e-07 -3.2006436254665570e-07 0.0000000000000000e+00  3.0239206492475565e-07 -4.4856487077706657e-07 0.0000000000000000e+00  3.9393455778063588e-07 -5.9759302163132658e-07 0.0000000000000000e+00  4.9609603286331642e-07 -7.7488313142223977e-07 0.0000000000000000e+00  6.1089303258361859e-07 -9.9050303674725319e-07 0.0000000000000000e+00  7.4015828224193907e-07 -1.2581691878722944e-06 0.0000000000000000e+00  8.8540046296116143e-07 -1.5974856418470203e-06 0.0000000000000000e+00  1.0476047728345876e-06 -2.0379561680531869e-06 0.0000000000000000e+00  1.2269453098785114e-06 -2.6264789009579238e-06 0.0000000000000000e+00  1.4223227399193722e-06 -3.4416575657082027e-06 0.0000000000000000e+00  1.6304171804279256e-06 -4.6204382624498837e-06 0.0000000000000000e+00  1.8430040979423327e-06 -6.3996980990205176e-06 0.0000000000000000e+00  2.0369429239562285e-06 -9.1275847459614778e-06 0.0000000000000000e+00  2.1299109905572422e-06 -1.2873406265542936e-05 0.0000000000000000e+00  0.0000000000000000e+00 0.0000000000000000e+00 0.0000000000000000e+00  1.0280237636898102e-07 -1.4558263898563901e-07 0.0000000000000000e+00  2.0876707049102402e-07 -2.9740900105633012e-07 0.0000000000000000e+00  3.2108117447932179e-07 -4.6208954864974609e-07 0.0000000000000000e+00  4.4296400407958617e-07 -6.4699801674544724e-07 0.0000000000000000e+00  5.7766006982932730e-07 -8.6076435097599704e-07 0.0000000000000000e+00  7.2840265169224156e-07 -1.1139286780179644e-06 0.0000000000000000e+00  8.9833662371193957e-07 -1.4198655808801740e-06 0.0000000000000000e+00  1.0903890440019023e-06 -1.7961553887916542e-06 0.0000000000000000e+00  1.3070776068564336e-06 -2.2666900104621702e-06 0.0000000000000000e+00  1.5502521777294060e-06 -2.8649623846229767e-06 0.0000000000000000e+00  1.8207783474853513e-06 -3.6391460407079410e-06 0.0000000000000000e+00  2.1182150441589346e-06 -4.6593998743828817e-06 0.0000000000000000e+00  2.4407104435880734e-06 -6.0260740737145825e-06 0.0000000000000000e+00  2.7861390970013486e-06 -7.8703068835671414e-06 0.0000000000000000e+00  3.1594584314490648e-06 -1.0318337568195805e-05 0.0000000000000000e+00  3.6114831885952499e-06 -1.3370778030776285e-05 0.0000000000000000e+00  0.0000000000000000e+00 0.0000000000000000e+00 0.0000000000000000e+00  1.3214217323154933e-07 -1.8417869915427820e-07 0.0000000000000000e+00  2.6847441676520686e-07 -3.7609262058272304e-07 0.0000000000000000e+00  4.1323342358129921e-07 -5.8389265156352208e-07 0.0000000000000000e+00  5.7072859153286107e-07 -8.1658581197642817e-07 0.0000000000000000e+00  7.4534910479355787e-07 -1.0845598621535671e-06 0.0000000000000000e+00  9.4153311303448827e-07 -1.4002381250767605e-06 0.0000000000000000e+00  1.1636832747419219e-06 -1.7789331996341251e-06 0.0000000000000000e+00  1.4160122830885406e-06 -2.2399875075026698e-06 0.0000000000000000e+00  1.7023045074574000e-06 -2.8082978976978300e-06 0.0000000000000000e+00  2.0255891442761058e-06 -3.5162776006304625e-06 0.0000000000000000e+00  2.3877423463797237e-06 -4.4060878141986200e-06 0.0000000000000000e+00  2.7890801923519208e-06 -5.5312605071260401e-06 0.0000000000000000e+00  3.2280765407103139e-06 -6.9549702282010868e-06 0.0000000000000000e+00  3.7013558746299999e-06 -8.7382531035352991e-06 0.0000000000000000e+00  4.2032625299519574e-06 -1.0905983265654308e-05 0.0000000000000000e+00  4.7169304680256300e-06 -1.3380788050610957e-05 0.0000000000000000e+00  0.0000000000000000e+00 0.0000000000000000e+00 0.0000000000000000e+00  1.5728911361281207e-07 -2.1503660352822146e-07 0.0000000000000000e+00  3.1975446615115508e-07 -4.3889101278205318e-07 0.0000000000000000e+00  4.9265161802235796e-07 -6.8080841425777662e-07 0.0000000000000000e+00  6.8137320253937125e-07 -9.5090527249176968e-07 0.0000000000000000e+00  8.9148411185634546e-07 -1.2606734087415934e-06 0.0000000000000000e+00  1.1287119732377852e-06 -1.6235671672051599e-06 0.0000000000000000e+00  1.3988717050169284e-06 -2.0556988570675899e-06 0.0000000000000000e+00  1.7076996891436972e-06 -2.5766516341177146e-06 0.0000000000000000e+00  2.0605729654657100e-06 -3.2103698924841186e-06 0.0000000000000000e+00  2.4620962119873897e-06 -3.9859614593112580e-06 0.0000000000000000e+00  2.9155603104665520e-06 -4.9379583784881701e-06 0.0000000000000000e+00  3.4223167415944332e-06 -6.1049948731137416e-06 0.0000000000000000e+00  3.9811684364654738e-06 -7.5248333223789472e-06 0.0000000000000000e+00  4.5879190583678487e-06 -9.2223740057930656e-06 0.0000000000000000e+00  5.2352282766686130e-06 -1.1187123353476217e-05 0.0000000000000000e+00  5.9137106725381619e-06 -1.3341415934136781e-05 0.0000000000000000e+00  0.0000000000000000e+00 0.0000000000000000e+00 0.0000000000000000e+00  1.7725723581877031e-07 -2.3707450370750973e-07 0.0000000000000000e+00  3.6060242126407743e-07 -4.8362808473704035e-07 0.0000000000000000e+00  5.5624775415368118e-07 -7.4955135431265789e-07 0.0000000000000000e+00  7.7063415899797169e-07 -1.0455668866476659e-06 0.0000000000000000e+00  1.0105119770697504e-06 -1.3836844057978096e-06 0.0000000000000000e+00  1.2829739081909026e-06 -1.7776952280431512e-06 0.0000000000000000e+00  1.5954129537639400e-06 -2.2437003963447919e-06 0.0000000000000000e+00  1.9553696789401281e-06 -2.8006359048572597e-06 0.0000000000000000e+00  2.3702259760676881e-06 -3.4706944556703770e-06 0.0000000000000000e+00  2.8467018310092286e-06 -4.2794203865156534e-06 0.0000000000000000e+00  3.3901259678951243e-06 -5.2550389706694163e-06 0.0000000000000000e+00  4.0034914161269534e-06 -6.4262540893252441e-06 0.0000000000000000e+00  4.6863788012991130e-06 -7.8173851716019325e-06 0.0000000000000000e+00  5.4339174504053707e-06 -9.4396876342542135e-06 0.0000000000000000e+00  6.2359937837888546e-06 -1.1279030862642503e-05 0.0000000000000000e+00  7.0767198416975687e-06 -1.3284736117908591e-05 0.0000000000000000e+00  0.0000000000000000e+00 0.0000000000000000e+00 0.0000000000000000e+00  1.9113571616324731e-07 -2.4963267074770604e-07 0.0000000000000000e+00  3.8915088609009768e-07 -5.0899868655303047e-07 0.0000000000000000e+00  6.0110622162092382e-07 -7.8821021045580316e-07 0.0000000000000000e+00  8.3441050714140199e-07 -1.0981414566506233e-06 0.0000000000000000e+00  1.0969668282433763e-06 -1.4508265581884518e-06 0.0000000000000000e+00  1.3972751883555753e-06 -1.8598669319029127e-06 0.0000000000000000e+00  1.7444594328385129e-06 -2.3408287622677306e-06 0.0000000000000000e+00  2.1481702689924623e-06 -2.9115810772769705e-06 0.0000000000000000e+00  2.6182968885463406e-06 -3.5924719112280850e-06 0.0000000000000000e+00  3.1644024337637446e-06 -4.4061538661120324e-06 0.0000000000000000e+00  3.7947956359404150e-06 -5.3767460173500754e-06 0.0000000000000000e+00  4.5151852161531225e-06 -6.5278772218616011e-06 0.0000000000000000e+00  5.3269669064387394e-06 -7.8790863029747513e-06 0.0000000000000000e+00  6.2253892197777623e-06 -9.4402795090339730e-06 0.0000000000000000e+00  7.1981039424333893e-06 -1.1204828275162641e-05 0.0000000000000000e+00  8.2247852934842923e-06 -1.3143613223751613e-05 0.0000000000000000e+00  0.0000000000000000e+00 0.0000000000000000e+00 0.0000000000000000e+00  1.9813451618432214e-07 -2.5245891463406023e-07 0.0000000000000000e+00  4.0376141039254672e-07 -5.1452903329574735e-07 0.0000000000000000e+00  6.2462084267148614e-07 -7.9615950624263731e-07 0.0000000000000000e+00  8.6894351647545986e-07 -1.1079790152272376e-06 0.0000000000000000e+00  1.1456829202671266e-06 -1.4616396414929423e-06 0.0000000000000000e+00  1.4647196616263529e-06 -1.8701565928933417e-06 0.0000000000000000e+00  1.8370054969559512e-06 -2.3482245833255331e-06 0.0000000000000000e+00  2.2745894503502416e-06 -2.9124711670169159e-06 0.0000000000000000e+00  2.7904318375238854e-06 -3.5815756386468173e-06 0.0000000000000000e+00  3.3978658801804481e-06 -4.3761374509241185e-06 0.0000000000000000e+00  4.1095236935327046e-06 -5.3181241479500825e-06 0.0000000000000000e+00  4.9355401048661583e-06 -6.4296827107614460e-06 0.0000000000000000e+00  5.8809585798763046e-06 -7.7311008895188489e-06 0.0000000000000000e+00  6.9425977593565673e-06 -9.2378200547968818e-06 0.0000000000000000e+00  8.1062616571506583e-06 -1.0956654973866564e-05 0.0000000000000000e+00  9.3458841207109238e-06 -1.2881534142543836e-05 0.0000000000000000e+00  0.0000000000000000e+00 0.0000000000000000e+00 0.0000000000000000e+00  1.9764256679360534e-07 -2.4567766001585111e-07 0.0000000000000000e+00  4.0314361640488316e-07 -5.0050649198162050e-07 0.0000000000000000e+00  6.2467951382226955e-07 -7.7393206369428523e-07 0.0000000000000000e+00  8.7107097211239053e-07 -1.0759943399552175e-06 0.0000000000000000e+00  1.1521178863572222e-06 -1.4176245064357243e-06 0.0000000000000000e+00  1.4789377510553413e-06 -1.8109363214327233e-06 0.0000000000000000e+00  1.8642843176024766e-06 -2.2695011027358544e-06 0.0000000000000000e+00  2.3227908352527990e-06 -2.8085876173048878e-06 0.0000000000000000e+00  2.8710265431178277e-06 -3.4453394555274791e-06 0.0000000000000000e+00  3.5271673582621387e-06 -4.1988556232669266e-06 0.0000000000000000e+00  4.3099625838113785e-06 -5.0901394437405793e-06 0.0000000000000000e+00  5.2365641593045584e-06 -6.1418898958974313e-06 0.0000000000000000e+00  6.3187941542599495e-06 -7.3781216179017594e-06 0.0000000000000000e+00  7.5578310904595185e-06 -8.8235790073221820e-06 0.0000000000000000e+00  8.9384911874162375e-06 -1.0502769435889686e-05 0.0000000000000000e+00  1.0426328413682140e-05 -1.2438076253514694e-05 0.0000000000000000e+00  0.0000000000000000e+00 0.0000000000000000e+00 0.0000000000000000e+00  1.8929574951672326e-07 -2.2975109452282341e-07 0.0000000000000000e+00  3.8649735190525661e-07 -4.6789676191278436e-07 0.0000000000000000e+00  5.9989232689841066e-07 -7.2308222634238630e-07 0.0000000000000000e+00  8.3855695896899568e-07 -1.0044625959523166e-06 0.0000000000000000e+00  1.1127995663671412e-06 -1.3219576978412598e-06 0.0000000000000000e+00  1.4346563281183366e-06 -1.6865060108638515e-06 0.0000000000000000e+00  1.8184401512244556e-06 -2.1103170259648601e-06 0.0000000000000000e+00  2.2813121960259224e-06 -2.6071250616362053e-06 0.0000000000000000e+00  2.8437795863121546e-06 -3.1924591614621445e-06 0.0000000000000000e+00  3.5298929078645217e-06 -3.8839702675345534e-06 0.0000000000000000e+00  4.3666866674146507e-06 -4.7019061148601600e-06 0.0000000000000000e+00  5.3820581725873038e-06 -5.6698953119193816e-06 0.0000000000000000e+00  6.5999168036833466e-06 -6.8162600808763330e-06 0.0000000000000000e+00  8.0315161143749043e-06 -8.1760078352803483e-06 0.0000000000000000e+00  9.6635854155242289e-06 -9.7932211730094361e-06 0.0000000000000000e+00  1.1448950601759014e-05 -1.1722409291776985e-05 0.0000000000000000e+00  0.0000000000000000e+00 0.0000000000000000e+00 0.0000000000000000e+00  1.7304851612649439e-07 -2.0543754979889789e-07 0.0000000000000000e+00  3.5366610427038543e-07 -4.1825847229256878e-07 0.0000000000000000e+00  5.4984750095974069e-07 -6.4605343897078184e-07 0.0000000000000000e+00  7.7048177544096814e-07 -8.9683856303704515e-07 0.0000000000000000e+00  1.0258904162035123e-06 -1.1792692980097867e-06 0.0000000000000000e+00  1.3284800972026704e-06 -1.5028577046211059e-06 0.0000000000000000e+00  1.6935520925091105e-06 -1.8781992296194902e-06 0.0000000000000000e+00  2.1402983992577427e-06 -2.3172258475754868e-06 0.0000000000000000e+00  2.6929666912572865e-06 -2.8335272067636204e-06 0.0000000000000000e+00  3.3820407694044387e-06 -3.4428336612670673e-06 0.0000000000000000e+00  4.2449583002574065e-06 -4.1638551603845521e-06 0.0000000000000000e+00  5.3252063248063499e-06 -5.0198379445475613e-06 0.0000000000000000e+00  6.6674395896187815e-06 -6.0414196796559993e-06 0.0000000000000000e+00  8.3048432165147010e-06 -7.2714803458716392e-06 0.0000000000000000e+00  1.0235429818430416e-05 -8.7723288182367194e-06 0.0000000000000000e+00  1.2392869545437076e-05 -1.0634861627927512e-05 0.0000000000000000e+00  0.0000000000000000e+00 0.0000000000000000e+00 0.0000000000000000e+00  1.4923901585002361e-07 -1.7374931253367565e-07 0.0000000000000000e+00  3.0528099690770147e-07 -3.5365845684077789e-07 0.0000000000000000e+00  4.7536370397814648e-07 -5.4605153620863058e-07 0.0000000000000000e+00  6.6765149773636418e-07 -7.5759248869232791e-07 0.0000000000000000e+00  8.9182703694519550e-07 -9.9545609170687981e-07 0.0000000000000000e+00  1.1598590832132842e-06 -1.2675025297219316e-06 0.0000000000000000e+00  1.4870424379345924e-06 -1.5824618676554842e-06 0.0000000000000000e+00  1.8934364640226567e-06 -1.9501450099549008e-06 0.0000000000000000e+00  2.4058502530337792e-06 -2.3817223191098722e-06 0.0000000000000000e+00  3.0604832564386724e-06 -2.8901685610365284e-06 0.0000000000000000e+00  3.9060777894154387e-06 -3.4911037115483610e-06 0.0000000000000000e+00  5.0065828918985465e-06 -4.2045413394118658e-06 0.0000000000000000e+00  6.4400167713421388e-06 -5.0585888059199939e-06 0.0000000000000000e+00  8.2851681214984016e-06 -6.0968199852613094e-06 0.0000000000000000e+00  1.0580464148490466e-05 -7.3906320361239766e-06 0.0000000000000000e+00  1.3242287132389283e-05 -9.0532996214130798e-06 0.0000000000000000e+00  0.0000000000000000e+00 0.0000000000000000e+00 0.0000000000000000e+00  1.1863403930200381e-07 -1.3591023390599311e-07 0.0000000000000000e+00  2.4286596695993347e-07 -2.7658717162572174e-07 0.0000000000000000e+00  3.7868990398561053e-07 -4.2691920216455577e-07 0.0000000000000000e+00  5.3295452737789732e-07 -5.9204782892552947e-07 0.0000000000000000e+00  7.1393686973255123e-07 -7.7749360571549462e-07 0.0000000000000000e+00  9.3212930177468620e-07 -9.8928180514697203e-07 0.0000000000000000e+00  1.2013837431330602e-06 -1.2340681986488639e-06 0.0000000000000000e+00  1.5406447149901698e-06 -1.5192669190276759e-06 0.0000000000000000e+00  1.9766458693997370e-06 -1.8531882353910763e-06 0.0000000000000000e+00  2.5481534924204738e-06 -2.2452163423500507e-06 0.0000000000000000e+00  3.3125510041301805e-06 -2.7061409001276359e-06 0.0000000000000000e+00  4.3553759115075695e-06 -3.2490530190286969e-06 0.0000000000000000e+00  5.8012730392600679e-06 -3.8921680790742870e-06 0.0000000000000000e+00  7.8156943088806530e-06 -4.6674054548679361e-06 0.0000000000000000e+00  1.0559028160536294e-05 -5.6412241324061101e-06 0.0000000000000000e+00  1.4009464817920147e-05 -6.9269919315302007e-06 0.0000000000000000e+00  0.0000000000000000e+00 0.0000000000000000e+00 0.0000000000000000e+00  8.2438538358601476e-08 -9.3312947933601557e-08 0.0000000000000000e+00  1.6886973987366788e-07 -1.8987303167879820e-07 0.0000000000000000e+00  2.6359079004210966e-07 -2.9300737065479886e-07 0.0000000000000000e+00  3.7156174183146770e-07 -4.0620986969957821e-07 0.0000000000000000e+00  4.9886829847526742e-07 -5.3322226648052403e-07 0.0000000000000000e+00  6.5338423434705380e-07 -6.7811069601145894e-07 0.0000000000000000e+00  8.4578876292301341e-07 -8.4533106354198727e-07 0.0000000000000000e+00  1.0912202785644377e-06 -1.0397663727936601e-06 0.0000000000000000e+00  1.4121018808665622e-06 -1.2666941773149478e-06 0.0000000000000000e+00  1.8431947166746375e-06 -1.5315845180556603e-06 0.0000000000000000e+00  2.4410011724121320e-06 -1.8395132975424261e-06 0.0000000000000000e+00  3.3016970991257965e-06 -2.1938458284871416e-06 0.0000000000000000e+00  4.5948032105716778e-06 -2.5943476562293921e-06 0.0000000000000000e+00  6.6181615242248434e-06 -3.0404201512547664e-06 0.0000000000000000e+00  9.8308992771425938e-06 -3.5809938651047269e-06 0.0000000000000000e+00  1.4481311838299392e-05 -4.6504893561216607e-06 0.0000000000000000e+00  0.0000000000000000e+00 0.0000000000000000e+00 0.0000000000000000e+00  4.2256821315663237e-08 -4.7475797784472542e-08 0.0000000000000000e+00  8.6593649727398330e-08 -9.6595723567552310e-08 0.0000000000000000e+00  1.3525653265014662e-07 -1.4904341492046717e-07 0.0000000000000000e+00  1.9085509894880825e-07 -2.0658492525295552e-07 0.0000000000000000e+00  2.5662284002700374e-07 -2.7110773367761871e-07 0.0000000000000000e+00  3.3680012909752366e-07 -3.4465511603387924e-07 0.0000000000000000e+00  4.3724420263551152e-07 -4.2944827448537816e-07 0.0000000000000000e+00  5.6646992950528445e-07 -5.2787545780167335e-07 0.0000000000000000e+00  7.3755186998350439e-07 -6.4238953372682703e-07 0.0000000000000000e+00  9.7187274006497608e-07 -7.7514252572556376e-07 0.0000000000000000e+00  1.3071795019521377e-06 -9.2682907027560214e-07 0.0000000000000000e+00  1.8167113677765900e-06 -1.0930103762166076e-06 0.0000000000000000e+00  2.6599331201187608e-06 -1.2518581329859684e-06 0.0000000000000000e+00  4.2336715622935331e-06 -1.3204957394385013e-06 0.0000000000000000e+00  7.6771951361400714e-06 -9.8770098833172613e-07 0.0000000000000000e+00  1.6759443674313143e-05 9.7813089053061112e-07 0.0000000000000000e+00  0.0000000000000000e+00 0.0000000000000000e+00 0.0000000000000000e+00  0.0000000000000000e+00 0.0000000000000000e+00 0.0000000000000000e+00  0.0000000000000000e+00 0.0000000000000000e+00 0.0000000000000000e+00  0.0000000000000000e+00 0.0000000000000000e+00 0.0000000000000000e+00  0.0000000000000000e+00 0.0000000000000000e+00 0.0000000000000000e+00  0.0000000000000000e+00 0.0000000000000000e+00 0.0000000000000000e+00  0.0000000000000000e+00 0.0000000000000000e+00 0.0000000000000000e+00  0.0000000000000000e+00 0.0000000000000000e+00 0.0000000000000000e+00  0.0000000000000000e+00 0.0000000000000000e+00 0.00000