<?xml version="1.0"?>
<VTKFile type="UnstructuredGrid"  version="0.1"  >
<UnstructuredGrid>
<Piece  NumberOfPoints="289" NumberOfCells="512">
<Points>
<DataArray  type="Float64"  NumberOfComponents="3"  format="ascii">0 0 0  0.0625 0 0  0.125 0 0  0.1875 0 0  0.25 0 0  0.3125 0 0  0.375 0 0  0.4375 0 0  0.5 0 0  0.5625 0 0  0.625 0 0  0.6875 0 0  0.75 0 0  0.8125 0 0  0.875 0 0  0.9375 0 0  1 0 0  0 0.0625 0  0.06249847603856878 0.06250129077278109 0  0.1249969070389414 0.06250263765209405 0  0.1874952478132988 0.06250410024612606 0  0.2499934531325368 0.06250574568857384 0  0.3124914780457468 0.0625076538290887 0  0.3749892786171248 0.06250992467853678 0  0.4374868132179935 0.06251269007722024 0  0.4999840444952618 0.06251613348692041 0  0.5624809421058623 0.06252052621262319 0  0.6249774862791125 0.06252629908362535 0  0.6874736723463631 0.06253419684328218 0  0.7499695169525797 0.06254564337651677 0  0.812465069231505 0.06256369903747565 0  0.8749604407058852 0.06259585387303469 0  0.9374559108679316 0.06266307517702799 0  0.9999523514420408 0.06283201077256612 0  0 0.125 0  0.06249699711520119 0.1250025253579859 0  0.1249939042326123 0.1250051594038008 0  0.1874906309263378 0.1250080173212598 0  0.2499870864116766 0.1250112281640271 0  0.312483180043143 0.1250149441525981 0  0.3749788226515878 0.1250193535896373 0  0.4374739290090763 0.1250247002836962 0  0.499968421680312 0.1250313148062245 0  0.5624622364368603 0.1250396678653657 0  0.6249553292555353 0.1250504663402438 0  0.6874476846875295 0.1250648337709501 0  0.7499393250501769 0.1250846592083477 0  0.812430319141512 0.1251132671799797 0  0.8749207856056778 0.1251565814665749 0  0.9374108653121388 0.1252242832832683 0  0.999900520785031 0.1253251754895392 0  0 0.1875 0  0.06249560824666743 0.187503651179706 0  0.1249910818374102 0.1875074571019443 0  0.1874862851538766 0.1875115811509005 0  0.2499810813514495 0.1875162049803862 0  0.3124753327475936 0.1875215402340517 0  0.374968902471998 0.1875278440348946 0  0.4374616578485141 0.1875354408306724 0  0.4999534759586921 0.1875447548189986 0  0.5624442517236515 0.1875563599106899 0  0.6249339085669491 0.1875710583022364 0  0.6874224111939273 0.1875900031717135 0  0.7499097790890532 0.1876148785738385 0  0.8123960976163586 0.1876481102722436 0  0.8748815200696711 0.1876929033253233 0  0.9373662467307287 0.1877523116983567 0  0.9998504608601309 0.1878251844429533 0  0 0.25 0  0.06249435413209087 0.2500046221852179 0  0.1249885297460769 0.2500094364913038 0  0.187482346450593 0.2500146448778796 0  0.2499756209468646 0.2500204698564908 0  0.3124681668607222 0.250027166973679 0  0.3749597962375781 0.2500350402835394 0  0.437450323395159 0.25004446238538 0  0.4999395718685961 0.2500559010525668 0  0.5624273851072219 0.2500699547134536 0  0.6249136412810979 0.2500873980672816 0  0.6873982718884792 0.250109233997814 0  0.7498812826955074 0.2501367310553928 0  0.8123627739022475 0.2501713800777904 0  0.8748429549114087 0.2502146017691131 0  0.9373221504372181 0.250266883798737 0  0.9998008091786638 0.2503260996585199 0  0 0.3125 0  0.06249327865249414 0.3125054009948985 0  0.1249863366130326 0.3125110216150533 0  0.1874789499259427 0.312517091686225 0  0.2499708890004661 0.3125238620731473 0  0.3124619172717798 0.3125316167236508 0  0.3749517918480417 0.3125406865453854 0  0.4374402671031847 0.3125514656066858 0  0.4999271023507526 0.3125644297081369 0  0.5624120748074815 0.3125801561079728 0  0.6248949988652058 0.3125993400556731 0  0.6873757520076982 0.3126227967546097 0  0.7498543063004562 0.3126514230926938 0  0.8123307622121309 0.3126860686459199 0  0.8748053792365527 0.3127272350706656 0  0.9372785974652342 0.3127745276068121 0  0.9997510498138314 0.3128259485141862 0  0 0.375 0  0.06249242397508406 0.3750059601004899 0  0.1249845881689643 0.3750121570980873 0  0.1874762276018591 0.3750188378472794 0  0.2499670677239384 0.3750262695011057 0  0.3124568211285151 0.3750347505044611 0  0.3749451863935671 0.3750446223811109 0  0.437431850283357 0.3750562820500724 0  0.4999164949490453 0.375070193559821 0  0.5623988121501872 0.3750868964180861 0  0.6248785266668331 0.3751070044619437 0  0.6873554306055369 0.3751311836188915 0  0.7498294286719425 0.3751600885408592 0  0.8123005911315542 0.3751942290741885 0  0.8747692060279144 0.375233737749578 0  0.9372358163645067 0.3752780450487559 0  0.9997012232603979 0.3753255827341868 0  0 0.4375 0  0.06249182915685226 0.4375062822246269 0  0.1249833644925455 0.4375128086349532 0  0.1874743045132388 0.4375198327682032 0  0.2499643329901312 0.4375276270522391 0  0.3124531128282779 0.4375364926156411 0  0.3749402818729627 0.4375467692475726 0  0.4374254520854233 0.4375588449409323 0  0.499908214255276 0.4375731636155277 0  0.5623881513201121 0.437590228121862 0  0.6248648642256764 0.4376105931316168 0  0.6873380145549306 0.437634838782429 0  0.7498073868509005 0.4376635113536335 0  0.8122729691004643 0.4376970141051328 0  0.8747350407476805 0.4377354360089671 0  0.9371942443574743 0.4377783299009322 0  0.9996516054042565 0.4378245041061473 0  0 0.5 0  0.06249152818326999 0.5000063600724982 0  0.1249827360790499 0.5000129622499038 0  0.1874732928289373 0.5000200572003757 0  0.2499628466485198 0.5000279127966921 0  0.3124510149419107 0.500036822865469 0  0.3749373756432249 0.5000471158847226 0  0.4374214612033079 0.5000591631567786 0  0.4999027577507593 0.5000733854232899 0  0.5623807135869258 0.5000902559485361 0  0.6248547632785819 0.5001102965889581 0  0.6873243756943997 0.5001340610917122 0  0.7497891349052412 0.5001620967415651 0  0.8122488587870209 0.5001948718753886 0  0.87470374664007 0.5002326542399362 0  0.9371545207982607 0.5002753276420945 0  0.9996024960390602 0.5003221501089871 0  0 0.5625 0  0.06249154745076656 0.5625061957187514 0  0.1249827586834169 0.5625126228890451 0  0.1874732838513612 0.5625195206473599 0  0.2499627454904749 0.5625271435424318 0  0.3124507241536844 0.5625357693755481 0  0.3749367438710528 0.562545707106927 0  0.4374202584226436 0.5625573046906818 0  0.4999006407962211 0.5625709565572106 0  0.5623771806062196 0.5625871102652837 0  0.6248490980891857 0.5626062715243932 0  0.6873155886438088 0.5626290060552426 0  0.7497759174766578 0.5626559347192704 0  0.8122295849970053 0.5626877127393143 0  0.8746765690367051 0.5627249701714432 0  0.9371176025601266 0.5627681636958012 0  0.9995543591283791 0.5628172538895453 0  0 0.625 0  0.06249190281430599 0.6250057998112646 0  0.124983467141342 0.6250118127341578 0  0.1874743380851899 0.6250182586170373 0  0.2499641268553043 0.6250253708243851 0  0.3124523916807045 0.6250334031994242 0  0.3749386164026131 0.6250426373144469 0  0.4374221866651525 0.6250533902468365 0  0.4999023649013674 0.625066023405643 0  0.5623782680755897 0.6250809535536117 0  0.6248488576361171 0.6250986683199299 0  0.6873129610263597 0.6251197501989125 0  0.7497693594602292 0.6251449143370079 0  0.8122169940548675 0.6251750622599802 0  0.8746553440233684 0.6252113342951006 0  0.9370849683043272 0.625255082270085 0  0.9995079990872592 0.6253075465589851 0  0 0.6875 0  0.06249259647298547 0.6875051906855121 0  0.1249848686931415 0.6875105694102066 0  0.1874764740845354 0.6875163299197142 0  0.2499670316003658 0.6875226774113864 0  0.3124560985347228 0.6875298344927867 0  0.3749431423281221 0.6875380475349249 0  0.4374275054810511 0.6875475938608142 0  0.499908362114507 0.6875587907671575 0  0.5623846665983364 0.6875720086161263 0  0.6248551001446275 0.6875876928358096 0  0.6873180346345663 0.6876064047374018 0  0.749771561494101 0.6876288997590041 0  0.8122136849313457 0.6876562728149166 0  0.8746428448673506 0.6876902008180252 0  0.9370589344626942 0.687733251968918 0  0.9994646446348793 0.687788983443781 0  0 0.75 0  0.06249361413928946 0.7500043934108565 0  0.1249869367235476 0.7500089440893476 0  0.1874796574770921 0.7500138138944503 0  0.2499714262649516 0.7500191738771784 0  0.312461827614455 0.7500252090279061 0  0.3749503476168443 0.7500321232880932 0  0.4374363290231837 0.7500401451483011 0  0.4999189089610269 0.75004953462035 0  0.5623969325649245 0.7500605935479711 0  0.6248688369807767 0.7500736841639534 0  0.6873325097781974 0.7500892680670114 0  0.7497851597553988 0.7501079951289742 0  0.812223332102027 0.7501309101131856 0  0.8746434113363499 0.7501599149604303 0  0.9370432837490204 0.7501986914224198 0  0.999425795984565 0.7502540773715102 0  0 0.8125 0  0.06249492308862706 0.8125034387573993 0  0.1249896062012842 0.8125069994270876 0  0.1874837923073492 0.8125108073415884 0  0.2499771876367133 0.8125149946371164 0  0.3124694370121512 0.8125197036459271 0  0.3749600900259198 0.812525090240206 0  0.4374485518821822 0.8125313270451563 0  0.4999340089654619 0.812538606386858 0  0.5624153130060038 0.8125471428951434 0  0.6248907984793078 0.8125571764058309 0  0.6873579977236285 0.8125689794984966 0  0.7498132220101277 0.8125828890773652 0  0.8122510557109567 0.8125994358171664 0  0.8746641673270736 0.8126198201953583 0  0.9370449787546755 0.8126474490618053 0  0.9993929319558381 0.8126918988318899 0  0 0.875 0  0.06249647174657073 0.8750023620809876 0  0.1249927723024136 0.8750048073035844 0  0.1874887173764478 0.8750074210538074 0  0.2499840942003429 0.8750102931392768 0  0.3124786416687665 0.8750135198604319 0  0.3749720219566216 0.875017205764269 0  0.4374637770256402 0.8750214645999647 0  0.4999532581348416 0.8750264183113957 0  0.5624395058372472 0.8750321912689761 0  0.6249210361924697 0.8750388931401545 0  0.6873954442772026 0.8750465754697399 0  0.7498586486341866 0.8750551317738094 0  0.8123034623239925 0.875064100195289 0  0.8747171743485843 0.8750724384231252 0  0.9370794743328406 0.875079310981558 0  0.99937441643731 0.8750929314398653 0  0 0.9375 0  0.06249819136342587 0.9375012021550592 0  0.124996293535263 0.9375024464365183 0  0.1874942101840145 0.9375037760751688 0  0.249991829367521 0.9375052364572228 0  0.3124890123782912 0.9375068760675873 0  0.3749855773698488 0.9375087471294389 0  0.43748127337548
[...]
<PointData  Vectors="f_54"> 
<DataArray  type="Float64"  Name="f_54"  NumberOfComponents="3" format="ascii">0.0000000000000000e+00 0.0000000000000000e+00 0.0000000000000000e+00  0.0000000000000000e+00 0.0000000000000000e+00 0.0000000000000000e+00  0.0000000000000000e+00 0.0000000000000000e+00 0.0000000000000000e+00  0.0000000000000000e+00 0.0000000000000000e+00 0.0000000000000000e+00  0.0000000000000000e+00 0.0000000000000000e+00 0.0000000000000000e+00  0.0000000000000000e+00 0.0000000000000000e+00 0.0000000000000000e+00  0.0000000000000000e+00 0.0000000000000000e+00 0.0000000000000000e+00  0.0000000000000000e+00 0.0000000000000000e+00 0.0000000000000000e+00  0.0000000000000000e+00 0.0000000000000000e+00 0.0000000000000000e+00  0.0000000000000000e+00 0.0000000000000000e+00 0.0000000000000000e+00  0.0000000000000000e+00 0.0000000000000000e+00 0.0000000000000000e+00  0.0000000000000000e+00 0.0000000000000000e+00 0.0000000000000000e+00  0.0000000000000000e+00 0.0000000000000000e+00 0.0000000000000000e+00  0.0000000000000000e+00 0.0000000000000000e+00 0.0000000000000000e+00  0.0000000000000000e+00 0.0000000000000000e+00 0.0000000000000000e+00  0.0000000000000000e+00 0.0000000000000000e+00 0.0000000000000000e+00  0.0000000000000000e+00 0.0000000000000000e+00 0.0000000000000000e+00  0.0000000000000000e+00 0.0000000000000000e+00 0.0000000000000000e+00  -6.8962631545437408e-08 8.2106777256750331e-08 0.0000000000000000e+00  -1.4000530332253474e-07 1.6780771824444082e-07 0.0000000000000000e+00  -2.1522038669818796e-07 2.6092262714622757e-07 0.0000000000000000e+00  -2.9672653311234336e-07 3.6576194568935403e-07 0.0000000000000000e+00  -3.8667293601517943e-07 4.8746548646321240e-07 0.0000000000000000e+00  -4.8723415740706719e-07 6.3248853500081188e-07 0.0000000000000000e+00  -6.0059426908706226e-07 8.0936316851887316e-07 0.0000000000000000e+00  -7.2892077376892983e-07 1.0299881096089776e-06 0.0000000000000000e+00  -8.7432987302510752e-07 1.3119881824737724e-06 0.0000000000000000e+00  -1.0388418475291252e-06 1.6833919110592953e-06 0.0000000000000000e+00  -1.2243105049421173e-06 2.1927624666071638e-06 0.0000000000000000e+00  -1.4322679042072712e-06 2.9334119544614870e-06 0.0000000000000000e+00  -1.6635382336904387e-06 4.1078311066422389e-06 0.0000000000000000e+00  -1.9174143549981295e-06 6.2191586118463591e-06 0.0000000000000000e+00  -2.1909067404395516e-06 1.0703390006707209e-05 0.0000000000000000e+00  -2.4848924578662523e-06 2.2217526062199415e-05 0.0000000000000000e+00  0.0000000000000000e+00 0.0000000000000000e+00 0.0000000000000000e+00  -1.3584463108930755e-07 1.6061858659292256e-07 0.0000000000000000e+00  -2.7583384720623604e-07 3.2819588762858913e-07 0.0000000000000000e+00  -4.2414082474304235e-07 5.1010905056607646e-07 0.0000000000000000e+00  -5.8499814060869200e-07 7.1463918909805282e-07 0.0000000000000000e+00  -7.6270883226098004e-07 9.5157833210187190e-07 0.0000000000000000e+00  -9.6163730221539585e-07 1.2330734507548427e-06 0.0000000000000000e+00  -1.1861771690458904e-06 1.5748951887743502e-06 0.0000000000000000e+00  -1.4406976379401177e-06 1.9984753465757462e-06 0.0000000000000000e+00  -1.7294754941624751e-06 2.5343747408516849e-06 0.0000000000000000e+00  -2.0566224277093338e-06 3.2284969943896868e-06 0.0000000000000000e+00  -2.4260040081400890e-06 4.1537024434829572e-06 0.0000000000000000e+00  -2.8410786765582802e-06 5.4320399022186183e-06 0.0000000000000000e+00  -3.3043412071355358e-06 7.2764801720093082e-06 0.0000000000000000e+00  -3.8151858454273609e-06 1.0058326133789944e-05 0.0000000000000000e+00  -4.3615378626164587e-06 1.4342612890857360e-05 0.0000000000000000e+00  -4.8848151352422037e-06 2.0388097958041674e-05 0.0000000000000000e+00  0.0000000000000000e+00 0.0000000000000000e+00 0.0000000000000000e+00  -1.9858389080764988e-07 2.3217353685867995e-07 0.0000000000000000e+00  -4.0334276228101538e-07 4.7424518142172457e-07 0.0000000000000000e+00  -6.2050461273869058e-07 7.3666916983760446e-07 0.0000000000000000e+00  -8.5640444808838472e-07 1.0310892921003352e-06 0.0000000000000000e+00  -1.1175077763956880e-06 1.3711042601816073e-06 0.0000000000000000e+00  -1.4104005069250527e-06 1.7732817125030448e-06 0.0000000000000000e+00  -1.7417390002707232e-06 2.2585897417854704e-06 0.0000000000000000e+00  -2.1181619257112334e-06 2.8545193274122097e-06 0.0000000000000000e+00  -2.5461795600431574e-06 3.5983428858873881e-06 0.0000000000000000e+00  -3.0320773316760765e-06 4.5422053301224360e-06 0.0000000000000000e+00  -3.5818972674982869e-06 5.7609921332002620e-06 0.0000000000000000e+00  -4.2015900190903903e-06 7.3636686216454729e-06 0.0000000000000000e+00  -4.8974816135672421e-06 9.5060934095460623e-06 0.0000000000000000e+00  -5.6775020719291586e-06 1.2392099623978476e-05 0.0000000000000000e+00  -6.5557118531381709e-06 1.6216649363370643e-05 0.0000000000000000e+00  -7.5755794736395085e-06 2.0957401847732877e-05 0.0000000000000000e+00  0.0000000000000000e+00 0.0000000000000000e+00 0.0000000000000000e+00  -2.5515174034822442e-07 2.9383384323976204e-07 0.0000000000000000e+00  -5.1844857601606060e-07 5.9994059674209960e-07 0.0000000000000000e+00  -7.9812590343248272e-07 9.3122516240470766e-07 0.0000000000000000e+00  -1.1025972417586985e-06 1.3019275935302678e-06 0.0000000000000000e+00  -1.4405002363553960e-06 1.7284377966070818e-06 0.0000000000000000e+00  -1.8206918354643108e-06 2.2303103439821834e-06 0.0000000000000000e+00  -2.2521789615090605e-06 2.8315849682351954e-06 0.0000000000000000e+00  -2.7439803751812540e-06 3.5625479892272633e-06 0.0000000000000000e+00  -3.3049367465673473e-06 4.4620839432119462e-06 0.0000000000000000e+00  -3.9435272114860251e-06 5.5806975101320849e-06 0.0000000000000000e+00  -4.6678213552761421e-06 6.9839392254833530e-06 0.0000000000000000e+00  -5.4858013485183480e-06 8.7548501247113202e-06 0.0000000000000000e+00  -6.4064064939144118e-06 1.0991081004806550e-05 0.0000000000000000e+00  -7.4415901542090118e-06 1.3785920665155361e-05 0.0000000000000000e+00  -8.6082668054743181e-06 1.7172969580909339e-05 0.0000000000000000e+00  -9.9193813432128171e-06 2.1015737668412758e-05 0.0000000000000000e+00  0.0000000000000000e+00 0.0000000000000000e+00 0.0000000000000000e+00  -3.0357883386090488e-07 3.4322503895869596e-07 0.0000000000000000e+00  -6.1717453416788113e-07 7.0045687917749085e-07 0.0000000000000000e+00  -9.5094943866402497e-07 1.0863553770484303e-06 0.0000000000000000e+00  -1.3153491583286771e-06 1.5169411191645550e-06 0.0000000000000000e+00  -1.7211878809248202e-06 2.0103789643879514e-06 0.0000000000000000e+00  -2.1796625404274439e-06 2.5878878729780951e-06 0.0000000000000000e+00  -2.7022684971528601e-06 3.2748148175531835e-06 0.0000000000000000e+00  -3.3005945457436981e-06 4.1018855653679771e-06 0.0000000000000000e+00  -3.9859957014785118e-06 5.1065689597238152e-06 0.0000000000000000e+00  -4.7691940830906146e-06 6.3342963877487892e-06 0.0000000000000000e+00  -5.6599668962689543e-06 7.8388320372364368e-06 0.0000000000000000e+00  -6.6672863982815610e-06 9.6801746840842333e-06 0.0000000000000000e+00  -7.8006522916610859e-06 1.1916767476451110e-05 0.0000000000000000e+00  -9.0741015878953528e-06 1.4586765898226409e-05 0.0000000000000000e+00  -1.0516354447920090e-05 1.7672935806497654e-05 0.0000000000000000e+00  -1.2198239422120185e-05 2.1054059885321286e-05 0.0000000000000000e+00  0.0000000000000000e+00 0.0000000000000000e+00 0.0000000000000000e+00  -3.4199308378054771e-07 3.7861229681923046e-07 0.0000000000000000e+00  -6.9572155938047442e-07 7.7230417164180448e-07 0.0000000000000000e+00  -1.0731440051769719e-06 1.1967893438726003e-06 0.0000000000000000e+00  -1.4866523938587877e-06 1.6690843909416598e-06 0.0000000000000000e+00  -1.9492228666731049e-06 2.2082179385186395e-06 0.0000000000000000e+00  -2.4744762919849662e-06 2.8359975519331569e-06 0.0000000000000000e+00  -3.0766012290051407e-06 3.5778241101326334e-06 0.0000000000000000e+00  -3.7700837791431819e-06 4.4634952283293380e-06 0.0000000000000000e+00  -4.5691929520478828e-06 5.5278407239525075e-06 0.0000000000000000e+00  -5.4872069757553587e-06 6.8108450930341846e-06 0.0000000000000000e+00  -6.5354721512525063e-06 8.3565845804192425e-06 0.0000000000000000e+00  -7.7226191035810010e-06 1.0209816163616944e-05 0.0000000000000000e+00  -9.0546954683706031e-06 1.2408537986371125e-05 0.0000000000000000e+00  -1.0537666041211920e-05 1.4970931710056111e-05 0.0000000000000000e+00  -1.2184608300663296e-05 1.7877584190665201e-05 0.0000000000000000e+00  -1.4030309959898280e-05 2.1058470309926702e-05 0.0000000000000000e+00  0.0000000000000000e+00 0.0000000000000000e+00 0.0000000000000000e+00  -3.6867457068747363e-07 3.9892083085434075e-07 0.0000000000000000e+00  -7.5057339524055610e-07 8.1335381513392119e-07 0.0000000000000000e+00  -1.1592468744160726e-06 1.2594024065407482e-06 0.0000000000000000e+00  -1.6088821203135711e-06 1.7543690134183839e-06 0.0000000000000000e+00  -2.1145562301191393e-06 2.3173778512564581e-06 0.0000000000000000e+00  -2.6923906586687457e-06 2.9700090024711352e-06 0.0000000000000000e+00  -3.3595370856152381e-06 3.7369116135603985e-06 0.0000000000000000e+00  -4.1338936480250859e-06 4.6463170354438715e-06 0.0000000000000000e+00  -5.0334176484838104e-06 5.7302909571792975e-06 0.0000000000000000e+00  -6.0748857688088734e-06 7.0244325650172595e-06 0.0000000000000000e+00  -7.2719985705648165e-06 8.5665437705645299e-06 0.0000000000000000e+00  -8.6329126381315860e-06 1.0393590243334445e-05 0.0000000000000000e+00  -1.0157719847271190e-05 1.2536206611757591e-05 0.0000000000000000e+00  -1.1837107049919294e-05 1.5010414163751333e-05 0.0000000000000000e+00  -1.3653897081093696e-05 1.7807663631746037e-05 0.0000000000000000e+00  -1.5586669323952995e-05 2.0886865550058899e-05 0.0000000000000000e+00  0.0000000000000000e+00 0.0000000000000000e+00 0.0000000000000000e+00  -3.8213211247890018e-07 4.0371532793699617e-07 0.0000000000000000e+00  -7.7864688370214486e-07 8.2278081163724495e-07 0.0000000000000000e+00  -1.2043795552838523e-06 1.2730837924530498e-06 0.0000000000000000e+00  -1.6750586188439736e-06 1.7715887115540526e-06 0.0000000000000000e+00  -2.2077072726038411e-06 2.3368800793743897e-06 0.0000000000000000e+00  -2.8209612626809752e-06 2.9896956868738794e-06 0.0000000000000000e+00  -3.5352189029940628e-06 3.7534177889717438e-06 0.0000000000000000e+00  -4.3724777851698634e-06 4.6544570405067850e-06 0.0000000000000000e+00  -5.3556240680913039e-06 5.7224137496060566e-06 0.0000000000000000e+00  -6.5068300166181432e-06 6.9898318164079715e-06 0.0000000000000000e+00  -7.8446206027719090e-06 8.4912804772833212e-06 0.0000000000000000e+00  -9.3792009804613158e-06 1.0261437923636646e-05 0.0000000000000000e+00  -1.1106046956723628e-05 1.2331875112911628e-05 0.0000000000000000e+00  -1.2999022213078359e-05 1.4726433723995417e-05 0.0000000000000000e+00  -1.5007073646281792e-05 1.7455415397185756e-05 0.0000000000000000e+00  -1.7063451213272575e-05 2.0508508325685822e-05 0.0000000000000000e+00  0.0000000000000000e+00 0.0000000000000000e+00 0.0000000000000000e+00  -3.8120434694526488e-07 3.9315474475462340e-07 0.0000000000000000e+00  -7.7749560592667153e-07 8.0096031318726847e-07 0.0000000000000000e+00  -1.2045539563476817e-06 1.2385467081115870e-06 0.0000000000000000e+00  -1.6792472648988511e-06 1.7219964990758765e-06 0.0000000000000000e+00  -2.2202264273230154e-06 2.2688200640014299e-06 0.0000000000000000e+00  -2.8484909373679858e-06 2.8984201396665950e-06 0.0000000000000000e+00  -3.5878486915769361e-06 3.6325261819813223e-06 0.0000000000000000e+00  -4.4651075632146604e-06 4.4955646456668870e-06 0.0000000000000000e+00  -5.5096860336527562e-06 5.5149144017688302e-06 0.0000000000000000e+00  -6.7520877541245794e-06 6.7209812629447853e-06 0.0000000000000000e+00  -8.2203387463067170e-06 8.1470197706677589e-06 0.0000000000000000e+00  -9.9331076247731424e-06 9.8286430989346107e-06 0.0000000000000000e+00  -1.1888141681352213e-05 1.1802992744276882e-05 0.0000000000000000e+00  -1.4045787310549615e-05 1.4107557634744426e-05 0.0000000000000000e+00  -1.6311890671638070e-05 1.6778576837156865e-05 0.0000000000000000e+00  -1.8536525706131100e-05 1.9848949292222321e-05 0.0000000000000000e+00  0.0000000000000000e+00 0.0000000000000000e+00 0.0000000000000000e+00  -3.6518382808755690e-07 3.6793551044866093e-07 0.0000000000000000e+00  -7.4556690469133264e-07 7.4934616919501149e-07 0.0000000000000000e+00  -1.1570776458664300e-06 1.1581269529270908e-06 0.0000000000000000e+00  -1.6171273087724817e-06 1.6090023768805703e-06 0.0000000000000000e+00  -2.1454282187665215e-06 2.1179429037022263e-06 0.0000000000000000e+00  -2.7648831015320227e-06 2.7025802367367218e-06 0.0000000000000000e+00  -3.5025172997211568e-06 3.3826186878806586e-06 0.0000000000000000e+00  -4.3903382865300786e-06 4.1802426291559470e-06 0.0000000000000000e+00  -5.4658234454194216e-06 5.1205323810617512e-06 0.0000000000000000e+00  -6.7713740183101882e-06 6.2319318418396953e-06 0.0000000000000000e+00  -8.3514038799290041e-06 7.5468706315653500e-06 0.0000000000000000e+00  -1.0244620794410946e-05 9.1027300252627056e-06 0.0000000000000000e+00  -1.2467539460988668e-05 1.0943409474044852e-05 0.0000000000000000e+00  -1.4984106045819908e-05 1.3121650328768503e-05 0.0000000000000000e+00  -1.7658346195554587e-05 1.5701720875262625e-05 0.0000000000000000e+00  -2.0199442734710314e-05 1.8760774023554892e-05 0.0000000000000000e+00  0.0000000000000000e+00 0.0000000000000000e+00 0.0000000000000000e+00  -3.3395526191353226e-07 3.2923093601357545e-07 0.0000000000000000e+00  -6.8249693658431523e-07 6.7034676558921622e-07 0.0000000000000000e+00  -1.0610428967070320e-06 1.0355910027625201e-06 0.0000000000000000e+00  -1.4867287823174429e-06 1.4379127366542394e-06 0.0000000000000000e+00  -1.9794380990052832e-06 1.8913259411630506e-06 0.0000000000000000e+00  -2.5630435406504699e-06 2.4112781962921821e-06 0.0000000000000000e+00  -3.2669273427988426e-06 3.0150389366170662e-06 0.0000000000000000e+00  -4.1278081840417517e-06 3.7221316571278154e-06 0.0000000000000000e+00  -5.1917691771879459e-06 4.5548670469578142e-06 0.0000000000000000e+00  -6.5160244609318389e-06 5.5391013038794110e-06 0.0000000000000000e+00  -8.1691051897744502e-06 6.7054701024804631e-06 0.0000000000000000e+00  -1.0226267367945663e-05 8.0915547345384606e-06 0.0000000000000000e+00  -1.2753208261591811e-05 9.7456891573069360e-06 0.0000000000000000e+00  -1.5764890296011816e-05 1.1733181869095605e-05 0.0000000000000000e+00  -1.9138535978656963e-05 1.4144965464660466e-05 0.0000000000000000e+00  -2.2458089167079384e-05 1.7106617282003604e-05 0.0000000000000000e+00  0.0000000000000000e+00 0.0000000000000000e+00 0.0000000000000000e+00  -2.8812923472465050e-07 2.7862976441623521e-07 0.0000000000000000e+00  -5.8940651132342887e-07 5.6720230531088062e-07 0.0000000000000000e+00  -9.1784558741702143e-07 8.7595446220694301e-07 0.0000000000000000e+00  -1.2892754233060791e-06 1.2156995917068398e-06 0.0000000000000000e+00  -1.7225081459691933e-06 1.5981251059871251e-06 0.0000000000000000e+00  -2.2408644704915879e-06 2.0361043406206007e-06 0.0000000000000000e+00  -2.8742546838336801e-06 2.5440370534172461e-06 0.0000000000000000e+00  -3.6620786944025402e-06 3.1382491923451630e-06 0.0000000000000000e+00  -4.6572577734846412e-06 3.8375188186217336e-06 0.0000000000000000e+00  -5.9316357350881734e-06 4.6638745356599225e-06 0.0000000000000000e+00  -7.5824657819465128e-06 5.6439849167870499e-06 0.0000000000000000e+00  -9.7378697814554741e-06 6.8118166743422452e-06 0.0000000000000000e+00  -1.2553978364359488e-05 8.2139090009851119e-06 0.0000000000000000e+00  -1.6183924297540030e-05 9.9194792012883147e-06 0.0000000000000000e+00  -2.0673973426188112e-05 1.2037082803724970e-05 0.0000000000000000e+00  -2.5707723684917256e-05 1.4732283948950980e-05 0.0000000000000000e+00  0.0000000000000000e+00 0.0000000000000000e+00 0.0000000000000000e+00  -2.2914296752978556e-07 2.1807364813887951e-07 0.0000000000000000e+00  -4.6913667721152763e-07 4.4386106103195484e-07 0.0000000000000000e+00  -7.3163290457684685e-07 6.8530125600359939e-07 0.0000000000000000e+00  -1.0299847807994099e-06 9.5077328243301481e-07 0.0000000000000000e+00  -1.3804059810826920e-06 1.2493246885031046e-06 0.0000000000000000e+00  -1.8035818796804944e-06 1.5909120189761022e-06 0.0000000000000000e+00  -2.3270473574910331e-06 1.9866626267566856e-06 0.0000000000000000e+00  -2.9888471526579625e-06 2.4491746954789056e-06 0.0000000000000000e+00  -3.8433339400321017e-06 2.9928890100474642e-06 0.0000000000000000e+00  -4.9704901824267727e-06 3.6346081981466296e-06 0.0000000000000000e+00  -6.4908369272089736e-06 4.3943629031418065e-06 0.0000000000000000e+00  -8.5882563202806758e-06 5.2972140845899311e-06 0.0000000000000000e+00  -1.1540421373470167e-05 6.3777823694651363e-06 0.0000000000000000e+00  -1.5742725305852568e-05 7.6925249663618209e-06 0.0000000000000000e+00  -2.1666762988531238e-05 9.3499516197418435e-06 0.0000000000000000e+00  -2.9614782118784581e-05 1.1549818194228788e-05 0.0000000000000000e+00  0.0000000000000000e+00 0.0000000000000000e+00 0.0000000000000000e+00  -1.5929393333132148e-07 1.4979223702730682e-07 0.0000000000000000e+00  -3.2634666736249753e-07 3.0485041688495584e-07 0.0000000000000000e+00  -5.0953944426077486e-07 4.7059296344519579e-07 0.0000000000000000e+00  -7.1858895958209000e-07 6.5273507808292738e-07 0.0000000000000000e+00  -9.6549716040155670e-07 8.5744243338828130e-07 0.0000000000000000e+00  -1.2659329303226684e-06 1.0914907544767368e-06 0.0000000000000000e+00  -1.6413899770255305e-06 1.3624316437806759e-06 0.0000000000000000e+00  -2.1227509003922953e-06 1.6787586833371478e-06 0.0000000000000000e+00  -2.7564634548662851e-06 2.0500482758427145e-06 0.0000000000000000e+00  -3.6157175667287117e-06 2.4869984148208927e-06 0.0000000000000000e+00  -4.8214504826842799e-06 3.0011791545236774e-06 0.0000000000000000e+00  -6.5828579044270392e-06 3.6041829919429607e-06 0.0000000000000000e+00  -9.2752850109317155e-06 4.3063888345893748e-06 0.0000000000000000e+00  -1.3578066450035776e-05 5.1212804525670464e-06 0.0000000000000000e+00  -2.0633485654182096e-05 6.1184095552725834e-06 0.0000000000000000e+00  -3.1666311515999429e-05 7.7817055781547005e-06 0.0000000000000000e+00  0.0000000000000000e+00 0.0000000000000000e+00 0.0000000000000000e+00  -8.1675559505959313e-08 7.6235005264876625e-08 0.0000000000000000e+00  -1.6740030017986097e-07 1.5514034966739856e-07 0.0000000000000000e+00  -2.6156511834896678e-07 2.3946330330855951e-07 0.0000000000000000e+00  -3.6929884924863362e-07 3.3210042323216095e-07 0.0000000000000000e+00  -4.9700746170703654e-07 4.3617435053698133e-07 0.0000000000000000e+00  -6.5318114833831582e-07 5.5511181589365646e-07 0.0000000000000000e+00  -8.4970076144403775e-07 6.9271895675242836e-07 0.0000000000000000e+00  -1.1040964271131634e-06 8.5323822086361127e-07 0.0000000000000000e+00  -1.4437066986859012e-06 1.0413336507315972e-06 0.0000000000000000e+00  -1.9138685831232544e-06 1.2618327110927401e-06 0.0000000000000000e+00  -2.5953095611892630e-06 1.5186670166711611e-06 0.0000000000000000e+00  -3.6444204352946187e-06 1.8111404603006513e-06 0.0000000000000000e+00  -5.3960682823524731e-06 2.1209218586017731e-06 0.0000000000000000e+00  -8.6549236560139432e-06 2.3651318519205652e-06 0.0000000000000000e+00  -1.5609366426997590e-05 2.2188355277029235e-06 0.0000000000000000e+00  -3.2949663264129104e-05 4.1466881894329400e-07 0.0000000000000000e+00  0.0000000000000000e+00 0.0000000000000000e+00 0.0000000000000000e+00  0.0000000000000000e+00 0.0000000000000000e+00 0.0000000000000000e+00  0.0000000000000000e+00 0.0000000000000000e+00 0.0000000000000000e+00  0.0000000000000000e+00 0.0000000000000000e+00 0.0000000000000000e+00  0.0000000000000000e+00 0.0000000000000000e+00 0.0000000000000000e+00  0.0000000000000000e+00 0.0000000000000000e+00 0.0000000000000000e+00  0.0000000000000000e+00 0.0000000000000000e+00 0.0000000000000000e+00  0.0000000000000000e+00 0.0000000000000000e+00 0.0000000000000000e+00  0.0000000000000000e+00 0.0000000000000000e+00 0.0000