<?xml version="1.0"?>
<VTKFile type="UnstructuredGrid"  version="0.1"  >
<UnstructuredGrid>
<Piece  NumberOfPoints="289" NumberOfCells="512">
<Points>
<DataArray  type="Float64"  NumberOfComponents="3"  format="ascii">0 0 0  0.0625 0 0  0.125 0 0  0.1875 0 0  0.25 0 0  0.3125 0 0  0.375 0 0  0.4375 0 0  0.5 0 0  0.5625 0 0  0.625 0 0  0.6875 0 0  0.75 0 0  0.8125 0 0  0.875 0 0  0.9375 0 0  1 0 0  0 0.0625 0  0.06250177167236039 0.0624984847097449 0  0.1250035960462068 0.06249690096197867 0  0.1875055257471999 0.06249517574092175 0  0.2500076135108647 0.0624932262453015 0  0.3125099118278189 0.06249095314667505 0  0.3750124721052291 0.0624882309483731 0  0.4375153431746482 0.06248489294472808 0  0.5000185689786525 0.06248070583304831 0  0.5625221852641291 0.06247532342538135 0  0.6250262150394639 0.06246819517829902 0  0.6875306622067644 0.06245836888325883 0  0.750035501475226 0.06244402181623616 0  0.8125406581827277 0.06242122318606511 0  0.8750459567971131 0.06238029089914895 0  0.9375509694813592 0.06229386230754989 0  1.00005456934752 0.06207383369821006 0  0 0.125 0  0.06250349078937277 0.1249970376444074 0  0.1250070868287101 0.124993942901539 0  0.1875108934005762 0.1249905749181599 0  0.2500150163248973 0.124986774776441 0  0.3125195614179914 0.1249823533790742 0  0.3750246329879998 0.1249770746508616 0  0.4375303310233914 0.1249706303769199 0  0.5000367467481527 0.1249625999305018 0  0.5625439562690849 0.1249523818873551 0  0.625052012113599 0.1249390715675093 0  0.6875609324615907 0.1249212317664489 0  0.7500706875395327 0.1248964514371339 0  0.8125811812657284 0.1248605049928339 0  0.8750922219629761 0.1248059290127074 0  0.93760346249224 0.12472084557207 0  1.000114239987772 0.1245964162687335 0  0 0.1875 0  0.06250510499872436 0.1874957227250684 0  0.1250103673431423 0.1874912575743072 0  0.1875159448812814 0.1874864054024774 0  0.2500219970558208 0.1874809432347857 0  0.3125286845159259 0.187474608926023 0  0.3750361672944462 0.1874670808713271 0  0.4375446010117561 0.1874579494509166 0  0.5000541305885278 0.1874466748494616 0  0.5625648810732852 0.1874325224996503 0  0.6250769454974531 0.1874144623628209 0  0.6875903702961158 0.1873910130753279 0  0.7501051401214768 0.1873600163021575 0  0.8126211670936961 0.1873183797119317 0  0.8751382999917864 0.1872620586668798 0  0.9376564096408385 0.1871872879979836 0  1.000175779167365 0.1870956085628867 0  0 0.25 0  0.06250656234533844 0.2499945954321258 0  0.1250133330729992 0.2499889587487264 0  0.1875205220585305 0.2499828450169057 0  0.2500283427555856 0.2499759824925282 0  0.3125370124765614 0.2499680561990278 0  0.3750467507961628 0.2499586874552005 0  0.4375577752986769 0.2499474072744404 0  0.5000702938596967 0.2499336210172166 0  0.5625844927683187 0.2499165614598917 0  0.6251005204009356 0.2498952288598978 0  0.687618467056952 0.249868323449636 0  0.7501383432135573 0.2498341978500092 0  0.8126600610212249 0.2497909155507247 0  0.8751834264570376 0.2497366292589098 0  0.9377081439235072 0.2496706743224005 0  1.000233768151353 0.2495956337572 0  0 0.3125 0  0.06250781185814387 0.3124937000000985 0  0.1250158810225327 0.3124871364438188 0  0.1875244679322531 0.3124800325482386 0  0.2500338397733972 0.3124720841699524 0  0.3125442721295888 0.3124629439052419 0  0.3750560483980928 0.3124522025055839 0  0.437569455901621 0.3124393668443275 0  0.5000847774515489 0.3124238342422256 0  0.5626022770801451 0.3124048646111668 0  0.6251221789550169 0.3123815559719393 0  0.687644639398254 0.3123528380684941 0  0.7501697137429316 0.3123175172706605 0  0.8126973224943281 0.3122744377218208 0  0.8752272240554965 0.3122228618512903 0  0.9377590017962414 0.3121631666969239 0  1.000292073525184 0.3120977516711558 0  0 0.375 0  0.06250880459315801 0.374993067869427 0  0.1250179116854242 0.3749858539491807 0  0.1875276292680194 0.374978063685903 0  0.2500382766124854 0.3749693763875755 0  0.3125501881721347 0.3749594307438403 0  0.375063715088419 0.3749478088885673 0  0.4375792229245248 0.3749340191247219 0  0.5000970838119166 0.3749174784722326 0  0.5626176608046105 0.3748974983661242 0  0.6251412821362619 0.3748732809991486 0  0.6876682036932947 0.3748439410731678 0  0.7501985599418705 0.374808578611334 0  0.812732307288647 0.3747664401325821 0  0.8752691691934608 0.3747172049473184 0  0.9378085972625367 0.3746613869647036 0  1.00034976220573 0.3746006953724434 0  0 0.4375 0  0.06250949525215317 0.4374927172782787 0  0.1250193322103761 0.437485147275346 0  0.1875298611303856 0.4374769909920784 0  0.2500414494720289 0.4374679256198986 0  0.3125544890685222 0.4374575918181834 0  0.3750694011094011 0.4374455803001844 0  0.4375866373243175 0.4374314181552298 0  0.5001066749387544 0.437414556301181 0  0.5626300019805904 0.437394361274158 0  0.6251570885871079 0.4373701177062801 0  0.6876883396852647 0.4373410527066725 0  0.7502240259228511 0.4373063995035866 0  0.8127641946864672 0.4372655220913776 0  0.8753085729974186 0.4372181167371212 0  0.9378564883763103 0.4371644745565498 0  1.000406846128077 0.4371057200610831 0  0 0.5 0  0.06250984444941367 0.499992653727404 0  0.1250200609436634 0.4999850263729775 0  0.187531033674722 0.4999768265387363 0  0.2500431711257773 0.4999677419754745 0  0.3125569175444167 0.499957428666979 0  0.3750727630244209 0.4999454995081761 0  0.4375912505843332 0.4999315128304354 0  0.500112977376324 0.4999149615588495 0  0.5626385853236613 0.4998952647654443 0  0.6251687341276845 0.4998717651157137 0  0.6877040472678855 0.4998437386053239 0  0.7502450210107809 0.499810427396048 0  0.8127918910715315 0.4997711121414975 0  0.8753444668668083 0.4997252443291638 0  0.9379019734679865 0.499672654064173 0  1.000462979244423 0.4996138182344175 0  0 0.5625 0  0.0625098216170515 0.5624928710288107 0  0.125020033374822 0.5624854774578604 0  0.187531041359899 0.5624775459871988 0  0.250043283608811 0.5624687857963948 0  0.312557246718318 0.5624588794564136 0  0.3750734826480649 0.5624474734431756 0  0.4375926245778146 0.5624341680797332 0  0.5001153990979975 0.5624185066380073 0  0.5626426292723067 0.5623999631702737 0  0.6251752187543561 0.5623779285504272 0  0.6877141010948856 0.5623516947847842 0  0.7502601321041517 0.562320440658107 0  0.8128139020014267 0.5622832311493056 0  0.8753754605915418 0.5622390650104493 0  0.9379440021236887 0.5621870426003935 0  1.00051765370946 0.5621267606240846 0  0 0.625 0  0.0625094084118003 0.6249933527111918 0  0.125019209257046 0.6249864659645568 0  0.1875298143733351 0.624979093346446 0  0.2500416747409366 0.6249709745065372 0  0.3125553025165679 0.6249618280293922 0  0.3750712957052448 0.6249513439523295 0  0.4375903655368517 0.6249391753906469 0  0.5001133651316764 0.624924928013553 0  0.5626413148530052 0.6249081446767872 0  0.6251754134520282 0.6248882799991192 0  0.6877170128516862 0.6248646561562824 0  0.7502675170789053 0.6248363887984302 0  0.8128281464438669 0.6248022788986334 0  0.8753995066301972 0.6247607030225888 0  0.9379809724346648 0.6247096340996662 0  1.000570122415779 0.6246470902253474 0  0 0.6875 0  0.0625086023127288 0.6874940736400831 0  0.1250175803076352 0.6874879398736089 0  0.1875273314715251 0.6874813861268333 0  0.2500382976911105 0.6874741896000582 0  0.3125509920182644 0.6874661123114004 0  0.3750660311545193 0.6874568961529666 0  0.437584175783 0.6874462574514438 0  0.5001063803480962 0.6874338795096882 0  0.5626338516553189 0.6874193992514565 0  0.625168109288774 0.6874023790479501 0  0.6877110254597296 0.6873822450278206 0  0.7502647894262199 0.6873581572427266 0  0.8128316837996671 0.6873287608839984 0  0.875413487254348 0.6872917860011548 0  0.9380103207060638 0.6872436220365363 0  1.000619120178444 0.6871794518838945 0  0 0.75 0  0.06250741989940806 0.7499950017666089 0  0.1250151774456595 0.7499898332941261 0  0.1875236326469846 0.7499843208827482 0  0.2500331915217024 0.7499782841898536 0  0.3125443355291512 0.7499715335454462 0  0.3750576597464395 0.7499638680483972 0  0.4375739245735173 0.7499550745801775 0  0.5000941272925651 0.7499449272863569 0  0.5626196009929438 0.7499331851553315 0  0.6251521467846235 0.7499195797922671 0  0.6876941937825995 0.7499037708307844 0  0.7502489418967084 0.7498852109076378 0  0.8128203355298136 0.749862787880056 0  0.875412481454947 0.7498340050707396 0  0.9380277732067814 0.7497935192300245 0  1.000663049829607 0.7497320275382664 0  0 0.8125 0  0.06250589912258063 0.8124960999201781 0  0.1250120760901257 0.8124920701763166 0  0.1875188291664135 0.8124877790996436 0  0.2500264990532384 0.8124830914369998 0  0.3125354974234438 0.8124778676640149 0  0.3750463460102885 0.8124719649768388 0  0.4375597333696347 0.8124652412006793 0  0.5000766007345621 0.8124575635769923 0  0.5625982754086982 0.8124488251855949 0  0.6251266804495168 0.8124389712621675 0  0.687664660098687 0.8124280298772715 0  0.7502164534608666 0.8124161041141091 0  0.8127882527074972 0.8124031438934753 0  0.8753883702590215 0.8123878826934292 0  0.9380252984853222 0.8123643302748567 0  1.000699925327055 0.8123141866984989 0  0 0.875 0  0.0625040998038473 0.8749973275181533 0  0.1250083977989412 0.874994567899374 0  0.1875131078855055 0.8749916330576908 0  0.250018476890135 0.8749884334613258 0  0.3125248075760582 0.8749848786644411 0  0.3750324915237767 0.8749808799456582 0  0.4375420595253282 0.8749763571369206 0  0.5000542632837498 0.8749712539487484 0  0.5625702145297964 0.8749655709801052 0  0.6250916327705117 0.8749594361865233 0  0.6876213038997765 0.8749532540004945 0  0.7501639494031107 0.874948007608192 0  0.8127278475057917 0.8749457779181372 0  0.8753274688805329 0.8749500485536832 0  0.9379851529259449 0.8749617683233132 0  1.000714277408487 0.8749460538172344 0  0 0.9375 0  0.0625021017198244 0.9374986420234899 0  0.1250043067065493 0.9374972403364897 0  0.1875067267986196 0.9374957508997213 0  0.2500094919032196 0.9374941293136251 0  0.3125127629425345 0.9374923314916966 0  0.3750167508684112 0.9374903158485288 0  0.437521746871201 0.9374880487230114 0  0.50
[...]
<PointData  Vectors="f_54"> 
<DataArray  type="Float64"  Name="f_54"  NumberOfComponents="3" format="ascii">0.0000000000000000e+00 0.0000000000000000e+00 0.0000000000000000e+00  0.0000000000000000e+00 0.0000000000000000e+00 0.0000000000000000e+00  0.0000000000000000e+00 0.0000000000000000e+00 0.0000000000000000e+00  0.0000000000000000e+00 0.0000000000000000e+00 0.0000000000000000e+00  0.0000000000000000e+00 0.0000000000000000e+00 0.0000000000000000e+00  0.0000000000000000e+00 0.0000000000000000e+00 0.0000000000000000e+00  0.0000000000000000e+00 0.0000000000000000e+00 0.0000000000000000e+00  0.0000000000000000e+00 0.0000000000000000e+00 0.0000000000000000e+00  0.0000000000000000e+00 0.0000000000000000e+00 0.0000000000000000e+00  0.0000000000000000e+00 0.0000000000000000e+00 0.0000000000000000e+00  0.0000000000000000e+00 0.0000000000000000e+00 0.0000000000000000e+00  0.0000000000000000e+00 0.0000000000000000e+00 0.0000000000000000e+00  0.0000000000000000e+00 0.0000000000000000e+00 0.0000000000000000e+00  0.0000000000000000e+00 0.0000000000000000e+00 0.0000000000000000e+00  0.0000000000000000e+00 0.0000000000000000e+00 0.0000000000000000e+00  0.0000000000000000e+00 0.0000000000000000e+00 0.0000000000000000e+00  0.0000000000000000e+00 0.0000000000000000e+00 0.0000000000000000e+00  0.0000000000000000e+00 0.0000000000000000e+00 0.0000000000000000e+00  4.2826140222737446e-08 -5.7987490905148022e-08 0.0000000000000000e+00  8.6921867459966627e-08 -1.1852694239966035e-07 0.0000000000000000e+00  1.3356170389122421e-07 -1.8433741189870267e-07 0.0000000000000000e+00  1.8402236002488685e-07 -2.5849114229262203e-07 0.0000000000000000e+00  2.3957411882917302e-07 -3.4465811609171033e-07 0.0000000000000000e+00  3.0146003017654359e-07 -4.4745725703946656e-07 0.0000000000000000e+00  3.7085826874196538e-07 -5.7300689475118829e-07 0.0000000000000000e+00  4.4882238767582170e-07 -7.2985818747661786e-07 0.0000000000000000e+00  5.3619260360055939e-07 -9.3070459045266919e-07 0.0000000000000000e+00  6.3346633725060912e-07 -1.1957770434058384e-06 0.0000000000000000e+00  7.4060165723738853e-07 -1.5602187333884986e-06 0.0000000000000000e+00  8.5668853208322660e-07 -2.0917905789358257e-06 0.0000000000000000e+00  9.7933959524755008e-07 -2.9382918396687990e-06 0.0000000000000000e+00  1.1035831707401902e-06 -4.4697927358926545e-06 0.0000000000000000e+00  1.2208053390729594e-06 -7.7545288450652812e-06 0.0000000000000000e+00  1.3259175735971085e-06 -1.6317526038756323e-05 0.0000000000000000e+00  0.0000000000000000e+00 0.0000000000000000e+00 0.0000000000000000e+00  8.4383096648242149e-08 -1.1342365390276901e-07 0.0000000000000000e+00  1.7130272605451223e-07 -2.3178741622863707e-07 0.0000000000000000e+00  2.6330893143027726e-07 -3.6034120889932431e-07 0.0000000000000000e+00  3.6296406683556502e-07 -5.0498581832096603e-07 0.0000000000000000e+00  4.7282984615127622e-07 -6.7271124199058645e-07 0.0000000000000000e+00  5.9543036193247715e-07 -8.7220675062795128e-07 0.0000000000000000e+00  7.3318201558479600e-07 -1.1147786156987468e-06 0.0000000000000000e+00  8.8828076864082314e-07 -1.4158248420079869e-06 0.0000000000000000e+00  1.0625362387504972e-06 -1.7973465717902417e-06 0.0000000000000000e+00  1.2571386149039645e-06 -2.2924499637613369e-06 0.0000000000000000e+00  1.4723294992111510e-06 -2.9537604786094690e-06 0.0000000000000000e+00  1.7068900119448892e-06 -3.8695082760106437e-06 0.0000000000000000e+00  1.9571333913243704e-06 -5.1935548246553233e-06 0.0000000000000000e+00  2.2141396906797985e-06 -7.1927665329880929e-06 0.0000000000000000e+00  2.4536207586019895e-06 -1.0263419045100357e-05 0.0000000000000000e+00  2.5914844019033731e-06 -1.4512728678250010e-05 0.0000000000000000e+00  0.0000000000000000e+00 0.0000000000000000e+00 0.0000000000000000e+00  1.2340214497499263e-07 -1.6391814356008872e-07 0.0000000000000000e+00  2.5059829089766257e-07 -3.3486028351652714e-07 0.0000000000000000e+00  3.8541167169479850e-07 -5.2026178430658716e-07 0.0000000000000000e+00  5.3170352889627025e-07 -7.2841449027940730e-07 0.0000000000000000e+00  6.9336428345144636e-07 -9.6901959228396386e-07 0.0000000000000000e+00  8.7426940499138654e-07 -1.2539208699521857e-06 0.0000000000000000e+00  1.0781864240697549e-06 -1.5981408168401146e-06 0.0000000000000000e+00  1.3086194927000321e-06 -2.0214179213643871e-06 0.0000000000000000e+00  1.5685800017989792e-06 -2.5505680741074692e-06 0.0000000000000000e+00  1.8602781687631739e-06 -3.2231753923993032e-06 0.0000000000000000e+00  2.1847467705466150e-06 -4.0932972946462285e-06 0.0000000000000000e+00  2.5414562639113596e-06 -5.2396834840514952e-06 0.0000000000000000e+00  2.9281641242731856e-06 -6.7750464575710923e-06 0.0000000000000000e+00  3.3420740731130366e-06 -8.8468334615081629e-06 0.0000000000000000e+00  3.7874613235116898e-06 -1.1596878699974515e-05 0.0000000000000000e+00  4.3156429435366820e-06 -1.5021178769714886e-05 0.0000000000000000e+00  0.0000000000000000e+00 0.0000000000000000e+00 0.0000000000000000e+00  1.5862455951636380e-07 -2.0738575520004543e-07 0.0000000000000000e+00  3.2227662505692404e-07 -4.2347500113863696e-07 0.0000000000000000e+00  4.9603904970107411e-07 -6.5743764851123227e-07 0.0000000000000000e+00  6.8508106984954456e-07 -9.1940459023310766e-07 0.0000000000000000e+00  8.9466620921663695e-07 -1.2210561868034113e-06 0.0000000000000000e+00  1.1301145104903172e-06 -1.5763564170041024e-06 0.0000000000000000e+00  1.3967001288670019e-06 -2.0025095079695035e-06 0.0000000000000000e+00  1.6994645123282143e-06 -2.5212374317554247e-06 0.0000000000000000e+00  2.0429283165423156e-06 -3.1604871103832059e-06 0.0000000000000000e+00  2.4306960036274721e-06 -3.9566271324792005e-06 0.0000000000000000e+00  2.8649725817290172e-06 -4.9569463404173644e-06 0.0000000000000000e+00  3.3460624871165412e-06 -6.2214691790199584e-06 0.0000000000000000e+00  3.8720018676545723e-06 -7.8210052922162097e-06 0.0000000000000000e+00  4.4384992696801689e-06 -9.8238742282339371e-06 0.0000000000000000e+00  5.0384862830908430e-06 -1.2257483510549926e-05 0.0000000000000000e+00  5.6529643574292010e-06 -1.5033623403145744e-05 0.0000000000000000e+00  0.0000000000000000e+00 0.0000000000000000e+00 0.0000000000000000e+00  1.8881627922406821e-07 -2.4214673896533439e-07 0.0000000000000000e+00  3.8384405328668980e-07 -4.9421737141574387e-07 0.0000000000000000e+00  5.9138938353869081e-07 -7.6661565971383844e-07 0.0000000000000000e+00  8.1792187368725445e-07 -1.0707239007441733e-06 0.0000000000000000e+00  1.0701161710251285e-06 -1.4194686426253442e-06 0.0000000000000000e+00  1.3548394787936631e-06 -1.8279791131128189e-06 0.0000000000000000e+00  1.6790594044679714e-06 -2.3143662196686611e-06 0.0000000000000000e+00  2.0496424304985159e-06 -2.9006317437175854e-06 0.0000000000000000e+00  2.4730128948397962e-06 -3.6136618658565958e-06 0.0000000000000000e+00  2.9546507744630079e-06 -4.4861174189684826e-06 0.0000000000000000e+00  3.4984311042192121e-06 -5.5567097131701398e-06 0.0000000000000000e+00  4.1058554848179651e-06 -6.8686891822894582e-06 0.0000000000000000e+00  4.7752936584625489e-06 -8.4642183889304805e-06 0.0000000000000000e+00  5.5014067846961539e-06 -1.0370847959857401e-05 0.0000000000000000e+00  6.2749358434084541e-06 -1.2576168041742250e-05 0.0000000000000000e+00  7.0838399771491840e-06 -1.4992344184301956e-05 0.0000000000000000e+00  0.0000000000000000e+00 0.0000000000000000e+00 0.0000000000000000e+00  2.1279355489823910e-07 -2.6698148859124914e-07 0.0000000000000000e+00  4.3289365563295466e-07 -5.4463399596967994e-07 0.0000000000000000e+00  6.6775542094310496e-07 -8.4409107530138302e-07 0.0000000000000000e+00  9.2510760533393067e-07 -1.1774215252999881e-06 0.0000000000000000e+00  1.2130487247196447e-06 -1.5581407559243110e-06 0.0000000000000000e+00  1.5400854758182455e-06 -2.0017657648758523e-06 0.0000000000000000e+00  1.9150804495817187e-06 -2.5264070216545718e-06 0.0000000000000000e+00  2.3470658280411633e-06 -3.1533553035608657e-06 0.0000000000000000e+00  2.8448708809879588e-06 -3.9075489936227230e-06 0.0000000000000000e+00  3.4165098154700566e-06 -4.8176682237673560e-06 0.0000000000000000e+00  4.0682932844467610e-06 -5.9153583852109894e-06 0.0000000000000000e+00  4.8036749706638815e-06 -7.2327154865902048e-06 0.0000000000000000e+00  5.6219324711856426e-06 -8.7967558909284414e-06 0.0000000000000000e+00  6.5168931737289938e-06 -1.0619565262798115e-05 0.0000000000000000e+00  7.4759809145864340e-06 -1.2684329378759254e-05 0.0000000000000000e+00  8.4796734752236801e-06 -1.4932659560444001e-05 0.0000000000000000e+00  0.0000000000000000e+00 0.0000000000000000e+00 0.0000000000000000e+00  2.2946236204241799e-07 -2.8114455119854286e-07 0.0000000000000000e+00  4.6718242689690926e-07 -5.7324963535881134e-07 0.0000000000000000e+00  7.2163509684702601e-07 -8.8770215226686383e-07 0.0000000000000000e+00  1.0017124565264163e-06 -1.2367468225147345e-06 0.0000000000000000e+00  1.3168987518295299e-06 -1.6339339793315110e-06 0.0000000000000000e+00  1.6773926684695117e-06 -2.0945778859721541e-06 0.0000000000000000e+00  2.0941381187167190e-06 -2.6362035170828320e-06 0.0000000000000000e+00  2.5787051733230639e-06 -3.2789254679015995e-06 0.0000000000000000e+00  3.1429392770709501e-06 -4.0456422834215192e-06 0.0000000000000000e+00  3.7982756091722794e-06 -4.9618309754832271e-06 0.0000000000000000e+00  4.5546112116753882e-06 -6.0545836356551745e-06 0.0000000000000000e+00  5.4186679585075891e-06 -7.3503634937433514e-06 0.0000000000000000e+00  6.3919036703745306e-06 -8.8708727788258463e-06 0.0000000000000000e+00  7.4682675245510174e-06 -1.0626672541904183e-05 0.0000000000000000e+00  8.6324171081673004e-06 -1.2609193818795771e-05 0.0000000000000000e+00  9.8592435375868831e-06 -1.4783754105971319e-05 0.0000000000000000e+00  0.0000000000000000e+00 0.0000000000000000e+00 0.0000000000000000e+00  2.3787323987721442e-07 -2.8434866569062562e-07 0.0000000000000000e+00  4.8474124309159994e-07 -5.7952363524967259e-07 0.0000000000000000e+00  7.4989611319569552e-07 -8.9673225894418175e-07 0.0000000000000000e+00  1.0432186253950616e-06 -1.2479481496777928e-06 0.0000000000000000e+00  1.3754568030019773e-06 -1.6462992366870024e-06 0.0000000000000000e+00  1.7584708029961130e-06 -2.1064515516854163e-06 0.0000000000000000e+00  2.2054050380632089e-06 -2.6449672628660180e-06 0.0000000000000000e+00  2.7307180274039189e-06 -3.2805922540671062e-06 0.0000000000000000e+00  3.3499562161566953e-06 -4.0343923196306936e-06 0.0000000000000000e+00  4.0791019597374172e-06 -4.9296052260353030e-06 0.0000000000000000e+00  4.9332731271995045e-06 -5.9910113985799228e-06 0.0000000000000000e+00  5.9245456541320571e-06 -7.2435659873221732e-06 0.0000000000000000e+00  7.0588002496252463e-06 -8.7100228444264624e-06 0.0000000000000000e+00  8.3318924174776983e-06 -1.0407387448876746e-05 0.0000000000000000e+00  9.7261953087673802e-06 -1.2342303499236159e-05 0.0000000000000000e+00  1.1209428723126333e-05 -1.4505697731079074e-05 0.0000000000000000e+00  0.0000000000000000e+00 0.0000000000000000e+00 0.0000000000000000e+00  2.3729127499313757e-07 -2.7673053809237922e-07 0.0000000000000000e+00  4.8401815361056235e-07 -5.6377217504871919e-07 0.0000000000000000e+00  7.4999805635809573e-07 -8.7176859931612792e-07 0.0000000000000000e+00  1.0458222641242746e-06 -1.2120350124371416e-06 0.0000000000000000e+00  1.3832580921043292e-06 -1.5968941221407072e-06 0.0000000000000000e+00  1.7756554195355418e-06 -2.0400069423484299e-06 0.0000000000000000e+00  2.2383295573290454e-06 -2.5566867972058581e-06 0.0000000000000000e+00  2.7888535908033291e-06 -3.1641763964781950e-06 0.0000000000000000e+00  3.4471263165058948e-06 -3.8818582986893207e-06 0.0000000000000000e+00  4.2349760513941411e-06 -4.7313610005102528e-06 0.0000000000000000e+00  5.1749161697308343e-06 -5.7365196516494010e-06 0.0000000000000000e+00  6.2875263512977930e-06 -6.9231519589529829e-06 0.0000000000000000e+00  7.5869370457512519e-06 -8.3186001828582099e-06 0.0000000000000000e+00  9.0743669738442092e-06 -9.9509138241578438e-06 0.0000000000000000e+00  1.0731080727905351e-05 -1.1847292693333012e-05 0.0000000000000000e+00  1.2514589960042904e-05 -1.4030884888209068e-05 0.0000000000000000e+00  0.0000000000000000e+00 0.0000000000000000e+00 0.0000000000000000e+00  2.2727792621469429e-07 -2.5880771202302647e-07 0.0000000000000000e+00  4.6404950145202063e-07 -5.2707638385318546e-07 0.0000000000000000e+00  7.2026706172612615e-07 -8.1455063630880786e-07 0.0000000000000000e+00  1.0068306860905539e-06 -1.1315520180335115e-06 0.0000000000000000e+00  1.3361209651839956e-06 -1.4892681913153906e-06 0.0000000000000000e+00  1.7225951743821464e-06 -1.9000424188196966e-06 0.0000000000000000e+00  2.1834476643698932e-06 -2.3776637075138062e-06 0.0000000000000000e+00  2.7392983800884360e-06 -2.9376630114830811e-06 0.0000000000000000e+00  3.4147942817183295e-06 -3.5976354851697000e-06 0.0000000000000000e+00  4.2388526073274061e-06 -4.3776410470356336e-06 0.0000000000000000e+00  5.2439978229756583e-06 -5.3007936121756664e-06 0.0000000000000000e+00  6.4638239052947578e-06 -6.3942287701154985e-06 0.0000000000000000e+00  7.9271675972299806e-06 -7.6906885601015033e-06 0.0000000000000000e+00  9.6476486568616587e-06 -9.2308154171583995e-06 0.0000000000000000e+00  1.1609222348544775e-05 -1.1065561285120383e-05 0.0000000000000000e+00  1.3754394915559019e-05 -1.3256376765311676e-05 0.0000000000000000e+00  0.0000000000000000e+00 0.0000000000000000e+00 0.0000000000000000e+00  2.0777725710462061e-07 -2.3143220685687545e-07 0.0000000000000000e+00  4.2464465807870893e-07 -4.7118729939774864e-07 0.0000000000000000e+00  6.6020405828031099e-07 -7.2782301771648707e-07 0.0000000000000000e+00  9.2513213465678314e-07 -1.0103788378500745e-06 0.0000000000000000e+00  1.2318272582929665e-06 -1.3286188993976073e-06 0.0000000000000000e+00  1.5951945138932251e-06 -1.6932799145466917e-06 0.0000000000000000e+00  2.0336196534973904e-06 -2.1163321318631894e-06 0.0000000000000000e+00  2.5701688350851684e-06 -2.6112747091457425e-06 0.0000000000000000e+00  3.2339941600217834e-06 -3.1935174146334674e-06 0.0000000000000000e+00  4.0617637445462765e-06 -3.8809650116181562e-06 0.0000000000000000e+00  5.0985472483620802e-06 -4.6950446544640584e-06 0.0000000000000000e+00  6.3967722998182066e-06 -5.6626259472707651e-06 0.0000000000000000e+00  8.0104300552883146e-06 -6.8195561165169785e-06 0.0000000000000000e+00  9.9799743446251631e-06 -8.2166603553688506e-06 0.0000000000000000e+00  1.2303823689366053e-05 -9.9284541118750418e-06 0.0000000000000000e+00  1.4902811137463655e-05 -1.2063093224953591e-05 0.0000000000000000e+00  0.0000000000000000e+00 0.0000000000000000e+00 0.0000000000000000e+00  1.7919435719743325e-07 -1.9574327663849063e-07 0.0000000000000000e+00  3.6655941758813529e-07 -3.9843105129293168e-07 0.0000000000000000e+00  5.7078862822738847e-07 -6.1519395417208601e-07 0.0000000000000000e+00  8.0168908970149310e-07 -8.5354725160504225e-07 0.0000000000000000e+00  1.0708928379427434e-06 -1.1215847133453014e-06 0.0000000000000000e+00  1.3927800048054116e-06 -1.4281769933874333e-06 0.0000000000000000e+00  1.7857295293377275e-06 -1.7831822029705445e-06 0.0000000000000000e+00  2.2738500205836183e-06 -2.1976886881112919e-06 0.0000000000000000e+00  2.8893702640405377e-06 -2.6843399603338656e-06 0.0000000000000000e+00  3.6758240527896808e-06 -3.2578626427739522e-06 0.0000000000000000e+00  4.6918664969053744e-06 -3.9360823091040745e-06 0.0000000000000000e+00  6.0145425615349592e-06 -4.7420732411320970e-06 0.0000000000000000e+00  7.7380762764742313e-06 -5.7087939420339446e-06 0.0000000000000000e+00  9.9582167339718579e-06 -6.8885493243214261e-06 0.0000000000000000e+00  1.2723347829954126e-05 -8.3694887861700866e-06 0.0000000000000000e+00  1.5936723784116457e-05 -1.0295786488811005e-05 0.0000000000000000e+00  0.0000000000000000e+00 0.0000000000000000e+00 0.0000000000000000e+00  1.4244945954013891e-07 -1.5311964717140763e-07 0.0000000000000000e+00  2.9162262136654656e-07 -3.1161351625333577e-07 0.0000000000000000e+00  4.5471956664854750e-07 -4.8099359148870325e-07 0.0000000000000000e+00  6.3996738840293377e-07 -6.6705788235762010e-07 0.0000000000000000e+00  8.5730981457538837e-07 -8.7603253171214413e-07 0.0000000000000000e+00  1.1193530337156268e-06 -1.1147131482802226e-06 0.0000000000000000e+00  1.4427408077667644e-06 -1.3906051924706567e-06 0.0000000000000000e+00  1.8502372042726217e-06 -1.7120645081839680e-06 0.0000000000000000e+00  2.3739673766370961e-06 -2.0884450392842767e-06 0.0000000000000000e+00  3.0605189949852364e-06 -2.5302860527130111e-06 0.0000000000000000e+00  3.9788648298102839e-06 -3.0496711776303722e-06 0.0000000000000000e+00  5.2318656725481589e-06 -3.6612566219484237e-06 0.0000000000000000e+00  6.9695917814089271e-06 -4.3856649169595964e-06 0.0000000000000000e+00  9.3918932316802788e-06 -5.2601967612215021e-06 0.0000000000000000e+00  1.2694719184126058e-05 -6.3664905863912093e-06 0.0000000000000000e+00  1.6859363998219077e-05 -7.8595605610980319e-06 0.0000000000000000e+00  0.0000000000000000e+00 0.0000000000000000e+00 0.0000000000000000e+00  9.8989421753460138e-08 -1.0513106048596743e-07 0.0000000000000000e+00  2.0277464940224646e-07 -2.1392315607636890e-07 0.0000000000000000e+00  3.1651758844077156e-07 -3.3012774157989905e-07 0.0000000000000000e+00  4.4617671123694410e-07 -4.5768431136475486e-07 0.0000000000000000e+00  5.9906311717432801e-07 -6.0081123364539645e-07 0.0000000000000000e+00  7.8463630015852840e-07 -7.6409039911244810e-07 0.0000000000000000e+00  1.0157259189899114e-06 -9.5253661322031637e-07 0.0000000000000000e+00  1.3105169129240415e-06 -1.1716292846714668e-06 0.0000000000000000e+00  1.6959393084471953e-06 -1.4272513192238500e-06 0.0000000000000000e+00  2.2137269843874737e-06 -1.7254045476140228e-06 0.0000000000000000e+00  2.9316853742706185e-06 -2.0714168690756336e-06 0.0000000000000000e+00  3.9651746515918780e-06 -2.4681560641266117e-06 0.0000000000000000e+00  5.5174841978111182e-06 -2.9132265975759698e-06 0.0000000000000000e+00  7.9460806794578721e-06 -3.4012490303836385e-06 0.0000000000000000e+00  1.1804796901525060e-05 -3.9781218116114880e-06 0.0000000000000000e+00  1.7413713929989644e-05 -5.1217724909031486e-06 0.0000000000000000e+00  0.0000000000000000e+00 0.0000000000000000e+00 0.0000000000000000e+00  5.0741080905321086e-08 -5.3489376472201225e-08 0.0000000000000000e+00  1.0398061985135859e-07 -1.0883244157911681e-07 0.0000000000000000e+00  1.6241668040486089e-07 -1.6792748782928330e-07 0.0000000000000000e+00  2.2918420849578859e-07 -2.3276553464829989e-07 0.0000000000000000e+00  3.0816771542738123e-07 -3.0547376195379746e-07 0.0000000000000000e+00  4.0446124384059710e-07 -3.8835276747946140e-07 0.0000000000000000e+00  5.2510049334043456e-07 -4.8389775464109800e-07 0.0000000000000000e+00  6.8031103210773779e-07 -5.9477701070036818e-07 0.0000000000000000e+00  8.8578707941577786e-07 -7.2369353252272647e-07 0.0000000000000000e+00  1.1671762705049717e-06 -8.7291500562623978e-07 0.0000000000000000e+00  1.5697018388349694e-06 -1.0428173657617302e-06 0.0000000000000000e+00  2.1809635789712852e-06 -1.2273189127445982e-06 0.0000000000000000e+00  3.1912809373090154e-06 -1.3988279132766208e-06 0.0000000000000000e+00  5.0730556676096062e-06 -1.4551600357712009e-06 0.0000000000000000e+00  9.1788596876531720e-06 -1.0179815023325316e-06 0.0000000000000000e+00  1.9970995023745873e-05 1.3940550233814299e-06 0.0000000000000000e+00  0.0000000000000000e+00 0.0000000000000000e+00 0.0000000000000000e+00  0.0000000000000000e+00 0.0000000000000000e+00 0.0000000000000000e+00  0.0000000000000000e+00 0.0000000000000000e+00 0.0000000000000000e+00  0.0000000000000000e+00 0.0000000000000000e+00 0.0000000000000000e+00  0.0000000000000000e+00 0.0000000000000000e+00 0.0000000000000000e+00  0.0000000000000000e+00 0.0000000000000000e+00 0.0000000000000000e+00  0.0000000000000000e+00 0.0000000000000000e+00 0.0000000000000000e+00  0.0000000000000000e+00 0.0000000000000000e+00 0.0000000000000000e+00  0.0000000000000000e+00 0.0000000000000000e+00 0.00000