<?xml version="1.0"?>
<VTKFile type="UnstructuredGrid"  version="0.1"  >
<UnstructuredGrid>
<Piece  NumberOfPoints="289" NumberOfCells="512">
<Points>
<DataArray  type="Float64"  NumberOfComponents="3"  format="ascii">0 0 0  0.0625 0 0  0.125 0 0  0.1875 0 0  0.25 0 0  0.3125 0 0  0.375 0 0  0.4375 0 0  0.5 0 0  0.5625 0 0  0.625 0 0  0.6875 0 0  0.75 0 0  0.8125 0 0  0.875 0 0  0.9375 0 0  1 0 0  0 0.0625 0  0.06250096590549001 0.06249885081935435 0  0.125001960533505 0.06249765040070848 0  0.1875030125572479 0.06249634414256001 0  0.2500041507049208 0.06249487022072452 0  0.312505403560751 0.06249315459575518 0  0.3750067990967301 0.06249110385048604 0  0.4375083638348979 0.0624885939798924 0  0.5000101215313549 0.06248545141147569 0  0.5625120912481867 0.06248141829613678 0  0.6250142845919835 0.06247608366393091 0  0.6875167016155598 0.06246873410461122 0  0.7500193240757403 0.06245799599428509 0  0.8125221028039711 0.06244088010358684 0  0.8750249330262341 0.06240992823977167 0  0.9375276192933135 0.06234372359246151 0  1.000029954603334 0.06217213514292618 0  0 0.125 0  0.06250190312306841 0.1249977527589757 0  0.1250038636036674 0.1249954063891657 0  0.187505938802376 0.1249928555219856 0  0.2500081863645612 0.124989981472095 0  0.3125106639174832 0.1249866432805889 0  0.375013428235525 0.1249826652590959 0  0.4375165336770431 0.1249778182765848 0  0.5000200296928375 0.1249717897342021 0  0.5625239572035217 0.1249641325046397 0  0.6250283436026718 0.1249541734918729 0  0.6875331959130088 0.1249408427904189 0  0.750038490654049 0.1249223469253179 0  0.8125441551219067 0.1248955572959384 0  0.8750500185954487 0.1248550346103173 0  0.9375556378559776 0.1247926079643322 0  1.000059537199904 0.124705323372247 0  0 0.1875 0  0.06250278313038098 0.1874967537053445 0  0.1250056520035577 0.187493366617175 0  0.1875086926167385 0.1874896896500909 0  0.2500119918269649 0.1874855561856272 0  0.3125156371329384 0.1874807707607886 0  0.3750197156728151 0.1874750940697875 0  0.4375243121407713 0.1874682217920306 0  0.5000295053319634 0.1874597532301213 0  0.562535363084513 0.1874491432240002 0  0.6250419355463775 0.1874356271278975 0  0.6875492470662717 0.1874181050341474 0  0.7500572880023858 0.1873949753158067 0  0.8125660112442854 0.1873639479714964 0  0.8750753534510881 0.1873220356269688 0  0.9375853740394391 0.1872664078338177 0  1.000096971753274 0.1871974513036552 0  0 0.25 0  0.06250357762282482 0.2499958953188331 0  0.1250072687940632 0.2499916164596183 0  0.187511187853758 0.2499869798332559 0  0.2500154510815473 0.2499817821718406 0  0.3125201768457038 0.249975788468372 0  0.3750254847339902 0.2499687169177819 0  0.4375314932466053 0.2499602192961255 0  0.500038315619852 0.2499498547905113 0  0.5625460534223407 0.2499370551052831 0  0.6250547878122792 0.2499210797098659 0  0.6875645689040197 0.2499009651964889 0  0.7500754047636586 0.2498754890587472 0  0.8125872532378852 0.2498432110881724 0  0.8751000205028062 0.2498027468997541 0  0.9376135548254616 0.2497535537950759 0  1.000127488496009 0.2496974311717169 0  0 0.3125 0  0.06250425883198515 0.3124952109808315 0  0.1250086578649142 0.3124902237997432 0  0.1875133389830769 0.312484830603029 0  0.2500184477330378 0.3124788035069083 0  0.3125241342191729 0.3124718829835279 0  0.3750305527911122 0.312463764300686 0  0.4375378599514416 0.3124540814366496 0  0.5000462098278232 0.3124423882777954 0  0.5625557465520516 0.3124281380666914 0  0.6250665930815467 0.3124106650051318 0  0.687578836541594 0.3123891785734836 0  0.7500925112005273 0.3123627946517727 0  0.8126075816377012 0.3123306509671882 0  0.8751239298030832 0.3122921833249986 0  0.9376413496689717 0.3122476396834787 0  1.000159566088435 0.3121987883739174 0  0 0.375 0  0.06250480009279791 0.3749947246742878 0  0.1250097650061196 0.3749892368845505 0  0.1875150625280086 0.3749833148223794 0  0.2500208665698865 0.3749767175763848 0  0.3125273592828168 0.3749691746243557 0  0.3750347318773212 0.3749603743476592 0  0.4375431834091392 0.3749499516729301 0  0.5000529165692229 0.3749374756742171 0  0.5625641293266946 0.3749224394771289 0  0.6250770012543024 0.3749042577062929 0  0.6875916737427442 0.3748822817924221 0  0.7501082243687865 0.374855851111763 0  0.8126266375977437 0.3748244062789462 0  0.8751467764309853 0.3747876910438633 0  0.9376683610822071 0.3747460373028138 0  1.000190957239299 0.3747006204815674 0  0 0.4375 0  0.0625051767234174 0.4374944507030327 0  0.1250105396292447 0.4374886839736126 0  0.1875162795325562 0.4374824737800473 0  0.2500225965863417 0.4374755766662285 0  0.3125297041663211 0.4374677225689074 0  0.3750378315650718 0.4374586052996351 0  0.4375472246254236 0.4374478730799536 0  0.5000581430119732 0.4374351202114852 0  0.5625708523050241 0.4374198822118484 0  0.6250856086400992 0.4374016388310226 0  0.6876026335328469 0.4373798324526617 0  0.7501220774235213 0.4373539130518493 0  0.8126439731919641 0.4373234229905759 0  0.8751681861079822 0.4372881299616516 0  0.9376943737555316 0.4372481949439713 0  1.000221974828423 0.4372043184316139 0  0 0.5 0  0.06250536725675269 0.4999943940395585 0  0.1250109372348362 0.4999885742650685 0  0.1875169192493952 0.4999823192215521 0  0.2500235358019477 0.4999753920664626 0  0.3125310287951897 0.4999675326821205 0  0.3750396649759062 0.4999584497346783 0  0.4375497397254344 0.4999478130208574 0  0.5000615776416406 0.4999352468788792 0  0.5625755273787311 0.4999203261541055 0  0.6250919469793487 0.499902577307732 0  0.6876111747812474 0.499881488789676 0  0.7501334808542441 0.4998565365968188 0  0.8126589967619267 0.4998272322967183 0  0.8751876301096023 0.4997932000592333 0  0.937718986686931 0.4997542839196691 0  1.000252341976347 0.499710675858706 0  0 0.5625 0  0.06250535501908089 0.5624945510709232 0  0.1250109226412334 0.5624888995721885 0  0.1875169241379871 0.5624828363495703 0  0.2500235981342258 0.5624761390373817 0  0.3125312096103208 0.5624685653732415 0  0.3750400589787575 0.562459846490722 0  0.4375504905963295 0.5624496803001819 0  0.500062899204974 0.5624377251517603 0  0.5625777313043713 0.5624235940492773 0  0.6250954761189016 0.5624068497444172 0  0.6876166376456645 0.5623870011802206 0  0.7501416761705744 0.5623635023835227 0  0.8126709077352082 0.5623357571532586 0  0.8752043603401594 0.5623031388678179 0  0.9377416164361934 0.5622650463409918 0  1.000281724258729 0.5622210300229709 0  0 0.625 0  0.06250512998299802 0.6249949105582541 0  0.1250104738546582 0.624989636357883 0  0.1875162560668284 0.6249839871524553 0  0.2500227223519174 0.6249777617139641 0  0.3125301516800493 0.6249707423109155 0  0.3750388696121548 0.624962689121857 0  0.4375492630495074 0.624953334454284 0  0.5000617955466579 0.6249423763902643 0  0.5625770205809669 0.6249294709204394 0  0.6250955867043029 0.6249142205560284 0  0.6876182223814626 0.6248961557355253 0  0.750145679111928 0.6248747036628354 0  0.8126786017677711 0.6248491402205711 0  0.8752172968149613 0.6248185314125857 0  0.9377614125891529 0.6247817033222084 0  1.000309676055196 0.6247373388394615 0  0 0.6875 0  0.06250469072831696 0.6874954546947287 0  0.1250095862634171 0.687490747908808 0  0.1875149032991136 0.6874857137799737 0  0.2500208826996851 0.6874801777149596 0  0.3125278040529244 0.6874739520668968 0  0.3750360033015568 0.6874668317967552 0  0.4375458945705447 0.6874585899058617 0  0.5000579969757238 0.6874489719996136 0  0.5625729658975462 0.6874376883487127 0  0.625091624568337 0.687424399693906 0  0.6876149831799064 0.6874086889477559 0  0.7501442147434646 0.6873900042320934 0  0.8126805256270008 0.6873675512896454 0  0.875224821574808 0.6873401170139576 0  0.9377770815806072 0.6873058545110881 0  1.000335579849173 0.6872621893045098 0  0 0.75 0  0.06250404623527304 0.7499961602042727 0  0.1250082765947138 0.749992186564222 0  0.1875128874109983 0.7499879419354768 0  0.2500181001024292 0.7499832826565513 0  0.3125241772131165 0.749978055469663 0  0.3750314432043702 0.7499720946393239 0  0.437540312577246 0.7499652192342261 0  0.5000513287052802 0.7499572302381855 0  0.5625652172972818 0.7499479062873697 0  0.6250829572886119 0.7499369945032407 0  0.6876058651284348 0.7499241870124158 0  0.7501356656504605 0.7499090600033155 0  0.8126744621065732 0.7498909244255482 0  0.8752243874064831 0.7498684998727632 0  0.9377865321680603 0.7498393521642783 0  1.000358826352277 0.74979944753525 0  0 0.8125 0  0.06250321713569838 0.8124969994497766 0  0.1250065858319737 0.812493895966914 0  0.1875102688133491 0.8124905843269863 0  0.2500144519797211 0.8124869548530368 0  0.3125193599962429 0.8124828915219896 0  0.3750252776582395 0.8124782705704345 0  0.4375325809227418 0.8124729599547975 0  0.5000417838408887 0.8124668202066302 0  0.5625536114218315 0.812459707371521 0  0.62506911392263 0.8124514782763356 0  0.6875898433301268 0.8124419950094554 0  0.7501181071459738 0.8124311108181218 0  0.8126572565137277 0.8124185671088341 0  0.875211726145639 0.8124035749777704 0  0.9377858348913576 0.8123835428113544 0  1.000379243630345 0.8123518473249394 0  0 0.875 0  0.06250223600324785 0.8749979415164625 0  0.1250045801499899 0.8749958132788724 0  0.1875071491836692 0.8749935441279261 0  0.250010077855856 0.8749910602374336 0  0.3125135315283812 0.874988284175623 0  0.3750177242055716 0.8749851346378618 0  0.4375229462162217 0.8749815275375992 0  0.5000296091743724 0.8749773799100162 0  0.5625383226858259 0.8749726198034414 0  0.6250500311920171 0.87496720910722 0  0.6875662675440375 0.8749611938504118 0  0.7500896332333387 0.8749548074530402 0  0.8126246896671678 0.8749486410711903 0  0.8751793821192645 0.8749436716674012 0  0.9377657912004808 0.8749393787075965 0  1.000389798316449 0.874919101863745 0  0 0.9375 0  0.06250114632509894 0.9374989532213447 0  0.1250023490126974 0.93749787124866 0  0.187503669122643 0.9374967182322427 0  0.2500051776089498 0.9374954571071848 0  0.3125069624236468 0.9374940492610608 0  0.375009138973036 0.9374924547004795 0  0.4375118667754761 0.9374906333096
[...]
<PointData  Vectors="f_54"> 
<DataArray  type="Float64"  Name="f_54"  NumberOfComponents="3" format="ascii">0.0000000000000000e+00 0.0000000000000000e+00 0.0000000000000000e+00  0.0000000000000000e+00 0.0000000000000000e+00 0.0000000000000000e+00  0.0000000000000000e+00 0.0000000000000000e+00 0.0000000000000000e+00  0.0000000000000000e+00 0.0000000000000000e+00 0.0000000000000000e+00  0.0000000000000000e+00 0.0000000000000000e+00 0.0000000000000000e+00  0.0000000000000000e+00 0.0000000000000000e+00 0.0000000000000000e+00  0.0000000000000000e+00 0.0000000000000000e+00 0.0000000000000000e+00  0.0000000000000000e+00 0.0000000000000000e+00 0.0000000000000000e+00  0.0000000000000000e+00 0.0000000000000000e+00 0.0000000000000000e+00  0.0000000000000000e+00 0.0000000000000000e+00 0.0000000000000000e+00  0.0000000000000000e+00 0.0000000000000000e+00 0.0000000000000000e+00  0.0000000000000000e+00 0.0000000000000000e+00 0.0000000000000000e+00  0.0000000000000000e+00 0.0000000000000000e+00 0.0000000000000000e+00  0.0000000000000000e+00 0.0000000000000000e+00 0.0000000000000000e+00  0.0000000000000000e+00 0.0000000000000000e+00 0.0000000000000000e+00  0.0000000000000000e+00 0.0000000000000000e+00 0.0000000000000000e+00  0.0000000000000000e+00 0.0000000000000000e+00 0.0000000000000000e+00  0.0000000000000000e+00 0.0000000000000000e+00 0.0000000000000000e+00  -1.0625793834071715e-07 9.3092644015268408e-08 0.0000000000000000e+00  -2.1565389257719513e-07 1.9025093819059881e-07 0.0000000000000000e+00  -3.3133533340614156e-07 2.9580066256435837e-07 0.0000000000000000e+00  -4.5645198572976350e-07 4.1461888340949772e-07 0.0000000000000000e+00  -5.9413320746831332e-07 5.5251463508739415e-07 0.0000000000000000e+00  -7.4743628086716346e-07 7.1677486536215830e-07 0.0000000000000000e+00  -9.1925600447596200e-07 9.1701963186889140e-07 0.0000000000000000e+00  -1.1121869976899925e-06 1.1666518469648883e-06 0.0000000000000000e+00  -1.3283319078595520e-06 1.4855093907232172e-06 0.0000000000000000e+00  -1.5690492614059897e-06 1.9051142031919200e-06 0.0000000000000000e+00  -1.8346253329551006e-06 2.4799891191108118e-06 0.0000000000000000e+00  -2.1238036511394467e-06 3.3144846411766189e-06 0.0000000000000000e+00  -2.4329014547878063e-06 4.6333303240163347e-06 0.0000000000000000e+00  -2.7534699732938444e-06 6.9884702683166491e-06 0.0000000000000000e+00  -3.0645057796058564e-06 1.1933657576948072e-05 0.0000000000000000e+00  -3.3035363635054433e-06 2.4452072143426465e-05 0.0000000000000000e+00  0.0000000000000000e+00 0.0000000000000000e+00 0.0000000000000000e+00  -2.0937731578119492e-07 1.8211925044043537e-07 0.0000000000000000e+00  -4.2502535150945931e-07 3.7211346173008271e-07 0.0000000000000000e+00  -6.5324280710128323e-07 5.7834026818604983e-07 0.0000000000000000e+00  -9.0035215631794755e-07 8.1017386081455689e-07 0.0000000000000000e+00  -1.1726642420223249e-06 1.0786874336320168e-06 0.0000000000000000e+00  -1.4763844358741818e-06 1.3976013301352156e-06 0.0000000000000000e+00  -1.8174403185792436e-06 1.7847085864037896e-06 0.0000000000000000e+00  -2.2012129032809465e-06 2.2641675111267863e-06 0.0000000000000000e+00  -2.6321589156947814e-06 2.8704133735634029e-06 0.0000000000000000e+00  -3.1133213235725492e-06 3.6551912276826605e-06 0.0000000000000000e+00  -3.6457377079245582e-06 4.7007640222130806e-06 0.0000000000000000e+00  -4.2277656178721056e-06 6.1454144076064840e-06 0.0000000000000000e+00  -4.8543457472811254e-06 8.2322896364317429e-06 0.0000000000000000e+00  -5.5162670699404733e-06 1.1393439309080955e-05 0.0000000000000000e+00  -6.2000228580538049e-06 1.6327737264546734e-05 0.0000000000000000e+00  -6.8925153093645647e-06 2.3620644394349300e-05 0.0000000000000000e+00  0.0000000000000000e+00 0.0000000000000000e+00 0.0000000000000000e+00  -3.0622209248508959e-07 2.6326782481267104e-07 0.0000000000000000e+00  -6.2182703077291558e-07 5.3774379477855065e-07 0.0000000000000000e+00  -9.5626216411151255e-07 8.3527800106788842e-07 0.0000000000000000e+00  -1.3190584716524879e-06 1.1690600693626096e-06 0.0000000000000000e+00  -1.7198024431496187e-06 1.5544803050597721e-06 0.0000000000000000e+00  -2.1680200858694765e-06 2.0102685978124286e-06 0.0000000000000000e+00  -2.6729405271024982e-06 2.5601011356281866e-06 0.0000000000000000e+00  -3.2431083644004435e-06 3.2349846809020887e-06 0.0000000000000000e+00  -3.8858223145127137e-06 4.0769278456975172e-06 0.0000000000000000e+00  -4.6063979095128230e-06 5.1447083566594730e-06 0.0000000000000000e+00  -5.4072915899700414e-06 6.5228664118497850e-06 0.0000000000000000e+00  -6.2871982075206564e-06 8.3348643232232227e-06 0.0000000000000000e+00  -7.2403922803443097e-06 1.0758447754453397e-05 0.0000000000000000e+00  -8.2570054306993615e-06 1.4028223694869259e-05 0.0000000000000000e+00  -9.3262893458681289e-06 1.8367893597233947e-05 0.0000000000000000e+00  -1.0449599696021536e-05 2.3701597948859289e-05 0.0000000000000000e+00  0.0000000000000000e+00 0.0000000000000000e+00 0.0000000000000000e+00  -3.9367777349244392e-07 3.3320355397318211e-07 0.0000000000000000e+00  -7.9979573719352505e-07 6.8031477324581668e-07 0.0000000000000000e+00  -1.2309215907802513e-06 1.0559713860774189e-06 0.0000000000000000e+00  -1.6998232548767764e-06 1.4763180697535035e-06 0.0000000000000000e+00  -2.2194791105438785e-06 1.9599244323491866e-06 0.0000000000000000e+00  -2.8029722977513964e-06 2.5289248548227949e-06 0.0000000000000000e+00  -3.4632209125123641e-06 3.2104970152107268e-06 0.0000000000000000e+00  -4.2124936165327215e-06 4.0388291276303827e-06 0.0000000000000000e+00  -5.0616663808746578e-06 5.0577431271401045e-06 0.0000000000000000e+00  -6.0191991997149077e-06 6.3240687147643159e-06 0.0000000000000000e+00  -7.0898628494002179e-06 7.9114858969184845e-06 0.0000000000000000e+00  -8.2733373482821166e-06 9.9133115772230742e-06 0.0000000000000000e+00  -9.5629400507327425e-06 1.2439353953198598e-05 0.0000000000000000e+00  -1.0944874833505114e-05 1.5594526466335276e-05 0.0000000000000000e+00  -1.2398192999152967e-05 1.9415813431634329e-05 0.0000000000000000e+00  -1.3893300795718558e-05 2.3749573289267782e-05 0.0000000000000000e+00  0.0000000000000000e+00 0.0000000000000000e+00 0.0000000000000000e+00  -4.6868594681902904e-07 3.8922657393417173e-07 0.0000000000000000e+00  -9.5275269600966554e-07 7.9433899943929233e-07 0.0000000000000000e+00  -1.4678053117166615e-06 1.2319780932976362e-06 0.0000000000000000e+00  -2.0298387146959295e-06 1.7203263563101938e-06 0.0000000000000000e+00  -2.6553290864611600e-06 2.2799939174057860e-06 0.0000000000000000e+00  -3.3611865198530270e-06 2.9350426734601387e-06 0.0000000000000000e+00  -4.1645021036665643e-06 3.7141868591257944e-06 0.0000000000000000e+00  -5.0820107428475590e-06 4.6521764056789316e-06 0.0000000000000000e+00  -6.1291866689845437e-06 5.7912776297792949e-06 0.0000000000000000e+00  -7.3189034762277585e-06 7.1825368795347792e-06 0.0000000000000000e+00  -8.6596413844600603e-06 8.8859962887873199e-06 0.0000000000000000e+00  -1.0153329066689536e-05 1.0967979697152724e-05 0.0000000000000000e+00  -1.1793069943875341e-05 1.3491735482121998e-05 0.0000000000000000e+00  -1.3561180154405799e-05 1.6495469860302359e-05 0.0000000000000000e+00  -1.5428025237421055e-05 1.9952061424124584e-05 0.0000000000000000e+00  -1.7352016359589006e-05 2.3716560178076822e-05 0.0000000000000000e+00  0.0000000000000000e+00 0.0000000000000000e+00 0.0000000000000000e+00  -5.2830640948795360e-07 4.2935964166514209e-07 0.0000000000000000e+00  -1.0747203734612378e-06 8.7583621055256703e-07 0.0000000000000000e+00  -1.6577088006120895e-06 1.3572801136217030e-06 0.0000000000000000e+00  -2.2964025037700970e-06 1.8930264642428024e-06 0.0000000000000000e+00  -3.0108230043260624e-06 2.5047027752589934e-06 0.0000000000000000e+00  -3.8219602393718359e-06 3.2170992911675907e-06 0.0000000000000000e+00  -4.7516150289009460e-06 4.0590853923687077e-06 0.0000000000000000e+00  -5.8218918226298405e-06 5.0644946567991727e-06 0.0000000000000000e+00  -7.0542006874704402e-06 6.2727773894680826e-06 0.0000000000000000e+00  -8.4676174887770061e-06 7.7289841767257550e-06 0.0000000000000000e+00  -1.0076484180245522e-05 9.4822350095730693e-06 0.0000000000000000e+00  -1.1887245091919946e-05 1.1581213577024338e-05 0.0000000000000000e+00  -1.3894747641866967e-05 1.4064557816744253e-05 0.0000000000000000e+00  -1.6078588898054288e-05 1.6944016161799935e-05 0.0000000000000000e+00  -1.8400475540470462e-05 2.0180818877038436e-05 0.0000000000000000e+00  -2.0803800139752964e-05 2.3664056658828436e-05 0.0000000000000000e+00  0.0000000000000000e+00 0.0000000000000000e+00 0.0000000000000000e+00  -5.6981428096616141e-07 4.5237370857131702e-07 0.0000000000000000e+00  -1.1601121337339782e-06 9.2236778514477909e-07 0.0000000000000000e+00  -1.7919096175788047e-06 1.4282862302875439e-06 0.0000000000000000e+00  -2.4872469448265023e-06 1.9898097849304563e-06 0.0000000000000000e+00  -3.2696134692745378e-06 2.6287139563986973e-06 0.0000000000000000e+00  -4.1642364801197290e-06 3.3696021961117184e-06 0.0000000000000000e+00  -5.1981333207114255e-06 4.2406156138863856e-06 0.0000000000000000e+00  -6.3997747653452853e-06 5.2740208918340440e-06 0.0000000000000000e+00  -7.7981440882370597e-06 6.5064707900149887e-06 0.0000000000000000e+00  -9.4209150693201355e-06 7.9785521808930005e-06 0.0000000000000000e+00  -1.1291449458133950e-05 9.7329670497962957e-06 0.0000000000000000e+00  -1.3424400566307880e-05 1.1810360939369280e-05 0.0000000000000000e+00  -1.5820010461552608e-05 1.4241588391406659e-05 0.0000000000000000e+00  -1.8457803387674047e-05 1.7035543055698021e-05 0.0000000000000000e+00  -2.1291271073702391e-05 2.0163404349847736e-05 0.0000000000000000e+00  -2.4245927933182817e-05 2.3543904198562762e-05 0.0000000000000000e+00  0.0000000000000000e+00 0.0000000000000000e+00 0.0000000000000000e+00  -5.9083666299259601e-07 4.5776809031520934e-07 0.0000000000000000e+00  -1.2040060803363746e-06 9.3297941374462314e-07 0.0000000000000000e+00  -1.8625766505384239e-06 1.4436964694235110e-06 0.0000000000000000e+00  -2.5910733457039160e-06 2.0092282869221560e-06 0.0000000000000000e+00  -3.4161647998522853e-06 2.6507660880719888e-06 0.0000000000000000e+00  -4.3672635563408681e-06 3.3920179861170469e-06 0.0000000000000000e+00  -5.4769396843384782e-06 4.2598103623333375e-06 0.0000000000000000e+00  -6.7809699957374325e-06 5.2845841264061688e-06 0.0000000000000000e+00  -8.3177304777144243e-06 6.5006478595910868e-06 0.0000000000000000e+00  -1.0126491163864535e-05 7.9459439563570390e-06 0.0000000000000000e+00  -1.2244024124314388e-05 9.6609253063987249e-06 0.0000000000000000e+00  -1.4698888158349914e-05 1.1685925931620345e-05 0.0000000000000000e+00  -1.7503023219741903e-05 1.4056171724732864e-05 0.0000000000000000e+00  -2.0641200264301745e-05 1.6793434028268028e-05 0.0000000000000000e+00  -2.4060657687034089e-05 1.9893556492221330e-05 0.0000000000000000e+00  -2.7665381073301780e-05 2.3310203312609955e-05 0.0000000000000000e+00  0.0000000000000000e+00 0.0000000000000000e+00 0.0000000000000000e+00  -5.8952833596530173e-07 4.4572297058456615e-07 0.0000000000000000e+00  -1.2025048719018674e-06 9.0809271931579600e-07 0.0000000000000000e+00  -1.8633280910291040e-06 1.4043040977901015e-06 0.0000000000000000e+00  -2.5983210492704121e-06 1.9526594393255447e-06 0.0000000000000000e+00  -3.4367317401168080e-06 2.5731318602428655e-06 0.0000000000000000e+00  -4.4117444750652073e-06 3.2879338950251680e-06 0.0000000000000000e+00  -5.5614325363820806e-06 4.1220823364659556e-06 0.0000000000000000e+00  -6.9294852257089797e-06 5.1039407252847883e-06 0.0000000000000000e+00  -8.5653738758159354e-06 6.2657086265500663e-06 0.0000000000000000e+00  -1.0523352307201374e-05 7.6438074626487999e-06 0.0000000000000000e+00  -1.2859311546432951e-05 9.2790678980781465e-06 0.0000000000000000e+00  -1.5624113588668810e-05 1.1216494358747913e-05 0.0000000000000000e+00  -1.8851940528724438e-05 1.3504016512139214e-05 0.0000000000000000e+00  -2.2543174835146971e-05 1.6188736694427180e-05 0.0000000000000000e+00  -2.6644534117582947e-05 1.9307395087086758e-05 0.0000000000000000e+00  -3.1034961849798256e-05 2.2865422444838959e-05 0.0000000000000000e+00  0.0000000000000000e+00 0.0000000000000000e+00 0.0000000000000000e+00  -5.6477810732373564e-07 4.1703769503184106e-07 0.0000000000000000e+00  -1.1531675063032805e-06 8.4937462795951537e-07 0.0000000000000000e+00  -1.7899252573128654e-06 1.3127826693763574e-06 0.0000000000000000e+00  -2.5021726454852590e-06 1.8239948352904224e-06 0.0000000000000000e+00  -3.3207261138375500e-06 2.4011983916739203e-06 0.0000000000000000e+00  -4.2815894242887090e-06 3.0645466208349396e-06 0.0000000000000000e+00  -5.4276119922560164e-06 3.8367057139942573e-06 0.0000000000000000e+00  -6.8102287587075139e-06 4.7434742881979011e-06 0.0000000000000000e+00  -8.4910035858013358e-06 5.8145587370610092e-06 0.0000000000000000e+00  -1.0542314547566179e-05 7.0846730388006138e-06 0.0000000000000000e+00  -1.3045829813137823e-05 8.5952598524872415e-06 0.0000000000000000e+00  -1.6086354461641691e-05 1.0397236870672037e-05 0.0000000000000000e+00  -1.9737421282033548e-05 1.2554977431337674e-05 0.0000000000000000e+00  -2.4034883752497412e-05 1.5150428350771327e-05 0.0000000000000000e+00  -2.8939053426947628e-05 1.8282145047711657e-05 0.0000000000000000e+00  -3.4299787547136674e-05 2.2044935987509681e-05 0.0000000000000000e+00  0.0000000000000000e+00 0.0000000000000000e+00 0.0000000000000000e+00  -5.1642679184716692e-07 3.7306213348541864e-07 0.0000000000000000e+00  -1.0554765343828700e-06 7.5959794266372236e-07 0.0000000000000000e+00  -1.6410529712262851e-06 1.1734742611961101e-06 0.0000000000000000e+00  -2.2997453329489809e-06 1.6293623788589845e-06 0.0000000000000000e+00  -3.0624470433131199e-06 2.1431528721048244e-06 0.0000000000000000e+00  -3.9663236592343664e-06 2.7323941301653713e-06 0.0000000000000000e+00  -5.0572613242200826e-06 3.4167838912372240e-06 0.0000000000000000e+00  -6.3928970134825736e-06 4.2187826244728949e-06 0.0000000000000000e+00  -8.0462000387581077e-06 5.1645062479359601e-06 0.0000000000000000e+00  -1.0109191987233531e-05 6.2852426850592247e-06 0.0000000000000000e+00  -1.2695461516118920e-05 7.6203016682047154e-06 0.0000000000000000e+00  -1.5938149842361194e-05 9.2225317434850482e-06 0.0000000000000000e+00  -1.9976526541743478e-05 1.1168623158085155e-05 0.0000000000000000e+00  -2.4919759583512235e-05 1.3576309844342915e-05 0.0000000000000000e+00  -3.0776660095316316e-05 1.6626271835064590e-05 0.0000000000000000e+00  -3.7363407365028477e-05 2.0569702309902680e-05 0.0000000000000000e+00  0.0000000000000000e+00 0.0000000000000000e+00 0.0000000000000000e+00  -4.4546566463413744e-07 3.1562330891601589e-07 0.0000000000000000e+00  -9.1127686843894191e-07 6.4249471035366682e-07 0.0000000000000000e+00  -1.4190887573895872e-06 9.9217264289096142e-07 0.0000000000000000e+00  -1.9933406331291077e-06 1.3768525582647325e-06 0.0000000000000000e+00  -2.6630359667052189e-06 1.8096907971340789e-06 0.0000000000000000e+00  -3.4640548676734605e-06 2.3051406896670425e-06 0.0000000000000000e+00  -4.4422912920418519e-06 2.8793200676989760e-06 0.0000000000000000e+00  -5.6580038240480261e-06 3.5504612361642131e-06 0.0000000000000000e+00  -7.1918471273077015e-06 4.3395768131356942e-06 0.0000000000000000e+00  -9.1529679356017768e-06 5.2716838731959104e-06 0.0000000000000000e+00  -1.1688878963086524e-05 6.3784484960404106e-06 0.0000000000000000e+00  -1.4994458176694087e-05 7.7043536371974499e-06 0.0000000000000000e+00  -1.9310902983973574e-05 9.3212067146702964e-06 0.0000000000000000e+00  -2.4890904370593713e-05 1.1360612958824363e-05 0.0000000000000000e+00  -3.1884014603544938e-05 1.4077755361896847e-05 0.0000000000000000e+00  -4.0099899039187996e-05 1.7941486860864398e-05 0.0000000000000000e+00  0.0000000000000000e+00 0.0000000000000000e+00 0.0000000000000000e+00  -3.5417359478058339e-07 2.4694721613580292e-07 0.0000000000000000e+00  -7.2509626709125103e-07 5.0259934599090945e-07 0.0000000000000000e+00  -1.1307108610094787e-06 7.7588810432867197e-07 0.0000000000000000e+00  -1.5915277855067779e-06 1.0762099729405063e-06 0.0000000000000000e+00  -2.1323495003659528e-06 1.4136519912787043e-06 0.0000000000000000e+00  -2.7846354158773684e-06 1.7992064116857586e-06 0.0000000000000000e+00  -3.5899391989172365e-06 2.2449633920892488e-06 0.0000000000000000e+00  -4.6051130310755872e-06 2.7642645542513552e-06 0.0000000000000000e+00  -5.9104045925807096e-06 3.3718002150700620e-06 0.0000000000000000e+00  -7.6222134442771794e-06 4.0836802981795988e-06 0.0000000000000000e+00  -9.9129700758066072e-06 4.9177729746878113e-06 0.0000000000000000e+00  -1.3040305254303226e-05 5.8957099870647540e-06 0.0000000000000000e+00  -1.7382098913912760e-05 7.0519720551870346e-06 0.0000000000000000e+00  -2.3449088501252044e-05 8.4682732171678798e-06 0.0000000000000000e+00  -3.1768217179071159e-05 1.0384160230940091e-05 0.0000000000000000e+00  -4.2382549625118545e-05 1.3468205823737318e-05 0.0000000000000000e+00  0.0000000000000000e+00 0.0000000000000000e+00 0.0000000000000000e+00  -2.4614674966147845e-07 1.6957635874873433e-07 0.0000000000000000e+00  -5.0424343332394710e-07 3.4508113031343346e-07 0.0000000000000000e+00  -7.8715737321382258e-07 5.3258896059816055e-07 0.0000000000000000e+00  -1.1097468825353525e-06 7.3847233650247670e-07 0.0000000000000000e+00  -1.4902503810500235e-06 9.6953542219690271e-07 0.0000000000000000e+00  -1.9522721480564489e-06 1.2331182916743404e-06 0.0000000000000000e+00  -2.5278258306089414e-06 1.5371322881250105e-06 0.0000000000000000e+00  -3.2622673888531053e-06 1.8899349099720279e-06 0.0000000000000000e+00  -4.2226922014553041e-06 2.2998294885213583e-06 0.0000000000000000e+00  -5.5128891425814610e-06 2.7736911357406536e-06 0.0000000000000000e+00  -7.3010524431181262e-06 3.3136060642755651e-06 0.0000000000000000e+00  -9.8725067731611800e-06 3.9093139256451295e-06 0.0000000000000000e+00  -1.3729098842458615e-05 4.5236723834232859e-06 0.0000000000000000e+00  -1.9756001968962318e-05 5.0780078950862143e-06 0.0000000000000000e+00  -2.9357249066432054e-05 5.5250575265040601e-06 0.0000000000000000e+00  -4.3583593727587595e-05 6.5847887597742699e-06 0.0000000000000000e+00  0.0000000000000000e+00 0.0000000000000000e+00 0.0000000000000000e+00  -1.2618225694769774e-07 8.6285579219268670e-08 0.0000000000000000e+00  -2.5859118071959486e-07 1.7557203618719323e-07 0.0000000000000000e+00  -4.0395359296225190e-07 2.7093124827726197e-07 0.0000000000000000e+00  -5.7008809585176338e-07 3.7557865173734034e-07 0.0000000000000000e+00  -7.6668563908994495e-07 4.9293241314372796e-07 0.0000000000000000e+00  -1.0064556953425358e-06 6.2664671783200385e-07 0.0000000000000000e+00  -1.3069455691174445e-06 7.8058172922685987e-07 0.0000000000000000e+00  -1.6936298200368196e-06 9.5861509609087471e-07 0.0000000000000000e+00  -2.2055197946824704e-06 1.1640435963677706e-06 0.0000000000000000e+00  -2.9061250365841116e-06 1.3978790309843520e-06 0.0000000000000000e+00  -3.9067617103576942e-06 1.6540037725930727e-06 0.0000000000000000e+00  -5.4211955058140706e-06 1.9048501085726638e-06 0.0000000000000000e+00  -7.9084925165973379e-06 2.0564648473965056e-06 0.0000000000000000e+00  -1.2491892532295055e-05 1.7972354561006292e-06 0.0000000000000000e+00  -2.2334089300461570e-05 4.9254676086171179e-08 0.0000000000000000e+00  -4.7660917351081743e-05 -7.1776817494866421e-06 0.0000000000000000e+00  0.0000000000000000e+00 0.0000000000000000e+00 0.0000000000000000e+00  0.0000000000000000e+00 0.0000000000000000e+00 0.0000000000000000e+00  0.0000000000000000e+00 0.0000000000000000e+00 0.0000000000000000e+00  0.0000000000000000e+00 0.0000000000000000e+00 0.0000000000000000e+00  0.0000000000000000e+00 0.0000000000000000e+00 0.0000000000000000e+00  0.0000000000000000e+00 0.0000000000000000e+00 0.0000000000000000e+00  0.0000000000000000e+00 0.0000000000000000e+00 0.0000000000000000e+00  0.0000000000000000e+00 0.0000000000000000e+00 0.0000000000000000e+00  0.0000000000000000e+00 0.0000000000000000e+00 0.000