<?xml version="1.0"?>
<VTKFile type="UnstructuredGrid"  version="0.1"  >
<UnstructuredGrid>
<Piece  NumberOfPoints="289" NumberOfCells="512">
<Points>
<DataArray  type="Float64"  NumberOfComponents="3"  format="ascii">0 0 0  0.0625 0 0  0.125 0 0  0.1875 0 0  0.25 0 0  0.3125 0 0  0.375 0 0  0.4375 0 0  0.5 0 0  0.5625 0 0  0.625 0 0  0.6875 0 0  0.75 0 0  0.8125 0 0  0.875 0 0  0.9375 0 0  1 0 0  0 0.0625 0  0.06249818197258331 0.06250172046535801 0  0.1249963105947933 0.06250351347805279 0  0.1874943322203548 0.06250545589927804 0  0.2499921932350005 0.06250763384434264 0  0.3124898404698218 0.06251014908606953 0  0.3749872221111814 0.06251312827903836 0  0.4374842892615446 0.06251673749302124 0  0.4999809982731329 0.06252120699718719 0  0.5624773139104599 0.06252687681813282 0  0.6249732132996683 0.06253428716774066 0  0.6874686905451732 0.06254437354770667 0  0.7499637620790774 0.06255892876538184 0  0.8124584742209801 0.06258181510992762 0  0.8749529211367634 0.0626225052127977 0  0.9374473131619169 0.06270756121627702 0  0.9999423106472499 0.06292145351306457 0  0 0.125 0  0.06249641746155517 0.1250033681287932 0  0.1249927282675045 0.1250068769978454 0  0.1874888250366527 0.1250106753405005 0  0.2499846001215087 0.1250149289199498 0  0.312479946271655 0.1250198319658962 0  0.3749747583022868 0.1250256231158819 0  0.4374689360999291 0.1250326095090994 0  0.4999623892447917 0.1250412057760313 0  0.5624550433984788 0.1250520009550835 0  0.6249468483620113 0.1250658793417301 0  0.6874377873293392 0.1250842480623295 0  0.7499278863377524 0.1251094769713275 0  0.8124172221194127 0.1251457415939678 0  0.8749059241399091 0.125200476356666 0  0.9373941529994313 0.1252857547006888 0  0.9998819571277978 0.1254120194945801 0  0 0.1875 0  0.06249475998770767 0.1875048747927857 0  0.1249893602796105 0.1875099504859928 0  0.1874836397553926 0.1875154385999218 0  0.249977436069219 0.1875215730465597 0  0.3124705862250346 0.1875286244835036 0  0.3749629286768447 0.1875369193093187 0  0.4374543075093476 0.1875468665520742 0  0.4999445792167752 0.1875589980017081 0  0.5624336224389442 0.1875740304421933 0  0.6249213506487459 0.1875929641168085 0  0.6874077271062105 0.1876172373304619 0  0.7498927802332633 0.187648954447395 0  0.8123766154841995 0.18769115652376 0  0.8748594152558922 0.1877478865345414 0  0.9373414061972142 0.1878230905940939 0  0.9998227379268657 0.1879158535134324 0  0 0.25 0  0.06249326274530016 0.2500061802916303 0  0.1249863135692837 0.2500126109849837 0  0.1874789380231671 0.2500195545677747 0  0.2499709184889186 0.2500272986865049 0  0.3124620341349076 0.2500361713485872 0  0.3749520628993523 0.2500465597086369 0  0.4374407863399362 0.2500589343877833 0  0.4999279982298104 0.2500738818820895 0  0.5624135176786689 0.2500921479864363 0  0.6248972071796123 0.2501146940567863 0  0.6873789951693188 0.2501427616984365 0  0.7498589013253043 0.2501779205529538 0  0.8123370610671867 0.2502220168849035 0  0.8748137448275464 0.2502768128866857 0  0.9372893733382203 0.2503429082005721 0  0.9997645677222943 0.2504175757205168 0  0 0.3125 0  0.06249197803098706 0.3125072351196832 0  0.1249836937650766 0.3125147580178714 0  0.1874748807486905 0.3125228690301552 0  0.2499652661399018 0.3125318942772548 0  0.3124545693031996 0.3125422002523283 0  0.3749425028458119 0.3125542104412584 0  0.4374287772697219 0.3125684245102069 0  0.4999131106274134 0.3125854400665658 0  0.5623952446574306 0.3126059754849327 0  0.6248749686394366 0.3126308884937342 0  0.6873521513644225 0.3126611765816516 0  0.7498267798631263 0.3126979275425636 0  0.8122990007781653 0.3127421572206386 0  0.8747691570406375 0.3127944322196157 0  0.9372378101528263 0.312854177045049 0  0.9997057350785022 0.3129187660903013 0  0 0.375 0  0.0624909561973758 0.3750080018986354 0  0.1249816032260178 0.3750163163572086 0  0.1874716255202512 0.3750252682854798 0  0.2499606964252644 0.3750352076349336 0  0.3124484744842244 0.3750465226906612 0  0.374934602362453 0.3750596539855491 0  0.4374187099288006 0.3750751083476535 0  0.4999004235173823 0.3750934715313025 0  0.5623793838666875 0.375115415789444 0  0.6248552754145551 0.3751416948345546 0  0.6873278690373452 0.3751731118873965 0  0.7497970782470774 0.3752104363605926 0  0.8122630245306428 0.3752542335660523 0  0.8747261006591738 0.375304571448524 0  0.9371870125364545 0.375360610852059 0  0.9996467733252312 0.3754202266850298 0  0 0.4375 0  0.06249024400011476 0.4375084558488352 0  0.1249801378191972 0.4375172366511134 0  0.1874693220199042 0.4375266791540926 0  0.2499574198543092 0.4375371437935925 0  0.3124440301416009 0.4375490266619964 0  0.3749287225700953 0.4375627712009392 0  0.4374110372011999 0.4375788786572754 0  0.4998904908639384 0.4375979152371002 0  0.5623665942481099 0.4376205120128221 0  0.624838884573847 0.4376473506453542 0  0.6873069790740036 0.4376791236979952 0  0.7497706528735478 0.4377164533336271 0  0.8122299392053822 0.4377597492307104 0  0.8746852383494341 0.4378089926303579 0  0.93713740489303 0.4378634607651266 0  0.9995877689609154 0.4379214637459014 0  0 0.5 0  0.06248988225578642 0.5000085845810764 0  0.1249793822295023 0.5000174946773578 0  0.1874681050235808 0.5000270669344548 0  0.2499556309264064 0.5000376602509442 0  0.3124415037540819 0.5000496667650317 0  0.3749252207636898 0.500063522282939 0  0.4374062259094953 0.5000797152078426 0  0.4998839095887355 0.5000987921695351 0  0.562357620043564 0.5001213572298838 0  0.6248266941946952 0.5001480596469442 0  0.6872905182704586 0.5001795627626108 0  0.7497486293218183 0.5002164840093969 0  0.8122008636664033 0.5002592942017051 0  0.8746475414667516 0.5003081644527786 0  0.9370896434905536 0.5003627518972177 0  0.9995288952082353 0.5004219191343251 0  0 0.5625 0  0.06248990281589672 0.5625083875386511 0  0.1249794037623655 0.5625170899862545 0  0.1874680847933392 0.562526432719397 0  0.2499554948979832 0.5625367620593911 0  0.3124411329985718 0.5625484556932868 0  0.3749244307156132 0.562561932774595 0  0.437404736250057 0.5625776631228188 0  0.4998813023450122 0.5625961744571383 0  0.562353284261505 0.562618055931107 0  0.6248197584507631 0.5626439554011549 0  0.6872797792419395 0.56267456692798 0  0.7497324978545078 0.5627106039426658 0  0.8121773696064613 0.5627527515060086 0  0.8746144576909805 0.5628015847061572 0  0.9370447840360381 0.5628574204687665 0  0.9994705702556046 0.5629200266540308 0  0 0.625 0  0.06249032499974821 0.6250078753315159 0  0.1249802448765552 0.6250160444610411 0  0.1874693350746865 0.6250248109728197 0  0.2499571303900699 0.625034498135983 0  0.3124431021056958 0.6250454590158843 0  0.3749266323714437 0.6250580868227927 0  0.4374069857727754 0.6250728254426229 0  0.499883279611232 0.6250901800068177 0  0.5623544578257019 0.6251107273262695 0  0.6248192802474911 0.6251351261663854 0  0.6872763510758862 0.6251641279058603 0  0.7497242294549835 0.6251985893227117 0  0.8121616868115453 0.625239490480573 0  0.8745881788625122 0.6252879567937889 0  0.9370045272932831 0.6253452524641803 0  0.9994135678066413 0.6254125771279498 0  0 0.6875 0  0.06249115181488695 0.687507069071282 0  0.1249819150782682 0.6875144010070535 0  0.1874718795495819 0.6875222676520261 0  0.2499605886957655 0.6875309590565629 0  0.3124475117941092 0.6875407932432209 0  0.3749320099948131 0.6875521268524434 0  0.4374132940775984 0.6875653671413967 0  0.4998903721658859 0.6875809860608361 0  0.5623619879728333 0.6875995376075283 0  0.6248265568557888 0.687621680549688 0  0.6872821233075187 0.687648210433604 0  0.7497263984529431 0.687680108781652 0  0.8121569993315403 0.6877186268875705 0  0.8745720934404674 0.6877654430191302 0  0.9369716540235626 0.6878229636726642 0  0.9993591294756941 0.6878947769819173 0  0 0.75 0  0.06249236650595773 0.7500059996884852 0  0.1249843832852509 0.7500122222919876 0  0.1874756784438071 0.7500188986388763 0  0.2499658320101418 0.7500262757368412 0  0.3124543451963143 0.7500346258436844 0  0.3749406004192745 0.75004425692814 0  0.4374238070047572 0.7500555254040536 0  0.4999029258071883 0.7500688525102053 0  0.5623765645925676 0.7500847464807345 0  0.6248428374194241 0.7501038338070277 0  0.6872991928072988 0.7501269046310104 0  0.7497422565789754 0.7501549806811834 0  0.8121678493707075 0.750189425166361 0  0.8745715967235472 0.7502321615740777 0  0.9369509527560199 0.7502862681024605 0  0.9993094022729028 0.7503579199878111 0  0 0.8125 0  0.06249393015850772 0.8125047071266617 0  0.1249875722256156 0.8125095892699493 0  0.1874806179018521 0.8125148279217621 0  0.2499727145017645 0.8125206179163096 0  0.3124634351392669 0.8125271752044446 0  0.3749522377912386 0.812534746236373 0  0.4374384057306808 0.8125436200477877 0  0.499920957242617 0.8125541447884913 0  0.562398504994044 0.812566751411026 0  0.6248690341393073 0.812581988458865 0  0.687329555660108 0.812600572512587 0  0.749775595181881 0.8126234554977018 0  0.8122005711030049 0.8126518930725413 0  0.8745955459166225 0.8126874538533946 0  0.9369512388070474 0.8127319164698178 0  0.9992671520270108 0.8127881073281799 0  0 0.875 0  0.06249578115964147 0.8750032392772304 0  0.1249913566828645 0.8750065991611397 0  0.1874865054005714 0.8750102048842057 0  0.2499809717042724 0.8750141912698769 0  0.3124744415168228 0.8750187084921733 0  0.3749665079046868 0.8750239292723135 0  0.4374566183273235 0.8750300585610906 0  0.4999439890859093 0.8750373474807341 0  0.5624274596319425 0.8750461145857579 0  0.6249052330069237 0.8750567796730579 0  0.6873743944508978 0.8750699183546304 0  0.7498299933550935 0.8750863454926979 0  0.8122633005914639 0.8751072049631138 0  0.8746588150691652 0.8751338260429002 0  0.9369913884558599 0.875165867555405 0  0.999238729035133 0.8751894864618168 0  0 0.9375 0  0.06249783718685069 0.9375016505445112 0  0.1249955671973153 0.9375033626220028 0  0.1874930743856616 0.937505200184287 0  0.2499902242166 0.9375072322189548 0  0.3124868497613744 0.9375095358339126 0  0.3749827318509078 0.9375122002026666 0  0.4374775675575833
[...]
<PointData  Vectors="f_54"> 
<DataArray  type="Float64"  Name="f_54"  NumberOfComponents="3" format="ascii">0.0000000000000000e+00 0.0000000000000000e+00 0.0000000000000000e+00  0.0000000000000000e+00 0.0000000000000000e+00 0.0000000000000000e+00  0.0000000000000000e+00 0.0000000000000000e+00 0.0000000000000000e+00  0.0000000000000000e+00 0.0000000000000000e+00 0.0000000000000000e+00  0.0000000000000000e+00 0.0000000000000000e+00 0.0000000000000000e+00  0.0000000000000000e+00 0.0000000000000000e+00 0.0000000000000000e+00  0.0000000000000000e+00 0.0000000000000000e+00 0.0000000000000000e+00  0.0000000000000000e+00 0.0000000000000000e+00 0.0000000000000000e+00  0.0000000000000000e+00 0.0000000000000000e+00 0.0000000000000000e+00  0.0000000000000000e+00 0.0000000000000000e+00 0.0000000000000000e+00  0.0000000000000000e+00 0.0000000000000000e+00 0.0000000000000000e+00  0.0000000000000000e+00 0.0000000000000000e+00 0.0000000000000000e+00  0.0000000000000000e+00 0.0000000000000000e+00 0.0000000000000000e+00  0.0000000000000000e+00 0.0000000000000000e+00 0.0000000000000000e+00  0.0000000000000000e+00 0.0000000000000000e+00 0.0000000000000000e+00  0.0000000000000000e+00 0.0000000000000000e+00 0.0000000000000000e+00  0.0000000000000000e+00 0.0000000000000000e+00 0.0000000000000000e+00  0.0000000000000000e+00 0.0000000000000000e+00 0.0000000000000000e+00  -3.6145481956488359e-08 5.2682613349322146e-08 0.0000000000000000e+00  -7.3361897121638778e-08 1.0765627268638684e-07 0.0000000000000000e+00  -1.1272067769454992e-07 1.6735401133770385e-07 0.0000000000000000e+00  -1.5529467546617522e-07 2.3451930212390657e-07 0.0000000000000000e+00  -2.0215057943230524e-07 3.1242099247688615e-07 0.0000000000000000e+00  -2.5433130623538807e-07 4.0516277680446310e-07 0.0000000000000000e+00  -3.1282473969523062e-07 5.1816968628285258e-07 0.0000000000000000e+00  -3.7851502029960256e-07 6.5901540895576757e-07 0.0000000000000000e+00  -4.5211200716844274e-07 8.3894109826339340e-07 0.0000000000000000e+00  -5.3405224967941900e-07 1.0758770407114273e-06 0.0000000000000000e+00  -6.2435753688187747e-07 1.4010125685042559e-06 0.0000000000000000e+00  -7.2241980116076029e-07 1.8745748194313579e-06 0.0000000000000000e+00  -8.2666391687526343e-07 2.6280728714441496e-06 0.0000000000000000e+00  -9.3418204545078889e-07 3.9907689504422420e-06 0.0000000000000000e+00  -1.0418806863584016e-06 6.9105464558788753e-06 0.0000000000000000e+00  -1.1603210364693535e-06 1.4487656358020337e-05 0.0000000000000000e+00  0.0000000000000000e+00 0.0000000000000000e+00 0.0000000000000000e+00  -7.1219868681376394e-08 1.0307386215956326e-07 0.0000000000000000e+00  -1.4457892929730263e-07 2.1058449551390105e-07 0.0000000000000000e+00  -2.2222082711426363e-07 3.2723175161431202e-07 0.0000000000000000e+00  -3.0629857410733660e-07 4.5828685069907494e-07 0.0000000000000000e+00  -3.9896286185882160e-07 6.0997687409158454e-07 0.0000000000000000e+00  -5.0233048021284738e-07 7.9002097378046559e-07 0.0000000000000000e+00  -6.1842563978964977e-07 1.0084390782746132e-06 0.0000000000000000e+00  -7.4908702790610969e-07 1.2788549595643545e-06 0.0000000000000000e+00  -8.9583359883007182e-07 1.6207204615040602e-06 0.0000000000000000e+00  -1.0596808646334231e-06 2.0633083934040839e-06 0.0000000000000000e+00  -1.2408901110811361e-06 2.6531768111365766e-06 0.0000000000000000e+00  -1.4385886844271468e-06 3.4684152830079712e-06 0.0000000000000000e+00  -1.6500059288969820e-06 4.6451126347217920e-06 0.0000000000000000e+00  -1.8681965247250611e-06 6.4185446285228821e-06 0.0000000000000000e+00  -2.0729558052878349e-06 9.1343795747252914e-06 0.0000000000000000e+00  -2.1887387846447009e-06 1.2867430031873242e-05 0.0000000000000000e+00  0.0000000000000000e+00 0.0000000000000000e+00 0.0000000000000000e+00  -1.0415660811649213e-07 1.4903030276313448e-07 0.0000000000000000e+00  -2.1151236200271788e-07 3.0437432911326249e-07 0.0000000000000000e+00  -3.2528161863364322e-07 4.7269504227490365e-07 0.0000000000000000e+00  -4.4870898347461973e-07 6.6140611396771690e-07 0.0000000000000000e+00  -5.8506047565972580e-07 8.7915548916406879e-07 0.0000000000000000e+00  -7.3758520399266697e-07 1.1364672990534263e-06 0.0000000000000000e+00  -9.0943651023690253e-07 1.4466504676570579e-06 0.0000000000000000e+00  -1.1035419279236035e-06 1.8271498648603615e-06 0.0000000000000000e+00  -1.3224137959099906e-06 2.3016266775392862e-06 0.0000000000000000e+00  -1.5678989351555861e-06 2.9032158758692317e-06 0.0000000000000000e+00  -1.8408813542314360e-06 3.6795650466050889e-06 0.0000000000000000e+00  -2.1409955560225360e-06 4.7000871735398303e-06 0.0000000000000000e+00  -2.4665706532218332e-06 6.0641154266338000e-06 0.0000000000000000e+00  -2.8157666455654083e-06 7.9015671739584382e-06 0.0000000000000000e+00  -3.1935555996489583e-06 1.0338023491665004e-05 0.0000000000000000e+00  -3.6483079246538072e-06 1.3377013763434200e-05 0.0000000000000000e+00  0.0000000000000000e+00 0.0000000000000000e+00 0.0000000000000000e+00  -1.3389696462687153e-07 1.8867637739258562e-07 0.0000000000000000e+00  -2.7203276335927691e-07 3.8518699786452315e-07 0.0000000000000000e+00  -4.1868206667110930e-07 5.9776253258600921e-07 0.0000000000000000e+00  -5.7818966562582682e-07 8.3547473343498955e-07 0.0000000000000000e+00  -7.5497499928293803e-07 1.1087493445989710e-06 0.0000000000000000e+00  -9.5349816717510667e-07 1.4300051481725581e-06 0.0000000000000000e+00  -1.1781716252963691e-06 1.8144862536644192e-06 0.0000000000000000e+00  -1.4332013602597543e-06 2.2813740542517445e-06 0.0000000000000000e+00  -1.7223441774953183e-06 2.8552748339568547e-06 0.0000000000000000e+00  -2.0485772028213232e-06 3.5681358857692302e-06 0.0000000000000000e+00  -2.4136970359171764e-06 4.4614242258023810e-06 0.0000000000000000e+00  -2.8179061931074708e-06 5.5876979117310653e-06 0.0000000000000000e+00  -3.2595023051049670e-06 7.0088553224854543e-06 0.0000000000000000e+00  -3.7347625547897724e-06 8.7844307602001970e-06 0.0000000000000000e+00  -4.2371888953818313e-06 1.0937826403676394e-05 0.0000000000000000e+00  -4.7478822162713180e-06 1.3390179574429986e-05 0.0000000000000000e+00  0.0000000000000000e+00 0.0000000000000000e+00 0.0000000000000000e+00  -1.5940180597747570e-07 2.2049187989792851e-07 0.0000000000000000e+00  -3.2404068250736106e-07 4.4993448748244173e-07 0.0000000000000000e+00  -4.9922254366204376e-07 6.9768801343219108e-07 0.0000000000000000e+00  -6.9038759771308665e-07 9.7396858130018357e-07 0.0000000000000000e+00  -9.0314246925844233e-07 1.2903395750346136e-06 0.0000000000000000e+00  -1.1432463895016683e-06 1.6602805297517110e-06 0.0000000000000000e+00  -1.4165297357121964e-06 2.0998564361068976e-06 0.0000000000000000e+00  -1.7287199373302351e-06 2.6284942020677222e-06 0.0000000000000000e+00  -2.0851495769686720e-06 3.2698243308686183e-06 0.0000000000000000e+00  -2.4903285893020278e-06 4.0524216461104051e-06 0.0000000000000000e+00  -2.9473825035194342e-06 5.0099953418245326e-06 0.0000000000000000e+00  -3.4573964798047518e-06 6.1799991242079423e-06 0.0000000000000000e+00  -4.0187560908772603e-06 7.5986211823577007e-06 0.0000000000000000e+00  -4.6266126234989808e-06 9.2888435331337933e-06 0.0000000000000000e+00  -5.2726268515614509e-06 1.1238115589350089e-05 0.0000000000000000e+00  -5.9460780270537939e-06 1.3367008369166994e-05 0.0000000000000000e+00  0.0000000000000000e+00 0.0000000000000000e+00 0.0000000000000000e+00  -1.7967269349109490e-07 2.4335954909193016e-07 0.0000000000000000e+00  -3.6550640497445982e-07 4.9636995335761740e-07 0.0000000000000000e+00  -5.6377788854804000e-07 7.6908019757564711e-07 0.0000000000000000e+00  -7.8099039878239652e-07 1.0723586722165526e-06 0.0000000000000000e+00  -1.0239513284301798e-06 1.4183364509214354e-06 0.0000000000000000e+00  -1.2998003363054075e-06 1.8208830479354056e-06 0.0000000000000000e+00  -1.6159597992093425e-06 2.2961058579556601e-06 0.0000000000000000e+00  -1.9799707703111632e-06 2.8628329839220316e-06 0.0000000000000000e+00  -2.3991702049986262e-06 3.5429753077205456e-06 0.0000000000000000e+00  -2.8801641520462920e-06 4.3615423607223489e-06 0.0000000000000000e+00  -3.4280654513800594e-06 5.3458752858433466e-06 0.0000000000000000e+00  -4.0455040652628643e-06 6.5233411828966034e-06 0.0000000000000000e+00  -4.7314903094948687e-06 7.9163823522051917e-06 0.0000000000000000e+00  -5.4803041571005763e-06 9.5337998552880582e-06 0.0000000000000000e+00  -6.2806458650788591e-06 1.1358485916389760e-05 0.0000000000000000e+00  -7.1151439564893238e-06 1.3336460723513252e-05 0.0000000000000000e+00  0.0000000000000000e+00 0.0000000000000000e+00 0.0000000000000000e+00  -1.9378471705151495e-07 2.5657755033031558e-07 0.0000000000000000e+00  -3.9453411478949074e-07 5.2310275355519902e-07 0.0000000000000000e+00  -6.0938916217995396e-07 8.0989616353129392e-07 0.0000000000000000e+00  -8.4583825546552653e-07 1.1280344056489039e-06 0.0000000000000000e+00  -1.1118611795545573e-06 1.4897394810419595e-06 0.0000000000000000e+00  -1.4160273792170888e-06 1.9087700983010914e-06 0.0000000000000000e+00  -1.7675152267540476e-06 2.4007914828418137e-06 0.0000000000000000e+00  -2.1760024175064590e-06 2.9836687698612352e-06 0.0000000000000000e+00  -2.6513578258403756e-06 3.6775752672486299e-06 0.0000000000000000e+00  -3.2030473517356574e-06 4.5047211878230815e-06 0.0000000000000000e+00  -3.8391629848790652e-06 5.4883873875344413e-06 0.0000000000000000e+00  -4.5650187053370640e-06 6.6508139915179238e-06 0.0000000000000000e+00  -5.3813616240503734e-06 8.0094333742365289e-06 0.0000000000000000e+00  -6.2824477089317727e-06 9.5711626706555479e-06 0.0000000000000000e+00  -7.2545012685802156e-06 1.1325324433329974e-05 0.0000000000000000e+00  -8.2752668156815310e-06 1.3237411529802988e-05 0.0000000000000000e+00  0.0000000000000000e+00 0.0000000000000000e+00 0.0000000000000000e+00  -2.0093259117972362e-07 2.5984673390954810e-07 0.0000000000000000e+00  -4.0945420709829629e-07 5.2956220179197260e-07 0.0000000000000000e+00  -6.3340148369065110e-07 8.1935702693265465e-07 0.0000000000000000e+00  -8.8110370006402584e-07 1.1401260288660303e-06 0.0000000000000000e+00  -1.1616144739117995e-06 1.5037898388512684e-06 0.0000000000000000e+00  -1.4849135255019447e-06 1.9236252873857100e-06 0.0000000000000000e+00  -1.8620447140613374e-06 2.4145604534553740e-06 0.0000000000000000e+00  -2.3051306857915057e-06 2.9933874419417241e-06 0.0000000000000000e+00  -2.8271670388510842e-06 3.6788116370582615e-06 0.0000000000000000e+00  -3.4414518091428695e-06 4.4912097032026861e-06 0.0000000000000000e+00  -4.1604623201406277e-06 5.4519159670108872e-06 0.0000000000000000e+00  -4.9939877932740457e-06 6.5818183271630898e-06 0.0000000000000000e+00  -5.9464377501941928e-06 7.8990617575175028e-06 0.0000000000000000e+00  -7.0135829303677315e-06 9.4157793467103447e-06 0.0000000000000000e+00  -8.1796134160396538e-06 1.1133975134990123e-05 0.0000000000000000e+00  -9.4161056228677952e-06 1.3040638117677729e-05 0.0000000000000000e+00  0.0000000000000000e+00 0.0000000000000000e+00 0.0000000000000000e+00  -2.0048988927531224e-07 2.5324338184453853e-07 0.0000000000000000e+00  -4.0894444394155503e-07 5.1593456839350497e-07 0.0000000000000000e+00  -6.3365153278372625e-07 7.9783092421685828e-07 0.0000000000000000e+00  -8.8354927858335712e-07 1.1093031181168732e-06 0.0000000000000000e+00  -1.1685630140854455e-06 1.4616390721812197e-06 0.0000000000000000e+00  -1.4999443640602726e-06 1.8673374516351065e-06 0.0000000000000000e+00  -1.8905877926745867e-06 2.3403748673534881e-06 0.0000000000000000e+00  -2.3552667551554699e-06 2.8964193877196515e-06 0.0000000000000000e+00  -2.9106746075712473e-06 3.5529488604194970e-06 0.0000000000000000e+00  -3.5750659631579672e-06 4.3292193355682900e-06 0.0000000000000000e+00  -4.3671730695135416e-06 5.2460243169449296e-06 0.0000000000000000e+00  -5.3039547640330421e-06 6.3252016629520061e-06 0.0000000000000000e+00  -6.3967442463674580e-06 7.5888888210573012e-06 0.0000000000000000e+00  -7.6457685716422409e-06 9.0585665076228120e-06 0.0000000000000000e+00  -9.0342121130068161e-06 1.0753817909760335e-05 0.0000000000000000e+00  -1.0525047521557149e-05 1.2690163810021510e-05 0.0000000000000000e+00  0.0000000000000000e+00 0.0000000000000000e+00 0.0000000000000000e+00  -1.9207871266918991e-07 2.3718588255364957e-07 0.0000000000000000e+00  -3.9217551472272349e-07 4.8309155642077405e-07 0.0000000000000000e+00  -6.0870088994165038e-07 7.4671376092171047e-07 0.0000000000000000e+00  -8.5086443829241074e-07 1.0375943291430261e-06 0.0000000000000000e+00  -1.1291236708040763e-06 1.3660940174025909e-06 0.0000000000000000e+00  -1.4556850848147371e-06 1.7436648510418684e-06 0.0000000000000000e+00  -1.8450571548558403e-06 2.1831168395370071e-06 0.0000000000000000e+00  -2.3146230007864089e-06 2.6988737687201485e-06 0.0000000000000000e+00  -2.8851326536299599e-06 3.3072155430253132e-06 0.0000000000000000e+00  -3.5808821334880233e-06 4.0265168897131180e-06 0.0000000000000000e+00  -4.4291122019135184e-06 4.8775236848568181e-06 0.0000000000000000e+00  -5.4578074312911973e-06 5.8837714417854134e-06 0.0000000000000000e+00  -6.6907095715878869e-06 7.0723528208820313e-06 0.0000000000000000e+00  -8.1384416203443643e-06 8.4753451801332925e-06 0.0000000000000000e+00  -9.7863511843188986e-06 1.0132080108038091e-05 0.0000000000000000e+00  -1.1584714371780277e-05 1.2091049787203474e-05 0.0000000000000000e+00  0.0000000000000000e+00 0.0000000000000000e+00 0.0000000000000000e+00  -1.7564353998967584e-07 2.1240015834547103e-07 0.0000000000000000e+00  -3.5896908258147901e-07 4.3251974369365908e-07 0.0000000000000000e+00  -5.5809942154671447e-07 6.6832096766855893e-07 0.0000000000000000e+00  -7.8206633747112890e-07 9.2824224233680157e-07 0.0000000000000000e+00  -1.0413578418633357e-06 1.2214438036821824e-06 0.0000000000000000e+00  -1.3485815935083084e-06 1.5580629616859969e-06 0.0000000000000000e+00  -1.7192866099148360e-06 1.9494855288235089e-06 0.0000000000000000e+00  -2.1729726874397472e-06 2.4086463763991501e-06 0.0000000000000000e+00  -2.7342671814011473e-06 2.9503860688220201e-06 0.0000000000000000e+00  -3.4341096399631046e-06 3.5919189140480362e-06 0.0000000000000000e+00  -4.3104532944348454e-06 4.3535224754167125e-06 0.0000000000000000e+00  -5.4073011632186624e-06 5.2596616122550551e-06 0.0000000000000000e+00  -6.7696885021032200e-06 6.3409574656777230e-06 0.0000000000000000e+00  -8.4308015127989793e-06 7.6378151228542882e-06 0.0000000000000000e+00  -1.0387958319109661e-05 9.2074052166607920e-06 0.0000000000000000e+00  -1.2573413233309545e-05 1.1137410372435151e-05 0.0000000000000000e+00  0.0000000000000000e+00 0.0000000000000000e+00 0.0000000000000000e+00  -1.5151886067365043e-07 1.7988521751047742e-07 0.0000000000000000e+00  -3.0994712571541651e-07 3.6625265785993706e-07 0.0000000000000000e+00  -4.8264657761970489e-07 5.6578946376030106e-07 0.0000000000000000e+00  -6.7792331556462748e-07 7.8558421675652554e-07 0.0000000000000000e+00  -9.0563162993942298e-07 1.0333403107527859e-06 0.0000000000000000e+00  -1.1779575592051523e-06 1.3176074205515094e-06 0.0000000000000000e+00  -1.5104798597414898e-06 1.6480445337141060e-06 0.0000000000000000e+00  -1.9236365875077716e-06 2.0357381476206332e-06 0.0000000000000000e+00  -2.4447462587853685e-06 2.4936177123788173e-06 0.0000000000000000e+00  -3.1106900643992080e-06 3.0370429426167357e-06 0.0000000000000000e+00  -3.9711005284361036e-06 3.6846935984320430e-06 0.0000000000000000e+00  -5.0910262802940514e-06 4.4599889135787103e-06 0.0000000000000000e+00  -6.5496962189728137e-06 5.3934438325727574e-06 0.0000000000000000e+00  -8.4269053265881295e-06 6.5267974818215453e-06 0.0000000000000000e+00  -1.0761175107826414e-05 7.9212827370824216e-06 0.0000000000000000e+00  -1.3467321271943197e-05 9.6800657923535027e-06 0.0000000000000000e+00  0.0000000000000000e+00 0.0000000000000000e+00 0.0000000000000000e+00  -1.2047645760782776e-07 1.4087782756396672e-07 0.0000000000000000e+00  -2.4664226013210287e-07 2.8680209012805096e-07 0.0000000000000000e+00  -3.8460031865630456e-07 4.4298080126626984e-07 0.0000000000000000e+00  -5.4132642348174219e-07 6.1493851731790469e-07 0.0000000000000000e+00  -7.2525652871692639e-07 8.0868917624499052e-07 0.0000000000000000e+00  -9.4709253699444710e-07 1.0309301388670663e-06 0.0000000000000000e+00  -1.2209740942160987e-06 1.2892729737192874e-06 0.0000000000000000e+00  -1.5662531217063109e-06 1.5925368684452940e-06 0.0000000000000000e+00  -2.0102528475143267e-06 1.9511477929619533e-06 0.0000000000000000e+00  -2.5926030933681138e-06 2.3777138947274310e-06 0.0000000000000000e+00  -3.3719500538000100e-06 2.8878877878881409e-06 0.0000000000000000e+00  -4.4356358988196610e-06 3.5016739497637244e-06 0.0000000000000000e+00  -5.9107369247097616e-06 4.2453372457027004e-06 0.0000000000000000e+00  -7.9655605892038305e-06 5.1536620998528531e-06 0.0000000000000000e+00  -1.0762325075140403e-05 6.2694566046147617e-06 0.0000000000000000e+00  -1.4271141716926867e-05 7.6202198114209782e-06 0.0000000000000000e+00  0.0000000000000000e+00 0.0000000000000000e+00 0.0000000000000000e+00  -8.3736519090786956e-08 9.6814320112852733e-08 0.0000000000000000e+00  -1.7153341009294848e-07 1.9708343456177597e-07 0.0000000000000000e+00  -2.6776959242937188e-07 3.0437431157383304e-07 0.0000000000000000e+00  -3.7750237111654603e-07 4.2247378910264814e-07 0.0000000000000000e+00  -5.0694224295352171e-07 5.5551109166526774e-07 0.0000000000000000e+00  -6.6413306913263215e-07 7.0809867969476874e-07 0.0000000000000000e+00  -8.5999741999574470e-07 8.8550455773577289e-07 0.0000000000000000e+00  -1.1100363940599609e-06 1.0938772206720878e-06 0.0000000000000000e+00  -1.4372333994623431e-06 1.3405571597571317e-06 0.0000000000000000e+00  -1.8772428299205654e-06 1.6345282604333078e-06 0.0000000000000000e+00  -2.4880269469741267e-06 1.9870924285377025e-06 0.0000000000000000e+00  -3.3681773268408089e-06 2.4129078848758211e-06 0.0000000000000000e+00  -4.6911846589770374e-06 2.9317097429471110e-06 0.0000000000000000e+00  -6.7613796482986164e-06 3.5718679685709488e-06 0.0000000000000000e+00  -1.0050444475164946e-05 4.3814120749916770e-06 0.0000000000000000e+00  -1.4840524731771135e-05 5.4766791231736741e-06 0.0000000000000000e+00  0.0000000000000000e+00 0.0000000000000000e+00 0.0000000000000000e+00  -4.2929086099799269e-08 4.9287788255508888e-08 0.0000000000000000e+00  -8.7974522864117197e-08 1.0033076529854475e-07 0.0000000000000000e+00  -1.3742662546677701e-07 1.5494171194242651e-07 0.0000000000000000e+00  -1.9394839311566850e-07 2.1504635271877507e-07 0.0000000000000000e+00  -2.6084309826894716e-07 2.8274708000063036e-07 0.0000000000000000e+00  -3.4244854671258062e-07 3.6039722249298859e-07 0.0000000000000000e+00  -4.4476572944836762e-07 4.5069326076811959e-07 0.0000000000000000e+00  -5.7653255183374303e-07 5.5679662165470917e-07 0.0000000000000000e+00  -7.5118747523478005e-07 6.8250279199296591e-07 0.0000000000000000e+00  -9.9073980506071699e-07 8.3248270296926712e-07 0.0000000000000000e+00  -1.3340801819846445e-06 1.0126240112976197e-06 0.0000000000000000e+00  -1.8566575516265446e-06 1.2304715714439543e-06 0.0000000000000000e+00  -2.7223332496322508e-06 1.4955877767544544e-06 0.0000000000000000e+00  -4.3357630784527181e-06 1.8187722525773213e-06 0.0000000000000000e+00  -7.8370657671636823e-06 2.2048655947555316e-06 0.0000000000000000e+00  -1.6830240957011281e-05 2.6137965714626649e-06 0.0000000000000000e+00  0.0000000000000000e+00 0.0000000000000000e+00 0.0000000000000000e+00  0.0000000000000000e+00 0.0000000000000000e+00 0.0000000000000000e+00  0.0000000000000000e+00 0.0000000000000000e+00 0.0000000000000000e+00  0.0000000000000000e+00 0.0000000000000000e+00 0.0000000000000000e+00  0.0000000000000000e+00 0.0000000000000000e+00 0.0000000000000000e+00  0.0000000000000000e+00 0.0000000000000000e+00 0.0000000000000000e+00  0.0000000000000000e+00 0.0000000000000000e+00 0.0000000000000000e+00  0.0000000000000000e+00 0.0000000000000000e+00 0.0000000000000000e+00  0.0000000000000000e+00 0.0000000000000000e+00 0.0000