<?xml version="1.0"?>
<VTKFile type="UnstructuredGrid"  version="0.1"  >
<UnstructuredGrid>
<Piece  NumberOfPoints="289" NumberOfCells="512">
<Points>
<DataArray  type="Float64"  NumberOfComponents="3"  format="ascii">0 0 0  0.0625 0 0  0.125 0 0  0.1875 0 0  0.25 0 0  0.3125 0 0  0.375 0 0  0.4375 0 0  0.5 0 0  0.5625 0 0  0.625 0 0  0.6875 0 0  0.75 0 0  0.8125 0 0  0.875 0 0  0.9375 0 0  1 0 0  0 0.0625 0  0.06249815416595301 0.06250172213789351 0  0.1249962539214526 0.06250351839576375 0  0.1874942446558121 0.0625054674442372 0  0.2499920717380549 0.06250765775246979 0  0.3124896809156736 0.06251019435715692 0  0.3749870192163107 0.06251320859065206 0  0.4374840365146858 0.06251687335951729 0  0.4999806879033146 0.06252142911404043 0  0.5624769369600238 0.06252723146244774 0  0.6249727599567556 0.06253484555622096 0  0.6874681511027582 0.06254524976161287 0  0.7499631294301926 0.06256031866433906 0  0.8124577502025239 0.06258409339181011 0  0.8749521324322898 0.06262650359371361 0  0.9374465476407875 0.06271547603509643 0  0.9999417574586568 0.06294017633189694 0  0 0.125 0  0.06249636279929119 0.1250033700143556 0  0.1249926168585413 0.1250068836730023 0  0.1874886528860209 0.1250106930575339 0  0.2499843612160237 0.1250149682964323 0  0.3124796324381322 0.1250199096763353 0  0.3749743590398503 0.125025764494731 0  0.4374684384051067 0.1250328524558467 0  0.4999617774685585 0.1250416066187455 0  0.5624542992167602 0.1250526434283703 0  0.6249459510324756 0.1250668888275227 0  0.6874367146132727 0.1250858152404603 0  0.749926616961654 0.125111898812418 0  0.8124157419826085 0.1251494929241344 0  0.8749042427523597 0.1252063205671275 0  0.9373923538817875 0.1252948052125949 0  0.9998803878282052 0.125425002068805 0  0 0.1875 0  0.06249468033056108 0.187504874117798 0  0.1249891979256289 0.1875099529064748 0  0.1874833888451164 0.1875154522532029 0  0.2499770877559787 0.1875216117944862 0  0.3124701284466103 0.1875287101576698 0  0.3749623458704741 0.1875370851261892 0  0.4374535802810392 0.1875471621282328 0  0.4999436839869566 0.1875594966090696 0  0.5624325311047741 0.1875748394473067 0  0.6249200303303957 0.1875942399663221 0  0.6874061400677799 0.187619206860163 0  0.749890884003537 0.1876519439769804 0  0.8123743626214326 0.187695626251066 0  0.874856749063069 0.1877544510442739 0  0.9373382330304685 0.1878324571440117 0  0.9998187788408802 0.187928539894189 0  0 0.25 0  0.06249316082747536 0.2500061734275841 0  0.1249861058410627 0.2500126012664365 0  0.1874786169232573 0.2500195506905696 0  0.2499704725572052 0.250027315564085 0  0.3124614476882889 0.2500362326360336 0  0.3749513156099441 0.2500467016106604 0  0.4374398527120085 0.2500592111586253 0  0.4999268469693185 0.2500743735429557 0  0.5624121109403005 0.2500929708667748 0  0.6248954996497652 0.2501160146983146 0  0.6873769328691272 0.2501448141495368 0  0.7498564198187042 0.2501810254086667 0  0.8123340822697729 0.2502265961341577 0  0.8748101706958642 0.2502833859543524 0  0.9372850749978854 0.2503520450776071 0  0.9997593865038894 0.2504298063649748 0  0 0.3125 0  0.06249185740179557 0.3125072182024172 0  0.1249834478954465 0.3125147277218053 0  0.1874745005980427 0.3125228331086824 0  0.2499647379461432 0.3125318662222475 0  0.3124538741599153 0.3125422018122584 0  0.3749416161366565 0.3125542754229568 0  0.4374276679414961 0.3125686042478096 0  0.4999117402702691 0.3125858110014287 0  0.5623935663351525 0.3126066492594722 0  0.6248729253646358 0.3126320246842098 0  0.6873496740268644 0.3126629974323093 0  0.7498237842758 0.3127007324341421 0  0.8122953833099428 0.3127463317257979 0  0.8747647881793272 0.312800442741367 0  0.9372325256536913 0.3128625396926832 0  0.9996993241146483 0.3129299814361043 0  0 0.375 0  0.06249082113679362 0.375007971529808 0  0.1249813279376293 0.3750162579823996 0  0.1874711997663739 0.3750251872217353 0  0.2499601045481492 0.3750351134838564 0  0.3124476948891836 0.3750464315672803 0  0.3749336068144851 0.3750595919377498 0  0.4374174626330973 0.3750751163579827 0  0.499898879935783 0.3750936125595451 0  0.5623774891909842 0.3751157842808775 0  0.6248529625683985 0.3751424288636747 0  0.6873250560113648 0.3751744074516835 0  0.7497936645080555 0.3752125621139252 0  0.8122588862669595 0.3752575425681464 0  0.8747210849545549 0.3753095051969429 0  0.9371809317239739 0.3753676924770927 0  0.999639404074193 0.3754300492855707 0  0 0.4375 0  0.06249009940516152 0.4375084097928515 0  0.1249798430920663 0.4375171451188936 0  0.1874688660633804 0.437526543725134 0  0.2499567856122683 0.4375369679987181 0  0.3124431939986733 0.4375488176362198 0  0.3749276535259461 0.4375625423354341 0  0.4374096957835772 0.4375786536823565 0  0.4998888277255493 0.437597734305435 0  0.5623645483623975 0.4376204404427464 0  0.6248363809011441 0.4376474909218558 0  0.6873039255169543 0.4376796309393687 0  0.7497669363052083 0.4377175535248476 0  0.8122254204049301 0.4377617581217345 0  0.8746797459432362 0.4378123320682524 0  0.9371307289753287 0.4378686706144052 0  0.9995796556488569 0.4379292148332452 0  0 0.5 0  0.06248973349621483 0.5000085223674638 0  0.1249790790059141 0.5000173686270216 0  0.1874676357646651 0.5000268739666821 0  0.2499549777562336 0.5000373962207099 0  0.3124406418226978 0.500049327247131 0  0.3749241173191162 0.5000631040310486 0  0.4374048390726433 0.5000792187562343 0  0.4998821867762807 0.5000982263015488 0  0.5623554959595963 0.5001207463558077 0  0.6248240882769981 0.5001474554353045 0  0.6872873314316102 0.5001790614323954 0  0.7497447397801887 0.5002162500839934 0  0.812196121651182 0.5002595896864424 0  0.8746417626560468 0.500309379272974 0  0.9370826011886597 0.5003654293275767 0  0.9995203111117243 0.5004267768310388 0  0 0.5625 0  0.06248975555940722 0.5625083108801148 0  0.124979103590419 0.5625169326959307 0  0.1874676200842306 0.5625261866920517 0  0.2499548476027416 0.5625364147378318 0  0.3124402779191435 0.5625479897047356 0  0.3749233344958074 0.5625613257356609 0  0.4374033560386857 0.5625768880431491 0  0.4998795840787681 0.5625952015571782 0  0.5623511605011406 0.5626168573146468 0  0.6248171456854005 0.5626425149101424 0  0.6872765745467319 0.5626728984615409 0  0.7497285747354452 0.5627087817905412 0  0.8121725727801542 0.562750954042851 0  0.8746085964286981 0.5628001453689087 0  0.9370376236135741 0.5628568663178933 0  0.9994618213806972 0.5629210734604508 0  0 0.625 0  0.06249018500868923 0.6250077882730719 0  0.1249799594969443 0.6250158642144792 0  0.1874688930855068 0.6250245247577741 0  0.2499565142693453 0.6250340853951883 0  0.3124422872755732 0.6250448896967533 0  0.3749255861302885 0.6250573191050144 0  0.4374056658674316 0.6250718031362181 0  0.4998816323942444 0.6250888302866693 0  0.5623524159408877 0.6251089603805576 0  0.6248167597970186 0.6251328400073657 0  0.6872732482410981 0.6251612242059783 0  0.7497204165454625 0.6251950090999514 0  0.8121570076198568 0.6252352786807873 0  0.8745824428351703 0.6252833540891279 0  0.9369975010880711 0.6253407789079125 0  0.9994049599640749 0.6254090259320032 0  0 0.6875 0  0.06249102471839591 0.6875069778013997 0  0.1249816559623416 0.6875142107503119 0  0.1874714780598486 0.6875219621093603 0  0.2499600285733265 0.6875305114388992 0  0.3124467701125884 0.6875401631655857 0  0.3749310560617579 0.6875512557669894 0  0.4374120879374089 0.6875641720722041 0  0.4998888626289769 0.6875793516860396 0  0.5623601100990522 0.6875973076429949 0  0.6248242288616248 0.6876186516662067 0  0.6872792429797705 0.6876441368352455 0  0.7497228393534267 0.6876747343728394 0  0.8121526072697183 0.6877117729447116 0  0.8745666835068643 0.6877571773984847 0  0.9369650077457535 0.687813813662042 0  0.9993509942743691 0.68788575369548 0  0 0.75 0  0.06249225755420076 0.7500059119767266 0  0.1249841611370716 0.7500120384851968 0  0.1874753340763957 0.7500186008586205 0  0.2499653511768924 0.7500258341201144 0  0.3124537076921955 0.7500339943188424 0  0.3749397789966989 0.750043366598712 0  0.4374227658488182 0.7500542745839509 0  0.4999016184454608 0.7500670922067607 0  0.5623749310913997 0.7500822602822178 0  0.6248408007495287 0.7501003127671718 0  0.6872966544573342 0.7501219236521717 0  0.7497390920673697 0.7501479993408301 0  0.812163905411025 0.7501798730173668 0  0.8745666925201334 0.7502197246542019 0  0.9369448836530463 0.7502714683343927 0  0.9993019369819417 0.7503424550872004 0  0 0.8125 0  0.06249384396950445 0.8125046314099543 0  0.1249873964678365 0.8125094299564611 0  0.1874803453258339 0.812514568075967 0  0.2499723336010339 0.8125202288800827 0  0.3124629294970721 0.8125266119195961 0  0.3749515850872644 0.81253393954583 0  0.4374375762834222 0.8125424642467055 0  0.4999199118869923 0.8125524775610025 0  0.5623971919854237 0.8125643216228349 0  0.6248673846593477 0.8125784054521695 0  0.6873274775377994 0.8125952311781272 0  0.7497729652526393 0.8126154453805962 0  0.8121972299354845 0.8126399643294101 0  0.8745913065479436 0.812670331231018 0  0.9369459157792738 0.8127097875278769 0  0.99926038272378 0.8127662971653339 0  0 0.875 0  0.06249572147403473 0.875003183496818 0  0.1249912349561154 0.8750064814522615 0  0.1874863165448742 0.8750100119556898 0  0.2499807076079525 0.8750139004037202 0  0.3124740905419244 0.8750182834325312 0  0.3749660540991776 0.8750233131860576 0  0.4374560402136027 0.8750291619872163 0  0.4999432577673684 0.8750360272708766 0  0.562426535723336 0.8750441359629073 0  0.6249040614312933 0.875053745598617 0  0.6873728953272232 0.8750651346959669 0  0.7498280463890836 0.8750785643520681 0  0.8122607238238707 0.8750941764972912 0  0.8746553736657192 0.8751118071498022 0  0.936987085187686 0.8751310046923981 0  0.9992358442448396 0.8751537253953372 0  0 0.9375 0  0.06249780665090549 0.9375016209218473 0  0.1249955049138331 0.9375032999999177 0  0.1874929777260298 0.9375050972351603 0  0.2499900889765114 0.9375070763363276 0  0.3124866698830256 0.9375093066997126 0  0.3749824989763583 0.9375118655071684 0  0.43747727
[...]
<PointData  Vectors="f_54"> 
<DataArray  type="Float64"  Name="f_54"  NumberOfComponents="3" format="ascii">0.0000000000000000e+00 0.0000000000000000e+00 0.0000000000000000e+00  0.0000000000000000e+00 0.0000000000000000e+00 0.0000000000000000e+00  0.0000000000000000e+00 0.0000000000000000e+00 0.0000000000000000e+00  0.0000000000000000e+00 0.0000000000000000e+00 0.0000000000000000e+00  0.0000000000000000e+00 0.0000000000000000e+00 0.0000000000000000e+00  0.0000000000000000e+00 0.0000000000000000e+00 0.0000000000000000e+00  0.0000000000000000e+00 0.0000000000000000e+00 0.0000000000000000e+00  0.0000000000000000e+00 0.0000000000000000e+00 0.0000000000000000e+00  0.0000000000000000e+00 0.0000000000000000e+00 0.0000000000000000e+00  0.0000000000000000e+00 0.0000000000000000e+00 0.0000000000000000e+00  0.0000000000000000e+00 0.0000000000000000e+00 0.0000000000000000e+00  0.0000000000000000e+00 0.0000000000000000e+00 0.0000000000000000e+00  0.0000000000000000e+00 0.0000000000000000e+00 0.0000000000000000e+00  0.0000000000000000e+00 0.0000000000000000e+00 0.0000000000000000e+00  0.0000000000000000e+00 0.0000000000000000e+00 0.0000000000000000e+00  0.0000000000000000e+00 0.0000000000000000e+00 0.0000000000000000e+00  0.0000000000000000e+00 0.0000000000000000e+00 0.0000000000000000e+00  0.0000000000000000e+00 0.0000000000000000e+00 0.0000000000000000e+00  -2.8820353650628085e-08 4.6005310410066504e-08 0.0000000000000000e+00  -5.8494996785607442e-08 9.4009685174398130e-08 0.0000000000000000e+00  -8.9878691169726779e-08 1.4613604389528609e-07 0.0000000000000000e+00  -1.2382748873104646e-07 2.0477814644205552e-07 0.0000000000000000e+00  -1.6119278372020381e-07 2.7278821027773439e-07 0.0000000000000000e+00  -2.0280738378854613e-07 3.5374716961495683e-07 0.0000000000000000e+00  -2.4946068473990065e-07 4.5238968728354345e-07 0.0000000000000000e+00  -3.0185982452486685e-07 5.7532716879457239e-07 0.0000000000000000e+00  -3.6057304522927089e-07 7.3237558436070826e-07 0.0000000000000000e+00  -4.2594920668944226e-07 9.3919873382374261e-07 0.0000000000000000e+00  -4.9800060285926357e-07 1.2230612990772957e-06 0.0000000000000000e+00  -5.7622121016622275e-07 1.6366684378426367e-06 0.0000000000000000e+00  -6.5930346416366429e-07 2.2953035436825638e-06 0.0000000000000000e+00  -7.4488619193448237e-07 3.4883237358130249e-06 0.0000000000000000e+00  -8.3100365797775712e-07 6.0512940060998479e-06 0.0000000000000000e+00  -9.3083175084084635e-07 1.2725818994398230e-05 0.0000000000000000e+00  0.0000000000000000e+00 0.0000000000000000e+00 0.0000000000000000e+00  -5.6786264802339632e-08 9.0011239982251544e-08 0.0000000000000000e+00  -1.1527889851236824e-07 1.8389383608079263e-07 0.0000000000000000e+00  -1.7718796197093013e-07 2.8574859193563587e-07 0.0000000000000000e+00  -2.4423128544824545e-07 4.0017471176124551e-07 0.0000000000000000e+00  -3.1812534749675985e-07 5.3260536381977550e-07 0.0000000000000000e+00  -4.0056034401136873e-07 6.8977586291245359e-07 0.0000000000000000e+00  -4.9315369874681864e-07 8.8043003786883661e-07 0.0000000000000000e+00  -5.9737622478704664e-07 1.1164586452505083e-06 0.0000000000000000e+00  -7.1444507411551191e-07 1.4148425911447895e-06 0.0000000000000000e+00  -8.4517596237973781e-07 1.8011406200510051e-06 0.0000000000000000e+00  -9.8977742798276172e-07 2.3160052879700587e-06 0.0000000000000000e+00  -1.1475259336463634e-06 3.0276010689910693e-06 0.0000000000000000e+00  -1.3160698852603717e-06 4.0545840568000987e-06 0.0000000000000000e+00  -1.4892479019356191e-06 5.6013532231979835e-06 0.0000000000000000e+00  -1.6481726231198743e-06 7.9640996319546406e-06 0.0000000000000000e+00  -1.7195629450348196e-06 1.1178564237663271e-05 0.0000000000000000e+00  0.0000000000000000e+00 0.0000000000000000e+00 0.0000000000000000e+00  -8.3047015409438141e-08 1.3014749033958076e-07 0.0000000000000000e+00  -1.6864571436650645e-07 2.6580420565413164e-07 0.0000000000000000e+00  -2.5936009877716379e-07 4.1278387893426051e-07 0.0000000000000000e+00  -3.5777869394195796e-07 5.7755488734022839e-07 0.0000000000000000e+00  -4.6650778791045362e-07 7.6766214616893763e-07 0.0000000000000000e+00  -5.8814126988284457e-07 9.9228742471321183e-07 0.0000000000000000e+00  -7.2519832258407550e-07 1.2630428114526019e-06 0.0000000000000000e+00  -8.8002056743358866e-07 1.5951510055933085e-06 0.0000000000000000e+00  -1.0546223308907510e-06 2.0092627072053762e-06 0.0000000000000000e+00  -1.2504932312038912e-06 2.5343014104286925e-06 0.0000000000000000e+00  -1.4683658970924842e-06 3.2118601968495069e-06 0.0000000000000000e+00  -1.7080018161872714e-06 4.1025196485169538e-06 0.0000000000000000e+00  -1.9682036813727408e-06 5.2929262109492908e-06 0.0000000000000000e+00  -2.2479809636350651e-06 6.8963342702227455e-06 0.0000000000000000e+00  -2.5533927873324873e-06 9.0226588849590263e-06 0.0000000000000000e+00  -2.9332725351685197e-06 1.1681432277320292e-05 0.0000000000000000e+00  0.0000000000000000e+00 0.0000000000000000e+00 0.0000000000000000e+00  -1.0675826019682801e-07 1.6477740826304938e-07 0.0000000000000000e+00  -2.1689717171920487e-07 3.3639112097710438e-07 0.0000000000000000e+00  -3.3382616836716008e-07 5.2202295638579470e-07 0.0000000000000000e+00  -4.6101103620180890e-07 7.2958786181469755e-07 0.0000000000000000e+00  -6.0197784965042731e-07 9.6818117362187221e-07 0.0000000000000000e+00  -7.6028635388910877e-07 1.2486361415016293e-06 0.0000000000000000e+00  -9.3946030637089696e-07 1.5842504935167061e-06 0.0000000000000000e+00  -1.1428620620405766e-06 1.9917577934510135e-06 0.0000000000000000e+00  -1.3735011701988995e-06 2.4926277783342657e-06 0.0000000000000000e+00  -1.6337748412736035e-06 3.1147421727028672e-06 0.0000000000000000e+00  -1.9251565506631886e-06 3.8943012479133566e-06 0.0000000000000000e+00  -2.2478844672333125e-06 4.8772020767615343e-06 0.0000000000000000e+00  -2.6007536207364211e-06 6.1175248176585292e-06 0.0000000000000000e+00  -2.9810930804264464e-06 7.6673717074646158e-06 0.0000000000000000e+00  -3.3841233524579470e-06 9.5475835262623596e-06 0.0000000000000000e+00  -3.7937541079762725e-06 1.1690153775952594e-05 0.0000000000000000e+00  0.0000000000000000e+00 0.0000000000000000e+00 0.0000000000000000e+00  -1.2709147047385455e-07 1.9257418360356703e-07 0.0000000000000000e+00  -2.5835930664178036e-07 3.9295960116301586e-07 0.0000000000000000e+00  -3.9803495478244774e-07 6.0932417767269596e-07 0.0000000000000000e+00  -5.5045733263679734e-07 8.5058147205816224e-07 0.0000000000000000e+00  -7.2009874269879370e-07 1.1268187432959244e-06 0.0000000000000000e+00  -9.1155431882927731e-07 1.4497927518764611e-06 0.0000000000000000e+00  -1.1294778029599997e-06 1.8335134583916210e-06 0.0000000000000000e+00  -1.3784439276616668e-06 2.2949219815796969e-06 0.0000000000000000e+00  -1.6627176791833846e-06 2.8546271083430473e-06 0.0000000000000000e+00  -1.9859166278520374e-06 3.5375568643226086e-06 0.0000000000000000e+00  -2.3505689438898637e-06 4.3731350955314992e-06 0.0000000000000000e+00  -2.7576003937982838e-06 5.3940885255904501e-06 0.0000000000000000e+00  -3.2058241802046346e-06 6.6321088180801217e-06 0.0000000000000000e+00  -3.6915332773610686e-06 8.1074830410201912e-06 0.0000000000000000e+00  -4.2083161624668227e-06 9.8096444718425294e-06 0.0000000000000000e+00  -4.7481345508824792e-06 1.1669619148466498e-05 0.0000000000000000e+00  0.0000000000000000e+00 0.0000000000000000e+00 0.0000000000000000e+00  -1.4325076535299390e-07 2.1256220502834540e-07 0.0000000000000000e+00  -2.9141420018995373e-07 4.3354787418822753e-07 0.0000000000000000e+00  -4.4949538455452238e-07 6.7172710131396262e-07 0.0000000000000000e+00  -6.2268025580722339e-07 9.3658331109548473e-07 0.0000000000000000e+00  -8.1639771865760092e-07 1.2386989603044822e-06 0.0000000000000000e+00  -1.0363423934314164e-06 1.5901693436990486e-06 0.0000000000000000e+00  -1.2884356238719314e-06 2.0050369461445714e-06 0.0000000000000000e+00  -1.5786955049689917e-06 2.4997116367337349e-06 0.0000000000000000e+00  -1.9129808015445616e-06 3.0932869672689177e-06 0.0000000000000000e+00  -2.2965727192220103e-06 3.8075582348044218e-06 0.0000000000000000e+00  -2.7335691254085542e-06 4.6663656067824610e-06 0.0000000000000000e+00  -3.2260959496806375e-06 5.6936098172504079e-06 0.0000000000000000e+00  -3.7733939086567153e-06 6.9089836098038974e-06 0.0000000000000000e+00  -4.3709027001344843e-06 8.3204465480146942e-06 0.0000000000000000e+00  -5.0094922900040969e-06 9.9136216110227208e-06 0.0000000000000000e+00  -5.6748213054856192e-06 1.1642338650564915e-05 0.0000000000000000e+00  0.0000000000000000e+00 0.0000000000000000e+00 0.0000000000000000e+00  -1.5449906958884865e-07 2.2412775181509835e-07 0.0000000000000000e+00  -3.1455109039190743e-07 4.5694004078890214e-07 0.0000000000000000e+00  -4.8584961446996220e-07 7.0744595499232868e-07 0.0000000000000000e+00  -6.7436527583464391e-07 9.8531242548810208e-07 0.0000000000000000e+00  -8.8646063778552178e-07 1.3012024282826719e-06 0.0000000000000000e+00  -1.1289686549745200e-06 1.6671142764465340e-06 0.0000000000000000e+00  -1.4092082233121192e-06 2.0967012791013935e-06 0.0000000000000000e+00  -1.7348971034081304e-06 2.6055239562459322e-06 0.0000000000000000e+00  -2.1139067011549899e-06 3.2111407693110170e-06 0.0000000000000000e+00  -2.5537888504022763e-06 3.9328702310845603e-06 0.0000000000000000e+00  -3.0610015411603967e-06 4.7909548895715563e-06 0.0000000000000000e+00  -3.6397862039086905e-06 5.8047455304551865e-06 0.0000000000000000e+00  -4.2907280629282496e-06 6.9894777000208910e-06 0.0000000000000000e+00  -5.0091806996715335e-06 8.3514119445713334e-06 0.0000000000000000e+00  -5.7839314234330261e-06 9.8818386459630514e-06 0.0000000000000000e+00  -6.5966127439885110e-06 1.1551832157615250e-05 0.0000000000000000e+00  0.0000000000000000e+00 0.0000000000000000e+00 0.0000000000000000e+00  -1.6019480771698329e-07 2.2700770381773900e-07 0.0000000000000000e+00  -3.2643984555184458e-07 4.6263401661188116e-07 0.0000000000000000e+00  -5.0498270809390418e-07 7.1579518342244020e-07 0.0000000000000000e+00  -7.0246364157327834e-07 9.9600279886596801e-07 0.0000000000000000e+00  -9.2610017894731881e-07 1.3136602305746182e-06 0.0000000000000000e+00  -1.1838478735705346e-06 1.6803480639623501e-06 0.0000000000000000e+00  -1.4845101764002891e-06 2.1090768616848504e-06 0.0000000000000000e+00  -1.8377498951283607e-06 2.6144655329561990e-06 0.0000000000000000e+00  -2.2539248663044333e-06 3.2127739733094215e-06 0.0000000000000000e+00  -2.7436329833587415e-06 3.9216795251492102e-06 0.0000000000000000e+00  -3.3168168593990233e-06 4.7596449431162750e-06 0.0000000000000000e+00  -3.9812751186082002e-06 5.7447010640578404e-06 0.0000000000000000e+00  -4.7405141888582256e-06 6.8924986682154694e-06 0.0000000000000000e+00  -5.5911349878708919e-06 8.2136118412778841e-06 0.0000000000000000e+00  -6.5204258550112161e-06 9.7102581789750100e-06 0.0000000000000000e+00  -7.5053389920068567e-06 1.1372477688237255e-05 0.0000000000000000e+00  0.0000000000000000e+00 0.0000000000000000e+00 0.0000000000000000e+00  -1.5983904658625330e-07 2.2126570061802048e-07 0.0000000000000000e+00  -3.2602737374525894e-07 4.5078633591034461e-07 0.0000000000000000e+00  -5.0517180089250425e-07 6.9708671240597965e-07 0.0000000000000000e+00  -7.0439727735544939e-07 9.6922603166227289e-07 0.0000000000000000e+00  -9.3161529314735409e-07 1.2770617876837993e-06 0.0000000000000000e+00  -1.1957938648135845e-06 1.6315030193431320e-06 0.0000000000000000e+00  -1.5072093706137104e-06 2.0447378629168992e-06 0.0000000000000000e+00  -1.8776340455674386e-06 2.5304095053970980e-06 0.0000000000000000e+00  -2.3203676027841715e-06 3.1037014854941389e-06 0.0000000000000000e+00  -2.8499504590552301e-06 3.7812814852296096e-06 0.0000000000000000e+00  -3.4813004608920206e-06 4.5810512125378080e-06 0.0000000000000000e+00  -4.2279240500939779e-06 5.5216744947153337e-06 0.0000000000000000e+00  -5.0988641577122877e-06 6.6219230888696834e-06 0.0000000000000000e+00  -6.0943760861798923e-06 7.8999765292907750e-06 0.0000000000000000e+00  -7.2012694157974363e-06 9.3728107839840296e-06 0.0000000000000000e+00  -8.3904083188312773e-06 1.1055379744538861e-05 0.0000000000000000e+00  0.0000000000000000e+00 0.0000000000000000e+00 0.0000000000000000e+00  -1.5313094807586079e-07 2.0726321749755561e-07 0.0000000000000000e+00  -3.1265346804405934e-07 4.2214996176160223e-07 0.0000000000000000e+00  -4.8527176983309122e-07 6.5252594445719809e-07 0.0000000000000000e+00  -6.7832676771737077e-07 9.0673343886729238e-07 0.0000000000000000e+00  -9.0015356350281557e-07 1.1938299819514938e-06 0.0000000000000000e+00  -1.1604804242616634e-06 1.5238244299915979e-06 0.0000000000000000e+00  -1.4708688265261351e-06 1.9079051739744360e-06 0.0000000000000000e+00  -1.8451686610351240e-06 2.3586527814716623e-06 0.0000000000000000e+00  -2.2999085749709430e-06 2.8902290359862160e-06 0.0000000000000000e+00  -2.8544358520323391e-06 3.5185409592109996e-06 0.0000000000000000e+00  -3.5304346006084219e-06 4.2614013298317529e-06 0.0000000000000000e+00  -4.3501745180751830e-06 5.1387636792519719e-06 0.0000000000000000e+00  -5.3325628991096541e-06 6.1732261246495988e-06 0.0000000000000000e+00  -6.4861701306114008e-06 7.3911913852129407e-06 0.0000000000000000e+00  -7.7998263837533900e-06 8.8252151599731945e-06 0.0000000000000000e+00  -9.2354591578255699e-06 1.0517280402655262e-05 0.0000000000000000e+00  0.0000000000000000e+00 0.0000000000000000e+00 0.0000000000000000e+00  -1.4002656589974759e-07 1.8562985784200976e-07 0.0000000000000000e+00  -2.8617663056174557e-07 3.7801361818094067e-07 0.0000000000000000e+00  -4.4492489557865332e-07 5.8411854605905660e-07 0.0000000000000000e+00  -6.2347035659552396e-07 8.1133062966511971e-07 0.0000000000000000e+00  -8.3017227192935355e-07 1.0676705272446241e-06 0.0000000000000000e+00  -1.0750785497817467e-06 1.3620175415460915e-06 0.0000000000000000e+00  -1.3705799435041763e-06 1.7043461652880234e-06 0.0000000000000000e+00  -1.7322131221760241e-06 2.1059834246210838e-06 0.0000000000000000e+00  -2.1795956428393185e-06 2.5799031731799983e-06 0.0000000000000000e+00  -2.7373642845057260e-06 3.1410891390747485e-06 0.0000000000000000e+00  -3.4357232431988610e-06 3.8070286497213529e-06 0.0000000000000000e+00  -4.3096585471260818e-06 4.5984607495236492e-06 0.0000000000000000e+00  -5.3949238118914258e-06 5.5406505605456446e-06 0.0000000000000000e+00  -6.7178162232317147e-06 6.6658752065287095e-06 0.0000000000000000e+00  -8.2763561414005484e-06 8.0189908998712368e-06 0.0000000000000000e+00  -1.0018317289185647e-05 9.6707533956015580e-06 0.0000000000000000e+00  0.0000000000000000e+00 0.0000000000000000e+00 0.0000000000000000e+00  -1.2079271734226465e-07 1.5723407960542706e-07 0.0000000000000000e+00  -2.4709302508848094e-07 3.2014420046300642e-07 0.0000000000000000e+00  -3.8476898124439810e-07 4.9458766869976192e-07 0.0000000000000000e+00  -5.4044120045732812e-07 6.8677755871345431e-07 0.0000000000000000e+00  -7.2196407040574057e-07 9.0347275444245736e-07 0.0000000000000000e+00  -9.3905010042284041e-07 1.1521851919018262e-06 0.0000000000000000e+00  -1.2041151686412535e-06 1.4414163871224392e-06 0.0000000000000000e+00  -1.5334464927625462e-06 1.7809432147156351e-06 0.0000000000000000e+00  -1.9488110778439698e-06 2.1821855947801649e-06 0.0000000000000000e+00  -2.4795868437109497e-06 2.6587067127757207e-06 0.0000000000000000e+00  -3.1652862145350226e-06 3.2269164968364066e-06 0.0000000000000000e+00  -4.0576337150176813e-06 3.9070612516531467e-06 0.0000000000000000e+00  -5.2194686172190797e-06 4.7245823466792007e-06 0.0000000000000000e+00  -6.7136567767308587e-06 5.7120534393760260e-06 0.0000000000000000e+00  -8.5694044403301121e-06 6.9132799423883585e-06 0.0000000000000000e+00  -1.0716833209515069e-05 8.4002459755423714e-06 0.0000000000000000e+00  0.0000000000000000e+00 0.0000000000000000e+00 0.0000000000000000e+00  -9.6044673233428876e-08 1.2315337140240199e-07 0.0000000000000000e+00  -1.9662442224097354e-07 2.5072911325395904e-07 0.0000000000000000e+00  -3.0660390658273637e-07 3.8729356381959493e-07 0.0000000000000000e+00  -4.3154354079143031e-07 5.3769612781339693e-07 0.0000000000000000e+00  -5.7816764960542611e-07 7.0722568357986592e-07 0.0000000000000000e+00  -7.5500687023599948e-07 9.0178886489744786e-07 0.0000000000000000e+00  -9.7333244777628106e-07 1.1281264124073351e-06 0.0000000000000000e+00  -1.2485711771090129e-06 1.3940944797863179e-06 0.0000000000000000e+00  -1.6025051319943351e-06 1.7090547992310957e-06 0.0000000000000000e+00  -2.0667265663695461e-06 2.0844411009181989e-06 0.0000000000000000e+00  -2.6879782857486973e-06 2.5345894519973010e-06 0.0000000000000000e+00  -3.5358307959446616e-06 3.0778871057918512e-06 0.0000000000000000e+00  -4.7113291007685513e-06 3.7380067636456048e-06 0.0000000000000000e+00  -6.3476482740801687e-06 4.5437063478297590e-06 0.0000000000000000e+00  -8.5706697205779122e-06 5.5207371661699613e-06 0.0000000000000000e+00  -1.1346516443884563e-05 6.6516483247152282e-06 0.0000000000000000e+00  0.0000000000000000e+00 0.0000000000000000e+00 0.0000000000000000e+00  -6.6755052995688640e-08 8.4641874467935693e-08 0.0000000000000000e+00  -1.3674672950402655e-07 1.7231340278489076e-07 0.0000000000000000e+00  -2.1346554687971000e-07 2.6614486160400530e-07 0.0000000000000000e+00  -3.0094284863062297e-07 3.6946483140235979e-07 0.0000000000000000e+00  -4.0412942495665133e-07 4.8591284530351063e-07 0.0000000000000000e+00  -5.2943806200061512e-07 6.1957232785451442e-07 0.0000000000000000e+00  -6.8557770377771956e-07 7.7513960179477723e-07 0.0000000000000000e+00  -8.8491052861222108e-07 9.5815638456953030e-07 0.0000000000000000e+00  -1.1457715502325142e-06 1.1753543932033038e-06 0.0000000000000000e+00  -1.4966160038099282e-06 1.4351994510720108e-06 0.0000000000000000e+00  -1.9837265923145470e-06 1.7487935221869305e-06 0.0000000000000000e+00  -2.6858702231001863e-06 2.1314180687262155e-06 0.0000000000000000e+00  -3.7416944671960446e-06 2.6051782793842524e-06 0.0000000000000000e+00  -5.3942591061307123e-06 3.2031740659226289e-06 0.0000000000000000e+00  -8.0185540886378057e-06 3.9735253190316581e-06 0.0000000000000000e+00  -1.1823309357057884e-05 4.9666925484891767e-06 0.0000000000000000e+00  0.0000000000000000e+00 0.0000000000000000e+00 0.0000000000000000e+00  -3.4223149030032538e-08 4.3093555125938065e-08 0.0000000000000000e+00  -7.0133310325736866e-08 8.7727035298902439e-08 0.0000000000000000e+00  -1.0955616594785546e-07 1.3549227564559202e-07 0.0000000000000000e+00  -1.5461455140881076e-07 1.8808361030904748e-07 0.0000000000000000e+00  -2.0794189178652732e-07 2.4735717380770227e-07 0.0000000000000000e+00  -2.7299681884062130e-07 3.1540249102765479e-07 0.0000000000000000e+00  -3.5456514886072413e-07 3.9463634196356775e-07 0.0000000000000000e+00  -4.5961798801851497e-07 4.8793718062754469e-07 0.0000000000000000e+00  -5.9888283769405869e-07 5.9885562322523269e-07 0.0000000000000000e+00  -7.8994484711354688e-07 7.3197571374433945e-07 0.0000000000000000e+00  -1.0639185193108323e-06 8.9360170603018376e-07 0.0000000000000000e+00  -1.4812793333562748e-06 1.0932326069811982e-06 0.0000000000000000e+00  -2.1736829104834967e-06 1.3472021932099026e-06 0.0000000000000000e+00  -3.4671417979262002e-06 1.6890117458979998e-06 0.0000000000000000e+00  -6.2827861073388707e-06 2.2022724185951581e-06 0.0000000000000000e+00  -1.3541505255542145e-05 3.1337881433143914e-06 0.0000000000000000e+00  0.0000000000000000e+00 0.0000000000000000e+00 0.0000000000000000e+00  0.0000000000000000e+00 0.0000000000000000e+00 0.0000000000000000e+00  0.0000000000000000e+00 0.0000000000000000e+00 0.0000000000000000e+00  0.0000000000000000e+00 0.0000000000000000e+00 0.0000000000000000e+00  0.0000000000000000e+00 0.0000000000000000e+00 0.0000000000000000e+00  0.0000000000000000e+00 0.0000000000000000e+00 0.0000000000000000e+00  0.0000000000000000e+00 0.0000000000000000e+00 0.0000000000000000e+00  0.0000000000000000e+00 0.0000000000000000e+00 0.0000000000000000e+00  0.0000000000000000e+00 0.0000000000000000e+00 0.0000