<?xml version="1.0"?>
<VTKFile type="UnstructuredGrid"  version="0.1"  >
<UnstructuredGrid>
<Piece  NumberOfPoints="289" NumberOfCells="512">
<Points>
<DataArray  type="Float64"  NumberOfComponents="3"  format="ascii">0 0 0  0.0625 0 0  0.125 0 0  0.1875 0 0  0.25 0 0  0.3125 0 0  0.375 0 0  0.4375 0 0  0.5 0 0  0.5625 0 0  0.625 0 0  0.6875 0 0  0.75 0 0  0.8125 0 0  0.875 0 0  0.9375 0 0  1 0 0  0 0.0625 0  0.06249819285856729 0.06250164522958414 0  0.1249963322727292 0.06250336200575225 0  0.1874943646359731 0.06250522633745824 0  0.249992236275325 0.06250732385243606 0  0.3124898938181889 0.06250975643526073 0  0.3749872850480635 0.06251265175442826 0  0.4374843604104844 0.06251617819940056 0  0.4999810753130304 0.06252057022561412 0  0.562477393331963 0.0625261747590326 0  0.6249732904219358 0.06253354310653719 0  0.6874687603503798 0.0625436292338034 0  0.7499638222892834 0.06255826005486165 0  0.8124585343200591 0.06258137279143203 0  0.874953026949987 0.06262264208038244 0  0.9374476087526588 0.06270928700660094 0  0.9999431420224161 0.06292828093393514 0  0 0.125 0  0.06249643916362858 0.1250032188282895 0  0.1249927715438185 0.1250065762448923 0  0.1874888898790589 0.1250102191148735 0  0.2499846864515065 0.1250143120275737 0  0.3124800536556296 0.1250190491846261 0  0.3749748855491948 0.1250246709246099 0  0.4374690807231956 0.1250314885845418 0  0.4999625467926962 0.1250399245116919 0  0.5624552067196326 0.1250505803745984 0  0.6249470070208942 0.1250643600140944 0  0.6874379277228009 0.1250827001082511 0  0.7499279938249369 0.1251080150376381 0  0.8124172883036598 0.1251445465628239 0  0.8749059675141079 0.1251998146737555 0  0.9373942794034648 0.1252859053758126 0  0.9998825687901228 0.1254125536261671 0  0 0.1875 0  0.06249479230029946 0.1875046537725332 0  0.1249894248547167 0.1875095048356626 0  0.1874837368178844 0.1875147614870576 0  0.249977565853971 0.1875206553619792 0  0.312470748570038 0.1875274564151624 0  0.374963122426999 0.1875354927354658 0  0.4374545296741176 0.1875451785067955 0  0.499944823824158 0.1875570555194694 0  0.5624338790465366 0.1875718571177977 0  0.6249216025244758 0.1875906086753296 0  0.6874079491829392 0.187614784216794 0  0.7498929370060617 0.1876465353002292 0  0.8123766586179159 0.1876889573414826 0  0.8748592776066201 0.1877461325412534 0  0.937340972527023 0.1878219584362307 0  0.9998216904781293 0.1879152266142573 0  0 0.25 0  0.0624933052641299 0.2500058913697569 0  0.1249863987858848 0.2500120276501769 0  0.1874790666526454 0.2500186662777417 0  0.2499710914730888 0.2500260909247243 0  0.3124622521531705 0.2500346274467092 0  0.3749523256227058 0.2500446636679002 0  0.437441091320342 0.2500566750295457 0  0.4999283392808537 0.2500712587057982 0  0.562413882560882 0.2500891790894468 0  0.6248975743503586 0.2501114262825331 0  0.6873793292708971 0.2501392826374184 0  0.7498591468916023 0.250174370754278 0  0.812337133439334 0.2502185981181722 0  0.874813516255475 0.2502737849133202 0  0.9372886521855623 0.2503405698732003 0  0.9997630864019665 0.2504162758475459 0  0 0.3125 0  0.06249203006691084 0.3125068840002707 0  0.1249837984167882 0.3125140479276012 0  0.1874750395191235 0.3125217846870489 0  0.2499654811470464 0.3125304140141575 0  0.312454842776419 0.3125402978444164 0  0.3749428363220202 0.3125518580396066 0  0.4374291703323765 0.3125655971150602 0  0.4999135589586226 0.3125821220557047 0  0.5623957370739211 0.3126021697130601 0  0.6248754826487806 0.3126266283031295 0  0.6873526466001539 0.3126565405713604 0  0.7498271885306934 0.312693055987446 0  0.8122992139882832 0.3127372676561408 0  0.8747690057521542 0.3127898306734862 0  0.9372370397389793 0.312850262679044 0  0.9997039721874648 0.3129160286006936 0  0 0.375 0  0.06249101667805786 0.375007596639379 0  0.1249817253341327 0.3750154951736024 0  0.1874718118390514 0.3750240101566393 0  0.2499609507270248 0.3750334819924719 0  0.3124488013051441 0.3750442909363967 0  0.3749350062794757 0.3750568721153351 0  0.4374191943478597 0.3750717312441649 0  0.4999009886795673 0.3750894596524519 0  0.5623800236313791 0.3751107450880664 0  0.6248559721788355 0.3751363707007177 0  0.6873285859069133 0.3751671875701059 0  0.7497977473367002 0.3752040356011211 0  0.8122635301903364 0.3752475762251811 0  0.8747262568252399 0.3752980005836023 0  0.9371865348771272 0.3753546218697458 0  0.999645250194561 0.3754155062414191 0  0 0.4375 0  0.06249031137659448 0.4375080073041975 0  0.1249802744136427 0.4375163257569666 0  0.1874695317247705 0.4375252783877409 0  0.2499577084909798 0.4375352122429857 0  0.3124444052214371 0.4375465108452214 0  0.3749291928212516 0.4375596068279846 0  0.437411611665696 0.4375749940262664 0  0.4998911772470535 0.4375932372519167 0  0.5623673960171741 0.4376149761173134 0  0.6248397960403208 0.4376409161803652 0  0.6873079773554023 0.4376717960931258 0  0.7497716852804573 0.4377083138801902 0  0.8122309044147488 0.437750991862725 0  0.8746859601025875 0.4377999658873493 0  0.9371375986231122 0.4378547143669221 0  0.9995870060387508 0.4379138070506738 0  0 0.5 0  0.06248995443617559 0.5000081067216707 0  0.1249795291826487 0.5000165219311873 0  0.1874683320523739 0.5000255649935554 0  0.2499559461066552 0.5000355771145135 0  0.3124419179847243 0.5000469324173835 0  0.3749257477155625 0.5000600489111212 0  0.437406881711029 0.5000753987249832 0  0.4998847119630663 0.5000935162734543 0  0.5623585864074349 0.5001150018408844 0  0.6248278379103723 0.5001405162374594 0  0.6872918417785979 0.5001707594989229 0  0.7497501122838928 0.5002064231078682 0  0.8122024436118197 0.5002481015282527 0  0.874649084035152 0.5002961468735633 0  0.9370908996592378 0.5003504543392742 0  0.9995294447929105 0.5004101823601669 0  0 0.5625 0  0.06248997715055087 0.562507897531778 0  0.1249795557305271 0.5625160900034242 0  0.1874683210241819 0.5625248821247167 0  0.2499558256364184 0.5625345981597613 0  0.3124415725184678 0.5625455918332348 0  0.3749249978263145 0.5625582562538805 0  0.4374054548135607 0.562573033628731 0  0.4998822016231901 0.5625904243304232 0  0.5623543987266628 0.5626109946004828 0  0.624821126358298 0.5626353817649776 0  0.6872814386968303 0.5626642950428982 0  0.7497344782092488 0.5626985079594913 0  0.8121796747401622 0.5627388326835775 0  0.8746170360283583 0.562786052432508 0  0.9370474779313483 0.5628407591600004 0  0.9994730336104025 0.5629030038361256 0  0 0.625 0  0.06249039833949308 0.625007393263033 0  0.1249803953995418 0.6250150581599876 0  0.1874695704299715 0.6250232749115491 0  0.2499574625443832 0.6250323409096696 0  0.3124435481381631 0.6250425795248516 0  0.3749272155929361 0.625054349208803 0  0.43740773720795 0.6250680531234739 0  0.4998842398448168 0.6250841498272532 0  0.5623556791064105 0.6251031662236515 0  0.6248208284863592 0.6251257152651146 0  0.6872783068321471 0.6251525228708678 0  0.749726685951133 0.6251844702176382 0  0.8121647411852254 0.6252226547008398 0  0.8745919100399164 0.6252684527577861 0  0.9370089497417134 0.6253235024053393 0  0.9994185406101352 0.6253893723665378 0  0 0.6875 0  0.06249122065528269 0.6875066172055219 0  0.1249820568696851 0.6875134741816197 0  0.1874721024306264 0.6875208180081492 0  0.2499609055302817 0.687528910372894 0  0.3124479412895895 0.6875380351563284 0  0.374932578368308 0.6875485064787955 0  0.4374140374504649 0.6875606777093934 0  0.4998913399273143 0.6875749525612973 0  0.5623632473933184 0.6875918007886993 0  0.6248281991939305 0.687611783914164 0  0.6872842713828452 0.6876356020833302 0  0.7497292148184117 0.6876641828913762 0  0.8121606922009228 0.6876988456493618 0  0.8745769140824694 0.687741576498801 0  0.9369778773188721 0.6877953886674778 0  0.9993670238197367 0.6878644861716923 0  0 0.75 0  0.06249242721649309 0.7500056012121712 0  0.1249845087155693 0.7500114030621003 0  0.1874758765113011 0.7500176121120717 0  0.249966115334614 0.750024446735576 0  0.3124547324012892 0.7500321432412841 0  0.3749411181362199 0.7500409623608563 0  0.4374244928895997 0.7500511965067413 0  0.4999038330444613 0.7500631787527241 0  0.5623777686016365 0.7500772958370335 0  0.6248444457990269 0.7500940107927189 0  0.6873013599015084 0.7501139088458869 0  0.7497452040990716 0.7501377991958708 0  0.8121718930922531 0.7501669468913775 0  0.8745771731487697 0.7502035851855287 0  0.9369586249260837 0.7502519335439299 0  0.9993198381975532 0.7503197434714345 0  0 0.8125 0  0.06249397927805491 0.812504384412057 0  0.1249876739602812 0.8125089244465534 0  0.1874807791462732 0.8125137801808111 0  0.249972946317613 0.8125191205240649 0  0.3124637540319051 0.8125251276894427 0  0.3749526677199908 0.8125320017108033 0  0.4374389812256554 0.8125399649887125 0  0.4999217282420063 0.8125492668439662 0  0.5623995444212153 0.8125601882005766 0  0.6248704499407965 0.8125730474360044 0  0.6873315102670343 0.8125882126148211 0  0.7497783375106237 0.8126061417930033 0  0.8122044891580881 0.8126275316330372 0  0.8746012456110926 0.8126538404902439 0  0.9369595966111096 0.8126889358086312 0  0.9992788410809558 0.8127432120947632 0  0 0.875 0  0.06249581572218011 0.8750030118240263 0  0.1249914283970161 0.8750061298362237 0  0.1874866193700282 0.8750094631770335 0  0.2499811361549777 0.8750131267929593 0  0.3124746688165116 0.8750172442478069 0  0.3749668161905718 0.8750219502783395 0  0.4374570340751069 0.8750273926411266 0  0.499944551185898 0.8750337321031966 0  0.5624282259509937 0.8750411377430359 0  0.6249062911948452 0.8750497707549404 0  0.6873758803945431 0.8750597412046602 0  0.7498321248705729 0.8750710062554601 0  0.8122664475319237 0.8750831684654045 0  0.8746636811734076 0.8750952591116505 0  0.9369996232387559 0.8751066725031934 0  0.9992554872360275 0.8751270762191358 0  0 0.9375 0  0.06249785502914419 0.9375015328930355 0  0.1249956042583027 0.9375031196102558 0  0.1874931333774669 0.9375048154398852 0  0.249990309521722 0.9375066785276562 0  0.3124869679967701 0.9375087711949656 0  0.3749828927743239 0.9375111609804425 0  0.437477785508
[...]
<PointData  Vectors="f_54"> 
<DataArray  type="Float64"  Name="f_54"  NumberOfComponents="3" format="ascii">0.0000000000000000e+00 0.0000000000000000e+00 0.0000000000000000e+00  0.0000000000000000e+00 0.0000000000000000e+00 0.0000000000000000e+00  0.0000000000000000e+00 0.0000000000000000e+00 0.0000000000000000e+00  0.0000000000000000e+00 0.0000000000000000e+00 0.0000000000000000e+00  0.0000000000000000e+00 0.0000000000000000e+00 0.0000000000000000e+00  0.0000000000000000e+00 0.0000000000000000e+00 0.0000000000000000e+00  0.0000000000000000e+00 0.0000000000000000e+00 0.0000000000000000e+00  0.0000000000000000e+00 0.0000000000000000e+00 0.0000000000000000e+00  0.0000000000000000e+00 0.0000000000000000e+00 0.0000000000000000e+00  0.0000000000000000e+00 0.0000000000000000e+00 0.0000000000000000e+00  0.0000000000000000e+00 0.0000000000000000e+00 0.0000000000000000e+00  0.0000000000000000e+00 0.0000000000000000e+00 0.0000000000000000e+00  0.0000000000000000e+00 0.0000000000000000e+00 0.0000000000000000e+00  0.0000000000000000e+00 0.0000000000000000e+00 0.0000000000000000e+00  0.0000000000000000e+00 0.0000000000000000e+00 0.0000000000000000e+00  0.0000000000000000e+00 0.0000000000000000e+00 0.0000000000000000e+00  0.0000000000000000e+00 0.0000000000000000e+00 0.0000000000000000e+00  0.0000000000000000e+00 0.0000000000000000e+00 0.0000000000000000e+00  -3.4723281067460337e-08 5.2340954201820632e-08 0.0000000000000000e+00  -7.0425121061547094e-08 1.0696533409981058e-07 0.0000000000000000e+00  -1.0807852242979659e-07 1.6630001367266832e-07 0.0000000000000000e+00  -1.4864587165779994e-07 2.3308546220305469e-07 0.0000000000000000e+00  -1.9306669431520080e-07 3.1059364152574774e-07 0.0000000000000000e+00  -2.4223835037750901e-07 4.0294247741706745e-07 0.0000000000000000e+00  -2.9698985066964715e-07 5.1559078360920611e-07 0.0000000000000000e+00  -3.5805253025235406e-07 6.5617963371119934e-07 0.0000000000000000e+00  -4.2603761135275379e-07 8.3607425078772434e-07 0.0000000000000000e+00  -5.0144124029335892e-07 1.0734231490834914e-06 0.0000000000000000e+00  -5.8471542894515827e-07 1.3997885725852290e-06 0.0000000000000000e+00  -6.7647978091520505e-07 1.8760237414029297e-06 0.0000000000000000e+00  -7.7806206848774471e-07 2.6346820264782570e-06 0.0000000000000000e+00  -8.9305887398712549e-07 4.0067816688545515e-06 0.0000000000000000e+00  -1.0331639834135243e-06 6.9432386851653242e-06 0.0000000000000000e+00  -1.2447829725233416e-06 1.4549720803655177e-05 0.0000000000000000e+00  0.0000000000000000e+00 0.0000000000000000e+00 0.0000000000000000e+00  -6.8467783771433730e-08 1.0239806315077159e-07 0.0000000000000000e+00  -1.3889624687348250e-07 2.0921634471007666e-07 0.0000000000000000e+00  -2.1323802216108435e-07 3.2514054821951143e-07 0.0000000000000000e+00  -2.9342988522220269e-07 4.5543293202628649e-07 0.0000000000000000e+00  -3.8136993741470613e-07 6.0632181587352100e-07 0.0000000000000000e+00  -4.7887882933090099e-07 7.8554638974212259e-07 0.0000000000000000e+00  -5.8764369272526559e-07 1.0031801044598906e-06 0.0000000000000000e+00  -7.0914952082375656e-07 1.2729584289821825e-06 0.0000000000000000e+00  -8.4461382204353822e-07 1.6145438786528893e-06 0.0000000000000000e+00  -9.9495845226156892e-07 2.0575852180901234e-06 0.0000000000000000e+00  -1.1608769655839644e-06 2.6492879728872164e-06 0.0000000000000000e+00  -1.3430706824579855e-06 3.4688293383348690e-06 0.0000000000000000e+00  -1.5426390040842083e-06 4.6540943703128073e-06 0.0000000000000000e+00  -1.7609367317193301e-06 6.4433027649209587e-06 0.0000000000000000e+00  -1.9944590009684221e-06 9.1869867063502754e-06 0.0000000000000000e+00  -2.2004187786907078e-06 1.2968289038420775e-05 0.0000000000000000e+00  0.0000000000000000e+00 0.0000000000000000e+00 0.0000000000000000e+00  -1.0025296899845399e-07 1.4803669771158320e-07 0.0000000000000000e+00  -2.0345324777159393e-07 3.0235950251682643e-07 0.0000000000000000e+00  -3.1254405893342636e-07 4.6960620611826489e-07 0.0000000000000000e+00  -4.3045916414828714e-07 6.5717055656451628e-07 0.0000000000000000e+00  -5.6009380553690350e-07 8.7369127658846884e-07 0.0000000000000000e+00  -7.0424781589081575e-07 1.1297036764527604e-06 0.0000000000000000e+00  -8.6553498215443186e-07 1.4385652759514630e-06 0.0000000000000000e+00  -1.0462594048632214e-06 1.8178361807163503e-06 0.0000000000000000e+00  -1.2482734879466854e-06 2.2914085664716853e-06 0.0000000000000000e+00  -1.4728584424962704e-06 2.8928448610839872e-06 0.0000000000000000e+00  -1.7207151772628697e-06 3.6705459705207062e-06 0.0000000000000000e+00  -1.9922399888616315e-06 4.6952053196376835e-06 0.0000000000000000e+00  -2.2884558027382389e-06 6.0682644939860292e-06 0.0000000000000000e+00  -2.6136296926162685e-06 7.9230021714699048e-06 0.0000000000000000e+00  -2.9836619969657286e-06 1.0390164302740816e-05 0.0000000000000000e+00  -3.4604604203785434e-06 1.3480884577094233e-05 0.0000000000000000e+00  0.0000000000000000e+00 0.0000000000000000e+00 0.0000000000000000e+00  -1.2909334862746850e-07 1.8739228362826478e-07 0.0000000000000000e+00  -2.6212007265307915e-07 3.8257804614727154e-07 0.0000000000000000e+00  -4.0302365154087736e-07 5.9374862549716082e-07 0.0000000000000000e+00  -5.5576368612313998e-07 8.2993944873452944e-07 0.0000000000000000e+00  -7.2428926863108245e-07 1.1015468975181387e-06 0.0000000000000000e+00  -9.1246993236881237e-07 1.4209750864829842e-06 0.0000000000000000e+00  -1.1239697764046505e-06 1.8034826063092123e-06 0.0000000000000000e+00  -1.3620542867875346e-06 2.2683205485961519e-06 0.0000000000000000e+00  -1.6293309368828574e-06 2.8402658051087498e-06 0.0000000000000000e+00  -1.9274506412226966e-06 3.5516151711641788e-06 0.0000000000000000e+00  -2.2568477524640056e-06 4.4444932660470835e-06 0.0000000000000000e+00  -2.6166839626333883e-06 5.5726296701865692e-06 0.0000000000000000e+00  -3.0052870612879677e-06 6.9999165152709019e-06 0.0000000000000000e+00  -3.4214340208701609e-06 8.7891132453604158e-06 0.0000000000000000e+00  -3.8660068808742645e-06 1.0968450912579143e-05 0.0000000000000000e+00  -4.3365866945967384e-06 1.3465124957709574e-05 0.0000000000000000e+00  0.0000000000000000e+00 0.0000000000000000e+00 0.0000000000000000e+00  -1.5400339920585865e-07 2.1895773335105948e-07 0.0000000000000000e+00  -3.1291094764120972e-07 4.4681124898413861e-07 0.0000000000000000e+00  -4.8166521315746692e-07 6.9286529879812407e-07 0.0000000000000000e+00  -6.6527806668590522e-07 9.6727934421783471e-07 0.0000000000000000e+00  -8.6882133972853934e-07 1.2815595595109416e-06 0.0000000000000000e+00  -1.0973600640359905e-06 1.6491305483602440e-06 0.0000000000000000e+00  -1.3558019224848796e-06 2.0860116450987350e-06 0.0000000000000000e+00  -1.6486335840541983e-06 2.6116082722389061e-06 0.0000000000000000e+00  -1.9795170070768266e-06 3.2495831846320354e-06 0.0000000000000000e+00  -2.3507342684372833e-06 4.0286534269259767e-06 0.0000000000000000e+00  -2.7625111353122596e-06 4.9828837988151346e-06 0.0000000000000000e+00  -3.2123373206449550e-06 6.1504811141592529e-06 0.0000000000000000e+00  -3.6945613235163608e-06 7.5691012108432010e-06 0.0000000000000000e+00  -4.2008096602064401e-06 9.2644401034340697e-06 0.0000000000000000e+00  -4.7223550596666509e-06 1.1228816625948263e-05 0.0000000000000000e+00  -5.2580293179947443e-06 1.3391656021277985e-05 0.0000000000000000e+00  0.0000000000000000e+00 0.0000000000000000e+00 0.0000000000000000e+00  -1.7401219466913326e-07 2.4162999601550177e-07 0.0000000000000000e+00  -3.5385583537558023e-07 4.9284258947959459e-07 0.0000000000000000e+00  -5.4544642271974671e-07 7.6361561148999169e-07 0.0000000000000000e+00  -7.5485723912377498e-07 1.0647397987474080e-06 0.0000000000000000e+00  -9.8834946140299147e-07 1.4082583743024085e-06 0.0000000000000000e+00  -1.2523341150184675e-06 1.8079387057210624e-06 0.0000000000000000e+00  -1.5532262791033884e-06 2.2797675572013212e-06 0.0000000000000000e+00  -1.8971380078522044e-06 2.8424308575092363e-06 0.0000000000000000e+00  -2.2893419722211963e-06 3.5176771740820968e-06 0.0000000000000000e+00  -2.7334295771718083e-06 4.3303474374446820e-06 0.0000000000000000e+00  -3.2300999617701939e-06 5.3076517746603484e-06 0.0000000000000000e+00  -3.7755776519523656e-06 6.4769736625963692e-06 0.0000000000000000e+00  -4.3598111989028214e-06 7.8611627280727632e-06 0.0000000000000000e+00  -4.9649004269853239e-06 9.4703107291008266e-06 0.0000000000000000e+00  -5.5645793935206866e-06 1.1290389692148264e-05 0.0000000000000000e+00  -6.1252693568583923e-06 1.3273765969896524e-05 0.0000000000000000e+00  0.0000000000000000e+00 0.0000000000000000e+00 0.0000000000000000e+00  -1.8819158059966805e-07 2.5472063586112823e-07 0.0000000000000000e+00  -3.8305358702412807e-07 5.1931054608438648e-07 0.0000000000000000e+00  -5.9140465350894716e-07 8.0400676567017768e-07 0.0000000000000000e+00  -8.2034914793031215e-07 1.1197909968596944e-06 0.0000000000000000e+00  -1.0773754757538664e-06 1.4787708876204541e-06 0.0000000000000000e+00  -1.3703863999777434e-06 1.8945600297566374e-06 0.0000000000000000e+00  -1.7076116513525522e-06 2.3826311821296974e-06 0.0000000000000000e+00  -2.0973256201195553e-06 2.9605853048563229e-06 0.0000000000000000e+00  -2.5472548283498883e-06 3.6482250381256972e-06 0.0000000000000000e+00  -3.0635131425803510e-06 4.4672372390141728e-06 0.0000000000000000e+00  -3.6488583510361968e-06 5.4401749071771626e-06 0.0000000000000000e+00  -4.3000540036019209e-06 6.5883131442114435e-06 0.0000000000000000e+00  -5.0042220622296451e-06 7.9279367992492294e-06 0.0000000000000000e+00  -5.7344484110296699e-06 9.4649220349243204e-06 0.0000000000000000e+00  -6.4458682310970311e-06 1.1188403652086649e-05 0.0000000000000000e+00  -7.0755156497725082e-06 1.3065736531757892e-05 0.0000000000000000e+00  0.0000000000000000e+00 0.0000000000000000e+00 0.0000000000000000e+00  -1.9570109674113627e-07 2.5794075862934150e-07 0.0000000000000000e+00  -3.9876050079844610e-07 5.2566705864033016e-07 0.0000000000000000e+00  -6.1676498511410847e-07 8.1329978270683773e-07 0.0000000000000000e+00  -8.5775145947477813e-07 1.1316296134659785e-06 0.0000000000000000e+00  -1.1304050464130540e-06 1.4924477071793002e-06 0.0000000000000000e+00  -1.4442075571151934e-06 1.9088594658121418e-06 0.0000000000000000e+00  -1.8094858483046027e-06 2.3955531296459246e-06 0.0000000000000000e+00  -2.2372698132207853e-06 2.9689695510110272e-06 0.0000000000000000e+00  -2.7388060581060944e-06 3.6472814400702451e-06 0.0000000000000000e+00  -3.3244769664930708e-06 4.4500392479485714e-06 0.0000000000000000e+00  -4.0017411655517482e-06 5.3972851066875908e-06 0.0000000000000000e+00  -4.7715535751971740e-06 6.5079051083687451e-06 0.0000000000000000e+00  -5.6226083483238194e-06 7.7970512692132283e-06 0.0000000000000000e+00  -6.5228928480432166e-06 9.2727354668726861e-06 0.0000000000000000e+00  -7.4090898996173496e-06 1.0932309997051574e-05 0.0000000000000000e+00  -8.1782595153114488e-06 1.2760456093791864e-05 0.0000000000000000e+00  0.0000000000000000e+00 0.0000000000000000e+00 0.0000000000000000e+00  -1.9585093556822170e-07 2.5137162552680947e-07 0.0000000000000000e+00  -3.9951847420221201e-07 5.1210960231279903e-07 0.0000000000000000e+00  -6.1913656268292401e-07 7.9188322578250886e-07 0.0000000000000000e+00  -8.6347629203276604e-07 1.1009607902049957e-06 0.0000000000000000e+00  -1.1422707738083058e-06 1.4505022921523530e-06 0.0000000000000000e+00  -1.4665323541795088e-06 1.8528352028079397e-06 0.0000000000000000e+00  -1.8488271083513561e-06 2.3216920654579361e-06 0.0000000000000000e+00  -2.3034273501526800e-06 2.8723728330585417e-06 0.0000000000000000e+00  -2.8461822559351088e-06 3.5217730723584978e-06 0.0000000000000000e+00  -3.4938053980146801e-06 4.2881925327821285e-06 0.0000000000000000e+00  -4.2620416315036457e-06 5.1908120805768058e-06 0.0000000000000000e+00  -5.1618025055337116e-06 6.2487124890125199e-06 0.0000000000000000e+00  -6.1918109739019550e-06 7.4793292505564656e-06 0.0000000000000000e+00  -7.3255648126232981e-06 8.8963423835357627e-06 0.0000000000000000e+00  -8.4896212266105495e-06 1.0507342458906991e-05 0.0000000000000000e+00  -9.5300226076662784e-06 1.2312848998582229e-05 0.0000000000000000e+00  0.0000000000000000e+00 0.0000000000000000e+00 0.0000000000000000e+00  -1.8818069020380809e-07 2.3543005758852093e-07 0.0000000000000000e+00  -3.8431972847073603e-07 4.7950664319732033e-07 0.0000000000000000e+00  -5.9677713777611894e-07 7.4114800629349433e-07 0.0000000000000000e+00  -8.3473295907055250e-07 1.0298066514843336e-06 0.0000000000000000e+00  -1.1086507215635005e-06 1.3557347407497201e-06 0.0000000000000000e+00  -1.4307985016099398e-06 1.7302430524502538e-06 0.0000000000000000e+00  -1.8158289580829631e-06 2.1659446522092816e-06 0.0000000000000000e+00  -2.2813865578552120e-06 2.6769687548579363e-06 0.0000000000000000e+00  -2.8486369079435378e-06 3.2791236862937923e-06 0.0000000000000000e+00  -3.5424612507739842e-06 3.9899807835340883e-06 0.0000000000000000e+00  -4.3907620200510077e-06 4.8288419043392009e-06 0.0000000000000000e+00  -5.4217748103317864e-06 5.8165318347557493e-06 0.0000000000000000e+00  -6.6573082224303657e-06 6.9748875203146477e-06 0.0000000000000000e+00  -8.0981190456260937e-06 8.3256004207999699e-06 0.0000000000000000e+00  -9.6942695558047798e-06 9.8874843275567185e-06 0.0000000000000000e+00  -1.1285034934849538e-05 1.1669902519821315e-05 0.0000000000000000e+00  0.0000000000000000e+00 0.0000000000000000e+00 0.0000000000000000e+00  -1.7254663471923035e-07 2.1083393852570224e-07 0.0000000000000000e+00  -3.5279423857064529e-07 4.2932714094099013e-07 0.0000000000000000e+00  -5.4890738383432168e-07 6.6337889198929409e-07 0.0000000000000000e+00  -7.7001113629333417e-07 9.2135978899319718e-07 0.0000000000000000e+00  -1.0267778636102918e-06 1.2123542616840115e-06 0.0000000000000000e+00  -1.3321507628100157e-06 1.5464114865773729e-06 0.0000000000000000e+00  -1.7022613157225341e-06 1.9348095999160567e-06 0.0000000000000000e+00  -2.1575965750771408e-06 2.3903421996059666e-06 0.0000000000000000e+00  -2.7244447353957599e-06 2.9276444251064329e-06 0.0000000000000000e+00  -3.4365518541108164e-06 3.5635900345058050e-06 0.0000000000000000e+00  -4.3366728090311499e-06 4.3178091745304036e-06 0.0000000000000000e+00  -5.4771419172012736e-06 5.2133838598496807e-06 0.0000000000000000e+00  -6.9175070386388803e-06 6.2777165858474433e-06 0.0000000000000000e+00  -8.7154857087060994e-06 7.5432531490302980e-06 0.0000000000000000e+00  -1.0904874608100225e-05 9.0466183121071127e-06 0.0000000000000000e+00  -1.3447805661786375e-05 1.0820994343306738e-05 0.0000000000000000e+00  0.0000000000000000e+00 0.0000000000000000e+00 0.0000000000000000e+00  -1.4920462103805112e-07 1.7856928226988606e-07 0.0000000000000000e+00  -3.0539308468746843e-07 3.6357606351607694e-07 0.0000000000000000e+00  -4.7603297364670578e-07 5.6166272568000371e-07 0.0000000000000000e+00  -6.6960698633454217e-07 7.7987469344599602e-07 0.0000000000000000e+00  -8.9627205381084479e-07 1.0258767499342462e-06 0.0000000000000000e+00  -1.1687280643264866e-06 1.3081908941167404e-06 0.0000000000000000e+00  -1.5034168106106393e-06 1.6364719929520082e-06 0.0000000000000000e+00  -1.9222209732003340e-06 2.0218495517247779e-06 0.0000000000000000e+00  -2.4548934509813653e-06 2.4773855193835084e-06 0.0000000000000000e+00  -3.1424942463697304e-06 3.0187351362682642e-06 0.0000000000000000e+00  -4.0420635664036688e-06 3.6651587424710440e-06 0.0000000000000000e+00  -5.2324110071934436e-06 4.4411264736908684e-06 0.0000000000000000e+00  -6.8198910220951171e-06 5.3788876251402930e-06 0.0000000000000000e+00  -8.9413221705673469e-06 6.5225188425961301e-06 0.0000000000000000e+00  -1.1762122844105057e-05 7.9341088127004871e-06 0.0000000000000000e+00  -1.5489319541405079e-05 9.7039186081763880e-06 0.0000000000000000e+00  0.0000000000000000e+00 0.0000000000000000e+00 0.0000000000000000e+00  -1.1887097467143384e-07 1.3985745748371677e-07 0.0000000000000000e+00  -2.4352938751408982e-07 2.8473163301979747e-07 0.0000000000000000e+00  -3.8020902612983581e-07 4.3980282471380815e-07 0.0000000000000000e+00  -5.3609037094574886e-07 6.1057418548894012e-07 0.0000000000000000e+00  -7.1994516181052859e-07 8.0305191633201526e-07 0.0000000000000000e+00  -9.4302952101843171e-07 1.0239536617508337e-06 0.0000000000000000e+00  -1.2203943282423299e-06 1.2809670785239442e-06 0.0000000000000000e+00  -1.5728852748781304e-06 1.5830967089120241e-06 0.0000000000000000e+00  -2.0302784538257427e-06 1.9411662305662312e-06 0.0000000000000000e+00  -2.6362687796119843e-06 2.3685949576287872e-06 0.0000000000000000e+00  -3.4563863525266217e-06 2.8826619108326428e-06 0.0000000000000000e+00  -4.5901360243854082e-06 3.5066490490410764e-06 0.0000000000000000e+00  -6.1877537474702036e-06 4.2736000025796287e-06 0.0000000000000000e+00  -8.4669847609985775e-06 5.2330384370076293e-06 0.0000000000000000e+00  -1.1711728067777345e-05 6.4623499193627667e-06 0.0000000000000000e+00  -1.6236752529181973e-05 8.0783523938099177e-06 0.0000000000000000e+00  0.0000000000000000e+00 0.0000000000000000e+00 0.0000000000000000e+00  -8.2742183260191464e-08 9.6119753889606908e-08 0.0000000000000000e+00  -1.6963328409175306e-07 1.9567715058500828e-07 0.0000000000000000e+00  -2.6516758451872860e-07 3.0222466189940413e-07 0.0000000000000000e+00  -3.7457789288957580e-07 4.1954215358384270e-07 0.0000000000000000e+00  -5.0435629735408864e-07 5.5176768919803202e-07 0.0000000000000000e+00  -6.6300264580689365e-07 7.0355428994124960e-07 0.0000000000000000e+00  -8.6217332677094566e-07 8.8027298238954029e-07 0.0000000000000000e+00  -1.1185354973589303e-06 1.0882972271362006e-06 0.0000000000000000e+00  -1.4568898431502500e-06 1.3354299955660499e-06 0.0000000000000000e+00  -1.9156325897453228e-06 1.6315814687819085e-06 0.0000000000000000e+00  -2.5566165597762052e-06 1.9898922168844692e-06 0.0000000000000000e+00  -3.4832475338500801e-06 2.4286774295090824e-06 0.0000000000000000e+00  -4.8728248740454674e-06 2.9750348910369424e-06 0.0000000000000000e+00  -7.0252957184768383e-06 3.6725575140311230e-06 0.0000000000000000e+00  -1.0377909419901295e-05 4.6024507108204790e-06 0.0000000000000000e+00  -1.5086122249204718e-05 5.9611994713479739e-06 0.0000000000000000e+00  0.0000000000000000e+00 0.0000000000000000e+00 0.0000000000000000e+00  -4.2457732328268568e-08 4.8936591124295198e-08 0.0000000000000000e+00  -8.7083674041475533e-08 9.9620790550292472e-08 0.0000000000000000e+00  -1.3623499319178189e-07 1.5385960728325063e-07 0.0000000000000000e+00  -1.9267504881065771e-07 2.1357796224663371e-07 0.0000000000000000e+00  -2.5986617505424172e-07 2.8088779293837513e-07 0.0000000000000000e+00  -3.4240042211428909e-07 3.5817259511021437e-07 0.0000000000000000e+00  -4.4668059347122858e-07 4.4819944120983387e-07 0.0000000000000000e+00  -5.8206352444741607e-07 5.5427897035052582e-07 0.0000000000000000e+00  -7.6289497402718395e-07 6.8050797905474101e-07 0.0000000000000000e+00  -1.0123761048929330e-06 8.3215087266564045e-07 0.0000000000000000e+00  -1.3705138428809078e-06 1.0162411935916397e-06 0.0000000000000000e+00  -1.9121380762541344e-06 1.2424737212806911e-06 0.0000000000000000e+00  -2.7927164404748830e-06 1.5242031097722312e-06 0.0000000000000000e+00  -4.3802932157640744e-06 1.8778743269951063e-06 0.0000000000000000e+00  -7.6827412715409267e-06 2.3118991378666506e-06 0.0000000000000000e+00  -1.5860845717455174e-05 2.7621777546397868e-06 0.0000000000000000e+00  0.0000000000000000e+00 0.0000000000000000e+00 0.0000000000000000e+00  0.0000000000000000e+00 0.0000000000000000e+00 0.0000000000000000e+00  0.0000000000000000e+00 0.0000000000000000e+00 0.0000000000000000e+00  0.0000000000000000e+00 0.0000000000000000e+00 0.0000000000000000e+00  0.0000000000000000e+00 0.0000000000000000e+00 0.0000000000000000e+00  0.0000000000000000e+00 0.0000000000000000e+00 0.0000000000000000e+00  0.0000000000000000e+00 0.0000000000000000e+00 0.0000000000000000e+00  0.0000000000000000e+00 0.0000000000000000e+00 0.0000000000000000e+00  0.0000000000000000e+00 0.0000000000000000e+00 0.0000