<?xml version="1.0"?>
<VTKFile type="UnstructuredGrid"  version="0.1"  >
<UnstructuredGrid>
<Piece  NumberOfPoints="289" NumberOfCells="512">
<Points>
<DataArray  type="Float64"  NumberOfComponents="3"  format="ascii">0 0 0  0.0625 0 0  0.125 0 0  0.1875 0 0  0.25 0 0  0.3125 0 0  0.375 0 0  0.4375 0 0  0.5 0 0  0.5625 0 0  0.625 0 0  0.6875 0 0  0.75 0 0  0.8125 0 0  0.875 0 0  0.9375 0 0  1 0 0  0 0.0625 0  0.06250099159384497 0.06249941105753239 0  0.1250020130333037 0.06249879276008949 0  0.1875030939144268 0.0624981135833629 0  0.2500042639631428 0.06249733724922276 0  0.31250555286104 0.0624964194758143 0  0.3750069898064821 0.06249530337144221 0  0.4375086027140827 0.06249391233173938 0  0.5000104169519278 0.06249213819476725 0  0.5625124535009677 0.06248981987022776 0  0.6250147263479618 0.06248670143807832 0  0.6875172386274478 0.06248234227288857 0  0.7500199759417435 0.06247590456386269 0  0.8125228914039077 0.06246559601711597 0  0.8750258630178626 0.06244704327655574 0  0.9375285551833525 0.06240802030029761 0  1.000029975315563 0.06230960512150661 0  0 0.125 0  0.06250195359248097 0.1249988511317651 0  0.1250039667347283 0.1249976457319891 0  0.1875060986094938 0.1249963232283865 0  0.2500084088321103 0.124994814243727 0  0.3125109571975921 0.1249930347192926 0  0.3750138029041435 0.124990877822883 0  0.4375170030613558 0.1249882019552063 0  0.5000206102965613 0.1249848117866686 0  0.5625246692929167 0.1249804264195411 0  0.6250292121199987 0.124974622852291 0  0.6875342522196469 0.1249667305766437 0  0.7500397768535534 0.1249556285111958 0  0.8125457379730088 0.1249393547709512 0  0.8750520441587676 0.1249144254747279 0  0.9375585743865676 0.1248751365245003 0  1.000065335073729 0.1248161080908274 0  0 0.1875 0  0.06250285662642531 0.187498347349833 0  0.125005802156287 0.1874966150877769 0  0.1875089252649038 0.1874947182055252 0  0.2500123157048961 0.1874925600350329 0  0.312516064164687 0.1874900247377256 0  0.3750202613535232 0.1874869673973816 0  0.4375249960187692 0.1874832001825929 0  0.5000303516123235 0.1874784721443856 0  0.5625364013886882 0.1874724387171997 0  0.6250432018804379 0.1874646147719949 0  0.6875507850241779 0.1874543028567621 0  0.7500591498397235 0.1874404906886392 0  0.8125682558606239 0.1874217381612161 0  0.8750780234058464 0.187396189567973 0  0.9375883515951164 0.1873622353833805 0  1.000099164928018 0.1873213219471244 0  0 0.25 0  0.0625036715815671 0.2499979227582624 0  0.1250074606979914 0.249995748305951 0  0.1875114851578706 0.2499933732825791 0  0.2500158649922977 0.2499906811748205 0  0.312520722710344 0.2499875341831278 0  0.3750261825496653 0.2499837630228499 0  0.4375323683035376 0.2499791536665179 0  0.5000393992938869 0.2499734298314115 0  0.5625473841296286 0.2499662300020885 0  0.6250564121216503 0.2499570785788944 0  0.6875665427364076 0.2499453541518123 0  0.75007779441777 0.2499302685099382 0  0.812590135697755 0.2499108978456782 0  0.8751034839942081 0.2498863673866405 0  0.9376177210484422 0.2498563692670726 0  1.000132739446381 0.2498220658801537 0  0 0.3125 0  0.06250436993767935 0.3124975949441748 0  0.1250088847110291 0.3124950813228684 0  0.1875136903725071 0.3124923442407498 0  0.2500189369795332 0.3124892554102526 0  0.3125247796305025 0.3124856651876791 0  0.3750313783113685 0.3124813930686977 0  0.4375388959828106 0.3124762162025493 0  0.5000474942518409 0.3124698557896037 0  0.5625573259637159 0.3124619620838122 0  0.62506852422836 0.3124521007870255 0  0.6875811879134001 0.3124397481176485 0  0.7500953646517572 0.3124243106493423 0  0.8126110339462523 0.312405200671041 0  0.8751280945045793 0.3123820140558108 0  0.9376463595355099 0.3123548488103438 0  1.000165555464189 0.3123246958956297 0  0 0.375 0  0.06250492435911896 0.374997375275611 0  0.1250100186179987 0.3749946370411976 0  0.1875154553127261 0.3749916657589198 0  0.2500214134969825 0.3749883292710262 0  0.3125280810365721 0.3749844755170421 0  0.3750356556351869 0.3749799241593037 0  0.4375443438596904 0.3749744570041416 0  0.500054357207118 0.3749678076016527 0  0.5625659040580268 0.3749596514903284 0  0.6250791763221837 0.3749496006811148 0  0.6875943299249667 0.3749372096966598 0  0.7501114593026239 0.3749220059672389 0  0.8126305680041906 0.3749035629507921 0  0.8751515401285856 0.3748816331094913 0  0.9376741193662222 0.3748563332268737 0  1.000197901155956 0.3748283033788747 0  0 0.4375 0  0.06250530960184271 0.4374972687326803 0  0.1250108106900464 0.4374944250865216 0  0.187516699256273 0.4374913513374439 0  0.2500231810633989 0.4374879186823276 0  0.3125304757472734 0.4374839809446348 0  0.3750388197680086 0.4374793674386254 0  0.4375484673550207 0.4374738749151076 0  0.500059688159469 0.4374672589096798 0  0.562572759805007 0.4374592256743548 0  0.6250879530369827 0.4374494275272189 0  0.6876055070137824 0.4374374672371333 0  0.7501255930365555 0.4374229208799081 0  0.8126482675264792 0.4374053918356436 0  0.8751734201483672 0.4373846061552171 0  0.9377007304826068 0.4373605415651559 0  1.000229653968129 0.4373335402495636 0  0 0.5 0  0.06250550377483848 0.4999972742357108 0  0.1250112155754419 0.4999944425707405 0  0.1875173501389264 0.4999913947397419 0  0.2500241358432618 0.4999880115317238 0  0.3125318211732587 0.4999841597179012 0  0.3750406804691421 0.4999796862277587 0  0.4375510181041921 0.4999744112981377 0  0.5000631695702594 0.4999681203973272 0  0.5625774969725759 0.4999605550343132 0  0.6250943751747721 0.4999514034105397 0  0.6876141635763257 0.4999402938036558 0  0.7501371581018534 0.4999267973270246 0  0.8126635202583888 0.4999104526342336 0  0.875193187954179 0.4998908312041159 0  0.9377257886844134 0.4998676590998836 0  1.000260596938995 0.4998409768457383 0  0 0.5625 0  0.06250548994928749 0.5624973853647021 0  0.1250111975903834 0.5624946756209863 0  0.1875173496509438 0.5624917725066025 0  0.2500241906641764 0.5624885714182366 0  0.3125319922446017 0.5624849578271338 0  0.3750410625048323 0.5624808030379611 0  0.4375517550166633 0.5624759587374498 0  0.5000644758735884 0.5624702493873872 0  0.5625796859473454 0.5624634609648929 0  0.6250978931001128 0.562455324043613 0  0.6876196258662963 0.5624454895422248 0  0.750145376693073 0.5624334987841827 0  0.8126755019847788 0.5624187601438897 0  0.875210074415405 0.562400568114249 0  0.9377487104108627 0.562378235967244 0  1.00029044631839 0.5623514315181799 0  0 0.625 0  0.06250525803942139 0.6249975913819015 0  0.1250107346448347 0.6249951015006228 0  0.1875166595278678 0.6249924472968414 0  0.2500232841035367 0.6249895423021469 0  0.3125308937239473 0.6249862948562195 0  0.375039821378251 0.6249826059972144 0  0.4375504629133114 0.6249783663521753 0  0.5000632930351625 0.6249734504954957 0  0.562578879644537 0.6249677056266553 0  0.6250978906928837 0.624960928742506 0  0.6876210817292809 0.6249528230429485 0  0.7501492430399013 0.6249429228162927 0  0.8126830747997665 0.6249304857427196 0  0.8752229572778648 0.6249143938429061 0  0.9377686186994573 0.6248932067924792 0  1.000318822557875 0.6248656404567881 0  0 0.6875 0  0.06250480678450898 0.6874978784836671 0  0.1250098224772194 0.6874956912037535 0  0.1875152685993503 0.6874933719682578 0  0.2500213912097589 0.6874908541678489 0  0.3125284757129608 0.6874880710449814 0  0.3750368648055962 0.6874849563836295 0  0.4375469807318829 0.6874814452695563 0  0.500059352734888 0.687477473561853 0  0.5625746493909505 0.6874729723319198 0  0.6250937120913113 0.6874678483688896 0  0.6876175777098313 0.6874619318935251 0  0.7501474612285142 0.6874548569753284 0  0.8126846384990677 0.6874458273381385 0  0.8752301306338156 0.6874332536072156 0  0.9377840897040766 0.6874144516538803 0  1.000344961694948 0.6873861134078324 0  0 0.75 0  0.06250414555201891 0.7499982311925439 0  0.1250084786273132 0.7499964123818694 0  0.1875131997289174 0.7499944943065017 0  0.2500185347376045 0.7499924298859381 0  0.3125247511624639 0.7499901764961354 0  0.3750321791777975 0.7499876998022269 0  0.4375412400591807 0.7499849797437622 0  0.5000524854645799 0.7499820188645879 0  0.5625666516345554 0.7499788514262201 0  0.6250847316938926 0.7499755461215921 0  0.6876080630189518 0.7499721795660026 0  0.7501384054833895 0.7499687192183109 0  0.8126779299216252 0.749964675233407 0  0.8752289145542244 0.7499582803083954 0  0.9377927696685026 0.7499451128970398 0  1.000368031180247 0.7499177576512215 0  0 0.8125 0  0.06250329558425852 0.8124986337481257 0  0.1250067453386295 0.8124972323363879 0  0.1875105153041343 0.812495762072813 0  0.250014794906708 0.8124941930656822 0  0.3125198126993314 0.8124925029058799 0  0.3750258578834416 0.8124906830389163 0  0.4375333115005254 0.8124887497765718 0  0.5000426935213346 0.8124867630497193 0  0.5625547358533824 0.8124848574122745 0  0.6250704967794192 0.8124832898933226 0  0.6875915378049113 0.8124825008557313 0  0.7501201792029548 0.8124831402340686 0  0.8126597969873203 0.8124858456884299 0  0.8752149054190719 0.8124900430175214 0  0.9377901557403805 0.8124898748431748 0  1.000386675448323 0.812465548866548 0  0 0.875 0  0.06250229026828222 0.8749990712861753 0  0.1250046904463065 0.8749981206237936 0  0.1875073195834296 0.8749971276213399 0  0.2500103148686366 0.8749960758248989 0  0.3125138443267117 0.8749949565744677 0  0.3750181249280916 0.8749937759530395 0  0.4375234503056504 0.8749925677099153 0  0.5000302356377703 0.8749914179204257 0  0.5625390939896542 0.8749905133155423 0  0.6250509720597667 0.8749902382906245 0  0.6875674007324061 0.8749913714261132 0  0.7500909668659432 0.8749954706773212 0  0.8126261792153958 0.8750055131673815 0  0.875180809073922 0.875026215799933 0  0.9377663626369128 0.8750589444365972 0  1.000387067519757 0.8750598499444205 0  0 0.9375 0  0.06250117407276845 0.9374995305583039 0  0.1250024054003648 0.9374990506859843 0  0.187503756227271 0.937498550943742 0  0.2500052987554966 0.9374980243866322 0  0.3125071222928193 0.9374974690525765 0  0.3750093437378009 0.9374968925893576 0  0.43751212422673 0.937496321
[...]
<PointData  Vectors="f_54"> 
<DataArray  type="Float64"  Name="f_54"  NumberOfComponents="3" format="ascii">0.0000000000000000e+00 0.0000000000000000e+00 0.0000000000000000e+00  0.0000000000000000e+00 0.0000000000000000e+00 0.0000000000000000e+00  0.0000000000000000e+00 0.0000000000000000e+00 0.0000000000000000e+00  0.0000000000000000e+00 0.0000000000000000e+00 0.0000000000000000e+00  0.0000000000000000e+00 0.0000000000000000e+00 0.0000000000000000e+00  0.0000000000000000e+00 0.0000000000000000e+00 0.0000000000000000e+00  0.0000000000000000e+00 0.0000000000000000e+00 0.0000000000000000e+00  0.0000000000000000e+00 0.0000000000000000e+00 0.0000000000000000e+00  0.0000000000000000e+00 0.0000000000000000e+00 0.0000000000000000e+00  0.0000000000000000e+00 0.0000000000000000e+00 0.0000000000000000e+00  0.0000000000000000e+00 0.0000000000000000e+00 0.0000000000000000e+00  0.0000000000000000e+00 0.0000000000000000e+00 0.0000000000000000e+00  0.0000000000000000e+00 0.0000000000000000e+00 0.0000000000000000e+00  0.0000000000000000e+00 0.0000000000000000e+00 0.0000000000000000e+00  0.0000000000000000e+00 0.0000000000000000e+00 0.0000000000000000e+00  0.0000000000000000e+00 0.0000000000000000e+00 0.0000000000000000e+00  0.0000000000000000e+00 0.0000000000000000e+00 0.0000000000000000e+00  0.0000000000000000e+00 0.0000000000000000e+00 0.0000000000000000e+00  1.0090578741955220e-07 -1.0663868561434765e-07 0.0000000000000000e+00  2.0479769214560989e-07 -2.1794728353340831e-07 0.0000000000000000e+00  3.1466989826271182e-07 -3.3889492778264994e-07 0.0000000000000000e+00  4.3352017423157084e-07 -4.7508879532588049e-07 0.0000000000000000e+00  5.6432891637499134e-07 -6.3321516274875264e-07 0.0000000000000000e+00  7.1001023636883314e-07 -8.2167254619292207e-07 0.0000000000000000e+00  8.7332531967239806e-07 -1.0515641209043399e-06 0.0000000000000000e+00  1.0567483780955372e-06 -1.3383809660682867e-06 0.0000000000000000e+00  1.2622752701227610e-06 -1.7050841106863008e-06 0.0000000000000000e+00  1.4911611925200484e-06 -2.1882166642183909e-06 0.0000000000000000e+00  1.7435565672680578e-06 -2.8511318288726307e-06 0.0000000000000000e+00  2.0179499156891211e-06 -3.8155470958597312e-06 0.0000000000000000e+00  2.3101459833117282e-06 -5.3452638453441049e-06 0.0000000000000000e+00  2.6110395570944957e-06 -8.0942746054580515e-06 0.0000000000000000e+00  2.9015590055504276e-06 -1.3925302021060084e-05 0.0000000000000000e+00  3.1436285279649955e-06 -2.8885652942923940e-05 0.0000000000000000e+00  0.0000000000000000e+00 0.0000000000000000e+00 0.0000000000000000e+00  1.9882681503520841e-07 -2.0860896762006943e-07 0.0000000000000000e+00  4.0362001884234538e-07 -4.2626105931597996e-07 0.0000000000000000e+00  6.2037097384230055e-07 -6.6255439659922898e-07 0.0000000000000000e+00  8.5509660195908750e-07 -9.2826313941648799e-07 0.0000000000000000e+00  1.1138070779288264e-06 -1.2361279357067903e-06 0.0000000000000000e+00  1.4024177612032156e-06 -1.6019552682562029e-06 0.0000000000000000e+00  1.7265855315700155e-06 -2.0462712125008611e-06 0.0000000000000000e+00  2.0914504873961152e-06 -2.5969808467958248e-06 0.0000000000000000e+00  2.5012665109026088e-06 -3.2939029714922640e-06 0.0000000000000000e+00  2.9589069813303775e-06 -4.1969131727028285e-06 0.0000000000000000e+00  3.4652266024034702e-06 -5.4012025468991523e-06 0.0000000000000000e+00  4.0182161956113286e-06 -7.0665926626121644e-06 0.0000000000000000e+00  4.6116915598499271e-06 -9.4729643744708643e-06 0.0000000000000000e+00  5.2324490130326869e-06 -1.3111722036429842e-05 0.0000000000000000e+00  5.8512825361239340e-06 -1.8745922421158784e-05 0.0000000000000000e+00  6.3864604928842516e-06 -2.6815617851935792e-05 0.0000000000000000e+00  0.0000000000000000e+00 0.0000000000000000e+00 0.0000000000000000e+00  2.9078117656815332e-07 -3.0153606790247847e-07 0.0000000000000000e+00  5.9048784901325858e-07 -6.1593761067557628e-07 0.0000000000000000e+00  9.0810484926925457e-07 -9.5680773709395152e-07 0.0000000000000000e+00  1.2527009639318634e-06 -1.3392979927646287e-06 0.0000000000000000e+00  1.6334046359543991e-06 -1.7811052587006388e-06 0.0000000000000000e+00  2.0592965433021534e-06 -2.3037920348927740e-06 0.0000000000000000e+00  2.5391878662030245e-06 -2.9346507096529301e-06 0.0000000000000000e+00  3.0812540469299685e-06 -3.7094702437716402e-06 0.0000000000000000e+00  3.6925006805374205e-06 -4.6767920539105923e-06 0.0000000000000000e+00  4.3780556704642215e-06 -5.9045799974857924e-06 0.0000000000000000e+00  5.1403190424327279e-06 -7.4905768987713181e-06 0.0000000000000000e+00  5.9780865050707214e-06 -9.5773407419156910e-06 0.0000000000000000e+00  6.8860121486855641e-06 -1.2369495524726935e-05 0.0000000000000000e+00  7.8557392820750649e-06 -1.6135892257056346e-05 0.0000000000000000e+00  8.8843638569371507e-06 -2.1133947250463573e-05 0.0000000000000000e+00  1.0016749731682378e-05 -2.7316033951068865e-05 0.0000000000000000e+00  0.0000000000000000e+00 0.0000000000000000e+00 0.0000000000000000e+00  3.7380862521065765e-07 -3.8159671785384709e-07 0.0000000000000000e+00  7.5944744507913430e-07 -7.7914876112607836e-07 0.0000000000000000e+00  1.1688658718699919e-06 -1.2094494530067754e-06 0.0000000000000000e+00  1.6142092487068681e-06 -1.6910316604537937e-06 0.0000000000000000e+00  2.1078321027544516e-06 -2.2452293752864683e-06 0.0000000000000000e+00  2.6622025162173308e-06 -2.8974985359610919e-06 0.0000000000000000e+00  3.2896524183265566e-06 -3.6791336911750245e-06 0.0000000000000000e+00  4.0019265690527827e-06 -4.6295556704821202e-06 0.0000000000000000e+00  4.8094892989399552e-06 -5.7993645267744170e-06 0.0000000000000000e+00  5.7205711847865476e-06 -7.2542652060834509e-06 0.0000000000000000e+00  6.7399900720534201e-06 -9.0795300743765270e-06 0.0000000000000000e+00  7.8678775046719184e-06 -1.1383220196484311e-05 0.0000000000000000e+00  9.0985875015090472e-06 -1.4292546951523384e-05 0.0000000000000000e+00  1.0420146730110630e-05 -1.7929397260859161e-05 0.0000000000000000e+00  1.1813668943966829e-05 -2.2338909256607048e-05 0.0000000000000000e+00  1.3243922442624265e-05 -2.7350219598924674e-05 0.0000000000000000e+00  0.0000000000000000e+00 0.0000000000000000e+00 0.0000000000000000e+00  4.4500398470814212e-07 -4.4570091577019024e-07 0.0000000000000000e+00  9.0462906377950649e-07 -9.0961436985251216e-07 0.0000000000000000e+00  1.3937077441445562e-06 -1.4108181454451344e-06 0.0000000000000000e+00  1.9274490682598613e-06 -1.9701656576190592e-06 0.0000000000000000e+00  2.5215296654424234e-06 -2.6113082829371378e-06 0.0000000000000000e+00  3.1920550645603355e-06 -3.3618802684134321e-06 0.0000000000000000e+00  3.9553291301688142e-06 -4.2548928147986836e-06 0.0000000000000000e+00  4.8273590033494945e-06 -5.3303486833951122e-06 0.0000000000000000e+00  5.8230201898518444e-06 -6.6369848857973141e-06 0.0000000000000000e+00  6.9548229187559034e-06 -8.2337896480917222e-06 0.0000000000000000e+00  8.2312729229608641e-06 -1.0190347393126778e-05 0.0000000000000000e+00  9.6549238897211997e-06 -1.2583858026898228e-05 0.0000000000000000e+00  1.1220374763070168e-05 -1.5488572480925029e-05 0.0000000000000000e+00  1.2912620165541260e-05 -1.8950775093342661e-05 0.0000000000000000e+00  1.4706230594464104e-05 -2.2942488522576045e-05 0.0000000000000000e+00  1.6566599014977195e-05 -2.7299147537586024e-05 0.0000000000000000e+00  0.0000000000000000e+00 0.0000000000000000e+00 0.0000000000000000e+00  5.0157662136241839e-07 -4.9159204187867557e-07 0.0000000000000000e+00  1.0203590343016613e-06 -1.0027933984183669e-06 0.0000000000000000e+00  1.5738931617824447e-06 -1.5540522561717608e-06 0.0000000000000000e+00  2.1803611065667303e-06 -2.1675210248574032e-06 0.0000000000000000e+00  2.8588006924596852e-06 -2.8679845796659809e-06 0.0000000000000000e+00  3.6291858089192312e-06 -3.6838627634095384e-06 0.0000000000000000e+00  4.5122874993246199e-06 -4.6482706279201585e-06 0.0000000000000000e+00  5.5292100169415765e-06 -5.8000524246761415e-06 0.0000000000000000e+00  6.7004728385446519e-06 -7.1845676060184664e-06 0.0000000000000000e+00  8.0445032020598829e-06 -8.8537444653282239e-06 0.0000000000000000e+00  9.5754391853212881e-06 -1.0864459065290464e-05 0.0000000000000000e+00  1.1300255386157306e-05 -1.3273606041526863e-05 0.0000000000000000e+00  1.3215442224438588e-05 -1.6127470691025764e-05 0.0000000000000000e+00  1.5303783638012749e-05 -1.9442989219715593e-05 0.0000000000000000e+00  1.7532071310071544e-05 -2.3181352788445064e-05 0.0000000000000000e+00  1.9850553929871628e-05 -2.7223983397072521e-05 0.0000000000000000e+00  0.0000000000000000e+00 0.0000000000000000e+00 0.0000000000000000e+00  5.4094282840798317e-07 -5.1787451579251149e-07 0.0000000000000000e+00  1.1013403437290682e-06 -1.0559198563726263e-06 0.0000000000000000e+00  1.7011521917375942e-06 -1.6350867800197720e-06 0.0000000000000000e+00  2.3613144381133481e-06 -2.2778991943213288e-06 0.0000000000000000e+00  3.1041462013540960e-06 -3.0092739285187145e-06 0.0000000000000000e+00  3.9536290450757891e-06 -3.8573574142838302e-06 0.0000000000000000e+00  4.9354653864255223e-06 -4.8543360959544245e-06 0.0000000000000000e+00  6.0767744807861886e-06 -6.0371114383379758e-06 0.0000000000000000e+00  7.4052265029983864e-06 -7.4476132139382635e-06 0.0000000000000000e+00  8.9473609192590171e-06 -9.1323311960052845e-06 0.0000000000000000e+00  1.0725819647924062e-05 -1.1140359530119799e-05 0.0000000000000000e+00  1.2755315401080233e-05 -1.3518906672963479e-05 0.0000000000000000e+00  1.5037449849693158e-05 -1.6305014260727186e-05 0.0000000000000000e+00  1.7555083366530121e-05 -1.9512640919616013e-05 0.0000000000000000e+00  2.0267787203036807e-05 -2.3116150385803623e-05 0.0000000000000000e+00  2.3110572697711754e-05 -2.7035161743904241e-05 0.0000000000000000e+00  0.0000000000000000e+00 0.0000000000000000e+00 0.0000000000000000e+00  5.6085530353804810e-07 -5.2398840501661588e-07 0.0000000000000000e+00  1.1429121334291308e-06 -1.0679311898019472e-06 0.0000000000000000e+00  1.7680702359961698e-06 -1.6524876049518103e-06 0.0000000000000000e+00  2.4596135003645316e-06 -2.2997340063707252e-06 0.0000000000000000e+00  3.2428634604097352e-06 -3.0338834092538068e-06 0.0000000000000000e+00  4.1457514422492090e-06 -3.8819995718170637e-06 0.0000000000000000e+00  5.1992156308720283e-06 -4.8746666967944572e-06 0.0000000000000000e+00  6.4372562674015157e-06 -6.0465316335797326e-06 0.0000000000000000e+00  7.8963753006806681e-06 -7.4365639179996949e-06 0.0000000000000000e+00  9.6139897349654312e-06 -9.0877703840395604e-06 0.0000000000000000e+00  1.1625274257791129e-05 -1.1045950621447320e-05 0.0000000000000000e+00  1.3957857924974247e-05 -1.3356900782302445e-05 0.0000000000000000e+00  1.6624080826534565e-05 -1.6061321936049207e-05 0.0000000000000000e+00  1.9611427505385810e-05 -1.9186689898050443e-05 0.0000000000000000e+00  2.2873524470037457e-05 -2.2735677521706193e-05 0.0000000000000000e+00  2.6326237557333209e-05 -2.6671470459585761e-05 0.0000000000000000e+00  0.0000000000000000e+00 0.0000000000000000e+00 0.0000000000000000e+00  5.5956918914255411e-07 -5.1015185809202247e-07 0.0000000000000000e+00  1.1413896661315338e-06 -1.0393369825811568e-06 0.0000000000000000e+00  1.7686150447133437e-06 -1.6072117900216280e-06 0.0000000000000000e+00  2.4662241009889257e-06 -2.2346862434552211e-06 0.0000000000000000e+00  3.2619692546160305e-06 -2.9445563558436096e-06 0.0000000000000000e+00  4.1873351769155726e-06 -3.7621346305975110e-06 0.0000000000000000e+00  5.2784412147042333e-06 -4.7158621620032219e-06 0.0000000000000000e+00  6.5767292803895602e-06 -5.8378725700348959e-06 0.0000000000000000e+00  8.1291194967046351e-06 -7.1644617165147201e-06 0.0000000000000000e+00  9.9870624773840174e-06 -8.7363982812043703e-06 0.0000000000000000e+00  1.2203566211071096e-05 -1.0598981728981863e-05 0.0000000000000000e+00  1.4826915131332172e-05 -1.2801682528626365e-05 0.0000000000000000e+00  1.7889749455496375e-05 -1.5396982370075711e-05 0.0000000000000000e+00  2.1393177243861257e-05 -1.8437440192149441e-05 0.0000000000000000e+00  2.5288784401866840e-05 -2.1968711831835342e-05 0.0000000000000000e+00  2.9467167302491719e-05 -2.6014292000311224e-05 0.0000000000000000e+00  0.0000000000000000e+00 0.0000000000000000e+00 0.0000000000000000e+00  5.3603681375217718e-07 -4.7728756913454566e-07 0.0000000000000000e+00  1.0944716673740026e-06 -9.7206269526902959e-07 0.0000000000000000e+00  1.6987908492461324e-06 -1.5023511257410173e-06 0.0000000000000000e+00  2.3747202067492656e-06 -2.0872646446923537e-06 0.0000000000000000e+00  3.1514852088983720e-06 -2.7475527300382757e-06 0.0000000000000000e+00  4.0632223320062753e-06 -3.5061656800072201e-06 0.0000000000000000e+00  5.1505451270790409e-06 -4.3888389519593865e-06 0.0000000000000000e+00  6.4621823278170688e-06 -5.4247248104442103e-06 0.0000000000000000e+00  8.0564202261678455e-06 -6.6471364094974452e-06 0.0000000000000000e+00  1.0001715288229056e-05 -8.0945473360708610e-06 0.0000000000000000e+00  1.2375186870889972e-05 -9.8121165224789811e-06 0.0000000000000000e+00  1.5256689799877081e-05 -1.1854146382718644e-05 0.0000000000000000e+00  1.8715043795667535e-05 -1.4287828731127255e-05 0.0000000000000000e+00  2.2782960652398270e-05 -1.7197779637350100e-05 0.0000000000000000e+00  2.7421447407713224e-05 -2.0687888915310501e-05 0.0000000000000000e+00  3.2487911721836180e-05 -2.4870012046991308e-05 0.0000000000000000e+00  0.0000000000000000e+00 0.0000000000000000e+00 0.0000000000000000e+00  4.9011331464099990e-07 -4.2694249673317286e-07 0.0000000000000000e+00  1.0016808876899506e-06 -8.6928591832094718e-07 0.0000000000000000e+00  1.5573737848618299e-06 -1.3428813582728946e-06 0.0000000000000000e+00  2.1824056607290123e-06 -1.8644915004671458e-06 0.0000000000000000e+00  2.9060646365623723e-06 -2.4522571072483625e-06 0.0000000000000000e+00  3.7635741596804976e-06 -3.1261831623597077e-06 0.0000000000000000e+00  4.7984053518834961e-06 -3.9086694069111548e-06 0.0000000000000000e+00  6.0651329699403898e-06 -4.8251445837302765e-06 0.0000000000000000e+00  7.6327981321654785e-06 -5.9049417757853855e-06 0.0000000000000000e+00  9.5883705445080701e-06 -7.1827168021120155e-06 0.0000000000000000e+00  1.2039005772784077e-05 -8.7010319396984347e-06 0.0000000000000000e+00  1.5109892070395415e-05 -1.0515277309680990e-05 0.0000000000000000e+00  1.8931086088129147e-05 -1.2702821775816147e-05 0.0000000000000000e+00  2.3602474960649646e-05 -1.5378491327241967e-05 0.0000000000000000e+00  2.9126353784909871e-05 -1.8715717093852336e-05 0.0000000000000000e+00  3.5319677202820525e-05 -2.2961835415732007e-05 0.0000000000000000e+00  0.0000000000000000e+00 0.0000000000000000e+00 0.0000000000000000e+00  4.2274387300909592e-07 -3.6120404316029112e-07 0.0000000000000000e+00  8.6477801531788812e-07 -7.3526871692552992e-07 0.0000000000000000e+00  1.3466372185550093e-06 -1.1354136849230809e-06 0.0000000000000000e+00  1.8914920326170346e-06 -1.5755868071870951e-06 0.0000000000000000e+00  2.5268336513523685e-06 -2.0708349916369740e-06 0.0000000000000000e+00  3.2866618808689114e-06 -2.6376887171855792e-06 0.0000000000000000e+00  4.2144517719465633e-06 -3.2945795625194370e-06 0.0000000000000000e+00  5.3672642986195387e-06 -4.0623397722925532e-06 0.0000000000000000e+00  6.8214363990054431e-06 -4.9649069905771918e-06 0.0000000000000000e+00  8.6801962076787646e-06 -6.0305393511753513e-06 0.0000000000000000e+00  1.1082887868467907e-05 -7.2942859107122121e-06 0.0000000000000000e+00  1.4213188382961599e-05 -8.8034802339456905e-06 0.0000000000000000e+00  1.8297403048165028e-05 -1.0630200737912087e-05 0.0000000000000000e+00  2.3569956889736085e-05 -1.2898355340454407e-05 0.0000000000000000e+00  3.0162084734016445e-05 -1.5835644188953903e-05 0.0000000000000000e+00  3.7874142472659196e-05 -1.9847743807048334e-05 0.0000000000000000e+00  0.0000000000000000e+00 0.0000000000000000e+00 0.0000000000000000e+00  3.3609317056305890e-07 -2.8261271717736179e-07 0.0000000000000000e+00  6.8806425863788354e-07 -5.7518308758243581e-07 0.0000000000000000e+00  1.0729259349294562e-06 -8.8793501352309013e-07 0.0000000000000000e+00  1.5101219201631668e-06 -1.2316314800078275e-06 0.0000000000000000e+00  2.0231601554483442e-06 -1.6178420914629523e-06 0.0000000000000000e+00  2.6418525873568005e-06 -2.0592067757861116e-06 0.0000000000000000e+00  3.4055710857470514e-06 -2.5696914467287065e-06 0.0000000000000000e+00  4.3681779601889261e-06 -3.1648299863923070e-06 0.0000000000000000e+00  5.6056977315433461e-06 -3.8619534891013939e-06 0.0000000000000000e+00  7.2284002695719896e-06 -4.6804575183500700e-06 0.0000000000000000e+00  9.3996072125164971e-06 -5.6423922128933950e-06 0.0000000000000000e+00  1.2363182996111950e-05 -6.7745858814454464e-06 0.0000000000000000e+00  1.6476152802629151e-05 -8.1167610615076887e-06 0.0000000000000000e+00  2.2218663308573960e-05 -9.7499902291605346e-06 0.0000000000000000e+00  3.0078180295545358e-05 -1.1882189566138470e-05 0.0000000000000000e+00  4.0067927608339798e-05 -1.5026872341658161e-05 0.0000000000000000e+00  0.0000000000000000e+00 0.0000000000000000e+00 0.0000000000000000e+00  2.3357344173855011e-07 -1.9407114912720730e-07 0.0000000000000000e+00  4.7847417212143421e-07 -3.9492751588890485e-07 0.0000000000000000e+00  7.4690172878067164e-07 -6.0952883266813274e-07 0.0000000000000000e+00  1.0529411989803602e-06 -8.4518651164112099e-07 0.0000000000000000e+00  1.4138795364306976e-06 -1.1097302978454459e-06 0.0000000000000000e+00  1.8520881471081758e-06 -1.4116555307405277e-06 0.0000000000000000e+00  2.3979104496606989e-06 -1.7602228089932512e-06 0.0000000000000000e+00  3.0943469009625691e-06 -2.1654417693696086e-06 0.0000000000000000e+00  4.0050403297953265e-06 -2.6377745450845278e-06 0.0000000000000000e+00  5.2285170325949339e-06 -3.1871710296649027e-06 0.0000000000000000e+00  6.9246120345208829e-06 -3.8205690245781692e-06 0.0000000000000000e+00  9.3647766112226863e-06 -4.5361893704835381e-06 0.0000000000000000e+00  1.3026761937438541e-05 -5.3129524951565791e-06 0.0000000000000000e+00  1.8752093614373753e-05 -6.1035916671390149e-06 0.0000000000000000e+00  2.7864437687381391e-05 -6.9179427073286355e-06 0.0000000000000000e+00  4.1289320189460880e-05 -8.5352781532998794e-06 0.0000000000000000e+00  0.0000000000000000e+00 0.0000000000000000e+00 0.0000000000000000e+00  1.1973442450524084e-07 -9.8750923576912612e-08 0.0000000000000000e+00  2.4537076449819381e-07 -2.0093786132187958e-07 0.0000000000000000e+00  3.8328655899526752e-07 -3.1008271439244167e-07 0.0000000000000000e+00  5.4089349732761371e-07 -4.2987954522602161e-07 0.0000000000000000e+00  7.2737740179819556e-07 -5.6427219738878726e-07 0.0000000000000000e+00  9.5478566067799929e-07 -7.1751351817425588e-07 0.0000000000000000e+00  1.2397553554259580e-06 -8.9417759527641511e-07 0.0000000000000000e+00  1.6064527354522518e-06 -1.0990501474469794e-06 0.0000000000000000e+00  2.0919222741087916e-06 -1.3366945130307477e-06 0.0000000000000000e+00  2.7565684520668931e-06 -1.6101221015566358e-06 0.0000000000000000e+00  3.7065205994368647e-06 -1.9168718367705604e-06 0.0000000000000000e+00  5.1462713390634289e-06 -2.2371472135495971e-06 0.0000000000000000e+00  7.5168751181327476e-06 -2.4959277803475652e-06 0.0000000000000000e+00  1.1902858398597262e-05 -2.4334750425111699e-06 0.0000000000000000e+00  2.1372367340325202e-05 -1.1294500567614238e-06 0.0000000000000000e+00  4.5869820563581558e-05 4.8756085523732722e-06 0.0000000000000000e+00  0.0000000000000000e+00 0.0000000000000000e+00 0.0000000000000000e+00  0.0000000000000000e+00 0.0000000000000000e+00 0.0000000000000000e+00  0.0000000000000000e+00 0.0000000000000000e+00 0.0000000000000000e+00  0.0000000000000000e+00 0.0000000000000000e+00 0.0000000000000000e+00  0.0000000000000000e+00 0.0000000000000000e+00 0.0000000000000000e+00  0.0000000000000000e+00 0.0000000000000000e+00 0.0000000000000000e+00  0.0000000000000000e+00 0.0000000000000000e+00 0.0000000000000000e+00  0.0000000000000000e+00 0.0000000000000000e+00 0.0000000000000000e+00  0.0000000000000000e+00 0.0000000000000000e+00 0.00000