<?xml version="1.0"?>
<VTKFile type="UnstructuredGrid"  version="0.1"  >
<UnstructuredGrid>
<Piece  NumberOfPoints="289" NumberOfCells="512">
<Points>
<DataArray  type="Float64"  NumberOfComponents="3"  format="ascii">0 0 0  0.0625 0 0  0.125 0 0  0.1875 0 0  0.25 0 0  0.3125 0 0  0.375 0 0  0.4375 0 0  0.5 0 0  0.5625 0 0  0.625 0 0  0.6875 0 0  0.75 0 0  0.8125 0 0  0.875 0 0  0.9375 0 0  1 0 0  0 0.0625 0  0.06249835869405067 0.06250178595405678 0  0.1249966691208787 0.06250364793238487 0  0.1874948827618216 0.06250566655664172 0  0.249992951102177 0.06250793233915276 0  0.3124908259940439 0.06251055252972464 0  0.3749884604703446 0.06251366097702797 0  0.4374858101566834 0.06251743365412954 0  0.4999828354089155 0.06252211511046886 0  0.5624795042686858 0.06252806707812236 0  0.6249757962939154 0.06253586504261391 0  0.6874717073633805 0.06254650721841448 0  0.7499672559039424 0.06256191209300653 0  0.8124624921987231 0.06258623415014526 0  0.8749575154374027 0.06262974537010044 0  0.9374525080612696 0.06272155832699045 0  0.9999478044781077 0.06295538496529371 0  0 0.125 0  0.06249676576748431 0.1250034956847478 0  0.124993435054271 0.1250071387738022 0  0.1874899107523223 0.1250110851894855 0  0.2499860954627324 0.1250155090561324 0  0.3124818920710318 0.1250206149352459 0  0.3749772052309958 0.1250266548828083 0  0.4374719440653029 0.1250339542113083 0  0.4999660263574103 0.1250429531180616 0  0.5624593844221834 0.1250542779972807 0  0.6249519726993279 0.1250688699619809 0  0.6874437769805469 0.125088226248729 0  0.7499348253801104 0.1251148647501424 0  0.8124252029848034 0.1251532044187072 0  0.8749150810354387 0.1252110304328324 0  0.9374048123297493 0.1253005520477445 0  0.9998953402012482 0.125429630852529 0  0 0.1875 0  0.06249526960211461 0.1875050578188516 0  0.1249903947758371 0.1875103258470883 0  0.1874852298403896 0.1875160256069803 0  0.249979627933586 0.187522402547401 0  0.3124734414912798 0.1875297414105732 0  0.3749665240966213 0.1875383865896539 0  0.4374587342026691 0.1875487709461267 0  0.499949941204199 0.1875614587682793 0  0.5624400342018006 0.1875772122251107 0  0.6249289334837023 0.1875970961369757 0  0.6874166041167109 0.1876226416423348 0  0.7499030697436592 0.187656085602794 0  0.8123884213334626 0.1877006498668629 0  0.8748728036230644 0.1877605952722911 0  0.9373563091741908 0.1878400768478821 0  0.9998384556540235 0.1879385767354196 0  0 0.25 0  0.06249391826600045 0.2500064095532196 0  0.1249876449300312 0.250013080744848 0  0.1874809861413229 0.250020288073895 0  0.2499737450935064 0.2500283328963172 0  0.3124657219285763 0.2500375597077026 0  0.3749567154533063 0.2500483763222455 0  0.4374465274173761 0.2500612800521002 0  0.4999349701376629 0.2500768926303531 0  0.5624218781550352 0.2500960069877603 0  0.6249071242492507 0.2501196477504117 0  0.6873906393442557 0.2501491405606972 0  0.7498724344464958 0.2501861629536585 0  0.8123526208871926 0.250232689391724 0  0.8748314248037056 0.2502906106083063 0  0.9373092067871073 0.2503606079237119 0  0.9997866122375666 0.2504399050182728 0  0 0.3125 0  0.06249275898828291 0.3125074994566789 0  0.1249852809184239 0.3125152990556554 0  0.1874773250065738 0.3125237122692717 0  0.249968644598496 0.3125330800289292 0  0.3124589858343856 0.3125437863388824 0  0.374948088489414 0.3125562761653747 0  0.4374356900335991 0.3125710762285072 0  0.4999215341391213 0.3125888187802395 0  0.5624053849284278 0.312610266861151 0  0.6248870480195141 0.3126363355121559 0  0.6873663986267774 0.312668094261045 0  0.7498434153537906 0.3127067174132068 0  0.8123182158467885 0.3127533156459265 0  0.8747910878407191 0.3128085407794719 0  0.9372625071356365 0.3128718546653576 0  0.9997331203077768 0.3129405453995717 0  0 0.375 0  0.06249183720700601 0.3750082890203905 0  0.1249833951129021 0.3750169032960667 0  0.1874743886592296 0.3750261811339706 0  0.2499645226804779 0.3750364873798873 0  0.3124534884854585 0.3750482275954727 0  0.374940962785343 0.3750618630250386 0  0.4374266103188351 0.3750779259141052 0  0.4999100919668505 0.3750970336566285 0  0.5623910805587112 0.3751198980874056 0  0.624869286712377 0.3751473221767208 0  0.687344496498874 0.3751801693529816 0  0.7498166208652479 0.3752192800756983 0  0.8122857529839925 0.3752652985934534 0  0.8747522239643039 0.3753183722910353 0  0.9372166410162109 0.3753777302414344 0  0.9996798891469315 0.3754412972283513 0  0 0.4375 0  0.06249119507386795 0.4375087531248094 0  0.124982073938398 0.4375178435134329 0  0.1874723120358125 0.4375276208032881 0  0.2499615691098694 0.4375384595316208 0  0.3124494827224313 0.4375507717912535 0  0.3749356639261734 0.437565019709072 0  0.4374196966753543 0.4375817268135552 0  0.4999011433645947 0.437601486243039 0  0.5623795598740361 0.4376249618462862 0  0.6248545244341449 0.4376528752064865 0  0.6873256849136796 0.4376859673202596 0  0.7497928276308513 0.4377249187405809 0  0.8122559657662886 0.4377702093042313 0  0.8747154353153171 0.4378219052726579 0  0.9371719720298523 0.4378793899679116 0  0.9996267312113456 0.4379411117884743 0  0 0.5 0  0.06249086934326086 0.5000088797540087 0  0.124981393644732 0.5000180963650788 0  0.187471216473424 0.5000279982472883 0  0.2499599589674423 0.5000389569285594 0  0.3124472092818395 0.5000513784964629 0  0.3749325134323157 0.5000657145185078 0  0.4374153691155876 0.5000824715062147 0  0.4998952253146026 0.5001022171394193 0  0.5623714922954295 0.5001255801659757 0  0.6248435689154322 0.5001532390729737 0  0.6873108964295958 0.5001858924002742 0  0.7497730485358172 0.5002242014477626 0  0.8122298627215743 0.5002686952145613 0  0.8746816027120595 0.5003196290915602 0  0.9371291121228634 0.5003767930301465 0  0.9995738835392546 0.5004392658119442 0  0 0.5625 0  0.06249088865129371 0.5625086693068164 0  0.1249814147346742 0.5625176634777623 0  0.1874712010726143 0.5625273181066099 0  0.2499598407500857 0.5625379902213599 0  0.3124468816832627 0.5625500689263592 0  0.3749318110622279 0.5625639856912797 0  0.437414040788121 0.5625802236934945 0  0.499892896562001 0.5625993251464426 0  0.562367615945949 0.5626218949148607 0  0.6248373649597085 0.5626485979878438 0  0.6873012886721204 0.562680147710736 0  0.7497586173553968 0.5627172812405832 0  0.8122088507832799 0.5627607181327811 0  0.8746520267905642 0.5628110946954799 0  0.9370890272338013 0.5628688528138635 0  0.9995217778509131 0.5629340258947985 0  0 0.625 0  0.06249127031290828 0.6250081337678096 0  0.124982175260768 0.6250165696601045 0  0.1874723319265317 0.6250256196929088 0  0.2499613207711102 0.6250356157069703 0  0.3124486650373025 0.6250469194757773 0  0.3749338076800734 0.6250599329522524 0  0.4374160857800887 0.6250751085534633 0  0.4998947038240023 0.6250929592916182 0  0.5623687103085987 0.6251140685371873 0  0.6248369882177459 0.6251390993967735 0  0.6872982808674644 0.6251688043850591 0  0.7497512915559797 0.6252040376425719 0  0.8121949145250296 0.6252457743103997 0  0.8746286561943287 0.6252951414264488 0  0.9370532367747157 0.6253534442937898 0  0.9994711428715694 0.6254220678510185 0  0 0.6875 0  0.06249201693117159 0.6875072958680812 0  0.1249836835550642 0.687514861222346 0  0.1874746299746444 0.687522974503849 0  0.2499644446164043 0.687531932211774 0  0.3124526491212511 0.6875420584812845 0  0.3749386678138127 0.6875537153832175 0  0.4374217897261573 0.6875673143377684 0  0.4999011216447034 0.6875833292585751 0  0.5623755327634998 0.6876023124784139 0  0.6248435976278733 0.6876249153429922 0  0.6873035588885643 0.687651917022274 0  0.7497533629753277 0.6876842687001312 0  0.812190878597236 0.687723168876937 0  0.8746144801251839 0.6877702058141186 0  0.9370241740509756 0.6878276404054996 0  0.9994230692846554 0.6878988933714807 0  0 0.75 0  0.06249311330289094 0.750006188237909 0  0.1249859113834524 0.7500126043680047 0  0.1874780589979886 0.7500194840810598 0  0.2499691776353154 0.7500270789088304 0  0.3124588178568443 0.7500356649845222 0  0.3749464233349127 0.7500455529965655 0  0.4374312820327213 0.7500571001080008 0  0.4999124584667836 0.7500707250563684 0  0.5623886997901336 0.7500869283518726 0  0.6248583098019657 0.7501063205314276 0  0.6873189956895008 0.7501296629060269 0  0.7497677300107594 0.7501579277729851 0  0.8122007745735719 0.7501923928227627 0  0.8746142468193329 0.7502348195402634 0  0.9370059696200598 0.7502879234708232 0  0.9993792721422918 0.7503569567027113 0  0 0.8125 0  0.06249452427185847 0.8125048524650493 0  0.1249887889265009 0.8125098834305422 0  0.1874825160951223 0.8125152777188069 0  0.2499753879689971 0.8125212330835759 0  0.3124670199697655 0.8125279676342254 0  0.3749569239145757 0.8125357286629056 0  0.4374444544180819 0.8125448038450201 0  0.4999287276528938 0.8125555363683694 0  0.562408494811524 0.812568346444323 0  0.6248819425090764 0.8125837628029501 0  0.6873463812994745 0.8126024684551757 0  0.7497977878459914 0.8126253622138107 0  0.8122302539656797 0.8126536218435843 0  0.8746357928043316 0.8126887069412657 0  0.9370062339218269 0.812732181134991 0  0.9993415512701346 0.8127857828194349 0  0 0.875 0  0.06249619424988901 0.8750033379384622 0  0.1249922032133058 0.8750067986611385 0  0.1874878275748497 0.8750105094381516 0  0.2499828370299793 0.8750146067685044 0  0.3124769486573777 0.8750192418378832 0  0.3749697959624587 0.8750245872378116 0  0.4374608813714368 0.8750308458777062 0  0.4999494991372688 0.8750382636738717 0  0.5624346039378535 0.8750471487633799 0  0.6249145765343767 0.8750579019929867 0  0.6873867887179783 0.87507106640651 0  0.7498467732141781 0.8750874049285986 0  0.8122866499022997 0.8751079961263637 0  0.8746924427045434 0.8751341847476541 0  0.9370416539793616 0.8751663231351556 0  0.9993156425662921 0.8751952375008323 0  0 0.9375 0  0.06249804900991514 0.9375017003765396 0  0.1249960014578238 0.9375034633244341 0  0.1874937531323131 0.9375053537511111 0  0.2499911828246114 0.9375074413885723 0  0.3124881401723261 0.9375098037026162 0  0.3749844277863252 0.9375125295587627 0  0.4374797
[...]
<PointData  Vectors="f_54"> 
<DataArray  type="Float64"  Name="f_54"  NumberOfComponents="3" format="ascii">0.0000000000000000e+00 0.0000000000000000e+00 0.0000000000000000e+00  0.0000000000000000e+00 0.0000000000000000e+00 0.0000000000000000e+00  0.0000000000000000e+00 0.0000000000000000e+00 0.0000000000000000e+00  0.0000000000000000e+00 0.0000000000000000e+00 0.0000000000000000e+00  0.0000000000000000e+00 0.0000000000000000e+00 0.0000000000000000e+00  0.0000000000000000e+00 0.0000000000000000e+00 0.0000000000000000e+00  0.0000000000000000e+00 0.0000000000000000e+00 0.0000000000000000e+00  0.0000000000000000e+00 0.0000000000000000e+00 0.0000000000000000e+00  0.0000000000000000e+00 0.0000000000000000e+00 0.0000000000000000e+00  0.0000000000000000e+00 0.0000000000000000e+00 0.0000000000000000e+00  0.0000000000000000e+00 0.0000000000000000e+00 0.0000000000000000e+00  0.0000000000000000e+00 0.0000000000000000e+00 0.0000000000000000e+00  0.0000000000000000e+00 0.0000000000000000e+00 0.0000000000000000e+00  0.0000000000000000e+00 0.0000000000000000e+00 0.0000000000000000e+00  0.0000000000000000e+00 0.0000000000000000e+00 0.0000000000000000e+00  0.0000000000000000e+00 0.0000000000000000e+00 0.0000000000000000e+00  0.0000000000000000e+00 0.0000000000000000e+00 0.0000000000000000e+00  0.0000000000000000e+00 0.0000000000000000e+00 0.0000000000000000e+00  6.6015869451117719e-08 -4.7259354349121193e-08 0.0000000000000000e+00  1.3398293278057991e-07 -9.6589974130503483e-08 0.0000000000000000e+00  2.0585251476700643e-07 -1.5019151475946923e-07 0.0000000000000000e+00  2.8357726110583970e-07 -2.1054403432889220e-07 0.0000000000000000e+00  3.6909687453834522e-07 -2.8060094403661659e-07 0.0000000000000000e+00  4.6430616690231119e-07 -3.6406542959856218e-07 0.0000000000000000e+00  5.7099987995773709e-07 -4.6582304157459220e-07 0.0000000000000000e+00  6.9078988479916008e-07 -5.9267438257289284e-07 0.0000000000000000e+00  8.2499264279981418e-07 -7.5467372329800305e-07 0.0000000000000000e+00  9.7448785387066668e-07 -9.6777166599733121e-07 0.0000000000000000e+00  1.1395496159832557e-06 -1.2594849686230483e-06 0.0000000000000000e+00  1.3196329879887248e-06 -1.6822262944459464e-06 0.0000000000000000e+00  1.5129900578426402e-06 -2.3479236481190249e-06 0.0000000000000000e+00  1.7154679168377067e-06 -3.5277717282625822e-06 0.0000000000000000e+00  1.9154103452162158e-06 -5.9702073376986182e-06 0.0000000000000000e+00  2.0701930736996605e-06 -1.2009885820201324e-05 0.0000000000000000e+00  0.0000000000000000e+00 0.0000000000000000e+00 0.0000000000000000e+00  1.3008076661032518e-07 -9.2447527528793788e-08 0.0000000000000000e+00  2.6405973914812854e-07 -1.8890615785911206e-07 0.0000000000000000e+00  4.0584166529126206e-07 -2.9362533424325720e-07 0.0000000000000000e+00  5.5934566132573682e-07 -4.1137157779778096e-07 0.0000000000000000e+00  7.2848261434475281e-07 -5.4777435753811475e-07 0.0000000000000000e+00  9.1709686186363026e-07 -7.0980602605520200e-07 0.0000000000000000e+00  1.1288603045700776e-06 -9.0650269202677180e-07 0.0000000000000000e+00  1.3671090966939891e-06 -1.1501230016114819e-06 0.0000000000000000e+00  1.6346179885680226e-06 -1.4581255579081609e-06 0.0000000000000000e+00  1.9333169877331931e-06 -1.8567268613157119e-06 0.0000000000000000e+00  2.2639722543565930e-06 -2.3875955979926305e-06 0.0000000000000000e+00  2.6258887515575142e-06 -3.1208371562684268e-06 0.0000000000000000e+00  3.0168013901063122e-06 -4.1801846809778315e-06 0.0000000000000000e+00  3.4336002484379280e-06 -5.7882125575010696e-06 0.0000000000000000e+00  3.8769439880262741e-06 -8.3208344810716167e-06 0.0000000000000000e+00  4.3753214911355994e-06 -1.2199243516425157e-05 0.0000000000000000e+00  0.0000000000000000e+00 0.0000000000000000e+00 0.0000000000000000e+00  1.9025090960862413e-07 -1.3362680153550815e-07 0.0000000000000000e+00  3.8633327712520372e-07 -2.7296097657217094e-07 0.0000000000000000e+00  5.9410397233206261e-07 -4.2402733639246318e-07 0.0000000000000000e+00  8.1947078321152377e-07 -5.9353233561728351e-07 0.0000000000000000e+00  1.0683737166783063e-06 -7.8930060927186019e-07 0.0000000000000000e+00  1.3467122047169265e-06 -1.0208513373250925e-06 0.0000000000000000e+00  1.6601984908207798e-06 -1.3002100425841667e-06 0.0000000000000000e+00  2.0141189849547122e-06 -1.6431119853034152e-06 0.0000000000000000e+00  2.4129912761012159e-06 -2.0708549053445579e-06 0.0000000000000000e+00  2.8601176935887816e-06 -2.6132127233462234e-06 0.0000000000000000e+00  3.3570597911980519e-06 -3.3129912551060113e-06 0.0000000000000000e+00  3.9030924748882838e-06 -4.2327275874584731e-06 0.0000000000000000e+00  4.4947264181373272e-06 -5.4625810655896766e-06 0.0000000000000000e+00  5.1252972472886279e-06 -7.1216890442494355e-06 0.0000000000000000e+00  5.7836659579688620e-06 -9.3215920238283417e-06 0.0000000000000000e+00  6.4447018073681135e-06 -1.1996773472620059e-05 0.0000000000000000e+00  0.0000000000000000e+00 0.0000000000000000e+00 0.0000000000000000e+00  2.4459535322971225e-07 -1.6910219616106374e-07 0.0000000000000000e+00  4.9692051601409171e-07 -3.4528398732475491e-07 0.0000000000000000e+00  7.6476782308842974e-07 -5.3598703088291887e-07 0.0000000000000000e+00  1.0560520632682365e-06 -7.4942051215535871e-07 0.0000000000000000e+00  1.3788148280763683e-06 -9.9502691216790269e-07 0.0000000000000000e+00  1.7411570422212289e-06 -1.2840590026724684e-06 0.0000000000000000e+00  2.1510699899001825e-06 -1.6303260872731914e-06 0.0000000000000000e+00  2.6161339289114850e-06 -2.0511837061078569e-06 0.0000000000000000e+00  3.1430573577101577e-06 -2.5688491070151049e-06 0.0000000000000000e+00  3.7370438335022690e-06 -3.2120879318117181e-06 0.0000000000000000e+00  4.4010023079965147e-06 -4.0181270562062250e-06 0.0000000000000000e+00  5.1346650650947042e-06 -5.0340189132120232e-06 0.0000000000000000e+00  5.9337429620626527e-06 -6.3149690186266906e-06 0.0000000000000000e+00  6.7893315608441476e-06 -7.9132901617585547e-06 0.0000000000000000e+00  7.6880222810426894e-06 -9.8458382940970226e-06 0.0000000000000000e+00  8.6149527364391944e-06 -1.2031698867916395e-05 0.0000000000000000e+00  0.0000000000000000e+00 0.0000000000000000e+00 0.0000000000000000e+00  2.9121680239391530e-07 -1.9750176847036232e-07 0.0000000000000000e+00  5.9198869721737458e-07 -4.0308631006787455e-07 0.0000000000000000e+00  9.1199349472410160e-07 -6.2521269895395589e-07 0.0000000000000000e+00  1.2611482762199728e-06 -8.7312642270481577e-07 0.0000000000000000e+00  1.6496633881215084e-06 -1.1573098844719320e-06 0.0000000000000000e+00  2.0880100662862328e-06 -1.4900018570025506e-06 0.0000000000000000e+00  2.5867601793828932e-06 -1.8858037335990252e-06 0.0000000000000000e+00  3.1562493306944941e-06 -2.3623729492949285e-06 0.0000000000000000e+00  3.8060119316846223e-06 -2.9411554044589346e-06 0.0000000000000000e+00  4.5439458947210881e-06 -3.6479900572785420e-06 0.0000000000000000e+00  5.3751952615060169e-06 -4.5131544213963436e-06 0.0000000000000000e+00  6.3008021026619580e-06 -5.5698863016886852e-06 0.0000000000000000e+00  7.3162787290047442e-06 -6.8494965204617857e-06 0.0000000000000000e+00  8.4103695006844161e-06 -8.3700873445023883e-06 0.0000000000000000e+00  9.5643230355586198e-06 -1.0116221760424673e-05 0.0000000000000000e+00  1.0751563971383394e-05 -1.2013711458126843e-05 0.0000000000000000e+00  0.0000000000000000e+00 0.0000000000000000e+00 0.0000000000000000e+00  3.2828960112204698e-07 -2.1782160004121430e-07 0.0000000000000000e+00  6.6782664469373372e-07 -4.4434654875570734e-07 0.0000000000000000e+00  1.0300674899535109e-06 -6.8864657075336943e-07 0.0000000000000000e+00  1.4268771508373136e-06 -9.6055230716698774e-07 0.0000000000000000e+00  1.8706668090589422e-06 -1.2710657429521595e-06 0.0000000000000000e+00  2.3744381323071413e-06 -1.6328041650158423e-06 0.0000000000000000e+00  2.9516806713381046e-06 -2.0604659315747082e-06 0.0000000000000000e+00  3.6160511294676059e-06 -2.5712757009305049e-06 0.0000000000000000e+00  4.3807470111737872e-06 -3.1853007492450207e-06 0.0000000000000000e+00  5.2574813271343400e-06 -3.9254053707155077e-06 0.0000000000000000e+00  6.2549863705441904e-06 -4.8163955613210056e-06 0.0000000000000000e+00  7.3770477643883492e-06 -5.8825875065684019e-06 0.0000000000000000e+00  8.6202214559373898e-06 -7.1426972716979037e-06 0.0000000000000000e+00  9.9716244131991212e-06 -8.6009821266932559e-06 0.0000000000000000e+00  1.1407471571458919e-05 -1.0234960420660118e-05 0.0000000000000000e+00  1.2893276684011770e-05 -1.1984297444483300e-05 0.0000000000000000e+00  0.0000000000000000e+00 0.0000000000000000e+00 0.0000000000000000e+00  3.5411959545548584e-07 -2.2943950933933211e-07 0.0000000000000000e+00  7.2096155381149381e-07 -4.6782985427943593e-07 0.0000000000000000e+00  1.1135689614679118e-06 -7.2446862241824084e-07 0.0000000000000000e+00  1.5456168620446188e-06 -1.0093585515088835e-06 0.0000000000000000e+00  2.0316726355046774e-06 -1.3335764065318469e-06 0.0000000000000000e+00  2.5873708265637024e-06 -1.7096510849894795e-06 0.0000000000000000e+00  3.2294395817786014e-06 -2.1519312065725180e-06 0.0000000000000000e+00  3.9754838748554567e-06 -2.6768905725485790e-06 0.0000000000000000e+00  4.8433914527628438e-06 -3.3032617049671738e-06 0.0000000000000000e+00  5.8501899238851150e-06 -4.0517887439530758e-06 0.0000000000000000e+00  7.0101705025023703e-06 -4.9442396678945693e-06 0.0000000000000000e+00  8.3321504822917539e-06 -6.0011271649032030e-06 0.0000000000000000e+00  9.8159412445510132e-06 -7.2374479244512459e-06 0.0000000000000000e+00  1.1448490137263049e-05 -8.6559188828846032e-06 0.0000000000000000e+00  1.3200759837706932e-05 -1.0238148280331052e-05 0.0000000000000000e+00  1.5026948108160845e-05 -1.1936364809525784e-05 0.0000000000000000e+00  0.0000000000000000e+00 0.0000000000000000e+00 0.0000000000000000e+00  3.6722882223679680e-07 -2.3210581140764229e-07 0.0000000000000000e+00  7.4832856651132093e-07 -4.7306070285265072e-07 0.0000000000000000e+00  1.1576228124137365e-06 -7.3203125725931324e-07 0.0000000000000000e+00  1.6103358186213831e-06 -1.0188228148119421e-06 0.0000000000000000e+00  2.1230159592664150e-06 -1.3442079996062737e-06 0.0000000000000000e+00  2.7139039909819423e-06 -1.7202586568773904e-06 0.0000000000000000e+00  3.4031835336275770e-06 -2.1606668598213171e-06 0.0000000000000000e+00  4.2130026256333729e-06 -2.6810204939080591e-06 0.0000000000000000e+00  5.1670839666049142e-06 -3.2989631233039496e-06 0.0000000000000000e+00  6.2896492803123391e-06 -4.0341063312143682e-06 0.0000000000000000e+00  7.6032909790555629e-06 -4.9074618344658506e-06 0.0000000000000000e+00  9.1253952120428691e-06 -5.9400073215216474e-06 0.0000000000000000e+00  1.0862889666406413e-05 -7.1497985802382510e-06 0.0000000000000000e+00  1.2805668459166174e-05 -8.5468608785464015e-06 0.0000000000000000e+00  1.4920207601468879e-05 -1.0125178771864434e-05 0.0000000000000000e+00  1.7146377737902140e-05 -1.1852073055117168e-05 0.0000000000000000e+00  0.0000000000000000e+00 0.0000000000000000e+00 0.0000000000000000e+00  3.6646482054303073e-07 -2.2591981484753838e-07 0.0000000000000000e+00  7.4749449226265398e-07 -4.6026945794201675e-07 0.0000000000000000e+00  1.1582463147332100e-06 -7.1176228566763602e-07 0.0000000000000000e+00  1.6150698165080595e-06 -9.8967709984060700e-07 0.0000000000000000e+00  2.1361256218264236e-06 -1.3041496350789563e-06 0.0000000000000000e+00  2.7420098528659568e-06 -1.6664726097288806e-06 0.0000000000000000e+00  3.4563399781583755e-06 -2.0894046211466612e-06 0.0000000000000000e+00  4.3061974180145691e-06 -2.5874862429085090e-06 0.0000000000000000e+00  5.3222171420607181e-06 -3.1773583768255268e-06 0.0000000000000000e+00  6.5379466712716868e-06 -3.8780675673853280e-06 0.0000000000000000e+00  7.9878618183182137e-06 -4.7113055979230507e-06 0.0000000000000000e+00  9.7031761649610843e-06 -5.7014098856874624e-06 0.0000000000000000e+00  1.1704513729338827e-05 -6.8746172366392978e-06 0.0000000000000000e+00  1.3991099150602493e-05 -8.2562900607254100e-06 0.0000000000000000e+00  1.6528099215557443e-05 -9.8634294433302383e-06 0.0000000000000000e+00  1.9237469551375740e-05 -1.1688254681792098e-05 0.0000000000000000e+00  0.0000000000000000e+00 0.0000000000000000e+00 0.0000000000000000e+00  3.5112943637951514e-07 -2.1129843537973962e-07 0.0000000000000000e+00  7.1692716017601876e-07 -4.3032631687893744e-07 0.0000000000000000e+00  1.1127815894386567e-06 -6.6505849453595723e-07 0.0000000000000000e+00  1.5555480382654353e-06 -9.2395512216018326e-07 0.0000000000000000e+00  2.0643743388037974e-06 -1.2162141611858184e-06 0.0000000000000000e+00  2.6616255262818571e-06 -1.5520391880350502e-06 0.0000000000000000e+00  3.3739099194540699e-06 -1.9429377627686024e-06 0.0000000000000000e+00  4.2331529047943075e-06 -2.4020830060539918e-06 0.0000000000000000e+00  5.2775440964909392e-06 -2.9448059501997710e-06 0.0000000000000000e+00  6.5519444936849009e-06 -3.5893471515279609e-06 0.0000000000000000e+00  8.1069100732156451e-06 -4.3580786157713419e-06 0.0000000000000000e+00  9.9948181633811296e-06 -5.2794484606795371e-06 0.0000000000000000e+00  1.2260808679814435e-05 -6.3906599386726625e-06 0.0000000000000000e+00  1.4926101893256328e-05 -7.7399197732084919e-06 0.0000000000000000e+00  1.7963708677750185e-05 -9.3836940284478657e-06 0.0000000000000000e+00  2.1274771065265267e-05 -1.1367570226525393e-05 0.0000000000000000e+00  0.0000000000000000e+00 0.0000000000000000e+00 0.0000000000000000e+00  3.2111531659198837e-07 -1.8894015818650378e-07 0.0000000000000000e+00  6.5628776322809702e-07 -3.8466831150749611e-07 0.0000000000000000e+00  1.0203835084910001e-06 -5.9417559716891293e-07 0.0000000000000000e+00  1.4299372611871602e-06 -8.2485037803571686e-07 0.0000000000000000e+00  1.9041584922372083e-06 -1.0846841608446942e-06 0.0000000000000000e+00  2.4661540789953085e-06 -1.3824917939905318e-06 0.0000000000000000e+00  3.1444484358801985e-06 -1.7281665362142205e-06 0.0000000000000000e+00  3.9748631648608197e-06 -2.1330194259247467e-06 0.0000000000000000e+00  5.0027359272604668e-06 -2.6103170981769399e-06 0.0000000000000000e+00  6.2852206807014814e-06 -3.1762688529056494e-06 0.0000000000000000e+00  7.8928346682578665e-06 -3.8519793389036892e-06 0.0000000000000000e+00  9.9081911936330563e-06 -4.6673280371013129e-06 0.0000000000000000e+00  1.2417647214104177e-05 -5.6682428725238059e-06 0.0000000000000000e+00  1.5488729384519343e-05 -6.9285392451608793e-06 0.0000000000000000e+00  1.9125973165247626e-05 -8.5633320695574044e-06 0.0000000000000000e+00  2.3211013644370473e-05 -1.0726119998172793e-05 0.0000000000000000e+00  0.0000000000000000e+00 0.0000000000000000e+00 0.0000000000000000e+00  2.7703064412008290e-07 -1.5978523300829369e-07 0.0000000000000000e+00  5.6670639468182014e-07 -3.2521941751799294e-07 0.0000000000000000e+00  8.8250218203622167e-07 -5.0210936596664947e-07 0.0000000000000000e+00  1.2396249242461594e-06 -6.9656507290077440e-07 0.0000000000000000e+00  1.6561218638370311e-06 -9.1515046943396795e-07 0.0000000000000000e+00  2.1543200166329153e-06 -1.1650352722462989e-06 0.0000000000000000e+00  2.7627783046683176e-06 -1.4541571047369795e-06 0.0000000000000000e+00  3.5189935827994504e-06 -1.7914241823546831e-06 0.0000000000000000e+00  4.4731498489035698e-06 -2.1870472925449539e-06 0.0000000000000000e+00  5.6931481224985734e-06 -2.6532452460474075e-06 0.0000000000000000e+00  7.2707417134562896e-06 -3.2059664044339731e-06 0.0000000000000000e+00  9.3271521408378095e-06 -3.8692359884088508e-06 0.0000000000000000e+00  1.2012563323956839e-05 -4.6858576072954531e-06 0.0000000000000000e+00  1.5485016844729935e-05 -5.7418492184684146e-06 0.0000000000000000e+00  1.9840544454107503e-05 -7.2139405443839238e-06 0.0000000000000000e+00  2.4967837781441697e-05 -9.4290468089029628e-06 0.0000000000000000e+00  0.0000000000000000e+00 0.0000000000000000e+00 0.0000000000000000e+00  2.2028593534426222e-07 -1.2497235384843108e-07 0.0000000000000000e+00  4.5098450653265547e-07 -2.5430263734990939e-07 0.0000000000000000e+00  7.0326627694533087e-07 -3.9246115093683305e-07 0.0000000000000000e+00  9.8990084577128029e-07 -5.4412809031605388e-07 0.0000000000000000e+00  1.3263321296398585e-06 -7.1428699786975221e-07 0.0000000000000000e+00  1.7321527807358217e-06 -9.0829890211897995e-07 0.0000000000000000e+00  2.2332467921867225e-06 -1.1319408939778620e-06 0.0000000000000000e+00  2.8650323242705381e-06 -1.3913828447525119e-06 0.0000000000000000e+00  3.6775038924419031e-06 -1.6930682887145277e-06 0.0000000000000000e+00  4.7431688641046665e-06 -2.0434934193971445e-06 0.0000000000000000e+00  6.1694018909233409e-06 -2.4490832637909233e-06 0.0000000000000000e+00  8.1165616096160101e-06 -2.9172709912887827e-06 0.0000000000000000e+00  1.0819830926785946e-05 -3.4632433579875250e-06 0.0000000000000000e+00  1.4597734890643811e-05 -4.1376766978770161e-06 0.0000000000000000e+00  1.9783193436836607e-05 -5.1194950340620514e-06 0.0000000000000000e+00  2.6424273023099378e-05 -6.9551836299383208e-06 0.0000000000000000e+00  0.0000000000000000e+00 0.0000000000000000e+00 0.0000000000000000e+00  1.5311392045244477e-07 -8.5793084019263018e-08 0.0000000000000000e+00  3.1365896293382906e-07 -1.7454600885151980e-07 0.0000000000000000e+00  4.8964948217232956e-07 -2.6928875252206158e-07 0.0000000000000000e+00  6.9034104913851278e-07 -3.7317757559341122e-07 0.0000000000000000e+00  9.2709771671529991e-07 -4.8954050796699919e-07 0.0000000000000000e+00  1.2146318476099152e-06 -6.2188983036581255e-07 0.0000000000000000e+00  1.5729043239250186e-06 -7.7386305427460822e-07 0.0000000000000000e+00  2.0302036701767987e-06 -9.4900698118221580e-07 0.0000000000000000e+00  2.6283842333718585e-06 -1.1502120762347086e-06 0.0000000000000000e+00  3.4321835438618480e-06 -1.3783623088913957e-06 0.0000000000000000e+00  4.5464536375646320e-06 -1.6292500653578295e-06 0.0000000000000000e+00  6.1488408106338364e-06 -1.8868970096601916e-06 0.0000000000000000e+00  8.5511039221165447e-06 -2.1109582568143235e-06 0.0000000000000000e+00  1.2301476773418918e-05 -2.2237205332691907e-06 0.0000000000000000e+00  1.8268608911832518e-05 -2.1672339171626255e-06 0.0000000000000000e+00  2.7117792880540667e-05 -2.4993050579023819e-06 0.0000000000000000e+00  0.0000000000000000e+00 0.0000000000000000e+00 0.0000000000000000e+00  7.8498127125670060e-08 -4.3646866310884753e-08 0.0000000000000000e+00  1.6086934904100447e-07 -8.8789255382313364e-08 0.0000000000000000e+00  2.5130504540813765e-07 -1.3695579571192277e-07 0.0000000000000000e+00  3.5467785362174240e-07 -1.8973264201821181e-07 0.0000000000000000e+00  4.7702957157097184e-07 -2.4877885059180968e-07 0.0000000000000000e+00  6.2628779250047441e-07 -3.1581550751677574e-07 0.0000000000000000e+00  8.1340370416566006e-07 -3.9255421738322471e-07 0.0000000000000000e+00  1.0542843977975309e-06 -4.8048071505117278e-07 0.0000000000000000e+00  1.3733007053536159e-06 -5.8027648901358580e-07 0.0000000000000000e+00  1.8101373181483321e-06 -6.9028726139302026e-07 0.0000000000000000e+00  2.4343391545878363e-06 -8.0232733413178486e-07 0.0000000000000000e+00  3.3793249799972950e-06 -8.8952671350398507e-07 0.0000000000000000e+00  4.9308716947837804e-06 -8.6867594974973993e-07 0.0000000000000000e+00  7.7840451643438838e-06 -4.7491492555730383e-07 0.0000000000000000e+00  1.3869260051893982e-05 1.1842303614929068e-06 0.0000000000000000e+00  2.9222031920106057e-05 7.2973154179675258e-06 0.0000000000000000e+00  0.0000000000000000e+00 0.0000000000000000e+00 0.0000000000000000e+00  0.0000000000000000e+00 0.0000000000000000e+00 0.0000000000000000e+00  0.0000000000000000e+00 0.0000000000000000e+00 0.0000000000000000e+00  0.0000000000000000e+00 0.0000000000000000e+00 0.0000000000000000e+00  0.0000000000000000e+00 0.0000000000000000e+00 0.0000000000000000e+00  0.0000000000000000e+00 0.0000000000000000e+00 0.0000000000000000e+00  0.0000000000000000e+00 0.0000000000000000e+00 0.0000000000000000e+00  0.0000000000000000e+00 0.0000000000000000e+00 0.0000000000000000e+00  0.0000000000000000e+00 0.0000000000000000e+00 0.000000