<?xml version="1.0"?>
<VTKFile type="UnstructuredGrid"  version="0.1"  >
<UnstructuredGrid>
<Piece  NumberOfPoints="289" NumberOfCells="512">
<Points>
<DataArray  type="Float64"  NumberOfComponents="3"  format="ascii">0 0 0  0.0625 0 0  0.125 0 0  0.1875 0 0  0.25 0 0  0.3125 0 0  0.375 0 0  0.4375 0 0  0.5 0 0  0.5625 0 0  0.625 0 0  0.6875 0 0  0.75 0 0  0.8125 0 0  0.875 0 0  0.9375 0 0  1 0 0  0 0.0625 0  0.06249880812039858 0.06250096305312004 0  0.1249975813024837 0.06250196638833641 0  0.1874962843743199 0.06250305265922522 0  0.2499948821899144 0.06250426956201016 0  0.3124933398994791 0.06250567332131959 0  0.3749916235435189 0.06250733370814923 0  0.4374897010681536 0.06250934194611603 0  0.4999875438324655 0.06251182419794356 0  0.5624851286231379 0.0625149663502092 0  0.6249824401001114 0.06251906312452246 0  0.6874794734938509 0.06252462360400345 0  0.7499762374414165 0.06253261932736559 0  0.812472758039018 0.06254512839425097 0  0.8749690924047244 0.06256719222518993 0  0.9374653995113166 0.06261274810517346 0  0.9999623398461547 0.06272543392434722 0  0 0.125 0  0.06249765128596926 0.1250018856324758 0  0.1249952327147878 0.1250038494516749 0  0.1874926738796553 0.1250059740394646 0  0.2499899042090429 0.1250083512594452 0  0.3124868534017557 0.1250110884812036 0  0.3749834525202076 0.1250143172476131 0  0.4374796359554385 0.1250182063746665 0  0.4999753444363622 0.1250229831704809 0  0.562470529153586 0.1250289699123836 0  0.6249651568653738 0.1250366498654132 0  0.6874592154794055 0.1250467919906109 0  0.7499527188378463 0.1250606934417891 0  0.8124457072346996 0.1250806510186513 0  0.8749382310930649 0.1251108102472284 0  0.9374302598473834 0.1251581995131632 0  0.9999212205558798 0.1252307278982396 0  0 0.1875 0  0.06249656459639739 0.1875027298126938 0  0.1249930245761344 0.1875055713340315 0  0.1874892742902129 0.1875086421160737 0  0.2499852073002377 0.18751207192377 0  0.3124807167583964 0.1875160105458848 0  0.3749756967905852 0.1875206381123372 0  0.4374700452466568 0.1875261796871728 0  0.4999636681554867 0.1875329270632994 0  0.562456486115003 0.1875412726327096 0  0.6249484426055026 0.1875517631823757 0  0.6874395137888872 0.1875651848723273 0  0.7499297187601668 0.1875826898365404 0  0.8124191288184331 0.187605949737724 0  0.8749078765594428 0.187637201553568 0  0.9373961853852165 0.1876786298684728 0  0.9998845660453335 0.1877294190132202 0  0 0.25 0  0.06249558294046752 0.2500034620569463 0  0.1249910270212303 0.2500070635254062 0  0.1874861916153359 0.2500109504758976 0  0.2499809340336365 0.2500152827236249 0  0.3124751095011415 0.2500202421044116 0  0.3749685724715057 0.2500260426658178 0  0.4374611798347925 0.2500329438195913 0  0.499952796605019 0.2500412678346473 0  0.5624433046147779 0.2500514232648947 0  0.6249326145125945 0.2500639353424879 0  0.6874206808653992 0.2500794810402791 0  0.7499075193700959 0.2500989151504707 0  0.8123932241779604 0.2501232422478145 0  0.8748779823188624 0.2501534171206496 0  0.9373620790953863 0.250189739629816 0  0.999845858355571 0.250230632222351 0  0 0.3125 0  0.06249474062081294 0.3125040546564228 0  0.1249893093329872 0.312508269796251 0  0.1874835313943182 0.3125128128380569 0  0.2499772278863426 0.3125178653327937 0  0.3124702147983661 0.3125236309209561 0  0.3749623037246413 0.3125303443464288 0  0.4374533049544223 0.3125382817860756 0  0.4999430338826826 0.3125477724511114 0  0.5624313217396945 0.3125592105696463 0  0.6249180315020475 0.3125730647610618 0  0.6874030793203915 0.3125898770578217 0  0.7498864606714789 0.3126102340630446 0  0.8123682785974822 0.31263467548895 0  0.8748487690501991 0.3126634837484675 0  0.9373283166636608 0.3126963012627977 0  0.9998074593617087 0.3127316475098115 0  0 0.375 0  0.06249407066666089 0.3750044865436177 0  0.1249879386562908 0.3750091477305003 0  0.1874813970042836 0.3750141650512983 0  0.249974231477638 0.3750197337983935 0  0.3124662181410912 0.3750260703546862 0  0.3749571226644545 0.3750334197676297 0  0.4374467023794203 0.3750420632991544 0  0.4999347124339937 0.3750523250337897 0  0.5624209177192039 0.3750645754348365 0  0.624905112383348 0.3750792275220386 0  0.6873871483829531 0.375096717533264 0  0.7498669731550534 0.3751174562159803 0  0.8123446735621487 0.3751417306397145 0  0.8748205184521937 0.3751695363039472 0  0.937294986018557 0.3752003433774397 0  0.9997687556605303 0.3752328783653136 0  0 0.4375 0  0.06249360374792587 0.4375047435726576 0  0.124986977881424 0.4375096691118167 0  0.1874798866495377 0.4375149651602613 0  0.2499720829376946 0.4375208334269177 0  0.3124633035882839 0.4375274954165926 0  0.3749532663177187 0.4375351988707574 0  0.4374416694050482 0.437544223455447 0  0.4999281959351806 0.4375548844938693 0  0.562412525132342 0.4375675324477803 0  0.6248943540497603 0.4375825440952467 0  0.6873734331542776 0.4376002988015149 0  0.7498496182912325 0.4376211302294146 0  0.8123229377879898 0.4376452418107429 0  0.8747936656983495 0.4376725773758535 0  0.9372623807088208 0.4377026539120232 0  0.9997299803223004 0.4377343978645593 0  0 0.5 0  0.0624933666360643 0.5000048184412268 0  0.1249864825613035 0.5000098195890246 0  0.1874790887597835 0.5000151924008941 0  0.2499709099133037 0.500021138337077 0  0.312461646734335 0.5000278775380302 0  0.3749509693261362 0.5000356546931441 0  0.437438512734535 0.5000447440685788 0  0.4999238767659792 0.50005545266556 0  0.562406633489252 0.5000681196965301 0  0.6248863475858397 0.5000831094041596 0  0.6873626164784732 0.5001007926607292 0  0.7498351377527138 0.500121510860855 0  0.812303808217453 0.5001455137014165 0  0.874768848006377 0.5001728612232306 0  0.9372309211996108 0.5002032811322616 0  0.9996911966698163 0.5002359774230268 0  0 0.5625 0  0.0624933802156062 0.5625047104331191 0  0.1249864968375386 0.5625095980350416 0  0.1874790756704947 0.5625148458985587 0  0.2499708208564984 0.562520649022399 0  0.3124614036256095 0.5625272202685128 0  0.3749504509434883 0.5625347961878091 0  0.437437534867513 0.5625436424150261 0  0.4999221645472477 0.5625540580672898 0  0.5624037847631229 0.5625663781983277 0  0.6248817880419459 0.5625809728374644 0  0.6873555518235299 0.5625982404242722 0  0.7498245169292226 0.5626185922928469 0  0.8122883249893356 0.5626424223324009 0  0.8747470216305778 0.5626700492782334 0  0.9372012949168094 0.5627016023947548 0  0.9996526475553459 0.5627367904361346 0  0 0.625 0  0.06249365714137722 0.6250044251084429 0  0.1249870485337461 0.6250090158777362 0  0.1874798957300923 0.6250139435451163 0  0.2499718935755245 0.6250193906548144 0  0.3124626951733669 0.6250255569182732 0  0.3749518950173681 0.6250326652926707 0  0.4374390102334954 0.6250409683053373 0  0.4999234608981902 0.6250507546393721 0  0.5624045526194492 0.6250623560370958 0  0.6248814689973278 0.625076154745505 0  0.6873532896177874 0.625092592108329 0  0.749819061880485 0.6251121794272153 0  0.8122779698179741 0.6251355118295301 0  0.8747296465709088 0.6251632796664217 0  0.937174631962822 0.6251962422992912 0  0.9996148231805823 0.6252350266690936 0  0 0.6875 0  0.06249419935897859 0.6875039739919562 0  0.1249881438348902 0.6875080964985011 0  0.1874815644009298 0.6875125211765083 0  0.2499741616277292 0.6875174122189667 0  0.3124655873550948 0.6875229500604203 0  0.374955422373343 0.6875293376764489 0  0.4374431486010861 0.6875368078181574 0  0.4999281145679256 0.6875456317246328 0  0.5624094944787034 0.687556130247189 0  0.6248862454517394 0.6875686890828268 0  0.6873570781395477 0.6875837813459527 0  0.7498204788012065 0.6876020038877149 0  0.812274862690848 0.6876241403713881 0  0.874718993955242 0.6876512759434328 0  0.9371528141358708 0.6876849953355577 0  0.999578571349389 0.6877276048524537 0  0 0.75 0  0.06249499584508027 0.7500033742384583 0  0.1249897622847303 0.7500068746309898 0  0.1874840554788852 0.7500106318747199 0  0.2499776000335059 0.7500147860681352 0  0.3124700688270756 0.7500194920191963 0  0.3749610567592185 0.7500249254195838 0  0.4374500450699013 0.7500312904410692 0  0.4999363517417212 0.7500388296362194 0  0.5624190625216355 0.7500478375824164 0  0.6248969378552518 0.7500586806654128 0  0.6873682982705194 0.7500718271733561 0  0.7498309170529859 0.7500878958503872 0  0.8122820229361666 0.7501077425804713 0  0.8747186843875118 0.7501326443338165 0  0.9371391162679596 0.7501647762893271 0  0.9995454366783584 0.750208582644932 0  0 0.8125 0  0.06249602104462129 0.8125026482077291 0  0.1249918531300049 0.8125053955908601 0  0.1874872941527321 0.8125083450444061 0  0.249982112900518 0.8125116072248094 0  0.3124760295095206 0.8125153050859011 0  0.374968688630985 0.8125195793655847 0  0.4374596203834442 0.8125245956548431 0  0.4999481811558187 0.8125305540420258 0  0.5624334613461178 0.8125377028810503 0  0.6249141395934539 0.8125463589712507 0  0.6873882544078946 0.8125569370633342 0  0.7498528653436785 0.8125699909632758 0  0.8123036339497393 0.8125862641121334 0  0.8747346294144576 0.8126067434732578 0  0.9371395752202599 0.8126328009896635 0  0.999517723859451 0.8126674999920865 0  0 0.875 0  0.06249723452918018 0.8750018228693004 0  0.1249943341966417 0.8750037141445171 0  0.1874911540463525 0.8750057448872347 0  0.2499875265539629 0.8750079917346706 0  0.3124832458957116 0.8750105402430197 0  0.3749780454471382 0.8750134890469278 0  0.4374715632890107 0.8750169553980748 0  0.4999632863078518 0.8750210829943826 0  0.562452455076426 0.8750260535840332 0  0.6249378944983985 0.8750321046686302 0  0.6874176997449506 0.8750395563355787 0  0.7498886366045681 0.8750488476445937 0  0.8123449985969065 0.8750605588079325 0  0.874776620957883 0.8750752525129282 0  0.9371668538730891 0.8750921985608709 0  0.9995000370089103 0.8751019087204848 0  0 0.9375 0  0.06249858231272992 0.937500928977416 0  0.1249970943449387 0.9375018928746024 0  0.1874954603157577 0.9375029279989014 0  0.2499935920742371 0.9375040735821529 0  0.3124913802682167 0.9375053735632723 0  0.3749886813773533 0.9375068788473093 0  0.4374852971473835 0
[...]
<PointData  Vectors="f_54"> 
<DataArray  type="Float64"  Name="f_54"  NumberOfComponents="3" format="ascii">0.0000000000000000e+00 0.0000000000000000e+00 0.0000000000000000e+00  0.0000000000000000e+00 0.0000000000000000e+00 0.0000000000000000e+00  0.0000000000000000e+00 0.0000000000000000e+00 0.0000000000000000e+00  0.0000000000000000e+00 0.0000000000000000e+00 0.0000000000000000e+00  0.0000000000000000e+00 0.0000000000000000e+00 0.0000000000000000e+00  0.0000000000000000e+00 0.0000000000000000e+00 0.0000000000000000e+00  0.0000000000000000e+00 0.0000000000000000e+00 0.0000000000000000e+00  0.0000000000000000e+00 0.0000000000000000e+00 0.0000000000000000e+00  0.0000000000000000e+00 0.0000000000000000e+00 0.0000000000000000e+00  0.0000000000000000e+00 0.0000000000000000e+00 0.0000000000000000e+00  0.0000000000000000e+00 0.0000000000000000e+00 0.0000000000000000e+00  0.0000000000000000e+00 0.0000000000000000e+00 0.0000000000000000e+00  0.0000000000000000e+00 0.0000000000000000e+00 0.0000000000000000e+00  0.0000000000000000e+00 0.0000000000000000e+00 0.0000000000000000e+00  0.0000000000000000e+00 0.0000000000000000e+00 0.0000000000000000e+00  0.0000000000000000e+00 0.0000000000000000e+00 0.0000000000000000e+00  0.0000000000000000e+00 0.0000000000000000e+00 0.0000000000000000e+00  0.0000000000000000e+00 0.0000000000000000e+00 0.0000000000000000e+00  -9.2305225655788049e-08 1.0046452632038385e-07 0.0000000000000000e+00  -1.8734094436384429e-07 2.0531337574781661e-07 0.0000000000000000e+00  -2.8784046923023734e-07 3.1920548003506608e-07 0.0000000000000000e+00  -3.9653974593907113e-07 4.4739499814364965e-07 0.0000000000000000e+00  -5.1615770158204092e-07 5.9614269709279424e-07 0.0000000000000000e+00  -6.4935127704434445e-07 7.7330708945636447e-07 0.0000000000000000e+00  -7.9863649324660940e-07 9.8927198528018083e-07 0.0000000000000000e+00  -9.6626732327191845e-07 1.2585212154878324e-06 0.0000000000000000e+00  -1.1540646339518160e-06 1.6025241463822887e-06 0.0000000000000000e+00  -1.3631858268878508e-06 2.0554610337293886e-06 0.0000000000000000e+00  -1.5938146825203088e-06 2.6766180477878879e-06 0.0000000000000000e+00  -1.8447101954544744e-06 3.5799602500690527e-06 0.0000000000000000e+00  -2.1124384453481076e-06 5.0125940039916448e-06 0.0000000000000000e+00  -2.3898770126889756e-06 7.5871507351960708e-06 0.0000000000000000e+00  -2.6635676601369815e-06 1.3046693856195568e-05 0.0000000000000000e+00  -2.9133409153666928e-06 2.7027863191432595e-05 0.0000000000000000e+00  0.0000000000000000e+00 0.0000000000000000e+00 0.0000000000000000e+00  -1.8187920380206593e-07 1.9654381228029903e-07 0.0000000000000000e+00  -3.6921339289071987e-07 4.0157799811730482e-07 0.0000000000000000e+00  -5.6747175316708275e-07 6.2410208830025861e-07 0.0000000000000000e+00  -7.8214535828726815e-07 8.7421202847661140e-07 0.0000000000000000e+00  -1.0187165166608456e-06 1.1638367867665195e-06 0.0000000000000000e+00  -1.2825775035379617e-06 1.5077636577569637e-06 0.0000000000000000e+00  -1.5788809841711088e-06 1.9251820501548022e-06 0.0000000000000000e+00  -1.9123056372898503e-06 2.4421682220380892e-06 0.0000000000000000e+00  -2.2867236968420275e-06 3.0959249076018975e-06 0.0000000000000000e+00  -2.7047613042356710e-06 3.9423964801755913e-06 0.0000000000000000e+00  -3.1672406110298714e-06 5.0705345303113461e-06 0.0000000000000000e+00  -3.6724561844047635e-06 6.6296758374867091e-06 0.0000000000000000e+00  -4.2150562230340327e-06 8.8811794031823515e-06 0.0000000000000000e+00  -4.7834914409685384e-06 1.2283070145028789e-05 0.0000000000000000e+00  -5.3512829297843975e-06 1.7542771208789303e-05 0.0000000000000000e+00  -5.8392140045774430e-06 2.5049870656020916e-05 0.0000000000000000e+00  0.0000000000000000e+00 0.0000000000000000e+00 0.0000000000000000e+00  -2.6599988892181811e-07 2.8413424036028104e-07 0.0000000000000000e+00  -5.4015946806276807e-07 5.8034955769513470e-07 0.0000000000000000e+00  -8.3068093258822173e-07 9.0140362220957074e-07 0.0000000000000000e+00  -1.1458406939598169e-06 1.2614965561225588e-06 0.0000000000000000e+00  -1.4939652482022331e-06 1.6771987837611787e-06 0.0000000000000000e+00  -1.8833313374366744e-06 2.1686804098586086e-06 0.0000000000000000e+00  -2.3219623154694224e-06 2.7614482512633880e-06 0.0000000000000000e+00  -2.8172940008306140e-06 3.4889256576871749e-06 0.0000000000000000e+00  -3.3756902963757308e-06 4.3964236403884910e-06 0.0000000000000000e+00  -4.0018059867835824e-06 5.5473667446959469e-06 0.0000000000000000e+00  -4.6978297867949459e-06 7.0329575856557763e-06 0.0000000000000000e+00  -5.4627202449445760e-06 8.9861910083478629e-06 0.0000000000000000e+00  -6.2917791419730453e-06 1.1597876556132338e-05 0.0000000000000000e+00  -7.1778115840680716e-06 1.5118487839168984e-05 0.0000000000000000e+00  -8.1192684048920566e-06 1.9787705770093157e-05 0.0000000000000000e+00  -9.1611439194345084e-06 2.5564267923776028e-05 0.0000000000000000e+00  0.0000000000000000e+00 0.0000000000000000e+00 0.0000000000000000e+00  -3.4196432297784806e-07 3.5964658656271064e-07 0.0000000000000000e+00  -6.9474321944707147e-07 7.3428056474073446e-07 0.0000000000000000e+00  -1.0692467654423983e-06 1.1396582723166947e-06 0.0000000000000000e+00  -1.4765604101354689e-06 1.5931551560638983e-06 0.0000000000000000e+00  -1.9279542427533293e-06 2.1147522969528251e-06 0.0000000000000000e+00  -2.4347927196968628e-06 2.7282634725697405e-06 0.0000000000000000e+00  -3.0083038020020135e-06 3.4629298804408145e-06 0.0000000000000000e+00  -3.6591649774531884e-06 4.3555458539884149e-06 0.0000000000000000e+00  -4.3968699245337103e-06 5.4532969834725374e-06 0.0000000000000000e+00  -5.2288612735956264e-06 6.8174111927363868e-06 0.0000000000000000e+00  -6.1594627936405535e-06 8.5273096396663003e-06 0.0000000000000000e+00  -7.1887308367106343e-06 1.0683600193825386e-05 0.0000000000000000e+00  -8.3114696345993424e-06 1.3404687110654555e-05 0.0000000000000000e+00  -9.5166976924723788e-06 1.6804039366223565e-05 0.0000000000000000e+00  -1.0786862167366603e-05 2.0924048300898791e-05 0.0000000000000000e+00  -1.2087889434109861e-05 2.5607562416031777e-05 0.0000000000000000e+00  0.0000000000000000e+00 0.0000000000000000e+00 0.0000000000000000e+00  -4.0711841879293718e-07 4.2017485780710606e-07 0.0000000000000000e+00  -8.2760266246697715e-07 8.5746624043226736e-07 0.0000000000000000e+00  -1.2749982257973834e-06 1.3297858032103708e-06 0.0000000000000000e+00  -1.7631898934463315e-06 1.8566968044352040e-06 0.0000000000000000e+00  -2.3064811929769380e-06 2.4603625474108021e-06 0.0000000000000000e+00  -2.9195547892614560e-06 3.1666437965605477e-06 0.0000000000000000e+00  -3.6172570394415013e-06 4.0063875875165591e-06 0.0000000000000000e+00  -4.4141406483376890e-06 5.0169171045716333e-06 0.0000000000000000e+00  -5.3236972745971832e-06 6.2436360034370835e-06 0.0000000000000000e+00  -6.3572274035828538e-06 7.7414181382768202e-06 0.0000000000000000e+00  -7.5223423022880474e-06 9.5749043269069074e-06 0.0000000000000000e+00  -8.8211864090217133e-06 1.1815709083258164e-05 0.0000000000000000e+00  -1.0248605875018539e-05 1.4532593410846648e-05 0.0000000000000000e+00  -1.1790620678249306e-05 1.7768248129013267e-05 0.0000000000000000e+00  -1.3423619299741028e-05 2.1496357963333118e-05 0.0000000000000000e+00  -1.5115529104847065e-05 2.5563546951066336e-05 0.0000000000000000e+00  0.0000000000000000e+00 0.0000000000000000e+00 0.0000000000000000e+00  -4.5891062899117315e-07 4.6358907850139377e-07 0.0000000000000000e+00  -9.3355076981183426e-07 9.4562121765003774e-07 0.0000000000000000e+00  -1.4399488844976933e-06 1.4653129555670984e-06 0.0000000000000000e+00  -1.9947091861138203e-06 2.0434659560840538e-06 0.0000000000000000e+00  -2.6152077996136135e-06 2.7033270219322695e-06 0.0000000000000000e+00  -3.3196606560776587e-06 3.4715132955654934e-06 0.0000000000000000e+00  -4.1269896452301415e-06 4.3789853364796316e-06 0.0000000000000000e+00  -5.0563902695319991e-06 5.4619877274477463e-06 0.0000000000000000e+00  -6.1264832005787172e-06 6.7627489159175909e-06 0.0000000000000000e+00  -7.3539268315762200e-06 8.3294891156618496e-06 0.0000000000000000e+00  -8.7514008848519542e-06 1.0214863115585059e-05 0.0000000000000000e+00  -1.0324973628796975e-05 1.2471330686592285e-05 0.0000000000000000e+00  -1.2071064379889886e-05 1.5141257904188062e-05 0.0000000000000000e+00  -1.3973498233590513e-05 1.8239550425239292e-05 0.0000000000000000e+00  -1.6001421738675058e-05 2.1729298781774514e-05 0.0000000000000000e+00  -1.8108828855432812e-05 2.5499832342825317e-05 0.0000000000000000e+00  0.0000000000000000e+00 0.0000000000000000e+00 0.0000000000000000e+00  -4.9497587180771353e-07 4.8856087887355644e-07 0.0000000000000000e+00  -1.0077393754310808e-06 9.9611223101560053e-07 0.0000000000000000e+00  -1.5565310024484562e-06 1.5423680456568167e-06 0.0000000000000000e+00  -2.1604777437809853e-06 2.1485074406180822e-06 0.0000000000000000e+00  -2.8399599362568075e-06 2.8379342715878738e-06 0.0000000000000000e+00  -3.6168601791265430e-06 3.6370473226873846e-06 0.0000000000000000e+00  -4.5146079567668431e-06 4.5759779364320693e-06 0.0000000000000000e+00  -5.5578901000425006e-06 5.6891897367213186e-06 0.0000000000000000e+00  -6.7718445058243122e-06 7.0157256577585339e-06 0.0000000000000000e+00  -8.1805056454713754e-06 8.5987085108389159e-06 0.0000000000000000e+00  -9.8042574046712113e-06 1.0483439936522383e-05 0.0000000000000000e+00  -1.1656132906475662e-05 1.2713135703378154e-05 0.0000000000000000e+00  -1.3737072164032385e-05 1.5321159173224183e-05 0.0000000000000000e+00  -1.6030787347176115e-05 1.8319022748634399e-05 0.0000000000000000e+00  -1.8499646984648307e-05 2.1681197524574772e-05 0.0000000000000000e+00  -2.1083608239129518e-05 2.5331420946215600e-05 0.0000000000000000e+00  0.0000000000000000e+00 0.0000000000000000e+00 0.0000000000000000e+00  -5.1325367461418190e-07 4.9454032713217690e-07 0.0000000000000000e+00  -1.0458957961493709e-06 1.0078919397268574e-06 0.0000000000000000e+00  -1.6179488797376107e-06 1.5595263230264092e-06 0.0000000000000000e+00  -2.2506953019972654e-06 2.1702395195092407e-06 0.0000000000000000e+00  -2.9672701275209885e-06 2.8628210412903294e-06 0.0000000000000000e+00  -3.7931774499761993e-06 3.6627121081905079e-06 0.0000000000000000e+00  -4.7566434616294517e-06 4.5986131512007996e-06 0.0000000000000000e+00  -5.8886525095713953e-06 5.7029575822062872e-06 0.0000000000000000e+00  -7.2224147590720973e-06 7.0121003000980017e-06 0.0000000000000000e+00  -8.7918894634316031e-06 8.5659673016681723e-06 0.0000000000000000e+00  -1.0628867539558838e-05 1.0406775073181371e-05 0.0000000000000000e+00  -1.2758092660412738e-05 1.2576272101679502e-05 0.0000000000000000e+00  -1.5190162602273617e-05 1.5110837023728782e-05 0.0000000000000000e+00  -1.7912790883591735e-05 1.8033805281520152e-05 0.0000000000000000e+00  -2.0882627962378915e-05 2.1344739996217400e-05 0.0000000000000000e+00  -2.4021792292242463e-05 2.5006030283726513e-05 0.0000000000000000e+00  0.0000000000000000e+00 0.0000000000000000e+00 0.0000000000000000e+00  -5.1214019844451554e-07 4.8170379138247325e-07 0.0000000000000000e+00  -1.0446339232547628e-06 9.8137928839396230e-07 0.0000000000000000e+00  -1.6186606776449347e-06 1.5175898787874234e-06 0.0000000000000000e+00  -2.2570647699643249e-06 2.1100787017299654e-06 0.0000000000000000e+00  -2.9852189653118067e-06 2.7803614891602252e-06 0.0000000000000000e+00  -3.8318950601732072e-06 3.5523128278588024e-06 0.0000000000000000e+00  -4.8300792377272825e-06 4.4527265045701008e-06 0.0000000000000000e+00  -6.0175853082321347e-06 5.5118149689991842e-06 0.0000000000000000e+00  -7.4371726639190953e-06 6.7635933858356750e-06 0.0000000000000000e+00  -9.1356440513822855e-06 8.2460706189587198e-06 0.0000000000000000e+00  -1.1161078999995057e-05 1.0001138498360382e-05 0.0000000000000000e+00  -1.3557034228855501e-05 1.2073987342687776e-05 0.0000000000000000e+00  -1.6352507383615752e-05 1.4511698425093186e-05 0.0000000000000000e+00  -1.9547393455495687e-05 1.7360177932604394e-05 0.0000000000000000e+00  -2.3096090392232325e-05 2.0657497254137194e-05 0.0000000000000000e+00  -2.6897149291675691e-05 2.4419993403084373e-05 0.0000000000000000e+00  0.0000000000000000e+00 0.0000000000000000e+00 0.0000000000000000e+00  -4.9066707893444042e-07 4.5088813784336953e-07 0.0000000000000000e+00  -1.0018281026809261e-06 9.1831931131109119e-07 0.0000000000000000e+00  -1.5549783617116615e-06 1.4193567118654020e-06 0.0000000000000000e+00  -2.1736597019949197e-06 1.9720968065914964e-06 0.0000000000000000e+00  -2.8846111517171301e-06 2.5961940589982220e-06 0.0000000000000000e+00  -3.7190558648213523e-06 3.3133944494468611e-06 0.0000000000000000e+00  -4.7141257279348882e-06 4.1480835540154799e-06 0.0000000000000000e+00  -5.9143451628210252e-06 5.1278662587295620e-06 0.0000000000000000e+00  -7.3729246846933383e-06 6.2842242805236340e-06 0.0000000000000000e+00  -9.1522779874206445e-06 7.6533578757691458e-06 0.0000000000000000e+00  -1.1322575648126144e-05 9.2774183188571229e-06 0.0000000000000000e+00  -1.3956228919558339e-05 1.1206448513245121e-05 0.0000000000000000e+00  -1.7115186060991729e-05 1.3501306437743014e-05 0.0000000000000000e+00  -2.0827925733465124e-05 1.6237140204002668e-05 0.0000000000000000e+00  -2.5056949792256744e-05 1.9504438754228765e-05 0.0000000000000000e+00  -2.9669804214512404e-05 2.3398305667106544e-05 0.0000000000000000e+00  0.0000000000000000e+00 0.0000000000000000e+00 0.0000000000000000e+00  -4.4869083940639270e-07 4.0351980588342120e-07 0.0000000000000000e+00  -9.1701873650616525e-07 8.2163868406501966e-07 0.0000000000000000e+00  -1.4257442643899740e-06 1.2694001917241406e-06 0.0000000000000000e+00  -1.9979552831971137e-06 1.7627284492012161e-06 0.0000000000000000e+00  -2.6604690252892439e-06 2.3188818469017118e-06 0.0000000000000000e+00  -3.4455339963558808e-06 2.9569279254678171e-06 0.0000000000000000e+00  -4.3929423038296931e-06 3.6982619634278804e-06 0.0000000000000000e+00  -5.5526336214268105e-06 4.5672206523565797e-06 0.0000000000000000e+00  -6.9877510585903290e-06 5.5919066978277424e-06 0.0000000000000000e+00  -8.7777654693782765e-06 6.8054749125858037e-06 0.0000000000000000e+00  -1.1020457592652031e-05 8.2483912059509205e-06 0.0000000000000000e+00  -1.3829804689239263e-05 9.9726246813741862e-06 0.0000000000000000e+00  -1.7323726297736004e-05 1.2049334272973297e-05 0.0000000000000000e+00  -2.1591813366574881e-05 1.4581860510460219e-05 0.0000000000000000e+00  -2.6633682074620451e-05 1.7723839461786816e-05 0.0000000000000000e+00  -3.2279619078674528e-05 2.1693676642017631e-05 0.0000000000000000e+00  0.0000000000000000e+00 0.0000000000000000e+00 0.0000000000000000e+00  -3.8706603013632914e-07 3.4154131432598807e-07 0.0000000000000000e+00  -7.9179476077114878e-07 6.9529955293826062e-07 0.0000000000000000e+00  -1.2330007369137595e-06 1.0738547803332923e-06 0.0000000000000000e+00  -1.7319146572628852e-06 1.4905040735247071e-06 0.0000000000000000e+00  -2.3137286018966600e-06 1.9596335080527497e-06 0.0000000000000000e+00  -3.0096021076461812e-06 2.4971116753978885e-06 0.0000000000000000e+00  -3.8593808507040221e-06 3.1207271499253366e-06 0.0000000000000000e+00  -4.9153604681390292e-06 3.8507199598492923e-06 0.0000000000000000e+00  -6.2474885719403887e-06 4.7105222832756979e-06 0.0000000000000000e+00  -7.9503082525064857e-06 5.7279770067209791e-06 0.0000000000000000e+00  -1.0151325252277593e-05 6.9376624357170327e-06 0.0000000000000000e+00  -1.3018348497933587e-05 8.3857739611088100e-06 0.0000000000000000e+00  -1.6757567286552185e-05 1.0140763090162717e-05 0.0000000000000000e+00  -2.1581379505891856e-05 1.2316027764610539e-05 0.0000000000000000e+00  -2.7605960030297478e-05 1.5113847124682270e-05 0.0000000000000000e+00  -3.4644001102271603e-05 1.8893110994958772e-05 0.0000000000000000e+00  0.0000000000000000e+00 0.0000000000000000e+00 0.0000000000000000e+00  -3.0776580533836969e-07 2.6733434776873628e-07 0.0000000000000000e+00  -6.3007506773793477e-07 5.4414704274619545e-07 0.0000000000000000e+00  -9.8252328731133988e-07 8.4019256862481338e-07 0.0000000000000000e+00  -1.3829374611757379e-06 1.1657679456246696e-06 0.0000000000000000e+00  -1.8528765684849653e-06 1.5319919744768893e-06 0.0000000000000000e+00  -2.4196897114987969e-06 1.9510947327899965e-06 0.0000000000000000e+00  -3.1195081398389285e-06 2.4367235053021806e-06 0.0000000000000000e+00  -4.0017752925157771e-06 3.0042762590686187e-06 0.0000000000000000e+00  -5.1362912549214999e-06 3.6712888457626498e-06 0.0000000000000000e+00  -6.6242940934049562e-06 4.4579560593373185e-06 0.0000000000000000e+00  -8.6156672787132039e-06 5.3880682623883235e-06 0.0000000000000000e+00  -1.1333985142337057e-05 6.4913774334133961e-06 0.0000000000000000e+00  -1.5105931976814421e-05 7.8108904924861121e-06 0.0000000000000000e+00  -2.0369247908798837e-05 9.4260710590225637e-06 0.0000000000000000e+00  -2.7564080473274090e-05 1.1520047573657206e-05 0.0000000000000000e+00  -3.6686667436300815e-05 1.4521136301943931e-05 0.0000000000000000e+00  0.0000000000000000e+00 0.0000000000000000e+00 0.0000000000000000e+00  -2.1390957761464042e-07 1.8363806492183193e-07 0.0000000000000000e+00  -4.3819789807055678e-07 3.7374581265852187e-07 0.0000000000000000e+00  -6.8405340329196675e-07 5.7697817377444419e-07 0.0000000000000000e+00  -9.6439736632941154e-07 8.0035180835674782e-07 0.0000000000000000e+00  -1.2950951991105015e-06 1.0514272357186795e-06 0.0000000000000000e+00  -1.6966898375535984e-06 1.3384878442269165e-06 0.0000000000000000e+00  -2.1970619682524876e-06 1.6707027172478136e-06 0.0000000000000000e+00  -2.8357481943618736e-06 2.0582351478860225e-06 0.0000000000000000e+00  -3.6713027675796885e-06 2.5121947687231458e-06 0.0000000000000000e+00  -4.7944241483532645e-06 3.0441764324598449e-06 0.0000000000000000e+00  -6.3522906512811652e-06 3.6647882492297989e-06 0.0000000000000000e+00  -8.5947963657977040e-06 4.3799889338587101e-06 0.0000000000000000e+00  -1.1961246924560207e-05 5.1840287634866688e-06 0.0000000000000000e+00  -1.7223641960760738e-05 6.0551066596808277e-06 0.0000000000000000e+00  -2.5592056814180129e-05 7.0160234529653492e-06 0.0000000000000000e+00  -3.7886570295213149e-05 8.6592978432360191e-06 0.0000000000000000e+00  0.0000000000000000e+00 0.0000000000000000e+00 0.0000000000000000e+00  -1.0966359646472443e-07 9.3462680966113906e-08 0.0000000000000000e+00  -2.2473642722165155e-07 1.9020555175466968e-07 0.0000000000000000e+00  -3.5106966528639315e-07 2.9360155997816124e-07 0.0000000000000000e+00  -4.9546582016104940e-07 4.0720379713639062e-07 0.0000000000000000e+00  -6.6636061546868625e-07 5.3483394020558499e-07 0.0000000000000000e+00  -8.7482599268487275e-07 6.8066352877314546e-07 0.0000000000000000e+00  -1.1361657965072392e-06 8.4927130624589394e-07 0.0000000000000000e+00  -1.4726331167084056e-06 1.0456279712018148e-06 0.0000000000000000e+00  -1.9183810318385953e-06 1.2748684875549514e-06 0.0000000000000000e+00  -2.5291750164324292e-06 1.5414431153261269e-06 0.0000000000000000e+00  -3.4031342540922402e-06 1.8464087117023019e-06 0.0000000000000000e+00  -4.7295518430341934e-06 2.1789162394770567e-06 0.0000000000000000e+00  -6.9168307366260032e-06 2.4885628793420424e-06 0.0000000000000000e+00  -1.0966937262188023e-05 2.5906410973841660e-06 0.0000000000000000e+00  -1.9690636548877976e-05 1.8215375488480126e-06 0.0000000000000000e+00  -4.1990279687372406e-05 -2.2799519752859733e-06 0.0000000000000000e+00  0.0000000000000000e+00 0.0000000000000000e+00 0.0000000000000000e+00  0.0000000000000000e+00 0.0000000000000000e+00 0.0000000000000000e+00  0.0000000000000000e+00 0.0000000000000000e+00 0.0000000000000000e+00  0.0000000000000000e+00 0.0000000000000000e+00 0.0000000000000000e+00  0.0000000000000000e+00 0.0000000000000000e+00 0.0000000000000000e+00  0.0000000000000000e+00 0.0000000000000000e+00 0.0000000000000000e+00  0.0000000000000000e+00 0.0000000000000000e+00 0.0000000000000000e+00  0.0000000000000000e+00 0.0000000000000000e+00 0.0000000000000000e+00  0.0000000000000000e+00 0.0000000000000000e+00 0.000