<?xml version="1.0"?>
<VTKFile type="UnstructuredGrid"  version="0.1"  >
<UnstructuredGrid>
<Piece  NumberOfPoints="289" NumberOfCells="512">
<Points>
<DataArray  type="Float64"  NumberOfComponents="3"  format="ascii">0 0 0  0.0625 0 0  0.125 0 0  0.1875 0 0  0.25 0 0  0.3125 0 0  0.375 0 0  0.4375 0 0  0.5 0 0  0.5625 0 0  0.625 0 0  0.6875 0 0  0.75 0 0  0.8125 0 0  0.875 0 0  0.9375 0 0  1 0 0  0 0.0625 0  0.06249808945279504 0.06250185710086678 0  0.1249961224840115 0.06250379493332935 0  0.1874940425223996 0.0625058992607825 0  0.2499917929551879 0.06250826671163148 0  0.3124893175338684 0.06251101228302183 0  0.3749865613001199 0.06251428011779148 0  0.4374834722027212 0.06251826041099941 0  0.4999800035566171 0.06252321811027038 0  0.5624761174603962 0.0625295454889475 0  0.6249717892684181 0.06253786634894147 0  0.6874670133364785 0.06254926109647872 0  0.7499618109494224 0.06256580167662766 0  0.8124562439091046 0.06259196313853899 0  0.8749504456763041 0.06263877659917051 0  0.9374447078466539 0.06273740196270287 0  0.9999397361825627 0.06298782717747872 0  0 0.125 0  0.06249623532984955 0.1250036333843559 0  0.1249923579156375 0.1250074231441179 0  0.1874882545490382 0.1250115349854601 0  0.2499838115944226 0.1250161546301666 0  0.3124789156250151 0.125021501250476 0  0.3749734551047388 0.1250278461570238 0  0.4374673234726146 0.1250355409311609 0  0.4999604239477276 0.1250450627162448 0  0.562452676273328 0.1250570915468625 0  0.6249440254513616 0.1250726493820108 0  0.6874344523416178 0.1250933609605332 0  0.7499239860703737 0.1251219560049994 0  0.8124127194045391 0.125163224073465 0  0.8749008338499634 0.1252256217754193 0  0.9373886648491906 0.1253225527300855 0  0.9998769447110823 0.1254636347846761 0  0 0.1875 0  0.06249449399486843 0.1875052532340368 0  0.1249888192968816 0.1875107290708048 0  0.1874828061068601 0.1875166625169482 0  0.2499762831263714 0.1875233149218445 0  0.3124690780657005 0.1875309909008621 0  0.3749610197259582 0.1875400607345883 0  0.437451942235285 0.1875509919989708 0  0.49994169198525 0.1875643965466343 0  0.5624301376570493 0.1875811028896819 0  0.6249171833547603 0.1876022698858892 0  0.6874027841268585 0.1876295637652105 0  0.7498869617049477 0.1876654162673809 0  0.8123698148142442 0.1877133236082175 0  0.874851507147461 0.1877778920546134 0  0.9373321704750471 0.1878635339362374 0  0.9998114547236013 0.1879691535124514 0  0 0.25 0  0.06249292142626538 0.250006650437943 0  0.1249856191979976 0.2500135771978227 0  0.1874778674305173 0.2500210707091683 0  0.2499694366511175 0.250029450995398 0  0.3124600936228684 0.2500390856735178 0  0.3749496032484871 0.2500504123029485 0  0.4374377334150054 0.2500639673839557 0  0.4999242636767162 0.2500804249668709 0  0.5624089985537137 0.2501006481752461 0  0.6248917857936578 0.2501257555112242 0  0.6873725390016171 0.2501571963485864 0  0.7498512623744829 0.2501968055659728 0  0.8123280729018967 0.2502467417306482 0  0.8748032139543347 0.2503090692733544 0  0.9372770651748522 0.250384532396387 0  0.9997502463571585 0.2504701590553897 0  0 0.3125 0  0.06249157259940085 0.3125077712785014 0  0.1249828686802645 0.3125158583819978 0  0.1874736077563325 0.3125245917424535 0  0.2499635023533783 0.3125343320281905 0  0.3124522563815101 0.312545487468907 0  0.3749395660017003 0.3125585338486164 0  0.4374251241844522 0.312574037905828 0  0.4999086303670437 0.3125926842643305 0  0.5623898066843873 0.3126153042351626 0  0.6248684219645818 0.3126429003729752 0  0.6873443237410022 0.3126766505990443 0  0.7498174766243164 0.3127178552063126 0  0.8122880024509476 0.3127677543759027 0  0.87475621445741 0.3128270998121568 0  0.9372226358663071 0.3128953672583816 0  0.9996879848618987 0.3129697153832224 0  0 0.375 0  0.06249050037357196 0.3750085762412148 0  0.1249806752040443 0.3750174931050969 0  0.1874701925457342 0.3750271054526829 0  0.2499587085469683 0.3750377972436865 0  0.3124458633964007 0.3750499972895721 0  0.3749312799560063 0.3750641961477331 0  0.4374145666304868 0.3750809637976155 0  0.4998953265290204 0.3751009665547895 0  0.5623731754449708 0.3751249792843203 0  0.6248477713425564 0.3751538844433783 0  0.6873188574148758 0.3751886416297048 0  0.7497863186728363 0.3752301995379023 0  0.8122502477596982 0.3752793094797647 0  0.8747110092485815 0.3753361997766851 0  0.937169284839233 0.3754001204236671 0  0.9996260796815831 0.37546893124144 0  0 0.4375 0  0.06248975375011796 0.4375090405064352 0  0.1249791392283326 0.4375184321189469 0  0.1874677786330873 0.4375285393011574 0  0.2499552757848511 0.4375397535234335 0  0.3124412085153585 0.4375525072485709 0  0.3749251235190452 0.4375672880837292 0  0.4374065354805544 0.4375846522756747 0  0.4998849332207905 0.4376052355514576 0  0.5623597967442846 0.4376297572310492 0  0.6248306301616915 0.437659010123867 0  0.687297015840452 0.4376938236885079 0  0.7497586935099055 0.4377349819195273 0  0.8122156624516755 0.437783073686775 0  0.874668293431748 0.4378382603798264 0  0.9371174201735555 0.4378999787708994 0  0.9995643650114622 0.4379666668265191 0  0 0.5 0  0.06248937541852598 0.5000091535619805 0  0.1249783492952884 0.5000186553109366 0  0.1874665068843736 0.5000288656669845 0  0.249953407284245 0.500040169598347 0  0.312438571114753 0.5000529890319673 0  0.374921469774796 0.5000677950838633 0  0.4374015180887991 0.5000851193709186 0  0.4998780735599772 0.5001055628562283 0  0.5623504475199768 0.5001297993645838 0  0.6248179361444951 0.5001585688889185 0  0.6872798819787532 0.5001926529607249 0  0.749735777426441 0.5002328208264045 0  0.8121854166368974 0.5002797318074798 0  0.8746290852242028 0.5003337781791581 0  0.9370677433279324 0.5003948580791994 0  0.9995031138860794 0.5004620843368911 0  0 0.5625 0  0.06248939859816369 0.5625089182956444 0  0.1249783755640437 0.5625181696153553 0  0.1874664921745982 0.5625280979896047 0  0.2499532751230841 0.5625390694469259 0  0.312438198554467 0.5625514831129539 0  0.3749206659226318 0.562565782255077 0  0.4373999929411492 0.5625824649575996 0  0.4998753946601956 0.5626020938379483 0  0.5623459827584886 0.5626253038548978 0  0.6248107840211984 0.5626528067760402 0  0.6872687978004169 0.5626853900572347 0  0.749719117461681 0.5627239059774414 0  0.8121611425309674 0.5627692417015394 0  0.8745948906773025 0.5628222478029814 0  0.9370213604768236 0.5628835751305578 0  0.9994427889034448 0.5629533304558603 0  0 0.625 0  0.06248984332487684 0.6250083498407186 0  0.1249792620419229 0.6250170065579256 0  0.1874678109082311 0.62502628673702 0  0.2499550021683601 0.6250365263406334 0  0.3124402816269807 0.6250480906126743 0  0.3749230018349234 0.6250613842493336 0  0.4374023923145965 0.625076862024641 0  0.4998775283779543 0.6250950403262673 0  0.5623473036010586 0.6251165106935413 0  0.6248104179852909 0.6251419577044236 0  0.6872654063723234 0.6251721855373239 0  0.7497107511579834 0.6252081594000899 0  0.8121451455886888 0.6252510657286907 0  0.8745679771082063 0.6253023763569064 0  0.9369800259709624 0.6253638387817045 0  0.9993841333398252 0.6254371627864324 0  0 0.6875 0  0.06249071252359883 0.687507474320578 0  0.1249810181676326 0.6875152197087582 0  0.1874704869632563 0.6875235155464864 0  0.2499586406229959 0.6875326577987448 0  0.3124449234127153 0.6875429676196193 0  0.3749286667406186 0.6875548004581513 0  0.4374090451059722 0.6875685561741913 0  0.4998850215996148 0.6875846912975109 0  0.5623552835436644 0.6876037359451505 0  0.6248181757930097 0.6876263207980834 0  0.6872716560983573 0.6876532251422222 0  0.7497133328539178 0.6876854666474489 0  0.8121407101342419 0.6877244663716675 0  0.8745518473193917 0.6877723261659661 0  0.9369466397352555 0.6878322017995802 0  0.9993285168699519 0.687908518055571 0  0 0.75 0  0.0624919884277594 0.7500063275282818 0  0.1249836108947931 0.7500128820643222 0  0.1874744778155121 0.7500198974115554 0  0.2499641494844129 0.7500276209027793 0  0.3124521040212074 0.7500363204576568 0  0.3749376957182665 0.7500462921081634 0  0.4374200985195125 0.7500578684648594 0  0.4998982276178308 0.7500714291753636 0  0.5623706307471805 0.7500874158069482 0  0.6248353422531716 0.7501063568856204 0  0.6872897051447411 0.7501289166964941 0  0.7497302090783128 0.7501559998146263 0  0.8121525099515897 0.7501889834468315 0  0.8745520595238278 0.7502302239679935 0  0.9369261728337785 0.7502840649270522 0  0.9992782727205808 0.7503584331601075 0  0 0.8125 0  0.0624936300992543 0.8125049535181805 0  0.1249869588973971 0.8125100832557295 0  0.1874796635479944 0.8125155705932401 0  0.2499713749644892 0.8125216071445562 0  0.312461646747324 0.8125284000290399 0  0.3749499125556613 0.8125361773376749 0  0.4374354241223016 0.8125451938896519 0  0.4999171573629865 0.8125557374450181 0  0.5623936662303696 0.8125681357980371 0  0.6248628523617207 0.8125827662320319 0  0.6873216059402294 0.8126000730199496 0  0.7497652784589257 0.8126206144204812 0  0.8121870488263282 0.8126452154934551 0  0.8745776950025387 0.812675475108583 0  0.9369277074271833 0.8127153157183843 0  0.999236354157787 0.8127747583974093 0  0 0.875 0  0.06249557288194026 0.8750034030843309 0  0.1249909307770644 0.8750069264969976 0  0.1874858421361993 0.875010694021226 0  0.2499800395427927 0.8750148362496818 0  0.3124731946726659 0.875019493993502 0  0.3749648824819439 0.8750248215856362 0  0.4374545262901145 0.875030989752031 0  0.4999413087209855 0.8750381871381128 0  0.5624240200167996 0.875046618105777 0  0.6249007877597668 0.875056490868519 0  0.6873685757675834 0.8750679821205046 0  0.7498222303255958 0.8750811498426702 0  0.8122526817929662 0.8750957574312346 0  0.8746439252548123 0.875111092177966 0  0.9369705600171903 0.8751268781456244 0  0.9992136577809332 0.8751526363904604 0  0 0.9375 0  0.06249773048730534 0.9375017321341909 0  0.1249953489464667 0.9375035252899554 0  0.1874927343179889 0.9375054422153816 0  0.2499897458703645 0.9375075490425159 0  0.3124862091260136 0.9375099169282767 0  0.3749818951842731 0.9375126235143052 0  0.43747648788174
[...]
<PointData  Vectors="f_54"> 
<DataArray  type="Float64"  Name="f_54"  NumberOfComponents="3" format="ascii">0.0000000000000000e+00 0.0000000000000000e+00 0.0000000000000000e+00  0.0000000000000000e+00 0.0000000000000000e+00 0.0000000000000000e+00  0.0000000000000000e+00 0.0000000000000000e+00 0.0000000000000000e+00  0.0000000000000000e+00 0.0000000000000000e+00 0.0000000000000000e+00  0.0000000000000000e+00 0.0000000000000000e+00 0.0000000000000000e+00  0.0000000000000000e+00 0.0000000000000000e+00 0.0000000000000000e+00  0.0000000000000000e+00 0.0000000000000000e+00 0.0000000000000000e+00  0.0000000000000000e+00 0.0000000000000000e+00 0.0000000000000000e+00  0.0000000000000000e+00 0.0000000000000000e+00 0.0000000000000000e+00  0.0000000000000000e+00 0.0000000000000000e+00 0.0000000000000000e+00  0.0000000000000000e+00 0.0000000000000000e+00 0.0000000000000000e+00  0.0000000000000000e+00 0.0000000000000000e+00 0.0000000000000000e+00  0.0000000000000000e+00 0.0000000000000000e+00 0.0000000000000000e+00  0.0000000000000000e+00 0.0000000000000000e+00 0.0000000000000000e+00  0.0000000000000000e+00 0.0000000000000000e+00 0.0000000000000000e+00  0.0000000000000000e+00 0.0000000000000000e+00 0.0000000000000000e+00  0.0000000000000000e+00 0.0000000000000000e+00 0.0000000000000000e+00  0.0000000000000000e+00 0.0000000000000000e+00 0.0000000000000000e+00  8.3827413900763820e-09 1.0444632646283522e-08 0.0000000000000000e+00  1.7005914535363742e-08 2.1326241129223200e-08 0.0000000000000000e+00  2.6111154226800494e-08 3.3107317186515601e-08 0.0000000000000000e+00  3.5943730900181817e-08 4.6306467302212585e-08 0.0000000000000000e+00  4.6755525124115568e-08 6.1537683687066599e-08 0.0000000000000000e+00  5.8810677336620776e-08 7.9567614605970948e-08 0.0000000000000000e+00  7.2397324465810742e-08 1.0140705175846462e-07 0.0000000000000000e+00  8.7851961909779655e-08 1.2846953134133186e-07 0.0000000000000000e+00  1.0560830590751827e-07 1.6286931731778973e-07 0.0000000000000000e+00  1.2629134760956175e-07 2.0803169647391157e-07 0.0000000000000000e+00  1.5089078823715646e-07 2.7007051428304669e-07 0.0000000000000000e+00  1.8106226072793424e-07 3.6125767281784543e-07 0.0000000000000000e+00  2.1957658856519337e-07 5.0985521620155281e-07 0.0000000000000000e+00  2.7058628897456463e-07 7.9143294942455466e-07 0.0000000000000000e+00  3.3709902880080654e-07 1.4396532301470279e-06 0.0000000000000000e+00  4.0019097574690542e-07 3.2727384660522077e-06 0.0000000000000000e+00  0.0000000000000000e+00 0.0000000000000000e+00 0.0000000000000000e+00  1.6525025882067092e-08 2.0452241594067581e-08 0.0000000000000000e+00  3.3529171980917721e-08 4.1752213852430182e-08 0.0000000000000000e+00  5.1493703904688540e-08 6.4794788911373058e-08 0.0000000000000000e+00  7.0906120760347448e-08 9.0577752910998353e-08 0.0000000000000000e+00  9.2264455984734664e-08 1.2027159667119015e-07 0.0000000000000000e+00  1.1608515950929824e-07 1.5531778878279613e-07 0.0000000000000000e+00  1.4292002235625476e-07 1.9757876170768703e-07 0.0000000000000000e+00  1.7339300373770157e-07 2.4958265669634307e-07 0.0000000000000000e+00  2.0827721682609093e-07 3.1494592550255072e-07 0.0000000000000000e+00  2.4864875225749687e-07 3.9913783088818417e-07 0.0000000000000000e+00  2.9618500019546601e-07 5.1090706956266394e-07 0.0000000000000000e+00  3.5374695384129781e-07 6.6493505871305064e-07 0.0000000000000000e+00  4.2661198829728479e-07 8.8629838672840615e-07 0.0000000000000000e+00  5.2565421382013894e-07 1.2145992546066027e-06 0.0000000000000000e+00  6.7814593046928746e-07 1.6850940522149030e-06 0.0000000000000000e+00  9.7373418453814270e-07 2.1431728072634762e-06 0.0000000000000000e+00  0.0000000000000000e+00 0.0000000000000000e+00 0.0000000000000000e+00  2.4188594408076147e-08 2.9612565085573048e-08 0.0000000000000000e+00  4.9091892657510244e-08 6.0435263952989238e-08 0.0000000000000000e+00  7.5427560992598164e-08 9.3740568756587788e-08 0.0000000000000000e+00  1.0392096457468103e-07 1.3093549732916622e-07 0.0000000000000000e+00  1.3530833966310111e-07 1.7364854089449834e-07 0.0000000000000000e+00  1.7034144354278143e-07 2.2384565986212627e-07 0.0000000000000000e+00  2.0979879922522209e-07 2.8399563357746153e-07 0.0000000000000000e+00  2.5451471031294850e-07 3.5731767611684884e-07 0.0000000000000000e+00  3.0544763534343991e-07 4.4816424430070644e-07 0.0000000000000000e+00  3.6382598164375121e-07 5.6261868702959061e-07 0.0000000000000000e+00  4.3143148598447789e-07 7.0940450348625193e-07 0.0000000000000000e+00  5.1109507437771983e-07 9.0113609634237581e-07 0.0000000000000000e+00  6.0741165688365668e-07 1.1555518036221001e-06 0.0000000000000000e+00  7.2713705629917167e-07 1.4951926703925390e-06 0.0000000000000000e+00  8.7567395386137597e-07 1.9429813630815076e-06 0.0000000000000000e+00  1.0296257791005681e-06 2.5293760132292440e-06 0.0000000000000000e+00  0.0000000000000000e+00 0.0000000000000000e+00 0.0000000000000000e+00  3.1138173407245463e-08 3.7563507389586924e-08 0.0000000000000000e+00  6.3222409833183651e-08 7.6635677831854612e-08 0.0000000000000000e+00  9.7203208550513937e-08 1.1879569223580890e-07 0.0000000000000000e+00  1.3404057143510249e-07 1.6577271564682055e-07 0.0000000000000000e+00  1.7470422933700353e-07 2.1953702269215272e-07 0.0000000000000000e+00  2.2016994221598185e-07 2.8241338724750372e-07 0.0000000000000000e+00  2.7141388525338517e-07 3.5722881303222072e-07 0.0000000000000000e+00  3.2941224649634805e-07 4.4750997327474739e-07 0.0000000000000000e+00  3.9516287971724549e-07 5.5774636843456298e-07 0.0000000000000000e+00  4.6976277753655213e-07 6.9372402180880193e-07 0.0000000000000000e+00  5.5460139060417898e-07 8.6288707281934073e-07 0.0000000000000000e+00  6.5176345892125871e-07 1.0745452787230379e-06 0.0000000000000000e+00  7.6476423089163634e-07 1.3394168135210612e-06 0.0000000000000000e+00  8.9976745580342478e-07 1.6674073053753854e-06 0.0000000000000000e+00  1.0678185715038337e-06 2.0619388438320647e-06 0.0000000000000000e+00  1.2927081782314769e-06 2.5085873543410113e-06 0.0000000000000000e+00  0.0000000000000000e+00 0.0000000000000000e+00 0.0000000000000000e+00  3.7142552344156230e-08 4.4006618665934142e-08 0.0000000000000000e+00  7.5456683734564998e-08 8.9748279711376621e-08 0.0000000000000000e+00  1.1612198105780400e-07 1.3903281826572739e-07 0.0000000000000000e+00  1.6033280341663140e-07 1.9382026737089761e-07 0.0000000000000000e+00  2.0929602742676642e-07 2.5630908374893854e-07 0.0000000000000000e+00  2.6421698912284021e-07 3.2903482183791511e-07 0.0000000000000000e+00  3.2626988985204414e-07 4.1498483149059331e-07 0.0000000000000000e+00  3.9655112793351258e-07 5.1772945342798716e-07 0.0000000000000000e+00  4.7602042710117841e-07 6.4156064826252834e-07 0.0000000000000000e+00  5.6544984428494399e-07 7.9160438465038651e-07 0.0000000000000000e+00  6.6543309741425958e-07 9.7381682878459619e-07 0.0000000000000000e+00  7.7657210544856783e-07 1.1946602181238897e-06 0.0000000000000000e+00  9.0008218081022419e-07 1.4600568652287092e-06 0.0000000000000000e+00  1.0393000607452867e-06 1.7729575949316294e-06 0.0000000000000000e+00  1.2030513122824281e-06 2.1286603596115628e-06 0.0000000000000000e+00  1.4124370191565069e-06 2.5069500991334630e-06 0.0000000000000000e+00  0.0000000000000000e+00 0.0000000000000000e+00 0.0000000000000000e+00  4.1976178419572889e-08 4.8715367068370122e-08 0.0000000000000000e+00  8.5340072216230867e-08 9.9317872480406120e-08 0.0000000000000000e+00  1.3149488348646666e-07 1.5376587113631908e-07 0.0000000000000000e+00  1.8187153357420094e-07 2.1416388943905186e-07 0.0000000000000000e+00  2.3792806394145137e-07 2.8283969336326650e-07 0.0000000000000000e+00  3.0112896197635819e-07 3.6242464899120670e-07 0.0000000000000000e+00  3.7289313930887697e-07 4.5593489001058324e-07 0.0000000000000000e+00  4.5449613840488532e-07 5.6684532069742394e-07 0.0000000000000000e+00  5.4691063857828459e-07 6.9913742256689386e-07 0.0000000000000000e+00  6.5057445317041735e-07 8.5728045083501413e-07 0.0000000000000000e+00  7.6509866201832630e-07 1.0460667858616516e-06 0.0000000000000000e+00  8.8899575840716794e-07 1.2701587055872921e-06 0.0000000000000000e+00  1.0196696960206531e-06 1.5331188238165535e-06 0.0000000000000000e+00  1.1542572956369521e-06 1.8356332974789715e-06 0.0000000000000000e+00  1.2925740870544552e-06 2.1727469097751162e-06 0.0000000000000000e+00  1.4445328978247220e-06 2.5306433520489535e-06 0.0000000000000000e+00  0.0000000000000000e+00 0.0000000000000000e+00 0.0000000000000000e+00  4.5422690373069272e-08 5.1537303084870326e-08 0.0000000000000000e+00  9.2432588595898219e-08 1.0504148423088426e-07 0.0000000000000000e+00  1.4264536067384084e-07 1.6254738471722578e-07 0.0000000000000000e+00  1.9772904172711238e-07 2.2622681278123250e-07 0.0000000000000000e+00  2.5941348185655608e-07 2.9845629703133207e-07 0.0000000000000000e+00  3.2947434492656609e-07 3.8188160451041255e-07 0.0000000000000000e+00  4.0967311228510171e-07 4.7947334131509868e-07 0.0000000000000000e+00  5.0162413141888539e-07 5.9456280816705985e-07 0.0000000000000000e+00  6.0654533564579450e-07 7.3083946677125459e-07 0.0000000000000000e+00  7.2483254102522466e-07 8.9228036732209640e-07 0.0000000000000000e+00  8.5538624064757887e-07 1.0829678026352884e-06 0.0000000000000000e+00  9.9463875502644993e-07 1.3067354399009026e-06 0.0000000000000000e+00  1.1353383614500666e-06 1.5665669343458256e-06 0.0000000000000000e+00  1.2654697925331902e-06 1.8636548908953717e-06 0.0000000000000000e+00  1.3684118937834334e-06 2.1960163362337771e-06 0.0000000000000000e+00  1.4265191440216265e-06 2.5566243459777224e-06 0.0000000000000000e+00  0.0000000000000000e+00 0.0000000000000000e+00 0.0000000000000000e+00  4.7282203207190249e-08 5.2392190122133268e-08 0.0000000000000000e+00  9.6321861771956916e-08 1.0676239625421562e-07 0.0000000000000000e+00  1.4892390493576580e-07 1.6515336485301212e-07 0.0000000000000000e+00  2.0698398722096991e-07 2.2973629345398040e-07 0.0000000000000000e+00  2.7251974284608652e-07 3.0287177882592325e-07 0.0000000000000000e+00  3.4767803002782249e-07 3.8716416504450295e-07 0.0000000000000000e+00  4.3469596676633032e-07 4.8550240424997042e-07 0.0000000000000000e+00  5.3577627106701843e-07 6.0107643092954687e-07 0.0000000000000000e+00  6.5280838863470779e-07 7.3735400731473950e-07 0.0000000000000000e+00  7.8682025406629581e-07 8.9800227421767901e-07 0.0000000000000000e+00  9.3697583236555241e-07 1.0867477521395304e-06 0.0000000000000000e+00  1.0988442016743118e-06 1.3071982808330203e-06 0.0000000000000000e+00  1.2615972719899228e-06 1.5627024236074248e-06 0.0000000000000000e+00  1.4039072763208647e-06 1.8563479936198219e-06 0.0000000000000000e+00  1.4891310697830862e-06 2.1909965016680809e-06 0.0000000000000000e+00  1.4633720816589667e-06 2.5682851187521382e-06 0.0000000000000000e+00  0.0000000000000000e+00 0.0000000000000000e+00 0.0000000000000000e+00  4.7383953967611599e-08 5.1268324277468965e-08 0.0000000000000000e+00  9.6647828738455702e-08 1.0446100620829814e-07 0.0000000000000000e+00  1.4974278822945137e-07 1.6156482759850905e-07 0.0000000000000000e+00  2.0876079689051996e-07 2.2468928996119401e-07 0.0000000000000000e+00  2.7599999870734602e-07 2.9612453850103098e-07 0.0000000000000000e+00  3.5401743685895537e-07 3.7839241999603539e-07 0.0000000000000000e+00  4.4565067398145149e-07 4.7428360461206181e-07 0.0000000000000000e+00  5.5397006166373315e-07 5.8686954212690162e-07 0.0000000000000000e+00  6.8208563157424087e-07 7.1947450574064869e-07 0.0000000000000000e+00  8.3266146955845631e-07 8.7559562157437805e-07 0.0000000000000000e+00  1.0068585920059392e-06 1.0587818789531982e-06 0.0000000000000000e+00  1.2021890973176749e-06 1.2725565362672903e-06 0.0000000000000000e+00  1.4083560893256270e-06 1.5206358478641638e-06 0.0000000000000000e+00  1.5995399798464106e-06 1.8079705258300440e-06 0.0000000000000000e+00  1.7210165911307436e-06 2.1432677320639486e-06 0.0000000000000000e+00  1.6690249815348176e-06 2.5425197047089002e-06 0.0000000000000000e+00  0.0000000000000000e+00 0.0000000000000000e+00 0.0000000000000000e+00  4.5604906053888911e-08 4.8218809279425692e-08 0.0000000000000000e+00  9.3141166838863189e-08 9.8246386270774294e-08 0.0000000000000000e+00  1.4463630599021714e-07 1.5195254310891107e-07 0.0000000000000000e+00  2.0231314856944760e-07 2.1132702278878212e-07 0.0000000000000000e+00  2.6869757867492011e-07 2.7853828819981866e-07 0.0000000000000000e+00  3.4673520806631815e-07 3.5598835276727490e-07 0.0000000000000000e+00  4.3991191000311535e-07 4.4635739486123558e-07 0.0000000000000000e+00  5.5235920630345404e-07 5.5262606075831439e-07 0.0000000000000000e+00  6.8889437034603762e-07 6.7805484566983631e-07 0.0000000000000000e+00  8.5487695646685037e-07 8.2609164480038217e-07 0.0000000000000000e+00  1.0556151933774822e-06 1.0001853282941948e-06 0.0000000000000000e+00  1.2947322218034806e-06 1.2035554536665960e-06 0.0000000000000000e+00  1.5701898567416676e-06 1.4392433476185311e-06 0.0000000000000000e+00  1.8650814022505234e-06 1.7115380751398191e-06 0.0000000000000000e+00  2.1267694164911403e-06 2.0314603403736589e-06 0.0000000000000000e+00  2.2203490276087603e-06 2.4305427452056717e-06 0.0000000000000000e+00  0.0000000000000000e+00 0.0000000000000000e+00 0.0000000000000000e+00  4.1893082667031375e-08 4.3358768693612990e-08 0.0000000000000000e+00  8.5673477672166369e-08 8.8350626220558858e-08 0.0000000000000000e+00  1.3334510321731185e-07 1.3666835030677775e-07 0.0000000000000000e+00  1.8715379073284900e-07 1.9012299254298244e-07 0.0000000000000000e+00  2.4973640383038794e-07 2.5070632177625402e-07 0.0000000000000000e+00  3.2430652723541997e-07 3.2065567751392041e-07 0.0000000000000000e+00  4.1489299751479136e-07 4.0251817487836462e-07 0.0000000000000000e+00  5.2664871292503278e-07 4.9920398710102454e-07 0.0000000000000000e+00  6.6624260470862441e-07 6.1400201592443193e-07 0.0000000000000000e+00  8.4232564926266507e-07 7.5049713606705170e-07 0.0000000000000000e+00  1.0659923441195814e-06 9.1226805414343612e-07 0.0000000000000000e+00  1.3509644340496476e-06 1.1021782735848005e-06 0.0000000000000000e+00  1.7126932953101816e-06 1.3211637191829936e-06 0.0000000000000000e+00  2.1640974725738838e-06 1.5673556787916586e-06 0.0000000000000000e+00  2.7012748422927539e-06 1.8402824690836390e-06 0.0000000000000000e+00  3.2586457364451962e-06 2.1662411544567326e-06 0.0000000000000000e+00  0.0000000000000000e+00 0.0000000000000000e+00 0.0000000000000000e+00  3.6292100961397672e-08 3.6863568049649795e-08 0.0000000000000000e+00  7.4311919295317595e-08 7.5126113708338032e-08 0.0000000000000000e+00  1.1591322119339142e-07 1.1624330556337891e-07 0.0000000000000000e+00  1.6321559134309966e-07 1.6178490674220269e-07 0.0000000000000000e+00  2.1878102517299760e-07 2.1350094085258622e-07 0.0000000000000000e+00  2.8585236828281800e-07 2.7339961555463567e-07 0.0000000000000000e+00  3.6869243818763998e-07 3.4384139489608708e-07 0.0000000000000000e+00  4.7308347840807015e-07 4.2764998874718301e-07 0.0000000000000000e+00  6.0708039181769776e-07 5.2822523204142788e-07 0.0000000000000000e+00  7.8216546554170243e-07 6.4959116802165200e-07 0.0000000000000000e+00  1.0150396170826800e-06 7.9616579284920198e-07 0.0000000000000000e+00  1.3304304327097586e-06 9.7166883175467741e-07 0.0000000000000000e+00  1.7655639997246185e-06 1.1758026512180979e-06 0.0000000000000000e+00  2.3775274015281296e-06 1.3963146368755123e-06 0.0000000000000000e+00  3.2561709969000370e-06 1.5957897550906963e-06 0.0000000000000000e+00  4.5480651027298480e-06 1.7133953845686155e-06 0.0000000000000000e+00  0.0000000000000000e+00 0.0000000000000000e+00 0.0000000000000000e+00  2.8961326274097729e-08 2.8967203116645724e-08 0.0000000000000000e+00  5.9365951311929767e-08 5.9043934352896301e-08 0.0000000000000000e+00  9.2776256439282641e-08 9.1389749759518459e-08 0.0000000000000000e+00  1.3100880763522285e-07 1.2726679026407780e-07 0.0000000000000000e+00  1.7631204653960152e-07 1.6810518641350703e-07 0.0000000000000000e+00  2.3161860636700511e-07 2.1558964070057698e-07 0.0000000000000000e+00  3.0092532420006263e-07 2.7178259177269119e-07 0.0000000000000000e+00  3.8988983033378156e-07 3.3930798346906549e-07 0.0000000000000000e+00  5.0679726433957560e-07 4.2162824484786990e-07 0.0000000000000000e+00  6.6416862128816857e-07 5.2343737904167498e-07 0.0000000000000000e+00  8.8150138866227707e-07 6.5108771799621897e-07 0.0000000000000000e+00  1.1900542516417012e-06 8.1248182572949229e-07 0.0000000000000000e+00  1.6414580419141574e-06 1.0140377778424339e-06 0.0000000000000000e+00  2.3240420890646475e-06 1.2463209149628911e-06 0.0000000000000000e+00  3.3974033780722354e-06 1.4331209294373901e-06 0.0000000000000000e+00  5.1833155862318808e-06 1.2889737671966593e-06 0.0000000000000000e+00  0.0000000000000000e+00 0.0000000000000000e+00 0.0000000000000000e+00  2.0185190993362061e-08 1.9959224231098281e-08 0.0000000000000000e+00  4.1411347444537840e-08 4.0689729318537313e-08 0.0000000000000000e+00  6.4812907416825158e-08 6.3000909610838879e-08 0.0000000000000000e+00  9.1725500036274659e-08 8.7781694456616721e-08 0.0000000000000000e+00  1.2383135499446240e-07 1.1605547996712666e-07 0.0000000000000000e+00  1.6337233127515465e-07 1.4905992611823284e-07 0.0000000000000000e+00  2.1348177255968377e-07 1.8837514554503162e-07 0.0000000000000000e+00  2.7872435988150431e-07 2.3614763194684111e-07 0.0000000000000000e+00  3.6600414403047240e-07 2.9550861463672354e-07 0.0000000000000000e+00  4.8613439742570652e-07 3.7139555568602689e-07 0.0000000000000000e+00  6.5661243881087926e-07 4.7220832574984410e-07 0.0000000000000000e+00  9.0659010757115266e-07 6.1309045601855416e-07 0.0000000000000000e+00  1.2857105627228001e-06 8.2162201323795942e-07 0.0000000000000000e+00  1.8788041778989659e-06 1.1422863259378773e-06 0.0000000000000000e+00  2.8238991466595243e-06 1.6027428071097154e-06 0.0000000000000000e+00  4.2956224775996122e-06 1.9045180553959831e-06 0.0000000000000000e+00  0.0000000000000000e+00 0.0000000000000000e+00 0.0000000000000000e+00  1.0366288103484957e-08 1.0178183440978510e-08 0.0000000000000000e+00  2.1278616803659644e-08 2.0752193711934744e-08 0.0000000000000000e+00  3.3334551257160830e-08 3.2138660521189178e-08 0.0000000000000000e+00  4.7243104898590997e-08 4.4798169023624549e-08 0.0000000000000000e+00  6.3906835857226514e-08 5.9267288122628602e-08 0.0000000000000000e+00  8.4544234593355455e-08 7.6207988003642056e-08 0.0000000000000000e+00  1.1088396063892752e-07 9.6493390348578835e-08 0.0000000000000000e+00  1.4548715760952152e-07 1.2137297220942113e-07 0.0000000000000000e+00  1.9230176704188276e-07 1.5282327084780549e-07 0.0000000000000000e+00  2.5764741253586779e-07 1.9436602209408226e-07 0.0000000000000000e+00  3.5202558843913882e-07 2.5316506922308015e-07 0.0000000000000000e+00  4.9358604754480537e-07 3.4592684077686257e-07 0.0000000000000000e+00  7.1516451335312832e-07 5.1706432392629581e-07 0.0000000000000000e+00  1.0799497106015782e-06 8.9940688834227206e-07 0.0000000000000000e+00  1.7215438049728515e-06 1.9317533390432500e-06 0.0000000000000000e+00  2.9648213823394423e-06 5.1767133752749459e-06 0.0000000000000000e+00  0.0000000000000000e+00 0.0000000000000000e+00 0.0000000000000000e+00  0.0000000000000000e+00 0.0000000000000000e+00 0.0000000000000000e+00  0.0000000000000000e+00 0.0000000000000000e+00 0.0000000000000000e+00  0.0000000000000000e+00 0.0000000000000000e+00 0.0000000000000000e+00  0.0000000000000000e+00 0.0000000000000000e+00 0.0000000000000000e+00  0.0000000000000000e+00 0.0000000000000000e+00 0.0000000000000000e+00  0.0000000000000000e+00 0.0000000000000000e+00 0.0000000000000000e+00  0.0000000000000000e+00 0.0000000000000000e+00 0.0000000000000000e+00  0.0000000000000000e+00 0.0000000000000000e+00 0.0000000000000000e+00  0.0000000000000000e+00 0.0000000000000000e+00 0.0000000000000000e+00  0.0000000000000000e+00 0.0000000000000000e+00 0.0000000000000000e+00  0.0000000000000000e+00 0.0000000000000000e+00 0.0000000000000000e+00  0.0000000000