<?xml version="1.0"?>
<VTKFile type="UnstructuredGrid"  version="0.1"  >
<UnstructuredGrid>
<Piece  NumberOfPoints="289" NumberOfCells="512">
<Points>
<DataArray  type="Float64"  NumberOfComponents="3"  format="ascii">0 0 0  0.0625 0 0  0.125 0 0  0.1875 0 0  0.25 0 0  0.3125 0 0  0.375 0 0  0.4375 0 0  0.5 0 0  0.5625 0 0  0.625 0 0  0.6875 0 0  0.75 0 0  0.8125 0 0  0.875 0 0  0.9375 0 0  1 0 0  0 0.0625 0  0.06250171775629375 0.06249857450087175 0  0.1250034867358727 0.06249708372586823 0  0.1875053580297574 0.06249545798000172 0  0.2500073828617331 0.06249361805532141 0  0.312509612254488 0.06249146868375542 0  0.37501209622785 0.06248888918640949 0  0.4375148823623542 0.06248571891102551 0  0.5000180135599717 0.06248173269536408 0  0.5625215248208907 0.06247659619750677 0  0.6250254387659421 0.06246977770533239 0  0.68752975924417 0.06246035796410028 0  0.7500344609463434 0.0624465782340294 0  0.812539468143082 0.06242464697323694 0  0.8750445998671236 0.0623852255106284 0  0.9375494093074933 0.0623019160649257 0  1.000052723099439 0.06208967811558386 0  0 0.125 0  0.06250338449194415 0.1249972139869562 0  0.1250068712637742 0.1249943018174763 0  0.1875105625181572 0.1249911291245238 0  0.2500145610300293 0.1249875439714932 0  0.3125189696432575 0.1249833650759777 0  0.375023889837287 0.1249783654969838 0  0.4375294190291195 0.1249722482393575 0  0.500035646288305 0.1249646072821347 0  0.5625426461839683 0.1249548615217299 0  0.6250504705349488 0.1249421366534661 0  0.6875591378008438 0.1249250442331839 0  0.7500686194507631 0.1249012566124827 0  0.8125788211726132 0.1248666974933696 0  0.8750895524252397 0.1248141726119258 0  0.9376004643048013 0.1247322445820905 0  1.000110884851508 0.1246124504007457 0  0 0.1875 0  0.06250494940747259 0.1874959793181902 0  0.1250100516788866 0.1874917798035755 0  0.1875154600222989 0.1874872116896881 0  0.2500213292650188 0.1874820620218006 0  0.3125278155102262 0.1874760797241373 0  0.3750350744124479 0.1874689558557109 0  0.4375432575509261 0.1874602958526929 0  0.5000525063984741 0.1874495786004042 0  0.5625629434994424 0.1874360939332577 0  0.6250746607619586 0.1874188453508034 0  0.6875877053702995 0.1873963998347864 0  0.7501020650815203 0.1873666710467772 0  0.8126176578692259 0.187326674046749 0  0.8751343413732874 0.1872725152381516 0  0.9376519985627084 0.1872006030741852 0  1.000170928676314 0.1871125674443302 0  0 0.25 0  0.06250636210310959 0.2499949231549469 0  0.1250129265813062 0.2499896257395589 0  0.1875198971011309 0.249983874746686 0  0.2500274808871594 0.2499774110731488 0  0.3125358890379278 0.2499699335080771 0  0.3750453350388539 0.249961078748193 0  0.4375560307228446 0.2499503954224767 0  0.500068178901604 0.2499373096011139 0  0.562581962004352 0.249921079080002 0  0.6250975264575228 0.2499007351477582 0  0.6876149634227705 0.2498750172340742 0  0.750134288144151 0.2498423272430196 0  0.8126554227497237 0.2498007870922682 0  0.8751781901561912 0.249748605877716 0  0.9377023219155149 0.2496851351161602 0  1.000227418880704 0.2496128392316541 0  0 0.3125 0  0.06250757315358582 0.3124940872272742 0  0.1250153960910891 0.3124879245927221 0  0.1875237214864381 0.3124812494098982 0  0.2500328086499059 0.3124737723783403 0  0.312542925179438 0.3124651620566177 0  0.3750543464694163 0.3124550266468461 0  0.4375673520508743 0.3124428923212468 0  0.500082217572512 0.3124281778819495 0  0.5625992012006762 0.3124101671616255 0  0.6251185235103235 0.3123879845682869 0  0.6876403408295211 0.3123605880858943 0  0.750164713765393 0.3123268119209132 0  0.8126915752970153 0.3122855215845525 0  0.8752207054940745 0.3122359805994664 0  0.9377517201804595 0.3121785203660076 0  1.000284080048616 0.3121154100618076 0  0 0.375 0  0.06250853512386835 0.3749935008298912 0  0.1250173637676978 0.374986735336312 0  0.1875267846582139 0.3749794248509359 0  0.2500371075464934 0.3749712653448362 0  0.312548657042351 0.3749619132861224 0  0.3750617741552003 0.3749509699576763 0  0.4375768142214101 0.3749379642929621 0  0.5000941394819813 0.3749223352901562 0  0.5626141042040453 0.3749034171687384 0  0.6251370301511364 0.3748804344948642 0  0.6876631708079828 0.3748525215943708 0  0.7501926646120105 0.3748187911723694 0  0.8127254810022906 0.3747784883184163 0  0.8752613680955835 0.3747312652941471 0  0.9377998151646841 0.3746775670278162 0  1.000340041909222 0.3746189746220279 0  0 0.4375 0  0.06250920414016579 0.4374931804382299 0  0.1250187396839406 0.4374860904300992 0  0.187528946251108 0.4374784482619029 0  0.2500401802068645 0.4374699492623138 0  0.3125528216562757 0.4374602534193132 0  0.3750672793486131 0.4374489721689825 0  0.4375839919464868 0.437435654680345 0  0.5001034233334052 0.4374197748711031 0  0.5626260486841557 0.4374007221310329 0  0.6251523271337637 0.4373778017966106 0  0.6876826566152066 0.4373502562269725 0  0.750217307867351 0.4373173234782029 0  0.8127563393296062 0.4372783550763575 0  0.875299504103522 0.4372330087491144 0  0.9378461737806094 0.4371815006216558 0  1.000395315908886 0.4371248321816566 0  0 0.5 0  0.0625095420852375 0.4999931301969822 0  0.1250194448258927 0.499985997069115 0  0.1875300806350566 0.4999783274859479 0  0.2500418455055765 0.4999698284616694 0  0.3125551701592713 0.4999601766453399 0  0.3750705298723124 0.4999490072526848 0  0.437588451433056 0.4999359025648509 0  0.5001095144848956 0.4999203805773559 0  0.5626343427458674 0.4999018852725327 0  0.6251635783340052 0.4998797816485995 0  0.6876978301996001 0.4998533615556771 0  0.7502375870669938 0.4998218710440563 0  0.8127830896924828 0.4997845761115049 0  0.8753341718620614 0.4997408886814569 0  0.9378901084933317 0.4996905694305462 0  1.000449545863977 0.4996339893724263 0  0 0.5625 0  0.06250951940801983 0.5624933430100942 0  0.1250194168422012 0.5624864395797815 0  0.1875300858232859 0.5624790351696867 0  0.2500419508295411 0.5624708589344577 0  0.3125554833995814 0.562461615182845 0  0.3750712184361473 0.5624509743229484 0  0.4375897696231395 0.5624385629900708 0  0.5001118413471652 0.5624239528595161 0  0.5626382318826519 0.5624066473480238 0  0.6251698184139007 0.5623860651700477 0  0.6877075086579297 0.5623615202523904 0  0.7502521378180256 0.5623322008627122 0  0.8128042884784653 0.5622971614072253 0  0.875364026825741 0.5622553648238112 0  0.9379305997374756 0.5622058538990137 0  1.000502230417865 0.5621481623671118 0  0 0.625 0  0.06250911841484146 0.6249938020170597 0  0.1250186169213555 0.6249873825148982 0  0.1875288945047461 0.6249805137289347 0  0.2500403880301403 0.6249729554388807 0  0.3125535935713312 0.6249644485972707 0  0.3750690902950205 0.6249547085860273 0  0.4375875669717408 0.6249434174678949 0  0.5001098497593803 0.6249302137594437 0  0.5626369268414578 0.6249146765978437 0  0.6251699594520009 0.6248962983173413 0  0.687710257997624 0.6248744355463127 0  0.7502591853304554 0.6248482265133171 0  0.8128179305791925 0.6248164706152073 0  0.8753870955356585 0.6247775083021123 0  0.9379661028014518 0.6247292494177792 0  1.000552653023591 0.6246696668791828 0  0 0.6875 0  0.06250833674247808 0.6874944823142993 0  0.1250170372231037 0.6874887741972816 0  0.1875264864322946 0.6874826808608473 0  0.2500371122927282 0.6874759990245396 0  0.3125494115440944 0.6874685129549387 0  0.3750639811507275 0.6874599906612036 0  0.4375815572881333 0.6874501797389776 0  0.5001030634562251 0.6874388012294361 0  0.5626296671212737 0.6874255372344735 0  0.6251628381504443 0.6874100023882422 0  0.687704387500211 0.6873916783682933 0  0.7502564334040587 0.687369773042489 0  0.8128211867862719 0.687342949001856 0  0.8754003777781656 0.6873088912863587 0  0.9379941471594208 0.6872638736692112 0  1.000599574121102 0.6872030047808562 0  0 0.75 0  0.06250719052064344 0.7499953528218913 0  0.12501470785849 0.7499905505675888 0  0.1875229006352965 0.7499854355607219 0  0.2500321619388481 0.74997984536226 0  0.3125429577701266 0.7499736112800724 0  0.3750558639299809 0.7499665580043829 0  0.4375716159592163 0.7499585046718893 0  0.5000911782320453 0.749949267068192 0  0.562615839439166 0.749938658596935 0  0.6251473401503805 0.7499264814707515 0  0.6876880270929095 0.7499124830002162 0  0.750240990761357 0.7498962115368315 0  0.812810040187227 0.7498766229986568 0  0.8753991437825935 0.7498511737328158 0  0.9380106307272252 0.7498142362542123 0  1.000641506394778 0.7497561424750661 0  0 0.8125 0  0.06250571656024777 0.8124963781819325 0  0.1250117019945494 0.8124926391494994 0  0.1875182450903899 0.8124886645009466 0  0.2500256756367091 0.8124843340670469 0  0.3125343919955077 0.8124795264785506 0  0.3750448988596943 0.8124741219300118 0  0.4375578620637203 0.8124680087463273 0  0.500074191462084 0.8124610962983118 0  0.5625951696591611 0.8124533378892311 0  0.6251226542783087 0.8124447668590816 0  0.6876593916655255 0.8124355402582282 0  0.750209472869511 0.8124259408447174 0  0.8127788692357347 0.8124161251931344 0  0.8753755883241268 0.8124048996063953 0  0.9380078114982734 0.8123856590607255 0  1.000676558854434 0.812337744227338 0  0 0.875 0  0.06250397283060986 0.8749975205203216 0  0.1250081374247072 0.8749949627854445 0  0.187512700866515 0.8749922482420673 0  0.2500179020475091 0.8749892983576861 0  0.3125240338993137 0.8749860362321995 0  0.3750314751532646 0.8749823908716042 0  0.4375407390057566 0.874978306696544 0  0.5000525520049816 0.8749737635387045 0  0.5625679883702182 0.8749688182137962 0  0.6250887091804965 0.874963691307971 0  0.6876174050276801 0.8749589479626768 0  0.7501586342484727 0.8749558597325124 0  0.812720382145027 0.8749570168232954 0  0.8753165731222163 0.8749666561977272 0  0.9379685287521561 0.8749858408399954 0  1.000688044101936 0.8749723774077373 0  0 0.9375 0  0.06250203660319893 0.9374987408591854 0  0.1250041731162711 0.9374974426405476 0  0.1875065178089443 0.9374960663012082 0  0.250009196405048 0.9374945732647965 0  0.3125123645917674 0.9374929267296632 0  0.3750162263879733 0.9374910948630222 0  0.4375210633238502 0.9374890579743376
[...]
<PointData  Vectors="f_54"> 
<DataArray  type="Float64"  Name="f_54"  NumberOfComponents="3" format="ascii">0.0000000000000000e+00 0.0000000000000000e+00 0.0000000000000000e+00  0.0000000000000000e+00 0.0000000000000000e+00 0.0000000000000000e+00  0.0000000000000000e+00 0.0000000000000000e+00 0.0000000000000000e+00  0.0000000000000000e+00 0.0000000000000000e+00 0.0000000000000000e+00  0.0000000000000000e+00 0.0000000000000000e+00 0.0000000000000000e+00  0.0000000000000000e+00 0.0000000000000000e+00 0.0000000000000000e+00  0.0000000000000000e+00 0.0000000000000000e+00 0.0000000000000000e+00  0.0000000000000000e+00 0.0000000000000000e+00 0.0000000000000000e+00  0.0000000000000000e+00 0.0000000000000000e+00 0.0000000000000000e+00  0.0000000000000000e+00 0.0000000000000000e+00 0.0000000000000000e+00  0.0000000000000000e+00 0.0000000000000000e+00 0.0000000000000000e+00  0.0000000000000000e+00 0.0000000000000000e+00 0.0000000000000000e+00  0.0000000000000000e+00 0.0000000000000000e+00 0.0000000000000000e+00  0.0000000000000000e+00 0.0000000000000000e+00 0.0000000000000000e+00  0.0000000000000000e+00 0.0000000000000000e+00 0.0000000000000000e+00  0.0000000000000000e+00 0.0000000000000000e+00 0.0000000000000000e+00  0.0000000000000000e+00 0.0000000000000000e+00 0.0000000000000000e+00  0.0000000000000000e+00 0.0000000000000000e+00 0.0000000000000000e+00  4.9808557071243955e-08 -6.4245044889036495e-08 0.0000000000000000e+00  1.0109309274779850e-07 -1.3131509476378491e-07 0.0000000000000000e+00  1.5533510681822670e-07 -2.0421959122656690e-07 0.0000000000000000e+00  2.1401847577161068e-07 -2.8635811966842153e-07 0.0000000000000000e+00  2.7861936601325518e-07 -3.8179048339963913e-07 0.0000000000000000e+00  3.5058203939813152e-07 -4.9562451672944821e-07 0.0000000000000000e+00  4.3127526045177926e-07 -6.3462392376836422e-07 0.0000000000000000e+00  5.2192344650515506e-07 -8.0823901089740631e-07 0.0000000000000000e+00  6.2350519333335165e-07 -1.0304942722329854e-06 0.0000000000000000e+00  7.3660688039605740e-07 -1.3237363479148834e-06 0.0000000000000000e+00  8.6120378122542889e-07 -1.7267699698239318e-06 0.0000000000000000e+00  9.9629895964445022e-07 -2.3143696082028980e-06 0.0000000000000000e+00  1.1392539978845592e-06 -3.2494552781687778e-06 0.0000000000000000e+00  1.2845292842682658e-06 -4.9392806371598227e-06 0.0000000000000000e+00  1.4221413736271127e-06 -8.5568734102381519e-06 0.0000000000000000e+00  1.5431055529977175e-06 -1.7963491166855920e-05 0.0000000000000000e+00  0.0000000000000000e+00 0.0000000000000000e+00 0.0000000000000000e+00  9.8141658544183765e-08 -1.2566585092525535e-07 0.0000000000000000e+00  1.9923227197015191e-07 -2.5680071433932073e-07 0.0000000000000000e+00  3.0623608102918277e-07 -3.9921559075798791e-07 0.0000000000000000e+00  4.2213128338466670e-07 -5.5944049204730745e-07 0.0000000000000000e+00  5.4989479286627571e-07 -7.4520853158463337e-07 0.0000000000000000e+00  6.9245912237161695e-07 -9.6612955584603780e-07 0.0000000000000000e+00  8.5263099761298863e-07 -1.2347034784911189e-06 0.0000000000000000e+00  1.0329608905073157e-06 -1.5679488203016728e-06 0.0000000000000000e+00  1.2355520890467954e-06 -1.9901766285186590e-06 0.0000000000000000e+00  1.4617949089359493e-06 -2.5379644449445576e-06 0.0000000000000000e+00  1.7119973782083226e-06 -3.2694572519434514e-06 0.0000000000000000e+00  1.9848260135822304e-06 -4.2821641586567149e-06 0.0000000000000000e+00  2.2762425296303034e-06 -5.7462579909442196e-06 0.0000000000000000e+00  2.5766686697831590e-06 -7.9575528555165228e-06 0.0000000000000000e+00  2.8607657765548152e-06 -1.1358937061813027e-05 0.0000000000000000e+00  3.0429885876876897e-06 -1.6095372148022723e-05 0.0000000000000000e+00  0.0000000000000000e+00 0.0000000000000000e+00 0.0000000000000000e+00  1.4352438199984567e-07 -1.8161612078638646e-07 0.0000000000000000e+00  2.9145982914038047e-07 -3.7100907582026450e-07 0.0000000000000000e+00  4.4825079930688559e-07 -5.7640986213180467e-07 0.0000000000000000e+00  6.1838538278051460e-07 -8.0699574746205551e-07 0.0000000000000000e+00  8.0638469138176862e-07 -1.0735008459463346e-06 0.0000000000000000e+00  1.0167511752079567e-06 -1.3890256923857860e-06 0.0000000000000000e+00  1.2538601642712895e-06 -1.7701810694248620e-06 0.0000000000000000e+00  1.5217789846384282e-06 -2.2387851362123638e-06 0.0000000000000000e+00  1.8240006173741154e-06 -2.8244709853241933e-06 0.0000000000000000e+00  2.1630865295903648e-06 -3.5687641074717287e-06 0.0000000000000000e+00  2.5402320437155096e-06 -4.5313901146250255e-06 0.0000000000000000e+00  2.9548204023488198e-06 -5.7993745429202599e-06 0.0000000000000000e+00  3.4042257101059145e-06 -7.4973382563944989e-06 0.0000000000000000e+00  3.8849877034852093e-06 -9.7884302278592300e-06 0.0000000000000000e+00  4.4006670850531691e-06 -1.2829432510975348e-05 0.0000000000000000e+00  5.0028188613241963e-06 -1.6611387294255312e-05 0.0000000000000000e+00  0.0000000000000000e+00 0.0000000000000000e+00 0.0000000000000000e+00  1.8449324342900847e-07 -2.2978666366682884e-07 0.0000000000000000e+00  3.7483203959276945e-07 -4.6921109961204803e-07 0.0000000000000000e+00  5.7692558705095030e-07 -7.2842618232575128e-07 0.0000000000000000e+00  7.9678279496379706e-07 -1.0186467732086886e-06 0.0000000000000000e+00  1.0405209562030525e-06 -1.3527997081811871e-06 0.0000000000000000e+00  1.3143211531063861e-06 -1.7463343082739964e-06 0.0000000000000000e+00  1.6243082705570576e-06 -2.2182780508107043e-06 0.0000000000000000e+00  1.9763325242117920e-06 -2.7926458292799773e-06 0.0000000000000000e+00  2.3756327322490890e-06 -3.5003228072486588e-06 0.0000000000000000e+00  2.8263738588708083e-06 -4.3814868989310349e-06 0.0000000000000000e+00  3.3310801963716623e-06 -5.4883639642051065e-06 0.0000000000000000e+00  3.8900420541573824e-06 -6.8872276481784040e-06 0.0000000000000000e+00  4.5008638937455895e-06 -8.6562330755309550e-06 0.0000000000000000e+00  5.1583536294209117e-06 -1.0870698569651025e-05 0.0000000000000000e+00  5.8540607460224067e-06 -1.3560444101015162e-05 0.0000000000000000e+00  6.5669617998846370e-06 -1.6626828006567424e-05 0.0000000000000000e+00  0.0000000000000000e+00 0.0000000000000000e+00 0.0000000000000000e+00  2.1961315132235301e-07 -2.6831627976823041e-07 0.0000000000000000e+00  4.4644907664735246e-07 -5.4762381056228676e-07 0.0000000000000000e+00  6.8783978561365950e-07 -8.4944408835273588e-07 0.0000000000000000e+00  9.5130664548460975e-07 -1.1863804749379150e-06 0.0000000000000000e+00  1.2446080102593064e-06 -1.5727432568403911e-06 0.0000000000000000e+00  1.5757237875351554e-06 -2.0252766466296501e-06 0.0000000000000000e+00  1.9527469010926986e-06 -2.5640181329225053e-06 0.0000000000000000e+00  2.3836467991889629e-06 -3.2133002022400448e-06 0.0000000000000000e+00  2.8758694936276011e-06 -4.0028427922131603e-06 0.0000000000000000e+00  3.4357480341757563e-06 -4.9687276946051994e-06 0.0000000000000000e+00  4.0677252694072680e-06 -6.1536878301458499e-06 0.0000000000000000e+00  4.7734453577720231e-06 -7.6054120438304741e-06 0.0000000000000000e+00  5.5508489068426170e-06 -9.3702873089172359e-06 0.0000000000000000e+00  6.3934723835417353e-06 -1.1478396074943794e-05 0.0000000000000000e+00  7.2901700918990748e-06 -1.3915458030249779e-05 0.0000000000000000e+00  8.2262830234678098e-06 -1.6583834251862480e-05 0.0000000000000000e+00  0.0000000000000000e+00 0.0000000000000000e+00 0.0000000000000000e+00  2.4750715219661473e-07 -2.9585232385512296e-07 0.0000000000000000e+00  5.0351121827972497e-07 -6.0352600321686702e-07 0.0000000000000000e+00  7.7668125505144115e-07 -9.3535393377807498e-07 0.0000000000000000e+00  1.0760037805030822e-06 -1.3047037841233470e-06 0.0000000000000000e+00  1.4108939343624652e-06 -1.7265434572584845e-06 0.0000000000000000e+00  1.7912391932167137e-06 -2.2180543119406834e-06 0.0000000000000000e+00  2.2273370166718312e-06 -2.7992843083373146e-06 0.0000000000000000e+00  2.7296756512174009e-06 -3.4937939110973401e-06 0.0000000000000000e+00  3.3084967428906458e-06 -4.3291667559495119e-06 0.0000000000000000e+00  3.9730765674865327e-06 -5.3371021996010437e-06 0.0000000000000000e+00  4.7306817506077236e-06 -6.5525356023239043e-06 0.0000000000000000e+00  5.5852112018635795e-06 -8.0108209044859039e-06 0.0000000000000000e+00  6.5356394725734267e-06 -9.7415551539268441e-06 0.0000000000000000e+00  7.5745118453369672e-06 -1.1757596422639765e-05 0.0000000000000000e+00  8.6868316462026800e-06 -1.4039506651199722e-05 0.0000000000000000e+00  9.8495050753773873e-06 -1.6521421201930271e-05 0.0000000000000000e+00  0.0000000000000000e+00 0.0000000000000000e+00 0.0000000000000000e+00  2.6690223420621345e-07 -3.1156643409570933e-07 0.0000000000000000e+00  5.4340849241508167e-07 -6.3527791908570695e-07 0.0000000000000000e+00  8.3937497616027645e-07 -9.8375164873045363e-07 0.0000000000000000e+00  1.1651425382334514e-06 -1.3705549707148873e-06 0.0000000000000000e+00  1.5317397068550217e-06 -1.8107012803608175e-06 0.0000000000000000e+00  1.9510241191490401e-06 -2.3211573895428946e-06 0.0000000000000000e+00  2.4357170087957456e-06 -2.9213376914271065e-06 0.0000000000000000e+00  2.9992624571852718e-06 -3.6335221701694809e-06 0.0000000000000000e+00  3.6554154940475417e-06 -4.4830677753441351e-06 0.0000000000000000e+00  4.4174379271362024e-06 -5.4981722160143633e-06 0.0000000000000000e+00  5.2967752296910964e-06 -6.7087884822111064e-06 0.0000000000000000e+00  6.3011342825388165e-06 -8.1441019179813704e-06 0.0000000000000000e+00  7.4320264542729629e-06 -9.8278817365160211e-06 0.0000000000000000e+00  8.6821209530611595e-06 -1.1771288589331795e-05 0.0000000000000000e+00  1.0033134671161557e-05 -1.3963831066684024e-05 0.0000000000000000e+00  1.1455264135014101e-05 -1.6365380196339794e-05 0.0000000000000000e+00  0.0000000000000000e+00 0.0000000000000000e+00 0.0000000000000000e+00  2.7669314500235279e-07 -3.1513725717356875e-07 0.0000000000000000e+00  5.6384863815297314e-07 -6.4227385643853448e-07 0.0000000000000000e+00  8.7227453025489078e-07 -9.9383179206532386e-07 0.0000000000000000e+00  1.2134633681601667e-06 -1.3830830055878608e-06 0.0000000000000000e+00  1.5999160041446872e-06 -1.8245800614179621e-06 0.0000000000000000e+00  2.0454260539310483e-06 -2.3345824101040135e-06 0.0000000000000000e+00  2.5652794027620665e-06 -2.9314545387454431e-06 0.0000000000000000e+00  3.1762876169525232e-06 -3.6359864437802470e-06 0.0000000000000000e+00  3.8965223645248048e-06 -4.4715462316598420e-06 0.0000000000000000e+00  4.7445522121801818e-06 -5.4639158738797451e-06 0.0000000000000000e+00  5.7379207898086205e-06 -6.6405863821869795e-06 0.0000000000000000e+00  6.8905964068498134e-06 -8.0292150574153951e-06 0.0000000000000000e+00  8.2092716068756830e-06 -9.6549204829425292e-06 0.0000000000000000e+00  9.6888512911286331e-06 -1.1536188576186407e-05 0.0000000000000000e+00  1.1308341536362113e-05 -1.3679443062039347e-05 0.0000000000000000e+00  1.3029368979944797e-05 -1.6072613291994522e-05 0.0000000000000000e+00  0.0000000000000000e+00 0.0000000000000000e+00 0.0000000000000000e+00  2.7602390667042593e-07 -3.0671307104660174e-07 0.0000000000000000e+00  5.6302401355509830e-07 -6.2485721162413257e-07 0.0000000000000000e+00  8.7242083843920511e-07 -9.6623307782799121e-07 0.0000000000000000e+00  1.2165352551593765e-06 -1.3433873247914815e-06 0.0000000000000000e+00  1.6090564346421904e-06 -1.7699864454416981e-06 0.0000000000000000e+00  2.0655148885054188e-06 -2.2611856898318297e-06 0.0000000000000000e+00  2.6037280267174318e-06 -2.8339807770190645e-06 0.0000000000000000e+00  3.2441404148841146e-06 -3.5075209101746854e-06 0.0000000000000000e+00  4.0099028183342606e-06 -4.3033512049015749e-06 0.0000000000000000e+00  4.9264105785417157e-06 -5.2455433363343989e-06 0.0000000000000000e+00  6.0198527137260229e-06 -6.3606673601914245e-06 0.0000000000000000e+00  7.3141552451176185e-06 -7.6775517603465164e-06 0.0000000000000000e+00  8.8257000500318637e-06 -9.2267474986088577e-06 0.0000000000000000e+00  1.0555738314805626e-05 -1.1039480573189572e-05 0.0000000000000000e+00  1.2482051062806812e-05 -1.3145509237964504e-05 0.0000000000000000e+00  1.4554265252028311e-05 -1.5568616351591880e-05 0.0000000000000000e+00  0.0000000000000000e+00 0.0000000000000000e+00 0.0000000000000000e+00  2.6438317416262626e-07 -2.8686456852430780e-07 0.0000000000000000e+00  5.3981103313727366e-07 -5.8421993487445643e-07 0.0000000000000000e+00  8.3786232391392152e-07 -9.0287266117225961e-07 0.0000000000000000e+00  1.1712188328348391e-06 -1.2542710745937706e-06 0.0000000000000000e+00  1.5542855861176466e-06 -1.6508277081169393e-06 0.0000000000000000e+00  2.0038850470877743e-06 -2.1062432352158177e-06 0.0000000000000000e+00  2.5400264444902284e-06 -2.6358332673300806e-06 0.0000000000000000e+00  3.1867085677097685e-06 -3.2568657398001416e-06 0.0000000000000000e+00  3.9726224886145878e-06 -3.9889341030514638e-06 0.0000000000000000e+00  4.9314395381435424e-06 -4.8544293198784094e-06 0.0000000000000000e+00  6.1010472135172116e-06 -5.8792402894144053e-06 0.0000000000000000e+00  7.5206046791328903e-06 -7.0938997072625326e-06 0.0000000000000000e+00  9.2237627164791618e-06 -8.5354319571196115e-06 0.0000000000000000e+00  1.1226452626347444e-05 -1.0249937059140883e-05 0.0000000000000000e+00  1.3509914282545532e-05 -1.2295007915824673e-05 0.0000000000000000e+00  1.6006549794837941e-05 -1.4738758540211817e-05 0.0000000000000000e+00  0.0000000000000000e+00 0.0000000000000000e+00 0.0000000000000000e+00  2.4170475769291890e-07 -2.5653396253892276e-07 0.0000000000000000e+00  4.9398552904808444e-07 -5.2229828166380286e-07 0.0000000000000000e+00  7.6801430586233767e-07 -8.0678508182858185e-07 0.0000000000000000e+00  1.0762142275659936e-06 -1.1200227346528125e-06 0.0000000000000000e+00  1.4330127440670877e-06 -1.4728469455072262e-06 0.0000000000000000e+00  1.8557558506297279e-06 -1.8771784291566200e-06 0.0000000000000000e+00  2.3658427973995971e-06 -2.3463171488939825e-06 0.0000000000000000e+00  2.9901247596231953e-06 -2.8952788863232569e-06 0.0000000000000000e+00  3.7625454316496333e-06 -3.5412361018202477e-06 0.0000000000000000e+00  4.7258150322398916e-06 -4.3042013504911210e-06 0.0000000000000000e+00  5.9324600037801616e-06 -5.2082387070202605e-06 0.0000000000000000e+00  7.4436443462657768e-06 -6.2837381002877856e-06 0.0000000000000000e+00  9.3224854108037406e-06 -7.5716126926435260e-06 0.0000000000000000e+00  1.1616549364027937e-05 -9.1304178364595211e-06 0.0000000000000000e+00  1.4324666819686764e-05 -1.1046551483454581e-05 0.0000000000000000e+00  1.7355123492919991e-05 -1.3445003061217482e-05 0.0000000000000000e+00  0.0000000000000000e+00 0.0000000000000000e+00 0.0000000000000000e+00  2.0845904859912871e-07 -2.1698290887279444e-07 0.0000000000000000e+00  4.2642489923508109e-07 -4.4166834153174434e-07 0.0000000000000000e+00  6.6401326220427211e-07 -6.8196639665829311e-07 0.0000000000000000e+00  9.3263625442318781e-07 -9.4621524357645967e-07 0.0000000000000000e+00  1.2458305338285434e-06 -1.2433972081838744e-06 0.0000000000000000e+00  1.6203322621155640e-06 -1.5833603423111089e-06 0.0000000000000000e+00  2.0775337613584876e-06 -1.9770544843373844e-06 0.0000000000000000e+00  2.6455000078501636e-06 -2.4368052082165710e-06 0.0000000000000000e+00  3.3617551564466766e-06 -2.9766842250545825e-06 0.0000000000000000e+00  4.2769990485538958e-06 -3.6131188370374505e-06 0.0000000000000000e+00  5.4595721503873890e-06 -4.3660794207393292e-06 0.0000000000000000e+00  6.9993156211187547e-06 -5.2616219698030094e-06 0.0000000000000000e+00  9.0062926073754427e-06 -6.3374366684925083e-06 0.0000000000000000e+00  1.1592845306739180e-05 -7.6543443784952165e-06 0.0000000000000000e+00  1.4817147232849616e-05 -9.3168198670457869e-06 0.0000000000000000e+00  1.8569688452765365e-05 -1.1499180116453908e-05 0.0000000000000000e+00  0.0000000000000000e+00 0.0000000000000000e+00 0.0000000000000000e+00  1.6571611642393686e-07 -1.6973958561121298e-07 0.0000000000000000e+00  3.3925571947047277e-07 -3.4544036434541543e-07 0.0000000000000000e+00  5.2899721479688658e-07 -5.3321712510215663e-07 0.0000000000000000e+00  7.4451452099361631e-07 -7.3950262146535392e-07 0.0000000000000000e+00  9.9737987957072438e-07 -9.7120542169892223e-07 0.0000000000000000e+00  1.3022649004316384e-06 -1.2358665289195542e-06 0.0000000000000000e+00  1.6785412975233640e-06 -1.5418140886281779e-06 0.0000000000000000e+00  2.1527052805120185e-06 -1.8983164579419921e-06 0.0000000000000000e+00  2.7621500461819544e-06 -2.3157399754285410e-06 0.0000000000000000e+00  3.5611052423736578e-06 -2.8057460875879896e-06 0.0000000000000000e+00  4.6298663481270107e-06 -3.3816787014819976e-06 0.0000000000000000e+00  6.0882172808693476e-06 -4.0597247500730596e-06 0.0000000000000000e+00  8.1110655691633961e-06 -4.8628715924117181e-06 0.0000000000000000e+00  1.0931879381126200e-05 -5.8337020720627410e-06 0.0000000000000000e+00  1.4781481889354300e-05 -7.0686304928035383e-06 0.0000000000000000e+00  1.9644724164009178e-05 -8.7625013600335368e-06 0.0000000000000000e+00  0.0000000000000000e+00 0.0000000000000000e+00 0.0000000000000000e+00  1.1515911996308661e-07 -1.1654477120007313e-07 0.0000000000000000e+00  2.3589862959707852e-07 -2.3715052017852885e-07 0.0000000000000000e+00  3.6822537040409284e-07 -3.6597895800750744e-07 0.0000000000000000e+00  5.1907339099059346e-07 -5.0740047827108627e-07 0.0000000000000000e+00  6.9695116682466794e-07 -6.6609453006725815e-07 0.0000000000000000e+00  9.1286767987981010e-07 -8.4714217361697869e-07 0.0000000000000000e+00  1.1817539277025487e-06 -1.0560994562769123e-06 0.0000000000000000e+00  1.5247718238442193e-06 -1.2990237134927715e-06 0.0000000000000000e+00  1.9732552922824790e-06 -1.5823847706733646e-06 0.0000000000000000e+00  2.5757511045486652e-06 -1.9127001087213696e-06 0.0000000000000000e+00  3.4111071926068865e-06 -2.2955413489590619e-06 0.0000000000000000e+00  4.6134211605868145e-06 -2.7332926113031503e-06 0.0000000000000000e+00  6.4189486482456835e-06 -3.2214728944915490e-06 0.0000000000000000e+00  9.2433129365376698e-06 -3.7501788118425564e-06 0.0000000000000000e+00  1.3732661155433315e-05 -4.3630582065293770e-06 0.0000000000000000e+00  2.0279231951437444e-05 -5.5829835913521811e-06 0.0000000000000000e+00  0.0000000000000000e+00 0.0000000000000000e+00 0.0000000000000000e+00  5.9030009368862718e-08 -5.9297314815059180e-08 0.0000000000000000e+00  1.2096726379856236e-07 -1.2065082699847544e-07 0.0000000000000000e+00  1.8895151429762540e-07 -1.8616638468417137e-07 0.0000000000000000e+00  2.6663102142030373e-07 -2.5805258268867279e-07 0.0000000000000000e+00  3.5852645341363082e-07 -3.3866851137078756e-07 0.0000000000000000e+00  4.7056605226055028e-07 -4.3056384257209614e-07 0.0000000000000000e+00  6.1093712394769607e-07 -5.3649912363968242e-07 0.0000000000000000e+00  7.9153695562882622e-07 -6.5941388546119733e-07 0.0000000000000000e+00  1.0306196783331435e-06 -8.0225308348202939e-07 0.0000000000000000e+00  1.3580003364606672e-06 -9.6739437186157741e-07 0.0000000000000000e+00  1.8262067495835710e-06 -1.1548960329443305e-06 0.0000000000000000e+00  2.5368672964841693e-06 -1.3570505085015273e-06 0.0000000000000000e+00  3.7104354246456808e-06 -1.5405532640966041e-06 0.0000000000000000e+00  5.8930862110486455e-06 -1.5840173696388308e-06 0.0000000000000000e+00  1.0645297554635815e-05 -1.0421439240411442e-06 0.0000000000000000e+00  2.3101400458573367e-05 1.8155290826006254e-06 0.0000000000000000e+00  0.0000000000000000e+00 0.0000000000000000e+00 0.0000000000000000e+00  0.0000000000000000e+00 0.0000000000000000e+00 0.0000000000000000e+00  0.0000000000000000e+00 0.0000000000000000e+00 0.0000000000000000e+00  0.0000000000000000e+00 0.0000000000000000e+00 0.0000000000000000e+00  0.0000000000000000e+00 0.0000000000000000e+00 0.0000000000000000e+00  0.0000000000000000e+00 0.0000000000000000e+00 0.0000000000000000e+00  0.0000000000000000e+00 0.0000000000000000e+00 0.0000000000000000e+00  0.0000000000000000e+00 0.0000000000000000e+00 0.0000000000000000e+00  0.0000000000000000e+00 0.0000000000000000e+00 0.00000