<?xml version="1.0"?>
<VTKFile type="UnstructuredGrid"  version="0.1"  >
<UnstructuredGrid>
<Piece  NumberOfPoints="289" NumberOfCells="512">
<Points>
<DataArray  type="Float64"  NumberOfComponents="3"  format="ascii">0 0 0  0.0625 0 0  0.125 0 0  0.1875 0 0  0.25 0 0  0.3125 0 0  0.375 0 0  0.4375 0 0  0.5 0 0  0.5625 0 0  0.625 0 0  0.6875 0 0  0.75 0 0  0.8125 0 0  0.875 0 0  0.9375 0 0  1 0 0  0 0.0625 0  0.06250134503993335 0.06249855338446329 0  0.1250027301184692 0.06249704179292603 0  0.1875041952109636 0.062495395938645 0  0.2500057803817206 0.0624935372874094 0  0.3125075255146639 0.06249137167280155 0  0.3750094696714663 0.06248878014864431 0  0.4375116499398838 0.06248560469286982 0  0.5000140996256074 0.06248162403731713 0  0.5625168456120914 0.06247650952326532 0  0.6250199046030595 0.0624697376528523 0  0.6875232775863251 0.0624604006989136 0  0.7500269407109553 0.0624467538285338 0  0.812530827648273 0.06242500898358598 0  0.8750347915359769 0.0623857442374553 0  0.9375385289139943 0.06230200048183464 0  1.000041532695667 0.06208578818435675 0  0 0.125 0  0.06250265013115709 0.1249971715692511 0  0.1250053802163911 0.1249942174686109 0  0.1875082702246818 0.124991004027928 0  0.2500114005455562 0.1249873805189502 0  0.3125148515817937 0.1249831676924916 0  0.3750187026050869 0.1249781418559247 0  0.4375230296038335 0.1249720109843304 0  0.5000279018507222 0.1249643764411034 0  0.5625333769230008 0.1249546679456974 0  0.6250394938778653 0.1249420271707597 0  0.6875462640481785 0.1249250902104684 0  0.7500536578798009 0.1249015708842943 0  0.8125615821463577 0.1248674772900883 0  0.875069825293414 0.1248158421982681 0  0.9375778745929351 0.1247360410262861 0  1.000084149476627 0.1246231555205393 0  0 0.1875 0  0.06250387551537838 0.187495915245272 0  0.1250078705457513 0.1874916520989005 0  0.1875121049757586 0.187487021532292 0  0.2500166999215333 0.1874818120426092 0  0.3125217774467627 0.1874757751594483 0  0.3750274591902774 0.1874686062433528 0  0.4375338634924759 0.1874599174126918 0  0.5000411006178496 0.1874491974947349 0  0.5625492657539521 0.187435750694975 0  0.6250584296881164 0.1874186009817493 0  0.6875686275616679 0.1873963445345386 0  0.7500798473566123 0.1873669373933 0  0.8125920239019901 0.1873274568069163 0  0.8751050613184541 0.1872740902825645 0  0.9376189867322671 0.1872032508836314 0  1.000134730958061 0.1871157194858555 0  0 0.25 0  0.06250498174429947 0.2499948371301035 0  0.1250101217457173 0.249989453756498 0  0.1875155793832038 0.2499836172968083 0  0.2500215167794572 0.2499770699250812 0  0.3125280990329059 0.2499695130937874 0  0.3750354930345794 0.2499605882088734 0  0.4375438642844018 0.2499498514670667 0  0.5000533711026252 0.2499367403352411 0  0.5625641557289182 0.2499205289288038 0  0.6250763321340921 0.2499002708885681 0  0.6875899711224974 0.249874734876032 0  0.7501050847364936 0.2498423586819878 0  0.8126216142494634 0.2498013028634967 0  0.8751394274600069 0.2497498023005166 0  0.9376583153610876 0.2496871764095473 0  1.000177833850375 0.2496157458424993 0  0 0.3125 0  0.06250593012804843 0.3124939793320161 0  0.125012055634026 0.3124877081007888 0  0.1875185742628127 0.3124809233024339 0  0.2500256889090615 0.3124733362256308 0  0.3125336088932461 0.3124646175168736 0  0.3750425495587666 0.3124543797172163 0  0.4375527293919936 0.3124421565255918 0  0.5000643637454844 0.3124273785510321 0  0.5625776542345438 0.3124093468224455 0  0.6250927731336473 0.3123872091141481 0  0.68760984283898 0.312359952696767 0  0.750128911893671 0.3123264444398115 0  0.8126499311304199 0.312285579106761 0  0.8751727352700884 0.312236633264565 0  0.9376970354046167 0.3121799208853822 0  1.000222439719688 0.3121176834125222 0  0 0.375 0  0.06250668352915315 0.3749933719085506 0  0.1250135967074899 0.3749864756100168 0  0.1875209733416917 0.3749790309130067 0  0.2500290558204472 0.3749707331168439 0  0.3125380980951845 0.374961239474634 0  0.3750483668616125 0.3749501543326393 0  0.4375601399137046 0.3749370130556757 0  0.5000737003245603 0.3749212657898017 0  0.5625893248352828 0.3749022640722962 0  0.6251072647917171 0.3748792570699581 0  0.6876277184766947 0.3748514108230175 0  0.7501507951552019 0.3748178737981002 0  0.8126764738683059 0.374777922799969 0  0.8752045635863859 0.3747312232144859 0  0.9377346738300741 0.3746781958399397 0  1.000266201155211 0.3746203450733536 0  0 0.4375 0  0.06250720759095986 0.4374930325041282 0  0.1250146745456564 0.4374857911176063 0  0.1875226667045256 0.4374779909536214 0  0.2500314629678043 0.4374693248215649 0  0.3125413607432089 0.4374594513934324 0  0.3750526797468713 0.4374479828330846 0  0.4375657629480369 0.4374344723320838 0  0.5000809728432953 0.4374184028800405 0  0.5625986805194205 0.4373991802183066 0  0.6251192443017749 0.4373761356725765 0  0.6876429746362241 0.4373485487012925 0  0.7501700830560617 0.4373157040263619 0  0.8127006168451923 0.4372770013529313 0  0.8752343883422796 0.4372321295465174 0  0.9377709180013325 0.4371812888631795 0  1.000309418508826 0.4371253859637821 0  0 0.5 0  0.06250747245431748 0.4999929668053288 0  0.1250152272510131 0.499985665008912 0  0.1875235559375674 0.4999778163034074 0  0.2500327684756692 0.4999691228051358 0  0.3125432019349489 0.4999592569287296 0  0.3750552281298304 0.4999478510597618 0  0.4375692589813525 0.4999344873727072 0  0.5000857474441536 0.4999186886656629 0  0.5626051804699944 0.4998999119801456 0  0.6251280587410998 0.4998775482304884 0  0.6876548562483328 0.4998509332585376 0  0.7501859525059672 0.4998193786239337 0  0.8127215339744417 0.4997822333154399 0  0.8752614731429813 0.4997389881352919 0  0.9378052165437082 0.4996894280700536 0  1.000351740399247 0.4996338187443774 0  0 0.5625 0  0.06250745495531469 0.562493169527713 0  0.1250152059452521 0.5624860854241081 0  0.1875235610918672 0.5624784857997395 0  0.2500328527204567 0.5624700921667531 0  0.3125434499303371 0.5624606009631057 0  0.3750557712931322 0.5624496749182436 0  0.4375702968047675 0.5624369342804846 0  0.5000875770150135 0.5624219479504894 0  0.5626082351872935 0.5624042245524563 0  0.6251329550717 0.562383203463763 0  0.6876624423974694 0.5623582460904728 0  0.7501973437144246 0.5623286291428524 0  0.8127381059724545 0.5622935465441328 0  0.8752847738771885 0.5622521385748274 0  0.9378367640048463 0.5622035881084648 0  1.000392728415038 0.5621473442527778 0  0 0.625 0  0.06250714120165222 0.6249936257052776 0  0.1250145801517246 0.6249870209826723 0  0.1875226293133025 0.6249799486692145 0  0.2500316307973625 0.6249721581119457 0  0.3125419730350327 0.6249633783591317 0  0.3750541094183729 0.6249533111953091 0  0.4375685789329483 0.6249416237311889 0  0.5000860276618224 0.6249279398039113 0  0.5626072275962662 0.6249118284812143 0  0.6251330843891455 0.6248927862051719 0  0.6876646171686672 0.6248702065180815 0  0.7502028805972105 0.6248433291161238 0  0.8127487854357385 0.6248111631583644 0  0.8753027749660647 0.6247724009700927 0  0.9378643723839079 0.6247253974806457 0  1.000431792253528 0.6246683889999592 0  0 0.6875 0  0.06250652929490566 0.6874943121374496 0  0.1250133436196508 0.6874884237589619 0  0.1875207445475273 0.6874821291517856 0  0.2500290672911194 0.6874752122691561 0  0.3125387009656939 0.6874674416857154 0  0.3750501131554433 0.6874585655868032 0  0.4375638803609672 0.6874483064616265 0  0.5000807254698086 0.6874363544741116 0  0.5626015616305881 0.6874223568622128 0  0.6251275369437475 0.6874058972437886 0  0.687660062500709 0.6873864520016362 0  0.7502007814435987 0.687363300027074 0  0.8127513930443769 0.6873353508582639 0  0.8753131927811031 0.687300866714549 0  0.9378861999460409 0.6872571502773313 0  1.000468045309981 0.6872005286925456 0  0 0.75 0  0.06250563181457483 0.7499951989125812 0  0.1250115198067928 0.7499902323898378 0  0.1875179371304436 0.7499849312755236 0  0.2500251918181341 0.7499791191348638 0  0.3125336490851866 0.7499726090283285 0  0.375043760246336 0.7499652007800618 0  0.4375561018467772 0.7499566787956121 0  0.5000714297439487 0.7499468100486696 0  0.5625907536869967 0.7499353404957039 0  0.6251154365208293 0.7499219843668734 0  0.6876473129588924 0.7499063908932045 0  0.7501887918497699 0.7498880495141786 0  0.8127428227447029 0.7498660466486368 0  0.8753124273145132 0.7498385222085652 0  0.9378992345691561 0.7498017307931045 0  1.000500546256383 0.7497493955228955 0  0 0.8125 0  0.06250447754397233 0.8124962509475971 0  0.1250091659057238 0.8124923752319363 0  0.1875142914143913 0.8124882437796819 0  0.2500201125927335 0.8124837229538235 0  0.3125269418071596 0.8124786729777783 0  0.3750351749312333 0.812472947422031 0  0.4375453344249111 0.8124663945199004 0  0.5000581344913698 0.8124588615062215 0  0.5625745822730959 0.8124502036010076 0  0.6250961367353156 0.81244029874612 0  0.6876249545247035 0.8124290636791988 0  0.750164245198581 0.8124164415390289 0  0.812718680266678 0.8124022385905362 0  0.8752944748182205 0.8123854070266897 0  0.9378977941416607 0.8123617779553193 0  1.000528634189456 0.8123197188444372 0  0 0.875 0  0.06250311185807762 0.8749974294659837 0  0.1250063741082493 0.8749947734205168 0  0.1875099490832847 0.8749919449948306 0  0.2500140241117295 0.8749888548832508 0  0.3125188289987507 0.8749854109273586 0  0.3750246610239305 0.8749815190461908 0  0.4375319232910852 0.8749770868462879 0  0.5000411869746861 0.874972032680652 0  0.5625532974533687 0.8749663060939363 0  0.6250695635689583 0.8749599324651463 0  0.6875921082972135 0.8749531084305819 0  0.7501245332500859 0.8749463949525562 0  0.8126731541626893 0.874941038759278 0  0.8752489838992469 0.8749390792512257 0  0.9378688227992036 0.8749402691605674 0  1.000541268882327 0.8749175449827045 0  0 0.9375 0  0.06250159528067142 0.9374986933109328 0  0.1250032689293186 0.9374973435889449 0  0.1875051058324485 0.9374959072164527 0  0.2500072046012959 0.9374943395909145 0  0.3125096874167745 0.9374925951801488 0  0.3750127145068281 0.9374906285519735 0  0.4375165071849885 0.937488
[...]
<PointData  Vectors="f_54"> 
<DataArray  type="Float64"  Name="f_54"  NumberOfComponents="3" format="ascii">0.0000000000000000e+00 0.0000000000000000e+00 0.0000000000000000e+00  0.0000000000000000e+00 0.0000000000000000e+00 0.0000000000000000e+00  0.0000000000000000e+00 0.0000000000000000e+00 0.0000000000000000e+00  0.0000000000000000e+00 0.0000000000000000e+00 0.0000000000000000e+00  0.0000000000000000e+00 0.0000000000000000e+00 0.0000000000000000e+00  0.0000000000000000e+00 0.0000000000000000e+00 0.0000000000000000e+00  0.0000000000000000e+00 0.0000000000000000e+00 0.0000000000000000e+00  0.0000000000000000e+00 0.0000000000000000e+00 0.0000000000000000e+00  0.0000000000000000e+00 0.0000000000000000e+00 0.0000000000000000e+00  0.0000000000000000e+00 0.0000000000000000e+00 0.0000000000000000e+00  0.0000000000000000e+00 0.0000000000000000e+00 0.0000000000000000e+00  0.0000000000000000e+00 0.0000000000000000e+00 0.0000000000000000e+00  0.0000000000000000e+00 0.0000000000000000e+00 0.0000000000000000e+00  0.0000000000000000e+00 0.0000000000000000e+00 0.0000000000000000e+00  0.0000000000000000e+00 0.0000000000000000e+00 0.0000000000000000e+00  0.0000000000000000e+00 0.0000000000000000e+00 0.0000000000000000e+00  0.0000000000000000e+00 0.0000000000000000e+00 0.0000000000000000e+00  0.0000000000000000e+00 0.0000000000000000e+00 0.0000000000000000e+00  -8.8775267343838256e-08 7.2676201207466979e-08 0.0000000000000000e+00  -1.8017183216512259e-07 1.4852237116338342e-07 0.0000000000000000e+00  -2.7681965091602777e-07 2.3091124822520491e-07 0.0000000000000000e+00  -3.8135052794995371e-07 3.2364386944828330e-07 0.0000000000000000e+00  -4.9637923695776078e-07 4.3124517562005720e-07 0.0000000000000000e+00  -6.2446032342125784e-07 5.5938773706253864e-07 0.0000000000000000e+00  -7.6801256426085665e-07 7.1555529392543994e-07 0.0000000000000000e+00  -9.2920395204395548e-07 9.1016738344032165e-07 0.0000000000000000e+00  -1.1097916789427276e-06 1.1586361025205976e-06 0.0000000000000000e+00  -1.3109124008026653e-06 1.4854340727790477e-06 0.0000000000000000e+00  -1.5328109775977243e-06 1.9328522073542208e-06 0.0000000000000000e+00  -1.7744538625242389e-06 2.5817087329012821e-06 0.0000000000000000e+00  -2.0327934521028618e-06 3.6056146246896491e-06 0.0000000000000000e+00  -2.3007211025921158e-06 5.4293429445127105e-06 0.0000000000000000e+00  -2.5597319126133039e-06 9.2428477192092593e-06 0.0000000000000000e+00  -2.7502695295535585e-06 1.8843269383705303e-05 0.0000000000000000e+00  0.0000000000000000e+00 0.0000000000000000e+00 0.0000000000000000e+00  -1.7492903581963801e-07 1.4218236066756642e-07 0.0000000000000000e+00  -3.5509641287950115e-07 2.9050566697485030e-07 0.0000000000000000e+00  -5.4576527802036063e-07 4.5148719707784373e-07 0.0000000000000000e+00  -7.5221859612635538e-07 6.3243422200632408e-07 0.0000000000000000e+00  -9.7972961444047278e-07 8.4197405411930708e-07 0.0000000000000000e+00  -1.2334834554985114e-06 1.0907900640385700e-06 0.0000000000000000e+00  -1.5184330706206340e-06 1.3927279607919955e-06 0.0000000000000000e+00  -1.8390745213133007e-06 1.7665749485616251e-06 0.0000000000000000e+00  -2.1991312419620545e-06 2.2390963231056345e-06 0.0000000000000000e+00  -2.6011455127466167e-06 2.8504982875799600e-06 0.0000000000000000e+00  -3.0459879041983970e-06 3.6646986105257314e-06 0.0000000000000000e+00  -3.5323131259138635e-06 4.7892010338441984e-06 0.0000000000000000e+00  -4.0560370514378030e-06 6.4133689180323029e-06 0.0000000000000000e+00  -4.6101632227225430e-06 8.8753722083524358e-06 0.0000000000000000e+00  -5.1868159012830064e-06 1.2731136834532497e-05 0.0000000000000000e+00  -5.7920079076592142e-06 1.8501567304167565e-05 0.0000000000000000e+00  0.0000000000000000e+00 0.0000000000000000e+00 0.0000000000000000e+00  -2.5584075003285621e-07 2.0554486411342673e-07 0.0000000000000000e+00  -5.1951991474644015e-07 4.1983180668049908e-07 0.0000000000000000e+00  -7.9893172235783539e-07 6.5210361299053044e-07 0.0000000000000000e+00  -1.1020402588426446e-06 9.1264455400774940e-07 0.0000000000000000e+00  -1.4368560536928550e-06 1.2134494733453208e-06 0.0000000000000000e+00  -1.8113391636092507e-06 1.5691080647202746e-06 0.0000000000000000e+00  -2.2332014993529363e-06 1.9980517567740504e-06 0.0000000000000000e+00  -2.7095824511187115e-06 2.5244037827238886e-06 0.0000000000000000e+00  -3.2465786491990819e-06 3.1808288766287130e-06 0.0000000000000000e+00  -3.8486248974070297e-06 4.0130141311025927e-06 0.0000000000000000e+00  -4.5177541559237801e-06 5.0866688018369589e-06 0.0000000000000000e+00  -5.2528181800884288e-06 6.4978001812120034e-06 0.0000000000000000e+00  -6.0488451416292978e-06 8.3847936619082628e-06 0.0000000000000000e+00  -6.8968847349748467e-06 1.0930650456016672e-05 0.0000000000000000e+00  -7.7849244094525381e-06 1.4309617171299133e-05 0.0000000000000000e+00  -8.6996592505837523e-06 1.8452021175666034e-05 0.0000000000000000e+00  0.0000000000000000e+00 0.0000000000000000e+00 0.0000000000000000e+00  -3.2890784582708444e-07 2.6016098158520652e-07 0.0000000000000000e+00  -6.6820864240958058e-07 5.3117266069250653e-07 0.0000000000000000e+00  -1.0284040497606997e-06 8.2445548778565736e-07 0.0000000000000000e+00  -1.4201630792417349e-06 1.1526024636021933e-06 0.0000000000000000e+00  -1.8543307892389657e-06 1.5300928524134860e-06 0.0000000000000000e+00  -2.3418400244809615e-06 1.9741775392584759e-06 0.0000000000000000e+00  -2.8934858738955186e-06 2.5060263379840993e-06 0.0000000000000000e+00  -3.5195204624953057e-06 3.1522532324016724e-06 0.0000000000000000e+00  -4.2290306032784179e-06 3.9469489198590993e-06 0.0000000000000000e+00  -5.0290794442325049e-06 4.9342942642378213e-06 0.0000000000000000e+00  -5.9236342322343410e-06 6.1715359698348836e-06 0.0000000000000000e+00  -6.9123744050204816e-06 7.7311395175388329e-06 0.0000000000000000e+00  -7.9895801229565384e-06 9.6983124342249109e-06 0.0000000000000000e+00  -9.1434195487469354e-06 1.2154227715212264e-05 0.0000000000000000e+00  -1.0355985709047087e-05 1.5126381431262452e-05 0.0000000000000000e+00  -1.1604137103188521e-05 1.8491686004543654e-05 0.0000000000000000e+00  0.0000000000000000e+00 0.0000000000000000e+00 0.0000000000000000e+00  -3.9157467082721561e-07 3.0392176115538509e-07 0.0000000000000000e+00  -7.9599950376755995e-07 6.2024171656483178e-07 0.0000000000000000e+00  -1.2263141890597206e-06 9.6194769653597795e-07 0.0000000000000000e+00  -1.6958843413945736e-06 1.3432285236474736e-06 0.0000000000000000e+00  -2.2184780975617710e-06 1.7801636506429361e-06 0.0000000000000000e+00  -2.8082267329143035e-06 2.2915194758214729e-06 0.0000000000000000e+00  -3.4794134294944716e-06 2.8996813586868924e-06 0.0000000000000000e+00  -4.2460243563250526e-06 3.6317250364901556e-06 0.0000000000000000e+00  -5.1209925430059084e-06 4.5205588697256965e-06 0.0000000000000000e+00  -6.1150774350862946e-06 5.6058889146505571e-06 0.0000000000000000e+00  -7.2353656451995305e-06 6.9343547463852103e-06 0.0000000000000000e+00  -8.4834666756312696e-06 8.5573619740272015e-06 0.0000000000000000e+00  -9.8536169570598560e-06 1.0523704979975712e-05 0.0000000000000000e+00  -1.1331066774889055e-05 1.2862316532831037e-05 0.0000000000000000e+00  -1.2891198888809084e-05 1.5550756582791709e-05 0.0000000000000000e+00  -1.4499579617154258e-05 1.8474791018958651e-05 0.0000000000000000e+00  0.0000000000000000e+00 0.0000000000000000e+00 0.0000000000000000e+00  -4.4138445629511736e-07 3.3528063714151618e-07 0.0000000000000000e+00  -8.9789774506793626e-07 6.8392509738445313e-07 0.0000000000000000e+00  -1.3849708063112940e-06 1.0598706151016753e-06 0.0000000000000000e+00  -1.9185896363007567e-06 1.4782129793679429e-06 0.0000000000000000e+00  -2.5154851105287216e-06 1.9558365791941567e-06 0.0000000000000000e+00  -3.1931982333854657e-06 2.5120927845868148e-06 0.0000000000000000e+00  -3.9699488412448174e-06 3.1695131121541748e-06 0.0000000000000000e+00  -4.8642121370224661e-06 3.9544954934353254e-06 0.0000000000000000e+00  -5.8938854025418154e-06 4.8978041378289886e-06 0.0000000000000000e+00  -7.0749194195491984e-06 6.0345376478737537e-06 0.0000000000000000e+00  -8.4193182418472375e-06 7.4028970496115642e-06 0.0000000000000000e+00  -9.9325102022805506e-06 9.0405998121808043e-06 0.0000000000000000e+00  -1.1610296454714222e-05 1.0977257922387858e-05 0.0000000000000000e+00  -1.3435895955040262e-05 1.3221036075209852e-05 0.0000000000000000e+00  -1.5377953739221356e-05 1.5739934764890051e-05 0.0000000000000000e+00  -1.7390599410794404e-05 1.8444529714950755e-05 0.0000000000000000e+00  0.0000000000000000e+00 0.0000000000000000e+00 0.0000000000000000e+00  -4.7606051716678334e-07 3.5327397391274507e-07 0.0000000000000000e+00  -9.6923554084932262e-07 7.2030977894335691e-07 0.0000000000000000e+00  -1.4970858100085908e-06 1.1154042669443739e-06 0.0000000000000000e+00  -2.0780282779695675e-06 1.5539309044315802e-06 0.0000000000000000e+00  -2.7316916050208988e-06 2.0529016363470178e-06 0.0000000000000000e+00  -3.4791579003565575e-06 2.6315409707712488e-06 0.0000000000000000e+00  -4.3430067606454151e-06 3.3118420316118550e-06 0.0000000000000000e+00  -5.3470345547225144e-06 4.1190271274469671e-06 0.0000000000000000e+00  -6.5154689640779052e-06 5.0817502198470577e-06 0.0000000000000000e+00  -7.8714481720537099e-06 6.2317354419005969e-06 0.0000000000000000e+00  -9.4345167701083115e-06 7.6023292138606744e-06 0.0000000000000000e+00  -1.1216967037888305e-05 9.2251743650222688e-06 0.0000000000000000e+00  -1.3219116726209095e-05 1.1124023991282277e-05 0.0000000000000000e+00  -1.5424151349912858e-05 1.3304964133457009e-05 0.0000000000000000e+00  -1.7793940477884627e-05 1.5743671800057961e-05 0.0000000000000000e+00  -2.0267904107160094e-05 1.8373342716243932e-05 0.0000000000000000e+00  0.0000000000000000e+00 0.0000000000000000e+00 0.0000000000000000e+00  -4.9362047905606647e-07 3.5750646950136323e-07 0.0000000000000000e+00  -1.0059008994673595e-06 7.2864080722723131e-07 0.0000000000000000e+00  -1.5561164763042276e-06 1.1275159809019772e-06 0.0000000000000000e+00  -2.1647600722040630e-06 1.5692220058464729e-06 0.0000000000000000e+00  -2.8541167420698123e-06 2.0703252539103905e-06 0.0000000000000000e+00  -3.6487658063528404e-06 2.6493685566480131e-06 0.0000000000000000e+00  -4.5759270474057898e-06 3.3273476077157470e-06 0.0000000000000000e+00  -5.6655023586983817e-06 4.1281083193743959e-06 0.0000000000000000e+00  -6.9495682102007900e-06 5.0785573065410405e-06 0.0000000000000000e+00  -8.4609500473099858e-06 6.2084922542990831e-06 0.0000000000000000e+00  -1.0230385648365561e-05 7.5497278796392735e-06 0.0000000000000000e+00  -1.2281746818905318e-05 9.1340098927970402e-06 0.0000000000000000e+00  -1.4625021902712977e-05 1.0988993589932420e-05 0.0000000000000000e+00  -1.7247551383601957e-05 1.3131406262567494e-05 0.0000000000000000e+00  -2.0105580042252387e-05 1.5556654961454739e-05 0.0000000000000000e+00  -2.3120169556322262e-05 1.8225088138172351e-05 0.0000000000000000e+00  0.0000000000000000e+00 0.0000000000000000e+00 0.0000000000000000e+00  -4.9252309375183530e-07 3.4811507637626326e-07 0.0000000000000000e+00  -1.0046383521773753e-06 7.0923895350811683e-07 0.0000000000000000e+00  -1.5567317744994957e-06 1.0968099102332155e-06 0.0000000000000000e+00  -2.1707981096574410e-06 1.5251359277447785e-06 0.0000000000000000e+00  -2.8712771904118024e-06 2.0098386409912951e-06 0.0000000000000000e+00  -3.6858996367539441e-06 2.5683040124030079e-06 0.0000000000000000e+00  -4.6464836464109233e-06 3.2201344352165240e-06 0.0000000000000000e+00  -5.7895432346360651e-06 3.9875905765444553e-06 0.0000000000000000e+00  -7.1564269070843044e-06 4.8960027084702340e-06 0.0000000000000000e+00  -8.7924795795126275e-06 5.9741162926891091e-06 0.0000000000000000e+00  -1.0744403711798923e-05 7.2542977453005696e-06 0.0000000000000000e+00  -1.3054659874778445e-05 8.7724093573290740e-06 0.0000000000000000e+00  -1.5751664924256045e-05 1.0566831577653512e-05 0.0000000000000000e+00  -1.8835362891824014e-05 1.2675304527075638e-05 0.0000000000000000e+00  -2.2260473656628998e-05 1.5126683509814983e-05 0.0000000000000000e+00  -2.5924812486732093e-05 1.7922682052429115e-05 0.0000000000000000e+00  0.0000000000000000e+00 0.0000000000000000e+00 0.0000000000000000e+00  -4.7184062642930374e-07 3.2572169379820079e-07 0.0000000000000000e+00  -9.6340969994343725e-07 6.6340073680035147e-07 0.0000000000000000e+00  -1.4953920904809974e-06 1.0253645402242675e-06 0.0000000000000000e+00  -2.0904487363478782e-06 1.4246958310497220e-06 0.0000000000000000e+00  -2.7743291727581464e-06 1.8756217883520726e-06 0.0000000000000000e+00  -3.5771190613706201e-06 2.3939206513047151e-06 0.0000000000000000e+00  -4.5346269847644432e-06 2.9973612500586771e-06 0.0000000000000000e+00  -5.6898398403692587e-06 3.7062095227158261e-06 0.0000000000000000e+00  -7.0942141536734774e-06 4.5438756329363123e-06 0.0000000000000000e+00  -8.8082485306670709e-06 5.5378481092720700e-06 0.0000000000000000e+00  -1.0900201419586151e-05 6.7211690037105315e-06 0.0000000000000000e+00  -1.3440912470143901e-05 8.1347893074354011e-06 0.0000000000000000e+00  -1.6491643785729613e-05 9.8309603748291081e-06 0.0000000000000000e+00  -2.0081686728780879e-05 1.1876657979893023e-05 0.0000000000000000e+00  -2.4175920929534727e-05 1.4352413038429040e-05 0.0000000000000000e+00  -2.8643942724326954e-05 1.7334013816395765e-05 0.0000000000000000e+00  0.0000000000000000e+00 0.0000000000000000e+00 0.0000000000000000e+00  -4.3144091390613693e-07 2.9138005368356209e-07 0.0000000000000000e+00  -8.8178426995136716e-07 5.9329070897384073e-07 0.0000000000000000e+00  -1.3710011379973843e-06 9.1656963694370239e-07 0.0000000000000000e+00  -1.9213069161263873e-06 1.2726859233910329e-06 0.0000000000000000e+00  -2.5585141998194990e-06 1.6740666805708952e-06 0.0000000000000000e+00  -3.3136778368026440e-06 2.1344442388310550e-06 0.0000000000000000e+00  -4.2251422078572379e-06 2.6692491408087044e-06 0.0000000000000000e+00  -5.3410759934896732e-06 3.2961077782721544e-06 0.0000000000000000e+00  -6.7224699714303826e-06 4.0355788117834990e-06 0.0000000000000000e+00  -8.4462542338366943e-06 4.9124215060791074e-06 0.0000000000000000e+00  -1.0607412119400684e-05 5.9580000684083277e-06 0.0000000000000000e+00  -1.3317304239374301e-05 7.2149617200971009e-06 0.0000000000000000e+00  -1.6692407775261642e-05 8.7459967979765239e-06 0.0000000000000000e+00  -2.0823777917777182e-05 1.0648464808172541e-05 0.0000000000000000e+00  -2.5717310713082407e-05 1.3072823300590334e-05 0.0000000000000000e+00  -3.1213317024858928e-05 1.6227574049941190e-05 0.0000000000000000e+00  0.0000000000000000e+00 0.0000000000000000e+00 0.0000000000000000e+00  -3.7215305343771986e-07 2.4651833312650188e-07 0.0000000000000000e+00  -7.6130532623920101e-07 5.0182677735883296e-07 0.0000000000000000e+00  -1.1855483576001920e-06 7.7495675162662536e-07 0.0000000000000000e+00  -1.6653001454538561e-06 1.0754378641151228e-06 0.0000000000000000e+00  -2.2247925412616949e-06 1.4135510239285938e-06 0.0000000000000000e+00  -2.8940038550344588e-06 1.8005911336830636e-06 0.0000000000000000e+00  -3.7112813179398439e-06 2.2491548913244153e-06 0.0000000000000000e+00  -4.7269793468749834e-06 2.7734956492838060e-06 0.0000000000000000e+00  -6.0085064540493956e-06 3.3900563146044305e-06 0.0000000000000000e+00  -7.6471076555197203e-06 4.1184681493949537e-06 0.0000000000000000e+00  -9.7661568688919515e-06 4.9837467683368274e-06 0.0000000000000000e+00  -1.2528772204562478e-05 6.0214838618824250e-06 0.0000000000000000e+00  -1.6137141547761330e-05 7.2901882798450929e-06 0.0000000000000000e+00  -2.0803762032110756e-05 8.8991659672717851e-06 0.0000000000000000e+00  -2.6655912173396229e-05 1.1063802930772662e-05 0.0000000000000000e+00  -3.3536527312580704e-05 1.4184366152503615e-05 0.0000000000000000e+00  0.0000000000000000e+00 0.0000000000000000e+00 0.0000000000000000e+00  -2.9588180538806413e-07 1.9287742680312564e-07 0.0000000000000000e+00  -6.0575749165445042e-07 3.9255611984567200e-07 0.0000000000000000e+00  -9.4461640383659636e-07 6.0601258564141032e-07 0.0000000000000000e+00  -1.3295930038287585e-06 8.4058464609387258e-07 0.0000000000000000e+00  -1.7814075079362264e-06 1.1041454300098097e-06 0.0000000000000000e+00  -2.3263416402858219e-06 1.4052662180048744e-06 0.0000000000000000e+00  -2.9991105996384280e-06 1.7533573768126337e-06 0.0000000000000000e+00  -3.8472121335879587e-06 2.1587699026437843e-06 0.0000000000000000e+00  -4.9376952923663719e-06 2.6328377294319660e-06 0.0000000000000000e+00  -6.3678312936846315e-06 3.1878771743425909e-06 0.0000000000000000e+00  -8.2817645873593550e-06 3.8373787839163284e-06 0.0000000000000000e+00  -1.0895016436432141e-05 4.5975630529062753e-06 0.0000000000000000e+00  -1.4524170593861965e-05 5.4949141739209503e-06 0.0000000000000000e+00  -1.9598563341711076e-05 6.5954342985969161e-06 0.0000000000000000e+00  -2.6565802706522346e-05 8.1006162946978772e-06 0.0000000000000000e+00  -3.5479254976043409e-05 1.0592033025806426e-05 0.0000000000000000e+00  0.0000000000000000e+00 0.0000000000000000e+00 0.0000000000000000e+00  -2.0563220533736279e-07 1.3244552293801072e-07 0.0000000000000000e+00  -4.2124825980975728e-07 2.6952189858974976e-07 0.0000000000000000e+00  -6.5759686371140721e-07 4.1597216285964251e-07 0.0000000000000000e+00  -9.2708982909693777e-07 5.7676918691751928e-07 0.0000000000000000e+00  -1.2449622222038907e-06 7.5721663931937540e-07 0.0000000000000000e+00  -1.6309306787257247e-06 9.6302295569553907e-07 0.0000000000000000e+00  -2.1117347930222722e-06 1.2003132197916926e-06 0.0000000000000000e+00  -2.7252556903555005e-06 1.4754978177889512e-06 0.0000000000000000e+00  -3.5275258999669645e-06 1.7948089170460449e-06 0.0000000000000000e+00  -4.6052117632789923e-06 2.1630678004724430e-06 0.0000000000000000e+00  -6.0987465232721856e-06 2.5807071941797270e-06 0.0000000000000000e+00  -8.2463660501691498e-06 3.0370913776529308e-06 0.0000000000000000e+00  -1.1467254099002885e-05 3.4975237731030247e-06 0.0000000000000000e+00  -1.6501786231952536e-05 3.8888572095850925e-06 0.0000000000000000e+00  -2.4529778032314466e-05 4.1542823143802138e-06 0.0000000000000000e+00  -3.6472354420251637e-05 4.8448017787908375e-06 0.0000000000000000e+00  0.0000000000000000e+00 0.0000000000000000e+00 0.0000000000000000e+00  -1.0541217684257806e-07 6.7391418914183356e-08 0.0000000000000000e+00  -2.1602638236484381e-07 1.3712645193379281e-07 0.0000000000000000e+00  -3.3746157302823515e-07 2.1160285278159813e-07 0.0000000000000000e+00  -4.7624853764922945e-07 2.9332842371258980e-07 0.0000000000000000e+00  -6.4048162647021742e-07 3.8496460016714161e-07 0.0000000000000000e+00  -8.4077554897709717e-07 4.8934686219603082e-07 0.0000000000000000e+00  -1.0917836131272320e-06 6.0944904638170891e-07 0.0000000000000000e+00  -1.4147747023779505e-06 7.4820862624579715e-07 0.0000000000000000e+00  -1.8423092018238026e-06 9.0799530851420189e-07 0.0000000000000000e+00  -2.4273674255896460e-06 1.0891240184513599e-06 0.0000000000000000e+00  -3.2627360700488059e-06 1.2856697914659488e-06 0.0000000000000000e+00  -4.5263892294889161e-06 1.4731812613521370e-06 0.0000000000000000e+00  -6.5999542659861809e-06 1.5703294182912800e-06 0.0000000000000000e+00  -1.0415779920847776e-05 1.3103079507485260e-06 0.0000000000000000e+00  -1.8597228204049904e-05 -2.2451348500809309e-07 0.0000000000000000e+00  -3.9641426354252131e-05 -6.4246579804140231e-06 0.0000000000000000e+00  0.0000000000000000e+00 0.0000000000000000e+00 0.0000000000000000e+00  0.0000000000000000e+00 0.0000000000000000e+00 0.0000000000000000e+00  0.0000000000000000e+00 0.0000000000000000e+00 0.0000000000000000e+00  0.0000000000000000e+00 0.0000000000000000e+00 0.0000000000000000e+00  0.0000000000000000e+00 0.0000000000000000e+00 0.0000000000000000e+00  0.0000000000000000e+00 0.0000000000000000e+00 0.0000000000000000e+00  0.0000000000000000e+00 0.0000000000000000e+00 0.0000000000000000e+00  0.0000000000000000e+00 0.0000000000000000e+00 0.0000000000000000e+00  0.0000000000000000e+00 0.0000000000000000e+00 0.00