<?xml version="1.0"?>
<VTKFile type="UnstructuredGrid"  version="0.1"  >
<UnstructuredGrid>
<Piece  NumberOfPoints="289" NumberOfCells="512">
<Points>
<DataArray  type="Float64"  NumberOfComponents="3"  format="ascii">0 0 0  0.0625 0 0  0.125 0 0  0.1875 0 0  0.25 0 0  0.3125 0 0  0.375 0 0  0.4375 0 0  0.5 0 0  0.5625 0 0  0.625 0 0  0.6875 0 0  0.75 0 0  0.8125 0 0  0.875 0 0  0.9375 0 0  1 0 0  0 0.0625 0  0.06250040527466563 0.06249935484967742 0  0.1250008227094777 0.06249868048115434 0  0.1875012643680359 0.06249794571980607 0  0.2500017423558372 0.06249711515671035 0  0.3125022687404063 0.06249614621981047 0  0.3750028553560583 0.06249498497159493 0  0.4375035134446651 0.06249355953638651 0  0.5000042530708206 0.06249176898294589 0  0.5625050822176709 0.062489463000458 0  0.6250060053837583 0.06248640153450916 0  0.6875070212765153 0.06248216690607379 0  0.750008118670677 0.06247595181682555 0  0.8125092686168724 0.06246598783975423 0  0.8750104120631207 0.06244781923370389 0  0.9375114635639147 0.06240849515340562 0  1.000012526235451 0.06230507729673829 0  0 0.125 0  0.06250079842721287 0.1249987387971373 0  0.1250016211164946 0.1249974211147614 0  0.1875024921902303 0.1249959868442067 0  0.2500034359276685 0.1249943680699796 0  0.3125044766479997 0.1249924838122596 0  0.3750056383702457 0.124990232711391 0  0.4375069441602669 0.1249874820439371 0  0.5000084150623095 0.1249840501277261 0  0.5625100684842349 0.124979676468154 0  0.6250119158217923 0.1249739684388362 0  0.6875139588306814 0.1249663020094872 0  0.7500161832861618 0.1249556330626276 0  0.8125185447687087 0.1249401497873023 0  0.8750209256613951 0.1249167484804373 0  0.9375229685930888 0.1248810139101741 0  1.000023323104775 0.1248330007868011 0  0 0.1875 0  0.06250116748290722 0.1874981790874058 0  0.1250023711906756 0.1874962780784393 0  0.1875036472686289 0.1874942120566111 0  0.2500050322769325 0.1874918858317221 0  0.3125065631189806 0.1874891872957383 0  0.3750082766489733 0.1874859785984911 0  0.4375102088335154 0.1874820836866254 0  0.5000123933409356 0.1874772698680859 0  0.5625148594488406 0.1874712196267828 0  0.6250176292174547 0.1874634868491372 0  0.6875207140464882 0.1874534297422898 0  0.7500241113422976 0.1874401155330765 0  0.8125278046635441 0.1874222166169352 0  0.8750317834169563 0.187398014737782 0  0.9375361622422961 0.1873658893416154 0  1.000041811791942 0.1873258396522541 0  0 0.25 0  0.06250150056994007 0.2499976993257108 0  0.1250030490396185 0.249995299783386 0  0.1875046934346495 0.2499926970418324 0  0.2500064826592677 0.249989775255664 0  0.3125084665885303 0.2499863999793382 0  0.3750106957524386 0.2499824092863271 0  0.4375132204454856 0.2499776021641583 0  0.5000160890954707 0.249971723011714 0  0.5625193457655775 0.2499644409704095 0  0.6250230267883952 0.2499553234658382 0  0.6875271568200282 0.2499438063881028 0  0.7500317451915391 0.249929172943654 0  0.8125367844054827 0.2499105779557342 0  0.8750422526619933 0.2498872056023801 0  0.9375481084873756 0.2498587146881179 0  1.00005414634649 0.2498260764525434 0  0 0.3125 0  0.0625017860552886 0.3124973182790324 0  0.1250036311510626 0.3124945244098896 0  0.1875055948347644 0.3124915006347259 0  0.2500077382547479 0.312488117515352 0  0.3125101245703232 0.3124842271181641 0  0.3750128188831589 0.3124796550030928 0  0.4375158874688004 0.3124741906465238 0  0.5000193960639684 0.3124675761428397 0  0.5625234069838041 0.3124594936932148 0  0.6250279749530455 0.3124495540891423 0  0.687533141802175 0.3124372922601052 0  0.7500389306507135 0.3124221837902537 0  0.8125453407767672 0.31240370983821 0  0.8750523445602771 0.3123815146220171 0  0.9375598874948261 0.31235570146089 0  1.000067904989117 0.3123272554416724 0  0 0.375 0  0.06250201278389737 0.3749970492307951 0  0.1250040948473284 0.3749939786677723 0  0.1875063165474228 0.3749906631383498 0  0.2500087508589844 0.374986966403931 0  0.3125114742916246 0.3749827350243155 0  0.3750145672943109 0.3749777915843823 0  0.437518113861554 0.3749719272998687 0  0.5000221999783999 0.3749648944195432 0  0.5625269104873678 0.3749563996828273 0  0.6250323239858315 0.3749461017244348 0  0.687538505551102 0.3749336181890514 0  0.7500454975251628 0.3749185526622084 0  0.8125533092488747 0.3749005562689645 0  0.8750619071751738 0.3748794389096652 0  0.9375712062550642 0.3748553270680691 0  1.000081059049053 0.3748288030212844 0  0 0.4375 0  0.06250217044632388 0.4374968998374121 0  0.1250044190061072 0.4374936776293027 0  0.1875068256208461 0.4374902064270187 0  0.2500094741664969 0.4374863493051432 0  0.3125124540956196 0.4374819540618478 0  0.3750158616056913 0.4374768476647726 0  0.4375197999916049 0.4374708306224327 0  0.5000243786790562 0.4374636718328277 0  0.5625297102511991 0.4374551051341345 0  0.6250359046331265 0.437444829904671 0  0.687543059617026 0.4374325197100492 0  0.7500512473167064 0.4374178449047364 0  0.8125604972100439 0.4374005160340173 0  0.8750707783015246 0.4373803517766501 0  0.9375819851886555 0.4373573629962261 0  1.000093934086806 0.4373318208507866 0  0 0.5 0  0.06250225008989939 0.4999968723669475 0  0.1250045850844306 0.4999936253408485 0  0.1875070926039014 0.499990135236426 0  0.2500098657737766 0.4999862697194995 0  0.3125130058169648 0.4999818833530106 0  0.3750166243328358 0.4999768130804241 0  0.437520844908602 0.4999708738108484 0  0.500025803443541 0.4999638544925605 0  0.5625316461908861 0.4999555154205087 0  0.6250385240667283 0.4999455880577439 0  0.6875465813915765 0.4999337793495326 0  0.7500559373171977 0.4999197832030705 0  0.8125666595289056 0.4999033019805526 0  0.8750787334834821 0.4998840794897826 0  0.9375920369535873 0.4998619429887303 0  1.000106336452798 0.4998368468546767 0  0 0.5625 0  0.06250224477146382 0.5624969641859785 0  0.125004578451589 0.5624938159082742 0  0.1875070936048615 0.5624904390838733 0  0.2500098900020887 0.5624867104023458 0  0.312513078350065 0.5624824956803334 0  0.3750167840405646 0.5624776462162576 0  0.4375211506497987 0.5624719952014567 0  0.5000263425651128 0.5624653542742886 0  0.5625325455165963 0.5624575103097232 0  0.6250399628718434 0.562448222494099 0  0.6875488043572368 0.5624372196468712 0  0.7500592628430841 0.5624241977353451 0  0.81257147535055 0.5624088179455652 0  0.8750854694362944 0.5623907071189208 0  0.9376011095235895 0.5623694649548426 0  1.000118078936339 0.562344683929087 0  0 0.625 0  0.06250215032289909 0.624997168383533 0  0.1250043899841869 0.6249942348205888 0  0.1875068128390033 0.6249910944366193 0  0.2500095215582145 0.6249876365688526 0  0.3125126325705954 0.6249837419048346 0  0.3750162815549563 0.6249792796499913 0  0.4375206294606679 0.6249741046763275 0  0.5000258686775162 0.6249680544635821 0  0.5625322282286904 0.624960945321181 0  0.6250399754286439 0.6249525667527146 0  0.6875494089859499 0.6249426718254536 0  0.7500608349958453 0.6249309603056592 0  0.8125745140338643 0.6249170513696554 0  0.8750905700045462 0.6249004468673934 0  0.9376088724652408 0.6248804975861137 0  1.000128961453169 0.6248563977779247 0  0 0.6875 0  0.06250196616297742 0.6874974744569741 0  0.1250040177978818 0.6874948603677512 0  0.1875062455023054 0.6874920669375543 0  0.2500087498840203 0.6874889989907458 0  0.312511647580158 0.687485554889297 0  0.3750150785167204 0.6874816245584272 0  0.4375192148375951 0.6874770875587664 0  0.5000242717627326 0.6874718109234701 0  0.5625305200376902 0.6874656459471074 0  0.6250382980363701 0.6874584219670596 0  0.6875480178842512 0.6874499329839023 0  0.7500601525170678 0.6874399094947188 0  0.8125751781937389 0.6874279645772629 0  0.8750934340064225 0.6874135069434546 0  0.9376148713562129 0.6873956402090725 0  1.000138773997794 0.6873731110174786 0  0 0.75 0  0.0625016960438414 0.7499978690144011 0  0.125003468889987 0.7499956650775241 0  0.187505400633709 0.7499933136261068 0  0.2500075837724981 0.7499907370305769 0  0.3125101278586241 0.7499878532716292 0  0.3750131680960141 0.7499845748813653 0  0.4375168769215836 0.7499808082170398 0  0.5000214799035557 0.7499764530035881 0  0.5625272774236085 0.7499714016443604 0  0.6250346729422066 0.749965536562623 0  0.6875442053867421 0.749958720659705 0  0.750056572977077 0.7499507686605217 0  0.8125726097243621 0.7499413733644984 0  0.875093122385037 0.7499299478674989 0  0.9376184271842098 0.7499153921138266 0  1.000147488011263 0.7498961084670394 0  0 0.8125 0  0.06250134857805868 0.8124983364619153 0  0.1250027603646422 0.8124966171223801 0  0.1875043034267939 0.8124947851258352 0  0.2500060554628064 0.8124927816888334 0  0.3125081102939015 0.812490545438125 0  0.3750105867512035 0.8124880121954988 0  0.4375136415691449 0.8124851155126274 0  0.500017488852846 0.8124817884155365 0  0.5625224302070634 0.8124779669724603 0  0.6250289016973376 0.8124735961117054 0  0.6875375454197323 0.8124686361471183 0  0.750049309399708 0.8124630595545093 0  0.8125655510084182 0.8124567958674902 0  0.8750880110853342 0.8124494924256753 0  0.9376182310548662 0.8124398136897242 0  1.000155644262845 0.8124245925780095 0  0 0.875 0  0.0625009373707878 0.8749988596435651 0  0.1250019198472452 0.87499768163559 0  0.1875029962883873 0.8749964277201137 0  0.2500042230565225 0.8749950585975343 0  0.3125056692880716 0.8749935337226581 0  0.3750074244433185 0.8749918116255394 0  0.4375096099176624 0.8749898512423091 0  0.5000123979463291 0.8749876152425516 0  0.562516043941464 0.8749850774274514 0  0.6250209442940543 0.8749822385865588 0  0.687527743437038 0.8749791596308552 0  0.7500375353083477 0.8749760261791506 0  0.812552229301046 0.874973244903862 0  0.8750750936500424 0.874971400381822 0  0.9376107968857863 0.8749697698740666 0  1.000159719340201 0.8749555940170463 0  0 0.9375 0  0.06250048060374352 0.9374994203976461 0  0.1250009847225181 0.9374988218527779 0  0.1875015379259632 0.9374981851571574 0  0.2500021699165033 0.9374974906720266 0  0.3125029175125427 0.9374967183247579 0  0.3750038290520712 0.9374958479730608 0  0.4375049714392665 0.9374948605379698
[...]
<PointData  Vectors="f_54"> 
<DataArray  type="Float64"  Name="f_54"  NumberOfComponents="3" format="ascii">0.0000000000000000e+00 0.0000000000000000e+00 0.0000000000000000e+00  0.0000000000000000e+00 0.0000000000000000e+00 0.0000000000000000e+00  0.0000000000000000e+00 0.0000000000000000e+00 0.0000000000000000e+00  0.0000000000000000e+00 0.0000000000000000e+00 0.0000000000000000e+00  0.0000000000000000e+00 0.0000000000000000e+00 0.0000000000000000e+00  0.0000000000000000e+00 0.0000000000000000e+00 0.0000000000000000e+00  0.0000000000000000e+00 0.0000000000000000e+00 0.0000000000000000e+00  0.0000000000000000e+00 0.0000000000000000e+00 0.0000000000000000e+00  0.0000000000000000e+00 0.0000000000000000e+00 0.0000000000000000e+00  0.0000000000000000e+00 0.0000000000000000e+00 0.0000000000000000e+00  0.0000000000000000e+00 0.0000000000000000e+00 0.0000000000000000e+00  0.0000000000000000e+00 0.0000000000000000e+00 0.0000000000000000e+00  0.0000000000000000e+00 0.0000000000000000e+00 0.0000000000000000e+00  0.0000000000000000e+00 0.0000000000000000e+00 0.0000000000000000e+00  0.0000000000000000e+00 0.0000000000000000e+00 0.0000000000000000e+00  0.0000000000000000e+00 0.0000000000000000e+00 0.0000000000000000e+00  0.0000000000000000e+00 0.0000000000000000e+00 0.0000000000000000e+00  0.0000000000000000e+00 0.0000000000000000e+00 0.0000000000000000e+00  -1.1869760897302677e-07 1.1037005076093821e-07 0.0000000000000000e+00  -2.4090206351274532e-07 2.2556317060624591e-07 0.0000000000000000e+00  -3.7012902871911288e-07 3.5070991696306233e-07 0.0000000000000000e+00  -5.0989667050983948e-07 4.9159600766512415e-07 0.0000000000000000e+00  -6.6370011838142455e-07 6.5511484584727683e-07 0.0000000000000000e+00  -8.3495316463152679e-07 8.4991680173110258e-07 0.0000000000000000e+00  -1.0268861446007230e-06 1.0874266508362662e-06 0.0000000000000000e+00  -1.2423897692729233e-06 1.3835688876001621e-06 0.0000000000000000e+00  -1.4837960581509167e-06 1.7619252247172184e-06 0.0000000000000000e+00  -1.7525870576266995e-06 2.2599884257950131e-06 0.0000000000000000e+00  -2.0490101482402005e-06 2.9426625487152252e-06 0.0000000000000000e+00  -2.3715231175796064e-06 3.9343307308886681e-06 0.0000000000000000e+00  -2.7157868332534588e-06 5.5034281686553403e-06 0.0000000000000000e+00  -3.0722163723348360e-06 8.3112159106027567e-06 0.0000000000000000e+00  -3.4187035976770811e-06 1.4225788567343435e-05 0.0000000000000000e+00  -3.6969971803694413e-06 2.9257273602242297e-05 0.0000000000000000e+00  0.0000000000000000e+00 0.0000000000000000e+00 0.0000000000000000e+00  -2.3388750134823552e-07 2.1591627652270595e-07 0.0000000000000000e+00  -4.7478239930139437e-07 4.4117363513847049e-07 0.0000000000000000e+00  -7.2972012288288258e-07 6.8568358928868135e-07 0.0000000000000000e+00  -1.0057627143233987e-06 9.6056541725473582e-07 0.0000000000000000e+00  -1.3099589021715442e-06 1.2789571781103985e-06 0.0000000000000000e+00  -1.6492385305342608e-06 1.6571430028137396e-06 0.0000000000000000e+00  -2.0302184897672807e-06 2.1162484916908096e-06 0.0000000000000000e+00  -2.4588991125825961e-06 2.6849675373231020e-06 0.0000000000000000e+00  -2.9402351110256996e-06 3.4042143796511529e-06 0.0000000000000000e+00  -3.4775737062488935e-06 4.3354844965247334e-06 0.0000000000000000e+00  -4.0719609426789699e-06 5.5765447006452373e-06 0.0000000000000000e+00  -4.7213111899532897e-06 7.2916737600512630e-06 0.0000000000000000e+00  -5.4193735497882970e-06 9.7693247811899512e-06 0.0000000000000000e+00  -6.1541937568897803e-06 1.3519959234300520e-05 0.0000000000000000e+00  -6.9049623207900908e-06 1.9358232828701912e-05 0.0000000000000000e+00  -7.6330832502492401e-06 2.7898812128671763e-05 0.0000000000000000e+00  0.0000000000000000e+00 0.0000000000000000e+00 0.0000000000000000e+00  -3.4206704136656802e-07 3.1211887877280742e-07 0.0000000000000000e+00  -6.9461855507516354e-07 6.3753067925416160e-07 0.0000000000000000e+00  -1.0682068428603638e-06 9.9028679145710018e-07 0.0000000000000000e+00  -1.4734778874668004e-06 1.3860294188196892e-06 0.0000000000000000e+00  -1.9211396892926965e-06 1.8430145451822450e-06 0.0000000000000000e+00  -2.4218322355182486e-06 2.3834655445176770e-06 0.0000000000000000e+00  -2.9858624249465972e-06 3.0354834881230076e-06 0.0000000000000000e+00  -3.6227687772767650e-06 3.8358822370438109e-06 0.0000000000000000e+00  -4.3406894022476336e-06 4.8345527540187471e-06 0.0000000000000000e+00  -5.1455279692106523e-06 6.1013139327670252e-06 0.0000000000000000e+00  -6.0399549704928975e-06 7.7365798467922991e-06 0.0000000000000000e+00  -7.0223660208560673e-06 9.8869249870937897e-06 0.0000000000000000e+00  -8.0861200595490777e-06 1.2763138459591577e-05 0.0000000000000000e+00  -9.2200165327846829e-06 1.6642953778005052e-05 0.0000000000000000e+00  -1.0413443295271469e-05 2.1791348548227957e-05 0.0000000000000000e+00  -1.1680218927800096e-05 2.8131034114824835e-05 0.0000000000000000e+00  0.0000000000000000e+00 0.0000000000000000e+00 0.0000000000000000e+00  -4.3975767390136407e-07 3.9502493203993268e-07 0.0000000000000000e+00  -8.9341506587089281e-07 8.0654156108931710e-07 0.0000000000000000e+00  -1.3750096979955510e-06 1.2519039299689540e-06 0.0000000000000000e+00  -1.8988032670414938e-06 1.7502545881172505e-06 0.0000000000000000e+00  -2.4792931260994988e-06 2.3236144011687583e-06 0.0000000000000000e+00  -3.1310944109984052e-06 2.9982365567397244e-06 0.0000000000000000e+00  -3.8686390168180379e-06 3.8063639313862405e-06 0.0000000000000000e+00  -4.7056349455127458e-06 4.7885684729772687e-06 0.0000000000000000e+00  -5.6542362400793858e-06 5.9968713766662139e-06 0.0000000000000000e+00  -6.7238990072651455e-06 7.4987557613073061e-06 0.0000000000000000e+00  -7.9199552497481259e-06 9.3817328790287236e-06 0.0000000000000000e+00  -9.2420366208482697e-06 1.1756645705418136e-05 0.0000000000000000e+00  -1.0682626370849579e-05 1.4753927279770093e-05 0.0000000000000000e+00  -1.2226127019451909e-05 1.8498297951269547e-05 0.0000000000000000e+00  -1.3848307278504591e-05 2.3034495830548328e-05 0.0000000000000000e+00  -1.5511260021100162e-05 2.8182899367786051e-05 0.0000000000000000e+00  0.0000000000000000e+00 0.0000000000000000e+00 0.0000000000000000e+00  -5.2354348625528253e-07 4.6143543007717050e-07 0.0000000000000000e+00  -1.0642707807046656e-06 9.4170468179235534e-07 0.0000000000000000e+00  -1.6396117679320216e-06 1.4605331324107972e-06 0.0000000000000000e+00  -2.2674324689308936e-06 2.0394742532545091e-06 0.0000000000000000e+00  -2.9661374756005133e-06 2.7029603370192541e-06 0.0000000000000000e+00  -3.7546179596973419e-06 3.4795178410577991e-06 0.0000000000000000e+00  -4.6519710535990213e-06 4.4031933285778814e-06 0.0000000000000000e+00  -5.6769034141013286e-06 5.5151986327755640e-06 0.0000000000000000e+00  -6.8467273168393067e-06 6.8656756058566193e-06 0.0000000000000000e+00  -8.1758746399562425e-06 8.5152101592825536e-06 0.0000000000000000e+00  -9.6739108721941131e-06 1.0535113946043829e-05 0.0000000000000000e+00  -1.1343146340015743e-05 1.3004247740388475e-05 0.0000000000000000e+00  -1.3176116248639957e-05 1.5997993544289154e-05 0.0000000000000000e+00  -1.5153380205957730e-05 1.9562310875799882e-05 0.0000000000000000e+00  -1.7242143948921270e-05 2.3666034629835922e-05 0.0000000000000000e+00  -1.9396368750759984e-05 2.8138003596825580e-05 0.0000000000000000e+00  0.0000000000000000e+00 0.0000000000000000e+00 0.0000000000000000e+00  -5.9014063935563907e-07 5.0900887416748258e-07 0.0000000000000000e+00  -1.2005095032769091e-06 1.0383072498902947e-06 0.0000000000000000e+00  -1.8517325111514733e-06 1.6090507339421392e-06 0.0000000000000000e+00  -2.5651776560527937e-06 2.2441533666672744e-06 0.0000000000000000e+00  -3.3632087487364534e-06 2.9692440435013182e-06 0.0000000000000000e+00  -4.2692734351866643e-06 3.8136972890206606e-06 0.0000000000000000e+00  -5.3077300354430819e-06 4.8117192436868739e-06 0.0000000000000000e+00  -6.5032867667043737e-06 6.0033983550330132e-06 0.0000000000000000e+00  -7.8798983614022602e-06 7.4354850625620254e-06 0.0000000000000000e+00  -9.4589556044830628e-06 9.1613887332614458e-06 0.0000000000000000e+00  -1.1256642290118220e-05 1.1239400096564037e-05 0.0000000000000000e+00  -1.3280463046158667e-05 1.3727425515271277e-05 0.0000000000000000e+00  -1.5525203082359334e-05 1.6671733766798970e-05 0.0000000000000000e+00  -1.7968961307642248e-05 2.0087210056650364e-05 0.0000000000000000e+00  -2.0570286888565992e-05 2.3929633935764659e-05 0.0000000000000000e+00  -2.3267586583319870e-05 2.8070356902995961e-05 0.0000000000000000e+00  0.0000000000000000e+00 0.0000000000000000e+00 0.0000000000000000e+00  -6.3650587223414297e-07 5.3629093062853485e-07 0.0000000000000000e+00  -1.2958919704999657e-06 1.0934647151149544e-06 0.0000000000000000e+00  -2.0016307120727657e-06 1.6932116284021124e-06 0.0000000000000000e+00  -2.7783384001980118e-06 2.3588502175227016e-06 0.0000000000000000e+00  -3.6522500264614258e-06 3.1161756887137267e-06 0.0000000000000000e+00  -4.6515426668789583e-06 3.9943253006243996e-06 0.0000000000000000e+00  -5.8063960723804475e-06 5.0266149462022495e-06 0.0000000000000000e+00  -7.1486223241353725e-06 6.2512310823092012e-06 0.0000000000000000e+00  -8.7106271801768334e-06 7.7115369768737442e-06 0.0000000000000000e+00  -1.0523400443136708e-05 9.4555439103736446e-06 0.0000000000000000e+00  -1.2613212513624239e-05 1.1533787167624282e-05 0.0000000000000000e+00  -1.4996798679306103e-05 1.3994469035882467e-05 0.0000000000000000e+00  -1.7675159480662731e-05 1.6874483777495421e-05 0.0000000000000000e+00  -2.0626801126281005e-05 2.0185352246766390e-05 0.0000000000000000e+00  -2.3802222643268693e-05 2.3895107524811690e-05 0.0000000000000000e+00  -2.7122218499203904e-05 2.7911490891171961e-05 0.0000000000000000e+00  0.0000000000000000e+00 0.0000000000000000e+00 0.0000000000000000e+00  -6.5998910489346962e-07 5.4269007547745924e-07 0.0000000000000000e+00  -1.3449216682990249e-06 1.1060508699846494e-06 0.0000000000000000e+00  -2.0805616145424580e-06 1.7114850816121891e-06 0.0000000000000000e+00  -2.8942988472774547e-06 2.3818677220126382e-06 0.0000000000000000e+00  -3.8159161291450168e-06 3.1422953666876348e-06 0.0000000000000000e+00  -4.8782591684176233e-06 4.0208320161311730e-06 0.0000000000000000e+00  -6.1176989363578073e-06 5.0492121230767699e-06 0.0000000000000000e+00  -7.5741888935885351e-06 6.2634147366405646e-06 0.0000000000000000e+00  -9.2905934411340759e-06 7.7039454781820867e-06 0.0000000000000000e+00  -1.1310801714000832e-05 9.4155417095555277e-06 0.0000000000000000e+00  -1.3675982289061635e-05 1.1445839007445358e-05 0.0000000000000000e+00  -1.6418296572705790e-05 1.3842306694953609e-05 0.0000000000000000e+00  -1.9551718182320380e-05 1.6646522265547716e-05 0.0000000000000000e+00  -2.3060677465570580e-05 1.9884745634817207e-05 0.0000000000000000e+00  -2.6889332751255003e-05 2.3554056632720942e-05 0.0000000000000000e+00  -3.0936765801329437e-05 2.7604464141180126e-05 0.0000000000000000e+00  0.0000000000000000e+00 0.0000000000000000e+00 0.0000000000000000e+00  -6.5852953866281008e-07 5.2842046094836105e-07 0.0000000000000000e+00  -1.3432463875491181e-06 1.0765674094191509e-06 0.0000000000000000e+00  -2.0813995332923085e-06 1.6648162833485727e-06 0.0000000000000000e+00  -2.9023857170706744e-06 2.3148496449636397e-06 0.0000000000000000e+00  -3.8388654004685401e-06 3.0503200128333110e-06 0.0000000000000000e+00  -4.9278904280279329e-06 3.8975156603884586e-06 0.0000000000000000e+00  -6.2119652250239790e-06 4.8860161361582448e-06 0.0000000000000000e+00  -7.7398550111843810e-06 6.0493118379203914e-06 0.0000000000000000e+00  -9.5667668792110597e-06 7.4253461415842624e-06 0.0000000000000000e+00  -1.1753231098910629e-05 9.0569159455673674e-06 0.0000000000000000e+00  -1.4361596195217659e-05 1.0991820018884205e-05 0.0000000000000000e+00  -1.7448625007752756e-05 1.3282516011171142e-05 0.0000000000000000e+00  -2.1052616377197201e-05 1.5984682251532174e-05 0.0000000000000000e+00  -2.5174655947958178e-05 1.9153168316044629e-05 0.0000000000000000e+00  -2.9757376615322102e-05 2.2831978893956273e-05 0.0000000000000000e+00  -3.4671508432237617e-05 2.7032467867953450e-05 0.0000000000000000e+00  0.0000000000000000e+00 0.0000000000000000e+00 0.0000000000000000e+00  -6.3088592429753180e-07 4.9442822460693953e-07 0.0000000000000000e+00  -1.2881399436039480e-06 1.0069876920140795e-06 0.0000000000000000e+00  -1.9994116300868530e-06 1.5563709974869842e-06 0.0000000000000000e+00  -2.7949887551360135e-06 2.1624057565130173e-06 0.0000000000000000e+00  -3.7092818891881600e-06 2.8466350667398099e-06 0.0000000000000000e+00  -4.7824877115300363e-06 3.6329165164485486e-06 0.0000000000000000e+00  -6.0624354265697899e-06 4.5480558716582533e-06 0.0000000000000000e+00  -7.6065198013730224e-06 5.6225135260854835e-06 0.0000000000000000e+00  -9.4834070378082733e-06 6.8912707360421781e-06 0.0000000000000000e+00  -1.1773769473864323e-05 8.3950357106096691e-06 0.0000000000000000e+00  -1.4568533469984394e-05 1.0182112113458464e-05 0.0000000000000000e+00  -1.7961934058875273e-05 1.2311380020195780e-05 0.0000000000000000e+00  -2.2035337948191304e-05 1.4856659305466124e-05 0.0000000000000000e+00  -2.6827724901111027e-05 1.7911390538508330e-05 0.0000000000000000e+00  -3.2293662306722944e-05 2.1588288882570603e-05 0.0000000000000000e+00  -3.8265501735148634e-05 2.5999103774481039e-05 0.0000000000000000e+00  0.0000000000000000e+00 0.0000000000000000e+00 0.0000000000000000e+00  -5.7687985704459906e-07 4.4231013932157836e-07 0.0000000000000000e+00  -1.1790234951019900e-06 9.0059130266830064e-07 0.0000000000000000e+00  -1.8331282717143571e-06 1.3912837231013164e-06 0.0000000000000000e+00  -2.5688886105640126e-06 1.9317799476282834e-06 0.0000000000000000e+00  -3.4208020515666662e-06 2.5409150933382708e-06 0.0000000000000000e+00  -4.4303637331945453e-06 3.2394829730077805e-06 0.0000000000000000e+00  -5.6487943305496460e-06 4.0508098949726953e-06 0.0000000000000000e+00  -7.1404113439145860e-06 5.0014609608143486e-06 0.0000000000000000e+00  -8.9866031405991577e-06 6.1222502333476410e-06 0.0000000000000000e+00  -1.1289931754706080e-05 7.4499294936578166e-06 0.0000000000000000e+00  -1.4176838953674780e-05 9.0303260802509423e-06 0.0000000000000000e+00  -1.7795197580077135e-05 1.0924376220289357e-05 0.0000000000000000e+00  -2.2298948098098889e-05 1.3219352002905651e-05 0.0000000000000000e+00  -2.7806982641597209e-05 1.6047612379853682e-05 0.0000000000000000e+00  -3.4323615728732062e-05 1.9610787236174666e-05 0.0000000000000000e+00  -4.1633905376090755e-05 2.4190185030909987e-05 0.0000000000000000e+00  0.0000000000000000e+00 0.0000000000000000e+00 0.0000000000000000e+00  -4.9761742773440183e-07 3.7422737317540325e-07 0.0000000000000000e+00  -1.0179555043720130e-06 7.6179175867192722e-07 0.0000000000000000e+00  -1.5852015440376586e-06 1.1764030344382628e-06 0.0000000000000000e+00  -2.2266508814492690e-06 1.6325287734635287e-06 0.0000000000000000e+00  -2.9746938610437824e-06 2.1457804598337445e-06 0.0000000000000000e+00  -3.8693964240484947e-06 2.7333149832545825e-06 0.0000000000000000e+00  -4.9619995275759872e-06 3.4142737953934620e-06 0.0000000000000000e+00  -6.3197689241568328e-06 4.2103177543132963e-06 0.0000000000000000e+00  -8.0327106021303409e-06 5.1464065576866290e-06 0.0000000000000000e+00  -1.0222565713894783e-05 6.2521996249238872e-06 0.0000000000000000e+00  -1.3053730480657325e-05 7.5650164771893135e-06 0.0000000000000000e+00  -1.6743061784102843e-05 9.1366229049822135e-06 0.0000000000000000e+00  -2.1558165450357986e-05 1.1048987197587633e-05 0.0000000000000000e+00  -2.7777353956153333e-05 1.3449182928016904e-05 0.0000000000000000e+00  -3.5559376831353783e-05 1.6617294333592537e-05 0.0000000000000000e+00  -4.4675017367499605e-05 2.1061657007739341e-05 0.0000000000000000e+00  0.0000000000000000e+00 0.0000000000000000e+00 0.0000000000000000e+00  -3.9564263825163258e-07 2.9281419360128519e-07 0.0000000000000000e+00  -8.0999016445448831e-07 5.9595368994610438e-07 0.0000000000000000e+00  -1.2630850149634963e-06 9.2001854694970331e-07 0.0000000000000000e+00  -1.7778368631117820e-06 1.2761655106496169e-06 0.0000000000000000e+00  -2.3819487853761320e-06 1.6763814388066133e-06 0.0000000000000000e+00  -3.1105587437956357e-06 2.1337478568264602e-06 0.0000000000000000e+00  -4.0100789211773789e-06 2.6626875542107070e-06 0.0000000000000000e+00  -5.1440084775036428e-06 3.2791792421478777e-06 0.0000000000000000e+00  -6.6019758779403117e-06 4.0009296579573738e-06 0.0000000000000000e+00  -8.5139786422276362e-06 4.8475489503142845e-06 0.0000000000000000e+00  -1.1072552206113191e-05 5.8410678880286571e-06 0.0000000000000000e+00  -1.4565225193661435e-05 7.0083326762695325e-06 0.0000000000000000e+00  -1.9413265521967642e-05 8.3911103309201793e-06 0.0000000000000000e+00  -2.6184619748755027e-05 1.0083271297811754e-05 0.0000000000000000e+00  -3.5460870242034307e-05 1.2348044470312821e-05 0.0000000000000000e+00  -4.7274570915037693e-05 1.5895290235571812e-05 0.0000000000000000e+00  0.0000000000000000e+00 0.0000000000000000e+00 0.0000000000000000e+00  -2.7497104892822224e-07 2.0108185258425314e-07 0.0000000000000000e+00  -5.6328803738850202e-07 4.0919819216969341e-07 0.0000000000000000e+00  -8.7932517322352759e-07 6.3156221246187960e-07 0.0000000000000000e+00  -1.2396808387596161e-06 8.7574678403159266e-07 0.0000000000000000e+00  -1.6647301091016372e-06 1.1498501092732685e-06 0.0000000000000000e+00  -2.1808447280738553e-06 1.4626325238226504e-06 0.0000000000000000e+00  -2.8237969715881243e-06 1.8235846583303639e-06 0.0000000000000000e+00  -3.6442794315392699e-06 2.2428327723384204e-06 0.0000000000000000e+00  -4.7173064188296331e-06 2.7306581622276236e-06 0.0000000000000000e+00  -6.1589659410201956e-06 3.2961094716944262e-06 0.0000000000000000e+00  -8.1574757014699331e-06 3.9435430623939306e-06 0.0000000000000000e+00  -1.1032268297022850e-05 4.6647976906371844e-06 0.0000000000000000e+00  -1.5345258614814195e-05 5.4242850936960162e-06 0.0000000000000000e+00  -2.2086927273805298e-05 6.1454325645883199e-06 0.0000000000000000e+00  -3.2824027852601257e-05 6.7973608511715969e-06 0.0000000000000000e+00  -4.8699835815351794e-05 8.2246446437904285e-06 0.0000000000000000e+00  0.0000000000000000e+00 0.0000000000000000e+00 0.0000000000000000e+00  -1.4096035899630881e-07 1.0232006787878736e-07 0.0000000000000000e+00  -2.8887514492135314e-07 2.0820187760947250e-07 0.0000000000000000e+00  -4.5125955389010955e-07 3.2129455432012344e-07 0.0000000000000000e+00  -6.3684881348000703e-07 4.4542182249755247e-07 0.0000000000000000e+00  -8.5647101326140301e-07 5.8465697355080559e-07 0.0000000000000000e+00  -1.1243294177510176e-06 7.4337180140699355e-07 0.0000000000000000e+00  -1.4600393189700117e-06 9.2622068211512287e-07 0.0000000000000000e+00  -1.8920900876097854e-06 1.1379599601588798e-06 0.0000000000000000e+00  -2.4641385224117165e-06 1.3828363343106531e-06 0.0000000000000000e+00  -3.2473230595643960e-06 1.6628019442302537e-06 0.0000000000000000e+00  -4.3664867948099166e-06 1.9723741143160927e-06 0.0000000000000000e+00  -6.0617356494468081e-06 2.2833162441871751e-06 0.0000000000000000e+00  -8.8495024021458131e-06 2.4963045391884015e-06 0.0000000000000000e+00  -1.3994658642151614e-05 2.2776545894929793e-06 0.0000000000000000e+00  -2.5056092580777536e-05 4.6673565085302201e-07 0.0000000000000000e+00  -5.3482357138123085e-05 -7.2304317504658982e-06 0.0000000000000000e+00  0.0000000000000000e+00 0.0000000000000000e+00 0.0000000000000000e+00  0.0000000000000000e+00 0.0000000000000000e+00 0.0000000000000000e+00  0.0000000000000000e+00 0.0000000000000000e+00 0.0000000000000000e+00  0.0000000000000000e+00 0.0000000000000000e+00 0.0000000000000000e+00  0.0000000000000000e+00 0.0000000000000000e+00 0.0000000000000000e+00  0.0000000000000000e+00 0.0000000000000000e+00 0.0000000000000000e+00  0.0000000000000000e+00 0.0000000000000000e+00 0.0000000000000000e+00  0.0000000000000000e+00 0.0000000000000000e+00 0.0000000000000000e+00  0.0000000000000000e+00 0.0000000000000000e+00 0.000