<?xml version="1.0"?>
<VTKFile type="UnstructuredGrid"  version="0.1"  >
<UnstructuredGrid>
<Piece  NumberOfPoints="289" NumberOfCells="512">
<Points>
<DataArray  type="Float64"  NumberOfComponents="3"  format="ascii">0 0 0  0.0625 0 0  0.125 0 0  0.1875 0 0  0.25 0 0  0.3125 0 0  0.375 0 0  0.4375 0 0  0.5 0 0  0.5625 0 0  0.625 0 0  0.6875 0 0  0.75 0 0  0.8125 0 0  0.875 0 0  0.9375 0 0  1 0 0  0 0.0625 0  0.06249863733022598 0.06250111100160881 0  0.124997234486911 0.06250227030594002 0  0.1874957511607132 0.06250352923579762 0  0.2499941470241869 0.06250494559375401 0  0.312492382022787 0.06250658813092329 0  0.3749904170323938 0.06250854295574092 0  0.4374882149984345 0.06251092357532309 0  0.4999857426495858 0.06251388792218669 0  0.562482972836835 0.06251766949895372 0  0.6249798874978988 0.06252263896153303 0  0.6874764812645751 0.06252943659014398 0  0.7499727661405474 0.0625392850810815 0  0.8124687797838617 0.06255480738126369 0  0.8749646091964366 0.06258240570806321 0  0.9374604822127578 0.06263994264640815 0  0.9999571637870349 0.06278400119231496 0  0 0.125 0  0.0624973148324182 0.1250021736212504 0  0.1249945493758823 0.1250044408121025 0  0.1874916229570644 0.1250069007448217 0  0.2499884546220753 0.1250096645345561 0  0.3124849635964673 0.1250128632441659 0  0.374981070486235 0.1250166590028169 0  0.4374766994653911 0.1250212617252044 0  0.4999717816569981 0.1250269560134164 0  0.562466259819343 0.1250341470908195 0  0.6249600942717907 0.1250434434525448 0  0.6874532697098151 0.1250558122494456 0  0.7499458020845887 0.1250728799327612 0  0.8124377435121388 0.1250975114711423 0  0.8749291778357482 0.1251348267923647 0  0.937420170886926 0.1251932772074396 0  0.9999104852127805 0.1252810704437473 0  0 0.1875 0  0.06249607268426757 0.187503142592208 0  0.1249920252102302 0.1875064184008467 0  0.1874877365617693 0.1875099680956893 0  0.249983084691331 0.1875139480788681 0  0.3124779468972534 0.1875185405770182 0  0.3749722013242259 0.1875239669775588 0  0.4374657299956533 0.1875305066359763 0  0.4999584237562246 0.1875385247921044 0  0.5624501893808498 0.1875485155939824 0  0.6249409588293 0.1875611697881793 0  0.6874307001196154 0.1875774805207655 0  0.7499194284768511 0.1875988987532406 0  0.81240721523518 0.1876275162288712 0  0.874894190856491 0.1876661003543872 0  0.9373805422557349 0.1877172875414203 0  0.9998665510171529 0.1877799924068589 0  0 0.25 0  0.06249495079971583 0.2500039782664594 0  0.1249897422478815 0.2500081219247672 0  0.1874842133285392 0.2500126048524843 0  0.2499782005163537 0.2500176186264524 0  0.312471537676654 0.2500233832729678 0  0.3749640574585008 0.2500301605909143 0  0.4374555947973429 0.2500382714042982 0  0.4999459931696733 0.250048118490004 0  0.5624351141562967 0.2500602171339489 0  0.6249228505689634 0.2500752344402449 0  0.6874091427473061 0.2500940341366969 0  0.7498939965227366 0.2501177091048632 0  0.8123774997731436 0.2501475444311432 0  0.87485983276736 0.2501847654793077 0  0.9373412661643373 0.2502297911234504 0  0.9998221354559532 0.2502807752378718 0  0 0.3125 0  0.06249398839243299 0.3125046484666172 0  0.1249877797026895 0.3125094859971604 0  0.1874811739498757 0.3125147104526399 0  0.2499739662241191 0.3125205378149947 0  0.3124659455597473 0.3125272125608164 0  0.3749568956065392 0.3125350196120391 0  0.4374465979644139 0.3125442982855086 0  0.4999348392006183 0.3125554582795699 0  0.5624214226233444 0.3125689966482265 0  0.6249061856876581 0.3125855120223835 0  0.6873890232334301 0.3126057062894926 0  0.7498699153432918 0.3126303516588153 0  0.8123489563146652 0.3126601796744176 0  0.8748263783273611 0.3126956226695675 0  0.9373025609480797 0.3127363429900387 0  0.9997780181180861 0.3127806335874438 0  0 0.375 0  0.0624932231856901 0.3750051295185476 0  0.1249862142619026 0.3750104629598854 0  0.1874787364966831 0.375016212832713 0  0.2499705447154352 0.375022609131566 0  0.3124613824451397 0.3750299088078066 0  0.3749509810006686 0.3750384059239262 0  0.4374390616367604 0.3750484422611632 0  0.499925342261026 0.3750604174175232 0  0.5624095505525153 0.3750747959541652 0  0.624891445459707 0.3750921063547713 0  0.6873708486002369 0.3751129217343658 0  0.7498476855104166 0.3751378050245539 0  0.8123220334035812 0.3751671936350154 0  0.874794166904506 0.3752011989583244 0  0.9372645872456111 0.3752393272106496 0  0.999734017004304 0.3752802264736816 0  0 0.4375 0  0.06249269017154811 0.4375054065618013 0  0.1249851176659758 0.4375110233054706 0  0.1874770129709927 0.4375170684735787 0  0.2499680934953326 0.4375237765840113 0  0.3124580581664168 0.4375314068847708 0  0.3749465838103909 0.4375402519403007 0  0.4374333246304255 0.43755064585989 0  0.499917916778364 0.4375629709530354 0  0.5623999908549216 0.4375776602967189 0  0.6248791959893908 0.4375951915283053 0  0.6873552394601936 0.4376160639182135 0  0.7498279446654168 0.4376407467677191 0  0.8122973261499584 0.4376695844292052 0  0.874763671818552 0.4377026472730205 0  0.9372276096116473 0.4377395387270616 0  0.9996901242265922 0.4377792140559311 0  0 0.5 0  0.06249241985824391 0.5000054733364573 0  0.1249845531988676 0.5000111550418421 0  0.1874761040675646 0.500017260861673 0  0.2499667578497792 0.5000240213644418 0  0.3124561724858299 0.5000316894851321 0  0.3749439708308975 0.5000405480315133 0  0.4374297354689967 0.5000509167482042 0  0.4999130083156959 0.5000631580475755 0  0.5623932988602407 0.5000776796947279 0  0.6248701068789322 0.500094931403534 0  0.6873429674767653 0.5001153902700171 0  0.7498115270655165 0.500139527140732 0  0.8122756554914093 0.5001677426992776 0  0.8747355873743621 0.5002002596865961 0  0.9371920606088314 0.5002369601674398 0  0.9996463853887194 0.5002771727013433 0  0 0.5625 0  0.0624924360101441 0.5625053316553046 0  0.1249845710604352 0.5625108624810897 0  0.1874760920007306 0.5625167982607104 0  0.2499666609671995 0.5625233580518837 0  0.3124559025428649 0.5625307809469106 0  0.3749433907902647 0.5625393329022264 0  0.4374286370706472 0.5625493135281604 0  0.4999110808351766 0.5625610626095716 0  0.5623900877899156 0.5625749659578776 0  0.6248649634027061 0.5625914598984685 0  0.6873349947738188 0.5626110329910975 0  0.7497995394135629 0.5626342216118281 0  0.8122581813909623 0.5626615906932455 0  0.8747109638101263 0.5626936782265937 0  0.9371586657342117 0.5627308577717408 0  0.9996030125224407 0.5627730434469914 0  0 0.625 0  0.06249275298714168 0.6250049907170431 0  0.1249852027983802 0.625010164786159 0  0.1874770315558808 0.625015711346352 0  0.2499678909723539 0.6250218311663258 0  0.3124573852264483 0.6250287426422849 0  0.3749450517548573 0.625036688057684 0  0.4374303398950946 0.6250459403259909 0  0.4999125884717695 0.6250568106995477 0  0.5623910059314496 0.6250696584858271 0  0.6248646616443703 0.6250849048327312 0  0.6873325060896484 0.6251030541120888 0  0.7497934519939295 0.6251247274121555 0  0.812246565560119 0.6251507092859092 0  0.8746914219858252 0.6251819901950463 0  0.937128631906985 0.6252197297291402 0  0.9995603801219839 0.6252649404204221 0  0 0.6875 0  0.06249337292909844 0.6875044663403334 0  0.124986455271519 0.6875090944213541 0  0.1874789400016583 0.6875140508729686 0  0.249970485515919 0.6875195121587651 0  0.3124606947758261 0.6875256696944486 0  0.3749490899254312 0.6875327353139377 0  0.4374350806670816 0.6875409474786582 0  0.4999179250450867 0.6875505791293779 0  0.5623966829493892 0.6875619492001347 0  0.6248701675282998 0.6875754421643983 0  0.6873369116700803 0.6875915445525987 0  0.7497951924291919 0.6876109151582908 0  0.8122432031974932 0.6876345152247897 0  0.8746795257481299 0.6876638234859438 0  0.9371040652171222 0.6877011000273495 0  0.9995193504194321 0.6877494204482658 0  0 0.75 0  0.06249428318910334 0.7500037801364945 0  0.1249883049723162 0.7500076955071807 0  0.1874817871324622 0.7500118852660322 0  0.2499744155841868 0.7500164964344114 0  0.3124658174252958 0.7500216879559103 0  0.3749555310924645 0.7500276349697979 0  0.4374429658186589 0.7500345335827076 0  0.4999273453044344 0.7500426068368348 0  0.5624076294154616 0.7500521136398978 0  0.6248824085875545 0.7500633651111526 0  0.6873497738193423 0.7500767594682772 0  0.7498071947358317 0.7500928625434011 0  0.8122515207307166 0.7501125962544233 0  0.8746794066228475 0.7501376615477964 0  0.9370887550993282 0.7501713798455101 0  0.999481744695299 0.7502199170379785 0  0 0.8125 0  0.06249545455727289 0.8125029586115248 0  0.1249906938754711 0.8125060220244408 0  0.1874854873913007 0.8125092979472515 0  0.249979571458335 0.8125128998852378 0  0.3124726271150931 0.8125169500101876 0  0.3749642495742462 0.8125215819575897 0  0.4374539038392813 0.8125269434566096 0  0.4999408574388975 0.8125331986400475 0  0.5624240756295086 0.8125405299191324 0  0.6249020559335603 0.8125491399691875 0  0.6873725692762663 0.8125592578147758 0  0.7498322770133867 0.8125711671297329 0  0.8122762601674306 0.812585326003905 0  0.8746978063030451 0.8126028124327128 0  0.9370897892997037 0.8126267733161459 0  0.9994508665954439 0.8126662153666417 0  0 0.875 0  0.06249684087186007 0.8750020321974924 0  0.1249935281604749 0.8750041358487121 0  0.187489896507789 0.8750063843062433 0  0.2499857549044794 0.8750088546703123 0  0.3124808687890796 0.8750116295170206 0  0.3749749344504955 0.8750147983098736 0  0.4374675397896944 0.875018458034774 0  0.4999581007250231 0.8750227119575523 0  0.5624457529616325 0.8750276638812308 0  0.6249291592987838 0.8750334017469834 0  0.6874061525493835 0.8750399567013262 0  0.7498730555377832 0.875047209609185 0  0.8123233948622267 0.8750547069856534 0  0.8747457177484226 0.8750614502394349 0  0.9371216719912671 0.875066616186702 0  0.9994364303197069 0.875077691319723 0  0 0.9375 0  0.0624983805157108 0.9375010342415752 0  0.124996681002219 0.937502104681012 0  0.1874948150121408 0.9375032484470858 0  0.2499926820353608 0.9375045044873938 0  0.3124901574457513 0.9375059143440796 0  0.3749870777404346 0.9375075226355039 0  0.4374832171214912 0.9
[...]
<PointData  Vectors="f_54"> 
<DataArray  type="Float64"  Name="f_54"  NumberOfComponents="3" format="ascii">0.0000000000000000e+00 0.0000000000000000e+00 0.0000000000000000e+00  0.0000000000000000e+00 0.0000000000000000e+00 0.0000000000000000e+00  0.0000000000000000e+00 0.0000000000000000e+00 0.0000000000000000e+00  0.0000000000000000e+00 0.0000000000000000e+00 0.0000000000000000e+00  0.0000000000000000e+00 0.0000000000000000e+00 0.0000000000000000e+00  0.0000000000000000e+00 0.0000000000000000e+00 0.0000000000000000e+00  0.0000000000000000e+00 0.0000000000000000e+00 0.0000000000000000e+00  0.0000000000000000e+00 0.0000000000000000e+00 0.0000000000000000e+00  0.0000000000000000e+00 0.0000000000000000e+00 0.0000000000000000e+00  0.0000000000000000e+00 0.0000000000000000e+00 0.0000000000000000e+00  0.0000000000000000e+00 0.0000000000000000e+00 0.0000000000000000e+00  0.0000000000000000e+00 0.0000000000000000e+00 0.0000000000000000e+00  0.0000000000000000e+00 0.0000000000000000e+00 0.0000000000000000e+00  0.0000000000000000e+00 0.0000000000000000e+00 0.0000000000000000e+00  0.0000000000000000e+00 0.0000000000000000e+00 0.0000000000000000e+00  0.0000000000000000e+00 0.0000000000000000e+00 0.0000000000000000e+00  0.0000000000000000e+00 0.0000000000000000e+00 0.0000000000000000e+00  0.0000000000000000e+00 0.0000000000000000e+00 0.0000000000000000e+00  -8.3273924512002178e-08 9.2168785325064971e-08 0.0000000000000000e+00  -1.6899121644188435e-07 1.8833097237455450e-07 0.0000000000000000e+00  -2.5958917492001874e-07 2.9272639894130307e-07 0.0000000000000000e+00  -3.5748846107832025e-07 4.1013011293803352e-07 0.0000000000000000e+00  -4.6505900988389525e-07 5.4622263620783437e-07 0.0000000000000000e+00  -5.8455328633790213e-07 7.0812298380781817e-07 0.0000000000000000e+00  -7.1799301539325634e-07 9.0522720010036241e-07 0.0000000000000000e+00  -8.6699347328382206e-07 1.1506362943970278e-06 0.0000000000000000e+00  -1.0325071609842228e-06 1.4637806834324213e-06 0.0000000000000000e+00  -1.2144648802142786e-06 1.8756410643903790e-06 0.0000000000000000e+00  -1.4112806504677096e-06 2.4400739477462981e-06 0.0000000000000000e+00  -1.6191455417035867e-06 3.2608739977758237e-06 0.0000000000000000e+00  -1.8309006375213418e-06 4.5636696561910094e-06 0.0000000000000000e+00  -2.0339211337427459e-06 6.9091442992464361e-06 0.0000000000000000e+00  -2.2059406552180874e-06 1.1895802864822649e-05 0.0000000000000000e+00  -2.3102563414938220e-06 2.4700856019112765e-05 0.0000000000000000e+00  0.0000000000000000e+00 0.0000000000000000e+00 0.0000000000000000e+00  -1.6410373376978601e-07 1.8034324051512008e-07 0.0000000000000000e+00  -3.3309697516805305e-07 3.6842298964967210e-07 0.0000000000000000e+00  -5.1186737251470194e-07 5.7243258267023414e-07 0.0000000000000000e+00  -7.0528987121781510e-07 8.0155082737993876e-07 0.0000000000000000e+00  -9.1817059327544284e-07 1.0666042768566482e-06 0.0000000000000000e+00  -1.1551272567858273e-06 1.3809901853072932e-06 0.0000000000000000e+00  -1.4203786468920972e-06 1.7620691211982222e-06 0.0000000000000000e+00  -1.7174115862922742e-06 2.2334125968951991e-06 0.0000000000000000e+00  -2.0484906636169009e-06 2.8286495578547664e-06 0.0000000000000000e+00  -2.4139747016502245e-06 3.5983938125701414e-06 0.0000000000000000e+00  -2.8114029749544048e-06 4.6232453894744742e-06 0.0000000000000000e+00  -3.2342957235639723e-06 6.0387561827788715e-06 0.0000000000000000e+00  -3.6704751893918704e-06 8.0824401590881850e-06 0.0000000000000000e+00  -4.0989194711417610e-06 1.1170255073763152e-05 0.0000000000000000e+00  -4.4799358200877179e-06 1.5940446854826917e-05 0.0000000000000000e+00  -4.7112502469336084e-06 2.2714038688384744e-05 0.0000000000000000e+00  0.0000000000000000e+00 0.0000000000000000e+00 0.0000000000000000e+00  -2.4004583351758595e-07 2.6078283552330055e-07 0.0000000000000000e+00  -4.8742338423460356e-07 5.3258193750450670e-07 0.0000000000000000e+00  -7.4948652328892009e-07 8.2702058435166670e-07 0.0000000000000000e+00  -1.0336201675351083e-06 1.1570180396070946e-06 0.0000000000000000e+00  -1.3471857781169078e-06 1.5376224547077105e-06 0.0000000000000000e+00  -1.6973764911070374e-06 1.9871144752331574e-06 0.0000000000000000e+00  -2.0909410211369167e-06 2.5285680272360511e-06 0.0000000000000000e+00  -2.5337283311192126e-06 3.1921727696082632e-06 0.0000000000000000e+00  -3.0299999439603309e-06 4.0188184517695011e-06 0.0000000000000000e+00  -3.5814596814904258e-06 5.0657313061280353e-06 0.0000000000000000e+00  -4.1859781227027412e-06 6.4152501049105829e-06 0.0000000000000000e+00  -4.8360960509345637e-06 8.1875895090632159e-06 0.0000000000000000e+00  -5.5177862544393063e-06 1.0555489774632338e-05 0.0000000000000000e+00  -6.2115082665571095e-06 1.3746103529066227e-05 0.0000000000000000e+00  -6.9042097509424740e-06 1.7977725686828887e-05 0.0000000000000000e+00  -7.6510626263321801e-06 2.3219386330662454e-05 0.0000000000000000e+00  0.0000000000000000e+00 0.0000000000000000e+00 0.0000000000000000e+00  -3.0865982648666084e-07 3.3020937877984339e-07 0.0000000000000000e+00  -6.2706384777249461e-07 6.7409955815170171e-07 0.0000000000000000e+00  -9.6503012043632262e-07 1.0460415569548977e-06 0.0000000000000000e+00  -1.3325076156031007e-06 1.4618611646304876e-06 0.0000000000000000e+00  -1.7395576099268416e-06 1.9397230746565169e-06 0.0000000000000000e+00  -2.1962244594276260e-06 2.5012283952701400e-06 0.0000000000000000e+00  -2.7122421057803031e-06 3.1728386950447481e-06 0.0000000000000000e+00  -3.2965098801245409e-06 3.9877723350858717e-06 0.0000000000000000e+00  -3.9562581480147053e-06 4.9885354006182657e-06 0.0000000000000000e+00  -4.6958148495015875e-06 6.2301775958395395e-06 0.0000000000000000e+00  -5.5148849304533639e-06 7.7839931486472717e-06 0.0000000000000000e+00  -6.4062776436539893e-06 9.7401834281371676e-06 0.0000000000000000e+00  -7.3530702126787486e-06 1.2204814463101331e-05 0.0000000000000000e+00  -8.3251878675965988e-06 1.5279584420381786e-05 0.0000000000000000e+00  -9.2743887249158271e-06 1.9003538648610501e-05 0.0000000000000000e+00  -1.0118249914466013e-05 2.3242860704523474e-05 0.0000000000000000e+00  0.0000000000000000e+00 0.0000000000000000e+00 0.0000000000000000e+00  -3.6753405085949226e-07 3.8595867660063245e-07 0.0000000000000000e+00  -7.4714250362072346e-07 7.8756380075873872e-07 0.0000000000000000e+00  -1.1510582487173829e-06 1.2211767984233295e-06 0.0000000000000000e+00  -1.5918124986873077e-06 1.7046448424674917e-06 0.0000000000000000e+00  -2.0822951846202503e-06 2.2581502652619286e-06 0.0000000000000000e+00  -2.6356951015079321e-06 2.9051886093868292e-06 0.0000000000000000e+00  -3.2652556230373393e-06 3.6737099055579680e-06 0.0000000000000000e+00  -3.9837614126824605e-06 4.5974262395679350e-06 0.0000000000000000e+00  -4.8026468697408058e-06 5.7171986151404946e-06 0.0000000000000000e+00  -5.7305882193046485e-06 7.0821925064392724e-06 0.0000000000000000e+00  -6.7714037313371515e-06 8.7499888904510783e-06 0.0000000000000000e+00  -7.9210164659480704e-06 1.0783819958282807e-05 0.0000000000000000e+00  -9.1630370961392675e-06 1.3243336914878488e-05 0.0000000000000000e+00  -1.0461871835149584e-05 1.6163146411130684e-05 0.0000000000000000e+00  -1.1750080725057291e-05 1.9513363763961076e-05 0.0000000000000000e+00  -1.2899925663014889e-05 2.3145950530998024e-05 0.0000000000000000e+00  0.0000000000000000e+00 0.0000000000000000e+00 0.0000000000000000e+00  -4.1433797349433933e-07 4.2606419312413274e-07 0.0000000000000000e+00  -8.4291391810405789e-07 8.6901764883893269e-07 0.0000000000000000e+00  -1.3002431598187116e-06 1.3464478329040203e-06 0.0000000000000000e+00  -1.8013783120548686e-06 1.8773729078760130e-06 0.0000000000000000e+00  -2.3620974026578099e-06 2.4830134754681281e-06 0.0000000000000000e+00  -2.9989776449410509e-06 3.1876164334162443e-06 0.0000000000000000e+00  -3.7292851001516805e-06 4.0193102851826581e-06 0.0000000000000000e+00  -4.5705818616687546e-06 5.0109108888408465e-06 0.0000000000000000e+00  -5.5399158818851804e-06 6.2004751359804604e-06 0.0000000000000000e+00  -6.6524147981100225e-06 7.6311705044160148e-06 0.0000000000000000e+00  -7.9190532340074104e-06 9.3496300244113386e-06 0.0000000000000000e+00  -9.3432936233027163e-06 1.1401359927665475e-05 0.0000000000000000e+00  -1.0916181754068241e-05 1.3821090611462707e-05 0.0000000000000000e+00  -1.2609252975771196e-05 1.6615838846950167e-05 0.0000000000000000e+00  -1.4364316998957098e-05 1.9740509556204398e-05 0.0000000000000000e+00  -1.6079722525008251e-05 2.3072614863908942e-05 0.0000000000000000e+00  0.0000000000000000e+00 0.0000000000000000e+00 0.0000000000000000e+00  -4.4690655684078356e-07 4.4928118132492269e-07 0.0000000000000000e+00  -9.0993048910155292e-07 9.1599030243253343e-07 0.0000000000000000e+00  -1.4056156879316251e-06 1.4182128607455651e-06 0.0000000000000000e+00  -1.9513475537858372e-06 1.9753653138921519e-06 0.0000000000000000e+00  -2.5657179695599668e-06 2.6088814256645947e-06 0.0000000000000000e+00  -3.2688025136755012e-06 3.3429024926408854e-06 0.0000000000000000e+00  -4.0822825897747803e-06 4.2049276519743274e-06 0.0000000000000000e+00  -5.0293082399879176e-06 5.2263204389909532e-06 0.0000000000000000e+00  -6.1339484336392207e-06 6.4424618630524025e-06 0.0000000000000000e+00  -7.4200177286719005e-06 7.8921657860677556e-06 0.0000000000000000e+00  -8.9090111460776544e-06 9.6157133423252492e-06 0.0000000000000000e+00  -1.0616841872188857e-05 1.1650546361178652e-05 0.0000000000000000e+00  -1.2549092030955584e-05 1.4023438135893130e-05 0.0000000000000000e+00  -1.4694644549867384e-05 1.6738251761087460e-05 0.0000000000000000e+00  -1.7018283238102208e-05 1.9759995094360575e-05 0.0000000000000000e+00  -1.9456177990568232e-05 2.2999700538602697e-05 0.0000000000000000e+00  0.0000000000000000e+00 0.0000000000000000e+00 0.0000000000000000e+00  -4.6335794353297472e-07 4.5506831623612789e-07 0.0000000000000000e+00  -9.4428159751625880e-07 9.2744244561486876e-07 0.0000000000000000e+00  -1.4609321624547045e-06 1.4350343153715255e-06 0.0000000000000000e+00  -2.0326622998402365e-06 1.9969714002820494e-06 0.0000000000000000e+00  -2.6805999676037060e-06 2.6342091934972760e-06 0.0000000000000000e+00  -3.4281964431989091e-06 3.3701315287484923e-06 0.0000000000000000e+00  -4.3016852763899962e-06 4.2310997115520329e-06 0.0000000000000000e+00  -5.3303541759122699e-06 5.2468697920165123e-06 0.0000000000000000e+00  -6.5464672345749070e-06 6.4507298217294457e-06 0.0000000000000000e+00  -7.9845930526319801e-06 7.8791056042098881e-06 0.0000000000000000e+00  -9.6800129306498782e-06 9.5702369204162264e-06 0.0000000000000000e+00  -1.1665844953245657e-05 1.1561341556788996e-05 0.0000000000000000e+00  -1.3968580103612705e-05 1.3883498026908922e-05 0.0000000000000000e+00  -1.6601847523201836e-05 1.6553388293438651e-05 0.0000000000000000e+00  -1.9557901902348092e-05 1.9561264329247538e-05 0.0000000000000000e+00  -2.2793647143818517e-05 2.2855518390242618e-05 0.0000000000000000e+00  0.0000000000000000e+00 0.0000000000000000e+00 0.0000000000000000e+00  -4.6224067078994831e-07 4.4354476893423181e-07 0.0000000000000000e+00  -9.4289821036664168e-07 9.0366688915513544e-07 0.0000000000000000e+00  -1.4611559188403910e-06 1.3974940579276312e-06 0.0000000000000000e+00  -2.0377492372198866e-06 1.9432513688675696e-06 0.0000000000000000e+00  -2.6957934666431990e-06 2.5608145244766693e-06 0.0000000000000000e+00  -3.4616558749670034e-06 3.2722592238767003e-06 0.0000000000000000e+00  -4.3658495518928206e-06 4.1023897750693243e-06 0.0000000000000000e+00  -5.4438771473615288e-06 5.0792153924565503e-06 0.0000000000000000e+00  -6.7368697715176451e-06 6.2343236153747066e-06 0.0000000000000000e+00  -8.2917427688229923e-06 7.6030755254137783e-06 0.0000000000000000e+00  -1.0160441616631792e-05 9.2245083122611945e-06 0.0000000000000000e+00  -1.2397755858778823e-05 1.1140741438775485e-05 0.0000000000000000e+00  -1.5057321870801798e-05 1.3395431662111884e-05 0.0000000000000000e+00  -1.8186025610788557e-05 1.6030134291799412e-05 0.0000000000000000e+00  -2.1817560994115705e-05 1.9075792804101549e-05 0.0000000000000000e+00  -2.5962514641253739e-05 2.2533526455223185e-05 0.0000000000000000e+00  0.0000000000000000e+00 0.0000000000000000e+00 0.0000000000000000e+00  -4.4270021168459425e-07 4.1543616572267885e-07 0.0000000000000000e+00  -9.0390339004687137e-07 8.4617355490446023e-07 0.0000000000000000e+00  -1.4030267718984601e-06 1.3080044447459961e-06 0.0000000000000000e+00  -1.9613600876656401e-06 1.8176973935688482e-06 0.0000000000000000e+00  -2.6031329685822825e-06 2.3934976966485314e-06 0.0000000000000000e+00  -3.3567337476863721e-06 3.0556426975334188e-06 0.0000000000000000e+00  -4.2561101080505937e-06 3.8269013677088820e-06 0.0000000000000000e+00  -5.3423395064272583e-06 4.7331602555493172e-06 0.0000000000000000e+00  -6.6652632533967053e-06 5.8041087039048006e-06 0.0000000000000000e+00  -8.2848969525280294e-06 7.0741387499654274e-06 0.0000000000000000e+00  -1.0272036246684073e-05 8.5836791698428704e-06 0.0000000000000000e+00  -1.2707139101499911e-05 1.0381300423940088e-05 0.0000000000000000e+00  -1.5676582061250124e-05 1.2526886185542410e-05 0.0000000000000000e+00  -1.9266942107067667e-05 1.5095390771583861e-05 0.0000000000000000e+00  -2.3563255213919125e-05 1.8177679856524493e-05 0.0000000000000000e+00  -2.8666566725626344e-05 2.1866443824580573e-05 0.0000000000000000e+00  0.0000000000000000e+00 0.0000000000000000e+00 0.0000000000000000e+00  -4.0464736285255515e-07 3.7201631153174593e-07 0.0000000000000000e+00  -8.2697366022836785e-07 7.5757170067391826e-07 0.0000000000000000e+00  -1.2856664160406986e-06 1.1706312782338023e-06 0.0000000000000000e+00  -1.8015013124963331e-06 1.6260056388005043e-06 0.0000000000000000e+00  -2.3986023384350696e-06 2.1397930645923141e-06 0.0000000000000000e+00  -3.1059767360650990e-06 2.7298512163084538e-06 0.0000000000000000e+00  -3.9594344468995595e-06 3.4163254479227029e-06 0.0000000000000000e+00  -5.0039913415336042e-06 4.2222914156392940e-06 0.0000000000000000e+00  -6.2967858995603040e-06 5.1746367075674213e-06 0.0000000000000000e+00  -7.9103255923015149e-06 6.3054462349702767e-06 0.0000000000000000e+00  -9.9353712674103229e-06 7.6544316514279326e-06 0.0000000000000000e+00  -1.2481789143282509e-05 9.2734404356395067e-06 0.0000000000000000e+00  -1.5674404576877001e-05 1.1234825695590090e-05 0.0000000000000000e+00  -1.9641202517238382e-05 1.3646103346331448e-05 0.0000000000000000e+00  -2.4500954515127616e-05 1.6672160145637703e-05 0.0000000000000000e+00  -3.0397218180793891e-05 2.0558112791532094e-05 0.0000000000000000e+00  0.0000000000000000e+00 0.0000000000000000e+00 0.0000000000000000e+00  -3.4890381192728145e-07 3.1504585366296813e-07 0.0000000000000000e+00  -7.1366009310910983e-07 6.4144912418314283e-07 0.0000000000000000e+00  -1.1111394040210276e-06 9.9092027197564882e-07 0.0000000000000000e+00  -1.5603421068388620e-06 1.3758687090108136e-06 0.0000000000000000e+00  -2.0837500911987611e-06 1.8097726302965689e-06 0.0000000000000000e+00  -2.7090679640850979e-06 2.3075797644263269e-06 0.0000000000000000e+00  -3.4715617792260942e-06 2.8861665154566856e-06 0.0000000000000000e+00  -4.4172651961523037e-06 3.5649121970094068e-06 0.0000000000000000e+00  -5.6073624452217015e-06 4.3665119327686817e-06 0.0000000000000000e+00  -7.1239626641864294e-06 5.3183067389742743e-06 0.0000000000000000e+00  -9.0769340648481724e-06 6.4547719318331394e-06 0.0000000000000000e+00  -1.1609691462452229e-05 7.8226481735385669e-06 0.0000000000000000e+00  -1.4897296761820838e-05 9.4920810822753610e-06 0.0000000000000000e+00  -1.9121475193431024e-05 1.1580911103609785e-05 0.0000000000000000e+00  -2.4400600326851832e-05 1.4305145379893173e-05 0.0000000000000000e+00  -3.0698280815301551e-05 1.8073023332280076e-05 0.0000000000000000e+00  0.0000000000000000e+00 0.0000000000000000e+00 0.0000000000000000e+00  -2.7729484275891649e-07 2.4670597490007073e-07 0.0000000000000000e+00  -5.6760465013202491e-07 5.0224159503138473e-07 0.0000000000000000e+00  -8.8486247881055922e-07 7.7570828004936223e-07 0.0000000000000000e+00  -1.2449403053106308e-06 1.0767433665851481e-06 0.0000000000000000e+00  -1.6669348166748565e-06 1.4158027327450902e-06 0.0000000000000000e+00  -2.1749064032468942e-06 1.8044628970650577e-06 0.0000000000000000e+00  -2.8003667633280141e-06 2.2557539308333936e-06 0.0000000000000000e+00  -3.5859779382659093e-06 2.7845411852037703e-06 0.0000000000000000e+00  -4.5911863402212537e-06 3.4079900132278395e-06 0.0000000000000000e+00  -5.9008566947177464e-06 4.1461977220221078e-06 0.0000000000000000e+00  -7.6381653372683112e-06 5.0232534969258804e-06 0.0000000000000000e+00  -9.9819724290151527e-06 6.0696197791826772e-06 0.0000000000000000e+00  -1.3182578270940616e-05 7.3288914920089280e-06 0.0000000000000000e+00  -1.7545489143217798e-05 8.8786763422053726e-06 0.0000000000000000e+00  -2.3280046736728339e-05 1.0891877832031123e-05 0.0000000000000000e+00  -2.9973633080792504e-05 1.3778067674237053e-05 0.0000000000000000e+00  0.0000000000000000e+00 0.0000000000000000e+00 0.0000000000000000e+00  -1.9265816189487496e-07 1.6952504894766847e-07 0.0000000000000000e+00  -3.9458232469416112e-07 3.4508643439993334e-07 0.0000000000000000e+00  -6.1573856712603990e-07 5.3290457539110707e-07 0.0000000000000000e+00  -8.6758313121535439e-07 7.3956100559468413e-07 0.0000000000000000e+00  -1.1640861626247535e-06 9.7218562222790282e-07 0.0000000000000000e+00  -1.5231725086786266e-06 1.2386485058956052e-06 0.0000000000000000e+00  -1.9688943997956176e-06 1.5477481432234217e-06 0.0000000000000000e+00  -2.5348981784478158e-06 1.9093656916590201e-06 0.0000000000000000e+00  -3.2702420092028905e-06 2.3344958778884940e-06 0.0000000000000000e+00  -4.2496273418792701e-06 2.8349172724660351e-06 0.0000000000000000e+00  -5.5921338347187802e-06 3.4219241658412254e-06 0.0000000000000000e+00  -7.4962976618305052e-06 4.1028885701617197e-06 0.0000000000000000e+00  -1.0303998214256294e-05 4.8738746463365276e-06 0.0000000000000000e+00  -1.4596278697010808e-05 5.7108540231414397e-06 0.0000000000000000e+00  -2.1199782596078536e-05 6.6023343959588267e-06 0.0000000000000000e+00  -3.0153103929016778e-05 7.9223411121545238e-06 0.0000000000000000e+00  0.0000000000000000e+00 0.0000000000000000e+00 0.0000000000000000e+00  -9.8744295813328724e-08 8.6297982956603088e-08 0.0000000000000000e+00  -2.0231048203030675e-07 1.7565945650426800e-07 0.0000000000000000e+00  -3.1590044064004337e-07 2.7124066228172237e-07 0.0000000000000000e+00  -4.4552918999704425e-07 3.7637894843279300e-07 0.0000000000000000e+00  -5.9859679280498823e-07 4.9468478448196913e-07 0.0000000000000000e+00  -7.8471529795834937e-07 6.3013114727517445e-07 0.0000000000000000e+00  -1.0170027671320473e-06 7.8712689075034771e-07 0.0000000000000000e+00  -1.3142576830638392e-06 9.7053206804689337e-07 0.0000000000000000e+00  -1.7048913261344388e-06 1.1854906862325370e-06 0.0000000000000000e+00  -2.2346544570093197e-06 1.4367140975193139e-06 0.0000000000000000e+00  -2.9833515568406909e-06 1.7261098829472280e-06 0.0000000000000000e+00  -4.1051466134709184e-06 2.0452839555318724e-06 0.0000000000000000e+00  -5.9376512523011750e-06 2.3513914559086470e-06 0.0000000000000000e+00  -9.3324087881318965e-06 2.4856990944972529e-06 0.0000000000000000e+00  -1.6761085578438139e-05 1.8830864217403189e-06 0.0000000000000000e+00  -3.6309902140686726e-05 -1.5181813999130074e-06 0.0000000000000000e+00  0.0000000000000000e+00 0.0000000000000000e+00 0.0000000000000000e+00  0.0000000000000000e+00 0.0000000000000000e+00 0.0000000000000000e+00  0.0000000000000000e+00 0.0000000000000000e+00 0.0000000000000000e+00  0.0000000000000000e+00 0.0000000000000000e+00 0.0000000000000000e+00  0.0000000000000000e+00 0.0000000000000000e+00 0.0000000000000000e+00  0.0000000000000000e+00 0.0000000000000000e+00 0.0000000000000000e+00  0.0000000000000000e+00 0.0000000000000000e+00 0.0000000000000000e+00  0.0000000000000000e+00 0.0000000000000000e+00 0.0000000000000000e+00  0.0000000000000000e+00 0.0000000000000000e+00 0.000