<?xml version="1.0"?>
<VTKFile type="UnstructuredGrid"  version="0.1"  >
<UnstructuredGrid>
<Piece  NumberOfPoints="289" NumberOfCells="512">
<Points>
<DataArray  type="Float64"  NumberOfComponents="3"  format="ascii">0 0 0  0.0625 0 0  0.125 0 0  0.1875 0 0  0.25 0 0  0.3125 0 0  0.375 0 0  0.4375 0 0  0.5 0 0  0.5625 0 0  0.625 0 0  0.6875 0 0  0.75 0 0  0.8125 0 0  0.875 0 0  0.9375 0 0  1 0 0  0 0.0625 0  0.0624997332617277 0.06250056889666804 0  0.1249994586753626 0.0625011621156616 0  0.1874991682691665 0.06250180549025383 0  0.2499988540633651 0.0625025280703787 0  0.3124985081224313 0.06250336435634009 0  0.374998122686677 0.06250435752030253 0  0.437497690414615 0.06250556448142007 0  0.4999972047740948 0.06250706455642265 0  0.5624966606351421 0.06250897537704748 0  0.624996055156179 0.06251148463861422 0  0.6874953891492099 0.06251491936750272 0  0.7499946692753356 0.06251991313445306 0  0.8124939113223497 0.06252785709449513 0  0.8749931415011937 0.06254226409304685 0  0.9374923676095518 0.06257336789618373 0  0.9999913426049747 0.06265517856974173 0  0 0.125 0  0.06249947438264099 0.1250011133791172 0  0.1249989330681721 0.1250022738932759 0  0.1874983601009229 0.125003531474062 0  0.2499977394573469 0.1250049419675502 0  0.3124970551231816 0.1250065711239962 0  0.3749962913265759 0.125008500169055 0  0.4374954329880684 0.1250108342224985 0  0.4999944664562693 0.1250137158913253 0  0.5624933806136843 0.1250173485111694 0  0.6249921684856056 0.125022037906217 0  0.6874908296631401 0.1250282704280625 0  0.7499893745433623 0.1250368614955311 0  0.812487834256117 0.1250492290450336 0  0.8749862929499462 0.1250678036874632 0  0.9374850201344641 0.1250960261320285 0  0.9999850862499878 0.1251336701551225 0  0 0.1875 0  0.06249923131242169 0.1875016106214535 0  0.1249984391145128 0.1875032884074956 0  0.1874975994798488 0.1875051042292841 0  0.2499966882535843 0.1875071367199069 0  0.3124956811005836 0.1875094772810748 0  0.3749945537814708 0.1875122367335301 0  0.4374932827460908 0.1875155547461144 0  0.4999918461380395 0.1875196138895484 0  0.5624902252957865 0.1875246613255136 0  0.6249884067986486 0.1875310428301105 0  0.6874863849841829 0.1875392554809439 0  0.7499841644091773 0.1875500235510653 0  0.8124817597007497 0.1875643842347381 0  0.8749791802907696 0.1875836987968786 0  0.937476336506692 0.1876093210235152 0  0.9999725357379698 0.1876416075962335 0  0 0.25 0  0.06249901193630023 0.250002040584802 0  0.1249979926721324 0.250004164678435 0  0.1874969103984338 0.2500064599881499 0  0.2499957327714113 0.2500090229087027 0  0.3124944268517921 0.2500119638173738 0  0.3749929593371855 0.2500154136653835 0  0.4374912972110576 0.2500195325679176 0  0.4999894089406212 0.2500245213067089 0  0.5624872663413338 0.2500306367757679 0  0.6249848471578261 0.2500382119775647 0  0.6874821382361985 0.2500476789395955 0  0.7499791387960419 0.2500595856741543 0  0.8124758627535161 0.2500745793283527 0  0.8749723395750799 0.2500932874477164 0  0.9374686259379139 0.2501159718180498 0  0.9999649425113121 0.2501418264441672 0  0 0.3125 0  0.06249882397744209 0.3125023869212512 0  0.1249976093474021 0.3125048695210113 0  0.1874963166536636 0.3125075478034114 0  0.2499949054150447 0.3125105306119794 0  0.3124933338495274 0.3125139406843581 0  0.3749915589426966 0.312517920480295 0  0.4374895370261845 0.3125226390173968 0  0.4999872250618055 0.312528299794478 0  0.5624845828355765 0.3125351494005891 0  0.6249815762194292 0.3125434851567303 0  0.6874781815095304 0.3125536572453856 0  0.749974390557412 0.3125660548100412 0  0.8124702160177584 0.3125810549536547 0  0.8749656957988994 0.3125988998725973 0  0.9374608952976115 0.3126194636711092 0  0.9999558916652085 0.3126419135532528 0  0 0.375 0  0.06249867483122006 0.3750026374638779 0  0.1249973041816705 0.3750053784712231 0  0.1874958414235576 0.3750083307626099 0  0.2499942382047843 0.3750116105584252 0  0.312492443826031 0.3750153471062385 0  0.3749904049830613 0.3750196875093242 0  0.4374880660855247 0.3750248017281316 0  0.4999853704339505 0.3750308873303794 0  0.5624822626008336 0.3750381729311218 0  0.6249786923816161 0.3750469180628165 0  0.6874746205926874 0.3750574051165063 0  0.7499700267175282 0.3750699157924153 0  0.8124649179042449 0.375084680875659 0  0.8749593382391969 0.3751017916776164 0  0.9374533770696841 0.3751210743770769 0  0.9999471773819472 0.375141976167123 0  0 0.4375 0  0.06249857131455914 0.4375027843564567 0  0.1249970911600066 0.4375056759372661 0  0.1874955065603234 0.4375087858983256 0  0.2499937619052117 0.4375122332728165 0  0.3124917978288473 0.4375161489681799 0  0.3749895504183317 0.4375206797021084 0  0.4374869509979584 0.4375259915941979 0  0.4999839268642364 0.4375322728054039 0  0.5624804035035686 0.4375397340817296 0  0.624976308971493 0.4375486052410415 0  0.6874715811551783 0.4375591245438978 0  0.749966178404219 0.4375715167633707 0  0.8124600932615321 0.4375859554668908 0  0.874953367616373 0.4376025074373502 0  0.9374461059173447 0.4376210650904713 0  0.9999384826267209 0.4376412868796821 0  0 0.5 0  0.06249851932077403 0.5000028239312619 0  0.1249969825179279 0.5000057548378168 0  0.1874953315502043 0.5000089033183575 0  0.2499935046586112 0.5000123872054837 0  0.312491434593564 0.5000163351094143 0  0.3749890470468537 0.5000208897435562 0  0.4374862595334385 0.5000262107140678 0  0.499982981164223 0.500032476195052 0  0.5624791140378905 0.5000398825459093 0  0.624974557344571 0.5000486404936689 0  0.6874692156161151 0.5000589661526781 0  0.7499630125870757 0.5000710652444184 0  0.812455911257318 0.5000851099809301 0  0.8749479381490938 0.5001012105335765 0  0.9374392051141587 0.5001193852622893 0  0.9999299176629903 0.500139528262843 0  0 0.5625 0  0.06249852338264857 0.5625027564526079 0  0.1249969878448421 0.562505615996467 0  0.1874953321197345 0.5625086850489444 0  0.2499934900582699 0.5625120766820247 0  0.3124913880828845 0.5625159138620257 0  0.3749889426012312 0.562520332481156 0  0.4374860575513709 0.5625254839226078 0  0.4999826224968631 0.562531536716022 0  0.5624785121190841 0.5625386766101643 0  0.6249735886339262 0.5625471041878033 0  0.6874677095836103 0.5625570291846731 0  0.7499607443292473 0.5625686614041319 0  0.8124526023965954 0.5625822002640106 0  0.874943273381265 0.5625978290758291 0  0.9374328682935911 0.5626157244462365 0  0.9999216361528318 0.5626360880595744 0  0 0.625 0  0.06249858616544424 0.6250025858192284 0  0.1249971130208632 0.6250052674950467 0  0.1874955185235506 0.6250081439341165 0  0.2499937346627351 0.6250113201916428 0  0.31249168410133 0.6250149105369975 0  0.3749892764024332 0.6250190414478003 0  0.4374864038261624 0.6250238543921248 0  0.4999829369132847 0.6250295081365462 0  0.5624787205742537 0.6250361801491829 0  0.6249735724020096 0.6250440664846341 0  0.6874672867169077 0.6250533795023837 0  0.7499596505594676 0.6250643434062486 0  0.812450480596021 0.6250771902672527 0  0.8749396887545813 0.6250921665743076 0  0.9374273693106053 0.6251095744411251 0  0.9999138568226941 0.6251298795660333 0  0 0.6875 0  0.06249870793705724 0.6875023192774198 0  0.124997359077879 0.6875047240914485 0  0.1874958936366146 0.6875073027490948 0  0.2499942450758936 0.6875101492064288 0  0.3124923360463841 0.687513366019651 0  0.3749900734412082 0.6875170674398735 0  0.4374873422327882 0.6875213826723275 0  0.4999839978394373 0.6875264592652696 0  0.5624798571205375 0.687532466452899 0  0.6249746891270187 0.6875395979499671 0  0.6874682092571159 0.6875480730540816 0  0.7499600858613557 0.6875581340638081 0  0.8124499779327631 0.6875700385206912 0  0.8749376338026656 0.6875840534788429 0  0.937423074886495 0.6876004959075678 0  0.9999068065315972 0.6876199575310977 0  0 0.75 0  0.06249888609165039 0.7500019671538898 0  0.1249977211415761 0.7500040067116948 0  0.1874964510911873 0.750006193518267 0  0.2499950149071272 0.7500086074623056 0  0.3124933401354997 0.750011336269071 0  0.374991337113771 0.750014478672531 0  0.4374888910999811 0.750018148183232 0  0.4999858513305167 0.7500224777299621 0  0.5624820158204489 0.7500276254394733 0  0.6249771109674509 0.7500337814726149 0  0.6874707669090404 0.7500411744645931 0  0.7499624963105617 0.7500500721883041 0  0.8124517030925011 0.7500607624250687 0  0.874937790170852 0.7500734897862326 0  0.9374204990077559 0.7500883546877575 0  0.9999005861730494 0.7501054703024186 0  0 0.8125 0  0.06249911482843073 0.8125015425822328 0  0.1249981876739728 0.8125031419500239 0  0.1874971738261615 0.8125048569012525 0  0.2499960221637772 0.8125067504468605 0  0.3124946708638496 0.8125088922850474 0  0.3749930415024508 0.8125113618314719 0  0.4374910304535741 0.8125142522139909 0  0.4999884958124631 0.81251767589852 0  0.5624852369392527 0.8125217729823884 0  0.6249809620124914 0.8125267235175568 0  0.687475237095403 0.8125327646488366 0  0.7499674110805942 0.812540208439559 0  0.812456527111292 0.8125494351784096 0  0.8749413061552835 0.8125607646312248 0  0.9374205343142396 0.8125739096105526 0  0.9998946703542336 0.812586441705672 0  0 0.875 0  0.06249938509703304 0.8750010611760535 0  0.1249987402693718 0.8750021614647585 0  0.1874980335077511 0.8750033414314581 0  0.2499972278483539 0.8750046447169459 0  0.3124962779295224 0.875006119937165 0  0.3749951250575306 0.8750078231595162 0  0.4374936896189606 0.8750098214534799 0  0.4999918587229563 0.8750121984595715 0  0.5624894650164124 0.8750150638313742 0  0.6249862485755459 0.8750185702678636 0  0.6874817852849012 0.8750229455125483 0  0.7499753478936407 0.8750285526380095 0  0.8124656370486968 0.8750359934187858 0  0.8749503136006729 0.8750462091320975 0  0.937425596512972 0.8750600545894018 0  0.9998887057904811 0.8750738889067265 0  0 0.9375 0  0.06249968490172158 0.937500540599005 0  0.1249993542265226 0.9375011011498251 0  0.1874989912658365 0.9375017023704416 0  0.2499985766036212 0.9375023666131562 0  0.3124980861898057 0.9375031189095065 0  0.3749974885063331 0.9375039883910041 0  0.4374967400573099 0.93
[...]
<PointData  Vectors="f_54"> 
<DataArray  type="Float64"  Name="f_54"  NumberOfComponents="3" format="ascii">0.0000000000000000e+00 0.0000000000000000e+00 0.0000000000000000e+00  0.0000000000000000e+00 0.0000000000000000e+00 0.0000000000000000e+00  0.0000000000000000e+00 0.0000000000000000e+00 0.0000000000000000e+00  0.0000000000000000e+00 0.0000000000000000e+00 0.0000000000000000e+00  0.0000000000000000e+00 0.0000000000000000e+00 0.0000000000000000e+00  0.0000000000000000e+00 0.0000000000000000e+00 0.0000000000000000e+00  0.0000000000000000e+00 0.0000000000000000e+00 0.0000000000000000e+00  0.0000000000000000e+00 0.0000000000000000e+00 0.0000000000000000e+00  0.0000000000000000e+00 0.0000000000000000e+00 0.0000000000000000e+00  0.0000000000000000e+00 0.0000000000000000e+00 0.0000000000000000e+00  0.0000000000000000e+00 0.0000000000000000e+00 0.0000000000000000e+00  0.0000000000000000e+00 0.0000000000000000e+00 0.0000000000000000e+00  0.0000000000000000e+00 0.0000000000000000e+00 0.0000000000000000e+00  0.0000000000000000e+00 0.0000000000000000e+00 0.0000000000000000e+00  0.0000000000000000e+00 0.0000000000000000e+00 0.0000000000000000e+00  0.0000000000000000e+00 0.0000000000000000e+00 0.0000000000000000e+00  0.0000000000000000e+00 0.0000000000000000e+00 0.0000000000000000e+00  0.0000000000000000e+00 0.0000000000000000e+00 0.0000000000000000e+00  1.1990677689557574e-07 -1.1270364706830190e-07 0.0000000000000000e+00  2.4334828683153669e-07 -2.3033295751144612e-07 0.0000000000000000e+00  3.7386236987726843e-07 -3.5812372049806684e-07 0.0000000000000000e+00  5.1498620102445052e-07 -5.0198094001044351e-07 0.0000000000000000e+00  6.7022855341823097e-07 -6.6894109137504961e-07 0.0000000000000000e+00  8.4300918790661970e-07 -8.6783591253083980e-07 0.0000000000000000e+00  1.0365549491480005e-06 -1.1103333391275480e-06 0.0000000000000000e+00  1.2537440768444454e-06 -1.4127036625209822e-06 0.0000000000000000e+00  1.4968938944557059e-06 -1.7990529624146894e-06 0.0000000000000000e+00  1.7674912323539259e-06 -2.3077284685562240e-06 0.0000000000000000e+00  2.0658627338126119e-06 -3.0051464336750065e-06 0.0000000000000000e+00  2.3907478646135121e-06 -4.0186362908397452e-06 0.0000000000000000e+00  2.7385849287787023e-06 -5.6230430086188672e-06 0.0000000000000000e+00  3.1017693188543500e-06 -8.4952952345913544e-06 0.0000000000000000e+00  3.4632981776212593e-06 -1.4545678030998311e-05 0.0000000000000000e+00  3.7793552125610208e-06 -2.9898999122806648e-05 0.0000000000000000e+00  0.0000000000000000e+00 0.0000000000000000e+00 0.0000000000000000e+00  2.3627994662265322e-07 -2.2048264417054414e-07 0.0000000000000000e+00  4.7962404244023722e-07 -4.5050435099527649e-07 0.0000000000000000e+00  7.3711375702732204e-07 -7.0017940337204939e-07 0.0000000000000000e+00  1.0158510697631542e-06 -9.8085529928672484e-07 0.0000000000000000e+00  1.3229140383735046e-06 -1.3059408243118133e-06 0.0000000000000000e+00  1.6652460176731491e-06 -1.6920579304704740e-06 0.0000000000000000e+00  2.0494563880530656e-06 -2.1607753441408396e-06 0.0000000000000000e+00  2.4815141064740843e-06 -2.7413984345047501e-06 0.0000000000000000e+00  2.9663239074701849e-06 -3.4757304601747954e-06 0.0000000000000000e+00  3.5071903727280166e-06 -4.4266300095421426e-06 0.0000000000000000e+00  4.1051965545256603e-06 -5.6940640508354033e-06 0.0000000000000000e+00  4.7585417985322209e-06 -7.4460186029986305e-06 0.0000000000000000e+00  5.4618607067939381e-06 -9.9773187821900182e-06 0.0000000000000000e+00  6.2053464699604994e-06 -1.3808933664858264e-05 0.0000000000000000e+00  6.9725691253957648e-06 -1.9769047454838822e-05 0.0000000000000000e+00  7.7315329511034907e-06 -2.8468360980604020e-05 0.0000000000000000e+00  0.0000000000000000e+00 0.0000000000000000e+00 0.0000000000000000e+00  3.4559195085523688e-07 -3.1872520370507675e-07 0.0000000000000000e+00  7.0175611919462674e-07 -6.5102385922055799e-07 0.0000000000000000e+00  1.0791182961906134e-06 -1.0112341758460628e-06 0.0000000000000000e+00  1.4883896193630065e-06 -1.4153178014389917e-06 0.0000000000000000e+00  1.9403281682012783e-06 -1.8819035439886310e-06 0.0000000000000000e+00  2.4456001888032017e-06 -2.4336693032458460e-06 0.0000000000000000e+00  3.0145042141593717e-06 -3.0992935993287757e-06 0.0000000000000000e+00  3.6565241614461525e-06 -3.9163535606736965e-06 0.0000000000000000e+00  4.3796890686473004e-06 -4.9357880665059547e-06 0.0000000000000000e+00  5.1897445592577623e-06 -6.2289050830626437e-06 0.0000000000000000e+00  6.0891959230523532e-06 -7.8982905411324630e-06 0.0000000000000000e+00  7.0763902543038427e-06 -1.0093714203138285e-05 0.0000000000000000e+00  8.1450478263674874e-06 -1.3030547546477926e-05 0.0000000000000000e+00  9.2853649001342617e-06 -1.6992507593737349e-05 0.0000000000000000e+00  1.0490462243590804e-05 -2.2250696591899548e-05 0.0000000000000000e+00  1.1783301737352630e-05 -2.8731620256727225e-05 0.0000000000000000e+00  0.0000000000000000e+00 0.0000000000000000e+00 0.0000000000000000e+00  4.4433605120375175e-07 -4.0339792812255876e-07 0.0000000000000000e+00  9.0269348756377914e-07 -8.2363410373867062e-07 0.0000000000000000e+00  1.3892158701222783e-06 -1.2784164347721008e-06 0.0000000000000000e+00  1.9182618446025132e-06 -1.7872767131009004e-06 0.0000000000000000e+00  2.5044082877796521e-06 -2.3726814101717409e-06 0.0000000000000000e+00  3.1623203197682711e-06 -3.0614121644591275e-06 0.0000000000000000e+00  3.9064328247124047e-06 -3.8863581652322754e-06 0.0000000000000000e+00  4.7503855865896326e-06 -4.8889031697291004e-06 0.0000000000000000e+00  5.7061617212050811e-06 -6.1221107081972084e-06 0.0000000000000000e+00  6.7829070147544524e-06 -7.6548223726098834e-06 0.0000000000000000e+00  7.9854704747872590e-06 -9.5763240825170154e-06 0.0000000000000000e+00  9.3128208835344376e-06 -1.1999727851556403e-05 0.0000000000000000e+00  1.0756667418058093e-05 -1.5058173639226704e-05 0.0000000000000000e+00  1.2300761975961708e-05 -1.8879068299376002e-05 0.0000000000000000e+00  1.3920836556230537e-05 -2.3508459352582714e-05 0.0000000000000000e+00  1.5579952349451549e-05 -2.8763586118353168e-05 0.0000000000000000e+00  0.0000000000000000e+00 0.0000000000000000e+00 0.0000000000000000e+00  5.2906369706493944e-07 -4.7123624848299769e-07 0.0000000000000000e+00  1.0754698455317138e-06 -9.6170076314347674e-07 0.0000000000000000e+00  1.6567927204355670e-06 -1.4915216428188102e-06 0.0000000000000000e+00  2.2910352920174585e-06 -2.0826897397325100e-06 0.0000000000000000e+00  2.9967232558618901e-06 -2.7601282766046724e-06 0.0000000000000000e+00  3.7928392475350378e-06 -3.5529295936507322e-06 0.0000000000000000e+00  4.6985197581619788e-06 -4.4958054999201632e-06 0.0000000000000000e+00  5.7324227897113035e-06 -5.6307595179342426e-06 0.0000000000000000e+00  6.9116676039192371e-06 -7.0088788654594102e-06 0.0000000000000000e+00  8.2502619016961503e-06 -8.6918682703809972e-06 0.0000000000000000e+00  9.7569852263338651e-06 -1.0752325690619635e-05 0.0000000000000000e+00  1.1432811534831225e-05 -1.3270496262037005e-05 0.0000000000000000e+00  1.3268139741856042e-05 -1.6323046226052889e-05 0.0000000000000000e+00  1.5240338165548732e-05 -1.9956711275389742e-05 0.0000000000000000e+00  1.7312388615989757e-05 -2.4139966643148464e-05 0.0000000000000000e+00  1.9434472924375873e-05 -2.8699647819043903e-05 0.0000000000000000e+00  0.0000000000000000e+00 0.0000000000000000e+00 0.0000000000000000e+00  5.9645362701362796e-07 -5.1984959759145823e-07 0.0000000000000000e+00  1.2133332211990460e-06 -1.0604130404464784e-06 0.0000000000000000e+00  1.8714525805591778e-06 -1.6432798919672938e-06 0.0000000000000000e+00  2.5923649430976705e-06 -2.2918301641142706e-06 0.0000000000000000e+00  3.3986106661112344e-06 -3.0322066778764935e-06 0.0000000000000000e+00  4.3137931907664905e-06 -3.8943615277054660e-06 0.0000000000000000e+00  5.3623834234326740e-06 -4.9131560193728551e-06 0.0000000000000000e+00  6.5691187229167423e-06 -6.1294201863523965e-06 0.0000000000000000e+00  7.9578288450204209e-06 -7.5907293580565843e-06 0.0000000000000000e+00  9.5495023679984930e-06 -9.3513734781818771e-06 0.0000000000000000e+00  1.1359429983104241e-05 -1.1470506467105890e-05 0.0000000000000000e+00  1.3393363592580213e-05 -1.4006732171995224e-05 0.0000000000000000e+00  1.5642848765157360e-05 -1.7006599116575662e-05 0.0000000000000000e+00  1.8080221448158333e-05 -2.0484514513916223e-05 0.0000000000000000e+00  2.0654110693309078e-05 -2.4394780574392548e-05 0.0000000000000000e+00  2.3286375939737562e-05 -2.8606809816149011e-05 0.0000000000000000e+00  0.0000000000000000e+00 0.0000000000000000e+00 0.0000000000000000e+00  6.4342132074874134e-07 -5.4775118608899471e-07 0.0000000000000000e+00  1.3099595561926517e-06 -1.1168226658674795e-06 0.0000000000000000e+00  2.0233211265767989e-06 -1.7293537325414175e-06 0.0000000000000000e+00  2.8083618358144377e-06 -2.4091409231778801e-06 0.0000000000000000e+00  3.6915608096304640e-06 -3.1824998116689937e-06 0.0000000000000000e+00  4.7013381486890318e-06 -4.0791417748637057e-06 0.0000000000000000e+00  5.8681007050813907e-06 -5.1330173654208433e-06 0.0000000000000000e+00  7.2238402252937983e-06 -6.3830056062171876e-06 0.0000000000000000e+00  8.8010321811691989e-06 -7.8731995176749651e-06 0.0000000000000000e+00  1.0630505223265697e-05 -9.6523239400918276e-06 0.0000000000000000e+00  1.2737905304429815e-05 -1.1771502719382827e-05 0.0000000000000000e+00  1.5138432926728393e-05 -1.4279205770860336e-05 0.0000000000000000e+00  1.7829784505112892e-05 -1.7211955825785513e-05 0.0000000000000000e+00  2.0783756077205473e-05 -2.0579805572620950e-05 0.0000000000000000e+00  2.3937672835958011e-05 -2.4347680249093446e-05 0.0000000000000000e+00  2.7187151667917502e-05 -2.8418145050355327e-05 0.0000000000000000e+00  0.0000000000000000e+00 0.0000000000000000e+00 0.0000000000000000e+00  6.6727412940053013e-07 -5.5433290110446421e-07 0.0000000000000000e+00  1.3597635418033344e-06 -1.1297718037653956e-06 0.0000000000000000e+00  2.1035104505951964e-06 -1.7481688125608610e-06 0.0000000000000000e+00  2.9261992610611784e-06 -2.4328749321392511e-06 0.0000000000000000e+00  3.8579302874868875e-06 -3.2095013640514757e-06 0.0000000000000000e+00  4.9318947623994214e-06 -4.1066749087349189e-06 0.0000000000000000e+00  6.1848378951679933e-06 -5.1567454393203871e-06 0.0000000000000000e+00  7.6571080430681899e-06 -6.3963546911604513e-06 0.0000000000000000e+00  9.3919587328511705e-06 -7.8666948336295511e-06 0.0000000000000000e+00  1.1433597281673970e-05 -9.6131581139806919e-06 0.0000000000000000e+00  1.3823291193519851e-05 -1.1683892114321550e-05 0.0000000000000000e+00  1.6592751729568323e-05 -1.4126529269558927e-05 0.0000000000000000e+00  1.9754223936872224e-05 -1.6982095952007357e-05 0.0000000000000000e+00  2.3287530831328444e-05 -2.0274957320969160e-05 0.0000000000000000e+00  2.7125920298986298e-05 -2.3997903326792359e-05 0.0000000000000000e+00  3.1144380243105928e-05 -2.8092601623934554e-05 0.0000000000000000e+00  0.0000000000000000e+00 0.0000000000000000e+00 0.0000000000000000e+00  6.6591150421311059e-07 -5.3980717839729995e-07 0.0000000000000000e+00  1.3583087734406472e-06 -1.0997601015775715e-06 0.0000000000000000e+00  2.1047554697412236e-06 -1.7006703397856950e-06 0.0000000000000000e+00  2.9349908422120457e-06 -2.3646818101235002e-06 0.0000000000000000e+00  3.8820614436926744e-06 -3.1159455928049793e-06 0.0000000000000000e+00  4.9834668199576832e-06 -3.9812959752636117e-06 0.0000000000000000e+00  6.2822419319516241e-06 -4.9909127729302252e-06 0.0000000000000000e+00  7.8277908425942464e-06 -6.1789411905765024e-06 0.0000000000000000e+00  9.6760984772948630e-06 -7.5840223180937094e-06 0.0000000000000000e+00  1.1888647513894235e-05 -9.2496604695467015e-06 0.0000000000000000e+00  1.4528947655015694e-05 -1.1224298660917244e-05 0.0000000000000000e+00  1.7655135495327655e-05 -1.3560826469510141e-05 0.0000000000000000e+00  2.1306963557894171e-05 -1.6314836406834113e-05 0.0000000000000000e+00  2.5486433467715545e-05 -1.9539930924777410e-05 0.0000000000000000e+00  3.0134392822241911e-05 -2.3276322813193252e-05 0.0000000000000000e+00  3.5110377779884606e-05 -2.7526140839508771e-05 0.0000000000000000e+00  0.0000000000000000e+00 0.0000000000000000e+00 0.0000000000000000e+00  6.3806060768888683e-07 -5.0513250221609599e-07 0.0000000000000000e+00  1.3028008778773721e-06 -1.0287866068326153e-06 0.0000000000000000e+00  2.0222068418122585e-06 -1.5900644834089624e-06 0.0000000000000000e+00  2.8269408078105715e-06 -2.2092278882005502e-06 0.0000000000000000e+00  3.7518499006504362e-06 -2.9082913889386818e-06 0.0000000000000000e+00  4.8376597531393287e-06 -3.7116339718920937e-06 0.0000000000000000e+00  6.1328619196364468e-06 -4.6466449279559492e-06 0.0000000000000000e+00  7.6957055389806611e-06 -5.7444417196813845e-06 0.0000000000000000e+00  9.5959921759054166e-06 -7.0407463364836030e-06 0.0000000000000000e+00  1.1915954190806901e-05 -8.5770994253034474e-06 0.0000000000000000e+00  1.4748748940529274e-05 -1.0402732577426838e-05 0.0000000000000000e+00  1.8191955843977335e-05 -1.2577539829133189e-05 0.0000000000000000e+00  2.2332207419590627e-05 -1.5176381062477539e-05 0.0000000000000000e+00  2.7217088619949565e-05 -1.8293509700142047e-05 0.0000000000000000e+00  3.2815200524366633e-05 -2.2041274395816752e-05 0.0000000000000000e+00  3.8979511833024518e-05 -2.6526556746213144e-05 0.0000000000000000e+00  0.0000000000000000e+00 0.0000000000000000e+00 0.0000000000000000e+00  5.8352536702801753e-07 -4.5193157798116332e-07 0.0000000000000000e+00  1.1926213075673763e-06 -9.2018345092495235e-07 0.0000000000000000e+00  1.8543227899757664e-06 -1.4215655648880661e-06 0.0000000000000000e+00  2.5987065307523664e-06 -1.9738640300769153e-06 0.0000000000000000e+00  3.4607264904751871e-06 -2.5963449369575258e-06 0.0000000000000000e+00  4.4824470743045871e-06 -3.3102855884771355e-06 0.0000000000000000e+00  5.7158251736076099e-06 -4.1395662083981220e-06 0.0000000000000000e+00  7.2261611887607040e-06 -5.1113992869685788e-06 0.0000000000000000e+00  9.0961971370469150e-06 -6.2573725666935474e-06 0.0000000000000000e+00  1.1430424983993656e-05 -7.6151898523742170e-06 0.0000000000000000e+00  1.4358159561464177e-05 -9.2318997978039288e-06 0.0000000000000000e+00  1.8031801764092428e-05 -1.1170100048384020e-05 0.0000000000000000e+00  2.2612974879627223e-05 -1.3519498426459929e-05 0.0000000000000000e+00  2.8234788416540198e-05 -1.6416316326028051e-05 0.0000000000000000e+00  3.4930242340105292e-05 -2.0068635953094319e-05 0.0000000000000000e+00  4.2546250975536532e-05 -2.4768191150345590e-05 0.0000000000000000e+00  0.0000000000000000e+00 0.0000000000000000e+00 0.0000000000000000e+00  5.0341323107792994e-07 -3.8240480831250005e-07 0.0000000000000000e+00  1.0298284614592925e-06 -7.7844327544323423e-07 0.0000000000000000e+00  1.6037471041747691e-06 -1.2021418900282683e-06 0.0000000000000000e+00  2.2528246151836345e-06 -1.6683070337042270e-06 0.0000000000000000e+00  3.0098884422332784e-06 -2.1929247130292717e-06 0.0000000000000000e+00  3.9155596505794410e-06 -2.7935783001376664e-06 0.0000000000000000e+00  5.0218095934665291e-06 -3.4899088249361718e-06 0.0000000000000000e+00  6.3968925092291423e-06 -4.3041796969075325e-06 0.0000000000000000e+00  8.1321844149616639e-06 -5.2621020279271104e-06 0.0000000000000000e+00  1.0351368265690125e-05 -6.3943119203033546e-06 0.0000000000000000e+00  1.3221661817823310e-05 -7.7394686444269609e-06 0.0000000000000000e+00  1.6964165883435805e-05 -9.3513111245983380e-06 0.0000000000000000e+00  2.1853249389306449e-05 -1.1314996187576337e-05 0.0000000000000000e+00  2.8179151090493069e-05 -1.3783386361698909e-05 0.0000000000000000e+00  3.6125225768884670e-05 -1.7048559842917610e-05 0.0000000000000000e+00  4.5523509272203982e-05 -2.1646840276208801e-05 0.0000000000000000e+00  0.0000000000000000e+00 0.0000000000000000e+00 0.0000000000000000e+00  4.0029196112336480e-07 -2.9923857549577838e-07 0.0000000000000000e+00  8.1952355048412383e-07 -6.0903592424195252e-07 0.0000000000000000e+00  1.2780020478518807e-06 -9.4024303805135599e-07 0.0000000000000000e+00  1.7989434512639600e-06 -1.3042865658741202e-06 0.0000000000000000e+00  2.4104267827684543e-06 -1.7134542990336339e-06 0.0000000000000000e+00  3.1480727755444787e-06 -2.1811748043997678e-06 0.0000000000000000e+00  4.0589343538315642e-06 -2.7222843050610430e-06 0.0000000000000000e+00  5.2073806482618115e-06 -3.3532704083872715e-06 0.0000000000000000e+00  6.6842373029756290e-06 -4.0924880502649628e-06 0.0000000000000000e+00  8.6211535411259746e-06 -4.9604037060170470e-06 0.0000000000000000e+00  1.1212910785371130e-05 -5.9802245079778826e-06 0.0000000000000000e+00  1.4749946070052655e-05 -7.1804826710481653e-06 0.0000000000000000e+00  1.9656810785136494e-05 -8.6054861921369753e-06 0.0000000000000000e+00  2.6503653537906538e-05 -1.0353241092327999e-05 0.0000000000000000e+00  3.5868516009187849e-05 -1.2694885959932476e-05 0.0000000000000000e+00  4.7763168783957164e-05 -1.6361007803278333e-05 0.0000000000000000e+00  0.0000000000000000e+00 0.0000000000000000e+00 0.0000000000000000e+00  2.7822410823129620e-07 -2.0550819053457191e-07 0.0000000000000000e+00  5.6996317282082635e-07 -4.1821220094456908e-07 0.0000000000000000e+00  8.8978348771882833e-07 -6.4549954521238498e-07 0.0000000000000000e+00  1.2545069556992866e-06 -8.9513137919881284e-07 0.0000000000000000e+00  1.6847850361482541e-06 -1.1754172455883162e-06 0.0000000000000000e+00  2.2073470105556469e-06 -1.4953634152709687e-06 0.0000000000000000e+00  2.8584424410890640e-06 -1.8647566091959820e-06 0.0000000000000000e+00  3.6894137666312182e-06 -2.2940910848527187e-06 0.0000000000000000e+00  4.7761676110663630e-06 -2.7941185722702671e-06 0.0000000000000000e+00  6.2360096792587738e-06 -3.3745014510396423e-06 0.0000000000000000e+00  8.2587642857122916e-06 -4.0403991963821029e-06 0.0000000000000000e+00  1.1165765083847871e-05 -4.7846619867283103e-06 0.0000000000000000e+00  1.5520334637817691e-05 -5.5727744250734946e-06 0.0000000000000000e+00  2.2310375794386113e-05 -6.3283915428772308e-06 0.0000000000000000e+00  3.3082417972387650e-05 -7.0156574646130048e-06 0.0000000000000000e+00  4.8883241601913009e-05 -8.4523666679670610e-06 0.0000000000000000e+00  0.0000000000000000e+00 0.0000000000000000e+00 0.0000000000000000e+00  1.4263550881294956e-07 -1.0457764761277838e-07 0.0000000000000000e+00  2.9231408879391832e-07 -2.1279957108487006e-07 0.0000000000000000e+00  4.5665212564433906e-07 -3.2840437059671690e-07 0.0000000000000000e+00  6.4450306651989541e-07 -4.5531269032003518e-07 0.0000000000000000e+00  8.6684192695916290e-07 -5.9770708380405860e-07 0.0000000000000000e+00  1.1380630965087815e-06 -7.6008719203156633e-07 0.0000000000000000e+00  1.4780385387350411e-06 -9.4726216817495678e-07 0.0000000000000000e+00  1.9156098315061548e-06 -1.1641813417513349e-06 0.0000000000000000e+00  2.4949244651802416e-06 -1.4153371275378813e-06 0.0000000000000000e+00  3.2878151583315056e-06 -1.7029956372813034e-06 0.0000000000000000e+00  4.4201391324574472e-06 -2.0220623287985075e-06 0.0000000000000000e+00  6.1336146879082332e-06 -2.3447269670225347e-06 0.0000000000000000e+00  8.9477502858982235e-06 -2.5719902306561118e-06 0.0000000000000000e+00  1.4134776055028539e-05 -2.3702624444365275e-06 0.0000000000000000e+00  2.5271371083858959e-05 -5.8162219156898263e-07 0.0000000000000000e+00  5.3800583179162120e-05 7.0419474637388950e-06 0.0000000000000000e+00  0.0000000000000000e+00 0.0000000000000000e+00 0.0000000000000000e+00  0.0000000000000000e+00 0.0000000000000000e+00 0.0000000000000000e+00  0.0000000000000000e+00 0.0000000000000000e+00 0.0000000000000000e+00  0.0000000000000000e+00 0.0000000000000000e+00 0.0000000000000000e+00  0.0000000000000000e+00 0.0000000000000000e+00 0.0000000000000000e+00  0.0000000000000000e+00 0.0000000000000000e+00 0.0000000000000000e+00  0.0000000000000000e+00 0.0000000000000000e+00 0.0000000000000000e+00  0.0000000000000000e+00 0.0000000000000000e+00 0.0000000000000000e+00  0.0000000000000000e+00 0.0000000000000000e+00 0.00000