<?xml version="1.0"?>
<VTKFile type="UnstructuredGrid"  version="0.1"  >
<UnstructuredGrid>
<Piece  NumberOfPoints="289" NumberOfCells="512">
<Points>
<DataArray  type="Float64"  NumberOfComponents="3"  format="ascii">0 0 0  0.0625 0 0  0.125 0 0  0.1875 0 0  0.25 0 0  0.3125 0 0  0.375 0 0  0.4375 0 0  0.5 0 0  0.5625 0 0  0.625 0 0  0.6875 0 0  0.75 0 0  0.8125 0 0  0.875 0 0  0.9375 0 0  1 0 0  0 0.0625 0  0.06249809810227329 0.06250197210193742 0  0.1249961404756733 0.06250402690252976 0  0.187494071044685 0.06250625197205312 0  0.2499918337849909 0.06250874534388071 0  0.312489373163544 0.06251162276325908 0  0.3749866351005114 0.06251502814335011 0  0.4374835686156114 0.06251915006325225 0  0.4999801282883536 0.06252424994138157 0  0.5624762775945995 0.06253071389090717 0  0.624971993081005 0.0625391557906356 0  0.6874672692480424 0.06255064007041299 0  0.7499621241062585 0.06256721064601335 0  0.8124566062187122 0.06259328366476608 0  0.8749508075973483 0.0626397340774823 0  0.9374449023544135 0.06273720814191953 0  0.9999393313683667 0.06298366513051389 0  0 0.125 0  0.06249625215441484 0.1250038611929275 0  0.1249923928872201 0.1250078828563464 0  0.1874883099490009 0.1250122344835212 0  0.2499838908458869 0.1250171048129028 0  0.3124790235484933 0.1250227147650926 0  0.3749735982570274 0.1250293354968409 0  0.437467510571693 0.1250373157245279 0  0.4999606663641661 0.1250471259946798 0  0.5624529885140506 0.1250594347316138 0  0.624944425435599 0.1250752456265397 0  0.6874349609845498 0.1250961562512941 0  0.7499246250458135 0.1251248570415666 0  0.8124135044458324 0.1251660824360621 0  0.874901756944335 0.1252282231703126 0  0.9373896446865371 0.1253246848923905 0  0.9998776609909278 0.1254656688649735 0  0 0.1875 0  0.0624945181173558 0.1875055894995026 0  0.1249888693766518 0.1875114081603814 0  0.1874828853393365 0.1875176971251423 0  0.2499763963327932 0.1875247228227779 0  0.3124692320738363 0.1875327931863054 0  0.3749612238942054 0.1875422791332758 0  0.4374522091508835 0.1875536450092249 0  0.4999420383651106 0.1875674940853887 0  0.5624305854677347 0.1875846391857754 0  0.6249177611443015 0.1876062144902796 0  0.6874035285429055 0.1876338510155186 0  0.7498879192719158 0.1876699350037884 0  0.8123710447564492 0.1877179136426161 0  0.8748530895354062 0.187782368677653 0  0.9373342399486247 0.187867803306299 0  0.9998143533192362 0.1879735677529898 0  0 0.25 0  0.06249295161917962 0.250007088326633 0  0.1249856817671988 0.2500144624643304 0  0.1874779662304456 0.2500224218517222 0  0.2499695775379318 0.2500312943157491 0  0.3124602849424413 0.2500414532184471 0  0.3749498565320253 0.2500533386497759 0  0.4374380643511031 0.2500674848829164 0  0.4999246934535315 0.2500845570101284 0  0.5624095557012997 0.250105400112826 0  0.6248925087200915 0.2501311030792345 0  0.6873734795539794 0.2501630721084662 0  0.7498524910956157 0.2502030852281495 0  0.8123296875130911 0.2502532347881167 0  0.874805354559602 0.2503155212887573 0  0.9372799426037222 0.2503906396433391 0  0.9997541833215089 0.2504755265183789 0  0 0.3125 0  0.06249160736150305 0.3125083010202401 0  0.1249829405399897 0.3125169308131372 0  0.187473720912162 0.3125262323071626 0  0.2499636632347012 0.3125365775080607 0  0.3124524742064024 0.3125483839172562 0  0.3749398535964997 0.3125621332104573 0  0.4374254991711011 0.3125783927784033 0  0.4999091168728409 0.3125978401501625 0  0.5623904377986431 0.3126212886330585 0  0.6248692432676212 0.3126497082468975 0  0.6873453983790677 0.3126842263003017 0  0.749818892620746 0.3127260719046348 0  0.8122898832314435 0.3127763932783167 0  0.8747587337733829 0.3128358317167927 0  0.9372260377136756 0.312903735341733 0  0.9996926063961973 0.3129771115842726 0  0 0.375 0  0.06249053802777416 0.3750091846159643 0  0.124980752790602 0.3750187267509916 0  0.1874703142597912 0.3750289978568955 0  0.2499588808672706 0.3750403976299646 0  0.3124460956560777 0.3750533689409019 0  0.3749315852050712 0.3750684133899747 0  0.4374149629242248 0.3750861069097114 0  0.4998958388435552 0.3751071136525925 0  0.5623738385130541 0.3751321940718274 0  0.6248486338157433 0.3751621987583986 0  0.6873199878687363 0.3751980320943245 0  0.749787814005771 0.3752405584596351 0  0.8122522443106962 0.3752904111846675 0  0.8747136960598337 0.3753476636815354 0  0.9371729159583171 0.3754113691863064 0  0.9996309756424056 0.3754791346998413 0  0 0.4375 0  0.06248979255583928 0.4375097103670021 0  0.1249792188622038 0.4375197930100839 0  0.187467902944966 0.4375306335462169 0  0.2499554507722181 0.4375426443644371 0  0.3124414428368526 0.4375562780619404 0  0.374925429294084 0.4375720404477559 0  0.4374069295230607 0.4375905019689509 0  0.4998854389372013 0.4376123051669953 0  0.5623604470395682 0.4376381636797442 0  0.6248314718332714 0.4376688450271371 0  0.6872981160539576 0.4377051248129919 0  0.7497601489240656 0.4377476947607585 0  0.8122176111643945 0.4377970041932984 0  0.8746709288726819 0.4378530216560654 0  0.9371210044285218 0.4379149330963906 0  0.9995692385468283 0.4379808541507124 0  0 0.5 0  0.06248941368758497 0.5000098635176842 0  0.1249784274390323 0.5000201006750289 0  0.1874666281147732 0.50003109777314 0  0.2499535766485728 0.5000432663910805 0  0.3124387958782998 0.5000570557633761 0  0.3749217600411806 0.5000729643720322 0  0.4374018878000465 0.5000915495874823 0  0.4998785421118253 0.5001134331874977 0  0.562351042368241 0.5001392990735282 0  0.6248186969669818 0.5001698774422483 0  0.6872808671565669 0.5002059072400598 0  0.7497370736857247 0.5002480665780331 0  0.8121871523460061 0.500296860138238 0  0.8746314466258858 0.500352454645165 0  0.9370709908315631 0.5004144569619206 0  0.9995075948120756 0.5004816260183164 0  0 0.5625 0  0.06248943480047183 0.5625096427058739 0  0.1249784490575862 0.5625196477060532 0  0.1874666053333004 0.5625303893142566 0  0.2499534317077671 0.5625422658557362 0  0.3124384039015162 0.5625557115251653 0  0.3749209272774221 0.5625712077270194 0  0.4374003200462088 0.5625892930995605 0  0.4998758008022498 0.5626105707810597 0  0.5623464866414983 0.5626357105993419 0  0.6248114130959974 0.5626654428339833 0  0.6872695940587553 0.5627005392869348 0  0.7497201471108653 0.5627417770587737 0  0.8121625110366384 0.5627898807192904 0  0.874596763384841 0.5628454368050149 0  0.9370239843517154 0.5629087602705503 0  0.9994464999341096 0.562979647441511 0  0 0.625 0  0.06248987616977221 0.6250090592765108 0  0.1249793282820221 0.6250184574405322 0  0.1874679120052103 0.6250285447647129 0  0.2499551404528493 0.6250396943955938 0  0.3124404602565705 0.6250523140609981 0  0.3749232247675685 0.6250668579512894 0  0.4374026643439018 0.6250838385630072 0  0.4998778553490181 0.6251038380305344 0  0.5623476930799587 0.6251275181432917 0  0.6248108809683456 0.6251556279638516 0  0.6872659612157126 0.6251890080840495 0  0.7497114319223518 0.6252285919275224 0  0.812146018362671 0.6252754083672487 0  0.8745691685641824 0.6253305949235325 0  0.9369817646174973 0.6253954172365038 0  0.9993867880405122 0.6254711672931402 0  0 0.6875 0  0.06249074100528197 0.6875081366327396 0  0.1249810752036169 0.6875165773241029 0  0.187470573169283 0.6875256367482093 0  0.2499587569807845 0.687535651096755 0  0.3124450710033639 0.6875469896596224 0  0.3749288463490902 0.6875600674509261 0  0.4374092566523305 0.6875753593398556 0  0.4998852633686621 0.6875934162460517 0  0.5623555512612132 0.6876148840665514 0  0.6248184618340203 0.687640526098336 0  0.6872719497474244 0.687671249990625 0  0.7497136240969164 0.6877081420070816 0  0.8121410029050066 0.6877525200060295 0  0.8745521943280681 0.6878060479266006 0  0.9369472162662017 0.687871033211613 0  0.9993297291378457 0.6879510772787932 0  0 0.75 0  0.06249201182908114 0.7500069095964811 0  0.1249836574255598 0.750014077773965 0  0.187474547440164 0.7500217726305858 0  0.2499642421317578 0.7500302817510974 0  0.3124522191518221 0.7500399232665915 0  0.3749378316401015 0.7500510587564995 0  0.4374202513111746 0.7500641090980065 0  0.4998983894506919 0.7500795748521535 0  0.5623707873138791 0.7500980633373896 0  0.6248354689505236 0.7501203248247181 0  0.6872897617977206 0.7501472993582206 0  0.7497301339875462 0.750180172251348 0  0.8121522181877803 0.7502204333884769 0  0.8745514647124388 0.7502699678943088 0  0.9369252917737919 0.750331453076991 0  0.9992775259516578 0.7504104431076798 0  0 0.8125 0  0.06249364795637272 0.8125054236365069 0  0.1249869941741344 0.8125110508274384 0  0.187479715838479 0.8125170930451703 0  0.2499714435930691 0.812523778132794 0  0.312461730276494 0.8125313600590448 0  0.3749500079834385 0.8125401309790738 0  0.4374355255672829 0.8125504372001642 0  0.4999172538943071 0.8125627015989336 0  0.5623937382459846 0.8125774564159772 0  0.624862865437092 0.8125953917767129 0  0.6873215001087275 0.8126174244750169 0  0.7497649489713643 0.8126447797346134 0  0.8121863114937458 0.8126790285731971 0  0.8745762327177181 0.8127218741602702 0  0.9369250721904606 0.812774244125131 0  0.999232729231355 0.8128353261013072 0  0 0.875 0  0.06249558492142056 0.8750037337713493 0  0.1249909544386018 0.8750076081190946 0  0.1874858769445176 0.8750117693551269 0  0.2499800847096751 0.8750163757470111 0  0.3124732486750078 0.8750216049309917 0  0.3749649423630015 0.8750276635161988 0  0.43745458649365 0.8750348005995471 0  0.4999413591237202 0.8750433282667642 0  0.5624240425506496 0.8750536547568916 0  0.62490075044131 0.8750663408619354 0  0.6873684215225195 0.8750821983886521 0  0.7498218534897994 0.8751024570674586 0  0.8122518675376023 0.8751289907123337 0  0.8746421483896238 0.8751642480416212 0  0.936966164988949 0.8752083974814185 0  0.9992000385315931 0.8752391965812408 0  0 0.9375 0  0.06249773655447105 0.9375019029747181 0  0.1249953608331576 0.9375038777739926 0  0.1874927517243589 0.9375059992493985 0  0.2499897683001557 0.9375083485975723 0  0.312486235647058 0.9375110174011914 0  0.3749819240305423 0.9375141130358601 0  0.4374765157894358 
[...]
<PointData  Vectors="f_54"> 
<DataArray  type="Float64"  Name="f_54"  NumberOfComponents="3" format="ascii">0.0000000000000000e+00 0.0000000000000000e+00 0.0000000000000000e+00  0.0000000000000000e+00 0.0000000000000000e+00 0.0000000000000000e+00  0.0000000000000000e+00 0.0000000000000000e+00 0.0000000000000000e+00  0.0000000000000000e+00 0.0000000000000000e+00 0.0000000000000000e+00  0.0000000000000000e+00 0.0000000000000000e+00 0.0000000000000000e+00  0.0000000000000000e+00 0.0000000000000000e+00 0.0000000000000000e+00  0.0000000000000000e+00 0.0000000000000000e+00 0.0000000000000000e+00  0.0000000000000000e+00 0.0000000000000000e+00 0.0000000000000000e+00  0.0000000000000000e+00 0.0000000000000000e+00 0.0000000000000000e+00  0.0000000000000000e+00 0.0000000000000000e+00 0.0000000000000000e+00  0.0000000000000000e+00 0.0000000000000000e+00 0.0000000000000000e+00  0.0000000000000000e+00 0.0000000000000000e+00 0.0000000000000000e+00  0.0000000000000000e+00 0.0000000000000000e+00 0.0000000000000000e+00  0.0000000000000000e+00 0.0000000000000000e+00 0.0000000000000000e+00  0.0000000000000000e+00 0.0000000000000000e+00 0.0000000000000000e+00  0.0000000000000000e+00 0.0000000000000000e+00 0.0000000000000000e+00  0.0000000000000000e+00 0.0000000000000000e+00 0.0000000000000000e+00  0.0000000000000000e+00 0.0000000000000000e+00 0.0000000000000000e+00  2.4009516060198988e-08 -4.3335664337521280e-09 0.0000000000000000e+00  4.8727283815529063e-08 -8.8666560268981256e-09 0.0000000000000000e+00  7.4861269821231484e-08 -1.3811299484768074e-08 0.0000000000000000e+00  1.0311953330153843e-07 -1.9406625947173797e-08 0.0000000000000000e+00  1.3420489257295745e-07 -2.5936870245849772e-08 0.0000000000000000e+00  1.6880332012341686e-07 -3.3756400243705954e-08 0.0000000000000000e+00  2.0756432704943995e-07 -4.3327789970154306e-08 0.0000000000000000e+00  2.5107240287713831e-07 -5.5284607511407761e-08 0.0000000000000000e+00  2.9981026815840692e-07 -7.0542467485214126e-08 0.0000000000000000e+00  3.5411767405722033e-07 -9.0506864873648430e-08 0.0000000000000000e+00  4.1415315892328217e-07 -1.1747710399983718e-07 0.0000000000000000e+00  4.7986279044838956e-07 -1.5543627424704730e-07 0.0000000000000000e+00  5.5089983613713541e-07 -2.1149861116371461e-07 0.0000000000000000e+00  6.2604454841830769e-07 -2.9781493190337010e-07 0.0000000000000000e+00  6.9946194468218737e-07 -4.2923191302492695e-07 0.0000000000000000e+00  7.3942974392151813e-07 -5.8411733853450283e-07 0.0000000000000000e+00  0.0000000000000000e+00 0.0000000000000000e+00 0.0000000000000000e+00  4.7310799280864966e-08 -8.4676042067722481e-09 0.0000000000000000e+00  9.6036749954424487e-08 -1.7321434934019276e-08 0.0000000000000000e+00  1.4759472018742696e-07 -2.6971175031717440e-08 0.0000000000000000e+00  2.0340597541975523e-07 -3.7877003805113816e-08 0.0000000000000000e+00  2.6488755767353743e-07 -5.0582260475006799e-08 0.0000000000000000e+00  3.3343082562123844e-07 -6.5757451574060545e-08 0.0000000000000000e+00  4.1036318847445216e-07 -8.4264690521477218e-08 0.0000000000000000e+00  4.9689029454453261e-07 -1.0725965141136790e-07 0.0000000000000000e+00  5.9401893045668862e-07 -1.3636500765547551e-07 0.0000000000000000e+00  7.0246745558855570e-07 -1.7398645777965253e-07 0.0000000000000000e+00  8.2258579521621501e-07 -2.2392991778861638e-07 0.0000000000000000e+00  9.5435031504992221e-07 -2.9270897811263874e-07 0.0000000000000000e+00  1.0976594081526815e-06 -3.9264193114780748e-07 0.0000000000000000e+00  1.2538714427307094e-06 -5.5043507527032741e-07 0.0000000000000000e+00  1.4330218151395865e-06 -8.3591952324512996e-07 0.0000000000000000e+00  1.6889505718090979e-06 -1.4767410833356171e-06 0.0000000000000000e+00  0.0000000000000000e+00 0.0000000000000000e+00 0.0000000000000000e+00  6.9198249105886436e-08 -1.2215621461282771e-08 0.0000000000000000e+00  1.4051392013473540e-07 -2.4980183529708989e-08 0.0000000000000000e+00  2.1607271733775779e-07 -3.8874411528792594e-08 0.0000000000000000e+00  2.9801756254742296e-07 -5.4546797908381529e-08 0.0000000000000000e+00  3.8850101308566874e-07 -7.2755672968528833e-08 0.0000000000000000e+00  4.8965793461252894e-07 -9.4423082235643260e-08 0.0000000000000000e+00  6.0355137239533857e-07 -1.2070847241561478e-07 0.0000000000000000e+00  7.3208532786587157e-07 -1.5311576724820491e-07 0.0000000000000000e+00  8.7688065018300160e-07 -1.9365793274969596e-07 0.0000000000000000e+00  1.0391153660817806e-06 -2.4512223311853148e-07 0.0000000000000000e+00  1.2193379999230857e-06 -3.1151051029622665e-07 0.0000000000000000e+00  1.4172630030351730e-06 -3.9876116974373258e-07 0.0000000000000000e+00  1.6314981825827897e-06 -5.1578421080525083e-07 0.0000000000000000e+00  1.8587427221686776e-06 -6.7498694162752103e-07 0.0000000000000000e+00  2.0896309401280619e-06 -8.8607094855581470e-07 0.0000000000000000e+00  2.2852682341254156e-06 -1.1061996592933068e-06 0.0000000000000000e+00  0.0000000000000000e+00 0.0000000000000000e+00 0.0000000000000000e+00  8.8970524636132282e-08 -1.5415028413619670e-08 0.0000000000000000e+00  1.8074863069361544e-07 -3.1509257201039412e-08 0.0000000000000000e+00  2.7816347431725058e-07 -4.8999035792348449e-08 0.0000000000000000e+00  3.8408705497489310e-07 -6.8679024349467262e-08 0.0000000000000000e+00  5.0143462499535922e-07 -9.1468560318965095e-08 0.0000000000000000e+00  6.3313857971336511e-07 -1.1846738438048283e-07 0.0000000000000000e+00  7.8208481959529929e-07 -1.5102496038254422e-07 0.0000000000000000e+00  9.5100001624132089e-07 -1.9082852056166059e-07 0.0000000000000000e+00  1.1422793590109005e-06 -2.4001545781822735e-07 0.0000000000000000e+00  1.3577485136111466e-06 -3.0131328644041483e-07 0.0000000000000000e+00  1.5983615464879611e-06 -3.7819595717573364e-07 0.0000000000000000e+00  1.8638475398821241e-06 -4.7498851930577357e-07 0.0000000000000000e+00  2.1523323196890339e-06 -5.9666334688027334e-07 0.0000000000000000e+00  2.4600263904776550e-06 -7.4754025424026296e-07 0.0000000000000000e+00  2.7816690353253780e-06 -9.2710149058955726e-07 0.0000000000000000e+00  3.1170919455249568e-06 -1.1227734940667683e-06 0.0000000000000000e+00  0.0000000000000000e+00 0.0000000000000000e+00 0.0000000000000000e+00  1.0593789461186842e-07 -1.7935583815431255e-08 0.0000000000000000e+00  2.1534769736132365e-07 -3.6642778359343929e-08 0.0000000000000000e+00  3.3174474073076690e-07 -5.6932987130277668e-08 0.0000000000000000e+00  4.5872953449183644e-07 -7.9700596486474881e-08 0.0000000000000000e+00  6.0000599872298521e-07 -1.0597012005998519e-07 0.0000000000000000e+00  7.5936761216563107e-07 -1.3694952346145136e-07 0.0000000000000000e+00  9.4063590002014640e-07 -1.7409002726163406e-07 0.0000000000000000e+00  1.1475327296709427e-06 -2.1914947634948392e-07 0.0000000000000000e+00  1.3834663621667595e-06 -2.7424931573356422e-07 0.0000000000000000e+00  1.6512135251603859e-06 -3.4190047032656447e-07 0.0000000000000000e+00  1.9524894454140018e-06 -4.2494380236142607e-07 0.0000000000000000e+00  2.2874192114654834e-06 -5.2629469321604778e-07 0.0000000000000000e+00  2.6539617840705204e-06 -6.4828965933270541e-07 0.0000000000000000e+00  3.0473940853351140e-06 -7.9135299008583090e-07 0.0000000000000000e+00  3.4599801736013768e-06 -9.5197537122377157e-07 0.0000000000000000e+00  3.8802217041501956e-06 -1.1219378138200546e-06 0.0000000000000000e+00  0.0000000000000000e+00 0.0000000000000000e+00 0.0000000000000000e+00  1.1943588542808348e-07 -1.9684790503352535e-08 0.0000000000000000e+00  2.4296044992068557e-07 -4.0193186745249294e-08 0.0000000000000000e+00  3.7473732053825672e-07 -6.2388967040284122e-08 0.0000000000000000e+00  5.1907712276944140e-07 -8.7219024836265229e-08 0.0000000000000000e+00  6.8048615860899749e-07 -1.1575962265524285e-07 0.0000000000000000e+00  8.6368042330139774e-07 -1.4926700678328867e-07 0.0000000000000000e+00  1.0735448199363183e-06 -1.8923059665157634e-07 0.0000000000000000e+00  1.3150106548925227e-06 -2.3742164086471035e-07 0.0000000000000000e+00  1.5928178983058275e-06 -2.9591951335304831e-07 0.0000000000000000e+00  1.9111256241823221e-06 -3.6707794625912669e-07 0.0000000000000000e+00  2.2729408744506001e-06 -4.5336033368201814e-07 0.0000000000000000e+00  2.6793631643414914e-06 -5.5692678834725438e-07 0.0000000000000000e+00  3.1287021844147460e-06 -6.7881371890206655e-07 0.0000000000000000e+00  3.6156306256037305e-06 -8.1757469685397800e-07 0.0000000000000000e+00  4.1306800648231007e-06 -9.6748552378205552e-07 0.0000000000000000e+00  4.6606076045772868e-06 -1.1168554571909368e-06 0.0000000000000000e+00  0.0000000000000000e+00 0.0000000000000000e+00 0.0000000000000000e+00  1.2884700135394970e-07 -2.0610479301998081e-08 0.0000000000000000e+00  2.6232105372446166e-07 -4.2055934479680371e-08 0.0000000000000000e+00  4.0516521380841843e-07 -6.5209913676550892e-08 0.0000000000000000e+00  5.6235137184717705e-07 -9.1025488761603685e-08 0.0000000000000000e+00  7.3917404555852000e-07 -1.2057995503454378e-07 0.0000000000000000e+00  9.4131244053870736e-07 -1.5512451407797234e-07 0.0000000000000000e+00  1.1748373794839450e-06 -1.9613795626209685e-07 0.0000000000000000e+00  1.4461276316101316e-06 -2.4537844882622111e-07 0.0000000000000000e+00  1.7616451314471605e-06 -3.0491692216803224e-07 0.0000000000000000e+00  2.1275037062672351e-06 -3.7711467987713713e-07 0.0000000000000000e+00  2.5487595794223726e-06 -4.6447116171056065e-07 0.0000000000000000e+00  3.0283710607796406e-06 -5.6921311022268835e-07 0.0000000000000000e+00  3.5658467926158105e-06 -6.9243857277532449e-07 0.0000000000000000e+00  4.1557572141688612e-06 -8.3262848430015456e-07 0.0000000000000000e+00  4.7865273570636374e-06 -9.8353449117120850e-07 0.0000000000000000e+00  5.4401761327459483e-06 -1.1320382431663937e-06 0.0000000000000000e+00  0.0000000000000000e+00 0.0000000000000000e+00 0.0000000000000000e+00  1.3363164257432266e-07 -2.0701049736256761e-08 0.0000000000000000e+00  2.7231040703535052e-07 -4.2209653002254217e-08 0.0000000000000000e+00  4.2124796273954432e-07 -6.5368278641861844e-08 0.0000000000000000e+00  5.8598347741538101e-07 -9.1091401313667421e-08 0.0000000000000000e+00  7.7253744851858588e-07 -1.2040756268652894e-07 0.0000000000000000e+00  9.8754523780726788e-07 -1.5450909815449607e-07 0.0000000000000000e+00  1.2383472551770149e-06 -1.9481220652223694e-07 0.0000000000000000e+00  1.5329947552932656e-06 -2.4302840110531737e-07 0.0000000000000000e+00  1.8801035672311425e-06 -3.0124243927300488e-07 0.0000000000000000e+00  2.2884530156557887e-06 -3.7197556324121193e-07 0.0000000000000000e+00  2.7661906840392892e-06 -4.5817480323838200e-07 0.0000000000000000e+00  3.3194875328931948e-06 -5.6299125799876322e-07 0.0000000000000000e+00  3.9505408892453449e-06 -6.8907601394193803e-07 0.0000000000000000e+00  4.6550245847247228e-06 -8.3695319051009713e-07 0.0000000000000000e+00  5.4195120720575357e-06 -1.0019935180009304e-06 0.0000000000000000e+00  6.2199944107453750e-06 -1.1701634108248399e-06 0.0000000000000000e+00  0.0000000000000000e+00 0.0000000000000000e+00 0.0000000000000000e+00  1.3336815845353484e-07 -1.9983676060077209e-08 0.0000000000000000e+00  2.7203814523752327e-07 -4.0712602551557667e-08 0.0000000000000000e+00  4.2152778616333485e-07 -6.2960922913349048e-08 0.0000000000000000e+00  5.8778946957645243e-07 -8.7562374744219724e-08 0.0000000000000000e+00  7.7743591736139869e-07 -1.1544690931157398e-07 0.0000000000000000e+00  9.9796827608816059e-07 -1.4768777319251586e-07 0.0000000000000000e+00  1.2579906624539191e-06 -1.8556692020433199e-07 0.0000000000000000e+00  1.5673732378101792e-06 -2.3067104256509981e-07 0.0000000000000000e+00  1.9372873889754059e-06 -2.8503528022547154e-07 0.0000000000000000e+00  2.3799744232997537e-06 -3.5135152840282829e-07 0.0000000000000000e+00  2.9080202060646500e-06 -4.3323674964641456e-07 0.0000000000000000e+00  3.5328079400498600e-06 -5.3547230425795045e-07 0.0000000000000000e+00  4.2617756787394721e-06 -6.6389287710474495e-07 0.0000000000000000e+00  5.0942777233291446e-06 -8.2409747050830649e-07 0.0000000000000000e+00  6.0165149294867290e-06 -1.0173321798376128e-06 0.0000000000000000e+00  6.9973456670872534e-06 -1.2312323279381403e-06 0.0000000000000000e+00  0.0000000000000000e+00 0.0000000000000000e+00 0.0000000000000000e+00  1.2780012660545174e-07 -1.8520434505949074e-08 0.0000000000000000e+00  2.6094156277528762e-07 -3.7695194967342698e-08 0.0000000000000000e+00  4.0502857038115055e-07 -5.8199003336156733e-08 0.0000000000000000e+00  5.6620071468948961e-07 -8.0748158310624617e-08 0.0000000000000000e+00  7.5143455878361995e-07 -1.0612681899300367e-07 0.0000000000000000e+00  9.6888219515941589e-07 -1.3522355381841280e-07 0.0000000000000000e+00  1.2282481417413846e-06 -1.6908978283962061e-07 0.0000000000000000e+00  1.5411862564839225e-06 -2.0904331357486943e-07 0.0000000000000000e+00  1.9216552073047400e-06 -2.5686093203019734e-07 0.0000000000000000e+00  2.3860848641449973e-06 -3.1513650888733254e-07 0.0000000000000000e+00  2.9530489633376402e-06 -3.8791771091010577e-07 0.0000000000000000e+00  3.6418890305338476e-06 -4.8172867290443088e-07 0.0000000000000000e+00  4.4694266992494625e-06 -6.0688088881958059e-07 0.0000000000000000e+00  5.4437701965784000e-06 -7.7817421468094268e-07 0.0000000000000000e+00  6.5549392961555694e-06 -1.0120035098435251e-06 0.0000000000000000e+00  7.7647676420825111e-06 -1.3132826371831247e-06 0.0000000000000000e+00  0.0000000000000000e+00 0.0000000000000000e+00 0.0000000000000000e+00  1.1688646977753168e-07 -1.6402077048050986e-08 0.0000000000000000e+00  2.3889300382592989e-07 -3.3347615578780202e-08 0.0000000000000000e+00  3.7143525501454392e-07 -5.1390156187303008e-08 0.0000000000000000e+00  5.2053793349275707e-07 -7.1102189746661112e-08 0.0000000000000000e+00  6.9320251426590312e-07 -9.3085403902327968e-08 0.0000000000000000e+00  8.9785467733072278e-07 -1.1798504023648479e-07 0.0000000000000000e+00  1.1449019392447438e-06 -1.4651811651290718e-07 0.0000000000000000e+00  1.4474260004458705e-06 -1.7954042914935607e-07 0.0000000000000000e+00  1.8220064320614862e-06 -2.1821146888017880e-07 0.0000000000000000e+00  2.2895899592345207e-06 -2.6438917733285984e-07 0.0000000000000000e+00  2.8761169652169013e-06 -3.2152789549107681e-07 0.0000000000000000e+00  3.6121802053444061e-06 -3.9658308084410790e-07 0.0000000000000000e+00  4.5301863270407883e-06 -5.0364484894468270e-07 0.0000000000000000e+00  5.6563827291659059e-06 -6.6961850665325067e-07 0.0000000000000000e+00  6.9947195088325717e-06 -9.3915275740423735e-07 0.0000000000000000e+00  8.5033551903384109e-06 -1.3656653764410095e-06 0.0000000000000000e+00  0.0000000000000000e+00 0.0000000000000000e+00 0.0000000000000000e+00  1.0084721663574721e-07 -1.3739372295597959e-08 0.0000000000000000e+00  2.0630096274648371e-07 -2.7901825740178816e-08 0.0000000000000000e+00  3.2127094113953946e-07 -4.2910166133868513e-08 0.0000000000000000e+00  4.5129887881744283e-07 -5.9182744984888280e-08 0.0000000000000000e+00  6.0296318000868224e-07 -7.7124286418988515e-08 0.0000000000000000e+00  7.8440476697195166e-07 -9.7108256002955471e-08 0.0000000000000000e+00  1.0060408969780837e-06 -1.1944986538261014e-07 0.0000000000000000e+00  1.2815563723331155e-06 -1.4437724477819562e-07 0.0000000000000000e+00  1.6292814525657823e-06 -1.7203643857508902e-07 0.0000000000000000e+00  2.0740531399257601e-06 -2.0264890318944503e-07 0.0000000000000000e+00  2.6495220979797471e-06 -2.3716636611612673e-07 0.0000000000000000e+00  3.4003780217938408e-06 -2.7933534892487784e-07 0.0000000000000000e+00  4.3825999013398420e-06 -3.4133818612870729e-07 0.0000000000000000e+00  5.6567332502829968e-06 -4.5726304780010171e-07 0.0000000000000000e+00  7.2641879762640484e-06 -7.0902772150449736e-07 0.0000000000000000e+00  9.1758462614279036e-06 -1.2522320930001240e-06 0.0000000000000000e+00  0.0000000000000000e+00 0.0000000000000000e+00 0.0000000000000000e+00  8.0195280974581691e-08 -1.0652690291803348e-08 0.0000000000000000e+00  1.6418417652139956e-07 -2.1608939021841756e-08 0.0000000000000000e+00  2.5603710789594153e-07 -3.3164303249787229e-08 0.0000000000000000e+00  3.6040764953113373e-07 -4.5592088509362585e-08 0.0000000000000000e+00  4.8292457150279807e-07 -5.9117559109321237e-08 0.0000000000000000e+00  6.3072916901043575e-07 -7.3869179057372425e-08 0.0000000000000000e+00  8.1325568731027377e-07 -8.9788765718450704e-08 0.0000000000000000e+00  1.0434119122715482e-06 -1.0647093786393637e-07 0.0000000000000000e+00  1.3394145838255703e-06 -1.2288892784795477e-07 0.0000000000000000e+00  1.7276809361270885e-06 -1.3696854294608550e-07 0.0000000000000000e+00  2.2473454533083082e-06 -1.4508441965138760e-07 0.0000000000000000e+00  2.9569514573255717e-06 -1.4211167775717470e-07 0.0000000000000000e+00  3.9427973719953921e-06 -1.2481778006674108e-07 0.0000000000000000e+00  5.3234669888925390e-06 -1.0851865772439905e-07 0.0000000000000000e+00  7.2292459873110290e-06 -1.8659397334633114e-07 0.0000000000000000e+00  9.7041499232141366e-06 -6.9431085374753013e-07 0.0000000000000000e+00  0.0000000000000000e+00 0.0000000000000000e+00 0.0000000000000000e+00  5.5743677322808060e-08 -7.2616253568655987e-09 0.0000000000000000e+00  1.1419484482871982e-07 -1.4715803106943142e-08 0.0000000000000000e+00  1.7827390338972242e-07 -2.2544477170522320e-08 0.0000000000000000e+00  2.5135361770720854e-07 -3.0901627574726914e-08 0.0000000000000000e+00  3.3757487522386787e-07 -3.9881712173740665e-08 0.0000000000000000e+00  4.4229746847540302e-07 -4.9457863728980441e-08 0.0000000000000000e+00  5.7278967761321572e-07 -5.9358731062961679e-08 0.0000000000000000e+00  7.3934294579623193e-07 -6.8818918743328066e-08 0.0000000000000000e+00  9.5716247815260650e-07 -7.6063195420747235e-08 0.0000000000000000e+00  1.2497186783333141e-06 -7.7220754406119193e-08 0.0000000000000000e+00  1.6549240840088277e-06 -6.4023131977528129e-08 0.0000000000000000e+00  2.2368192562051635e-06 -1.9037223093511758e-08 0.0000000000000000e+00  3.1075188974072887e-06 9.3170337033812653e-08 0.0000000000000000e+00  4.4643252824579744e-06 3.3582931345500826e-07 0.0000000000000000e+00  6.6241158594457586e-06 7.6786058304144441e-07 0.0000000000000000e+00  9.8653362905672295e-06 1.0840671212793205e-06 0.0000000000000000e+00  0.0000000000000000e+00 0.0000000000000000e+00 0.0000000000000000e+00  2.8579347404264757e-08 -3.6773241273340658e-09 0.0000000000000000e+00  5.8569868881890119e-08 -7.4471786843694772e-09 0.0000000000000000e+00  9.1498890727244399e-08 -1.1394786785940317e-08 0.0000000000000000e+00  1.2914190758048771e-07 -1.5586305094756437e-08 0.0000000000000000e+00  1.7370004119108506e-07 -2.0047113324589395e-08 0.0000000000000000e+00  2.2806015818413960e-07 -2.4718071769444345e-08 0.0000000000000000e+00  2.9620666885957514e-07 -2.9364087496770873e-08 0.0000000000000000e+00  3.8391814960267969e-07 -3.3375359674036749e-08 0.0000000000000000e+00  5.0002544882289935e-07 -3.5313617682907583e-08 0.0000000000000000e+00  6.5885231819347756e-07 -3.1812520572867627e-08 0.0000000000000000e+00  8.8535614347462948e-07 -1.4722120896244105e-08 0.0000000000000000e+00  1.2270352304192652e-06 3.6897278527275209e-08 0.0000000000000000e+00  1.7845877076524638e-06 1.8110474299975547e-07 0.0000000000000000e+00  2.8000017312696533e-06 5.9310316574318155e-07 0.0000000000000000e+00  4.9367140204595045e-06 1.8476380007073044e-06 0.0000000000000000e+00  1.0239719601314478e-05 5.9648092142896173e-06 0.0000000000000000e+00  0.0000000000000000e+00 0.0000000000000000e+00 0.0000000000000000e+00  0.0000000000000000e+00 0.0000000000000000e+00 0.0000000000000000e+00  0.0000000000000000e+00 0.0000000000000000e+00 0.0000000000000000e+00  0.0000000000000000e+00 0.0000000000000000e+00 0.0000000000000000e+00  0.0000000000000000e+00 0.0000000000000000e+00 0.0000000000000000e+00  0.0000000000000000e+00 0.0000000000000000e+00 0.0000000000000000e+00  0.0000000000000000e+00 0.0000000000000000e+00 0.0000000000000000e+00  0.0000000000000000e+00 0.0000000000000000e+00 0.0000000000000000e+00  0.0000000000000000e+00 0.0000000000000000e+00 0.0000000000000