<?xml version="1.0"?>
<VTKFile type="UnstructuredGrid"  version="0.1"  >
<UnstructuredGrid>
<Piece  NumberOfPoints="289" NumberOfCells="512">
<Points>
<DataArray  type="Float64"  NumberOfComponents="3"  format="ascii">0 0 0  0.0625 0 0  0.125 0 0  0.1875 0 0  0.25 0 0  0.3125 0 0  0.375 0 0  0.4375 0 0  0.5 0 0  0.5625 0 0  0.625 0 0  0.6875 0 0  0.75 0 0  0.8125 0 0  0.875 0 0  0.9375 0 0  1 0 0  0 0.0625 0  0.06249945082073015 0.06250027469689196 0  0.1249988855906867 0.06250056037119579 0  0.187498288100904 0.0625008685965039 0  0.2499976421601576 0.0625012121740747 0  0.3124969317181066 0.06250160597698348 0  0.3749961411352152 0.06250206816293359 0  0.4374952556394507 0.06250262208923471 0  0.4999942619907991 0.06250329959122999 0  0.5624931493335699 0.06250414701026459 0  0.6249919101397419 0.06250523704353939 0  0.6874905410289847 0.06250669365593493 0  0.7499890431841825 0.0625087483035338 0  0.8124874227959396 0.0625118768756855 0  0.8749856979366843 0.06251716107195579 0  0.9374839552352153 0.06252732166477039 0  0.9999827168723969 0.06254990573088434 0  0 0.125 0  0.06249891773820182 0.1250005382883972 0  0.1249978033711749 0.1250010979425806 0  0.1874966244461747 0.1250017014340117 0  0.2499953484462457 0.1250023734944128 0  0.3124939429900926 0.1250031426189066 0  0.3749923763337668 0.1250040431503828 0  0.4374906182670745 0.1250051184354941 0  0.4999886414704826 0.1250064259738422 0  0.5624864233310919 0.1250080463643832 0  0.6249839480714771 0.1250100997038445 0  0.68748120872792 0.1250127770831801 0  0.7499782076857653 0.1250164036703522 0  0.812474951627563 0.125021569879742 0  0.8749714244338842 0.1250294127905654 0  0.9374674615414019 0.1250422317454853 0  0.9999621420027464 0.125064821954586 0  0 0.1875 0  0.06249841694045004 0.1875007803642639 0  0.1249967857766322 0.18750159140462 0  0.1874950578033265 0.1875024652718176 0  0.2499931839686187 0.187503437099178 0  0.3124911150516769 0.1875045468835048 0  0.3749888023063324 0.1875058419447161 0  0.4374861987375175 0.1875073803932675 0  0.4999832611630439 0.1875092363365428 0  0.5624799531587139 0.1875115080835413 0  0.6249762488682575 0.1875143314703356 0  0.6874721374813667 0.187517901607146 0  0.7499676280842542 0.1875225069703024 0  0.8124627554509776 0.1875285750401597 0  0.874957594034696 0.187536697476326 0  0.9374523266491565 0.1875474576331287 0  0.9999476334616942 0.1875602688129445 0  0 0.25 0  0.06249796452201816 0.2500009915991335 0  0.124995865156604 0.250002021750893 0  0.1874936370619974 0.2500031307009447 0  0.2499912144656275 0.2500043620786558 0  0.3124885306594993 0.2500057648893498 0  0.37498551862254 0.2500073959160105 0  0.4374821125320328 0.2500093227629467 0  0.4999782504451334 0.2500116278593345 0  0.5624738784123432 0.2500144138127363 0  0.6249689561960421 0.2500178104174265 0  0.6874634645848332 0.2500219829072386 0  0.7499574140369604 0.2500271383296299 0  0.812450854113563 0.2500335186817459 0  0.8749438823153697 0.2500413483513101 0  0.9374366423786783 0.2500506635639906 0  0.9999292302915399 0.2500609542114266 0  0 0.3125 0  0.06249757630996103 0.312501164111048 0  0.1249950734758964 0.3125023730032258 0  0.1874924109108085 0.3125036732467046 0  0.2499895061189996 0.3125051149510512 0  0.3124862742808113 0.3125067536971232 0  0.3749826285961436 0.3125086526455444 0  0.4374784817581933 0.312510884837295 0  0.4999737490064775 0.3125135356083058 0  0.5624683532557684 0.3125167048067898 0  0.6249622327580315 0.3125205079540564 0  0.6874553515422677 0.312525074272372 0  0.7499477123835774 0.3125305370004476 0  0.8124393711638613 0.3125370069474684 0  0.8749304501402075 0.3125445147599775 0  0.937421146588837 0.3125529107036132 0  0.9999117428825658 0.3125617619059503 0  0 0.375 0  0.06249726754583253 0.3750012916767368 0  0.1249944417206466 0.3750026326136764 0  0.1874914270595952 0.3750040738815119 0  0.2499881247522654 0.3750056701154186 0  0.3124844315226029 0.3750074813337926 0  0.3749802393271208 0.3750095747359767 0  0.4374754363507341 0.3750120263377946 0  0.4999699099487293 0.3750149221140624 0  0.5624635523533682 0.3750183579588457 0  0.6249562700550024 0.3750224371260154 0  0.6874479976246365 0.375027262719531 0  0.7499387161115123 0.375032921186992 0  0.8124284746853957 0.3750394510396611 0  0.8749174116004446 0.3750467911256059 0  0.9374057668233648 0.3750547098115811 0  0.9998938733500541 0.3750627363538813 0  0 0.4375 0  0.06249705238282534 0.4375013698320921 0  0.1249939989188481 0.4375027916187924 0  0.1874907308483404 0.4375043191180047 0  0.2499871341589633 0.4375060096497244 0  0.3124830874187779 0.4375079258437938 0  0.3749784603550201 0.4375101372664 0  0.4374731137328962 0.4375127217215793 0  0.4999669013825814 0.4375157658160053 0  0.5624596755929414 0.4375193640159537 0  0.6249512974634183 0.4375236148363423 0  0.6874416539777676 0.4375286119129693 0  0.7499306831143224 0.4375344265606483 0  0.8124184065565966 0.4375410774261917 0  0.8749049657692098 0.4375484832958725 0  0.9373906513350162 0.4375563996757112 0  0.9998759099716288 0.4375643516260488 0  0 0.5 0  0.06249694317236772 0.5000013959047357 0  0.1249937707109934 0.5000028446612298 0  0.1874903631127089 0.5000044009165152 0  0.2499865933217076 0.5000061229059648 0  0.3124823231688058 0.5000080742165363 0  0.3749774002819076 0.5000103254440882 0  0.437471656009512 0.5000129555723578 0  0.4999649053299038 0.5000160527345243 0  0.5624569503615531 0.5000197137379844 0  0.6249475899427052 0.5000240412749558 0  0.6874366386454123 0.5000291370158428 0  0.7499239589908555 0.5000350876764341 0  0.8124095093367686 0.5000419395712357 0  0.8748934049653654 0.5000496552415457 0  0.9373759795559145 0.5000580446012733 0  0.9998578202643961 0.5000666672902561 0  0 0.5625 0  0.06249694954238746 0.5625013690227625 0  0.1249937774598079 0.5625027899825887 0  0.1874903572475861 0.562504316605864 0  0.2499865523563616 0.5625060062584931 0  0.3124822109636547 0.5625079217993617 0  0.3749771606795966 0.5625101334389547 0  0.4374712035529471 0.5625127205338004 0  0.4999641122644932 0.5625157731652733 0  0.5624556293112039 0.5625193932145371 0  0.6249454724761955 0.5625236944078864 0  0.6874333520311885 0.5625288003527807 0  0.7499190075570388 0.5625348386045524 0  0.8124022733725943 0.5625419264991049 0  0.8748831772752774 0.5625501390686398 0  0.9373620607991628 0.5625594379565028 0  0.9998396758509901 0.5625695228889946 0  0 0.625 0  0.06249707731261676 0.6250012901250294 0  0.1249940319754902 0.6250026294445528 0  0.1874907355408584 0.6250040689190802 0  0.2499870471797409 0.6250056631698083 0  0.3124828066997182 0.6250074724405579 0  0.3749778266846868 0.625009564724723 0  0.4374718837069987 0.6250120181245735 0  0.4999647090214268 0.6250149235342475 0  0.5624559801596951 0.6250183877900163 0  0.6249453168864004 0.6250225375272259 0  0.6874322887434436 0.6250275241029791 0  0.7499164474875222 0.6250335298715123 0  0.8123974052800725 0.6250407748435612 0  0.8748749827341042 0.6250495167444745 0  0.9373494330357762 0.625060015947704 0  0.9998216807674905 0.6250723751137115 0  0 0.6875 0  0.06249732734967527 0.6875011619732044 0  0.1249945370552955 0.6875023685756416 0  0.1874915050497883 0.6875036661298393 0  0.2499880931869603 0.6875051045281591 0  0.3124841407453009 0.687506739243154 0  0.3749794540547337 0.6875086336527529 0  0.4374737935149293 0.687510861870106 0  0.4999668573918756 0.6875135123840811 0  0.5624582624014797 0.6875166930409928 0  0.6249475229893104 0.6875205383422369 0  0.6874340359978524 0.6875252209271531 0  0.7499170879278405 0.6875309709059502 0  0.8123959217524523 0.6875381100258359 0  0.8748699279227757 0.6875471117788253 0  0.9373390338432023 0.6875586916987069 0  0.9998042655431333 0.6875738460283025 0  0 0.75 0  0.06249769452870587 0.7500009891436372 0  0.1249952831812512 0.750002016589528 0  0.1874926535520276 0.7500031221793109 0  0.2499896786469777 0.7500043490433251 0  0.3124862075571799 0.750005745527241 0  0.3749820533039083 0.7500073675223049 0  0.4374769762812703 0.7500092814560785 0  0.4999706611629929 0.7500115683557049 0  0.5624626846076768 0.7500143296811964 0  0.6249524712614397 0.7500176961821288 0  0.6874392385065505 0.7500218422321572 0  0.7499219418070837 0.7500270110777919 0  0.8123992655955676 0.7500335648902023 0  0.8748697826259548 0.7500420992455433 0  0.9373325355536817 0.7500537374161481 0  0.9997883165017138 0.7500708909326531 0  0 0.8125 0  0.06249816702252573 0.8125007779649129 0  0.1249962468538545 0.8125015862934951 0  0.1874941463748418 0.812502456633842 0  0.2499917590347375 0.8125034234040404 0  0.3124889558449243 0.8125045254607256 0  0.3749855730098798 0.8125058081736395 0  0.437481393921449 0.8125073261607018 0  0.4999761218402719 0.812509147072094 0  0.5624693372427827 0.8125113570186298 0  0.6249604301802898 0.8125140685330631 0  0.6874484935022679 0.8125174323144746 0  0.7499321618936943 0.812521654425829 0  0.8124094045979896 0.8125270221120185 0  0.8748773982765982 0.8125339549034735 0  0.9373330193115066 0.8125432064017674 0  0.9997754558946914 0.8125571066257713 0  0 0.875 0  0.06249872615833824 0.8750005363679657 0  0.1249973901056941 0.8750010938088908 0  0.1874959250893694 0.8750016943232013 0  0.2499942539640739 0.8750023619237461 0  0.3124922819656493 0.8750031238700414 0  0.3749898863864964 0.875004012228077 0  0.4374869007726475 0.8750050659555401 0  0.4999830893607898 0.8750063338058252 0  0.5624781036597922 0.875007878461891 0  0.6249714052505169 0.8750097823702802 0  0.6874621225950611 0.8750121553029663 0  0.7499487766136811 0.8750151405624873 0  0.8124287515855888 0.8750189003675655 0  0.8748973464054273 0.8750234783808101 0  0.9373466544218128 0.8750280163264772 0  0.9997680578884179 0.8750265739735857 0  0 0.9375 0  0.06249934703849556 0.9375002736283427 0  0.124998661667448 0.9375005580558426 0  0.1874979090071193 0.9375008645691922 0  0.2499970484916873 0.9375012055165868 0  0.3124960298241056 0.9375015949656351 0  0.3749947870504198 0.9375020495430457 0  0.437493229192
[...]
<PointData  Vectors="f_54"> 
<DataArray  type="Float64"  Name="f_54"  NumberOfComponents="3" format="ascii">0.0000000000000000e+00 0.0000000000000000e+00 0.0000000000000000e+00  0.0000000000000000e+00 0.0000000000000000e+00 0.0000000000000000e+00  0.0000000000000000e+00 0.0000000000000000e+00 0.0000000000000000e+00  0.0000000000000000e+00 0.0000000000000000e+00 0.0000000000000000e+00  0.0000000000000000e+00 0.0000000000000000e+00 0.0000000000000000e+00  0.0000000000000000e+00 0.0000000000000000e+00 0.0000000000000000e+00  0.0000000000000000e+00 0.0000000000000000e+00 0.0000000000000000e+00  0.0000000000000000e+00 0.0000000000000000e+00 0.0000000000000000e+00  0.0000000000000000e+00 0.0000000000000000e+00 0.0000000000000000e+00  0.0000000000000000e+00 0.0000000000000000e+00 0.0000000000000000e+00  0.0000000000000000e+00 0.0000000000000000e+00 0.0000000000000000e+00  0.0000000000000000e+00 0.0000000000000000e+00 0.0000000000000000e+00  0.0000000000000000e+00 0.0000000000000000e+00 0.0000000000000000e+00  0.0000000000000000e+00 0.0000000000000000e+00 0.0000000000000000e+00  0.0000000000000000e+00 0.0000000000000000e+00 0.0000000000000000e+00  0.0000000000000000e+00 0.0000000000000000e+00 0.0000000000000000e+00  0.0000000000000000e+00 0.0000000000000000e+00 0.0000000000000000e+00  0.0000000000000000e+00 0.0000000000000000e+00 0.0000000000000000e+00  -1.1443232450244916e-07 1.1546919466012637e-07 0.0000000000000000e+00  -2.3224754530247869e-07 2.3598260603041931e-07 0.0000000000000000e+00  -3.5683415197817675e-07 3.6690302108345253e-07 0.0000000000000000e+00  -4.9158344588886427e-07 5.1427865298608341e-07 0.0000000000000000e+00  -6.3986503959917547e-07 6.8531671026793005e-07 0.0000000000000000e+00  -8.0497092755002446e-07 8.8906341240052094e-07 0.0000000000000000e+00  -9.9001750028296661e-07 1.1374703052621161e-06 0.0000000000000000e+00  -1.1977955993603446e-06 1.4472034938390166e-06 0.0000000000000000e+00  -1.4305598008993010e-06 1.8429567686434724e-06 0.0000000000000000e+00  -1.6897471040636349e-06 2.3640196976718902e-06 0.0000000000000000e+00  -1.9756029656191911e-06 3.0784779101901487e-06 0.0000000000000000e+00  -2.2866411890073875e-06 4.1170242544640993e-06 0.0000000000000000e+00  -2.6186949473501317e-06 5.7624207731850428e-06 0.0000000000000000e+00  -2.9628315932892863e-06 8.7136361281034275e-06 0.0000000000000000e+00  -3.3002490103727973e-06 1.4952897173593760e-05 0.0000000000000000e+00  -3.5908406281914256e-06 3.0874747757338846e-05 0.0000000000000000e+00  0.0000000000000000e+00 0.0000000000000000e+00 0.0000000000000000e+00  -2.2548070700725526e-07 2.2589307624470457e-07 0.0000000000000000e+00  -4.5772038174934866e-07 4.6155467018974554e-07 0.0000000000000000e+00  -7.0349953361863720e-07 7.1734411122990446e-07 0.0000000000000000e+00  -9.6962498378055599e-07 1.0048837308792983e-06 0.0000000000000000e+00  -1.2628915685825881e-06 1.3379071767789062e-06 0.0000000000000000e+00  -1.5899809111640003e-06 1.7334394309466913e-06 0.0000000000000000e+00  -1.9572753748348261e-06 2.2135725460978412e-06 0.0000000000000000e+00  -2.3705670403293388e-06 2.8083226128732924e-06 0.0000000000000000e+00  -2.8346462081637605e-06 3.5605038756662437e-06 0.0000000000000000e+00  -3.3527610458747893e-06 4.5344853027168827e-06 0.0000000000000000e+00  -3.9259435589732008e-06 5.8326064323161147e-06 0.0000000000000000e+00  -4.5521729733159792e-06 7.6267414535843999e-06 0.0000000000000000e+00  -5.2252073443583999e-06 1.0218125914756931e-05 0.0000000000000000e+00  -5.9323016570495391e-06 1.4136994069103173e-05 0.0000000000000000e+00  -6.6473284112706818e-06 2.0214741110216910e-05 0.0000000000000000e+00  -7.3029901035241029e-06 2.8988321809828986e-05 0.0000000000000000e+00  0.0000000000000000e+00 0.0000000000000000e+00 0.0000000000000000e+00  -3.2976995145555110e-07 3.2654814166540039e-07 0.0000000000000000e+00  -6.6965130250975298e-07 6.6699610390362679e-07 0.0000000000000000e+00  -1.0298134368865023e-06 1.0360290185772874e-06 0.0000000000000000e+00  -1.4205167139021978e-06 1.4499944966323576e-06 0.0000000000000000e+00  -1.8520821141693807e-06 1.9279718602716481e-06 0.0000000000000000e+00  -2.3347666061294981e-06 2.4931880044711729e-06 0.0000000000000000e+00  -2.8785092281255248e-06 3.1750168028696109e-06 0.0000000000000000e+00  -3.4925145591272002e-06 4.0119474803541156e-06 0.0000000000000000e+00  -4.1846489595357009e-06 5.0561536705869395e-06 0.0000000000000000e+00  -4.9606462478556728e-06 6.3806602572584474e-06 0.0000000000000000e+00  -5.8231629588671077e-06 8.0904831979320859e-06 0.0000000000000000e+00  -6.7708152098495656e-06 1.0338827348261834e-05 0.0000000000000000e+00  -7.7975743691238483e-06 1.3345723560160208e-05 0.0000000000000000e+00  -8.8937777695058595e-06 1.7400465421175110e-05 0.0000000000000000e+00  -1.0053810153503908e-05 2.2779399936636702e-05 0.0000000000000000e+00  -1.1313394011320485e-05 2.9419300094983420e-05 0.0000000000000000e+00  0.0000000000000000e+00 0.0000000000000000e+00 0.0000000000000000e+00  -4.2394825166381595e-07 4.1330356817405394e-07 0.0000000000000000e+00  -8.6129962431276758e-07 8.4385022462005040e-07 0.0000000000000000e+00  -1.3255816390822019e-06 1.3097757214057320e-06 0.0000000000000000e+00  -1.8305382662439982e-06 1.8310831975794744e-06 0.0000000000000000e+00  -2.3901409553695366e-06 2.4307810625688239e-06 0.0000000000000000e+00  -3.0184756118633613e-06 3.1362976652541580e-06 0.0000000000000000e+00  -3.7294541709082874e-06 3.9813187725767822e-06 0.0000000000000000e+00  -4.5362972596933181e-06 5.0082353829917227e-06 0.0000000000000000e+00  -5.4507416556835939e-06 6.2714103167103256e-06 0.0000000000000000e+00  -6.4819520804435426e-06 7.8413798886956232e-06 0.0000000000000000e+00  -7.6351740451834563e-06 9.8096331353474661e-06 0.0000000000000000e+00  -8.9102673397034035e-06 1.2292065491046436e-05 0.0000000000000000e+00  -1.0300409400546583e-05 1.5425079467668732e-05 0.0000000000000000e+00  -1.1791340676230261e-05 1.9339307735508614e-05 0.0000000000000000e+00  -1.3360663444790680e-05 2.4082865263924882e-05 0.0000000000000000e+00  -1.4969331702369023e-05 2.9472411956730036e-05 0.0000000000000000e+00  0.0000000000000000e+00 0.0000000000000000e+00 0.0000000000000000e+00  -5.0472416939574503e-07 4.8281618738232909e-07 0.0000000000000000e+00  -1.0260157512186534e-06 9.8532319181334186e-07 0.0000000000000000e+00  -1.5806709062360881e-06 1.5281347977456142e-06 0.0000000000000000e+00  -2.1859058933761294e-06 2.1337712800730204e-06 0.0000000000000000e+00  -2.8594553334302631e-06 2.8277547702571061e-06 0.0000000000000000e+00  -3.6195221538075977e-06 3.6398766174166160e-06 0.0000000000000000e+00  -4.4845081999797882e-06 4.6056853079021722e-06 0.0000000000000000e+00  -5.4724424606980049e-06 5.7682051882220055e-06 0.0000000000000000e+00  -6.6000203429159075e-06 7.1797843205066936e-06 0.0000000000000000e+00  -7.8811850708558161e-06 8.9036889998640841e-06 0.0000000000000000e+00  -9.3252387622714587e-06 1.1014427212180228e-05 0.0000000000000000e+00  -1.0934583433064316e-05 1.3594490250859960e-05 0.0000000000000000e+00  -1.2702359657096602e-05 1.6722951369751181e-05 0.0000000000000000e+00  -1.4610414061718180e-05 2.0448580596723474e-05 0.0000000000000000e+00  -1.6628076649928525e-05 2.4740260987537927e-05 0.0000000000000000e+00  -1.8712779853565686e-05 2.9420715716529092e-05 0.0000000000000000e+00  0.0000000000000000e+00 0.0000000000000000e+00 0.0000000000000000e+00  -5.6893329826905361e-07 5.3263798914566420e-07 0.0000000000000000e+00  -1.1573665925609775e-06 1.0864889328726008e-06 0.0000000000000000e+00  -1.7851757983354864e-06 1.6836630093854005e-06 0.0000000000000000e+00  -2.4729508888619450e-06 2.3481017670623583e-06 0.0000000000000000e+00  -3.2422393655572761e-06 3.1065730342599869e-06 0.0000000000000000e+00  -4.1156301914141754e-06 3.9897423428943209e-06 0.0000000000000000e+00  -5.1165865259082213e-06 5.0333009920483757e-06 0.0000000000000000e+00  -6.2689061517712923e-06 6.2790573702512366e-06 0.0000000000000000e+00  -7.5956616211047470e-06 7.7757487793303784e-06 0.0000000000000000e+00  -9.1174638863182328e-06 9.5790472718454746e-06 0.0000000000000000e+00  -1.0849931532939238e-05 1.1749739955514883e-05 0.0000000000000000e+00  -1.2800371593717345e-05 1.4348323262082513e-05 0.0000000000000000e+00  -1.4963921897811010e-05 1.7423445474883489e-05 0.0000000000000000e+00  -1.7319758520428947e-05 2.0991629556011481e-05 0.0000000000000000e+00  -1.9828317697238407e-05 2.5008827621353535e-05 0.0000000000000000e+00  -2.2430527142932587e-05 2.9344632543607522e-05 0.0000000000000000e+00  0.0000000000000000e+00 0.0000000000000000e+00 0.0000000000000000e+00  -6.1364253352591340e-07 5.6124622984999069e-07 0.0000000000000000e+00  -1.2493392134002994e-06 1.1443283092895009e-06 0.0000000000000000e+00  -1.9297095629665282e-06 1.7719199443034115e-06 0.0000000000000000e+00  -2.6784734615757736e-06 2.4683885620773555e-06 0.0000000000000000e+00  -3.5209069736056174e-06 3.2606756265093195e-06 0.0000000000000000e+00  -4.4841519324215640e-06 4.1791919493491564e-06 0.0000000000000000e+00  -5.5972719347266202e-06 5.2586792594649266e-06 0.0000000000000000e+00  -6.8908930083562007e-06 6.5389169535573368e-06 0.0000000000000000e+00  -8.3962009840500786e-06 8.0650246722897086e-06 0.0000000000000000e+00  -1.0143005408564170e-05 9.8868997592857692e-06 0.0000000000000000e+00  -1.2156561114125345e-05 1.2057016439631135e-05 0.0000000000000000e+00  -1.4452938895326752e-05 1.4625440852553459e-05 0.0000000000000000e+00  -1.7033067603623814e-05 1.7630687723325860e-05 0.0000000000000000e+00  -1.9876231262308580e-05 2.1085498366807121e-05 0.0000000000000000e+00  -2.2934739534646043e-05 2.4958695718190622e-05 0.0000000000000000e+00  -2.6132240260348000e-05 2.9158638070497186e-05 0.0000000000000000e+00  0.0000000000000000e+00 0.0000000000000000e+00 0.0000000000000000e+00  -6.3629684337238515e-07 5.6801718147331573e-07 0.0000000000000000e+00  -1.2966348635143433e-06 1.1576540890888368e-06 0.0000000000000000e+00  -2.0058433902045411e-06 1.7912925152423939e-06 0.0000000000000000e+00  -2.7903160038591687e-06 2.4928449720018611e-06 0.0000000000000000e+00  -3.6787473081555556e-06 3.2885306235440960e-06 0.0000000000000000e+00  -4.7027755002717364e-06 4.2076431806443334e-06 0.0000000000000000e+00  -5.8974233777717157e-06 5.2832670424683486e-06 0.0000000000000000e+00  -7.3011472739542564e-06 6.5528489109992218e-06 0.0000000000000000e+00  -8.9551819317231383e-06 8.0584523386728031e-06 0.0000000000000000e+00  -1.0901713755160291e-05 9.8464006122182511e-06 0.0000000000000000e+00  -1.3180263450505244e-05 1.1965841833301688e-05 0.0000000000000000e+00  -1.5821624337449500e-05 1.4465560516869110e-05 0.0000000000000000e+00  -1.8839020375363960e-05 1.7388169811371928e-05 0.0000000000000000e+00  -2.2217173977200743e-05 2.0760787252552289e-05 0.0000000000000000e+00  -2.5901955466463928e-05 2.4581661169695122e-05 0.0000000000000000e+00  -2.9795638326941416e-05 2.8803209665937761e-05 0.0000000000000000e+00  0.0000000000000000e+00 0.0000000000000000e+00 0.0000000000000000e+00  -6.3490805688228016e-07 5.5316603050721992e-07 0.0000000000000000e+00  -1.2950554201978090e-06 1.1269734086581906e-06 0.0000000000000000e+00  -2.0067052478280999e-06 1.7427428060273754e-06 0.0000000000000000e+00  -2.7981876208114624e-06 2.4231554078032783e-06 0.0000000000000000e+00  -3.7009725939444568e-06 3.1929395569601829e-06 0.0000000000000000e+00  -4.7507530905313829e-06 4.0795549018093396e-06 0.0000000000000000e+00  -5.9884614303810153e-06 5.1138558653660112e-06 0.0000000000000000e+00  -7.4610385660478681e-06 6.3307007150801949e-06 0.0000000000000000e+00  -9.2215941309355136e-06 7.7694528865786348e-06 0.0000000000000000e+00  -1.1328308214346630e-05 9.4742959115863206e-06 0.0000000000000000e+00  -1.3841029060217129e-05 1.1494240917027125e-05 0.0000000000000000e+00  -1.6814115232522219e-05 1.3882601735387284e-05 0.0000000000000000e+00  -2.0284019636261161e-05 1.6695420311723674e-05 0.0000000000000000e+00  -2.4251256031017078e-05 1.9987571708180516e-05 0.0000000000000000e+00  -2.8660002602442310e-05 2.3803695519915765e-05 0.0000000000000000e+00  -3.3385086367395020e-05 2.8158855111335202e-05 0.0000000000000000e+00  0.0000000000000000e+00 0.0000000000000000e+00 0.0000000000000000e+00  -6.0827679520295784e-07 5.1767024607703574e-07 0.0000000000000000e+00  -1.2419675030565713e-06 1.0543248907905463e-06 0.0000000000000000e+00  -1.9277249946110140e-06 1.6295407903124622e-06 0.0000000000000000e+00  -2.6947423039735103e-06 2.2640806705395405e-06 0.0000000000000000e+00  -3.5761814152596865e-06 2.9804972588939481e-06 0.0000000000000000e+00  -4.6107726473242802e-06 3.8037518087286999e-06 0.0000000000000000e+00  -5.8445876009791098e-06 4.7618585709858934e-06 0.0000000000000000e+00  -7.3328906113449834e-06 5.8865846616890933e-06 0.0000000000000000e+00  -9.1417631638839650e-06 7.2142769091766721e-06 0.0000000000000000e+00  -1.1348780249197563e-05 8.7869701390406924e-06 0.0000000000000000e+00  -1.4041275014331412e-05 1.0654062564955078e-05 0.0000000000000000e+00  -1.7309588020324676e-05 1.2874972339507586e-05 0.0000000000000000e+00  -2.1231437446324604e-05 1.5523067006071692e-05 0.0000000000000000e+00  -2.5843530764671098e-05 1.8690049734555676e-05 0.0000000000000000e+00  -3.1101378737453020e-05 2.2486291852855090e-05 0.0000000000000000e+00  -3.6843537647861791e-05 2.7024008966468539e-05 0.0000000000000000e+00  0.0000000000000000e+00 0.0000000000000000e+00 0.0000000000000000e+00  -5.5622727765653462e-07 4.6318601983850493e-07 0.0000000000000000e+00  -1.1368054306773958e-06 9.4310855807297235e-07 0.0000000000000000e+00  -1.7674736979960271e-06 1.4570049522687127e-06 0.0000000000000000e+00  -2.4768586936969416e-06 2.0231148333662961e-06 0.0000000000000000e+00  -3.2982141707257725e-06 2.6611961083155256e-06 0.0000000000000000e+00  -4.2715338465578735e-06 3.3930662282912604e-06 0.0000000000000000e+00  -5.4461757469996475e-06 4.2431981247153446e-06 0.0000000000000000e+00  -6.8841013766472659e-06 5.2394392014451196e-06 0.0000000000000000e+00  -8.6636856087302500e-06 6.4140091834072474e-06 0.0000000000000000e+00  -1.0883631602420601e-05 7.8051160880078680e-06 0.0000000000000000e+00  -1.3665506879111521e-05 9.4598855310422136e-06 0.0000000000000000e+00  -1.7151264720092515e-05 1.1439907024860135e-05 0.0000000000000000e+00  -2.1488282251994145e-05 1.3831483154966792e-05 0.0000000000000000e+00  -2.6789660340143166e-05 1.6762805905500693e-05 0.0000000000000000e+00  -3.3058027248121376e-05 2.0426791862736275e-05 0.0000000000000000e+00  -4.0086825440026839e-05 2.5094474543749064e-05 0.0000000000000000e+00  0.0000000000000000e+00 0.0000000000000000e+00 0.0000000000000000e+00  -4.7982163164686133e-07 3.9196072997587536e-07 0.0000000000000000e+00  -9.8154478073013972e-07 7.9791129810418878e-07 0.0000000000000000e+00  -1.5284930456815034e-06 1.2322452498019087e-06 0.0000000000000000e+00  -2.1469861620980215e-06 1.7101626151294260e-06 0.0000000000000000e+00  -2.8682558573715751e-06 2.2480844903587964e-06 0.0000000000000000e+00  -3.7309335106607077e-06 2.8640875637200679e-06 0.0000000000000000e+00  -4.7844223988847289e-06 3.5783829838719113e-06 0.0000000000000000e+00  -6.0935685036495279e-06 4.4138984743527303e-06 0.0000000000000000e+00  -7.7451214961678843e-06 5.3971076240242074e-06 0.0000000000000000e+00  -9.8563724435878996e-06 6.5594578891624563e-06 0.0000000000000000e+00  -1.2585598534819538e-05 7.9402494579354504e-06 0.0000000000000000e+00  -1.6141328437628883e-05 9.5929842970422902e-06 0.0000000000000000e+00  -2.0780308598471824e-05 1.1599708923528190e-05 0.0000000000000000e+00  -2.6768259041545360e-05 1.4102245216128827e-05 0.0000000000000000e+00  -3.4253712995327057e-05 1.7362623302375538e-05 0.0000000000000000e+00  -4.3010837730615797e-05 2.1850415175639499e-05 0.0000000000000000e+00  0.0000000000000000e+00 0.0000000000000000e+00 0.0000000000000000e+00  -3.8150873100066199e-07 3.0674088010583806e-07 0.0000000000000000e+00  -7.8104991292437406e-07 6.2432337403935567e-07 0.0000000000000000e+00  -1.2179539888339831e-06 9.6389149986701315e-07 0.0000000000000000e+00  -1.7143171454460777e-06 1.3371905625046677e-06 0.0000000000000000e+00  -2.2968602259537367e-06 1.7568695588561072e-06 0.0000000000000000e+00  -2.9994781899265988e-06 2.2367844327941973e-06 0.0000000000000000e+00  -3.8669459064408252e-06 2.7923007734169067e-06 0.0000000000000000e+00  -4.9605284446935273e-06 3.4405947960032906e-06 0.0000000000000000e+00  -6.3667059967507131e-06 4.2009619660392053e-06 0.0000000000000000e+00  -8.2109038539642546e-06 5.0952037964991842e-06 0.0000000000000000e+00  -1.0678833884589958e-05 6.1484348161061328e-06 0.0000000000000000e+00  -1.4047630602841044e-05 7.3917068849769736e-06 0.0000000000000000e+00  -1.8722672690911303e-05 8.8715458344074954e-06 0.0000000000000000e+00  -2.5248518105926362e-05 1.0682919510691703e-05 0.0000000000000000e+00  -3.4176932931625595e-05 1.3069558218466507e-05 0.0000000000000000e+00  -4.5518480542979981e-05 1.6649735261394886e-05 0.0000000000000000e+00  0.0000000000000000e+00 0.0000000000000000e+00 0.0000000000000000e+00  -2.6515767932838882e-07 2.1067487139756895e-07 0.0000000000000000e+00  -5.4318297558339650e-07 4.2874266814254067e-07 0.0000000000000000e+00  -8.4794199574478246e-07 6.6179625356691462e-07 0.0000000000000000e+00  -1.1954475304540665e-06 9.1782324401324565e-07 0.0000000000000000e+00  -1.6053586396021082e-06 1.2053964869669964e-06 0.0000000000000000e+00  -2.1031257350488781e-06 1.5338473026414685e-06 0.0000000000000000e+00  -2.7232810772993314e-06 1.9133929319758112e-06 0.0000000000000000e+00  -3.5147772250007751e-06 2.3551466070229757e-06 0.0000000000000000e+00  -4.5500834660186837e-06 2.8708341862134195e-06 0.0000000000000000e+00  -5.9413986994206264e-06 3.4717960515467718e-06 0.0000000000000000e+00  -7.8707045198560681e-06 4.1663209044235095e-06 0.0000000000000000e+00  -1.0646889606421807e-05 4.9534400340111783e-06 0.0000000000000000e+00  -1.4813045033202585e-05 5.8111179005260357e-06 0.0000000000000000e+00  -2.1324665813553476e-05 6.6870455397636703e-06 0.0000000000000000e+00  -3.1684988047164834e-05 7.5810132145691272e-06 0.0000000000000000e+00  -4.6942293232214184e-05 9.2942649254865432e-06 0.0000000000000000e+00  0.0000000000000000e+00 0.0000000000000000e+00 0.0000000000000000e+00  -1.3593386972871751e-07 1.0721190377433669e-07 0.0000000000000000e+00  -2.7857363677720042e-07 2.1816949070483637e-07 0.0000000000000000e+00  -4.3516998272254826e-07 3.3671746269304121e-07 0.0000000000000000e+00  -6.1415168524679570e-07 4.6689470219982908e-07 0.0000000000000000e+00  -8.2596929152800190e-07 6.1302385312450073e-07 0.0000000000000000e+00  -1.0843353735603108e-06 7.7978294776896690e-07 0.0000000000000000e+00  -1.4081961602714207e-06 9.7222893429404909e-07 0.0000000000000000e+00  -1.8250860231380123e-06 1.1956924661593720e-06 0.0000000000000000e+00  -2.3772324928601781e-06 1.4553230883040119e-06 0.0000000000000000e+00  -3.1335185608160457e-06 1.7546580707078282e-06 0.0000000000000000e+00  -4.2149955594712620e-06 2.0913505261497452e-06 0.0000000000000000e+00  -5.8548620674702847e-06 2.4441827260746254e-06 0.0000000000000000e+00  -8.5555280614320365e-06 2.7316251397395424e-06 0.0000000000000000e+00  -1.3548581146156300e-05 2.6710731068508965e-06 0.0000000000000000e+00  -2.4292964944374659e-05 1.2681361392209486e-06 0.0000000000000000e+00  -5.1816185627155296e-05 -5.1501182716751182e-06 0.0000000000000000e+00  0.0000000000000000e+00 0.0000000000000000e+00 0.0000000000000000e+00  0.0000000000000000e+00 0.0000000000000000e+00 0.0000000000000000e+00  0.0000000000000000e+00 0.0000000000000000e+00 0.0000000000000000e+00  0.0000000000000000e+00 0.0000000000000000e+00 0.0000000000000000e+00  0.0000000000000000e+00 0.0000000000000000e+00 0.0000000000000000e+00  0.0000000000000000e+00 0.0000000000000000e+00 0.0000000000000000e+00  0.0000000000000000e+00 0.0000000000000000e+00 0.0000000000000000e+00  0.0000000000000000e+00 0.0000000000000000e+00 0.0000000000000000e+00  0.0000000000000000e+00 0.0000000000000000e+00 0.000