<?xml version="1.0"?>
<VTKFile type="UnstructuredGrid"  version="0.1"  >
<UnstructuredGrid>
<Piece  NumberOfPoints="289" NumberOfCells="512">
<Points>
<DataArray  type="Float64"  NumberOfComponents="3"  format="ascii">0 0 0  0.0625 0 0  0.125 0 0  0.1875 0 0  0.25 0 0  0.3125 0 0  0.375 0 0  0.4375 0 0  0.5 0 0  0.5625 0 0  0.625 0 0  0.6875 0 0  0.75 0 0  0.8125 0 0  0.875 0 0  0.9375 0 0  1 0 0  0 0.0625 0  0.06250180628473004 0.0624984778146839 0  0.1250036665361662 0.06249688533315834 0  0.1875056345482221 0.06249514744335437 0  0.2500077642774167 0.0624931786592973 0  0.3125101095011266 0.06249087598376355 0  0.375012722983399 0.06248810872109491 0  0.4375156549694134 0.06248470262671271 0  0.5000189508228318 0.06248041322694148 0  0.562522647594377 0.06247487728303223 0  0.6250267691871983 0.06246751698881587 0  0.6875313193054041 0.06245733328788985 0  0.7500362697168124 0.06244241410799484 0  0.8125415359606009 0.06241863350027305 0  0.8750469155886135 0.06237581159572325 0  0.9375519142680809 0.06228510107956099 0  1.000055289279895 0.06205327681917806 0  0 0.125 0  0.06250355886340588 0.1249970255746203 0  0.1250072254712121 0.1249939153455209 0  0.1875111074247384 0.124990524560077 0  0.2500153129727036 0.1249866893022412 0  0.3125199505020753 0.1249822136484403 0  0.3750251270527017 0.1249768518830822 0  0.4375309454999023 0.1249702819247728 0  0.5000375000555384 0.1249620629232903 0  0.5625448697669456 0.1249515634721561 0  0.6250531097146423 0.124937833379642 0  0.6875622394945345 0.1249193640436351 0  0.7500722279305324 0.1248936279589248 0  0.8125829707127117 0.1248562038912065 0  0.8750942503496544 0.1247993081878884 0  0.9376056411782347 0.124710661778109 0  1.000116206862613 0.1245817792367648 0  0 0.1875 0  0.06250520427080151 0.1874957087614768 0  0.1250105695401384 0.1874912251555403 0  0.1875162570882926 0.1874863448973366 0  0.2500224299646703 0.1874808384060513 0  0.3125292526591386 0.1874744345061981 0  0.3750368893282671 0.1874667988761487 0  0.4375455000282922 0.1874575037643647 0  0.5000552344228045 0.187445983382436 0  0.562566222548997 0.1874314658847984 0  0.6250785625242137 0.1874128676742814 0  0.6875923057041722 0.1873886305691415 0  0.7501074411854892 0.1873564874262587 0  0.8126238852962738 0.1873131987444306 0  0.8751414948094431 0.1872545482417163 0  0.9376601762036701 0.1871766627069596 0  1.000180399157518 0.1870812835697835 0  0 0.25 0  0.0625066894767429 0.249994583919133 0  0.125013592040216 0.2499889308341501 0  0.1875209220492786 0.249982790188237 0  0.2500288976865593 0.2499758829588596 0  0.3125377413349049 0.2499678841672135 0  0.3750476780726817 0.2499584010258736 0  0.4375589315053166 0.2499469445209815 0  0.5000717161223841 0.2499328916817106 0  0.5625862254912524 0.2499154356076297 0  0.6251026160223015 0.2498935218959674 0  0.6876209869922056 0.2498657774356492 0  0.7501413592957059 0.2498304608458762 0  0.8126636582820963 0.2497855253587528 0  0.875187709132527 0.2497290175147653 0  0.9377132465927385 0.2496602179681391 0  1.000239856676875 0.2495817579880173 0  0 0.3125 0  0.06250796249749191 0.3124936956752822 0  0.1250161879139199 0.3124871232769896 0  0.1875249421282486 0.3124800007686707 0  0.250034498087386 0.3124720171041417 0  0.312545137595063 0.3124628152576449 0  0.3750571508698776 0.3124519722650341 0  0.4375708328046767 0.3124389754126354 0  0.5000864746908286 0.3124231943188696 0  0.5626043501449832 0.3124038504135714 0  0.6251246942952451 0.3123799896710477 0  0.6876476762359583 0.3123504741429126 0  0.7501733666376966 0.3123140272503217 0  0.812701705203995 0.3122694009426754 0  0.8752324754060602 0.3122157721247226 0  0.9377652939742553 0.3121534675199589 0  1.000299623122188 0.3120849091282887 0  0 0.375 0  0.06250897346927299 0.3749930751038144 0  0.1250182557800545 0.3749858650367464 0  0.1875281611879684 0.3749780712164083 0  0.2500390156255827 0.3749693674731867 0  0.3125511607881715 0.3749593846029953 0  0.3750649558349046 0.3749476931588881 0  0.4375807753329555 0.3749337844998262 0  0.5000990016415964 0.3749170511927091 0  0.5626200095536257 0.3748967701391749 0  0.62514414092912 0.374872096204923 0  0.6876716676948443 0.3748420818306494 0  0.7502027435108007 0.3748057496084606 0  0.8127373480751041 0.3747622569975306 0  0.8752752330796761 0.3747111914147515 0  0.9378158828949666 0.3746529844916986 0  1.000358500500274 0.3745892793358001 0  0 0.4375 0  0.06250967630263621 0.4374927393196386 0  0.1250197011724907 0.4374851897772443 0  0.1875304317809335 0.4374770503234241 0  0.2500422429725221 0.4374679950449811 0  0.3125555346656962 0.437457659681882 0  0.3750707370836347 0.4374456271460137 0  0.4375883122084737 0.4374314123337946 0  0.5001087490401288 0.4374144474906387 0  0.5626325492558873 0.4373940712514919 0  0.6251601989473308 0.4373695277909658 0  0.6876921218413856 0.4373399877293738 0  0.7502286109035063 0.4373046091293664 0  0.812769740106298 0.4372626618231885 0  0.8753152679188928 0.4372137321308867 0  0.9378645580946472 0.4371579907454573 0  1.000416555707885 0.437096431064957 0  0 0.5 0  0.06251003098879483 0.4999926920414338 0  0.1250204411633478 0.4999851036900906 0  0.187531622066344 0.4999769440317761 0  0.2500439900664383 0.4999679008267406 0  0.3125579981096942 0.4999576291566059 0  0.3750741461023407 0.4999457393736357 0  0.4375929883189907 0.4999317844188641 0  0.5001151349761336 0.4999152470346209 0  0.5626412432765013 0.4998955283155238 0  0.6251719908743621 0.4998719407975966 0  0.687708022395853 0.4998437124340558 0  0.7502498590354654 0.4998100129109372 0  0.8127977658559732 0.4997700206027139 0  0.8753515866771566 0.4997230539193156 0  0.9379105866468499 0.499668784642114 0  1.000473380924112 0.4996075111323426 0  0 0.5625 0  0.06251000654657825 0.5624929248319405 0  0.1250204103930292 0.5624855882096061 0  0.187531625153031 0.5624777201091091 0  0.2500440969799525 0.5624690332516374 0  0.3125583215002644 0.5624592140281145 0  0.3750748609710531 0.5624479128076066 0  0.4375943605308182 0.5624347332336221 0  0.5001175608248437 0.5624192198452753 0  0.5626453015387934 0.5624008429541029 0  0.6251785060066596 0.562378979349363 0  0.6877181310029091 0.5623528879145403 0  0.7502650595550688 0.562321682945978 0  0.812819913505767 0.5622843198667326 0  0.8753827791426015 0.5622396353476705 0  0.9379528927942741 0.562186527942368 0  1.000528430512992 0.5621243977408108 0  0 0.625 0  0.06250958447061626 0.6249934187826569 0  0.1250195682743724 0.6249866035420855 0  0.1875303706542802 0.6249793138047769 0  0.250042450624358 0.6249712962620353 0  0.3125563293665174 0.6249622782213999 0  0.3750726153117619 0.6249519606645829 0  0.4375920319844904 0.6249400101814607 0  0.5001154471980662 0.624926048069398 0  0.5626438989855453 0.624909632966098 0  0.6251786073235872 0.6248902300828028 0  0.68772094940138 0.6248671556173326 0  0.7502723588075101 0.6248394821954705 0  0.8128340896262082 0.624805900888924 0  0.8754067852385247 0.6247645832665514 0  0.9379898624830969 0.6247132100576331 0  1.00058095140129 0.624649511407081 0  0 0.6875 0  0.06250876236702108 0.6874941464845841 0  0.1250179067705064 0.6874880927293593 0  0.1875278376507244 0.6874816341895057 0  0.2500390044896858 0.6874745580071598 0  0.3125519289686108 0.6874666392612784 0  0.3750672379121893 0.6874576374992222 0  0.4375857041730634 0.6874472930144433 0  0.5001082970756405 0.6874353210543928 0  0.5626362417867182 0.6874213991427192 0  0.6251710805448795 0.6874051362449723 0  0.6877147131732712 0.6873860000325656 0  0.750269361634218 0.6873631585491702 0  0.8128373453881003 0.687335174149215 0  0.8754204816089936 0.6872995190339938 0  0.9380189270198752 0.6872521042142968 0  1.000629641348048 0.6871876061220348 0  0 0.75 0  0.06250755726148645 0.7499950741642868 0  0.1250154576949762 0.7499899860655506 0  0.187524067461017 0.7499845710995826 0  0.2500337993486105 0.7499786605388047 0  0.3125451426061975 0.7499720806098059 0  0.3750587016113514 0.7499646530263649 0  0.4375752482099232 0.7499561974210218 0  0.5000957941073596 0.7499465354773425 0  0.5626216908733043 0.7499354942229506 0  0.6251547634708186 0.7499228988891561 0  0.6876974715738234 0.7499085266842235 0  0.7502530529844224 0.7498919464696195 0  0.8128254957056157 0.7498720738780187 0  0.8754189502218053 0.7498461444251635 0  0.9380358461249684 0.7498079497376671 0  1.000673039341036 0.7497469646692028 0  0 0.8125 0  0.06250600788546028 0.8124961638415154 0  0.1250122980448344 0.8124922056215423 0  0.1875191737465633 0.8124880024633533 0  0.2500269812420429 0.8124834306176075 0  0.3125361386710828 0.8124783668261701 0  0.3750471756361906 0.8124726924033264 0  0.4375607906382848 0.8124663020102728 0  0.5000779379106317 0.8124591202519472 0  0.5625999622708948 0.8124511305636702 0  0.6251288109560255 0.812442420517994 0  0.6876673619791142 0.8124332373516381 0  0.750219900754449 0.812423996412946 0  0.8127926776642659 0.8124149942058486 0  0.8753940621580729 0.8124049872006915 0  0.9380325822928167 0.8123864815259206 0  1.000709342497335 0.8123359189084279 0  0 0.875 0  0.06250417516919542 0.874997375299382 0  0.1250085516307664 0.8749946694421563 0  0.1875133468287962 0.8749918013324784 0  0.2500188115465083 0.8749886907564239 0  0.3125252532123295 0.874985260781809 0  0.3750330691863568 0.8749814433972214 0  0.4375427977616597 0.8749771914840334 0  0.5000552008413398 0.8749725033995821 0  0.5625714047326172 0.8749674733520167 0  0.6250931509163132 0.8749623955192071 0  0.6876232601865772 0.8749579792754908 0  0.7501665112856434 0.8749557768790234 0  0.8127312723577712 0.8749588990071595 0  0.8753321100342613 0.8749723601579086 0  0.9379911733625694 0.874997200483958 0  1.000719781004913 0.8749823993802682 0  0 0.9375 0  0.0625021402898399 0.9374986676095366 0  0.1250043854455052 0.937497294807748 0  0.1875068491457216 0.9374958414379858 0  0.2500096633625947 0.9374942683386382 0  0.3125129914743623 0.9374925391472663 0  0.375017047517729 0.937490624383405 0  0.4375221267734583 0.93748851031042
[...]
<PointData  Vectors="f_54"> 
<DataArray  type="Float64"  Name="f_54"  NumberOfComponents="3" format="ascii">0.0000000000000000e+00 0.0000000000000000e+00 0.0000000000000000e+00  0.0000000000000000e+00 0.0000000000000000e+00 0.0000000000000000e+00  0.0000000000000000e+00 0.0000000000000000e+00 0.0000000000000000e+00  0.0000000000000000e+00 0.0000000000000000e+00 0.0000000000000000e+00  0.0000000000000000e+00 0.0000000000000000e+00 0.0000000000000000e+00  0.0000000000000000e+00 0.0000000000000000e+00 0.0000000000000000e+00  0.0000000000000000e+00 0.0000000000000000e+00 0.0000000000000000e+00  0.0000000000000000e+00 0.0000000000000000e+00 0.0000000000000000e+00  0.0000000000000000e+00 0.0000000000000000e+00 0.0000000000000000e+00  0.0000000000000000e+00 0.0000000000000000e+00 0.0000000000000000e+00  0.0000000000000000e+00 0.0000000000000000e+00 0.0000000000000000e+00  0.0000000000000000e+00 0.0000000000000000e+00 0.0000000000000000e+00  0.0000000000000000e+00 0.0000000000000000e+00 0.0000000000000000e+00  0.0000000000000000e+00 0.0000000000000000e+00 0.0000000000000000e+00  0.0000000000000000e+00 0.0000000000000000e+00 0.0000000000000000e+00  0.0000000000000000e+00 0.0000000000000000e+00 0.0000000000000000e+00  0.0000000000000000e+00 0.0000000000000000e+00 0.0000000000000000e+00  0.0000000000000000e+00 0.0000000000000000e+00 0.0000000000000000e+00  3.5679428445982417e-08 -5.1505214656314591e-08 0.0000000000000000e+00  7.2417236173687707e-08 -1.0527942320012444e-07 0.0000000000000000e+00  1.1127600303419510e-07 -1.6374055251985723e-07 0.0000000000000000e+00  1.5332029150904697e-07 -2.2962134908885625e-07 0.0000000000000000e+00  1.9960952203894412e-07 -3.0618743364216821e-07 0.0000000000000000e+00  2.5118062122447927e-07 -3.9755049692681944e-07 0.0000000000000000e+00  3.0901645692724803e-07 -5.0915922587473583e-07 0.0000000000000000e+00  3.7399540458056500e-07 -6.4863178466790191e-07 0.0000000000000000e+00  4.4681571559003409e-07 -8.2728058393269220e-07 0.0000000000000000e+00  5.2788350331664531e-07 -1.0631417533658858e-06 0.0000000000000000e+00  6.1713941626790078e-07 -1.3875608323343344e-06 0.0000000000000000e+00  7.1376415545246461e-07 -1.8610254320102849e-06 0.0000000000000000e+00  8.1563423108432292e-07 -2.6156518302931193e-06 0.0000000000000000e+00  9.1838236233310909e-07 -3.9829206035668454e-06 0.0000000000000000e+00  1.0148700840626520e-06 -6.9221804626282503e-06 0.0000000000000000e+00  1.1042252913840093e-06 -1.4608467901893159e-05 0.0000000000000000e+00  0.0000000000000000e+00 0.0000000000000000e+00 0.0000000000000000e+00  7.0300845009077343e-08 -1.0074204384201253e-07 0.0000000000000000e+00  1.4271616971287140e-07 -2.0587607774940840e-07 0.0000000000000000e+00  2.1937189238734874e-07 -3.2007019956165343e-07 0.0000000000000000e+00  3.0240453160202574e-07 -4.4857262077490155e-07 0.0000000000000000e+00  3.9395056989054816e-07 -5.9760250321116159e-07 0.0000000000000000e+00  4.9611572126513356e-07 -7.7489400947305293e-07 0.0000000000000000e+00  6.1091641063864767e-07 -9.9051477728659403e-07 0.0000000000000000e+00  7.4018513031200986e-07 -1.2581810311653969e-06 0.0000000000000000e+00  8.8543014204674107e-07 -1.5974966488329411e-06 0.0000000000000000e+00  1.0476359206499199e-06 -2.0379654764917157e-06 0.0000000000000000e+00  1.2269753277855172e-06 -2.6264865449746944e-06 0.0000000000000000e+00  1.4223468589969329e-06 -3.4416668687815862e-06 0.0000000000000000e+00  1.6304265013375585e-06 -4.6204631064477305e-06 0.0000000000000000e+00  1.8429804945553406e-06 -6.3997874504199540e-06 0.0000000000000000e+00  2.0368425000563122e-06 -9.1279157479900527e-06 0.0000000000000000e+00  2.1296038363953614e-06 -1.2874681810229925e-05 0.0000000000000000e+00  0.0000000000000000e+00 0.0000000000000000e+00 0.0000000000000000e+00  1.0280666175393834e-07 -1.4558553275085748e-07 0.0000000000000000e+00  2.0877583882050111e-07 -2.9741489931109069e-07 0.0000000000000000e+00  3.2109467667603901e-07 -4.6209847217914604e-07 0.0000000000000000e+00  4.4298253385833553e-07 -6.4700986808517479e-07 0.0000000000000000e+00  5.7768393575511839e-07 -8.6077885788383340e-07 0.0000000000000000e+00  7.2843212486977805e-07 -1.1139453046768893e-06 0.0000000000000000e+00  8.9837184937243933e-07 -1.4198834013808982e-06 0.0000000000000000e+00  1.0904298977376057e-06 -1.7961729151127983e-06 0.0000000000000000e+00  1.3071234630198420e-06 -2.2667049580165559e-06 0.0000000000000000e+00  1.5503015306819412e-06 -2.8649713185273009e-06 0.0000000000000000e+00  1.8208281618561334e-06 -3.6391436818232643e-06 0.0000000000000000e+00  2.1182595272360134e-06 -4.6593771806187216e-06 0.0000000000000000e+00  2.4407383429012830e-06 -6.0260114524247582e-06 0.0000000000000000e+00  2.7861265520014438e-06 -7.8701468313533444e-06 0.0000000000000000e+00  3.1593466693796865e-06 -1.0317865808488665e-05 0.0000000000000000e+00  3.6111002070500038e-06 -1.3369080571390431e-05 0.0000000000000000e+00  0.0000000000000000e+00 0.0000000000000000e+00 0.0000000000000000e+00  1.3214779438212774e-07 -1.8418266882366097e-07 0.0000000000000000e+00  2.6848591314603133e-07 -3.7610069150219716e-07 0.0000000000000000e+00  4.1325113994645887e-07 -5.8390486308944339e-07 0.0000000000000000e+00  5.7075295475270886e-07 -8.1660206724058110e-07 0.0000000000000000e+00  7.4538059711824836e-07 -1.0845798411928215e-06 0.0000000000000000e+00  9.4157222025067182e-07 -1.4002611420726752e-06 0.0000000000000000e+00  1.1637303979186627e-06 -1.7789579831580457e-06 0.0000000000000000e+00  1.4160675966787388e-06 -2.2400118692961243e-06 0.0000000000000000e+00  1.7023677386830057e-06 -2.8083182292276454e-06 0.0000000000000000e+00  2.0256592399235878e-06 -3.5162880780826449e-06 0.0000000000000000e+00  2.3878169912341556e-06 -4.4060790566965511e-06 0.0000000000000000e+00  2.7891551898699163e-06 -5.5312171387512714e-06 0.0000000000000000e+00  3.2281453624095740e-06 -6.9548663515525193e-06 0.0000000000000000e+00  3.7014111958396844e-06 -8.7380454493289792e-06 0.0000000000000000e+00  4.2033089301716208e-06 -1.0905615102480757e-05 0.0000000000000000e+00  4.7170529353849682e-06 -1.3380318129523253e-05 0.0000000000000000e+00  0.0000000000000000e+00 0.0000000000000000e+00 0.0000000000000000e+00  1.5729597463161073e-07 -2.1504171208936816e-07 0.0000000000000000e+00  3.1976848952475013e-07 -4.3890137789232757e-07 0.0000000000000000e+00  4.9267324578328630e-07 -6.8082411769435085e-07 0.0000000000000000e+00  6.8140301379977504e-07 -9.5092627208073683e-07 0.0000000000000000e+00  8.9152280315316006e-07 -1.2606994258366043e-06 0.0000000000000000e+00  1.1287603168978055e-06 -1.6235974980107756e-06 0.0000000000000000e+00  1.3989304760175267e-06 -2.0557320744024975e-06 0.0000000000000000e+00  1.7077695469554981e-06 -2.5766851305134463e-06 0.0000000000000000e+00  2.0606542741501747e-06 -3.2103991967426504e-06 0.0000000000000000e+00  2.4621887838594381e-06 -3.9859792431227323e-06 0.0000000000000000e+00  2.9156630799482202e-06 -4.9379530849218188e-06 0.0000000000000000e+00  3.4224274554168040e-06 -6.1049490453102196e-06 0.0000000000000000e+00  3.9812836744223757e-06 -7.5247223223634292e-06 0.0000000000000000e+00  4.5880353878666660e-06 -9.2221678474632071e-06 0.0000000000000000e+00  5.2353455382850769e-06 -1.1186799546926301e-05 0.0000000000000000e+00  5.9138316453267984e-06 -1.3340994018780362e-05 0.0000000000000000e+00  0.0000000000000000e+00 0.0000000000000000e+00 0.0000000000000000e+00  1.7726519376363308e-07 -2.3708077967173532e-07 0.0000000000000000e+00  3.6061867309056827e-07 -4.8364080159896167e-07 0.0000000000000000e+00  5.5627283755595475e-07 -7.4957067120419742e-07 0.0000000000000000e+00  7.7066881680444895e-07 -1.0455928917380572e-06 0.0000000000000000e+00  1.0105571493048512e-06 -1.3837169904874814e-06 0.0000000000000000e+00  1.2830307081915040e-06 -1.7777338722638287e-06 0.0000000000000000e+00  1.5954826207091987e-06 -2.2437438219295304e-06 0.0000000000000000e+00  1.9554534958784080e-06 -2.8006815377339108e-06 0.0000000000000000e+00  2.3703251395985311e-06 -3.4707376276015521e-06 0.0000000000000000e+00  2.8468172582805675e-06 -4.2794532256126144e-06 0.0000000000000000e+00  3.3902580339408517e-06 -5.2550490316124795e-06 0.0000000000000000e+00  4.0036396404432980e-06 -6.4262230745266428e-06 0.0000000000000000e+00  4.6865415542005009e-06 -7.8172887924949803e-06 0.0000000000000000e+00  5.4340917659179659e-06 -9.4394989589292958e-06 0.0000000000000000e+00  6.2361749830376854e-06 -1.1278731059092734e-05 0.0000000000000000e+00  7.0768990135617909e-06 -1.3284336003688359e-05 0.0000000000000000e+00  0.0000000000000000e+00 0.0000000000000000e+00 0.0000000000000000e+00  1.9114456965474689e-07 -2.4964007532239113e-07 0.0000000000000000e+00  3.8916894800970264e-07 -5.0901368267657232e-07 0.0000000000000000e+00  6.0113411672439310e-07 -7.8823307503607285e-07 0.0000000000000000e+00  8.3444914129907904e-07 -1.0981724940452751e-06 0.0000000000000000e+00  1.0970173952833439e-06 -1.4508659798056235e-06 0.0000000000000000e+00  1.3973391691601638e-06 -1.8599146445814434e-06 0.0000000000000000e+00  1.7445385807698413e-06 -2.3408840137812441e-06 0.0000000000000000e+00  2.1482665723988446e-06 -2.9116418860960750e-06 0.0000000000000000e+00  2.6184124963330510e-06 -3.5925341922392913e-06 0.0000000000000000e+00  3.1645395219173126e-06 -4.4062101790152915e-06 0.0000000000000000e+00  3.7949561770440714e-06 -5.3767839640240403e-06 0.0000000000000000e+00  4.5153705816515470e-06 -6.5278777928245041e-06 0.0000000000000000e+00  5.3271771699726184e-06 -7.8790229992796458e-06 0.0000000000000000e+00  6.2256219295950123e-06 -9.4401196896790572e-06 0.0000000000000000e+00  7.1983520159801362e-06 -1.1204537910748926e-05 0.0000000000000000e+00  8.2250337776847288e-06 -1.3143162077966378e-05 0.0000000000000000e+00  0.0000000000000000e+00 0.0000000000000000e+00 0.0000000000000000e+00  1.9814399699430089e-07 -2.5246730983223646e-07 0.0000000000000000e+00  4.0378072860860728e-07 -5.1454604001629220e-07 0.0000000000000000e+00  6.2465069350744907e-07 -7.9618555561203182e-07 0.0000000000000000e+00  8.6898495278802504e-07 -1.1080147059413688e-06 0.0000000000000000e+00  1.1457373756326693e-06 -1.4616856479612725e-06 0.0000000000000000e+00  1.4647889754807209e-06 -1.8702134936206596e-06 0.0000000000000000e+00  1.8370919377412943e-06 -2.3482925518038447e-06 0.0000000000000000e+00  2.2746957296941656e-06 -2.9125494358120881e-06 0.0000000000000000e+00  2.7905611033572752e-06 -3.5816616098650429e-06 0.0000000000000000e+00  3.3980216651882260e-06 -4.3762252989952466e-06 0.0000000000000000e+00  4.1097097656305410e-06 -5.3182027883526449e-06 0.0000000000000000e+00  4.9357600918795662e-06 -6.4297331811128650e-06 0.0000000000000000e+00  5.8812150816649459e-06 -7.7310936284007861e-06 0.0000000000000000e+00  6.9428904187624862e-06 -9.2377132861733663e-06 0.0000000000000000e+00  8.1065835581143032e-06 -1.0956395993105028e-05 0.0000000000000000e+00  9.3462166609456626e-06 -1.2881064918190695e-05 0.0000000000000000e+00  0.0000000000000000e+00 0.0000000000000000e+00 0.0000000000000000e+00  1.9765233683568364e-07 -2.4568678427327682e-07 0.0000000000000000e+00  4.0316349743253870e-07 -5.0052499178530419e-07 0.0000000000000000e+00  6.2471024671835788e-07 -7.7396054475288486e-07 0.0000000000000000e+00  8.7111372331364754e-07 -1.0760337431740723e-06 0.0000000000000000e+00  1.1521742869496043e-06 -1.4176760687751019e-06 0.0000000000000000e+00  1.4790099486008926e-06 -1.8110014858335023e-06 0.0000000000000000e+00  1.8643750387703699e-06 -2.2695813215177376e-06 0.0000000000000000e+00  2.3229034557923372e-06 -2.8086839513214475e-06 0.0000000000000000e+00  2.8711651596988992e-06 -3.4454518030915728e-06 0.0000000000000000e+00  3.5273368522836234e-06 -4.1989813127956984e-06 0.0000000000000000e+00  4.3101686491712082e-06 -5.0902708071611699e-06 0.0000000000000000e+00  5.2368131919786217e-06 -6.1420103894195101e-06 0.0000000000000000e+00  6.3190926605919738e-06 -7.3782003175910047e-06 0.0000000000000000e+00  7.5581836983513584e-06 -8.8235643482735556e-06 0.0000000000000000e+00  8.9388954957485971e-06 -1.0502585124982473e-05 0.0000000000000000e+00  1.0426764173846882e-05 -1.2437623134258511e-05 0.0000000000000000e+00  0.0000000000000000e+00 0.0000000000000000e+00 0.0000000000000000e+00  1.8930540572508636e-07 -2.2976055310200617e-07 0.0000000000000000e+00  3.8651697425977598e-07 -4.6791596462695012e-07 0.0000000000000000e+00  5.9992266952615043e-07 -7.2311194535489805e-07 0.0000000000000000e+00  8.3859925051286123e-07 -1.0045041082256900e-06 0.0000000000000000e+00  1.1128555630660773e-06 -1.3220128177368355e-06 0.0000000000000000e+00  1.4347283899351737e-06 -1.6865771188227605e-06 0.0000000000000000e+00  1.8185313409908644e-06 -2.1104070553627156e-06 0.0000000000000000e+00  2.2814264013697098e-06 -2.6072373638699256e-06 0.0000000000000000e+00  2.8439216666079317e-06 -3.1925970822586715e-06 0.0000000000000000e+00  3.5300688803443355e-06 -3.8841360933367085e-06 0.0000000000000000e+00  4.3669039771725381e-06 -4.7020987231172996e-06 0.0000000000000000e+00  5.3823261231081874e-06 -5.6701053463195074e-06 0.0000000000000000e+00  6.6002470913434835e-06 -6.8164610174390886e-06 0.0000000000000000e+00  8.0319225748703705e-06 -8.1761422117148597e-06 0.0000000000000000e+00  9.6640802564686556e-06 -9.7931867811980870e-06 0.0000000000000000e+00  1.1449537239746944e-05 -1.1722058558089225e-05 0.0000000000000000e+00  0.0000000000000000e+00 0.0000000000000000e+00 0.0000000000000000e+00  1.7305760539728631e-07 -2.0544682648037928e-07 0.0000000000000000e+00  3.5368454993971059e-07 -4.1827733456549653e-07 0.0000000000000000e+00  5.4987603160615202e-07 -6.4608277979502348e-07 0.0000000000000000e+00  7.7052161371371337e-07 -8.9687991679763158e-07 0.0000000000000000e+00  1.0259433418532942e-06 -1.1793249500773699e-06 0.0000000000000000e+00  1.3285485415568421e-06 -1.5029308555226636e-06 0.0000000000000000e+00  1.6936392653301609e-06 -1.8782942120258735e-06 0.0000000000000000e+00  2.1404084478189861e-06 -2.3173483749783969e-06 0.0000000000000000e+00  2.6931048927431491e-06 -2.8336845723638735e-06 0.0000000000000000e+00  3.3822137773277597e-06 -3.4430346330612113e-06 0.0000000000000000e+00  4.2451745553398726e-06 -4.1641088480089231e-06 0.0000000000000000e+00  5.3254770135922298e-06 -5.0201497256313185e-06 0.0000000000000000e+00  6.6677810093320326e-06 -6.0417797763129700e-06 0.0000000000000000e+00  8.3052808360246887e-06 -7.2718379208190689e-06 0.0000000000000000e+00  1.0235996797119497e-05 -8.7725547403768342e-06 0.0000000000000000e+00  1.2393572890896074e-05 -1.0634786984608088e-05 0.0000000000000000e+00  0.0000000000000000e+00 0.0000000000000000e+00 0.0000000000000000e+00  1.4924706119957268e-07 -1.7375780625826900e-07 0.0000000000000000e+00  3.0529730445466587e-07 -3.5367575397060243e-07 0.0000000000000000e+00  4.7538893371628401e-07 -5.4607856613856868e-07 0.0000000000000000e+00  6.6768678488837419e-07 -7.5763088795818842e-07 0.0000000000000000e+00  8.9187405880133320e-07 -9.9550837405369186e-07 0.0000000000000000e+00  1.1599201622534498e-06 -1.2675723635701781e-06 0.0000000000000000e+00  1.4871206822020303e-06 -1.5825545035008886e-06 0.0000000000000000e+00  1.8935359405574534e-06 -1.9502679258805409e-06 0.0000000000000000e+00  2.4059761777531760e-06 -2.3818861866151510e-06 0.0000000000000000e+00  3.0606421705431597e-06 -2.8903886498390578e-06 0.0000000000000000e+00  3.9062777455201437e-06 -3.4914016786584357e-06 0.0000000000000000e+00  5.0068341301714318e-06 -4.2049461592295540e-06 0.0000000000000000e+00  6.4403353871890354e-06 -5.0591301472845672e-06 0.0000000000000000e+00  8.2855904610929406e-06 -6.0974877775231111e-06 0.0000000000000000e+00  1.0581075654766640e-05 -7.3912291060357431e-06 0.0000000000000000e+00  1.3243150720788823e-05 -9.0531537674316807e-06 0.0000000000000000e+00  0.0000000000000000e+00 0.0000000000000000e+00 0.0000000000000000e+00  1.1864057643897982e-07 -1.3591731901356262e-07 0.0000000000000000e+00  2.4287920439201075e-07 -2.7660162035761654e-07 0.0000000000000000e+00  3.7871038903313827e-07 -4.2694186742441960e-07 0.0000000000000000e+00  5.3298321993392786e-07 -5.9208023578854003e-07 0.0000000000000000e+00  7.1397520482798732e-07 -7.7753814299568622e-07 0.0000000000000000e+00  9.3217928814360817e-07 -9.8934204789381707e-07 0.0000000000000000e+00  1.2014480986413060e-06 -1.2341494305279412e-06 0.0000000000000000e+00  1.5407270303141867e-06 -1.5193769846363241e-06 0.0000000000000000e+00  1.9767507584336675e-06 -1.8533389899319156e-06 0.0000000000000000e+00  2.5482865928631900e-06 -2.2454263142089873e-06 0.0000000000000000e+00  3.3127184602139047e-06 -2.7064406955667573e-06 0.0000000000000000e+00  4.3555826634928916e-06 -3.2494971119140661e-06 0.0000000000000000e+00  5.8015208173448702e-06 -3.8928587509449348e-06 0.0000000000000000e+00  7.8159984714894981e-06 -4.6685141020372178e-06 0.0000000000000000e+00  1.0559571281218961e-05 -5.6427801126450091e-06 0.0000000000000000e+00  1.4011154891839096e-05 -6.9267210392575038e-06 0.0000000000000000e+00  0.0000000000000000e+00 0.0000000000000000e+00 0.0000000000000000e+00  8.2443159114338212e-08 -9.3318050286568900e-08 0.0000000000000000e+00  1.6887909022915113e-07 -1.8988344853294237e-07 0.0000000000000000e+00  2.6360526376576134e-07 -2.9302375806004943e-07 0.0000000000000000e+00  3.7158203915229142e-07 -4.0623341095778090e-07 0.0000000000000000e+00  4.9889547524054814e-07 -5.3325483485490940e-07 0.0000000000000000e+00  6.5341978056112770e-07 -6.7815512837375550e-07 0.0000000000000000e+00  8.4583471163490735e-07 -8.4539159897430727e-07 0.0000000000000000e+00  1.0912793367815756e-06 -1.0398493454724851e-06 0.0000000000000000e+00  1.4121775369575627e-06 -1.2668091251856392e-06 0.0000000000000000e+00  1.8432911403325369e-06 -1.5317461080024181e-06 0.0000000000000000e+00  2.4411221776429256e-06 -1.8397456092342850e-06 0.0000000000000000e+00  3.3018411088631752e-06 -2.1941966042528038e-06 0.0000000000000000e+00  4.5949408930722585e-06 -2.5949522455114440e-06 0.0000000000000000e+00  6.6181442501356968e-06 -3.0418179746283871e-06 0.0000000000000000e+00  9.8302566779261424e-06 -3.5856435985051247e-06 0.0000000000000000e+00  1.4482158740789808e-05 -4.6686263378452404e-06 0.0000000000000000e+00  0.0000000000000000e+00 0.0000000000000000e+00 0.0000000000000000e+00  4.2259217558102982e-08 -4.7478473363034336e-08 0.0000000000000000e+00  8.6598497006065347e-08 -9.6601190063125548e-08 0.0000000000000000e+00  1.3526403827225184e-07 -1.4905203015941563e-07 0.0000000000000000e+00  1.9086563456975140e-07 -2.0659733709023946e-07 0.0000000000000000e+00  2.5663696907095835e-07 -2.7112497174404448e-07 0.0000000000000000e+00  3.3681865080183923e-07 -3.4467874213911339e-07 0.0000000000000000e+00  4.3726821330316408e-07 -4.2948060671673973e-07 0.0000000000000000e+00  5.6650089669304433e-07 -5.2791985349428044e-07 0.0000000000000000e+00  7.3759169939477993e-07 -6.4245055163775723e-07 0.0000000000000000e+00  9.7192377527790253e-07 -7.7522505849516896e-07 0.0000000000000000e+00  1.3072443305655229e-06 -9.2693245735732177e-07 0.0000000000000000e+00  1.8167923359812741e-06 -1.0931004487865568e-06 0.0000000000000000e+00  2.6600320694028697e-06 -1.2517436970755649e-06 0.0000000000000000e+00  4.2337860100469509e-06 -1.3192873024827255e-06 0.0000000000000000e+00  7.6771331286779470e-06 -9.8143926130197725e-07 0.0000000000000000e+00  1.6754850256249538e-05 1.0063163139384265e-06 0.0000000000000000e+00  0.0000000000000000e+00 0.0000000000000000e+00 0.0000000000000000e+00  0.0000000000000000e+00 0.0000000000000000e+00 0.0000000000000000e+00  0.0000000000000000e+00 0.0000000000000000e+00 0.0000000000000000e+00  0.0000000000000000e+00 0.0000000000000000e+00 0.0000000000000000e+00  0.0000000000000000e+00 0.0000000000000000e+00 0.0000000000000000e+00  0.0000000000000000e+00 0.0000000000000000e+00 0.0000000000000000e+00  0.0000000000000000e+00 0.0000000000000000e+00 0.0000000000000000e+00  0.0000000000000000e+00 0.0000000000000000e+00 0.0000000000000000e+00  0.0000000000000000e+00 0.0000000000000000e+00 0.00000