<?xml version="1.0"?>
<VTKFile type="UnstructuredGrid"  version="0.1"  >
<UnstructuredGrid>
<Piece  NumberOfPoints="1369" NumberOfCells="2560">
<Points>
<DataArray  type="Float64"  NumberOfComponents="3"  format="ascii">0 0 0  0.75 0 0  1.5 0 0  2.25 0 0  3 0 0  3.75 0 0  4.5 0 0  5.25 0 0  6 0 0  6.75 0 0  7.5 0 0  8.25 0 0  9 0 0  9.75 0 0  10.5 0 0  11.25 0 0  12 0 0  12.75 0 0  13.5 0 0  14.25 0 0  15 0 0  15.75 0 0  16.5 0 0  17.25 0 0  18 0 0  18.75 0 0  19.5 0 0  20.25 0 0  21 0 0  21.75 0 0  22.5 0 0  23.25 0 0  24 0 0  24.75 0 0  25.5 0 0  26.25 0 0  27 0 0  27.75 0 0  28.5 0 0  29.25 0 0  30 0 0  30.75 0 0  31.5 0 0  32.25 0 0  33 0 0  33.75 0 0  34.5 0 0  35.25 0 0  36 0 0  36.75 0 0  37.5 0 0  38.25 0 0  39 0 0  39.75 0 0  40.5 0 0  41.25 0 0  42 0 0  42.75 0 0  43.5 0 0  44.25 0 0  45 0 0  45.75 0 0  46.5 0 0  47.25 0 0  48 0 0  48.75 0 0  49.5 0 0  50.25 0 0  51 0 0  51.75 0 0  52.5 0 0  53.25 0 0  54 0 0  54.75 0 0  55.5 0 0  56.25 0 0  57 0 0  57.75 0 0  58.5 0 0  59.25 0 0  60 0 0  0 0.5 0  0.75 0.5 0  1.5 0.5 0  2.25 0.5 0  3 0.5 0  3.75 0.5 0  4.5 0.5 0  5.25 0.5 0  6 0.5 0  6.75 0.5 0  7.5 0.5 0  8.25 0.5 0  9 0.5 0  9.75 0.5 0  10.5 0.5 0  11.25 0.5 0  12 0.5 0  12.75 0.5 0  13.5 0.5 0  14.25 0.5 0  15 0.5 0  15.75 0.5 0  16.5 0.5 0  17.25 0.5 0  18 0.5 0  18.75 0.5 0  19.5 0.5 0  20.25 0.5 0  21 0.5 0  21.75 0.5 0  22.5 0.5 0  23.25 0.5 0  24 0.5 0  24.75 0.5 0  25.5 0.5 0  26.25 0.5 0  27 0.5 0  27.75 0.5 0  28.5 0.5 0  29.25 0.5 0  30 0.5 0  30.75 0.5 0  31.5 0.5 0  32.25 0.5 0  33 0.5 0  33.75 0.5 0  34.5 0.5 0  35.25 0.5 0  36 0.5 0  36.75 0.5 0  37.5 0.5 0  38.25 0.5 0  39 0.5 0  39.75 0.5 0  40.5 0.5 0  41.25 0.5 0  42 0.5 0  42.75 0.5 0  43.5 0.5 0  44.25 0.5 0  45 0.5 0  45.75 0.5 0  46.5 0.5 0  47.25 0.5 0  48 0.5 0  48.75 0.5 0  49.5 0.5 0  50.25 0.5 0  51 0.5 0  51.75 0.5 0  52.5 0.5 0  53.25 0.5 0  54 0.5 0  54.75 0.5 0  55.5 0.5 0  56.25 0.5 0  57 0.5 0  57.75 0.5 0  58.5 0.5 0  59.25 0.5 0  60 0.5 0  0 1 0  0.75 1 0  1.5 1 0  2.25 1 0  3 1 0  3.75 1 0  4.5 1 0  5.25 1 0  6 1 0  6.75 1 0  7.5 1 0  8.25 1 0  9 1 0  9.75 1 0  10.5 1 0  11.25 1 0  12 1 0  12.75 1 0  13.5 1 0  14.25 1 0  15 1 0  15.75 1 0  16.5 1 0  17.25 1 0  18 1 0  18.75 1 0  19.5 1 0  20.25 1 0  21 1 0  21.75 1 0  22.5 1 0  23.25 1 0  24 1 0  24.75 1 0  25.5 1 0  26.25 1 0  27 1 0  27.75 1 0  28.5 1 0  29.25 1 0  30 1 0  30.75 1 0  31.5 1 0  32.25 1 0  33 1 0  33.75 1 0  34.5 1 0  35.25 1 0  36 1 0  36.75 1 0  37.5 1 0  38.25 1 0  39 1 0  39.75 1 0  40.5 1 0  41.25 1 0  42 1 0  42.75 1 0  43.5 1 0  44.25 1 0  45 1 0  45.75 1 0  46.5 1 0  47.25 1 0  48 1 0  48.75 1 0  49.5 1 0  50.25 1 0  51 1 0  51.75 1 0  52.5 1 0  53.25 1 0  54 1 0  54.75 1 0  55.5 1 0  56.25 1 0  57 1 0  57.75 1 0  58.5 1 0  59.25 1 0  60 1 0  0 1.5 0  0.75 1.5 0  1.5 1.5 0  2.25 1.5 0  3 1.5 0  3.75 1.5 0  4.5 1.5 0  5.25 1.5 0  6 1.5 0  6.75 1.5 0  7.5 1.5 0  8.25 1.5 0  9 1.5 0  9.75 1.5 0  10.5 1.5 0  11.25 1.5 0  12 1.5 0  12.75 1.5 0  13.5 1.5 0  14.25 1.5 0  15 1.5 0  15.75 1.5 0  16.5 1.5 0  17.25 1.5 0  18 1.5 0  18.75 1.5 0  19.5 1.5 0  20.25 1.5 0  21 1.5 0  21.75 1.5 0  22.5 1.5 0  23.25 1.5 0  24 1.5 0  24.75 1.5 0  25.5 1.5 0  26.25 1.5 0  27 1.5 0  27.75 1.5 0  28.5 1.5 0  29.25 1.5 0  30 1.5 0  30.75 1.5 0  31.5 1.5 0  32.25 1.5 0  33 1.5 0  33.75 1.5 0  34.5 1.5 0  35.25 1.5 0  36 1.5 0  36.75 1.5 0  37.5 1.5 0  38.25 1.5 0  39 1.5 0  39.75 1.5 0  40.5 1.5 0  41.25 1.5 0  42 1.5 0  42.75 1.5 0  43.5 1.5 0  44.25 1.5 0  45 1.5 0  45.75 1.5 0  46.5 1.5 0  47.25 1.5 0  48 1.5 0  48.75 1.5 0  49.5 1.5 0  50.25 1.5 0  51 1.5 0  51.75 1.5 0  52.5 1.5 0  53.25 1.5 0  54 1.5 0  54.75 1.5 0  55.5 1.5 0  56.25 1.5 0  57 1.5 0  57.75 1.5 0  58.5 1.5 0  59.25 1.5 0  60 1.5 0  0 2 0  0.75 2 0  1.5 2 0  2.25 2 0  3 2 0  3.75 2 0  4.5 2 0  5.25 2 0  6 2 0  6.75 2 0  7.5 2 0  8.25 2 0  9 2 0  9.75 2 0  10.5 2 0  11.25 2 0  12 2 0  12.75 2 0  13.5 2 0  14.25 2 0  15 2 0  15.75 2 0  16.5 2 0  17.25 2 0  18 2 0  18.75 2 0  19.5 2 0  20.25 2 0  21 2 0  21.75 2 0  22.5 2 0  23.25 2 0  24 2 0  24.75 2 0  25.5 2 0  26.25 2 0  27 2 0  27.75 2 0  28.5 2 0  29.25 2 0  30 2 0  30.75 2 0  31.5 2 0  32.25 2 0  33 2 0  33.75 2 0  34.5 2 0  35.25 2 0  36 2 0  36.75 2 0  37.5 2 0  38.25 2 0  39 2 0  39.75 2 0  40.5 2 0  41.25 2 0  42 2 0  42.75 2 0  43.5 2 0  44.25 2 0  45 2 0  45.75 2 0  46.5 2 0  47.25 2 0  48 2 0  48.75 2 0  49.5 2 0  50.25 2 0  51 2 0  51.75 2 0  52.5 2 0  53.25 2 0  54 2 0  54.75 2 0  55.5 2 0  56.25 2 0  57 2 0  57.75 2 0  58.5 2 0  59.25 2 0  60 2 0  0 2.5 0  0.75 2.5 0  1.5 2.5 0  2.25 2.5 0  3 2.5 0  3.75 2.5 0  4.5 2.5 0  5.25 2.5 0  6 2.5 0  6.75 2.5 0  7.5 2.5 0  8.25 2.5 0  9 2.5 0  9.75 2.5 0  10.5 2.5 0  11.25 2.5 0  12 2.5 0  12.75 2.5 0  13.5 2.5 0  14.25 2.5 0  15 2.5 0  15.75 2.5 0  16.5 2.5 0  17.25 2.5 0  18 2.5 0  18.75 2.5 0  19.5 2.5 0  20.25 2.5 0  21 2.5 0  21.75 2.5 0  22.5 2.5 0  23.25 2.5 0  24 2.5 0  24.75 2.5 0  25.5 2.5 0  26.25 2.5 0  27 2.5 0  27.75 2.5 0  28.5 2.5 0  29.25 2.5 0  30 2.5 0  30.75 2.5 0  31.5 2.5 0  32.25 2.5 0  33 2.5 0  33.75 2.5 0  34.5 2.5 0  35.25 2.5 0  36 2.5 0  36.75 2.5 0  37.5 2.5 0  38.25 2.5 0  39 2.5 0  39.75 2.5 0  40.5 2.5 0  41.25 2.5 0  42 2.5 0  42.75 2.5 0  43.5 2.5 0  44.25 2.5 0  45 2.5 0  45.75 2.5 0  46.5 2.5 0  47.25 2.5 0  48 2.5 0  48.75 2.5 0  49.5 2.5 0  50.25 2.5 0  51 2.5 0  51.75 2.5 0  52.5 2.5 0  53.25 2.5 0  54 2.5 0  54.75 2.5 0  55.5 2.5 0  56.25 2.5 0  57 2.5 0  57.75 2.5 0  58.5 2.5 0  59.25 2.5 0  60 2.5 0  0 3 0  0.75 3 0  1.5 3 0  2.25 3 0  3 3 0  3.75 3 0  4.5 3 0  5.25 3 0  6 3 0  6.75 3 0  7.5 3 0  8.25 3 0  9 3 0  9.75 3 0  10.5 3 0  11.25 3 0  12 3 0  12.75 3 0  13.5 3 0  14.25 3 0  15 3 0  15.75 3 0  16.5 3 0  17.25 3 0  18 3 0  18.75 3 0  19.5 3 0  20.25 3 0  21 3 0  21.75 3 0  22.5 3 0  23.25 3 0  24 3 0  24.75 3 0  25.5 3 0  26.25 3 0  27 3 0  27.75 3 0  28.5 3 0  29.25 3 0  30 3 0  30.75 3 0  31.5 3 0  32.25 3 0  33 3 0  33.75 3 0  34.5 3 0  35.25 3 0  36 3 0  36.75 3 0  37.5 3 0  38.25 3 0  39 3 0  39.75 3 0  40.5 3 0  41.25 3 0  42 3 0  42.75 3 0  43.5 3 0  44.25 3 0  45 3 0  45.75 3 0  46.5 3 0  47.25 3 0  48 3 0  48.75 3 0  49.5 3 0  50.25 3 0  51 3 0  51.75 3 0  52.5 3 0  53.25 3 0  54 3 0  54.75 3 0  55.5 3 0  56.25 3 0  57 3 0  57.75 3 0  58.5 3 0  59.25 3 0  60 3 0  0 3.5 0  0.75 3.5 0  1.5 3.5 0  2.25 3.5 0  3 3.5 0  3.75 3.5 0  4.5 3.5 0  5.25 3.5 0  6 3.5 0  6.75 3.5 0  7.5 3.5 0  8.25 3.5 0  9 3.5 0  9.75 3.5 0  10.5 3.5 0  11.25 3.5 0  12 3.5 0  12.75 3.5 0  13.5 3.5 0  14.25 3.5 0  15 3.5 0  15.75 3.5 0  16.5 3.5 0  17.25 3.5 0  18 3.5 0  18.75 3.5 0  19.5 3.5 0  20.25 3.5 0  21 3.5 0  21.75 3.5 0  22.5 3.5 0  23.25 3.5 0  24 3.5 0  24.75 3.5 0  25.5 3.5 0  26.25 3.5 0  27 3.5 0  27.75 3.5 0  28.5 3.5 0  29.25 3.5 0  30 3.5 0  30.75 3.5 0  31.5 3.5 0  32.25 3.5 0  33 3.5 0  33.75 3.5 0  34.5 3.5 0  35.25 3.5 0  36 3.5 0  36.75 3.5 0  37.5 3.5 0  38.25 3.5 0  39 3.5 0  39.75 3.5 0  40.5 3.5 0  41.25 3.5 0  42 3.5 0  42.75 3.5 0  43.5 3.5 0  44.25 3.5 0  45 3.5 0  45.75 3.5 0  46.5 3.5 0  47.25 3.5 0  48 3.5 0  48.75 3.5 0  49.5 3.5 0  50.25 3.5 0  51 3.5 0  51.75 3.5 0  52.5 3.5 0  53.25 3.5 0  54 3.5 0  54.75 3.5 0  55.5 3.5 0  56.25 3.5 0  57 3.5 0  57.75 3.5 0  58.5 3.5 0  59.25 3.5 0  60 3.5 0  0 4 0  0.75 4 0  1.5 4 0  2.25 4 0  3 4 0  3.75 4 0  4.5 4 0  5.25 4 0  6 4 0  6.75 4 0  7.5 4 0  8.25 4 0  9 4 0  9.75 4 0  10.5 4 0  11.25 4 0  12 4 0  12.75 4 0  13.5 4 0  14.25 4 0  15 4 0  15.75 4 0  16.5 4 0  17.25 4 0  18 4 0  18.75 4 0  19.5 4 0  20.25 4 0  21 4 0  21.75 4 0  22.5 4 0  23.25 4 0  24 4 0  24.75 4 0  25.5 4 0  26.25 4 0  27 4 0  27.75 4 0  28.5 4 0  29.25 4 0  30 4 0  30.75 4 0  31.5 4 0  32.25 4 0  33 4 0  33.75 4 0  34.5 4 0  35.25 4 0  36 4 0  36.75 4 0  37.5 4 0  38.25 4 0  39 4 0  39.75 4 0  40.5 4 0  41.25 4 0  42 4 0  42.75 4 0  43.5 4 0  44.25 4 0  45 4 0  45.75 4 0  46.5 4 0  47.25 4 0  48 4 0  48.75 4 0  49.5 4 0  50.25 4 0  51 4 0  51.75 4 0  52.5 4 0  53.25 4 0  54 4 0  54.75 4 0  55.5 4 0  56.25 4 0  57 4 0  57.75 4 0  58.5 4 0  59.25 4 0  60 4 0  0.375 0.25 0  1.125 0.25 0  1.875 0.25 0  2.625 0.25 0  3.375 0.25 0  4.125 0.25 0  4.875 0.25 0  5.625 0.25 0  6.375 0.25 0  7.125 0.25 0  7.875 0.25 0  8.625 0.25 0  9.375 0.25 0  10.125 0.25 0  10.875 0.25 0  11.625 0.25 0  12.375 0.25 0  13.125 0.25 0  13.875 0.25 0  14.625 0.25 0  15.375 0.25 0  16.125 0.25 0  16.875 0.25 0  17.625 0.25 0  18.375 0.25 0  19.125 0.25 0  19.875 0.25 0  20.625 0.25 0  21.375 0.25 0  22.125 0.25 0  22.875 0.25 0  23.625 0.25 0  24.375 0.25 0  25.125 0.25 0  25.875 0.25 0  26.625 0.25 0  27.375 0.25 0  28.125 0.25 0  28.875 0.25 0  29.625 0.25 0  30.375 0.25 0  31.125 0.25 0  31.875 0.25 0  32.625 0.25 0  33.375 0.25 0  34.125 0.25 0  34.875 0.25 0  35.625 0.25 0  36.375 0.25 0  37.125 0.25 0  37.875 0.25 0  38.625 0.25 0  39.375 0.25 0  40.125 0.25 0  40.875 0.25 0  41.625 0.25 0  42.375 0.25 0  43.125 0.25 0  43.875 0.25 0  44.625 0.25 0  45.375 0.25 0  46.125 0.25 0  46.875 0.25 0  47.625 0.25 0  48.375 0.25 0  49.125 0.25 0  49.875 0.25 0  50.625 0.25 0  51.375 0.25 0  52.125 0.25 0  52.875 0.25 0  53.625 0.25 0  54.375 0.25 0  55.125 0.25 0  55.875 0.25 0  56.625 0.25 0  57.375 0.25 0  58.125 0.25 0  58.875 0.25 0  59.625 0.25 0  0.375 0.75 0  1.125 0.75 0  1.875 0.75 0  2.625 0.75 0  3.375 0.75 0  4.125 0.75 0  4.875 0.75 0  5.625 0.75 0  6.375 0.75 0  7.125 0.75 0  7.875 0.75 0  8.625 0.75 0  9.375 0.75 0  10.125 0.75 0  10.875 0.75 0  11.625 0.75 0  12.375 0.75 0  13.125 0.75 0  13.875 0.75 0  14.625 0.75 0  15.375 0.75 0  16.125 0.75 0  16.875 0.75 0  17.625 0.75 0  18.375 0.75 0  19.125 0.75 0  19.875 0.75 0  20.625 0.75 0  21.375 0.75 0  22.125 0.75 0  22.875 0.75 0  23.625 0.75 0  24.375 0.75 0  25.125 0.75 0  25.875 0.75 0  26.625 0.75 0  27.375 0.75 0  28.125 0.75 0  28.875 0.75 0  29.625 0.75 0  30.375 0.75 0  31.125 0.75 0  31.875 0.75 0  32.625 0.75 0  33.375 0.75 0  34.125 0.75 0  34.875 0.75 0  35.625 0.75 0  36.375 0.75 0  37.125 0.75 0  37.875 0.75 0  38.625 0.75 0  39.375 0.75 0  40.125 0.75 0  40
[...]
<PointData  Scalars="f_8-1"> 
<DataArray  type="Float64"  Name="f_8-1"  format="ascii">-5.4457713304721533e+00  -5.3807331913737295e+00  -5.3104400204815398e+00  -5.2431073700641129e+00  -5.1748317119201470e+00  -5.1069034627590595e+00  -5.0387456261192796e+00  -4.9706555937786847e+00  -4.9025186979899615e+00  -4.8344148561135931e+00  -4.7663120947611120e+00  -4.6982247878703163e+00  -4.6301400823221881e+00  -4.5620580685947898e+00  -4.4939762917093660e+00  -4.4258942422718919e+00  -4.3578124537923539e+00  -4.2897303096552282e+00  -4.2216484335410112e+00  -4.1535663429701044e+00  -4.0854844140209829e+00  -4.0174023708779298e+00  -3.9493204085198679e+00  -3.8812383901810836e+00  -3.8131564089712229e+00  -3.7450744016968027e+00  -3.6769924104130673e+00  -3.6089104072708329e+00  -3.5408284104369159e+00  -3.4727464081391619e+00  -3.4046644079044222e+00  -3.3365824049566783e+00  -3.2685004022879514e+00  -3.2004183980384733e+00  -3.1323363933500858e+00  -3.0642543875269159e+00  -2.9961723809879950e+00  -2.9280903734826222e+00  -2.8600083651590578e+00  -2.7919263559300944e+00  -2.7238443458464050e+00  -2.6557623348786592e+00  -2.5876803230435907e+00  -2.5195983103316517e+00  -2.4515162967482134e+00  -2.3834342822902452e+00  -2.3153522669594557e+00  -2.2472702507548195e+00  -2.1791882336768711e+00  -2.1111062157252163e+00  -2.0430241969000598e+00  -1.9749421772010851e+00  -1.9068601566282546e+00  -1.8387781351810297e+00  -1.7706961128591512e+00  -1.7026140896609967e+00  -1.6345320655852791e+00  -1.5664500406267237e+00  -1.4983680147793461e+00  -1.4302859880244123e+00  -1.3622039603340645e+00  -1.2941219316353081e+00  -1.2260399018000132e+00  -1.1579578705231863e+00  -1.0898758372199999e+00  -1.0217938005847700e+00  -9.5371175804418518e-01  -8.8562970420664366e-01  -8.1754762874642462e-01  -7.4946551181340115e-01  -6.8138331859506351e-01  -6.1330099127391635e-01  -5.4521845016488757e-01  -4.7713562075613741e-01  -4.0905255291607834e-01  -3.4096975962162934e-01  -2.7288930588600158e-01  -2.0481732991936630e-01  -1.3677772323755974e-01  -6.8722605365677966e-02  -3.0371339081298821e-03  -5.4483975823131949e+00  -5.3797861331712289e+00  -5.3109997633730606e+00  -5.2429808816635228e+00  -5.1749774311321772e+00  -5.1069049139523939e+00  -5.0388237569051872e+00  -4.9706936273281350e+00  -4.9025787046495495e+00  -4.8344619907673136e+00  -4.7663650864442078e+00  -4.6982737177061606e+00  -4.6301904037452610e+00  -4.5621075546223731e+00  -4.4940259860282374e+00  -4.4259439187156406e+00  -4.3578620328189608e+00  -4.2897800097827101e+00  -4.2216980122377477e+00  -4.1536160250291942e+00  -4.0855340121818919e+00  -4.0174520333530799e+00  -3.9493700227857089e+00  -3.8812880395755758e+00  -3.8132060331349971e+00  -3.7451240436680857e+00  -3.6770420399690922e+00  -3.6089600453660768e+00  -3.5408780427310420e+00  -3.4727960443264605e+00  -3.4047140415128543e+00  -3.3366320402540630e+00  -3.2685500364943261e+00  -3.2004680329426951e+00  -3.1323860278145870e+00  -3.0643040222666440e+00  -2.9962220155585810e+00  -2.9281400081572140e+00  -2.8600579997714686e+00  -2.7919759905803878e+00  -2.7238939804748918e+00  -2.6558119695206091e+00  -2.5877299576783401e+00  -2.5196479449711959e+00  -2.4515659313856397e+00  -2.3834839169295150e+00  -2.3154019015982996e+00  -2.2473198853945098e+00  -2.1792378683167128e+00  -2.1111558503655981e+00  -2.0430738315407631e+00  -1.9749918118421936e+00  -1.9069097912698432e+00  -1.8388277698230320e+00  -1.7707457475019099e+00  -1.7026637243045157e+00  -1.6345817002306540e+00  -1.5664996752747757e+00  -1.4984176494337591e+00  -1.4303356226905053e+00  -1.3622535950258554e+00  -1.2941715663789799e+00  -1.2260895366536115e+00  -1.1580075056044978e+00  -1.0899254727750667e+00  -1.0218434371144589e+00  -9.5376139655012548e-01  -8.8567934665802028e-01  -8.1759727883595623e-01  -7.4951517631159625e-01  -6.8143300912461491e-01  -6.1335072651148692e-01  -5.4526825460441997e-01  -4.7718551681742200e-01  -4.0910253436756133e-01  -3.4101970896810424e-01  -2.7293869752733424e-01  -2.0486520900309219e-01  -1.3680997925010632e-01  -6.8893872137068338e-02  4.9549592532213842e-05  -5.4475930268996198e+00  -5.3799275967061844e+00  -5.3111341227183937e+00  -5.2431551614516589e+00  -5.1749781977987839e+00  -5.1069610319873693e+00  -5.0388259821753749e+00  -4.9707355621015363e+00  -4.9025999919392964e+00  -4.8345004888672225e+00  -4.7663935801350128e+00  -4.6983071467842397e+00  -4.6302186863470327e+00  -4.5621373162464645e+00  -4.4940539593238933e+00  -4.4259725340393699e+00  -4.3578901597830448e+00  -4.2898083307084631e+00  -4.2217262489431882e+00  -4.1536442651978520e+00  -4.0855622810277099e+00  -4.0174802580928164e+00  -3.9493982921848003e+00  -3.8813162681177955e+00  -3.8132342956655125e+00  -3.7451522789951057e+00  -3.6770702961490072e+00  -3.6089882859619289e+00  -3.5409062946662830e+00  -3.4728242881825380e+00  -3.4047422910109502e+00  -3.3366602858861736e+00  -3.2685782847321607e+00  -3.2004962794549709e+00  -3.1324142754539328e+00  -3.0643322691821115e+00  -2.9962502629338887e+00  -2.9281682552453097e+00  -2.8600862470376875e+00  -2.7920042377382610e+00  -2.7239222276987012e+00  -2.6558402167053927e+00  -2.5877582048866508e+00  -2.5196761921661026e+00  -2.4515941785887350e+00  -2.3835121641282710e+00  -2.3154301487999267e+00  -2.2473481325949045e+00  -2.1792661155182000e+00  -2.1111840975668987e+00  -2.0431020787425789e+00  -1.9750200590441589e+00  -1.9069380384720636e+00  -1.8388560170253980e+00  -1.7707739947039902e+00  -1.7026919715058317e+00  -1.6346099474292581e+00  -1.5665279224678459e+00  -1.4984458966131928e+00  -1.4303638698423145e+00  -1.3622818421169318e+00  -1.2941998133476900e+00  -1.2261177833678745e+00  -1.1580357518162498e+00  -1.0899537179891583e+00  -1.0218716804262931e+00  -9.5378963627375613e-01  -8.8570757986492599e-01  -8.1762550048032645e-01  -7.4954337823091755e-01  -6.8146117810606577e-01  -6.1337884078272353e-01  -5.4529627165560357e-01  -4.7721333158938395e-01  -4.0912983420115301e-01  -3.4104551058203830e-01  -2.7295988541847993e-01  -2.0487167383450508e-01  -1.3677602634127622e-01  -6.8595569023666939e-02  -2.5599285910828355e-05  -5.4480999256069200e+00  -5.3794855835419844e+00  -5.3114488314012593e+00  -5.2430193873137876e+00  -5.1750612335443869e+00  -5.1068605746910949e+00  -5.0388292350555677e+00  -4.9706743753781275e+00  -4.9025901063708170e+00  -4.8344637490903315e+00  -4.7663750456052973e+00  -4.6982751166295360e+00  -4.6301921739199932e+00  -4.5621051421081305e+00  -4.4940238460077122e+00  -4.4259405919804404e+00  -4.3578589821287474e+00  -4.2897766869071603e+00  -4.2216947706905010e+00  -4.1536127486478618e+00  -4.0855307234432514e+00  -4.0174487688275393e+00  -3.9493667262684053e+00  -3.8812847726151092e+00  -3.8132027397930641e+00  -3.7451207715860075e+00  -3.6770387511307199e+00  -3.6089567691410123e+00  -3.5408747572068320e+00  -3.4727927654808624e+00  -3.4047107579668912e+00  -3.3366287599580127e+00  -3.2685467539951820e+00  -3.2004647519172837e+00  -3.1323827458221309e+00  -3.0643007409022194e+00  -2.9962187337938602e+00  -2.9281367266456586e+00  -2.8600547181027247e+00  -2.7919727090087156e+00  -2.7238906988443707e+00  -2.6558086879256400e+00  -2.5877266760622781e+00  -2.5196446633676621e+00  -2.4515626497748371e+00  -2.3834806353229725e+00  -2.3153986199893635e+00  -2.2473166037870258e+00  -2.1792345867085006e+00  -2.1111525687579671e+00  -2.0430705499329842e+00  -1.9749885302347503e+00  -1.9069065096622946e+00  -1.8388244882155309e+00  -1.7707424658933486e+00  -1.7026604426939540e+00  -1.6345784186136492e+00  -1.5664963936448346e+00  -1.4984143677723798e+00  -1.4303323409649462e+00  -1.3622503131594783e+00  -1.2941682842264615e+00  -1.2260862539052428e+00  -1.1580042216692277e+00  -1.0899221864728317e+00  -1.0218401462566920e+00  -9.5375809704464065e-01  -8.8567603129975225e-01  -8.1759393513352663e-01  -7.4951178371089322e-01  -6.8142953403300333e-01  -6.1334711333834679e-01  -5.4526439927079751e-01  -4.7718117738733140e-01  -4.0909702217727706e-01  -3.4101093047645659e-01  -2.7292020027108466e-01  -2.0481693545230725e-01  -1.3667677558901675e-01  -6.8431762955749750e-02  -1.9688311086021494e-05  -5.4477526497061746e+00  -5.3797158162127330e+00  -5.3112439729999679e+00  -5.2431965340308508e+00  -5.1749365925635225e+00  -5.1069318433716839e+00  -5.0387626199723856e+00  -4.9706991796562479e+00  -4.9025581555789834e+00  -4.8344702251640284e+00  -4.7663575574353363e+00  -4.6982720477721429e+00  -4.6301792951984675e+00  -4.5620974819162621e+00  -4.4940126228176656e+00  -4.4259311963839094e+00  -4.3578485018339528e+00  -4.2897667069941274e+00  -4.2216845859713450e+00  -4.1536025892237554e+00  -4.0855206230320356e+00  -4.0174385734534592e+00  -3.9493566314698891e+00  -3.8812745854292610e+00  -3.8131926305351209e+00  -3.7451105999097427e+00  -3.6770286275213766e+00  -3.6089466096230876e+00  -3.5408646238548971e+00  -3.4727826134871536e+00  -3.4047006190047275e+00  -3.3366186120573080e+00  -3.2685366121284622e+00  -3.2004546060455463e+00  -3.1323726025717775e+00  -3.0642905959622753e+00  -2.9962085899294881e+00  -2.9281265821061213e+00  -2.8600445739823219e+00  -2.7919625646313793e+00  -2.7238805546229266e+00  -2.6557985436106186e+00  -2.5877165318028319e+00  -2.5196345190754390e+00  -2.4515525055016796e+00  -2.3834704910387297e+00  -2.3153884757114227e+00  -2.2473064595054608e+00  -2.1792244424289775e+00  -2.1111424244773400e+00  -2.0430604056530801e+00  -1.9749783859546302e+00  -1.9068963653825779e+00  -1.8388143439360047e+00  -1.7707323216142004e+00  -1.7026502984150724e+00  -1.6345682743346908e+00  -1.5664862493647875e+00  -1.4984042234885524e+00  -1.4303221966714126e+00  -1.3622401688427199e+00  -1.2941581398584610e+00  -1.2260761094270709e+00  -1.1579940769635055e+00  -1.0899120413077279e+00  -1.0218300001930971e+00  -9.5374794926945294e-01  -8.8566588036791261e-01  -8.1758377854821607e-01  -7.4950161728667564e-01  -6.8141935081983973e-01  -6.1333690156924170e-01  -5.4525413643433118e-01  -4.7717081015607704e-01  -4.0908640165034943e-01  -3.4099961713714350e-01  -2.7290686857339952e-01  -2.0479769528327976e-01  -1.3664328684313937e-01  -6.8387824062150354e-02  -1.3761176813288463e-05  -5.4480999478857610e+00  -5.3794855429231978e+00  -5.3114488074178743e+00  -5.2430193494697299e+00  -5.1750612397333144e+00  -5.1068605834848322e+00  -5.0388292597282058e+00  -4.9706743941105334e+00  -4.9025901237616401e+00  -4.8344637569297237e+00  -4.7663750486726961e+00  -4.6982751151160418e+00  -4.6301921719752244e+00  -4.5621051402296784e+00  -4.4940238455023858e+00  -4.4259405924614486e+00  -4.3578589837370245e+00  -4.2897766892247420e+00  -4.2216947736482489e+00  -4.1536127519999422e+00  -4.0855307271222578e+00  -4.0174487727092174e+00  -3.9493667303109161e+00  -3.8812847767581666e+00  -3.8132027440136449e+00  -3.7451207758555136e+00  -3.6770387554370272e+00  -3.6089567734708887e+00  -3.5408747615539431e+00  -3.4727927698392560e+00  -3.4047107623332944e+00  -3.3366287643297863e+00  -3.2685467583706709e+00  -3.2004647562953017e+00  -3.1323827502018751e+00  -3.0643007452831541e+00  -2.9962187381755983e+00  -2.9281367310279571e+00  -2.8600547224853949e+00  -2.7919727133916528e+00  -2.7238907032274793e+00  -2.6558086923088826e+00  -2.5877266804456216e+00  -2.5196446677510833e+00  -2.4515626541583355e+00  -2.3834806397065660e+00  -2.3153986243730302e+00  -2.2473166081708325e+00  -2.1792345910924786e+00  -2.1111525731422032e+00  -2.0430705543175831e+00  -1.9749885346198826e+00  -1.9069065140482060e+00  -1.8388244926025823e+00  -1.7707424702820627e+00  -1.7026604470850935e+00  -1.6345784230083140e+00  -1.5664963980446327e+00  -1.4984143721796295e+00  -1.4303323453830130e+00  -1.3622503175932010e+00  -1.2941682886828554e+00  -1.2260862583944385e+00  -1.1580042262059431e+00  -1.0899221910785977e+00  -1.0218401509631776e+00  -9.5375810189908516e-01  -8.8567603637351255e-01  -8.1759394053590506e-01  -7.4951178961091025e-01  -6.8142954069335904e-01  -6.1334712117223300e-01  -5.4526440895359440e-01  -4.7718119010675958e-01  -4.0909704018127940e-01  -3.4101095805124115e-01  -2.7292024489617661e-01  -2.0481700811598588e-01  -1.3667688413994072e-01  -6.8431873833338625e-02  -1.9698454283234636e-05  -5.4475929747625882e+00  -5.3799275881051569e+00  -5.3111340052201292e+00  -5.2431551271120407e+00  -5.1749781928076040e+00  -5.1069610768896538e+00  -5.0388260274252259e+00  -4.9707356145053723e+00  -4.9026000294157956e+00  -4.8345005130189458e+00  -4.7663935878227104e+00  -4.6983071481466467e+00  -4.6302186849148654e+00  -4.5621373168594257e+00  -4.4940539620726225e+00  -4.4259725396081748e+00  -4.3578901672943164e+00  -4.2898083399711826e+00  -4.2217262593354485e+00  -4.1536442765103141e+00  -4.0855622929292670e+00  -4.0174802704530261e+00  -3.9493983048398387e+00  -3.8813162809958421e+00  -3.8132343086877998e+00  -3.7451522921239118e+00  -3.6770703093474206e+00  -3.6089882992106044e+00  -3.5409063079482270e+00  -3.4728243014879943e+00  -3.4047423043321996e+00  -3.3366602992183618e+00  -3.2685782980718208e+00  -3.2004962927997185e+00  -3.1324142888021687e+00  -3.0643322825327166e+00  -2.9962502762861303e+00  -2.9281682685986699e+00  -2.8600862603918125e+00  -2.7920042510929002e+00  -2.7239222410537169e+00  -2.6558402300606567e+00  -2.5877582182421093e+00  -2.5196762055217268e+00  -2.4515941919445177e+00  -2.3835121774842238e+00  -2.3154301621560589e+00  -2.2473481459512921e+00  -2.1792661288749269e+00  -2.1111841109241354e+00  -2.0431020921005443e+00  -1.9750200724031775e+00  -1.9069380518326273e+00  -1.8388560303882202e+00  -1.7707740080701162e+00  -1.7026919848767748e+00  -1.6346099608071898e+00  -1.5665279358559772e+00  -1.4984459100161223e+00  -1.4303638832667309e+00  -1.3622818555724696e+00  -1.2941998268482795e+00  -1.2261177969336421e+00  -1.1580357654764086e+00  -1.0899537317862706e+00  -1.0218716944228101e+00  -9.5378965056222220e-01  -8.8570759458426418e-01  -8.1762551584206633e-01  -7.4954339456129904e-01  -6.8146119591326149e-01  -6.1337886086727411e-01  -5.4529629531137269e-01  -4.7721336102248324e-01  -4.0912987346036972e-01  -3.4104556746356773e-01  -2.7295997447431430e-01  -2.0487181902517948e-01  -1.3677626003984322e-01  -6.8595858743135951e-02  -2.5630892696528955e-05  -5.4483976988535661e+00  -5.3797860911053883e+00  -5.3109996282058729e+00  -5.2429808420366495e+00  -5.1749774787009120e+00  -5.1069050048872935e+00  -5.0388238645947272e+00  -4.9706937301054879e+00  -4.9025787927023359e+00  -4.8344620546553845e+00  -4.7663651324197831e+00  -4.6982737541229529e+00  -4.6301904387738366e+00  -4.5621075918733522e+00  -4.4940260268873340e+00  -4.4259439629311652e+00  -4.3578620798467984e+00  -4.2897800589174624e+00  -4.2216980629457890e+00  -4.1536160768541110e+00  -4.0855340648114966e+00  -4.0174520865437167e+00  -3.9493700763738904e+00  -3.8812880934383664e+00  -3.8132060871902387e+00  -3.7451240978554718e+00  -3.6770420942483444e+00  -3.6089600997082507e+00  -3.5408780971166314e+00  -3.4727960987417874e+00  -3.4047140959485565e+00  -3.3366320947037327e+00  -3.2685500909535432e+00  -3.2004680874084528e+00  -3.1323860822847882e+00  -3.0643040767398926e+00  -2.9962220700339062e+00  -2.9281400626339877e+00  -2.8600580542492033e+00  -2.7919760450588038e+00  -2.7238940349537732e+00  -2.6558120239998093e+00  -2.5877300121577949e+00  -2.5196479994508589e+00  -2.4515659858655141e+00  -2.3834839714095928e+00  -2.3154019560786185e+00  -2.2473199398751502e+00  -2.1792379227977854e+00  -2.1111559048473203e+00  -2.0430738860234077e+00  -1.9749918663261798e+00  -1.9069098457557880e+00  -1.8388278243118581e+00  -1.7707458019949354e+00  -1.7026637788036414e+00  -1.6345817547386761e+00  -1.5664997297957510e+00  -1.4984177039735254e+00  -1.4303356772575375e+00  -1.3622536496323929e+00  -1.2941716210426533e+00  -1.2260895913999263e+00  -1.1580075604704556e+00  -1.0899255278146009e+00  -1.0218434924068422e+00  -9.5376145221310016e-01  -8.8567940286879199e-01  -8.1759733586468430e-01  -7.4951523457409674e-01  -6.8143306926484637e-01  -6.1335078953646294e-01  -5.4526832214014975e-01  -4.7718559167390395e-01  -4.0910262182163565e-01  -3.4101981934233044e-01  -2.7293885028326514e-01  -2.0486543842967811e-01  -1.3681034126111988e-01  -6.8894552372865916e-02  4.9509968324519252e-05  -5.4457711383295662e+00  -5.3807333508493160e+00  -5.3104398160836839e+00  -5.2431073985717536e+00  -5.1748317844057876e+00  -5.1069035973887971e+00  -5.0387457677636318e+00  -4.9706557305031556e+00  -4.9025188150494534e+00  -4.8344149498821638e+00  -4.7663121703840421e+00  -4.6982248554436197e+00  -4.6301401486583869e+00  -4.5620581378963099e+00  -4.4939763647310240e+00  -4.4258943190275355e+00  -4.3578125334529139e+00  -4.2897303916090843e+00  -4.2216485171272584e+00  -4.1535664277613611e+00  -4.0854844996492581e+00  -4.0174024571084335e+00  -3.9493204951643901e+00  -3.8812384771193416e+00  -3.8131564961101865e+00  -3.7450744889766536e+00  -3.6769924977889397e+00  -3.6089104947135153e+00  -3.5408284979251388e+00  -3.4727464956588805e+00  -3.4046644954455276e+00  -3.3365824925125072e+00  -3.2685004898538579e+00  -3.2004184856112485e+00  -3.1323364809275680e+00  -3.0642544751075902e+00  -2.9961724685708671e+00  -2.9280904610670131e+00  -2.8600084527444682e+00  -2.7919264435162150e+00  -2.7238444334330105e+00  -2.6557624224656005e+00  -2.5876804106308016e+00  -2.5195983979190686e+00  -2.4515163843358470e+00  -2.3834343698780911e+00  -2.3153523545475183e+00  -2.2472703383431902e+00  -2.1791883212656584e+00  -2.1111063033146422e+00  -2.0430242844903375e+00  -1.9749422647926345e+00  -1.9068602442216658e+00  -1.8387782227771741e+00  -1.7706962004592612e+00  -1.7026141772668764e+00  -1.6345321531995649e+00  -1.5664501282532404e+00  -1.4983681024235824e+00  -1.4302860756943450e+00  -1.3622040480411999e+00  -1.2941220193962160e+00  -1.2260399896386818e+00  -1.1579579584744726e+00  -1.0898759253348431e+00  -1.0217938889383413e+00  -9.5371184674871201e-01  -8.8562979343194714e-01  -8.1754771875266397e-01  -7.4946560300280973e-01  -6.8138341159452742e-01  -6.1330108707608710e-01  -5.4521855040860545e-01  -4.7713572835572421e-01  -4.0905267344735530e-01  -3.4096990392407373e-01  -2.7288949395891998e-01  -2.0481759578938505e-01  -1.3677813106631898e-01  -6.8723178959054027e-02  -3.0401177611548368e-03  -5.4150897486058085e+00  -5.3453305619287086e+00  -5.2771189017426146e+00  -5.2090859900090365e+00  -5.1410525680252759e+00  -5.0729834513989625e+00  -5.0048712862204709e+00  -4.9367529723138182e+00  -4.8686344901648448e+00  -4.8005296849455332e+00  -4.7324348173127913e+00  -4.6643483335305573e+00  -4.5962650304264816e+00  -4.5281830422612899e+00  -4.4601011494296472e+00  -4.3920192232494397e+00  -4.3239372562778202e+00  -4.2558552495060145e+00  -4.1877732632927271e+00  -4.1196912552890064e+00  -4.0516092683805329e+00  -3.9835272656921674e+00  -3.9154452756538345e+00  -3.8473632753569951e+00  -3.7792812816684576e+00  -3.7111992818764334e+00  -3.6431172850968063e+00  -3.5750352847671820e+00  -3.5069532854627794e+00  -3.4388712840084699e+00  -3.3707892825531904e+00  -3.3027072796540109e+00  -3.2346252762590084e+00  -3.1665432717505508e+00  -3.0984612665231546e+00  -3.0303792603267632e+00  -2.9622972533169607e+00  -2.8942152453975476e+00  -2.8261332366269754e+00  -2.7580512269698825e+00  -2.6899692164472713e+00  -2.6218872050466695e+00  -2.5538051927753229e+00  -2.4857231796289971e+00  -2.4176411656101364e+00  -2.3495591507173041e+00  -2.2814771349512930e+00  -2.2133951183116296e+00  -2.1453131007985342e+00  -2.0772310824117506e+00  -2.0091490631513182e+00  -1.9410670430171204e+00  -1.8729850220087740e+00  -1.8049030001260868e+00  -1.7368209773680208e+00  -1.6687389537336348e+00  -1.6006569292198340e+00  -1.5325749038223995e+00  -1.4644928775308415e+00  -1.3964108503266450e+00  -1.3283288221692002e+00  -1.2602467929765819e+00  -1.1921647625751794e+00  -1.1240827305970731e+00  -1.0560006962676203e+00  -9.8791865794873224e-01  -9.1983661227735691e-01  -8.517545524397