<?xml version="1.0"?>
<VTKFile type="UnstructuredGrid"  version="0.1"  >
<UnstructuredGrid>
<Piece  NumberOfPoints="1369" NumberOfCells="2560">
<Points>
<DataArray  type="Float64"  NumberOfComponents="3"  format="ascii">0 0 0  0.75 0 0  1.5 0 0  2.25 0 0  3 0 0  3.75 0 0  4.5 0 0  5.25 0 0  6 0 0  6.75 0 0  7.5 0 0  8.25 0 0  9 0 0  9.75 0 0  10.5 0 0  11.25 0 0  12 0 0  12.75 0 0  13.5 0 0  14.25 0 0  15 0 0  15.75 0 0  16.5 0 0  17.25 0 0  18 0 0  18.75 0 0  19.5 0 0  20.25 0 0  21 0 0  21.75 0 0  22.5 0 0  23.25 0 0  24 0 0  24.75 0 0  25.5 0 0  26.25 0 0  27 0 0  27.75 0 0  28.5 0 0  29.25 0 0  30 0 0  30.75 0 0  31.5 0 0  32.25 0 0  33 0 0  33.75 0 0  34.5 0 0  35.25 0 0  36 0 0  36.75 0 0  37.5 0 0  38.25 0 0  39 0 0  39.75 0 0  40.5 0 0  41.25 0 0  42 0 0  42.75 0 0  43.5 0 0  44.25 0 0  45 0 0  45.75 0 0  46.5 0 0  47.25 0 0  48 0 0  48.75 0 0  49.5 0 0  50.25 0 0  51 0 0  51.75 0 0  52.5 0 0  53.25 0 0  54 0 0  54.75 0 0  55.5 0 0  56.25 0 0  57 0 0  57.75 0 0  58.5 0 0  59.25 0 0  60 0 0  0 0.5 0  0.75 0.5 0  1.5 0.5 0  2.25 0.5 0  3 0.5 0  3.75 0.5 0  4.5 0.5 0  5.25 0.5 0  6 0.5 0  6.75 0.5 0  7.5 0.5 0  8.25 0.5 0  9 0.5 0  9.75 0.5 0  10.5 0.5 0  11.25 0.5 0  12 0.5 0  12.75 0.5 0  13.5 0.5 0  14.25 0.5 0  15 0.5 0  15.75 0.5 0  16.5 0.5 0  17.25 0.5 0  18 0.5 0  18.75 0.5 0  19.5 0.5 0  20.25 0.5 0  21 0.5 0  21.75 0.5 0  22.5 0.5 0  23.25 0.5 0  24 0.5 0  24.75 0.5 0  25.5 0.5 0  26.25 0.5 0  27 0.5 0  27.75 0.5 0  28.5 0.5 0  29.25 0.5 0  30 0.5 0  30.75 0.5 0  31.5 0.5 0  32.25 0.5 0  33 0.5 0  33.75 0.5 0  34.5 0.5 0  35.25 0.5 0  36 0.5 0  36.75 0.5 0  37.5 0.5 0  38.25 0.5 0  39 0.5 0  39.75 0.5 0  40.5 0.5 0  41.25 0.5 0  42 0.5 0  42.75 0.5 0  43.5 0.5 0  44.25 0.5 0  45 0.5 0  45.75 0.5 0  46.5 0.5 0  47.25 0.5 0  48 0.5 0  48.75 0.5 0  49.5 0.5 0  50.25 0.5 0  51 0.5 0  51.75 0.5 0  52.5 0.5 0  53.25 0.5 0  54 0.5 0  54.75 0.5 0  55.5 0.5 0  56.25 0.5 0  57 0.5 0  57.75 0.5 0  58.5 0.5 0  59.25 0.5 0  60 0.5 0  0 1 0  0.75 1 0  1.5 1 0  2.25 1 0  3 1 0  3.75 1 0  4.5 1 0  5.25 1 0  6 1 0  6.75 1 0  7.5 1 0  8.25 1 0  9 1 0  9.75 1 0  10.5 1 0  11.25 1 0  12 1 0  12.75 1 0  13.5 1 0  14.25 1 0  15 1 0  15.75 1 0  16.5 1 0  17.25 1 0  18 1 0  18.75 1 0  19.5 1 0  20.25 1 0  21 1 0  21.75 1 0  22.5 1 0  23.25 1 0  24 1 0  24.75 1 0  25.5 1 0  26.25 1 0  27 1 0  27.75 1 0  28.5 1 0  29.25 1 0  30 1 0  30.75 1 0  31.5 1 0  32.25 1 0  33 1 0  33.75 1 0  34.5 1 0  35.25 1 0  36 1 0  36.75 1 0  37.5 1 0  38.25 1 0  39 1 0  39.75 1 0  40.5 1 0  41.25 1 0  42 1 0  42.75 1 0  43.5 1 0  44.25 1 0  45 1 0  45.75 1 0  46.5 1 0  47.25 1 0  48 1 0  48.75 1 0  49.5 1 0  50.25 1 0  51 1 0  51.75 1 0  52.5 1 0  53.25 1 0  54 1 0  54.75 1 0  55.5 1 0  56.25 1 0  57 1 0  57.75 1 0  58.5 1 0  59.25 1 0  60 1 0  0 1.5 0  0.75 1.5 0  1.5 1.5 0  2.25 1.5 0  3 1.5 0  3.75 1.5 0  4.5 1.5 0  5.25 1.5 0  6 1.5 0  6.75 1.5 0  7.5 1.5 0  8.25 1.5 0  9 1.5 0  9.75 1.5 0  10.5 1.5 0  11.25 1.5 0  12 1.5 0  12.75 1.5 0  13.5 1.5 0  14.25 1.5 0  15 1.5 0  15.75 1.5 0  16.5 1.5 0  17.25 1.5 0  18 1.5 0  18.75 1.5 0  19.5 1.5 0  20.25 1.5 0  21 1.5 0  21.75 1.5 0  22.5 1.5 0  23.25 1.5 0  24 1.5 0  24.75 1.5 0  25.5 1.5 0  26.25 1.5 0  27 1.5 0  27.75 1.5 0  28.5 1.5 0  29.25 1.5 0  30 1.5 0  30.75 1.5 0  31.5 1.5 0  32.25 1.5 0  33 1.5 0  33.75 1.5 0  34.5 1.5 0  35.25 1.5 0  36 1.5 0  36.75 1.5 0  37.5 1.5 0  38.25 1.5 0  39 1.5 0  39.75 1.5 0  40.5 1.5 0  41.25 1.5 0  42 1.5 0  42.75 1.5 0  43.5 1.5 0  44.25 1.5 0  45 1.5 0  45.75 1.5 0  46.5 1.5 0  47.25 1.5 0  48 1.5 0  48.75 1.5 0  49.5 1.5 0  50.25 1.5 0  51 1.5 0  51.75 1.5 0  52.5 1.5 0  53.25 1.5 0  54 1.5 0  54.75 1.5 0  55.5 1.5 0  56.25 1.5 0  57 1.5 0  57.75 1.5 0  58.5 1.5 0  59.25 1.5 0  60 1.5 0  0 2 0  0.75 2 0  1.5 2 0  2.25 2 0  3 2 0  3.75 2 0  4.5 2 0  5.25 2 0  6 2 0  6.75 2 0  7.5 2 0  8.25 2 0  9 2 0  9.75 2 0  10.5 2 0  11.25 2 0  12 2 0  12.75 2 0  13.5 2 0  14.25 2 0  15 2 0  15.75 2 0  16.5 2 0  17.25 2 0  18 2 0  18.75 2 0  19.5 2 0  20.25 2 0  21 2 0  21.75 2 0  22.5 2 0  23.25 2 0  24 2 0  24.75 2 0  25.5 2 0  26.25 2 0  27 2 0  27.75 2 0  28.5 2 0  29.25 2 0  30 2 0  30.75 2 0  31.5 2 0  32.25 2 0  33 2 0  33.75 2 0  34.5 2 0  35.25 2 0  36 2 0  36.75 2 0  37.5 2 0  38.25 2 0  39 2 0  39.75 2 0  40.5 2 0  41.25 2 0  42 2 0  42.75 2 0  43.5 2 0  44.25 2 0  45 2 0  45.75 2 0  46.5 2 0  47.25 2 0  48 2 0  48.75 2 0  49.5 2 0  50.25 2 0  51 2 0  51.75 2 0  52.5 2 0  53.25 2 0  54 2 0  54.75 2 0  55.5 2 0  56.25 2 0  57 2 0  57.75 2 0  58.5 2 0  59.25 2 0  60 2 0  0 2.5 0  0.75 2.5 0  1.5 2.5 0  2.25 2.5 0  3 2.5 0  3.75 2.5 0  4.5 2.5 0  5.25 2.5 0  6 2.5 0  6.75 2.5 0  7.5 2.5 0  8.25 2.5 0  9 2.5 0  9.75 2.5 0  10.5 2.5 0  11.25 2.5 0  12 2.5 0  12.75 2.5 0  13.5 2.5 0  14.25 2.5 0  15 2.5 0  15.75 2.5 0  16.5 2.5 0  17.25 2.5 0  18 2.5 0  18.75 2.5 0  19.5 2.5 0  20.25 2.5 0  21 2.5 0  21.75 2.5 0  22.5 2.5 0  23.25 2.5 0  24 2.5 0  24.75 2.5 0  25.5 2.5 0  26.25 2.5 0  27 2.5 0  27.75 2.5 0  28.5 2.5 0  29.25 2.5 0  30 2.5 0  30.75 2.5 0  31.5 2.5 0  32.25 2.5 0  33 2.5 0  33.75 2.5 0  34.5 2.5 0  35.25 2.5 0  36 2.5 0  36.75 2.5 0  37.5 2.5 0  38.25 2.5 0  39 2.5 0  39.75 2.5 0  40.5 2.5 0  41.25 2.5 0  42 2.5 0  42.75 2.5 0  43.5 2.5 0  44.25 2.5 0  45 2.5 0  45.75 2.5 0  46.5 2.5 0  47.25 2.5 0  48 2.5 0  48.75 2.5 0  49.5 2.5 0  50.25 2.5 0  51 2.5 0  51.75 2.5 0  52.5 2.5 0  53.25 2.5 0  54 2.5 0  54.75 2.5 0  55.5 2.5 0  56.25 2.5 0  57 2.5 0  57.75 2.5 0  58.5 2.5 0  59.25 2.5 0  60 2.5 0  0 3 0  0.75 3 0  1.5 3 0  2.25 3 0  3 3 0  3.75 3 0  4.5 3 0  5.25 3 0  6 3 0  6.75 3 0  7.5 3 0  8.25 3 0  9 3 0  9.75 3 0  10.5 3 0  11.25 3 0  12 3 0  12.75 3 0  13.5 3 0  14.25 3 0  15 3 0  15.75 3 0  16.5 3 0  17.25 3 0  18 3 0  18.75 3 0  19.5 3 0  20.25 3 0  21 3 0  21.75 3 0  22.5 3 0  23.25 3 0  24 3 0  24.75 3 0  25.5 3 0  26.25 3 0  27 3 0  27.75 3 0  28.5 3 0  29.25 3 0  30 3 0  30.75 3 0  31.5 3 0  32.25 3 0  33 3 0  33.75 3 0  34.5 3 0  35.25 3 0  36 3 0  36.75 3 0  37.5 3 0  38.25 3 0  39 3 0  39.75 3 0  40.5 3 0  41.25 3 0  42 3 0  42.75 3 0  43.5 3 0  44.25 3 0  45 3 0  45.75 3 0  46.5 3 0  47.25 3 0  48 3 0  48.75 3 0  49.5 3 0  50.25 3 0  51 3 0  51.75 3 0  52.5 3 0  53.25 3 0  54 3 0  54.75 3 0  55.5 3 0  56.25 3 0  57 3 0  57.75 3 0  58.5 3 0  59.25 3 0  60 3 0  0 3.5 0  0.75 3.5 0  1.5 3.5 0  2.25 3.5 0  3 3.5 0  3.75 3.5 0  4.5 3.5 0  5.25 3.5 0  6 3.5 0  6.75 3.5 0  7.5 3.5 0  8.25 3.5 0  9 3.5 0  9.75 3.5 0  10.5 3.5 0  11.25 3.5 0  12 3.5 0  12.75 3.5 0  13.5 3.5 0  14.25 3.5 0  15 3.5 0  15.75 3.5 0  16.5 3.5 0  17.25 3.5 0  18 3.5 0  18.75 3.5 0  19.5 3.5 0  20.25 3.5 0  21 3.5 0  21.75 3.5 0  22.5 3.5 0  23.25 3.5 0  24 3.5 0  24.75 3.5 0  25.5 3.5 0  26.25 3.5 0  27 3.5 0  27.75 3.5 0  28.5 3.5 0  29.25 3.5 0  30 3.5 0  30.75 3.5 0  31.5 3.5 0  32.25 3.5 0  33 3.5 0  33.75 3.5 0  34.5 3.5 0  35.25 3.5 0  36 3.5 0  36.75 3.5 0  37.5 3.5 0  38.25 3.5 0  39 3.5 0  39.75 3.5 0  40.5 3.5 0  41.25 3.5 0  42 3.5 0  42.75 3.5 0  43.5 3.5 0  44.25 3.5 0  45 3.5 0  45.75 3.5 0  46.5 3.5 0  47.25 3.5 0  48 3.5 0  48.75 3.5 0  49.5 3.5 0  50.25 3.5 0  51 3.5 0  51.75 3.5 0  52.5 3.5 0  53.25 3.5 0  54 3.5 0  54.75 3.5 0  55.5 3.5 0  56.25 3.5 0  57 3.5 0  57.75 3.5 0  58.5 3.5 0  59.25 3.5 0  60 3.5 0  0 4 0  0.75 4 0  1.5 4 0  2.25 4 0  3 4 0  3.75 4 0  4.5 4 0  5.25 4 0  6 4 0  6.75 4 0  7.5 4 0  8.25 4 0  9 4 0  9.75 4 0  10.5 4 0  11.25 4 0  12 4 0  12.75 4 0  13.5 4 0  14.25 4 0  15 4 0  15.75 4 0  16.5 4 0  17.25 4 0  18 4 0  18.75 4 0  19.5 4 0  20.25 4 0  21 4 0  21.75 4 0  22.5 4 0  23.25 4 0  24 4 0  24.75 4 0  25.5 4 0  26.25 4 0  27 4 0  27.75 4 0  28.5 4 0  29.25 4 0  30 4 0  30.75 4 0  31.5 4 0  32.25 4 0  33 4 0  33.75 4 0  34.5 4 0  35.25 4 0  36 4 0  36.75 4 0  37.5 4 0  38.25 4 0  39 4 0  39.75 4 0  40.5 4 0  41.25 4 0  42 4 0  42.75 4 0  43.5 4 0  44.25 4 0  45 4 0  45.75 4 0  46.5 4 0  47.25 4 0  48 4 0  48.75 4 0  49.5 4 0  50.25 4 0  51 4 0  51.75 4 0  52.5 4 0  53.25 4 0  54 4 0  54.75 4 0  55.5 4 0  56.25 4 0  57 4 0  57.75 4 0  58.5 4 0  59.25 4 0  60 4 0  0.375 0.25 0  1.125 0.25 0  1.875 0.25 0  2.625 0.25 0  3.375 0.25 0  4.125 0.25 0  4.875 0.25 0  5.625 0.25 0  6.375 0.25 0  7.125 0.25 0  7.875 0.25 0  8.625 0.25 0  9.375 0.25 0  10.125 0.25 0  10.875 0.25 0  11.625 0.25 0  12.375 0.25 0  13.125 0.25 0  13.875 0.25 0  14.625 0.25 0  15.375 0.25 0  16.125 0.25 0  16.875 0.25 0  17.625 0.25 0  18.375 0.25 0  19.125 0.25 0  19.875 0.25 0  20.625 0.25 0  21.375 0.25 0  22.125 0.25 0  22.875 0.25 0  23.625 0.25 0  24.375 0.25 0  25.125 0.25 0  25.875 0.25 0  26.625 0.25 0  27.375 0.25 0  28.125 0.25 0  28.875 0.25 0  29.625 0.25 0  30.375 0.25 0  31.125 0.25 0  31.875 0.25 0  32.625 0.25 0  33.375 0.25 0  34.125 0.25 0  34.875 0.25 0  35.625 0.25 0  36.375 0.25 0  37.125 0.25 0  37.875 0.25 0  38.625 0.25 0  39.375 0.25 0  40.125 0.25 0  40.875 0.25 0  41.625 0.25 0  42.375 0.25 0  43.125 0.25 0  43.875 0.25 0  44.625 0.25 0  45.375 0.25 0  46.125 0.25 0  46.875 0.25 0  47.625 0.25 0  48.375 0.25 0  49.125 0.25 0  49.875 0.25 0  50.625 0.25 0  51.375 0.25 0  52.125 0.25 0  52.875 0.25 0  53.625 0.25 0  54.375 0.25 0  55.125 0.25 0  55.875 0.25 0  56.625 0.25 0  57.375 0.25 0  58.125 0.25 0  58.875 0.25 0  59.625 0.25 0  0.375 0.75 0  1.125 0.75 0  1.875 0.75 0  2.625 0.75 0  3.375 0.75 0  4.125 0.75 0  4.875 0.75 0  5.625 0.75 0  6.375 0.75 0  7.125 0.75 0  7.875 0.75 0  8.625 0.75 0  9.375 0.75 0  10.125 0.75 0  10.875 0.75 0  11.625 0.75 0  12.375 0.75 0  13.125 0.75 0  13.875 0.75 0  14.625 0.75 0  15.375 0.75 0  16.125 0.75 0  16.875 0.75 0  17.625 0.75 0  18.375 0.75 0  19.125 0.75 0  19.875 0.75 0  20.625 0.75 0  21.375 0.75 0  22.125 0.75 0  22.875 0.75 0  23.625 0.75 0  24.375 0.75 0  25.125 0.75 0  25.875 0.75 0  26.625 0.75 0  27.375 0.75 0  28.125 0.75 0  28.875 0.75 0  29.625 0.75 0  30.375 0.75 0  31.125 0.75 0  31.875 0.75 0  32.625 0.75 0  33.375 0.75 0  34.125 0.75 0  34.875 0.75 0  35.625 0.75 0  36.375 0.75 0  37.125 0.75 0  37.875 0.75 0  38.625 0.75 0  39.375 0.75 0  40.125 0.75 0  40
[...]
<PointData  Scalars="f_8-1"> 
<DataArray  type="Float64"  Name="f_8-1"  format="ascii">-1.1410170884679983e+01  -1.1269738905648087e+01  -1.1126878649929639e+01  -1.0984424747377041e+01  -1.0841894687986715e+01  -1.0699323441961791e+01  -1.0556702008350888e+01  -1.0414049557404656e+01  -1.0271377809505953e+01  -1.0128697286245771e+01  -9.9860122648875702e+00  -9.8433289759569398e+00  -9.7006523770662607e+00  -9.5579841696238379e+00  -9.4153224685127892e+00  -9.2726647385931624e+00  -9.1300089206633590e+00  -8.9873539282770754e+00  -8.8446992299599199e+00  -8.7020446445025517e+00  -8.5593900947598556e+00  -8.4167355636385501e+00  -8.2740810383911612e+00  -8.1314265170681921e+00  -7.9887719959486398e+00  -7.8461174746015585e+00  -7.7034629518646982e+00  -7.5608084276381335e+00  -7.4181539016050957e+00  -7.2754993737221332e+00  -7.1328448439265335e+00  -6.9901903121827660e+00  -6.8475357784948843e+00  -6.7048812428348956e+00  -6.5622267052180963e+00  -6.4195721656255103e+00  -6.2769176240694655e+00  -6.1342630805386094e+00  -5.9916085350405055e+00  -5.8489539875689660e+00  -5.7062994381281120e+00  -5.5636448867148163e+00  -5.4209903333310869e+00  -5.2783357779754683e+00  -5.1356812206488733e+00  -4.9930266613506422e+00  -4.8503721000811870e+00  -4.7077175368402040e+00  -4.5650629716278432e+00  -4.4224084044439751e+00  -4.2797538352886244e+00  -4.1370992641616944e+00  -3.9944446910631219e+00  -3.8517901159927654e+00  -3.7091355389503660e+00  -3.5664809599355052e+00  -3.4238263789474535e+00  -3.2811717959848306e+00  -3.1385172110451656e+00  -2.9958626241235913e+00  -2.8532080352109381e+00  -2.7105534442887809e+00  -2.5678988513214631e+00  -2.4252442562371463e+00  -2.2825896588948216e+00  -2.1399350590126840e+00  -1.9972804560384316e+00  -1.8546258488846266e+00  -1.7119712354473826e+00  -1.5693166116371207e+00  -1.4266619697080705e+00  -1.2840072937806815e+00  -1.1413525574390782e+00  -9.9869766839441720e-01  -8.5604265109919675e-01  -7.1338600947639919e-01  -5.7073335303344663e-01  -4.2804261147217487e-01  -2.8551309201506864e-01  -1.4209430155610581e-01  -2.7051875718307719e-03  -1.1412946476746614e+01  -1.1269593455034007e+01  -1.1126962761721670e+01  -1.0984442740122958e+01  -1.0841917798724284e+01  -1.0699345353745016e+01  -1.0556729768079856e+01  -1.0414078385959153e+01  -1.0271408872011172e+01  -1.0128728959453705e+01  -9.9860443517800359e+00  -9.8433595159185341e+00  -9.7006818013000764e+00  -9.5580126921097701e+00  -9.4153507727021548e+00  -9.2726929124874520e+00  -9.1300371375634466e+00  -8.9873821325494898e+00  -8.8447274595353207e+00  -8.7020728652307042e+00  -8.5594183235797239e+00  -8.4167637874551424e+00  -8.2741092652768984e+00  -8.1314547418110745e+00  -7.9888002219774039e+00  -7.8461456997733041e+00  -7.7034911775516779e+00  -7.5608366530043387e+00  -7.4181821271544903e+00  -7.2755275991680302e+00  -7.1328730694229714e+00  -6.9902185376561983e+00  -6.8475640039726651e+00  -6.7049094683144421e+00  -6.5622549306898605e+00  -6.4196003911035469e+00  -6.2769458495390538e+00  -6.1342913060130382e+00  -5.9916367605086096e+00  -5.8489822130396032e+00  -5.7063276635944780e+00  -5.5636731121819540e+00  -5.4210185587953372e+00  -5.2783640034394166e+00  -5.1357094461107167e+00  -4.9930548868116089e+00  -4.8504003255404466e+00  -4.7077457622983001e+00  -4.5650911970844232e+00  -4.4224366298992575e+00  -4.2797820607424573e+00  -4.1371274896141639e+00  -3.9944729165141664e+00  -3.8518183414424119e+00  -3.7091637643986011e+00  -3.5665091853823818e+00  -3.4238546043930289e+00  -3.2812000214294028e+00  -3.1385454364891840e+00  -2.9958908495684669e+00  -2.8532362606590218e+00  -2.7105816697461504e+00  -2.5679270767989770e+00  -2.4252724817600484e+00  -2.2826178845098575e+00  -2.1399632848213761e+00  -1.9973086822324275e+00  -1.8546540758618566e+00  -1.7119994639646461e+00  -1.5693448432478729e+00  -1.4266902072943339e+00  -1.2840355442559848e+00  -1.1413808289528287e+00  -9.9872602289963452e-01  -8.5607095537184730e-01  -7.1341573703197581e-01  -5.7075730925022816e-01  -4.2810647613376279e-01  -2.8538573398465084e-01  -1.4292731018602711e-01  6.5486182955310900e-04  -1.1412675415860633e+01  -1.1269863061178098e+01  -1.1127047463743379e+01  -1.0984511999618579e+01  -1.0841943654325663e+01  -1.0699373929154714e+01  -1.0556751727277684e+01  -1.0414107299742842e+01  -1.0271436866804288e+01  -1.0128761192345843e+01  -9.9860765163434539e+00  -9.8433921870999654e+00  -9.7007129491034458e+00  -9.5580435926938936e+00  -9.4153810012611583e+00  -9.2727231324878723e+00  -9.1300671380062486e+00  -8.9874121820337187e+00  -8.8447574378615492e+00  -8.7021028768100042e+00  -8.5594483082021213e+00  -8.4167937877698726e+00  -8.2741392545117023e+00  -8.1314847378195836e+00  -7.9888302134126645e+00  -7.8461756940294558e+00  -7.7035211699844437e+00  -7.5608666465422951e+00  -7.4182121200243465e+00  -7.2755575924195721e+00  -7.1329030624697660e+00  -6.9902485308023534e+00  -6.8475939970814474e+00  -6.7049394614276361e+00  -6.5622849238145271e+00  -6.4196303842097118e+00  -6.2769758426636457e+00  -6.1343212991196250e+00  -5.9916667536289863e+00  -5.8490122061475702e+00  -5.7063576567104928e+00  -5.5637031052904931e+00  -5.4210485519077816e+00  -5.2783939965475710e+00  -5.1357394392203233e+00  -4.9930848799186949e+00  -4.8504303186477067e+00  -4.7077757554039339e+00  -4.5651211901896254e+00  -4.4224666230032579e+00  -4.2798120538457596e+00  -4.1371574827164936e+00  -3.9945029096157327e+00  -3.8518483345431362e+00  -3.7091937574985949e+00  -3.5665391784817388e+00  -3.4238845974918415e+00  -3.2812300145279907e+00  -3.1385754295877071e+00  -2.9959208426677573e+00  -2.8532662537595312e+00  -2.7106116628500523e+00  -2.5679570699079468e+00  -2.4253024748803029e+00  -2.2826478776479706e+00  -2.1399932779969530e+00  -1.9973386754710232e+00  -1.8546840692247957e+00  -1.7120294575302606e+00  -1.5693748371336729e+00  -1.4267202015523894e+00  -1.2840655384210766e+00  -1.1414108234657674e+00  -9.9875600562807221e-01  -8.5610098750204977e-01  -7.1344546268048725e-01  -5.7078916615802600e-01  -4.2812876133498778e-01  -2.8546931546654242e-01  -1.4277590886878611e-01  -1.4923834493395585e-05  -1.1412676438989854e+01  -1.1269850640493216e+01  -1.1127152332051431e+01  -1.0984504545662830e+01  -1.0841947971428077e+01  -1.0699343975405483e+01  -1.0556737782508868e+01  -1.0414087524621932e+01  -1.0271428545793919e+01  -1.0128751157848431e+01  -9.9860724921218331e+00  -9.8433887389565999e+00  -9.7007117409038770e+00  -9.5580408072814471e+00  -9.4153777058327215e+00  -9.2727184690805000e+00  -9.1300621660384653e+00  -8.9874067251148482e+00  -8.8447519770915761e+00  -8.7020972826142895e+00  -8.5594427505988850e+00  -8.4167881872163690e+00  -8.2741336746622256e+00  -8.1314791413408756e+00  -7.9888246262055373e+00  -7.8461701000991173e+00  -7.7035155799718966e+00  -7.5608610538917134e+00  -7.4182065289110009e+00  -7.2755520003603040e+00  -7.1328974709336901e+00  -6.9902429389887599e+00  -6.8475884053971479e+00  -6.7049338697019705e+00  -6.5622793320885648e+00  -6.4196247925082224e+00  -6.2769702509329939e+00  -6.1343157074204964e+00  -5.9916611619036937e+00  -5.8490066144454671e+00  -5.7063520649914681e+00  -5.5636975135855362e+00  -5.4210429601935601e+00  -5.2783884048410581e+00  -5.1357338475093872e+00  -4.9930792882117796e+00  -4.8504247269390195e+00  -4.7077701636973890e+00  -4.5651155984826302e+00  -4.4224610312975408e+00  -4.2798064621402609e+00  -4.1371518910119489e+00  -3.9944973179117871e+00  -3.8518427428401414e+00  -3.7091881657965091e+00  -3.5665335867807815e+00  -3.4238790057921435e+00  -3.2812244228295460e+00  -3.1385698378904512e+00  -2.9959152509705822e+00  -2.8532606620603551e+00  -2.7106060711422693e+00  -2.5679514781790700e+00  -2.4252968830997577e+00  -2.2826422857574298e+00  -2.1399876858681606e+00  -1.9973330828579268e+00  -1.8546784756129640e+00  -1.7120238619128627e+00  -1.5693692374131687e+00  -1.4267145934110164e+00  -1.2840599124416272e+00  -1.1414051581478926e+00  -9.9875025263079298e-01  -8.5609501896171869e-01  -7.1343905580955647e-01  -5.7078136775430222e-01  -4.2811984235700629e-01  -2.8544881813047090e-01  -1.4275514767379269e-01  1.3944367538248582e-06  -1.1412670166419698e+01  -1.1269875736687577e+01  -1.1127146039961923e+01  -1.0984527351922546e+01  -1.0841923224557560e+01  -1.0699342900983623e+01  -1.0556716578328125e+01  -1.0414081448738354e+01  -1.0271414957820333e+01  -1.0128744979959906e+01  -9.9860630881729069e+00  -9.8433835558672271e+00  -9.7007052502303672e+00  -9.5580354724104648e+00  -9.4153709951740847e+00  -9.2727118895947793e+00  -9.1300548891709994e+00  -8.9873995563239575e+00  -8.8447445579334154e+00  -8.7020899537203338e+00  -8.5594353322167134e+00  -8.4167808166971518e+00  -8.2741262687030908e+00  -8.1314717568764365e+00  -7.9888172270245059e+00  -7.8461627101443083e+00  -7.7035081839365507e+00  -7.5608536616643249e+00  -7.4181991342969793e+00  -7.2755446071912315e+00  -7.1328900769308934e+00  -6.9902355454502372e+00  -6.8475810116333173e+00  -6.7049264760356406e+00  -6.5622719384043382e+00  -6.4196173988084047e+00  -6.2769628572674012e+00  -6.1343083137190293e+00  -5.9916537682371995e+00  -5.8489992207501302e+00  -5.7063446713200907e+00  -5.5636901198961839e+00  -5.4210355665180474e+00  -5.2783810111558074e+00  -5.1357264538313308e+00  -4.9930718945289714e+00  -4.8504173332596867e+00  -4.7077627700159530e+00  -4.5651082048028320e+00  -4.4224536376169583e+00  -4.2797990684605320e+00  -4.1371444973321196e+00  -3.9944899242325906e+00  -3.8518353491613069e+00  -3.7091807721184873e+00  -3.5665261931036669e+00  -3.4238716121164119e+00  -3.2812170291555596e+00  -3.1385624442188695e+00  -2.9959078573017437e+00  -2.8532532683946816e+00  -2.7105986774786510e+00  -2.5679440845145578e+00  -2.4252894894243284e+00  -2.2826348920498756e+00  -2.1399802920775888e+00  -1.9973256888817059e+00  -1.8546710812287723e+00  -1.7120164666735946e+00  -1.5693618403735503e+00  -1.4267071926064721e+00  -1.2840525035230315e+00  -1.1413977312615995e+00  -9.9874278414245465e-01  -8.5608745379337703e-01  -7.1343125313894096e-01  -5.7077303786317335e-01  -4.2811013985729146e-01  -2.8543621414046028e-01  -1.4273706639931624e-01  -6.5117023273515266e-06  -1.1412676440964420e+01  -1.1269850628253126e+01  -1.1127152313383453e+01  -1.0984504530732959e+01  -1.0841947973375509e+01  -1.0699343990536651e+01  -1.0556737806231347e+01  -1.0414087550728603e+01  -1.0271428569720388e+01  -1.0128751175392502e+01  -9.9860725057585515e+00  -9.8433887503302770e+00  -9.7007117486991525e+00  -9.5580408105782642e+00  -9.4153777057716823e+00  -9.2727184677324619e+00  -9.1300621650701359e+00  -8.9874067253309580e+00  -8.8447519786377171e+00  -8.7020972853101757e+00  -8.5594427541784430e+00  -8.4167881914359413e+00  -8.2741336793333122e+00  -8.1314791463269867e+00  -7.9888246314109495e+00  -7.8461701054568938e+00  -7.7035155854355164e+00  -7.5608610594286700e+00  -7.4182065344987356e+00  -7.2755520059830658e+00  -7.1328974765805988e+00  -6.9902429446522438e+00  -6.8475884110720289e+00  -6.7049338753846293e+00  -6.5622793377765607e+00  -6.4196247981998686e+00  -6.2769702566271404e+00  -6.1343157131163322e+00  -5.9916611676006992e+00  -5.8490066201432889e+00  -5.7063520706898494e+00  -5.5636975192842852e+00  -5.4210429658925872e+00  -5.2783884105402796e+00  -5.1357338532087571e+00  -4.9930792939112862e+00  -4.8504247326386372e+00  -4.7077701693971230e+00  -4.5651156041825303e+00  -4.4224610369976576e+00  -4.2798064678406860e+00  -4.1371518967128180e+00  -3.9944973236132939e+00  -3.8518427485425941e+00  -3.7091881715003372e+00  -3.5665335924866328e+00  -3.4238790115009650e+00  -3.2812244285427394e+00  -3.1385698436100800e+00  -2.9959152566996274e+00  -2.8532606678032812e+00  -2.7106060769056461e+00  -2.5679514839725552e+00  -2.4252968889375754e+00  -2.2826422916605176e+00  -2.1399876918673195e+00  -1.9973330889983061e+00  -1.8546784819604920e+00  -1.7120238685632059e+00  -1.5693692445039518e+00  -1.4267146011380392e+00  -1.2840599210794028e+00  -1.1414051680739279e+00  -9.9875026435000358e-01  -8.5609503311627611e-01  -7.1343907313665522e-01  -5.7078138884997709e-01  -4.2811986731600565e-01  -2.8544884666779002e-01  -1.4275517678804756e-01  1.3990052455319227e-06  -1.1412675406013980e+01  -1.1269863049194345e+01  -1.1127047412915299e+01  -1.0984511975536702e+01  -1.0841943658402466e+01  -1.0699373962174796e+01  -1.0556751774933964e+01  -1.0414107351768628e+01  -1.0271436913147909e+01  -1.0128761226741458e+01  -9.9860765432781236e+00  -9.8433922089394077e+00  -9.7007129636555902e+00  -9.5580435991418291e+00  -9.4153810021676048e+00  -9.2727231316295313e+00  -9.1300671381782426e+00  -8.9874121844915820e+00  -8.8447574427473494e+00  -8.7021028837535450e+00  -8.5594483167108653e+00  -8.4167937974079567e+00  -8.2741392649440630e+00  -8.1314847488056845e+00  -7.9888302247834950e+00  -7.8461757056675374e+00  -7.7035211818078722e+00  -7.5608666584941746e+00  -7.4182121320650092e+00  -7.2755576045215058e+00  -7.1329030746138731e+00  -6.9902485429754337e+00  -6.8475940092744176e+00  -6.7049394736342123e+00  -6.5622849360304052e+00  -6.4196303964319963e+00  -6.2769758548902654e+00  -6.1343213113492085e+00  -5.9916667658606100e+00  -5.8490122183806195e+00  -5.7063576689445199e+00  -5.5637031175251677e+00  -5.4210485641429402e+00  -5.2783940087830628e+00  -5.1357394514560868e+00  -4.9930848921546866e+00  -4.8504303308838974e+00  -4.7077757676403404e+00  -4.5651212024263215e+00  -4.4224666352403528e+00  -4.2798120660834131e+00  -4.1371574949549430e+00  -3.9945029218553509e+00  -3.8518483467844700e+00  -3.7091937697424182e+00  -3.5665391907292259e+00  -3.4238846097447091e+00  -3.2812300267887848e+00  -3.1385754418601359e+00  -2.9959208549572751e+00  -2.8532662660742147e+00  -2.7106116752017959e+00  -2.5679570823142583e+00  -2.4253024873669764e+00  -2.2826478902529472e+00  -2.1399932907760491e+00  -1.9973386885060422e+00  -1.8546840826351780e+00  -1.7120294714893145e+00  -1.5693748518906916e+00  -1.4267202174619877e+00  -1.2840655559802725e+00  -1.1414108433574732e+00  -9.9875602876226222e-01  -8.5610101503864400e-01  -7.1344549588307182e-01  -5.7078920629810992e-01  -4.2812880709111029e-01  -2.8546936848019838e-01  -1.4277597283955426e-01  -1.4918421327120362e-05  -1.1412946512240058e+01  -1.1269593346731789e+01  -1.1126962693763845e+01  -1.0984442701019494e+01  -1.0841917799665499e+01  -1.0699345388805694e+01  -1.0556729820174221e+01  -1.0414078441565330e+01  -1.0271408919349359e+01  -1.0128728993655386e+01  -9.9860443759849264e+00  -9.8433595320868417e+00  -9.7006818085801392e+00  -9.5580126909614957e+00  -9.4153507662375819e+00  -9.2726929046018096e+00  -9.1300371310814281e+00  -8.9873821287379414e+00  -8.8447274585230673e+00  -8.7020728665990355e+00  -8.5594183267720378e+00  -8.4167637919703573e+00  -8.2741092707256243e+00  -8.1314547479111035e+00  -7.9888002285299287e+00  -7.8461457066397493e+00  -7.7034911846357179e+00  -7.5608366602390120e+00  -7.4181821344932706e+00  -7.2755276065786516e+00  -7.1328730768830022e+00  -6.9902185451501717e+00  -6.8475640114899541e+00  -6.7049094758476677e+00  -6.5622549382339912e+00  -6.4196003986551640e+00  -6.2769458570957397e+00  -6.1342913135731925e+00  -5.9916367680711851e+00  -5.8489822206038449e+00  -5.7063276711598627e+00  -5.5636731197480884e+00  -5.4210185663620436e+00  -5.2783640110065280e+00  -5.1357094536781291e+00  -4.9930548943792754e+00  -4.8504003331083458e+00  -4.7077457698664169e+00  -4.5650912046528980e+00  -4.4224366374681860e+00  -4.2797820683120174e+00  -4.1371274971846432e+00  -3.9944729240859846e+00  -3.8518183490162010e+00  -3.7091637719752311e+00  -3.5665091929631894e+00  -3.4238546119800004e+00  -3.2812000290254439e+00  -3.1385454440985541e+00  -2.9958908571974048e+00  -2.8532362683167891e+00  -2.7105816774463811e+00  -2.5679270845617213e+00  -2.4252724896148643e+00  -2.2826178925001512e+00  -2.1399632930109584e+00  -1.9973086907146218e+00  -1.8546540847726132e+00  -1.7119994735005153e+00  -1.5693448536902519e+00  -1.4266902190408806e+00  -1.2840355578588094e+00  -1.1413808451592728e+00  -9.9872604268527354e-01  -8.5607097988581393e-01  -7.1341576765700687e-01  -5.7075734529709254e-01  -4.2810652415610334e-01  -2.8538574372972381e-01  -1.4292745052203321e-01  6.5495930260811607e-04  -1.1410168893142572e+01  -1.1269739056504172e+01  -1.1126878553706311e+01  -1.0984424731305721e+01  -1.0841894706299787e+01  -1.0699323493938904e+01  -1.0556702075080707e+01  -1.0414049624481660e+01  -1.0271377866386342e+01  -1.0128697329618234e+01  -9.9860122971930458e+00  -9.8433289990736217e+00  -9.7006523912872069e+00  -9.5579841762031705e+00  -9.4153224706495795e+00  -9.2726647398867907e+00  -9.1300089236827233e+00  -8.9873539341360509e+00  -8.8446992387276850e+00  -8.7020446557286437e+00  -8.5593901078715433e+00  -8.4167355781184696e+00  -8.2740810538382146e+00  -8.1314265331898028e+00  -7.9887720125391919e+00  -7.8461174915170382e+00  -7.7034629690054564e+00  -7.5608084449346924e+00  -7.4181539190093346e+00  -7.2754993912006887e+00  -7.1328448614561273e+00  -6.9901903297474481e+00  -6.8475357960836716e+00  -6.7048812604401427e+00  -6.5622267228346134e+00  -6.4195721832497501e+00  -6.2769176416989136e+00  -6.1342630981716848e+00  -5.9916085526760758e+00  -5.8489540052062736e+00  -5.7062994557665760e+00  -5.5636449043540477e+00  -5.4209903509709187e+00  -5.2783357956156944e+00  -5.1356812382894237e+00  -4.9930266789914359e+00  -4.8503721177222072e+00  -4.7077175544813938e+00  -4.5650629892694088e+00  -4.4224084220859572e+00  -4.2797538529311865e+00  -4.1370992818051029e+00  -3.9944447087077712e+00  -3.8517901336392293e+00  -3.7091355565994597e+00  -3.5664809775884274e+00  -3.4238263966060698e+00  -3.2811718136518029e+00  -3.1385172287244161e+00  -2.9958626418208674e+00  -2.8532080529347890e+00  -2.7105534620517826e+00  -2.5678988691421085e+00  -2.4252442741426581e+00  -2.2825896769251810e+00  -2.1399350772265406e+00  -1.9972804745214063e+00  -1.8546258677610135e+00  -1.7119712548959807e+00  -1.5693166319121297e+00  -1.4266619911651484e+00  -1.2840073169069566e+00  -1.1413525828809314e+00  -9.9869769696303545e-01  -8.5604268376105830e-01  -7.1338604661239169e-01  -5.7073339770363452e-01  -4.2804264035664907e-01  -2.8551321827897402e-01  -1.4209391769075971e-01  -2.7069419892063250e-03  -1.1341323577302189e+01  -1.1198330846813722e+01  -1.1055781138655528e+01  -1.0913256484098282e+01  -1.0770706804160083e+01  -1.0628111642506250e+01  -1.0485475803985059e+01  -1.0342814925211522e+01  -1.0200139507063879e+01  -1.0057457312758238e+01  -9.9147725584738957e+00  -9.7720919890731750e+00  -9.6294190628149376e+00  -9.4867539386928232e+00  -9.3440941415927909e+00  -9.2014373768698849e+00  -9.0587819676049062e+00  -8.9161271329477394e+00  -8.7734724888519260e+00  -8.6308179243237682e+00  -8.4881633823673042e+00  -8.3455088551149110e+00  -8.2028543312028592e+00  -8.0601998103032351e+00  -7.9175452888548126e+00  -7.7748907669073883e+00  -7.6322362433658517e+00  -7.4895817182460833e+00  -7.3469271912797005e+00  -7.2042726624250184e+00  -7.0616181316588591e+00  -6.9189635989241864e+00  -6.7763090642529278e+00  -6.6336545275984484e+00  -6.4909999889929830e+00  -6.3483454484058699e+00  -6.2056909058587211e+00  -6.0630363613338050e+00  -5.9203818148434122e+00  -5.7777272663781885e+00  -5.6350727159444833e+00  -5.4924181635377050e+00  -5.3497636091608616e+00  -5.2071090528118527e+00  -5.0644544944920131e+00  -4.9217999342004415e+00  -4.7791453719376804e+00  -4.6364908077033409e+00  -4.4938362414976467e+00  -4.3511816733203919e+00  -4.2085271031716394e+00  -4.0658725310512525e+00  -3.9232179569591596e+00  -3.7805633808951362e+00  -3.6379088028588895e+00  -3.4952542228498262e+00  -3.3525996408670258e+00  -3.2099450569085652e+00  -3.0672904709712916e+00  -2.9246358830484565e+00  -2.7819812931281152e+00  -2.6393267011850261e+00  -2.4966721071723428e+00  -2.3540175109926329e+00  -2.2113629124604302e+00  -2.0687083111985842e+00  -1.9260537064844039e+00  -1.78339909688503