<?xml version="1.0"?>
<VTKFile type="UnstructuredGrid"  version="0.1"  >
<UnstructuredGrid>
<Piece  NumberOfPoints="1369" NumberOfCells="2560">
<Points>
<DataArray  type="Float64"  NumberOfComponents="3"  format="ascii">0 0 0  0.75 0 0  1.5 0 0  2.25 0 0  3 0 0  3.75 0 0  4.5 0 0  5.25 0 0  6 0 0  6.75 0 0  7.5 0 0  8.25 0 0  9 0 0  9.75 0 0  10.5 0 0  11.25 0 0  12 0 0  12.75 0 0  13.5 0 0  14.25 0 0  15 0 0  15.75 0 0  16.5 0 0  17.25 0 0  18 0 0  18.75 0 0  19.5 0 0  20.25 0 0  21 0 0  21.75 0 0  22.5 0 0  23.25 0 0  24 0 0  24.75 0 0  25.5 0 0  26.25 0 0  27 0 0  27.75 0 0  28.5 0 0  29.25 0 0  30 0 0  30.75 0 0  31.5 0 0  32.25 0 0  33 0 0  33.75 0 0  34.5 0 0  35.25 0 0  36 0 0  36.75 0 0  37.5 0 0  38.25 0 0  39 0 0  39.75 0 0  40.5 0 0  41.25 0 0  42 0 0  42.75 0 0  43.5 0 0  44.25 0 0  45 0 0  45.75 0 0  46.5 0 0  47.25 0 0  48 0 0  48.75 0 0  49.5 0 0  50.25 0 0  51 0 0  51.75 0 0  52.5 0 0  53.25 0 0  54 0 0  54.75 0 0  55.5 0 0  56.25 0 0  57 0 0  57.75 0 0  58.5 0 0  59.25 0 0  60 0 0  0 0.5 0  0.75 0.5 0  1.5 0.5 0  2.25 0.5 0  3 0.5 0  3.75 0.5 0  4.5 0.5 0  5.25 0.5 0  6 0.5 0  6.75 0.5 0  7.5 0.5 0  8.25 0.5 0  9 0.5 0  9.75 0.5 0  10.5 0.5 0  11.25 0.5 0  12 0.5 0  12.75 0.5 0  13.5 0.5 0  14.25 0.5 0  15 0.5 0  15.75 0.5 0  16.5 0.5 0  17.25 0.5 0  18 0.5 0  18.75 0.5 0  19.5 0.5 0  20.25 0.5 0  21 0.5 0  21.75 0.5 0  22.5 0.5 0  23.25 0.5 0  24 0.5 0  24.75 0.5 0  25.5 0.5 0  26.25 0.5 0  27 0.5 0  27.75 0.5 0  28.5 0.5 0  29.25 0.5 0  30 0.5 0  30.75 0.5 0  31.5 0.5 0  32.25 0.5 0  33 0.5 0  33.75 0.5 0  34.5 0.5 0  35.25 0.5 0  36 0.5 0  36.75 0.5 0  37.5 0.5 0  38.25 0.5 0  39 0.5 0  39.75 0.5 0  40.5 0.5 0  41.25 0.5 0  42 0.5 0  42.75 0.5 0  43.5 0.5 0  44.25 0.5 0  45 0.5 0  45.75 0.5 0  46.5 0.5 0  47.25 0.5 0  48 0.5 0  48.75 0.5 0  49.5 0.5 0  50.25 0.5 0  51 0.5 0  51.75 0.5 0  52.5 0.5 0  53.25 0.5 0  54 0.5 0  54.75 0.5 0  55.5 0.5 0  56.25 0.5 0  57 0.5 0  57.75 0.5 0  58.5 0.5 0  59.25 0.5 0  60 0.5 0  0 1 0  0.75 1 0  1.5 1 0  2.25 1 0  3 1 0  3.75 1 0  4.5 1 0  5.25 1 0  6 1 0  6.75 1 0  7.5 1 0  8.25 1 0  9 1 0  9.75 1 0  10.5 1 0  11.25 1 0  12 1 0  12.75 1 0  13.5 1 0  14.25 1 0  15 1 0  15.75 1 0  16.5 1 0  17.25 1 0  18 1 0  18.75 1 0  19.5 1 0  20.25 1 0  21 1 0  21.75 1 0  22.5 1 0  23.25 1 0  24 1 0  24.75 1 0  25.5 1 0  26.25 1 0  27 1 0  27.75 1 0  28.5 1 0  29.25 1 0  30 1 0  30.75 1 0  31.5 1 0  32.25 1 0  33 1 0  33.75 1 0  34.5 1 0  35.25 1 0  36 1 0  36.75 1 0  37.5 1 0  38.25 1 0  39 1 0  39.75 1 0  40.5 1 0  41.25 1 0  42 1 0  42.75 1 0  43.5 1 0  44.25 1 0  45 1 0  45.75 1 0  46.5 1 0  47.25 1 0  48 1 0  48.75 1 0  49.5 1 0  50.25 1 0  51 1 0  51.75 1 0  52.5 1 0  53.25 1 0  54 1 0  54.75 1 0  55.5 1 0  56.25 1 0  57 1 0  57.75 1 0  58.5 1 0  59.25 1 0  60 1 0  0 1.5 0  0.75 1.5 0  1.5 1.5 0  2.25 1.5 0  3 1.5 0  3.75 1.5 0  4.5 1.5 0  5.25 1.5 0  6 1.5 0  6.75 1.5 0  7.5 1.5 0  8.25 1.5 0  9 1.5 0  9.75 1.5 0  10.5 1.5 0  11.25 1.5 0  12 1.5 0  12.75 1.5 0  13.5 1.5 0  14.25 1.5 0  15 1.5 0  15.75 1.5 0  16.5 1.5 0  17.25 1.5 0  18 1.5 0  18.75 1.5 0  19.5 1.5 0  20.25 1.5 0  21 1.5 0  21.75 1.5 0  22.5 1.5 0  23.25 1.5 0  24 1.5 0  24.75 1.5 0  25.5 1.5 0  26.25 1.5 0  27 1.5 0  27.75 1.5 0  28.5 1.5 0  29.25 1.5 0  30 1.5 0  30.75 1.5 0  31.5 1.5 0  32.25 1.5 0  33 1.5 0  33.75 1.5 0  34.5 1.5 0  35.25 1.5 0  36 1.5 0  36.75 1.5 0  37.5 1.5 0  38.25 1.5 0  39 1.5 0  39.75 1.5 0  40.5 1.5 0  41.25 1.5 0  42 1.5 0  42.75 1.5 0  43.5 1.5 0  44.25 1.5 0  45 1.5 0  45.75 1.5 0  46.5 1.5 0  47.25 1.5 0  48 1.5 0  48.75 1.5 0  49.5 1.5 0  50.25 1.5 0  51 1.5 0  51.75 1.5 0  52.5 1.5 0  53.25 1.5 0  54 1.5 0  54.75 1.5 0  55.5 1.5 0  56.25 1.5 0  57 1.5 0  57.75 1.5 0  58.5 1.5 0  59.25 1.5 0  60 1.5 0  0 2 0  0.75 2 0  1.5 2 0  2.25 2 0  3 2 0  3.75 2 0  4.5 2 0  5.25 2 0  6 2 0  6.75 2 0  7.5 2 0  8.25 2 0  9 2 0  9.75 2 0  10.5 2 0  11.25 2 0  12 2 0  12.75 2 0  13.5 2 0  14.25 2 0  15 2 0  15.75 2 0  16.5 2 0  17.25 2 0  18 2 0  18.75 2 0  19.5 2 0  20.25 2 0  21 2 0  21.75 2 0  22.5 2 0  23.25 2 0  24 2 0  24.75 2 0  25.5 2 0  26.25 2 0  27 2 0  27.75 2 0  28.5 2 0  29.25 2 0  30 2 0  30.75 2 0  31.5 2 0  32.25 2 0  33 2 0  33.75 2 0  34.5 2 0  35.25 2 0  36 2 0  36.75 2 0  37.5 2 0  38.25 2 0  39 2 0  39.75 2 0  40.5 2 0  41.25 2 0  42 2 0  42.75 2 0  43.5 2 0  44.25 2 0  45 2 0  45.75 2 0  46.5 2 0  47.25 2 0  48 2 0  48.75 2 0  49.5 2 0  50.25 2 0  51 2 0  51.75 2 0  52.5 2 0  53.25 2 0  54 2 0  54.75 2 0  55.5 2 0  56.25 2 0  57 2 0  57.75 2 0  58.5 2 0  59.25 2 0  60 2 0  0 2.5 0  0.75 2.5 0  1.5 2.5 0  2.25 2.5 0  3 2.5 0  3.75 2.5 0  4.5 2.5 0  5.25 2.5 0  6 2.5 0  6.75 2.5 0  7.5 2.5 0  8.25 2.5 0  9 2.5 0  9.75 2.5 0  10.5 2.5 0  11.25 2.5 0  12 2.5 0  12.75 2.5 0  13.5 2.5 0  14.25 2.5 0  15 2.5 0  15.75 2.5 0  16.5 2.5 0  17.25 2.5 0  18 2.5 0  18.75 2.5 0  19.5 2.5 0  20.25 2.5 0  21 2.5 0  21.75 2.5 0  22.5 2.5 0  23.25 2.5 0  24 2.5 0  24.75 2.5 0  25.5 2.5 0  26.25 2.5 0  27 2.5 0  27.75 2.5 0  28.5 2.5 0  29.25 2.5 0  30 2.5 0  30.75 2.5 0  31.5 2.5 0  32.25 2.5 0  33 2.5 0  33.75 2.5 0  34.5 2.5 0  35.25 2.5 0  36 2.5 0  36.75 2.5 0  37.5 2.5 0  38.25 2.5 0  39 2.5 0  39.75 2.5 0  40.5 2.5 0  41.25 2.5 0  42 2.5 0  42.75 2.5 0  43.5 2.5 0  44.25 2.5 0  45 2.5 0  45.75 2.5 0  46.5 2.5 0  47.25 2.5 0  48 2.5 0  48.75 2.5 0  49.5 2.5 0  50.25 2.5 0  51 2.5 0  51.75 2.5 0  52.5 2.5 0  53.25 2.5 0  54 2.5 0  54.75 2.5 0  55.5 2.5 0  56.25 2.5 0  57 2.5 0  57.75 2.5 0  58.5 2.5 0  59.25 2.5 0  60 2.5 0  0 3 0  0.75 3 0  1.5 3 0  2.25 3 0  3 3 0  3.75 3 0  4.5 3 0  5.25 3 0  6 3 0  6.75 3 0  7.5 3 0  8.25 3 0  9 3 0  9.75 3 0  10.5 3 0  11.25 3 0  12 3 0  12.75 3 0  13.5 3 0  14.25 3 0  15 3 0  15.75 3 0  16.5 3 0  17.25 3 0  18 3 0  18.75 3 0  19.5 3 0  20.25 3 0  21 3 0  21.75 3 0  22.5 3 0  23.25 3 0  24 3 0  24.75 3 0  25.5 3 0  26.25 3 0  27 3 0  27.75 3 0  28.5 3 0  29.25 3 0  30 3 0  30.75 3 0  31.5 3 0  32.25 3 0  33 3 0  33.75 3 0  34.5 3 0  35.25 3 0  36 3 0  36.75 3 0  37.5 3 0  38.25 3 0  39 3 0  39.75 3 0  40.5 3 0  41.25 3 0  42 3 0  42.75 3 0  43.5 3 0  44.25 3 0  45 3 0  45.75 3 0  46.5 3 0  47.25 3 0  48 3 0  48.75 3 0  49.5 3 0  50.25 3 0  51 3 0  51.75 3 0  52.5 3 0  53.25 3 0  54 3 0  54.75 3 0  55.5 3 0  56.25 3 0  57 3 0  57.75 3 0  58.5 3 0  59.25 3 0  60 3 0  0 3.5 0  0.75 3.5 0  1.5 3.5 0  2.25 3.5 0  3 3.5 0  3.75 3.5 0  4.5 3.5 0  5.25 3.5 0  6 3.5 0  6.75 3.5 0  7.5 3.5 0  8.25 3.5 0  9 3.5 0  9.75 3.5 0  10.5 3.5 0  11.25 3.5 0  12 3.5 0  12.75 3.5 0  13.5 3.5 0  14.25 3.5 0  15 3.5 0  15.75 3.5 0  16.5 3.5 0  17.25 3.5 0  18 3.5 0  18.75 3.5 0  19.5 3.5 0  20.25 3.5 0  21 3.5 0  21.75 3.5 0  22.5 3.5 0  23.25 3.5 0  24 3.5 0  24.75 3.5 0  25.5 3.5 0  26.25 3.5 0  27 3.5 0  27.75 3.5 0  28.5 3.5 0  29.25 3.5 0  30 3.5 0  30.75 3.5 0  31.5 3.5 0  32.25 3.5 0  33 3.5 0  33.75 3.5 0  34.5 3.5 0  35.25 3.5 0  36 3.5 0  36.75 3.5 0  37.5 3.5 0  38.25 3.5 0  39 3.5 0  39.75 3.5 0  40.5 3.5 0  41.25 3.5 0  42 3.5 0  42.75 3.5 0  43.5 3.5 0  44.25 3.5 0  45 3.5 0  45.75 3.5 0  46.5 3.5 0  47.25 3.5 0  48 3.5 0  48.75 3.5 0  49.5 3.5 0  50.25 3.5 0  51 3.5 0  51.75 3.5 0  52.5 3.5 0  53.25 3.5 0  54 3.5 0  54.75 3.5 0  55.5 3.5 0  56.25 3.5 0  57 3.5 0  57.75 3.5 0  58.5 3.5 0  59.25 3.5 0  60 3.5 0  0 4 0  0.75 4 0  1.5 4 0  2.25 4 0  3 4 0  3.75 4 0  4.5 4 0  5.25 4 0  6 4 0  6.75 4 0  7.5 4 0  8.25 4 0  9 4 0  9.75 4 0  10.5 4 0  11.25 4 0  12 4 0  12.75 4 0  13.5 4 0  14.25 4 0  15 4 0  15.75 4 0  16.5 4 0  17.25 4 0  18 4 0  18.75 4 0  19.5 4 0  20.25 4 0  21 4 0  21.75 4 0  22.5 4 0  23.25 4 0  24 4 0  24.75 4 0  25.5 4 0  26.25 4 0  27 4 0  27.75 4 0  28.5 4 0  29.25 4 0  30 4 0  30.75 4 0  31.5 4 0  32.25 4 0  33 4 0  33.75 4 0  34.5 4 0  35.25 4 0  36 4 0  36.75 4 0  37.5 4 0  38.25 4 0  39 4 0  39.75 4 0  40.5 4 0  41.25 4 0  42 4 0  42.75 4 0  43.5 4 0  44.25 4 0  45 4 0  45.75 4 0  46.5 4 0  47.25 4 0  48 4 0  48.75 4 0  49.5 4 0  50.25 4 0  51 4 0  51.75 4 0  52.5 4 0  53.25 4 0  54 4 0  54.75 4 0  55.5 4 0  56.25 4 0  57 4 0  57.75 4 0  58.5 4 0  59.25 4 0  60 4 0  0.375 0.25 0  1.125 0.25 0  1.875 0.25 0  2.625 0.25 0  3.375 0.25 0  4.125 0.25 0  4.875 0.25 0  5.625 0.25 0  6.375 0.25 0  7.125 0.25 0  7.875 0.25 0  8.625 0.25 0  9.375 0.25 0  10.125 0.25 0  10.875 0.25 0  11.625 0.25 0  12.375 0.25 0  13.125 0.25 0  13.875 0.25 0  14.625 0.25 0  15.375 0.25 0  16.125 0.25 0  16.875 0.25 0  17.625 0.25 0  18.375 0.25 0  19.125 0.25 0  19.875 0.25 0  20.625 0.25 0  21.375 0.25 0  22.125 0.25 0  22.875 0.25 0  23.625 0.25 0  24.375 0.25 0  25.125 0.25 0  25.875 0.25 0  26.625 0.25 0  27.375 0.25 0  28.125 0.25 0  28.875 0.25 0  29.625 0.25 0  30.375 0.25 0  31.125 0.25 0  31.875 0.25 0  32.625 0.25 0  33.375 0.25 0  34.125 0.25 0  34.875 0.25 0  35.625 0.25 0  36.375 0.25 0  37.125 0.25 0  37.875 0.25 0  38.625 0.25 0  39.375 0.25 0  40.125 0.25 0  40.875 0.25 0  41.625 0.25 0  42.375 0.25 0  43.125 0.25 0  43.875 0.25 0  44.625 0.25 0  45.375 0.25 0  46.125 0.25 0  46.875 0.25 0  47.625 0.25 0  48.375 0.25 0  49.125 0.25 0  49.875 0.25 0  50.625 0.25 0  51.375 0.25 0  52.125 0.25 0  52.875 0.25 0  53.625 0.25 0  54.375 0.25 0  55.125 0.25 0  55.875 0.25 0  56.625 0.25 0  57.375 0.25 0  58.125 0.25 0  58.875 0.25 0  59.625 0.25 0  0.375 0.75 0  1.125 0.75 0  1.875 0.75 0  2.625 0.75 0  3.375 0.75 0  4.125 0.75 0  4.875 0.75 0  5.625 0.75 0  6.375 0.75 0  7.125 0.75 0  7.875 0.75 0  8.625 0.75 0  9.375 0.75 0  10.125 0.75 0  10.875 0.75 0  11.625 0.75 0  12.375 0.75 0  13.125 0.75 0  13.875 0.75 0  14.625 0.75 0  15.375 0.75 0  16.125 0.75 0  16.875 0.75 0  17.625 0.75 0  18.375 0.75 0  19.125 0.75 0  19.875 0.75 0  20.625 0.75 0  21.375 0.75 0  22.125 0.75 0  22.875 0.75 0  23.625 0.75 0  24.375 0.75 0  25.125 0.75 0  25.875 0.75 0  26.625 0.75 0  27.375 0.75 0  28.125 0.75 0  28.875 0.75 0  29.625 0.75 0  30.375 0.75 0  31.125 0.75 0  31.875 0.75 0  32.625 0.75 0  33.375 0.75 0  34.125 0.75 0  34.875 0.75 0  35.625 0.75 0  36.375 0.75 0  37.125 0.75 0  37.875 0.75 0  38.625 0.75 0  39.375 0.75 0  40.125 0.75 0  40
[...]
<PointData  Scalars="f_8-1"> 
<DataArray  type="Float64"  Name="f_8-1"  format="ascii">-1.1410170053452598e+01  -1.1269739268469175e+01  -1.1126880134763983e+01  -1.0984425455955479e+01  -1.0841894868110678e+01  -1.0699323147298612e+01  -1.0556701449145342e+01  -1.0414048876055924e+01  -1.0271377126473809e+01  -1.0128696637755080e+01  -9.9860117027098099e+00  -9.8433285911242443e+00  -9.7006522264862216e+00  -9.5579842261411905e+00  -9.4153226613849785e+00  -9.2726649990784775e+00  -9.1300092036563480e+00  -8.9873542093489771e+00  -8.8446994980177305e+00  -8.7020448946728646e+00  -8.5593903250519698e+00  -8.4167357730790151e+00  -8.2740812265243520e+00  -8.1314266836194982e+00  -7.9887721407841701e+00  -7.8461175976399522e+00  -7.7034630530721246e+00  -7.5608085069973257e+00  -7.4181539591138881e+00  -7.2754994093834213e+00  -7.1328448577473811e+00  -6.9901903041719793e+00  -6.8475357486621853e+00  -6.7048811911907356e+00  -6.5622266317729601e+00  -6.4195720703902985e+00  -6.2769175070548915e+00  -6.1342629417556589e+00  -5.9916083745000295e+00  -5.8489538052819290e+00  -5.7062992341053889e+00  -5.5636446609673635e+00  -5.4209900858698150e+00  -5.2783355088113275e+00  -5.1356809297927910e+00  -4.9930263488135678e+00  -4.8503717658740451e+00  -4.7077171809739413e+00  -4.5650625941133942e+00  -4.4224080052922670e+00  -4.2797534145105924e+00  -4.1370988217682640e+00  -3.9944442270652307e+00  -3.8517896304013144e+00  -3.7091350317762939e+00  -3.5664804311896887e+00  -3.4238258286407510e+00  -3.2811712241280300e+00  -3.1385166176489201e+00  -2.9958620091982628e+00  -2.8532073987663584e+00  -2.7105527863338290e+00  -2.5678981718631286e+00  -2.4252435552788945e+00  -2.2825889364334397e+00  -2.1399343150324839e+00  -1.9972796905006325e+00  -1.8546250617081170e+00  -1.7119704264755238e+00  -1.5693157805811591e+00  -1.4266611160591041e+00  -1.2840064166727609e+00  -1.1413516555170222e+00  -9.9869673943772563e-01  -8.5604169311910405e-01  -7.1338501433852064e-01  -5.7073234119480465e-01  -4.2804146759407635e-01  -2.8551224209512382e-01  -1.4209228885081857e-01  -2.7044691054761301e-03  -1.1412945895305649e+01  -1.1269594053145575e+01  -1.1126963866988836e+01  -1.0984443358040513e+01  -1.0841917825759429e+01  -1.0699344945721165e+01  -1.0556729070393789e+01  -1.0414077567325496e+01  -1.0271408047877436e+01  -1.0128728176408925e+01  -9.9860436248058253e+00  -9.8433589574104481e+00  -9.7006814830596948e+00  -9.5580125952518653e+00  -9.4153508189999311e+00  -9.2726930303681190e+00  -9.1300372782065580e+00  -8.9873822716438223e+00  -8.8447275852594309e+00  -8.7020729731900932e+00  -8.5594184115359546e+00  -8.4167638546469004e+00  -8.2741093111184458e+00  -8.1314547661115544e+00  -7.9888002245429055e+00  -7.8461456805585676e+00  -7.7034911364970560e+00  -7.5608365901083614e+00  -7.4181820424042675e+00  -7.2755274925729170e+00  -7.1328729409859903e+00  -6.9902183873884303e+00  -6.8475638318825922e+00  -6.7049092744130583e+00  -6.5622547149874855e+00  -6.4196001536110296e+00  -6.2769455902672826e+00  -6.1342910249727778e+00  -5.9916364577109036e+00  -5.8489818884952509e+00  -5.7063273173144955e+00  -5.5636727441771825e+00  -5.4210181690767829e+00  -5.2783635920179623e+00  -5.1357090129973315e+00  -4.9930544320172094e+00  -4.8503998490759859e+00  -4.7077452641747106e+00  -4.5650906773126403e+00  -4.4224360884902056e+00  -4.2797814977070772e+00  -4.1371269049633828e+00  -3.9944723102589168e+00  -3.8518177135936047e+00  -3.7091631149671684e+00  -3.5665085143792155e+00  -3.4238539118290010e+00  -3.2811993073153278e+00  -3.1385447008357721e+00  -2.9958900923861682e+00  -2.8532354819578734e+00  -2.7105808695353852e+00  -2.5679262550863071e+00  -2.4252716385502335e+00  -2.2826170198021822e+00  -2.1399623986047245e+00  -1.9973077744765364e+00  -1.8546531465008846e+00  -1.7119985128691408e+00  -1.5693438701756393e+00  -1.4266892118123042e+00  -1.2840345256231669e+00  -1.1413797859524544e+00  -9.9872495373602399e-01  -8.5606985714194817e-01  -7.1341460795823541e-01  -5.7075613834968109e-01  -4.2810528923690311e-01  -2.8538442260349278e-01  -1.4292585834389859e-01  6.5499681485562072e-04  -1.1412675748072958e+01  -1.1269863150202381e+01  -1.1127048290196413e+01  -1.0984512274506898e+01  -1.0841943574164958e+01  -1.0699373358075393e+01  -1.0556750951197346e+01  -1.0414106345129380e+01  -1.0271435935129363e+01  -1.0128760289214879e+01  -9.9860756586258361e+00  -9.8433914684853256e+00  -9.7007124820947919e+00  -9.5580433508629188e+00  -9.4153809124626058e+00  -9.2727231156950012e+00  -9.1300671471567476e+00  -8.9874121890018497e+00  -8.8447574325958502e+00  -8.7021028533132494e+00  -8.5594482651746979e+00  -8.4167937237398434e+00  -8.2741391693365074e+00  -8.1314846309926132e+00  -7.9888300849389973e+00  -7.8461755437252529e+00  -7.7035209978782264e+00  -7.5608664525723563e+00  -7.4182119042159709e+00  -7.2755573547569519e+00  -7.1329028029713459e+00  -6.9902482494697793e+00  -6.8475936939284647e+00  -6.7049391364624746e+00  -6.5622845770486782e+00  -6.4196300156537616e+00  -6.2769754523282444e+00  -6.1343208870159902e+00  -5.9916663197676359e+00  -5.8490117505397929e+00  -5.7063571793668908e+00  -5.5637026062222468e+00  -5.4210480311256246e+00  -5.2783934540625941e+00  -5.1357388750433621e+00  -4.9930842940607576e+00  -4.8504297111196664e+00  -4.7077751262167755e+00  -4.5651205393542504e+00  -4.4224659505306221e+00  -4.2798113597467902e+00  -4.1371567670021143e+00  -3.9945021722968641e+00  -3.8518475756307273e+00  -3.7091929770035450e+00  -3.5665383764149716e+00  -3.4238837738642154e+00  -3.2812291693503211e+00  -3.1385745628707045e+00  -2.9959199544219004e+00  -2.8532653439948810e+00  -2.7106107315759256e+00  -2.5679561171321668e+00  -2.4253015006079424e+00  -2.2826468818787795e+00  -2.1399922607210309e+00  -1.9973376366601316e+00  -1.8546830088177955e+00  -1.7120283754060004e+00  -1.5693737330673661e+00  -1.4267190751424641e+00  -1.2840643889873888e+00  -1.1414096499150854e+00  -9.9875480632917624e-01  -8.5609976037730551e-01  -7.1344420532028974e-01  -5.7078787921051766e-01  -4.2812744624636728e-01  -2.8546800627071051e-01  -1.4277473393000562e-01  -1.4955731668627722e-05  -1.1412676282008491e+01  -1.1269851047755063e+01  -1.1127152711485188e+01  -1.0984504922690004e+01  -1.0841947802620410e+01  -1.0699343564148515e+01  -1.0556737030999001e+01  -1.0414086692249080e+01  -1.0271427639874823e+01  -1.0128750320574213e+01  -9.9860716853211855e+00  -9.8433880822192528e+00  -9.7007112867286018e+00  -9.5580405710554555e+00  -9.4153776139136323e+00  -9.2727184629560959e+00  -9.1300621904783377e+00  -8.9874067558833772e+00  -8.8447519969215040e+00  -8.7020972870018305e+00  -8.5594427352184823e+00  -8.4167881517203345e+00  -8.2741336177455320e+00  -8.1314790631106906e+00  -7.9888245261845885e+00  -7.8461699783887475e+00  -7.7035154363908616e+00  -7.5608608885068112e+00  -7.4182063416559219e+00  -7.2755517912758361e+00  -7.1328972399998607e+00  -6.9902426862302312e+00  -6.8475881308132829e+00  -6.7049335733088702e+00  -6.5622790138935239e+00  -6.4196244525235358e+00  -6.2769698891689609e+00  -6.1343153238879289e+00  -5.9916607566138067e+00  -5.8490061874087536e+00  -5.7063516162192842e+00  -5.5636970430884043e+00  -5.4210424679827591e+00  -5.2783878909272515e+00  -5.1357333119037358e+00  -4.9930787309250704e+00  -4.8504241479822614e+00  -4.7077695630814649e+00  -4.5651149762185312e+00  -4.4224603873961463e+00  -4.2798057966125489e+00  -4.1371512038688270e+00  -3.9944966091641811e+00  -3.8518420124989832e+00  -3.7091874138727086e+00  -3.5665328132852481e+00  -3.4238782107357135e+00  -3.2812236062230093e+00  -3.1385689997444550e+00  -2.9959143912954560e+00  -2.8532597808659506e+00  -2.7106051684374619e+00  -2.5679505539708751e+00  -2.4252959373917271e+00  -2.2826413185466055e+00  -2.1399866971397223e+00  -1.9973320725751453e+00  -1.8546774437002786e+00  -1.7120228082261497e+00  -1.5693681616934632e+00  -1.4267134952132134e+00  -1.2840587910448646e+00  -1.1414040124651810e+00  -9.9874908122255834e-01  -8.5609382038113102e-01  -7.1343783004371031e-01  -5.7078012022426206e-01  -4.2811859744321479e-01  -2.8544765120055637e-01  -1.4275432510971220e-01  1.4149358034952027e-06  -1.1412670146928267e+01  -1.1269876004202816e+01  -1.1127146515844512e+01  -1.0984527551687993e+01  -1.0841923204282091e+01  -1.0699342424635502e+01  -1.0556715942263445e+01  -1.0414080601343555e+01  -1.0271414122466151e+01  -1.0128744136997302e+01  -9.9860623357974045e+00  -9.8433829186982731e+00  -9.7007048228602741e+00  -9.5580352342975043e+00  -9.4153709110099904e+00  -9.2727118869295300e+00  -9.1300549269502564e+00  -8.9873995997669898e+00  -8.8447445948558308e+00  -8.7020899742177349e+00  -8.5594353345925516e+00  -8.4167807982566796e+00  -8.2741262294987923e+00  -8.1314716960050681e+00  -7.9888171446425069e+00  -7.8461626059094556e+00  -7.7035080579541058e+00  -7.5608535138027690e+00  -7.4181989646195987e+00  -7.2755444156506881e+00  -7.1328898635639755e+00  -6.9902353102447075e+00  -6.8475807546111014e+00  -6.7049261971993950e+00  -6.5622716377686983e+00  -6.4196170763820488e+00  -6.2769625130619389e+00  -6.1343079477452305e+00  -5.9916533805056904e+00  -5.8489988112722449e+00  -5.7063442401062927e+00  -5.5636896669578206e+00  -5.4210350918657042e+00  -5.2783805148007028e+00  -5.1357259357841896e+00  -4.9930713548009056e+00  -4.8504167718614806e+00  -4.7077621869586475e+00  -4.5651076000973116e+00  -4.4224530112741780e+00  -4.2797984204914048e+00  -4.1371438277475869e+00  -3.9944892330435753e+00  -3.8518346363787423e+00  -3.7091800377532804e+00  -3.5665254371667090e+00  -3.4238708346185498e+00  -3.2812162301075531e+00  -3.1385616236313258e+00  -2.9959070151849549e+00  -2.8532524047583765e+00  -2.7105977923314861e+00  -2.5679431778631665e+00  -2.4252885612715245e+00  -2.2826339423914277e+00  -2.1399793208962965e+00  -1.9973246961368416e+00  -1.8546700668378473e+00  -1.7120154304817032e+00  -1.5693607821054132e+00  -1.4267061117966731e+00  -1.2840513994311269e+00  -1.1413966028059137e+00  -9.9874162996960525e-01  -8.5608627279970773e-01  -7.1343004629267148e-01  -5.7077181377854691e-01  -4.2810893074586309e-01  -2.8543512238539598e-01  -1.4273634311850453e-01  -6.5076706846125526e-06  -1.1412676283980771e+01  -1.1269851035498819e+01  -1.1127152692851869e+01  -1.0984504907809336e+01  -1.0841947804562832e+01  -1.0699343579226149e+01  -1.0556737054603508e+01  -1.0414086718245754e+01  -1.0271427663637905e+01  -1.0128750337995674e+01  -9.9860716989219629e+00  -9.8433880935498603e+00  -9.7007112944266662e+00  -9.5580405742396568e+00  -9.4153776137711080e+00  -9.2727184615678873e+00  -9.1300621894955896e+00  -8.9874067560920103e+00  -8.8447519984560152e+00  -8.7020972896786137e+00  -8.5594427387723737e+00  -8.4167881559096074e+00  -8.2741336223834168e+00  -8.1314790680618181e+00  -7.9888245313538597e+00  -7.8461699837096255e+00  -7.7035154418170508e+00  -7.5608608940059439e+00  -7.4182063472055138e+00  -7.2755517968602339e+00  -7.1328972456082358e+00  -6.9902426918550580e+00  -6.8475881364494064e+00  -6.7049335789527307e+00  -6.5622790195427019e+00  -6.4196244581763180e+00  -6.2769698948242176e+00  -6.1343153295448696e+00  -5.9916607622719118e+00  -5.8490061930676545e+00  -5.7063516218787314e+00  -5.5636970487482289e+00  -5.4210424736428573e+00  -5.2783878965875415e+00  -5.1357333175641688e+00  -4.9930787365856322e+00  -4.8504241536429404e+00  -4.7077695687422683e+00  -4.5651149818794936e+00  -4.4224603930573414e+00  -4.2798058022740380e+00  -4.1371512095307503e+00  -3.9944966148267635e+00  -3.8518420181625017e+00  -3.7091874195376215e+00  -3.5665328189521608e+00  -3.4238782164056030e+00  -3.2812236118972664e+00  -3.1385690054251238e+00  -2.9959143969855466e+00  -2.8532597865699065e+00  -2.7106051741618171e+00  -2.5679505597252525e+00  -2.4252959431902963e+00  -2.2826413244102270e+00  -2.1399867030990554e+00  -1.9973320786751099e+00  -1.8546774500064087e+00  -1.7120228148335608e+00  -1.5693681687388339e+00  -1.4267135028909272e+00  -1.2840587996274111e+00  -1.1414040223272837e+00  -9.9874909286563585e-01  -8.5609383444264253e-01  -7.1343784725299442e-01  -5.7078014116222919e-01  -4.2811862218180818e-01  -2.8544767944590749e-01  -1.4275435396474925e-01  1.4194798559998720e-06  -1.1412675738219917e+01  -1.1269863138119900e+01  -1.1127048239442734e+01  -1.0984512250492946e+01  -1.0841943578227008e+01  -1.0699373390977840e+01  -1.0556750998625198e+01  -1.0414106396933258e+01  -1.0271435981158476e+01  -1.0128760323382611e+01  -9.9860756854733008e+00  -9.8433914902162716e+00  -9.7007124964504854e+00  -9.5580433570978478e+00  -9.4153809132140598e+00  -9.2727231147517521e+00  -9.1300671472853239e+00  -8.9874121914261913e+00  -8.8447574374402151e+00  -8.7021028602026522e+00  -8.5594482736182851e+00  -8.4167937333051501e+00  -8.2741391796912822e+00  -8.1314846418982629e+00  -7.9888300962275327e+00  -7.8461755552798742e+00  -7.7035210096172753e+00  -7.5608664644392150e+00  -7.4182119161710363e+00  -7.2755573667729623e+00  -7.1329028150292677e+00  -6.9902482615564896e+00  -6.8475937060348979e+00  -6.7049391485824357e+00  -6.5622845891779029e+00  -6.4196300277893013e+00  -6.2769754644681255e+00  -6.1343208991588112e+00  -5.9916663319124694e+00  -5.8490117626860139e+00  -5.7063571915140772e+00  -5.5637026183700931e+00  -5.4210480432739487e+00  -5.2783934662112415e+00  -5.1357388871922680e+00  -4.9930843062099015e+00  -4.8504297232690083e+00  -4.7077751383663378e+00  -4.5651205515041005e+00  -4.4224659626808673e+00  -4.2798113718975754e+00  -4.1371567791537105e+00  -3.9945021844496527e+00  -3.8518475877852145e+00  -3.7091929891605391e+00  -3.5665383885756103e+00  -3.4238837860302329e+00  -3.2812291815242607e+00  -3.1385745750562704e+00  -2.9959199666245371e+00  -2.8532653562226526e+00  -2.7106107438406832e+00  -2.5679561294513431e+00  -2.4253015130072315e+00  -2.2826468943959921e+00  -2.1399922734117345e+00  -1.9973376496057247e+00  -1.8546830221370556e+00  -1.7120283892711949e+00  -1.5693737477261667e+00  -1.4267190909470069e+00  -1.2840644064311368e+00  -1.1414096696761324e+00  -9.9875482931127102e-01  -8.5609978773186990e-01  -7.1344423829635717e-01  -5.7078791905369319e-01  -4.2812749159542007e-01  -2.8546805875402409e-01  -1.4277479733657164e-01  -1.4950356248336407e-05  -1.1412945930771954e+01  -1.1269593944470037e+01  -1.1126963799070039e+01  -1.0984443318942322e+01  -1.0841917826605798e+01  -1.0699344980547917e+01  -1.0556729122149987e+01  -1.0414077622554279e+01  -1.0271408094790528e+01  -1.0128728210276687e+01  -9.9860436487850581e+00  -9.8433589733371214e+00  -9.7006814900365708e+00  -9.5580125937990559e+00  -9.4153508122911411e+00  -9.2726930223070028e+00  -9.1300372715902043e+00  -8.9873822677081527e+00  -8.8447275841151480e+00  -8.7020729744130936e+00  -8.5594184145710219e+00  -8.4167638589963332e+00  -8.2741093163959132e+00  -8.1314547720370456e+00  -7.9888002309187298e+00  -7.8461456872470370e+00  -7.7034911434020543e+00  -7.5608365971632772e+00  -7.4181820495626170e+00  -7.2755274998027009e+00  -7.1328729482649162e+00  -6.9902183947011007e+00  -6.8475638392183908e+00  -6.7049092817646807e+00  -6.5622547223499970e+00  -6.4196001609809485e+00  -6.2769455976423068e+00  -6.1342910323512241e+00  -5.9916364650917009e+00  -5.8489818958776629e+00  -5.7063273246980462e+00  -5.5636727515615068e+00  -5.4210181764616596e+00  -5.2783635994032103e+00  -5.1357090203829001e+00  -4.9930544394030507e+00  -4.8503998564620501e+00  -4.7077452715610129e+00  -4.5650906846992632e+00  -4.4224360958772859e+00  -4.2797815050947694e+00  -4.1371269123520316e+00  -3.9944723176489045e+00  -3.8518177209855442e+00  -3.7091631223619639e+00  -3.5665085217781938e+00  -3.4238539192341380e+00  -3.2811993147295153e+00  -3.1385447082632685e+00  -2.9958900998331974e+00  -2.8532354894336973e+00  -2.7105808770535647e+00  -2.5679262626668105e+00  -2.4252716462224693e+00  -2.2826170276094140e+00  -2.1399624066104499e+00  -1.9973077827735881e+00  -1.8546531552243963e+00  -1.7119985222143879e+00  -1.5693438804221072e+00  -1.4266892233547488e+00  -1.2840345390095893e+00  -1.1413798019246144e+00  -9.9872497326204257e-01  -8.5606988135999995e-01  -7.1341463823428708e-01  -5.7075617396164058e-01  -4.2810533672744150e-01  -2.8538443167802002e-01  -1.4292599771068748e-01  6.5509435416764188e-04  -1.1410168060092493e+01  -1.1269739418744557e+01  -1.1126880038573116e+01  -1.0984425439756135e+01  -1.0841894886219668e+01  -1.0699323198917444e+01  -1.0556701515423621e+01  -1.0414048942625143e+01  -1.0271377182837321e+01  -1.0128696680696114e+01  -9.9860117346632968e+00  -9.8433286138793950e+00  -9.7006522403070257e+00  -9.5579842323306536e+00  -9.4153226631900875e+00  -9.2726650001031405e+00  -9.1300092064438996e+00  -8.9873542149850056e+00  -8.8446995065546385e+00  -8.7020449056550380e+00  -8.5593903379079457e+00  -8.4167357872946589e+00  -8.2740812417015785e+00  -8.1314266994679922e+00  -7.9887721570993655e+00  -7.8461176142787723e+00  -7.7034630699351574e+00  -7.5608085240154113e+00  -7.4181539762388935e+00  -7.2754994265823276e+00  -7.1328448749970761e+00  -6.9901903214565868e+00  -6.8475357659706857e+00  -6.7048812085155607e+00  -6.5622266491090819e+00  -6.4195720877340587e+00  -6.2769175244039515e+00  -6.1342629591082503e+00  -5.9916083918550305e+00  -5.8489538226385900e+00  -5.7062992514632258e+00  -5.5636446783260132e+00  -5.4209901032290322e+00  -5.2783355261709310e+00  -5.1356809471527036e+00  -4.9930263661737397e+00  -4.8503717832344497e+00  -4.7077171983345627e+00  -4.5650626114743140e+00  -4.4224080226536229e+00  -4.2797534318724919e+00  -4.1370988391310792e+00  -3.9944442444292561e+00  -3.8517896477671427e+00  -3.7091350491447570e+00  -3.5664804485619888e+00  -3.4238258460187176e+00  -3.2811712415143273e+00  -3.1385166350474671e+00  -2.9958620266148075e+00  -2.8532074162094347e+00  -2.7105528038159208e+00  -2.5678981894026425e+00  -2.4252435729028972e+00  -2.2825889541817532e+00  -2.1399343329634468e+00  -1.9972797086993399e+00  -1.8546250802980260e+00  -1.7119704456341216e+00  -1.5693158005607153e+00  -1.4266611372123692e+00  -1.2840064394827919e+00  -1.1413516806247923e+00  -9.9869676764714976e-01  -8.5604172538629775e-01  -7.1338505102474115e-01  -5.7073238534624404e-01  -4.2804149580406364e-01  -2.8551236780784739e-01  -1.4209190386417195e-01  -2.7062219243441260e-03  -1.1341322140640436e+01  -1.1198331373893122e+01  -1.1055781465528181e+01  -1.0913256293196286e+01  -1.0770706097601074e+01  -1.0628110570450822e+01  -1.0485474535224727e+01  -1.0342813592824175e+01  -1.0200138196501507e+01  -1.0057456048318029e+01  -9.9147714158178246e+00  -9.7720910536192900e+00  -9.6294183554346873e+00  -9.4867534074928965e+00  -9.3440937146677303e+00  -9.2014369953964206e+00  -9.0587815965674015e+00  -8.9161267543097331e+00  -8.7734720947806544e+00  -8.6308175113259402e+00  -8.4881629490298636e+00  -8.3455084006875104e+00  -8.2028538553434736e+00  -8.0601993127909832e+00  -7.9175447695908350e+00  -7.7748902258275958e+00  -7.6322356804480762e+00  -7.4895811334783584e+00  -7.3469265846634269e+00  -7.2042720339646573e+00  -7.0616174813624477e+00  -6.9189629268010764e+00  -6.7763083703130045e+00  -6.6336538118523993e+00  -6.4909992514512940e+00  -6.3483446890795463e+00  -6.2056901247584291e+00  -6.0630355584706033e+00  -5.9203809902280939e+00  -5.7777264200217715e+00  -5.6350718478578150e+00  -5.4924172737317507e+00  -5.3497626976465407e+00  -5.2071081196001199e+00  -5.0644535395937886e+00  -4.9217989576266712e+00  -4.7791443736992951e+00  -4.6364897878112954e+00  -4.4938351999628416e+00  -4.3511806101537864e+00  -4.2085260183841502e+00  -4.0658714246538104e+00  -3.9232168289626972e+00  -3.7805622313105665e+00  -3.6379076316971313e+00  -3.4952530301217482e+00  -3.3525984265834605e+00  -3.2099438210802624e+00  -3.0672892136087988e+00  -2.9246346041619624e+00  -2.7819799927271474e+00  -2.6393253792778388e+00  -2.4966707637647700e+00  -2.3540161460859363e+00  -2.2113615260473130e+00  -2.0687069032557410e+00  -1.9260522769591879e+00  -1.78339764567141