<?xml version="1.0"?>
<VTKFile type="UnstructuredGrid"  version="0.1"  >
<UnstructuredGrid>
<Piece  NumberOfPoints="1369" NumberOfCells="2560">
<Points>
<DataArray  type="Float64"  NumberOfComponents="3"  format="ascii">0 0 0  0.75 0 0  1.5 0 0  2.25 0 0  3 0 0  3.75 0 0  4.5 0 0  5.25 0 0  6 0 0  6.75 0 0  7.5 0 0  8.25 0 0  9 0 0  9.75 0 0  10.5 0 0  11.25 0 0  12 0 0  12.75 0 0  13.5 0 0  14.25 0 0  15 0 0  15.75 0 0  16.5 0 0  17.25 0 0  18 0 0  18.75 0 0  19.5 0 0  20.25 0 0  21 0 0  21.75 0 0  22.5 0 0  23.25 0 0  24 0 0  24.75 0 0  25.5 0 0  26.25 0 0  27 0 0  27.75 0 0  28.5 0 0  29.25 0 0  30 0 0  30.75 0 0  31.5 0 0  32.25 0 0  33 0 0  33.75 0 0  34.5 0 0  35.25 0 0  36 0 0  36.75 0 0  37.5 0 0  38.25 0 0  39 0 0  39.75 0 0  40.5 0 0  41.25 0 0  42 0 0  42.75 0 0  43.5 0 0  44.25 0 0  45 0 0  45.75 0 0  46.5 0 0  47.25 0 0  48 0 0  48.75 0 0  49.5 0 0  50.25 0 0  51 0 0  51.75 0 0  52.5 0 0  53.25 0 0  54 0 0  54.75 0 0  55.5 0 0  56.25 0 0  57 0 0  57.75 0 0  58.5 0 0  59.25 0 0  60 0 0  0 0.5 0  0.75 0.5 0  1.5 0.5 0  2.25 0.5 0  3 0.5 0  3.75 0.5 0  4.5 0.5 0  5.25 0.5 0  6 0.5 0  6.75 0.5 0  7.5 0.5 0  8.25 0.5 0  9 0.5 0  9.75 0.5 0  10.5 0.5 0  11.25 0.5 0  12 0.5 0  12.75 0.5 0  13.5 0.5 0  14.25 0.5 0  15 0.5 0  15.75 0.5 0  16.5 0.5 0  17.25 0.5 0  18 0.5 0  18.75 0.5 0  19.5 0.5 0  20.25 0.5 0  21 0.5 0  21.75 0.5 0  22.5 0.5 0  23.25 0.5 0  24 0.5 0  24.75 0.5 0  25.5 0.5 0  26.25 0.5 0  27 0.5 0  27.75 0.5 0  28.5 0.5 0  29.25 0.5 0  30 0.5 0  30.75 0.5 0  31.5 0.5 0  32.25 0.5 0  33 0.5 0  33.75 0.5 0  34.5 0.5 0  35.25 0.5 0  36 0.5 0  36.75 0.5 0  37.5 0.5 0  38.25 0.5 0  39 0.5 0  39.75 0.5 0  40.5 0.5 0  41.25 0.5 0  42 0.5 0  42.75 0.5 0  43.5 0.5 0  44.25 0.5 0  45 0.5 0  45.75 0.5 0  46.5 0.5 0  47.25 0.5 0  48 0.5 0  48.75 0.5 0  49.5 0.5 0  50.25 0.5 0  51 0.5 0  51.75 0.5 0  52.5 0.5 0  53.25 0.5 0  54 0.5 0  54.75 0.5 0  55.5 0.5 0  56.25 0.5 0  57 0.5 0  57.75 0.5 0  58.5 0.5 0  59.25 0.5 0  60 0.5 0  0 1 0  0.75 1 0  1.5 1 0  2.25 1 0  3 1 0  3.75 1 0  4.5 1 0  5.25 1 0  6 1 0  6.75 1 0  7.5 1 0  8.25 1 0  9 1 0  9.75 1 0  10.5 1 0  11.25 1 0  12 1 0  12.75 1 0  13.5 1 0  14.25 1 0  15 1 0  15.75 1 0  16.5 1 0  17.25 1 0  18 1 0  18.75 1 0  19.5 1 0  20.25 1 0  21 1 0  21.75 1 0  22.5 1 0  23.25 1 0  24 1 0  24.75 1 0  25.5 1 0  26.25 1 0  27 1 0  27.75 1 0  28.5 1 0  29.25 1 0  30 1 0  30.75 1 0  31.5 1 0  32.25 1 0  33 1 0  33.75 1 0  34.5 1 0  35.25 1 0  36 1 0  36.75 1 0  37.5 1 0  38.25 1 0  39 1 0  39.75 1 0  40.5 1 0  41.25 1 0  42 1 0  42.75 1 0  43.5 1 0  44.25 1 0  45 1 0  45.75 1 0  46.5 1 0  47.25 1 0  48 1 0  48.75 1 0  49.5 1 0  50.25 1 0  51 1 0  51.75 1 0  52.5 1 0  53.25 1 0  54 1 0  54.75 1 0  55.5 1 0  56.25 1 0  57 1 0  57.75 1 0  58.5 1 0  59.25 1 0  60 1 0  0 1.5 0  0.75 1.5 0  1.5 1.5 0  2.25 1.5 0  3 1.5 0  3.75 1.5 0  4.5 1.5 0  5.25 1.5 0  6 1.5 0  6.75 1.5 0  7.5 1.5 0  8.25 1.5 0  9 1.5 0  9.75 1.5 0  10.5 1.5 0  11.25 1.5 0  12 1.5 0  12.75 1.5 0  13.5 1.5 0  14.25 1.5 0  15 1.5 0  15.75 1.5 0  16.5 1.5 0  17.25 1.5 0  18 1.5 0  18.75 1.5 0  19.5 1.5 0  20.25 1.5 0  21 1.5 0  21.75 1.5 0  22.5 1.5 0  23.25 1.5 0  24 1.5 0  24.75 1.5 0  25.5 1.5 0  26.25 1.5 0  27 1.5 0  27.75 1.5 0  28.5 1.5 0  29.25 1.5 0  30 1.5 0  30.75 1.5 0  31.5 1.5 0  32.25 1.5 0  33 1.5 0  33.75 1.5 0  34.5 1.5 0  35.25 1.5 0  36 1.5 0  36.75 1.5 0  37.5 1.5 0  38.25 1.5 0  39 1.5 0  39.75 1.5 0  40.5 1.5 0  41.25 1.5 0  42 1.5 0  42.75 1.5 0  43.5 1.5 0  44.25 1.5 0  45 1.5 0  45.75 1.5 0  46.5 1.5 0  47.25 1.5 0  48 1.5 0  48.75 1.5 0  49.5 1.5 0  50.25 1.5 0  51 1.5 0  51.75 1.5 0  52.5 1.5 0  53.25 1.5 0  54 1.5 0  54.75 1.5 0  55.5 1.5 0  56.25 1.5 0  57 1.5 0  57.75 1.5 0  58.5 1.5 0  59.25 1.5 0  60 1.5 0  0 2 0  0.75 2 0  1.5 2 0  2.25 2 0  3 2 0  3.75 2 0  4.5 2 0  5.25 2 0  6 2 0  6.75 2 0  7.5 2 0  8.25 2 0  9 2 0  9.75 2 0  10.5 2 0  11.25 2 0  12 2 0  12.75 2 0  13.5 2 0  14.25 2 0  15 2 0  15.75 2 0  16.5 2 0  17.25 2 0  18 2 0  18.75 2 0  19.5 2 0  20.25 2 0  21 2 0  21.75 2 0  22.5 2 0  23.25 2 0  24 2 0  24.75 2 0  25.5 2 0  26.25 2 0  27 2 0  27.75 2 0  28.5 2 0  29.25 2 0  30 2 0  30.75 2 0  31.5 2 0  32.25 2 0  33 2 0  33.75 2 0  34.5 2 0  35.25 2 0  36 2 0  36.75 2 0  37.5 2 0  38.25 2 0  39 2 0  39.75 2 0  40.5 2 0  41.25 2 0  42 2 0  42.75 2 0  43.5 2 0  44.25 2 0  45 2 0  45.75 2 0  46.5 2 0  47.25 2 0  48 2 0  48.75 2 0  49.5 2 0  50.25 2 0  51 2 0  51.75 2 0  52.5 2 0  53.25 2 0  54 2 0  54.75 2 0  55.5 2 0  56.25 2 0  57 2 0  57.75 2 0  58.5 2 0  59.25 2 0  60 2 0  0 2.5 0  0.75 2.5 0  1.5 2.5 0  2.25 2.5 0  3 2.5 0  3.75 2.5 0  4.5 2.5 0  5.25 2.5 0  6 2.5 0  6.75 2.5 0  7.5 2.5 0  8.25 2.5 0  9 2.5 0  9.75 2.5 0  10.5 2.5 0  11.25 2.5 0  12 2.5 0  12.75 2.5 0  13.5 2.5 0  14.25 2.5 0  15 2.5 0  15.75 2.5 0  16.5 2.5 0  17.25 2.5 0  18 2.5 0  18.75 2.5 0  19.5 2.5 0  20.25 2.5 0  21 2.5 0  21.75 2.5 0  22.5 2.5 0  23.25 2.5 0  24 2.5 0  24.75 2.5 0  25.5 2.5 0  26.25 2.5 0  27 2.5 0  27.75 2.5 0  28.5 2.5 0  29.25 2.5 0  30 2.5 0  30.75 2.5 0  31.5 2.5 0  32.25 2.5 0  33 2.5 0  33.75 2.5 0  34.5 2.5 0  35.25 2.5 0  36 2.5 0  36.75 2.5 0  37.5 2.5 0  38.25 2.5 0  39 2.5 0  39.75 2.5 0  40.5 2.5 0  41.25 2.5 0  42 2.5 0  42.75 2.5 0  43.5 2.5 0  44.25 2.5 0  45 2.5 0  45.75 2.5 0  46.5 2.5 0  47.25 2.5 0  48 2.5 0  48.75 2.5 0  49.5 2.5 0  50.25 2.5 0  51 2.5 0  51.75 2.5 0  52.5 2.5 0  53.25 2.5 0  54 2.5 0  54.75 2.5 0  55.5 2.5 0  56.25 2.5 0  57 2.5 0  57.75 2.5 0  58.5 2.5 0  59.25 2.5 0  60 2.5 0  0 3 0  0.75 3 0  1.5 3 0  2.25 3 0  3 3 0  3.75 3 0  4.5 3 0  5.25 3 0  6 3 0  6.75 3 0  7.5 3 0  8.25 3 0  9 3 0  9.75 3 0  10.5 3 0  11.25 3 0  12 3 0  12.75 3 0  13.5 3 0  14.25 3 0  15 3 0  15.75 3 0  16.5 3 0  17.25 3 0  18 3 0  18.75 3 0  19.5 3 0  20.25 3 0  21 3 0  21.75 3 0  22.5 3 0  23.25 3 0  24 3 0  24.75 3 0  25.5 3 0  26.25 3 0  27 3 0  27.75 3 0  28.5 3 0  29.25 3 0  30 3 0  30.75 3 0  31.5 3 0  32.25 3 0  33 3 0  33.75 3 0  34.5 3 0  35.25 3 0  36 3 0  36.75 3 0  37.5 3 0  38.25 3 0  39 3 0  39.75 3 0  40.5 3 0  41.25 3 0  42 3 0  42.75 3 0  43.5 3 0  44.25 3 0  45 3 0  45.75 3 0  46.5 3 0  47.25 3 0  48 3 0  48.75 3 0  49.5 3 0  50.25 3 0  51 3 0  51.75 3 0  52.5 3 0  53.25 3 0  54 3 0  54.75 3 0  55.5 3 0  56.25 3 0  57 3 0  57.75 3 0  58.5 3 0  59.25 3 0  60 3 0  0 3.5 0  0.75 3.5 0  1.5 3.5 0  2.25 3.5 0  3 3.5 0  3.75 3.5 0  4.5 3.5 0  5.25 3.5 0  6 3.5 0  6.75 3.5 0  7.5 3.5 0  8.25 3.5 0  9 3.5 0  9.75 3.5 0  10.5 3.5 0  11.25 3.5 0  12 3.5 0  12.75 3.5 0  13.5 3.5 0  14.25 3.5 0  15 3.5 0  15.75 3.5 0  16.5 3.5 0  17.25 3.5 0  18 3.5 0  18.75 3.5 0  19.5 3.5 0  20.25 3.5 0  21 3.5 0  21.75 3.5 0  22.5 3.5 0  23.25 3.5 0  24 3.5 0  24.75 3.5 0  25.5 3.5 0  26.25 3.5 0  27 3.5 0  27.75 3.5 0  28.5 3.5 0  29.25 3.5 0  30 3.5 0  30.75 3.5 0  31.5 3.5 0  32.25 3.5 0  33 3.5 0  33.75 3.5 0  34.5 3.5 0  35.25 3.5 0  36 3.5 0  36.75 3.5 0  37.5 3.5 0  38.25 3.5 0  39 3.5 0  39.75 3.5 0  40.5 3.5 0  41.25 3.5 0  42 3.5 0  42.75 3.5 0  43.5 3.5 0  44.25 3.5 0  45 3.5 0  45.75 3.5 0  46.5 3.5 0  47.25 3.5 0  48 3.5 0  48.75 3.5 0  49.5 3.5 0  50.25 3.5 0  51 3.5 0  51.75 3.5 0  52.5 3.5 0  53.25 3.5 0  54 3.5 0  54.75 3.5 0  55.5 3.5 0  56.25 3.5 0  57 3.5 0  57.75 3.5 0  58.5 3.5 0  59.25 3.5 0  60 3.5 0  0 4 0  0.75 4 0  1.5 4 0  2.25 4 0  3 4 0  3.75 4 0  4.5 4 0  5.25 4 0  6 4 0  6.75 4 0  7.5 4 0  8.25 4 0  9 4 0  9.75 4 0  10.5 4 0  11.25 4 0  12 4 0  12.75 4 0  13.5 4 0  14.25 4 0  15 4 0  15.75 4 0  16.5 4 0  17.25 4 0  18 4 0  18.75 4 0  19.5 4 0  20.25 4 0  21 4 0  21.75 4 0  22.5 4 0  23.25 4 0  24 4 0  24.75 4 0  25.5 4 0  26.25 4 0  27 4 0  27.75 4 0  28.5 4 0  29.25 4 0  30 4 0  30.75 4 0  31.5 4 0  32.25 4 0  33 4 0  33.75 4 0  34.5 4 0  35.25 4 0  36 4 0  36.75 4 0  37.5 4 0  38.25 4 0  39 4 0  39.75 4 0  40.5 4 0  41.25 4 0  42 4 0  42.75 4 0  43.5 4 0  44.25 4 0  45 4 0  45.75 4 0  46.5 4 0  47.25 4 0  48 4 0  48.75 4 0  49.5 4 0  50.25 4 0  51 4 0  51.75 4 0  52.5 4 0  53.25 4 0  54 4 0  54.75 4 0  55.5 4 0  56.25 4 0  57 4 0  57.75 4 0  58.5 4 0  59.25 4 0  60 4 0  0.375 0.25 0  1.125 0.25 0  1.875 0.25 0  2.625 0.25 0  3.375 0.25 0  4.125 0.25 0  4.875 0.25 0  5.625 0.25 0  6.375 0.25 0  7.125 0.25 0  7.875 0.25 0  8.625 0.25 0  9.375 0.25 0  10.125 0.25 0  10.875 0.25 0  11.625 0.25 0  12.375 0.25 0  13.125 0.25 0  13.875 0.25 0  14.625 0.25 0  15.375 0.25 0  16.125 0.25 0  16.875 0.25 0  17.625 0.25 0  18.375 0.25 0  19.125 0.25 0  19.875 0.25 0  20.625 0.25 0  21.375 0.25 0  22.125 0.25 0  22.875 0.25 0  23.625 0.25 0  24.375 0.25 0  25.125 0.25 0  25.875 0.25 0  26.625 0.25 0  27.375 0.25 0  28.125 0.25 0  28.875 0.25 0  29.625 0.25 0  30.375 0.25 0  31.125 0.25 0  31.875 0.25 0  32.625 0.25 0  33.375 0.25 0  34.125 0.25 0  34.875 0.25 0  35.625 0.25 0  36.375 0.25 0  37.125 0.25 0  37.875 0.25 0  38.625 0.25 0  39.375 0.25 0  40.125 0.25 0  40.875 0.25 0  41.625 0.25 0  42.375 0.25 0  43.125 0.25 0  43.875 0.25 0  44.625 0.25 0  45.375 0.25 0  46.125 0.25 0  46.875 0.25 0  47.625 0.25 0  48.375 0.25 0  49.125 0.25 0  49.875 0.25 0  50.625 0.25 0  51.375 0.25 0  52.125 0.25 0  52.875 0.25 0  53.625 0.25 0  54.375 0.25 0  55.125 0.25 0  55.875 0.25 0  56.625 0.25 0  57.375 0.25 0  58.125 0.25 0  58.875 0.25 0  59.625 0.25 0  0.375 0.75 0  1.125 0.75 0  1.875 0.75 0  2.625 0.75 0  3.375 0.75 0  4.125 0.75 0  4.875 0.75 0  5.625 0.75 0  6.375 0.75 0  7.125 0.75 0  7.875 0.75 0  8.625 0.75 0  9.375 0.75 0  10.125 0.75 0  10.875 0.75 0  11.625 0.75 0  12.375 0.75 0  13.125 0.75 0  13.875 0.75 0  14.625 0.75 0  15.375 0.75 0  16.125 0.75 0  16.875 0.75 0  17.625 0.75 0  18.375 0.75 0  19.125 0.75 0  19.875 0.75 0  20.625 0.75 0  21.375 0.75 0  22.125 0.75 0  22.875 0.75 0  23.625 0.75 0  24.375 0.75 0  25.125 0.75 0  25.875 0.75 0  26.625 0.75 0  27.375 0.75 0  28.125 0.75 0  28.875 0.75 0  29.625 0.75 0  30.375 0.75 0  31.125 0.75 0  31.875 0.75 0  32.625 0.75 0  33.375 0.75 0  34.125 0.75 0  34.875 0.75 0  35.625 0.75 0  36.375 0.75 0  37.125 0.75 0  37.875 0.75 0  38.625 0.75 0  39.375 0.75 0  40.125 0.75 0  40
[...]
<PointData  Scalars="f_8-1"> 
<DataArray  type="Float64"  Name="f_8-1"  format="ascii">-1.5951120102244253e-03  -2.9271512014395195e-04  -2.2714766142444711e-04  -1.9701149796295137e-04  -1.8916973933321752e-04  -1.8880688905677736e-04  -1.9179969643438912e-04  -1.9608943319998631e-04  -2.0027329299985628e-04  -2.0373899599813154e-04  -2.0647495611746599e-04  -2.0868878832196877e-04  -2.1059199736572326e-04  -2.1233100747110149e-04  -2.1399081671155906e-04  -2.1561461006947610e-04  -2.1722289777312701e-04  -2.1882466167167844e-04  -2.2042385411637951e-04  -2.2202207653986182e-04  -2.2362005479174151e-04  -2.2521806824155500e-04  -2.2681626531860955e-04  -2.2841469825543305e-04  -2.3001340454813874e-04  -2.3161239440273014e-04  -2.3321167942991645e-04  -2.3481126125931073e-04  -2.3641114393016359e-04  -2.3801132742361689e-04  -2.3961181325409005e-04  -2.4121260121776666e-04  -2.4281369187768024e-04  -2.4441508513021077e-04  -2.4601678116040318e-04  -2.4761877994100519e-04  -2.4922108156286930e-04  -2.5082368595191409e-04  -2.5242659324849475e-04  -2.5402980322569154e-04  -2.5563331636155643e-04  -2.5723713174359412e-04  -2.5884125120686152e-04  -2.6044567116257998e-04  -2.6205039873072704e-04  -2.6365542006613764e-04  -2.6526076224122149e-04  -2.6686637295909703e-04  -2.6847235337095431e-04  -2.7007850966063340e-04  -2.7168521239425347e-04  -2.7329175883267773e-04  -2.7489947594016309e-04  -2.7650587735757220e-04  -2.7811559466390558e-04  -2.7972006779389139e-04  -2.8133500369342075e-04  -2.8293182399130237e-04  -2.8456208054857262e-04  -2.8613366476509978e-04  -2.8780946895246804e-04  -2.8930472019537360e-04  -2.9111107018198515e-04  -2.9239211481925083e-04  -2.9454735982522960e-04  -2.9527747312366192e-04  -2.9825781960590540e-04  -2.9770139206716399e-04  -3.0220075116165141e-04  -2.9896400700472073e-04  -3.0530348721404714e-04  -2.9954629785466425e-04  -3.1151268265042312e-04  -3.2184446946894213e-04  -3.4255632393136084e-04  -3.8705457952085802e-04  -3.1697008950273359e-04  -4.7540541017849808e-04  9.0918451447740680e-05  -1.0995448641108782e-03  1.4616497500705339e-03  -8.1796249401348881e-06  -3.1640768293006330e-04  -2.2341292905755163e-04  -2.0278625980806617e-04  -1.9709800232750233e-04  -1.9755695010271649e-04  -2.0083654302765428e-04  -2.0509212178544925e-04  -2.0905817486704050e-04  -2.1227984185913026e-04  -2.1482642170878529e-04  -2.1691989443446444e-04  -2.1875481844242994e-04  -2.2045838299597229e-04  -2.2210066182977713e-04  -2.2371619315881555e-04  -2.2532062222666997e-04  -2.2692063335584873e-04  -2.2851901079631428e-04  -2.3011686288084080e-04  -2.3171466375639438e-04  -2.3331259493729553e-04  -2.3491075140660424e-04  -2.3650916496197703e-04  -2.3810786181894240e-04  -2.3970684701207871e-04  -2.4130613003326695e-04  -2.4290571082529074e-04  -2.4450559325932540e-04  -2.4610577664493569e-04  -2.4770626263445622e-04  -2.4930705072400192e-04  -2.5090814161554816e-04  -2.5250953506065604e-04  -2.5411123131489059e-04  -2.5571323032947925e-04  -2.5731553212831834e-04  -2.5891813682999554e-04  -2.6052104414599469e-04  -2.6212425473036747e-04  -2.6372776731816035e-04  -2.6533158439321990e-04  -2.6693570120756873e-04  -2.6854012685828473e-04  -2.7014484413857143e-04  -2.7174988556370462e-04  -2.7335519039501597e-04  -2.7496087154203270e-04  -2.7656672142095380e-04  -2.7817311894249311e-04  -2.7977938032475137e-04  -2.8138672793554009e-04  -2.8299300367214700e-04  -2.8460197384415099e-04  -2.8620715642301459e-04  -2.8781955487613238e-04  -2.8942078053430318e-04  -2.9104107973592096e-04  -2.9263155874979509e-04  -2.9426987846511938e-04  -2.9583496529109280e-04  -2.9751218158216287e-04  -2.9902312959976716e-04  -3.0077874344722319e-04  -3.0218371077794212e-04  -3.0408205091306674e-04  -3.0529006027002248e-04  -3.0735817173223188e-04  -3.0816963122805909e-04  -3.0998328578467962e-04  -3.1033598787300705e-04  -3.1186101289769368e-04  -3.1896862211729479e-04  -3.3060606318548874e-04  -3.5978430713473787e-04  -3.5674305102246042e-04  -3.8077017672700337e-04  -3.0147622052054829e-04  -2.4259312169024538e-04  -2.9423021932430598e-04  -2.9696210837587089e-04  -1.1936344223174862e-05  -1.7122478809587761e-04  -1.8850736751248841e-04  -1.8339450945368868e-04  -1.8175350589134717e-04  -1.8280770943974973e-04  -1.8564627084834449e-04  -1.8928700640684042e-04  -1.9288521014407961e-04  -1.9601683192607756e-04  -1.9862516878158733e-04  -2.0082332741813767e-04  -2.0275190672851447e-04  -2.0452203557677490e-04  -2.0620591573008353e-04  -2.0784535963158979e-04  -2.0946275991075224e-04  -2.1106953085906917e-04  -2.1267131979948732e-04  -2.1427086454282602e-04  -2.1586948795566024e-04  -2.1746781991491564e-04  -2.1906616718142335e-04  -2.2066467444169813e-04  -2.2226341496917531e-04  -2.2386242244404905e-04  -2.2546171541183930e-04  -2.2706130173894327e-04  -2.2866118648103372e-04  -2.3026137141611501e-04  -2.3186185803855263e-04  -2.3346264670828928e-04  -2.3506373791471911e-04  -2.3666513169429468e-04  -2.3826682825617556e-04  -2.3986882749404880e-04  -2.4147112970977116e-04  -2.4307373440536178e-04  -2.4467664256998831e-04  -2.4627985232937940e-04  -2.4788336732745378e-04  -2.4948718057671700e-04  -2.5109130545435538e-04  -2.5269571657787380e-04  -2.5430046187486382e-04  -2.5590545162799364e-04  -2.5751085264602748e-04  -2.5911635766501874e-04  -2.6072252793446455e-04  -2.6232834884289916e-04  -2.6393563616712888e-04  -2.6554117846580891e-04  -2.6715058813533884e-04  -2.6875418938869517e-04  -2.7036843100566784e-04  -2.7196578675212996e-04  -2.7359157733357109e-04  -2.7517251982679463e-04  -2.7682494761662206e-04  -2.7836788962397107e-04  -2.8007730748927590e-04  -2.8154141277220531e-04  -2.8336256061150980e-04  -2.8467840456291487e-04  -2.8670118333753921e-04  -2.8776002275332892e-04  -2.9011104202269681e-04  -2.9076123511510561e-04  -2.9353060888468704e-04  -2.9373227056925385e-04  -2.9717724619176828e-04  -2.9887288542556310e-04  -3.0721738230570113e-04  -3.1755918398886085e-04  -3.3101057380354446e-04  -3.3208911740308469e-04  -3.2279137667251616e-04  -2.8460297216199865e-04  -2.0869622843319369e-04  -2.4137699411328053e-04  7.8631697862165001e-05  -8.0721317836642068e-06  -1.0002397747328424e-04  -1.4162342105719593e-04  -1.5160972744380060e-04  -1.5390742951594205e-04  -1.5558083094557870e-04  -1.5800985030711839e-04  -1.6113556861670938e-04  -1.6449201355640567e-04  -1.6762244667136586e-04  -1.7033562099633769e-04  -1.7265428715264525e-04  -1.7468037468154629e-04  -1.7651715384289624e-04  -1.7824202226970629e-04  -1.7990490112508979e-04  -1.8153499167235717e-04  -1.8314837522422783e-04  -1.8475350335994198e-04  -1.8635470445274143e-04  -1.8795413370786094e-04  -1.8955285711301314e-04  -1.9115139124113999e-04  -1.9274998914566496e-04  -1.9434877224090469e-04  -1.9594780064071117e-04  -1.9754710310378710e-04  -1.9914669425831285e-04  -2.0074658102702919e-04  -2.0234676706894716e-04  -2.0394725410336731e-04  -2.0554804304812133e-04  -2.0714913434384123e-04  -2.0875052825562452e-04  -2.1035222481340205e-04  -2.1195422425205568e-04  -2.1355652629044888e-04  -2.1515913155080693e-04  -2.1676203883536248e-04  -2.1836525051385804e-04  -2.1996876204039443e-04  -2.2157258213795889e-04  -2.2317669413944829e-04  -2.2478112972539453e-04  -2.2638582921622212e-04  -2.2799090418009217e-04  -2.2959614779816928e-04  -2.3120194040793818e-04  -2.3280758901232909e-04  -2.3441434461944996e-04  -2.3601997241172253e-04  -2.3762842249802399e-04  -2.3923279507365806e-04  -2.4084499832731506e-04  -2.4244475144894056e-04  -2.4406613695122822e-04  -2.4565271247676569e-04  -2.4729661555706039e-04  -2.4884979302990660e-04  -2.5054665438693882e-04  -2.5202207455096427e-04  -2.5383669120471940e-04  -2.5514364114715364e-04  -2.5720510891415020e-04  -2.5817158490782369e-04  -2.6071678779902131e-04  -2.6105926135178831e-04  -2.6447620299429876e-04  -2.6392614241449100e-04  -2.6891515850531732e-04  -2.6823479833603135e-04  -2.7686805977173909e-04  -2.8025415024951977e-04  -2.9363235786494774e-04  -2.9940490611830303e-04  -2.9202730504699319e-04  -2.8811881872911578e-04  -2.1865829587082103e-04  -2.3312071513133736e-04  -6.9536670502810046e-05  -9.5943288365566071e-05  -2.6931982352726745e-07  -8.5660545671499986e-05  -1.3071691202813960e-04  -1.4568675487249545e-04  -1.4973187522524905e-04  -1.5178393657824563e-04  -1.5419437781155897e-04  -1.5720438425964541e-04  -1.6046407355944236e-04  -1.6356001540128513e-04  -1.6628331271873828e-04  -1.6862770535515555e-04  -1.7067872668204183e-04  -1.7253403999928425e-04  -1.7427087923148669e-04  -1.7594079664067373e-04  -1.7757477573919646e-04  -1.7919020605872940e-04  -1.8079637882606424e-04  -1.8239809776407766e-04  -1.8399778033811873e-04  -1.8559662507424934e-04  -1.8719521720198453e-04  -1.8879384218765727e-04  -1.9039263799814951e-04  -1.9199167210638316e-04  -1.9359097717798441e-04  -1.9519056939265968e-04  -1.9679045660359195e-04  -1.9839064277401839e-04  -1.9999112983176860e-04  -2.0159191875561652e-04  -2.0319301004335415e-04  -2.0479440389152423e-04  -2.0639610051524543e-04  -2.0799809980694009e-04  -2.0960040212431808e-04  -2.1120300683152493e-04  -2.1280591519861133e-04  -2.1440912480107560e-04  -2.1601264031906035e-04  -2.1761645278228921e-04  -2.1922057927363173e-04  -2.2082498747251760e-04  -2.2242973817647113e-04  -2.2403471778557478e-04  -2.2564013694955704e-04  -2.2724560836019466e-04  -2.2885183791964203e-04  -2.3045755125492438e-04  -2.3206502649847848e-04  -2.3367023458144187e-04  -2.3528022338812973e-04  -2.3688281135826909e-04  -2.3849879977157955e-04  -2.4009313498408132e-04  -2.4172412298827665e-04  -2.4329615874154692e-04  -2.4496388576633691e-04  -2.4648092444951351e-04  -2.4823443954337214e-04  -2.4962561662326743e-04  -2.5156795527871742e-04  -2.5269155381902193e-04  -2.5502139791502365e-04  -2.5562542163386003e-04  -2.5868618009329086e-04  -2.5843299834794268e-04  -2.6280571473205264e-04  -2.6173548565090542e-04  -2.6883557544992955e-04  -2.6906404559719601e-04  -2.8166742896667895e-04  -2.8566901085316673e-04  -2.9451420956466738e-04  -2.9022622286470524e-04  -2.6192913179051068e-04  -2.5023442534498124e-04  -1.5767191691670531e-04  -1.5200744377815716e-04  5.7391196952741334e-05  -8.0743302455605269e-06  -1.0005249377352517e-04  -1.4164783303592546e-04  -1.5162152849342418e-04  -1.5391115364930667e-04  -1.5558086052789357e-04  -1.5800874233649765e-04  -1.6113401348732381e-04  -1.6449024754119429e-04  -1.6762092595963956e-04  -1.7033465177298279e-04  -1.7265383517925791e-04  -1.7468022735555512e-04  -1.7651711061137288e-04  -1.7824196744879291e-04  -1.7990479230525186e-04  -1.8153482575117831e-04  -1.8314816302780564e-04  -1.8475325729384458e-04  -1.8635443449369719e-04  -1.8795384705839707e-04  -1.8955255876269551e-04  -1.9115108467994768e-04  -1.9274967683680631e-04  -1.9434845590466390e-04  -1.9594748151834728e-04  -1.9754678205862882e-04  -1.9914637188410802e-04  -2.0074625775321118e-04  -2.0234644318010590e-04  -2.0394692978763614e-04  -2.0554771845187803e-04  -2.0714880955269971e-04  -2.0875020332673577e-04  -2.1035189980062754e-04  -2.1195389917395239e-04  -2.1355620116338711e-04  -2.1515880638808249e-04  -2.1676171364063204e-04  -2.1836492529000106e-04  -2.1996843677285759e-04  -2.2157225683691210e-04  -2.2317636876951382e-04  -2.2478080426444682e-04  -2.2638550362640765e-04  -2.2799057840651782e-04  -2.2959582174712274e-04  -2.3120161396237684e-04  -2.3280726195760350e-04  -2.3441401675524786e-04  -2.3601964319080936e-04  -2.3762809159141540e-04  -2.3923246120710132e-04  -2.4084466096601037e-04  -2.4244440762858006e-04  -2.4406578586909011e-04  -2.4565234754499475e-04  -2.4729623529731547e-04  -2.4884938400907659e-04  -2.5054621214104728e-04  -2.5202157509442462e-04  -2.5383611826305783e-04  -2.5514295983320481e-04  -2.5720426564436845e-04  -2.5817054713433573e-04  -2.6071540438762621e-04  -2.6105756143023279e-04  -2.6447380614642304e-04  -2.6392337781006839e-04  -2.6891116552441518e-04  -2.6823107303993826e-04  -2.7686295220386031e-04  -2.8025265109475644e-04  -2.9363021766088836e-04  -2.9941217016025040e-04  -2.9202785971960094e-04  -2.8813108248233342e-04  -2.1863535239560641e-04  -2.3311202215988246e-04  -6.9492662787962986e-05  -9.5969206503391198e-05  -1.1952109371703431e-05  -1.7129619090300023e-04  -1.8855704270293267e-04  -1.8341533655236113e-04  -1.8176033955900545e-04  -1.8280871176485941e-04  -1.8564506434067104e-04  -1.8928535108333848e-04  -1.9288425577027065e-04  -1.9601717112335650e-04  -1.9862674949362128e-04  -2.0082570751774528e-04  -2.0275460850837442e-04  -2.0452473891851273e-04  -2.0620847581913994e-04  -2.0784774636981523e-04  -2.0946499521008209e-04  -2.1107165008867117e-04  -2.1267335518375345e-04  -2.1427284077452720e-04  -2.1587142275401595e-04  -2.1746972571323923e-04  -2.1906805271910290e-04  -2.2066654585721723e-04  -2.2226527657719650e-04  -2.2386427728393480e-04  -2.2546356558558002e-04  -2.2706314872993552e-04  -2.2866303128660844e-04  -2.3026321473992465e-04  -2.3186370034890391e-04  -2.3346448833152462e-04  -2.3506557907463396e-04  -2.3666697252875955e-04  -2.3826866887599049e-04  -2.3987066795569541e-04  -2.4147297005676881e-04  -2.4307557466440673e-04  -2.4467848275476842e-04  -2.4628169244041474e-04  -2.4788520735502615e-04  -2.4948902049148604e-04  -2.5109314521537925e-04  -2.5269755612266113e-04  -2.5430230111037148e-04  -2.5590729041216945e-04  -2.5751269077730292e-04  -2.5911819481194660e-04  -2.6072436370173994e-04  -2.6233018246905448e-04  -2.6393746688042961e-04  -2.6554300451558992e-04  -2.6715240807151098e-04  -2.6875599920083841e-04  -2.7037022796852462e-04  -2.7196756190598823e-04  -2.7359332543447275e-04  -2.7517422178284029e-04  -2.7682659194121575e-04  -2.7836943922784522e-04  -2.8007873227446682e-04  -2.8154265117982542e-04  -2.8336352598612121e-04  -2.8467902124398224e-04  -2.8670120976875433e-04  -2.8775943455481076e-04  -2.9010922728458209e-04  -2.9075845334201021e-04  -2.9352544742992345e-04  -2.9372617901929284e-04  -2.9716735909883035e-04  -2.9886544274359308e-04  -3.0720826054152418e-04  -3.1756706178308125e-04  -3.3102083766140206e-04  -3.3212523165275954e-04  -3.2279190559552311e-04  -2.8460880388555632e-04  -2.0860461963303291e-04  -2.4136114219415220e-04  7.8703173024588304e-05  -8.1411212481120115e-06  -3.1663287647721417e-04  -2.2350735950060801e-04  -2.0283475629914147e-04  -1.9712838129670306e-04  -1.9758049178940498e-04  -2.0085740133690095e-04  -2.0511256828663148e-04  -2.0908002906036698e-04  -2.1230392201516607e-04  -2.1485243435298755e-04  -2.1694702515820592e-04  -2.1878231921215548e-04  -2.2048580731655074e-04  -2.2212783503439525e-04  -2.2374309789696711e-04  -2.2534730365278665e-04  -2.2694714765491021e-04  -2.2854540566983442e-04  -2.3014317383737037e-04  -2.3174091598116491e-04  -2.3333880606319146e-04  -2.3493693382013254e-04  -2.3653532737489855e-04  -2.3813401035959587e-04  -2.3973298598245555e-04  -2.4133226242543173e-04  -2.4293183871066428e-04  -2.4453171807046949e-04  -2.4613189937761949e-04  -2.4773238392508315e-04  -2.4933317105059634e-04  -2.5093426128415996e-04  -2.5253565427430495e-04  -2.5413735023059071e-04  -2.5573934902122983e-04  -2.5734165065396871e-04  -2.5894425523040381e-04  -2.6054716244737329e-04  -2.6215037292316712e-04  -2.6375388538722261e-04  -2.6535770230470118e-04  -2.6696181890105343e-04  -2.6856624423874834e-04  -2.7017096106980308e-04  -2.7177600185355035e-04  -2.7338130573022310e-04  -2.7498698549608715e-04  -2.7659283331496720e-04  -2.7819922788243598e-04  -2.7980548483214150e-04  -2.8141282614318927e-04  -2.8301909233950412e-04  -2.8462804913117698e-04  -2.8623321118625153e-04  -2.8784558133772916e-04  -2.8944676309742022e-04  -2.9106700273965323e-04  -2.9265738864881906e-04  -2.9429558387775710e-04  -2.9586047582187648e-04  -2.9753743450594339e-04  -2.9904798213406780e-04  -3.0080307168227843e-04  -3.0220723837103306e-04  -3.0410454130186057e-04  -3.0531101657344976e-04  -3.0737718761867478e-04  -3.0818593810991223e-04  -3.0999649974498806e-04  -3.1034570211488469e-04  -3.1186903095397023e-04  -3.1898057393184981e-04  -3.3063176429417186e-04  -3.5983758989813523e-04  -3.5680748736302033e-04  -3.8083584173910772e-04  -3.0146061420169881e-04  -2.4254698750740539e-04  -2.9406859217542656e-04  -2.9711525520040603e-04  -1.5965183039141741e-03  -2.9296349886593725e-04  -2.2727103802190764e-04  -1.9708166134447335e-04  -1.8921865578520248e-04  -1.8884738421809746e-04  -1.9183676564244313e-04  -1.9612561768674372e-04  -2.0031058064149673e-04  -2.0377846794980483e-04  -2.0651655025531122e-04  -2.0873177773578528e-04  -2.1063560242933328e-04  -2.1237470667381830e-04  -2.1403436793911642e-04  -2.1565795135060258e-04  -2.1726604907161071e-04  -2.1886766583028159e-04  -2.2046675164117383e-04  -2.2206489869693169e-04  -2.2366282403913471e-04  -2.2526080035615515e-04  -2.2685897140513353e-04  -2.2845738613852569e-04  -2.3005607976018749e-04  -2.3165506085427395e-04  -2.3325433983807040e-04  -2.3485391751546064e-04  -2.3645379735127051e-04  -2.3805397892993010e-04  -2.3965446342931912e-04  -2.4125525050190259e-04  -2.4285634055703378e-04  -2.4445773338588740e-04  -2.4605942914067257e-04  -2.4766142771109212e-04  -2.4926372917831685e-04  -2.5086633344802628e-04  -2.5246924064232021e-04  -2.5407245050976452e-04  -2.5567596351747660e-04  -2.5727977873150242e-04  -2.5888389796048777e-04  -2.6048831757824351e-04  -2.6209304465582859e-04  -2.6369806529164051e-04  -2.6530340643597634e-04  -2.6690901563028284e-04  -2.6851499383394393e-04  -2.7012114684754000e-04  -2.7172784484998970e-04  -2.7333438424388473e-04  -2.7494209126896658e-04  -2.7654847754035697e-04  -2.7815817343442576e-04  -2.7976261405909228e-04  -2.8137750482418216e-04  -2.8297425551374137e-04  -2.8460441811198556e-04  -2.8617585355283600e-04  -2.8785146615579294e-04  -2.8934639966519141e-04  -2.9115237214883159e-04  -2.9243273934511196e-04  -2.9458727809610058e-04  -2.9531596611646720e-04  -2.9829507618019059e-04  -2.9773579629589558e-04  -3.0223317799438215e-04  -2.9899143482146705e-04  -3.0532901187031166e-04  -2.9956618877200711e-04  -3.1154075083249705e-04  -3.2187746976475594e-04  -3.4263091571584426e-04  -3.8712412175223213e-04  -3.1707822205028359e-04  -4.7538732536757204e-04  9.0933192788791406e-05  -1.0993611128775483e-03  1.4613131224887838e-03  -4.7560438842152234e-04  -2.2059725490508733e-04  -1.7319398913941933e-04  -1.5835787179491003e-04  -1.5544687336280615e-04  -1.5725606087920404e-04  -1.6110349357727162e-04  -1.6535192094605810e-04  -1.6906645896681312e-04  -1.7202749870483098e-04  -1.7438501368541165e-04  -1.7636407489737382e-04  -1.7813740053741466e-04  -1.7981060057722906e-04  -1.8143867365491442e-04  -1.8304787192243124e-04  -1.8464952174896467e-04  -1.8624839094613405e-04  -1.8784631882736222e-04  -1.8944405501250192e-04  -1.9104187335604273e-04  -1.9263989645849401e-04  -1.9423817108238749e-04  -1.9583672236166613e-04  -1.9743556180226431e-04  -1.9903469574990279e-04  -2.0063412806227716e-04  -2.0223386035466825e-04  -2.0383389411638561e-04  -2.0543422968083267e-04  -2.0703486767911311e-04  -2.0863580809657271e-04  -2.1023705124028038e-04  -2.1183859704145566e-04  -2.1344044564095067e-04  -2.1504259702246904e-04  -2.1664505121216641e-04  -2.1824780824157111e-04  -2.1985086804342336e-04  -2.2145423081840803e-04  -2.2305789619166174e-04  -2.2466186492370232e-04  -2.2626613557502991e-04  -2.2787071095918342e-04  -2.2947558576829206e-04  -2.3108077018225290e-04  -2.3268624515474445e-04  -2.3429204651266849e-04  -2.3589810808845218e-04  -2.3750455199363004e-04  -2.3911115631960285e-04  -2.4071832218102183e-04  -2.4232533504638259e-04  -2.4393345645750875e-04  -2.4554049169063144e-04  -2.4715021376339811e-04  -2.4875623568746633e-04  -2.5036921572484165e-04  -2.5197165305149356e-04  -2.5359184483458077e-04  -2.5518477732176678e-04  -2.5682109346225553e-04  -2.5839153413643930e-04  -2.6006344485679907e-04  -2.6158100604076775e-04  -2.6332315884929541e-04  -2.6468756287460293e-04  -2.6647478468836479e