<?xml version="1.0"?>
<VTKFile type="UnstructuredGrid"  version="0.1"  >
<UnstructuredGrid>
<Piece  NumberOfPoints="1369" NumberOfCells="2560">
<Points>
<DataArray  type="Float64"  NumberOfComponents="3"  format="ascii">0 0 0  0.75 0 0  1.5 0 0  2.25 0 0  3 0 0  3.75 0 0  4.5 0 0  5.25 0 0  6 0 0  6.75 0 0  7.5 0 0  8.25 0 0  9 0 0  9.75 0 0  10.5 0 0  11.25 0 0  12 0 0  12.75 0 0  13.5 0 0  14.25 0 0  15 0 0  15.75 0 0  16.5 0 0  17.25 0 0  18 0 0  18.75 0 0  19.5 0 0  20.25 0 0  21 0 0  21.75 0 0  22.5 0 0  23.25 0 0  24 0 0  24.75 0 0  25.5 0 0  26.25 0 0  27 0 0  27.75 0 0  28.5 0 0  29.25 0 0  30 0 0  30.75 0 0  31.5 0 0  32.25 0 0  33 0 0  33.75 0 0  34.5 0 0  35.25 0 0  36 0 0  36.75 0 0  37.5 0 0  38.25 0 0  39 0 0  39.75 0 0  40.5 0 0  41.25 0 0  42 0 0  42.75 0 0  43.5 0 0  44.25 0 0  45 0 0  45.75 0 0  46.5 0 0  47.25 0 0  48 0 0  48.75 0 0  49.5 0 0  50.25 0 0  51 0 0  51.75 0 0  52.5 0 0  53.25 0 0  54 0 0  54.75 0 0  55.5 0 0  56.25 0 0  57 0 0  57.75 0 0  58.5 0 0  59.25 0 0  60 0 0  0 0.5 0  0.75 0.5 0  1.5 0.5 0  2.25 0.5 0  3 0.5 0  3.75 0.5 0  4.5 0.5 0  5.25 0.5 0  6 0.5 0  6.75 0.5 0  7.5 0.5 0  8.25 0.5 0  9 0.5 0  9.75 0.5 0  10.5 0.5 0  11.25 0.5 0  12 0.5 0  12.75 0.5 0  13.5 0.5 0  14.25 0.5 0  15 0.5 0  15.75 0.5 0  16.5 0.5 0  17.25 0.5 0  18 0.5 0  18.75 0.5 0  19.5 0.5 0  20.25 0.5 0  21 0.5 0  21.75 0.5 0  22.5 0.5 0  23.25 0.5 0  24 0.5 0  24.75 0.5 0  25.5 0.5 0  26.25 0.5 0  27 0.5 0  27.75 0.5 0  28.5 0.5 0  29.25 0.5 0  30 0.5 0  30.75 0.5 0  31.5 0.5 0  32.25 0.5 0  33 0.5 0  33.75 0.5 0  34.5 0.5 0  35.25 0.5 0  36 0.5 0  36.75 0.5 0  37.5 0.5 0  38.25 0.5 0  39 0.5 0  39.75 0.5 0  40.5 0.5 0  41.25 0.5 0  42 0.5 0  42.75 0.5 0  43.5 0.5 0  44.25 0.5 0  45 0.5 0  45.75 0.5 0  46.5 0.5 0  47.25 0.5 0  48 0.5 0  48.75 0.5 0  49.5 0.5 0  50.25 0.5 0  51 0.5 0  51.75 0.5 0  52.5 0.5 0  53.25 0.5 0  54 0.5 0  54.75 0.5 0  55.5 0.5 0  56.25 0.5 0  57 0.5 0  57.75 0.5 0  58.5 0.5 0  59.25 0.5 0  60 0.5 0  0 1 0  0.75 1 0  1.5 1 0  2.25 1 0  3 1 0  3.75 1 0  4.5 1 0  5.25 1 0  6 1 0  6.75 1 0  7.5 1 0  8.25 1 0  9 1 0  9.75 1 0  10.5 1 0  11.25 1 0  12 1 0  12.75 1 0  13.5 1 0  14.25 1 0  15 1 0  15.75 1 0  16.5 1 0  17.25 1 0  18 1 0  18.75 1 0  19.5 1 0  20.25 1 0  21 1 0  21.75 1 0  22.5 1 0  23.25 1 0  24 1 0  24.75 1 0  25.5 1 0  26.25 1 0  27 1 0  27.75 1 0  28.5 1 0  29.25 1 0  30 1 0  30.75 1 0  31.5 1 0  32.25 1 0  33 1 0  33.75 1 0  34.5 1 0  35.25 1 0  36 1 0  36.75 1 0  37.5 1 0  38.25 1 0  39 1 0  39.75 1 0  40.5 1 0  41.25 1 0  42 1 0  42.75 1 0  43.5 1 0  44.25 1 0  45 1 0  45.75 1 0  46.5 1 0  47.25 1 0  48 1 0  48.75 1 0  49.5 1 0  50.25 1 0  51 1 0  51.75 1 0  52.5 1 0  53.25 1 0  54 1 0  54.75 1 0  55.5 1 0  56.25 1 0  57 1 0  57.75 1 0  58.5 1 0  59.25 1 0  60 1 0  0 1.5 0  0.75 1.5 0  1.5 1.5 0  2.25 1.5 0  3 1.5 0  3.75 1.5 0  4.5 1.5 0  5.25 1.5 0  6 1.5 0  6.75 1.5 0  7.5 1.5 0  8.25 1.5 0  9 1.5 0  9.75 1.5 0  10.5 1.5 0  11.25 1.5 0  12 1.5 0  12.75 1.5 0  13.5 1.5 0  14.25 1.5 0  15 1.5 0  15.75 1.5 0  16.5 1.5 0  17.25 1.5 0  18 1.5 0  18.75 1.5 0  19.5 1.5 0  20.25 1.5 0  21 1.5 0  21.75 1.5 0  22.5 1.5 0  23.25 1.5 0  24 1.5 0  24.75 1.5 0  25.5 1.5 0  26.25 1.5 0  27 1.5 0  27.75 1.5 0  28.5 1.5 0  29.25 1.5 0  30 1.5 0  30.75 1.5 0  31.5 1.5 0  32.25 1.5 0  33 1.5 0  33.75 1.5 0  34.5 1.5 0  35.25 1.5 0  36 1.5 0  36.75 1.5 0  37.5 1.5 0  38.25 1.5 0  39 1.5 0  39.75 1.5 0  40.5 1.5 0  41.25 1.5 0  42 1.5 0  42.75 1.5 0  43.5 1.5 0  44.25 1.5 0  45 1.5 0  45.75 1.5 0  46.5 1.5 0  47.25 1.5 0  48 1.5 0  48.75 1.5 0  49.5 1.5 0  50.25 1.5 0  51 1.5 0  51.75 1.5 0  52.5 1.5 0  53.25 1.5 0  54 1.5 0  54.75 1.5 0  55.5 1.5 0  56.25 1.5 0  57 1.5 0  57.75 1.5 0  58.5 1.5 0  59.25 1.5 0  60 1.5 0  0 2 0  0.75 2 0  1.5 2 0  2.25 2 0  3 2 0  3.75 2 0  4.5 2 0  5.25 2 0  6 2 0  6.75 2 0  7.5 2 0  8.25 2 0  9 2 0  9.75 2 0  10.5 2 0  11.25 2 0  12 2 0  12.75 2 0  13.5 2 0  14.25 2 0  15 2 0  15.75 2 0  16.5 2 0  17.25 2 0  18 2 0  18.75 2 0  19.5 2 0  20.25 2 0  21 2 0  21.75 2 0  22.5 2 0  23.25 2 0  24 2 0  24.75 2 0  25.5 2 0  26.25 2 0  27 2 0  27.75 2 0  28.5 2 0  29.25 2 0  30 2 0  30.75 2 0  31.5 2 0  32.25 2 0  33 2 0  33.75 2 0  34.5 2 0  35.25 2 0  36 2 0  36.75 2 0  37.5 2 0  38.25 2 0  39 2 0  39.75 2 0  40.5 2 0  41.25 2 0  42 2 0  42.75 2 0  43.5 2 0  44.25 2 0  45 2 0  45.75 2 0  46.5 2 0  47.25 2 0  48 2 0  48.75 2 0  49.5 2 0  50.25 2 0  51 2 0  51.75 2 0  52.5 2 0  53.25 2 0  54 2 0  54.75 2 0  55.5 2 0  56.25 2 0  57 2 0  57.75 2 0  58.5 2 0  59.25 2 0  60 2 0  0 2.5 0  0.75 2.5 0  1.5 2.5 0  2.25 2.5 0  3 2.5 0  3.75 2.5 0  4.5 2.5 0  5.25 2.5 0  6 2.5 0  6.75 2.5 0  7.5 2.5 0  8.25 2.5 0  9 2.5 0  9.75 2.5 0  10.5 2.5 0  11.25 2.5 0  12 2.5 0  12.75 2.5 0  13.5 2.5 0  14.25 2.5 0  15 2.5 0  15.75 2.5 0  16.5 2.5 0  17.25 2.5 0  18 2.5 0  18.75 2.5 0  19.5 2.5 0  20.25 2.5 0  21 2.5 0  21.75 2.5 0  22.5 2.5 0  23.25 2.5 0  24 2.5 0  24.75 2.5 0  25.5 2.5 0  26.25 2.5 0  27 2.5 0  27.75 2.5 0  28.5 2.5 0  29.25 2.5 0  30 2.5 0  30.75 2.5 0  31.5 2.5 0  32.25 2.5 0  33 2.5 0  33.75 2.5 0  34.5 2.5 0  35.25 2.5 0  36 2.5 0  36.75 2.5 0  37.5 2.5 0  38.25 2.5 0  39 2.5 0  39.75 2.5 0  40.5 2.5 0  41.25 2.5 0  42 2.5 0  42.75 2.5 0  43.5 2.5 0  44.25 2.5 0  45 2.5 0  45.75 2.5 0  46.5 2.5 0  47.25 2.5 0  48 2.5 0  48.75 2.5 0  49.5 2.5 0  50.25 2.5 0  51 2.5 0  51.75 2.5 0  52.5 2.5 0  53.25 2.5 0  54 2.5 0  54.75 2.5 0  55.5 2.5 0  56.25 2.5 0  57 2.5 0  57.75 2.5 0  58.5 2.5 0  59.25 2.5 0  60 2.5 0  0 3 0  0.75 3 0  1.5 3 0  2.25 3 0  3 3 0  3.75 3 0  4.5 3 0  5.25 3 0  6 3 0  6.75 3 0  7.5 3 0  8.25 3 0  9 3 0  9.75 3 0  10.5 3 0  11.25 3 0  12 3 0  12.75 3 0  13.5 3 0  14.25 3 0  15 3 0  15.75 3 0  16.5 3 0  17.25 3 0  18 3 0  18.75 3 0  19.5 3 0  20.25 3 0  21 3 0  21.75 3 0  22.5 3 0  23.25 3 0  24 3 0  24.75 3 0  25.5 3 0  26.25 3 0  27 3 0  27.75 3 0  28.5 3 0  29.25 3 0  30 3 0  30.75 3 0  31.5 3 0  32.25 3 0  33 3 0  33.75 3 0  34.5 3 0  35.25 3 0  36 3 0  36.75 3 0  37.5 3 0  38.25 3 0  39 3 0  39.75 3 0  40.5 3 0  41.25 3 0  42 3 0  42.75 3 0  43.5 3 0  44.25 3 0  45 3 0  45.75 3 0  46.5 3 0  47.25 3 0  48 3 0  48.75 3 0  49.5 3 0  50.25 3 0  51 3 0  51.75 3 0  52.5 3 0  53.25 3 0  54 3 0  54.75 3 0  55.5 3 0  56.25 3 0  57 3 0  57.75 3 0  58.5 3 0  59.25 3 0  60 3 0  0 3.5 0  0.75 3.5 0  1.5 3.5 0  2.25 3.5 0  3 3.5 0  3.75 3.5 0  4.5 3.5 0  5.25 3.5 0  6 3.5 0  6.75 3.5 0  7.5 3.5 0  8.25 3.5 0  9 3.5 0  9.75 3.5 0  10.5 3.5 0  11.25 3.5 0  12 3.5 0  12.75 3.5 0  13.5 3.5 0  14.25 3.5 0  15 3.5 0  15.75 3.5 0  16.5 3.5 0  17.25 3.5 0  18 3.5 0  18.75 3.5 0  19.5 3.5 0  20.25 3.5 0  21 3.5 0  21.75 3.5 0  22.5 3.5 0  23.25 3.5 0  24 3.5 0  24.75 3.5 0  25.5 3.5 0  26.25 3.5 0  27 3.5 0  27.75 3.5 0  28.5 3.5 0  29.25 3.5 0  30 3.5 0  30.75 3.5 0  31.5 3.5 0  32.25 3.5 0  33 3.5 0  33.75 3.5 0  34.5 3.5 0  35.25 3.5 0  36 3.5 0  36.75 3.5 0  37.5 3.5 0  38.25 3.5 0  39 3.5 0  39.75 3.5 0  40.5 3.5 0  41.25 3.5 0  42 3.5 0  42.75 3.5 0  43.5 3.5 0  44.25 3.5 0  45 3.5 0  45.75 3.5 0  46.5 3.5 0  47.25 3.5 0  48 3.5 0  48.75 3.5 0  49.5 3.5 0  50.25 3.5 0  51 3.5 0  51.75 3.5 0  52.5 3.5 0  53.25 3.5 0  54 3.5 0  54.75 3.5 0  55.5 3.5 0  56.25 3.5 0  57 3.5 0  57.75 3.5 0  58.5 3.5 0  59.25 3.5 0  60 3.5 0  0 4 0  0.75 4 0  1.5 4 0  2.25 4 0  3 4 0  3.75 4 0  4.5 4 0  5.25 4 0  6 4 0  6.75 4 0  7.5 4 0  8.25 4 0  9 4 0  9.75 4 0  10.5 4 0  11.25 4 0  12 4 0  12.75 4 0  13.5 4 0  14.25 4 0  15 4 0  15.75 4 0  16.5 4 0  17.25 4 0  18 4 0  18.75 4 0  19.5 4 0  20.25 4 0  21 4 0  21.75 4 0  22.5 4 0  23.25 4 0  24 4 0  24.75 4 0  25.5 4 0  26.25 4 0  27 4 0  27.75 4 0  28.5 4 0  29.25 4 0  30 4 0  30.75 4 0  31.5 4 0  32.25 4 0  33 4 0  33.75 4 0  34.5 4 0  35.25 4 0  36 4 0  36.75 4 0  37.5 4 0  38.25 4 0  39 4 0  39.75 4 0  40.5 4 0  41.25 4 0  42 4 0  42.75 4 0  43.5 4 0  44.25 4 0  45 4 0  45.75 4 0  46.5 4 0  47.25 4 0  48 4 0  48.75 4 0  49.5 4 0  50.25 4 0  51 4 0  51.75 4 0  52.5 4 0  53.25 4 0  54 4 0  54.75 4 0  55.5 4 0  56.25 4 0  57 4 0  57.75 4 0  58.5 4 0  59.25 4 0  60 4 0  0.375 0.25 0  1.125 0.25 0  1.875 0.25 0  2.625 0.25 0  3.375 0.25 0  4.125 0.25 0  4.875 0.25 0  5.625 0.25 0  6.375 0.25 0  7.125 0.25 0  7.875 0.25 0  8.625 0.25 0  9.375 0.25 0  10.125 0.25 0  10.875 0.25 0  11.625 0.25 0  12.375 0.25 0  13.125 0.25 0  13.875 0.25 0  14.625 0.25 0  15.375 0.25 0  16.125 0.25 0  16.875 0.25 0  17.625 0.25 0  18.375 0.25 0  19.125 0.25 0  19.875 0.25 0  20.625 0.25 0  21.375 0.25 0  22.125 0.25 0  22.875 0.25 0  23.625 0.25 0  24.375 0.25 0  25.125 0.25 0  25.875 0.25 0  26.625 0.25 0  27.375 0.25 0  28.125 0.25 0  28.875 0.25 0  29.625 0.25 0  30.375 0.25 0  31.125 0.25 0  31.875 0.25 0  32.625 0.25 0  33.375 0.25 0  34.125 0.25 0  34.875 0.25 0  35.625 0.25 0  36.375 0.25 0  37.125 0.25 0  37.875 0.25 0  38.625 0.25 0  39.375 0.25 0  40.125 0.25 0  40.875 0.25 0  41.625 0.25 0  42.375 0.25 0  43.125 0.25 0  43.875 0.25 0  44.625 0.25 0  45.375 0.25 0  46.125 0.25 0  46.875 0.25 0  47.625 0.25 0  48.375 0.25 0  49.125 0.25 0  49.875 0.25 0  50.625 0.25 0  51.375 0.25 0  52.125 0.25 0  52.875 0.25 0  53.625 0.25 0  54.375 0.25 0  55.125 0.25 0  55.875 0.25 0  56.625 0.25 0  57.375 0.25 0  58.125 0.25 0  58.875 0.25 0  59.625 0.25 0  0.375 0.75 0  1.125 0.75 0  1.875 0.75 0  2.625 0.75 0  3.375 0.75 0  4.125 0.75 0  4.875 0.75 0  5.625 0.75 0  6.375 0.75 0  7.125 0.75 0  7.875 0.75 0  8.625 0.75 0  9.375 0.75 0  10.125 0.75 0  10.875 0.75 0  11.625 0.75 0  12.375 0.75 0  13.125 0.75 0  13.875 0.75 0  14.625 0.75 0  15.375 0.75 0  16.125 0.75 0  16.875 0.75 0  17.625 0.75 0  18.375 0.75 0  19.125 0.75 0  19.875 0.75 0  20.625 0.75 0  21.375 0.75 0  22.125 0.75 0  22.875 0.75 0  23.625 0.75 0  24.375 0.75 0  25.125 0.75 0  25.875 0.75 0  26.625 0.75 0  27.375 0.75 0  28.125 0.75 0  28.875 0.75 0  29.625 0.75 0  30.375 0.75 0  31.125 0.75 0  31.875 0.75 0  32.625 0.75 0  33.375 0.75 0  34.125 0.75 0  34.875 0.75 0  35.625 0.75 0  36.375 0.75 0  37.125 0.75 0  37.875 0.75 0  38.625 0.75 0  39.375 0.75 0  40.125 0.75 0  40
[...]
<PointData  Scalars="f_8-1"> 
<DataArray  type="Float64"  Name="f_8-1"  format="ascii">8.4820654952724954e+00  8.3788129766098294e+00  8.2726303209849750e+00  8.1666167038476480e+00  8.0605713324847130e+00  7.9545235572775326e+00  7.8484744770825410e+00  7.7424252345892990e+00  7.6363760856702561e+00  7.5303270628517707e+00  7.4242781368171107e+00  7.3182292735091030e+00  7.2121804480895690e+00  7.1061316447610645e+00  7.0000828545276033e+00  6.8940340724232749e+00  6.7879852958947087e+00  6.6819365236048904e+00  6.5758877549032198e+00  6.4698389894509347e+00  6.3637902270900089e+00  6.2577414677355705e+00  6.1516927113499955e+00  6.0456439579113734e+00  5.9395952074107887e+00  5.8335464598423039e+00  5.7274977152037376e+00  5.6214489734933402e+00  5.5154002347105253e+00  5.4093514988547584e+00  5.3033027659257943e+00  5.1972540359236055e+00  5.0912053088479317e+00  4.9851565846990002e+00  4.8791078634762295e+00  4.7730591451805822e+00  4.6670104298103441e+00  4.5609617173683112e+00  4.4549130078497470e+00  4.3488643012625401e+00  4.2428155975935962e+00  4.1367668968642777e+00  4.0307181990397405e+00  3.9246695041757458e+00  3.8186208121833878e+00  3.7125721232020132e+00  3.6065234370141925e+00  3.5004747539531409e+00  3.3944260735108323e+00  3.2883773964466299e+00  3.1823287216307525e+00  3.0762800507062429e+00  2.9702313812889019e+00  2.8641827167399447e+00  2.7581340523035873e+00  2.6520853944303671e+00  2.5460367342221235e+00  2.4399880830692511e+00  2.3339394256773764e+00  2.2278907795916463e+00  2.1218421224189519e+00  2.0157934742647998e+00  1.9097448169619098e+00  1.8036961518434662e+00  1.6976475109005496e+00  1.5915987314239088e+00  1.4855498243073206e+00  1.3794994574683790e+00  1.2734466577928463e+00  1.1673860959069315e+00  1.0613168926895116e+00  9.5523163063139260e-01  8.4914553523186220e-01  7.4305230428709934e-01  6.3699779529010292e-01  5.3093494307315114e-01  4.2501443502327885e-01  3.1894634132959493e-01  2.1344128459776465e-01  1.0575576897198492e-01  2.2783182763048975e-03  8.4855348035992275e+00  8.3784450137513637e+00  8.2725838228803621e+00  8.1665422673183325e+00  8.0604994073107648e+00  7.9544515372029991e+00  7.8484025743802279e+00  7.7423534089299864e+00  7.6363043159535007e+00  7.5302553291530998e+00  7.4242064245715893e+00  7.3181575736734041e+00  7.2121087550914282e+00  7.1060599554486821e+00  7.0000111671156500e+00  6.8939623859891856e+00  6.7879136099469868e+00  6.6818648379024701e+00  6.5758160693204024e+00  6.4697673039282586e+00  6.3637185415968371e+00  6.2576697822575289e+00  6.1516210258800417e+00  6.0455722724459644e+00  5.9395235219484839e+00  5.8334747743821502e+00  5.7274260297455282e+00  5.6213772880367783e+00  5.5153285492556776e+00  5.4092798134014419e+00  5.3032310804742044e+00  5.1971823504734269e+00  5.0911336233996636e+00  4.9850848992518193e+00  4.8790361780315274e+00  4.7729874597360187e+00  4.6669387443698227e+00  4.5608900319254122e+00  4.4548413224149792e+00  4.3487926158188763e+00  4.2427439121683319e+00  4.1366952114141604e+00  4.0306465136325560e+00  3.9245978187065935e+00  3.8185491268126168e+00  3.7125004376878423e+00  3.6064517517162584e+00  3.5004030683444851e+00  3.3943543883518488e+00  3.2883057106584808e+00  3.1822570367169929e+00  3.0762083646131715e+00  2.9701596967582966e+00  2.8641110302089512e+00  2.7580623682442598e+00  2.6520137074756356e+00  2.5459650503750071e+00  2.4399163963314394e+00  2.3338677405802155e+00  2.2278190955768933e+00  2.1217704311557175e+00  2.0157218003878610e+00  1.9096731053456171e+00  1.8036245093991472e+00  1.6975757418082571e+00  1.5915271830800961e+00  1.4854778872239924e+00  1.3794280879697065e+00  1.2733739921166529e+00  1.1673145492756001e+00  1.0612414838777968e+00  9.5515938890426133e-01  8.4906480398629292e-01  7.4298535266108023e-01  6.3691181938107722e-01  5.3088850754458683e-01  4.2489108740641762e-01  3.1896582291384346e-01  2.1300603861482023e-01  1.0640754952515442e-01  -5.8258704547780042e-04  8.4852590901462186e+00  8.3787240891785810e+00  8.2725691616787884e+00  8.1665042853185081e+00  8.0604483091665280e+00  7.9543964166201118e+00  7.8483460272496242e+00  7.7422963665732674e+00  7.6362470936848057e+00  7.5301980374254933e+00  7.4241491034045470e+00  7.3181002389362666e+00  7.2120514135948151e+00  7.1060026104733423e+00  6.9999538202865592e+00  6.8939050381908702e+00  6.7878562616352331e+00  6.6818074893327397e+00  6.5757587206181203e+00  6.4697099551635331e+00  6.3636611928011737e+00  6.2576124334490579e+00  6.1515636770658171e+00  6.0455149236305346e+00  5.9394661731331331e+00  5.8334174255680065e+00  5.7273686809326305e+00  5.6213199392254980e+00  5.5152712004457483e+00  5.4092224645932658e+00  5.3031737316671732e+00  5.1971250016684856e+00  5.0910762745951388e+00  4.9850275504504991e+00  4.8789788292287541e+00  4.7729301109394902e+00  4.6668813955668789e+00  4.5608326831366606e+00  4.4547839736072667e+00  4.3487352670449555e+00  4.2426865633453144e+00  4.1366378626706952e+00  4.0305891647717687e+00  3.9245404700256175e+00  3.8184917778701650e+00  3.7124430891288380e+00  3.6063944026153996e+00  3.5003457200040624e+00  3.3942970389795519e+00  3.2882483626603718e+00  3.1821996869591067e+00  3.0761510170258508e+00  2.9701023466558372e+00  2.8640536827533816e+00  2.7580050184702571e+00  2.6519563586954078e+00  2.5459077034554940e+00  2.4398590415454975e+00  2.3338104036115519e+00  2.2277617223691450e+00  2.1217131212506346e+00  2.0156643783473078e+00  1.9096158583201581e+00  1.8035669535562566e+00  1.6975185971720324e+00  1.5914691711853854e+00  1.4854206866740491e+00  1.3793684977574716e+00  1.2733161485304823e+00  1.1672516669277939e+00  1.0611842691098501e+00  9.5509366415256414e-01  8.4901528471767229e-01  7.4291971840008908e-01  6.3687996745565123e-01  5.3080428313166705e-01  4.2485396224131106e-01  3.1875381461890967e-01  2.1284060832595694e-01  1.0607255934568173e-01  2.6733436331541777e-04  8.4852665210550029e+00  8.3788754735071258e+00  8.2726608384253382e+00  8.1665523556804480e+00  8.0604818142628556e+00  7.9544246183698055e+00  7.8483723525936160e+00  7.7423220024431538e+00  7.6362724596207769e+00  7.5302232880353595e+00  7.4241743004673051e+00  7.3181254091495322e+00  7.2120765698039744e+00  7.1060277592437613e+00  6.9999789651468154e+00  6.8939301810067297e+00  6.7878814034054873e+00  6.6818326305723303e+00  6.5757838615953261e+00  6.4697350960118714e+00  6.3636863335881326e+00  6.2576375742071972e+00  6.1515888178108300e+00  6.0455400643699404e+00  5.9394913138701853e+00  5.8334425663041962e+00  5.7273938216685929e+00  5.6213450799612650e+00  5.5152963411816840e+00  5.4092476053287211e+00  5.3031988724032422e+00  5.1971501424031645e+00  5.0911014153317549e+00  4.9850526911833457e+00  4.8790039699673118e+00  4.7729552516680585e+00  4.6669065363111182e+00  4.5608578238550201e+00  4.4548091143663147e+00  4.3487604077394151e+00  4.2427117041396825e+00  4.1366630033114520e+00  4.0306143056444368e+00  3.9245656105530937e+00  3.8185169189030046e+00  3.7124682294358187e+00  3.6064195439461360e+00  3.5003708599253613e+00  3.3943221807965163e+00  3.2882735020092273e+00  3.1822248294064521e+00  3.0761761557834602e+00  2.9701274894724392e+00  2.8640788216719937e+00  2.7580301599366943e+00  2.6519815008833225e+00  2.5459328377296950e+00  2.4398841960965836e+00  2.3338355146663465e+00  2.2277869118215330e+00  2.1217381693231703e+00  2.0156896521224676e+00  1.9096407394269768e+00  1.8035923890205494e+00  1.6975429567434668e+00  1.5914946932008869e+00  1.4854432106714244e+00  1.3793933454676734e+00  1.2733338694460701e+00  1.1672761610646354e+00  1.0611964941916667e+00  9.5512794397386291e-01  8.4902743634349775e-01  7.4297903011302679e-01  6.3687765057551204e-01  5.3089591467727837e-01  4.2477535057724980e-01  3.1885794402780177e-01  2.1252032059381387e-01  1.0642916583907128e-01  -1.5505073245220775e-04  8.4852683621484015e+00  8.3789206652966417e+00  8.2726952647851331e+00  8.1665725255070782e+00  8.0604960345449168e+00  7.9544367165702479e+00  7.8483836936629219e+00  7.7423330677253857e+00  7.6362834184476487e+00  7.5302342022758895e+00  7.4241851943638650e+00  7.3181362930365212e+00  7.2120874485399105e+00  7.1060386352751879e+00  6.9999898397679647e+00  6.8939410549016502e+00  6.7878922769357777e+00  6.6818435039235640e+00  6.5757947348619483e+00  6.4697459692400248e+00  6.3636972068000297e+00  6.2576484474130618e+00  6.1515996910150781e+00  6.0455509375743528e+00  5.9395021870752212e+00  5.8334534395100919e+00  5.7274046948750028e+00  5.6213559531683632e+00  5.5153072143887965e+00  5.4092584785366222e+00  5.3032097456103120e+00  5.1971610156119539e+00  5.0911122885377669e+00  4.9850635643940491e+00  4.8790148431701699e+00  4.7729661248837347e+00  4.6669174095058388e+00  4.5608686970833627e+00  4.4548199875410894e+00  4.3487712809983403e+00  4.2427225772680819e+00  4.1366738766396747e+00  4.0306251786716318e+00  3.9245764840276176e+00  3.8185277917254052e+00  3.7124791031939766e+00  3.6064304163919565e+00  3.5003817341754608e+00  3.3943330526377520e+00  3.2882843769762324e+00  3.1822357004918005e+00  3.0761870314437814e+00  2.9701383602095386e+00  2.8640896969201535e+00  2.7580410326494906e+00  2.6519923713435505e+00  2.5459437199564428e+00  2.4398950490389373e+00  2.3338464263470597e+00  2.2277977151528754e+00  2.1217491577293486e+00  2.0157003288374136e+00  1.9096519090467774e+00  1.8036027411401119e+00  1.6975545078500425e+00  1.5915041472617739e+00  1.4854554321475786e+00  1.3794003911582107e+00  1.2733474664922018e+00  1.1672783404613771e+00  1.0612153302087781e+00  9.5512336975302126e-01  8.4906219004683381e-01  7.4295978735572366e-01  6.3694117757343671e-01  5.3083752709624532e-01  4.2488092290552992e-01  3.1871056353357191e-01  2.1266488471736350e-01  1.0625659456726953e-01  8.4183603919896801e-05  8.4852665154390969e+00  8.3788753724271654e+00  8.2726607378410133e+00  8.1665522835433499e+00  8.0604817642997411e+00  7.9544245826764861e+00  7.8483723259183975e+00  7.7423219814681197e+00  7.6362724422429409e+00  7.5302232729262775e+00  7.4241742867944671e+00  7.3181253963928716e+00  7.2120765576372703e+00  7.1060277474606588e+00  6.9999789536151535e+00  6.8939301696411412e+00  6.7878813921502772e+00  6.6818326193908604e+00  6.5757838504634183e+00  6.4697350849133866e+00  6.3636863225122289e+00  6.2576375631466465e+00  6.1515888067607190e+00  6.0455400533269259e+00  5.9394913028320149e+00  5.8334425552693405e+00  5.7273938106359878e+00  5.6213450689302098e+00  5.5152963301516804e+00  5.4092475942994449e+00  5.3031988613744607e+00  5.1971501313747197e+00  5.0911014043035383e+00  4.9850526801553094e+00  4.8790039589393990e+00  4.7729552406402389e+00  4.6669065252833963e+00  4.5608578128274182e+00  4.4548091033388317e+00  4.3487603967121178e+00  4.2427116931126072e+00  4.1366629922847231e+00  4.0306142946181964e+00  3.9245655995275555e+00  3.8185169078785175e+00  3.7124682184128712e+00  3.6064195329254050e+00  3.5003708489079104e+00  3.3943221697838006e+00  3.2882734910035567e+00  3.1822248184108757e+00  3.0761761448029348e+00  2.9701274785133354e+00  2.8640788107447812e+00  2.7580301490547141e+00  2.6519814900683074e+00  2.5459328270090977e+00  2.4398841855150946e+00  2.3338355042790764e+00  2.2277869017186767e+00  2.1217381596116769e+00  2.0156896429756279e+00  1.9096407310312391e+00  1.8035923816527355e+00  1.6975429505914104e+00  1.5914946884118069e+00  1.4854432067888215e+00  1.3793933414905308e+00  1.2733338629461628e+00  1.1672761497201816e+00  1.0611964757165471e+00  9.5512791989877477e-01  8.4902740724524750e-01  7.4297899942677970e-01  6.3687761805846654e-01  5.3089589573032581e-01  4.2477534345906942e-01  3.1885796794275817e-01  2.1252034187045818e-01  1.0642918327762620e-01  -1.5505947748905620e-04  8.4852590692288974e+00  8.3787238313460719e+00  8.2725689494261765e+00  8.1665041418111741e+00  8.0604482088467986e+00  7.9543963434093872e+00  7.8483459710670740e+00  7.7422963211510636e+00  7.6362470550516752e+00  7.5301980030750713e+00  7.4241490717672409e+00  7.3181002090313587e+00  7.2120513848068759e+00  7.1060025824124660e+00  6.9999537927029252e+00  6.8939050109227100e+00  6.7878562345769176e+00  6.6818074624147705e+00  6.5757586937944650e+00  6.4697099284035238e+00  6.3636611660842775e+00  6.2576124067614280e+00  6.1515636503980744e+00  6.0455148969763668e+00  5.9394661464882157e+00  5.8334173989294271e+00  5.7273686542983544e+00  5.6213199125941697e+00  5.5152711738164149e+00  5.4092224379652958e+00  5.3031737050401677e+00  5.1971249750421125e+00  5.0910762479692355e+00  4.9850275238249004e+00  4.8789788026034033e+00  4.7729300843143232e+00  4.6668813689419020e+00  4.5608326565118755e+00  4.4547839469827517e+00  4.3487352404207629e+00  4.2426865367215632e+00  4.1366378360475746e+00  4.0305891381495824e+00  3.9245404434047599e+00  3.8184917512512868e+00  3.7124430625128402e+00  3.6063943760036099e+00  3.5003456933983923e+00  3.3942970123829252e+00  3.2882483360768262e+00  3.1821996603949070e+00  3.0761509904895181e+00  2.9701023201607066e+00  2.8640536563172647e+00  2.7580049921212146e+00  2.6519563324703301e+00  2.5459076774126306e+00  2.4398590157600317e+00  2.3338103782023505e+00  2.2277616974860166e+00  2.1217130971301748e+00  2.0156643552742017e+00  1.9096158367296809e+00  1.8035669338966263e+00  1.6975185800112484e+00  1.5914691566770507e+00  1.4854206744455292e+00  1.3793684854619517e+00  1.2733161321761455e+00  1.1672516402601099e+00  1.0611842288373041e+00  9.5509361045507346e-01  8.4901522356060943e-01  7.4291964934055321e-01  6.3687989845065363e-01  5.3080423090112827e-01  4.2485395128671344e-01  3.1875384399575835e-01  2.1284068492665278e-01  1.0607255293287179e-01  2.6735551469579466e-04  8.4855347920451312e+00  8.3784444272655207e+00  8.2725835210756049e+00  8.1665420506161226e+00  8.0604992479639019e+00  7.9544514122140271e+00  7.8484024707284270e+00  7.7423533186831985e+00  7.6363042341621936e+00  7.5302552527013464e+00  7.4242063515028054e+00  7.3181575027618004e+00  7.2121086855673617e+00  7.1060598868253155e+00  7.0000110990819531e+00  6.8939623183444789e+00  6.7879135425606192e+00  6.6818647706886578e+00  6.5758160022224414e+00  6.4697672369084120e+00  6.3637184746298638e+00  6.2576697153264407e+00  6.1516209589733224e+00  6.0455722055558905e+00  5.9395234550697467e+00  5.8334747075111490e+00  5.7274259628798170e+00  5.6213772211746624e+00  5.5153284823960167e+00  5.4092797465434650e+00  5.3032310136173972e+00  5.1971822836174173e+00  5.0911335565441975e+00  4.9850848323967476e+00  4.8790361111767506e+00  4.7729873928814763e+00  4.6669386775155122e+00  4.5608899650713575e+00  4.4548412555612371e+00  4.3487925489655392e+00  4.2427438453155295e+00  4.1366951445621289e+00  4.0306464467816685e+00  3.9245977518573438e+00  3.8185490599657781e+00  3.7125003708445408e+00  3.6064516848780905e+00  3.5004030015138579e+00  3.3943543215322487e+00  3.2883056438550113e+00  3.1822569699370695e+00  3.0762082978676784e+00  2.9701596300629070e+00  2.8641109635865791e+00  2.7580623017277421e+00  2.6520136411127329e+00  2.5459649842336542e+00  2.4399163305097176e+00  2.3338676752161778e+00  2.2278190308680612e+00  2.1217703673750710e+00  2.0157217379161354e+00  1.9096730446794332e+00  1.8036244511610411e+00  1.6975756866240661e+00  1.5915271313416581e+00  1.4854778383988507e+00  1.3794280397879912e+00  1.2733739395222452e+00  1.1673144853934412e+00  1.0612414027042310e+00  9.5515929042156233e-01  8.4906469182866662e-01  7.4298523114384596e-01  6.3691169417086679e-01  5.3088840638787060e-01  4.2489103657429222e-01  3.1896584076620826e-01  2.1300613332698881e-01  1.0640752235145508e-01  -5.8264401679015184e-04  8.4820626754144435e+00  8.3788126609497589e+00  8.2726299670347849e+00  8.1666164527064691e+00  8.0605711355917631e+00  7.9545233944507894e+00  7.8484743352790192e+00  7.7424251059580884e+00  7.6363759653293775e+00  7.5303269477339576e+00  7.4242780249985278e+00  7.3182291637869428e+00  7.2121803397106952e+00  7.1061315372507172e+00  7.0000827475837433e+00  6.8940339658517908e+00  6.7879851895698042e+00  6.6819364174442244e+00  6.5758876488525768e+00  6.4698388834743268e+00  6.3637901211634249e+00  6.2577413618429354e+00  6.1516926054803607e+00  6.0456438520574611e+00  5.9395951015675816e+00  5.8335463540063941e+00  5.7274976093728212e+00  5.6214488676658148e+00  5.5154001288853234e+00  5.4093513930311463e+00  5.3033026601032933e+00  5.1972539301018577e+00  5.0912052030266866e+00  4.9851564788781282e+00  4.8791077576556559e+00  4.7730590393602315e+00  4.6670103239902154e+00  4.5609616115484508e+00  4.4549129020302036e+00  4.3488641954434115e+00  4.2428154917750467e+00  4.1367667910465240e+00  4.0307180932231645e+00  3.9246693983608858e+00  3.8186207063710471e+00  3.7125720173933483e+00  3.6065233312109037e+00  3.5004746481576809e+00  3.3944259677269075e+00  3.2883772906794650e+00  3.1823286158882511e+00  3.0762799449994818e+00  2.9702312756346747e+00  2.8641826111614939e+00  2.7581339468361845e+00  2.6520852891224229e+00  2.5460366291468040e+00  2.4399879783259122e+00  2.3339393214151234e+00  2.2278906760104724e+00  2.1218420198147103e+00  2.0157933730218240e+00  1.9097447176221101e+00  1.8036960550284358e+00  1.6976474173215477e+00  1.5915986414521330e+00  1.4855497375972595e+00  1.3794993717524027e+00  1.2734465685006664e+00  1.1673859960747690e+00  1.0613167764560294e+00  9.5523149579202626e-01  8.4914538502732906e-01  7.4305214065673053e-01  6.3699762996492360e-01  5.3093479077332351e-01  4.2501435152699479e-01  3.1894628208758186e-01  2.1344144427334458e-01  1.0575545163090336e-01  2.2790601582434655e-03  8.4311994471752119e+00  8.3253614328334784e+00  8.2193292484750877e+00  8.1132937597852113e+00  8.0072481402602964e+00  7.9011998546033180e+00  7.7951508045128026e+00  7.6891016717763945e+00  7.5830526242303922e+00  7.4770036727754139e+00  7.3709547911794440e+00  7.2649059541415486e+00  7.1588571437119635e+00  7.0528083490527331e+00  6.9467595639750233e+00  6.8407107852273983e+00  6.7346620111022846e+00  6.6286132407552154e+00  6.5225644737533512e+00  6.4165157098889161e+00  6.3104669490551855e+00  6.2044181912014720e+00  6.0983694363012173e+00  5.9923206843416628e+00  5.8862719353162243e+00  5.7802231892213758e+00  5.6741744460553925e+00  5.5681257058171560e+00  5.4620769685062482e+00  5.3560282341221326e+00  5.2499795026649370e+00  5.1439307741343390e+00  5.0378820485303857e+00  4.9318333258527547e+00  4.8257846061020135e+00  4.7197358892771941e+00  4.6136871753796926e+00  4.5076384644072069e+00  4.4015897563634674e+00  4.2955410512424175e+00  4.1894923490537614e+00  4.0834436497817999e+00  3.9773949534510584e+00  3.8713462600232780e+00  3.7652975695567004e+00  3.6592488819627245e+00  3.5532001973725009e+00  3.4471515155921875e+00  3.3411028368991236e+00  3.2350541608964458e+00  3.1290054881292533e+00  3.0229568178443698e+00  2.9169081510206643e+00  2.8108594863586593e+00  2.7048108253995835e+00  2.5987621661930875e+00  2.4927135106052671e+00  2.3866648564091273e+00  2.2806162042310323e+00  2.1745675535248141e+00  2.0685188989858112e+00  1.9624702491896757e+00  1.8564215833065199e+00  1.7503729371302708e+00  1.6443242163336560e+00  1.5382753830146398e+00  1.4322257043892233e+00  1.3261740810944147e+00  1.2201171870258565e+00  1.1140519594894005e+00  1.0079741348957578e+00  9.0188759512970995e-01  7.9579811666833422e-01  6.8972403637059265e-01  5.8367097736580986e-01  4.7766573508768717e-01  3.7170966236158648e-01  2.6575023402815712e-01  1.5962750875524379e-01  5.2003992809249160e-02  8.4319553389586321e+00  8.3255832047282290e+00  8.2195648045255876e+00  8.1135168308576500e+00  8.0074681949920983e+00  7.9014187843383734e+00  7.7953693833116153e+00  7.6893201498074788e+00  7.5832710793825777e+00  7.4772221268408261e+00  7.3711732482813366e+00  7.2651244139459807e+00  7.1590756051296376e+00  7.0530268113723915e+00  6.9469780267403429e+00  6.8409292482229853e+00  6.7348804741982180e+00  6.6288317039009961e+00  6.5227829369159984e+00  6.4167341730588454e+00  6.31068541222