<?xml version="1.0"?>
<VTKFile type="UnstructuredGrid"  version="0.1"  >
<UnstructuredGrid>
<Piece  NumberOfPoints="1369" NumberOfCells="2560">
<Points>
<DataArray  type="Float64"  NumberOfComponents="3"  format="ascii">0 0 0  0.75 0 0  1.5 0 0  2.25 0 0  3 0 0  3.75 0 0  4.5 0 0  5.25 0 0  6 0 0  6.75 0 0  7.5 0 0  8.25 0 0  9 0 0  9.75 0 0  10.5 0 0  11.25 0 0  12 0 0  12.75 0 0  13.5 0 0  14.25 0 0  15 0 0  15.75 0 0  16.5 0 0  17.25 0 0  18 0 0  18.75 0 0  19.5 0 0  20.25 0 0  21 0 0  21.75 0 0  22.5 0 0  23.25 0 0  24 0 0  24.75 0 0  25.5 0 0  26.25 0 0  27 0 0  27.75 0 0  28.5 0 0  29.25 0 0  30 0 0  30.75 0 0  31.5 0 0  32.25 0 0  33 0 0  33.75 0 0  34.5 0 0  35.25 0 0  36 0 0  36.75 0 0  37.5 0 0  38.25 0 0  39 0 0  39.75 0 0  40.5 0 0  41.25 0 0  42 0 0  42.75 0 0  43.5 0 0  44.25 0 0  45 0 0  45.75 0 0  46.5 0 0  47.25 0 0  48 0 0  48.75 0 0  49.5 0 0  50.25 0 0  51 0 0  51.75 0 0  52.5 0 0  53.25 0 0  54 0 0  54.75 0 0  55.5 0 0  56.25 0 0  57 0 0  57.75 0 0  58.5 0 0  59.25 0 0  60 0 0  0 0.5 0  0.75 0.5 0  1.5 0.5 0  2.25 0.5 0  3 0.5 0  3.75 0.5 0  4.5 0.5 0  5.25 0.5 0  6 0.5 0  6.75 0.5 0  7.5 0.5 0  8.25 0.5 0  9 0.5 0  9.75 0.5 0  10.5 0.5 0  11.25 0.5 0  12 0.5 0  12.75 0.5 0  13.5 0.5 0  14.25 0.5 0  15 0.5 0  15.75 0.5 0  16.5 0.5 0  17.25 0.5 0  18 0.5 0  18.75 0.5 0  19.5 0.5 0  20.25 0.5 0  21 0.5 0  21.75 0.5 0  22.5 0.5 0  23.25 0.5 0  24 0.5 0  24.75 0.5 0  25.5 0.5 0  26.25 0.5 0  27 0.5 0  27.75 0.5 0  28.5 0.5 0  29.25 0.5 0  30 0.5 0  30.75 0.5 0  31.5 0.5 0  32.25 0.5 0  33 0.5 0  33.75 0.5 0  34.5 0.5 0  35.25 0.5 0  36 0.5 0  36.75 0.5 0  37.5 0.5 0  38.25 0.5 0  39 0.5 0  39.75 0.5 0  40.5 0.5 0  41.25 0.5 0  42 0.5 0  42.75 0.5 0  43.5 0.5 0  44.25 0.5 0  45 0.5 0  45.75 0.5 0  46.5 0.5 0  47.25 0.5 0  48 0.5 0  48.75 0.5 0  49.5 0.5 0  50.25 0.5 0  51 0.5 0  51.75 0.5 0  52.5 0.5 0  53.25 0.5 0  54 0.5 0  54.75 0.5 0  55.5 0.5 0  56.25 0.5 0  57 0.5 0  57.75 0.5 0  58.5 0.5 0  59.25 0.5 0  60 0.5 0  0 1 0  0.75 1 0  1.5 1 0  2.25 1 0  3 1 0  3.75 1 0  4.5 1 0  5.25 1 0  6 1 0  6.75 1 0  7.5 1 0  8.25 1 0  9 1 0  9.75 1 0  10.5 1 0  11.25 1 0  12 1 0  12.75 1 0  13.5 1 0  14.25 1 0  15 1 0  15.75 1 0  16.5 1 0  17.25 1 0  18 1 0  18.75 1 0  19.5 1 0  20.25 1 0  21 1 0  21.75 1 0  22.5 1 0  23.25 1 0  24 1 0  24.75 1 0  25.5 1 0  26.25 1 0  27 1 0  27.75 1 0  28.5 1 0  29.25 1 0  30 1 0  30.75 1 0  31.5 1 0  32.25 1 0  33 1 0  33.75 1 0  34.5 1 0  35.25 1 0  36 1 0  36.75 1 0  37.5 1 0  38.25 1 0  39 1 0  39.75 1 0  40.5 1 0  41.25 1 0  42 1 0  42.75 1 0  43.5 1 0  44.25 1 0  45 1 0  45.75 1 0  46.5 1 0  47.25 1 0  48 1 0  48.75 1 0  49.5 1 0  50.25 1 0  51 1 0  51.75 1 0  52.5 1 0  53.25 1 0  54 1 0  54.75 1 0  55.5 1 0  56.25 1 0  57 1 0  57.75 1 0  58.5 1 0  59.25 1 0  60 1 0  0 1.5 0  0.75 1.5 0  1.5 1.5 0  2.25 1.5 0  3 1.5 0  3.75 1.5 0  4.5 1.5 0  5.25 1.5 0  6 1.5 0  6.75 1.5 0  7.5 1.5 0  8.25 1.5 0  9 1.5 0  9.75 1.5 0  10.5 1.5 0  11.25 1.5 0  12 1.5 0  12.75 1.5 0  13.5 1.5 0  14.25 1.5 0  15 1.5 0  15.75 1.5 0  16.5 1.5 0  17.25 1.5 0  18 1.5 0  18.75 1.5 0  19.5 1.5 0  20.25 1.5 0  21 1.5 0  21.75 1.5 0  22.5 1.5 0  23.25 1.5 0  24 1.5 0  24.75 1.5 0  25.5 1.5 0  26.25 1.5 0  27 1.5 0  27.75 1.5 0  28.5 1.5 0  29.25 1.5 0  30 1.5 0  30.75 1.5 0  31.5 1.5 0  32.25 1.5 0  33 1.5 0  33.75 1.5 0  34.5 1.5 0  35.25 1.5 0  36 1.5 0  36.75 1.5 0  37.5 1.5 0  38.25 1.5 0  39 1.5 0  39.75 1.5 0  40.5 1.5 0  41.25 1.5 0  42 1.5 0  42.75 1.5 0  43.5 1.5 0  44.25 1.5 0  45 1.5 0  45.75 1.5 0  46.5 1.5 0  47.25 1.5 0  48 1.5 0  48.75 1.5 0  49.5 1.5 0  50.25 1.5 0  51 1.5 0  51.75 1.5 0  52.5 1.5 0  53.25 1.5 0  54 1.5 0  54.75 1.5 0  55.5 1.5 0  56.25 1.5 0  57 1.5 0  57.75 1.5 0  58.5 1.5 0  59.25 1.5 0  60 1.5 0  0 2 0  0.75 2 0  1.5 2 0  2.25 2 0  3 2 0  3.75 2 0  4.5 2 0  5.25 2 0  6 2 0  6.75 2 0  7.5 2 0  8.25 2 0  9 2 0  9.75 2 0  10.5 2 0  11.25 2 0  12 2 0  12.75 2 0  13.5 2 0  14.25 2 0  15 2 0  15.75 2 0  16.5 2 0  17.25 2 0  18 2 0  18.75 2 0  19.5 2 0  20.25 2 0  21 2 0  21.75 2 0  22.5 2 0  23.25 2 0  24 2 0  24.75 2 0  25.5 2 0  26.25 2 0  27 2 0  27.75 2 0  28.5 2 0  29.25 2 0  30 2 0  30.75 2 0  31.5 2 0  32.25 2 0  33 2 0  33.75 2 0  34.5 2 0  35.25 2 0  36 2 0  36.75 2 0  37.5 2 0  38.25 2 0  39 2 0  39.75 2 0  40.5 2 0  41.25 2 0  42 2 0  42.75 2 0  43.5 2 0  44.25 2 0  45 2 0  45.75 2 0  46.5 2 0  47.25 2 0  48 2 0  48.75 2 0  49.5 2 0  50.25 2 0  51 2 0  51.75 2 0  52.5 2 0  53.25 2 0  54 2 0  54.75 2 0  55.5 2 0  56.25 2 0  57 2 0  57.75 2 0  58.5 2 0  59.25 2 0  60 2 0  0 2.5 0  0.75 2.5 0  1.5 2.5 0  2.25 2.5 0  3 2.5 0  3.75 2.5 0  4.5 2.5 0  5.25 2.5 0  6 2.5 0  6.75 2.5 0  7.5 2.5 0  8.25 2.5 0  9 2.5 0  9.75 2.5 0  10.5 2.5 0  11.25 2.5 0  12 2.5 0  12.75 2.5 0  13.5 2.5 0  14.25 2.5 0  15 2.5 0  15.75 2.5 0  16.5 2.5 0  17.25 2.5 0  18 2.5 0  18.75 2.5 0  19.5 2.5 0  20.25 2.5 0  21 2.5 0  21.75 2.5 0  22.5 2.5 0  23.25 2.5 0  24 2.5 0  24.75 2.5 0  25.5 2.5 0  26.25 2.5 0  27 2.5 0  27.75 2.5 0  28.5 2.5 0  29.25 2.5 0  30 2.5 0  30.75 2.5 0  31.5 2.5 0  32.25 2.5 0  33 2.5 0  33.75 2.5 0  34.5 2.5 0  35.25 2.5 0  36 2.5 0  36.75 2.5 0  37.5 2.5 0  38.25 2.5 0  39 2.5 0  39.75 2.5 0  40.5 2.5 0  41.25 2.5 0  42 2.5 0  42.75 2.5 0  43.5 2.5 0  44.25 2.5 0  45 2.5 0  45.75 2.5 0  46.5 2.5 0  47.25 2.5 0  48 2.5 0  48.75 2.5 0  49.5 2.5 0  50.25 2.5 0  51 2.5 0  51.75 2.5 0  52.5 2.5 0  53.25 2.5 0  54 2.5 0  54.75 2.5 0  55.5 2.5 0  56.25 2.5 0  57 2.5 0  57.75 2.5 0  58.5 2.5 0  59.25 2.5 0  60 2.5 0  0 3 0  0.75 3 0  1.5 3 0  2.25 3 0  3 3 0  3.75 3 0  4.5 3 0  5.25 3 0  6 3 0  6.75 3 0  7.5 3 0  8.25 3 0  9 3 0  9.75 3 0  10.5 3 0  11.25 3 0  12 3 0  12.75 3 0  13.5 3 0  14.25 3 0  15 3 0  15.75 3 0  16.5 3 0  17.25 3 0  18 3 0  18.75 3 0  19.5 3 0  20.25 3 0  21 3 0  21.75 3 0  22.5 3 0  23.25 3 0  24 3 0  24.75 3 0  25.5 3 0  26.25 3 0  27 3 0  27.75 3 0  28.5 3 0  29.25 3 0  30 3 0  30.75 3 0  31.5 3 0  32.25 3 0  33 3 0  33.75 3 0  34.5 3 0  35.25 3 0  36 3 0  36.75 3 0  37.5 3 0  38.25 3 0  39 3 0  39.75 3 0  40.5 3 0  41.25 3 0  42 3 0  42.75 3 0  43.5 3 0  44.25 3 0  45 3 0  45.75 3 0  46.5 3 0  47.25 3 0  48 3 0  48.75 3 0  49.5 3 0  50.25 3 0  51 3 0  51.75 3 0  52.5 3 0  53.25 3 0  54 3 0  54.75 3 0  55.5 3 0  56.25 3 0  57 3 0  57.75 3 0  58.5 3 0  59.25 3 0  60 3 0  0 3.5 0  0.75 3.5 0  1.5 3.5 0  2.25 3.5 0  3 3.5 0  3.75 3.5 0  4.5 3.5 0  5.25 3.5 0  6 3.5 0  6.75 3.5 0  7.5 3.5 0  8.25 3.5 0  9 3.5 0  9.75 3.5 0  10.5 3.5 0  11.25 3.5 0  12 3.5 0  12.75 3.5 0  13.5 3.5 0  14.25 3.5 0  15 3.5 0  15.75 3.5 0  16.5 3.5 0  17.25 3.5 0  18 3.5 0  18.75 3.5 0  19.5 3.5 0  20.25 3.5 0  21 3.5 0  21.75 3.5 0  22.5 3.5 0  23.25 3.5 0  24 3.5 0  24.75 3.5 0  25.5 3.5 0  26.25 3.5 0  27 3.5 0  27.75 3.5 0  28.5 3.5 0  29.25 3.5 0  30 3.5 0  30.75 3.5 0  31.5 3.5 0  32.25 3.5 0  33 3.5 0  33.75 3.5 0  34.5 3.5 0  35.25 3.5 0  36 3.5 0  36.75 3.5 0  37.5 3.5 0  38.25 3.5 0  39 3.5 0  39.75 3.5 0  40.5 3.5 0  41.25 3.5 0  42 3.5 0  42.75 3.5 0  43.5 3.5 0  44.25 3.5 0  45 3.5 0  45.75 3.5 0  46.5 3.5 0  47.25 3.5 0  48 3.5 0  48.75 3.5 0  49.5 3.5 0  50.25 3.5 0  51 3.5 0  51.75 3.5 0  52.5 3.5 0  53.25 3.5 0  54 3.5 0  54.75 3.5 0  55.5 3.5 0  56.25 3.5 0  57 3.5 0  57.75 3.5 0  58.5 3.5 0  59.25 3.5 0  60 3.5 0  0 4 0  0.75 4 0  1.5 4 0  2.25 4 0  3 4 0  3.75 4 0  4.5 4 0  5.25 4 0  6 4 0  6.75 4 0  7.5 4 0  8.25 4 0  9 4 0  9.75 4 0  10.5 4 0  11.25 4 0  12 4 0  12.75 4 0  13.5 4 0  14.25 4 0  15 4 0  15.75 4 0  16.5 4 0  17.25 4 0  18 4 0  18.75 4 0  19.5 4 0  20.25 4 0  21 4 0  21.75 4 0  22.5 4 0  23.25 4 0  24 4 0  24.75 4 0  25.5 4 0  26.25 4 0  27 4 0  27.75 4 0  28.5 4 0  29.25 4 0  30 4 0  30.75 4 0  31.5 4 0  32.25 4 0  33 4 0  33.75 4 0  34.5 4 0  35.25 4 0  36 4 0  36.75 4 0  37.5 4 0  38.25 4 0  39 4 0  39.75 4 0  40.5 4 0  41.25 4 0  42 4 0  42.75 4 0  43.5 4 0  44.25 4 0  45 4 0  45.75 4 0  46.5 4 0  47.25 4 0  48 4 0  48.75 4 0  49.5 4 0  50.25 4 0  51 4 0  51.75 4 0  52.5 4 0  53.25 4 0  54 4 0  54.75 4 0  55.5 4 0  56.25 4 0  57 4 0  57.75 4 0  58.5 4 0  59.25 4 0  60 4 0  0.375 0.25 0  1.125 0.25 0  1.875 0.25 0  2.625 0.25 0  3.375 0.25 0  4.125 0.25 0  4.875 0.25 0  5.625 0.25 0  6.375 0.25 0  7.125 0.25 0  7.875 0.25 0  8.625 0.25 0  9.375 0.25 0  10.125 0.25 0  10.875 0.25 0  11.625 0.25 0  12.375 0.25 0  13.125 0.25 0  13.875 0.25 0  14.625 0.25 0  15.375 0.25 0  16.125 0.25 0  16.875 0.25 0  17.625 0.25 0  18.375 0.25 0  19.125 0.25 0  19.875 0.25 0  20.625 0.25 0  21.375 0.25 0  22.125 0.25 0  22.875 0.25 0  23.625 0.25 0  24.375 0.25 0  25.125 0.25 0  25.875 0.25 0  26.625 0.25 0  27.375 0.25 0  28.125 0.25 0  28.875 0.25 0  29.625 0.25 0  30.375 0.25 0  31.125 0.25 0  31.875 0.25 0  32.625 0.25 0  33.375 0.25 0  34.125 0.25 0  34.875 0.25 0  35.625 0.25 0  36.375 0.25 0  37.125 0.25 0  37.875 0.25 0  38.625 0.25 0  39.375 0.25 0  40.125 0.25 0  40.875 0.25 0  41.625 0.25 0  42.375 0.25 0  43.125 0.25 0  43.875 0.25 0  44.625 0.25 0  45.375 0.25 0  46.125 0.25 0  46.875 0.25 0  47.625 0.25 0  48.375 0.25 0  49.125 0.25 0  49.875 0.25 0  50.625 0.25 0  51.375 0.25 0  52.125 0.25 0  52.875 0.25 0  53.625 0.25 0  54.375 0.25 0  55.125 0.25 0  55.875 0.25 0  56.625 0.25 0  57.375 0.25 0  58.125 0.25 0  58.875 0.25 0  59.625 0.25 0  0.375 0.75 0  1.125 0.75 0  1.875 0.75 0  2.625 0.75 0  3.375 0.75 0  4.125 0.75 0  4.875 0.75 0  5.625 0.75 0  6.375 0.75 0  7.125 0.75 0  7.875 0.75 0  8.625 0.75 0  9.375 0.75 0  10.125 0.75 0  10.875 0.75 0  11.625 0.75 0  12.375 0.75 0  13.125 0.75 0  13.875 0.75 0  14.625 0.75 0  15.375 0.75 0  16.125 0.75 0  16.875 0.75 0  17.625 0.75 0  18.375 0.75 0  19.125 0.75 0  19.875 0.75 0  20.625 0.75 0  21.375 0.75 0  22.125 0.75 0  22.875 0.75 0  23.625 0.75 0  24.375 0.75 0  25.125 0.75 0  25.875 0.75 0  26.625 0.75 0  27.375 0.75 0  28.125 0.75 0  28.875 0.75 0  29.625 0.75 0  30.375 0.75 0  31.125 0.75 0  31.875 0.75 0  32.625 0.75 0  33.375 0.75 0  34.125 0.75 0  34.875 0.75 0  35.625 0.75 0  36.375 0.75 0  37.125 0.75 0  37.875 0.75 0  38.625 0.75 0  39.375 0.75 0  40.125 0.75 0  40
[...]
<PointData  Scalars="f_8-1"> 
<DataArray  type="Float64"  Name="f_8-1"  format="ascii">1.1411001297850987e+01  1.1271456306398987e+01  1.1126472227140466e+01  1.0984988484157002e+01  1.0841865935460834e+01  1.0699424499023188e+01  1.0556687473314971e+01  1.0414064785962299e+01  1.0271398862181229e+01  1.0128747903511481e+01  9.9860917128158260e+00  9.8434371839714672e+00  9.7007821236108480e+00  9.5581272579237169e+00  9.4154723688798256e+00  9.2728175201179965e+00  9.1301626841358576e+00  8.9875078601673533e+00  8.8448530408654289e+00  8.7021982229701251e+00  8.5595434040600420e+00  8.4168885830845497e+00  8.2742337596961146e+00  8.1315789339878997e+00  7.9889241062099812e+00  7.8462692766238833e+00  7.7036144454295110e+00  7.5609596127508061e+00  7.4183047786449325e+00  7.2756499431264414e+00  7.1329951061909780e+00  6.9903402678262738e+00  6.8476854280118440e+00  6.7050305867233186e+00  6.5623757439467871e+00  6.4197208996878024e+00  6.2770660539624483e+00  6.1344112067800678e+00  5.9917563581366560e+00  5.8491015080279398e+00  5.7064466564687697e+00  5.5637918034986713e+00  5.4211369491686527e+00  5.2784820935180568e+00  5.1358272365608224e+00  4.9931723782878779e+00  4.8505175186822109e+00  4.7078626577348857e+00  4.5652077954521122e+00  4.4225529318519099e+00  4.2798980669538329e+00  4.1372432007700954e+00  3.9945883332992245e+00  3.8519334645291989e+00  3.7092785944382420e+00  3.5666237230039375e+00  3.4239688502025021e+00  3.2813139760123060e+00  3.1386591004150834e+00  2.9960042233774065e+00  2.8533493448847360e+00  2.7106944648253064e+00  2.5680395831158793e+00  2.4253846991222932e+00  2.2827298117300741e+00  2.1400749168132673e+00  1.9974200058698921e+00  1.8547650548326671e+00  1.7121100074411479e+00  1.5694547182405036e+00  1.4267988963363654e+00  1.2841420442006983e+00  1.1414835617203110e+00  9.9882316511483982e-01  8.5616220999813486e-01  7.1350375198589688e-01  5.7085285871585401e-01  4.2822169488909567e-01  2.8564810081279923e-01  1.4322339640042023e-01  3.0185684596283216e-03  1.1413145456246435e+01  1.1270288146275131e+01  1.1127319091482802e+01  1.0984688386804711e+01  1.0842091613450966e+01  1.0699404652219721e+01  1.0556772037522544e+01  1.0414107395986312e+01  1.0271457330392479e+01  1.0128800717505776e+01  9.9861465567930612e+00  9.8434914285203128e+00  9.7008366351198205e+00  9.5581817428920122e+00  9.4155269057287256e+00  9.2728720714304931e+00  9.1302172511667958e+00  8.9875624352493144e+00  8.8449076214964588e+00  8.7022528069385654e+00  8.5595979903163446e+00  8.4169431710107698e+00  8.2742883489850936e+00  8.1316335244515177e+00  7.9889786977053969e+00  7.8463238690150314e+00  7.7036690385829969e+00  7.5610142065397090e+00  7.4183593729575401e+00  7.2757045378735894e+00  7.1330497013064242e+00  6.9903948632590245e+00  6.8477400237196555e+00  6.7050851826738151e+00  6.5624303401204038e+00  6.4197754960736635e+00  6.2771206505477899e+00  6.1344658035429669e+00  5.9918109550497638e+00  5.8491561050688832e+00  5.7065012536266329e+00  5.5638464007703661e+00  5.4211915465480356e+00  5.2785366909877593e+00  5.1358818340923342e+00  4.9932269758500327e+00  4.8505721162515174e+00  4.7079172553015285e+00  4.5652623930189273e+00  4.4226075294281806e+00  4.2799526645481132e+00  4.1372977983852364e+00  3.9946429309318292e+00  3.8519880621711282e+00  3.7093331920807593e+00  3.5666783206396326e+00  3.4240234478274565e+00  3.2813685736264491e+00  3.1387136980189547e+00  2.9960588209773320e+00  2.8534039424705582e+00  2.7107490624045849e+00  2.5680941806685693e+00  2.4254392969013350e+00  2.2827844105065949e+00  2.1401295188578446e+00  1.9974746131977428e+00  1.8548196630578280e+00  1.7121645888584491e+00  1.5695092044956778e+00  1.4268531336217058e+00  1.2841957375370472e+00  1.1415364942052002e+00  9.9887591061239955e-01  8.5621581938058655e-01  7.1355878055187583e-01  5.7090941153734664e-01  4.2827748830764528e-01  2.8568837874856312e-01  1.4324920758850684e-01  1.1320609627544301e-04  1.1412550109859930e+01  1.1270305188856002e+01  1.1127385093659303e+01  1.0984794947616230e+01  1.0842103281166329e+01  1.0699466395099790e+01  1.0556803132203500e+01  1.0414152896010911e+01  1.0271496316881613e+01  1.0128842347660587e+01  9.9861872223306065e+00  9.8435325126339990e+00  9.7008776463471396e+00  9.5582228439389016e+00  9.4155680297180897e+00  9.2729132266768470e+00  9.1302584232005959e+00  8.9876036194597724e+00  8.8449488128718308e+00  8.7022940028084577e+00  8.5596391889380623e+00  8.4169843714706492e+00  8.2743295508125154e+00  8.1316747274201973e+00  7.9890199016826999e+00  7.8463650738912456e+00  7.7037102442486054e+00  7.5610554128813225e+00  7.4184005798638317e+00  7.2757457452495586e+00  7.1330909090831707e+00  6.9904360713856049e+00  6.8477812321480966e+00  6.7051263913583963e+00  6.5624715490305139e+00  6.4198167051992066e+00  6.2771618598853864e+00  6.1345070130753703e+00  5.9918521647411245e+00  5.8491973148802510e+00  5.7065424635354818e+00  5.5638876107759270e+00  5.4212327566580774e+00  5.2785779011997134e+00  5.1359230443837491e+00  4.9932681861843209e+00  4.8506133265932601e+00  4.7079584656301448e+00  4.5653036033331746e+00  4.4226487397407430e+00  4.2799938748754753e+00  4.1373390087383397e+00  3.9946841413129386e+00  3.8520292725734753e+00  3.7093744024951691e+00  3.5667195310551656e+00  3.4240646582402841e+00  3.2814097840324941e+00  3.1387549084279516e+00  2.9961000313945014e+00  2.8534451529198979e+00  2.7107902728880826e+00  2.5681353912035805e+00  2.4254805076995409e+00  2.2828256230718651e+00  2.1401707392969769e+00  1.9975158579972581e+00  1.8548609633813382e+00  1.7122059864039685e+00  1.5695507463289580e+00  1.4268948088311679e+00  1.2842371367638528e+00  1.1415765827949798e+00  9.9891441458544272e-01  8.5625370625229635e-01  7.1359585871521103e-01  5.7094368420199515e-01  4.2830053749168268e-01  2.8566555648134900e-01  1.4298084991392304e-01  4.2144788400226141e-05  1.1412712890896115e+01  1.1270068195722040e+01  1.1127442939078007e+01  1.0984741607025374e+01  1.0842096232761785e+01  1.0699432723742392e+01  1.0556780801234837e+01  1.0414124692423137e+01  1.0271470572064356e+01  1.0128815568913625e+01  9.9861608737065275e+00  9.8435060311312679e+00  9.7008512381212419e+00  9.5581964301300051e+00  9.4155416323253416e+00  9.2728868339134873e+00  9.1302320356165509e+00  8.9875772345633322e+00  8.8449224299354459e+00  8.7022676211310461e+00  8.5596128082005034e+00  8.4169579914743977e+00  8.2743031714449184e+00  8.1316483485982403e+00  7.9889935233389515e+00  7.8463386959694823e+00  7.7036838667021064e+00  7.5610290356733172e+00  7.4183742029669295e+00  7.2757193686412434e+00  7.1330645327396187e+00  6.9904096952812571e+00  6.8477548562607389e+00  6.7051000156704781e+00  6.5624451735226312e+00  6.4197903298429155e+00  6.2771354846452816e+00  6.1344806379201353e+00  5.9918257896521174e+00  5.8491709398491398e+00  5.7065160885532906e+00  5.5638612358237536e+00  5.4212063817081004e+00  5.2785515262254457e+00  5.1358966693717543e+00  4.9932418111391863e+00  4.8505869515332600e+00  4.7079320905772271e+00  4.5652772283031995e+00  4.4226223647388672e+00  4.2799674998968982e+00  4.1373126337734103e+00  3.9946577663516440e+00  3.8520028976100646e+00  3.7093480275276249e+00  3.5666931560870414e+00  3.4240382832761425e+00  3.2813834090811995e+00  3.1387285334966952e+00  2.9960736564930408e+00  2.8534187780604170e+00  2.7107638980985027e+00  2.5681090166287706e+00  2.4254541337046840e+00  2.2827992504215100e+00  2.1401443679165415e+00  1.9974894835133112e+00  1.8548345690307366e+00  1.7121795345893933e+00  1.5695241572497549e+00  1.4268679433629623e+00  1.2842099333194561e+00  1.1415494210112478e+00  9.9888774844211470e-01  8.5622745699704239e-01  7.1356972634061644e-01  5.7091562847996513e-01  4.2826276073317676e-01  2.8559589000765218e-01  1.4286606743277427e-01  1.1673891139205046e-05  1.1412654158725246e+01  1.1270072644178683e+01  1.1127404082383148e+01  1.0984744780032292e+01  1.0842077072910500e+01  1.0699423376924688e+01  1.0556766477528383e+01  1.0414112351050049e+01  1.0271457335895301e+01  1.0128802695076214e+01  9.9861478615111636e+00  9.8434930771515976e+00  9.7008382654713152e+00  9.5581834653381357e+00  9.4155286648947936e+00  9.2728738670848259e+00  9.1302190682216935e+00  8.9875642670732567e+00  8.8449094623197677e+00  8.7022546535312522e+00  8.5595998406956859e+00  8.4169450241332218e+00  8.2742902042905477e+00  8.1316353816275608e+00  7.9889805565430647e+00  7.8463257293470887e+00  7.7036709002603008e+00  7.5610160694278017e+00  7.4183612369379253e+00  7.2757064028396945e+00  7.1330515671568602e+00  6.9903967298981184e+00  6.8477418910641097e+00  6.7050870506523106e+00  6.5624322086604439e+00  6.4197773650888124e+00  6.2771225199420648e+00  6.1344676732303531e+00  5.9918128249697755e+00  5.8491579751823846e+00  5.7065031238955228e+00  5.5638482711405963e+00  5.4211934169511862e+00  5.2785385613609499e+00  5.1358837044014347e+00  4.9932288461000160e+00  4.8505739864785751e+00  4.7079191255524080e+00  4.5652642633303859e+00  4.4226093998149754e+00  4.2799545350036317e+00  4.1372996688893080e+00  3.9946448014625351e+00  3.8519899327115823e+00  3.7093350626245862e+00  3.5666801911896600e+00  3.4240253183948703e+00  3.2813704442316136e+00  3.1387155686837866e+00  2.9960606917448152e+00  2.8534058133665043e+00  2.7107509335404951e+00  2.5680960522074594e+00  2.4254411697195049e+00  2.2827862866298547e+00  2.1401314032464627e+00  1.9974765112678798e+00  1.8548215748175012e+00  1.7121664858301164e+00  1.5695109954442794e+00  1.4268545797040353e+00  1.2841964463324211e+00  1.1415362144817347e+00  9.9887505642630237e-01  8.5621502290342100e-01  7.1355748773802452e-01  5.7090260125567949e-01  4.2824605706951197e-01  2.8556895103375296e-01  1.4283030793012280e-01  8.8489390980732398e-06  1.1412712901865204e+01  1.1270068214450696e+01  1.1127442951118660e+01  1.0984741607314019e+01  1.0842096236276783e+01  1.0699432725619076e+01  1.0556780804540836e+01  1.0414124695519865e+01  1.0271470575397229e+01  1.0128815571944985e+01  9.9861608765191860e+00  9.8435060337039193e+00  9.7008512405237912e+00  9.5581964323562776e+00  9.4155416343674077e+00  9.2728868357821170e+00  9.1302320373287156e+00  8.9875772361131503e+00  8.8449224313176238e+00  8.7022676223849160e+00  8.5596128094147570e+00  8.4169579927443454e+00  8.2743031728321306e+00  8.1316483501340446e+00  7.9889935250537798e+00  7.8463386979068277e+00  7.7036838689148706e+00  7.5610290382224568e+00  7.4183742059140290e+00  7.2757193720224231e+00  7.1330645365468213e+00  6.9904096994816953e+00  6.8477548608312073e+00  6.7051000205959470e+00  6.5624451787578195e+00  6.4197903352906671e+00  6.2771354901891732e+00  6.1344806434827612e+00  5.9918257952189320e+00  5.8491709454340519e+00  5.7065160941412811e+00  5.5638612413449984e+00  5.4212063870657987e+00  5.2785515313529228e+00  5.1358966742743455e+00  4.9932418158935077e+00  4.8505869562488986e+00  4.7079320953482569e+00  4.5652772331766434e+00  4.4226223697114140e+00  4.2799675049336434e+00  4.1373126388333556e+00  3.9946577714068479e+00  3.8520029026527047e+00  3.7093480325671568e+00  3.5666931611429713e+00  3.4240382883717779e+00  3.2813834142410876e+00  3.1387285387477339e+00  2.9960736618678383e+00  2.8534187836012941e+00  2.7107639038608049e+00  2.5681090226828349e+00  2.4254541401357521e+00  2.2827992573258475e+00  2.1401443753888039e+00  1.9974894916113943e+00  1.8548345776903215e+00  1.7121795434647871e+00  1.5695241655478229e+00  1.4268679499754182e+00  1.2842099377091407e+00  1.1415494245054312e+00  9.9888775348655734e-01  8.5622746456325460e-01  7.1356973891906117e-01  5.7091565347908824e-01  4.2826280882511542e-01  2.8559597037650974e-01  1.4286615758112517e-01  1.1680776279153863e-05  1.1412550065209619e+01  1.1270305285412137e+01  1.1127385094240553e+01  1.0984794963342116e+01  1.0842103288062313e+01  1.0699466407420932e+01  1.0556803142039492e+01  1.0414152907892992e+01  1.0271496327761012e+01  1.0128842358560222e+01  9.9861872325468486e+00  9.8435325224401602e+00  9.7008776557217189e+00  9.5582228529280275e+00  9.4155680383044640e+00  9.2729132348845305e+00  9.1302584310589818e+00  8.9876036269714170e+00  8.8449488200368744e+00  8.7022940096867600e+00  8.5596391956635003e+00  8.4169843781976912e+00  8.2743295576570084e+00  8.1316747344557871e+00  7.9890199089774248e+00  7.8463650815297648e+00  7.7037102523295564e+00  7.5610554215153352e+00  7.4184005891638023e+00  7.2757457552945910e+00  7.1330909198883150e+00  6.9904360829220193e+00  6.8477812443895694e+00  6.7051264042848517e+00  6.5624715625784953e+00  6.4198167192278150e+00  6.2771618742146780e+00  6.1345070275680245e+00  5.9918521793447708e+00  5.8491973295894546e+00  5.7065424783135548e+00  5.5638876255115104e+00  5.4212327711957755e+00  5.2785779154184560e+00  5.1359230582624482e+00  4.9932681998112303e+00  4.8506133401188727e+00  4.7079584791981359e+00  4.5653036170290795e+00  4.4226487535784917e+00  4.2799938888176658e+00  4.1373390227305444e+00  3.9946841553130628e+00  3.8520292865655348e+00  3.7093744164887781e+00  3.5667195450771212e+00  3.4240646723261001e+00  3.2814097982222310e+00  3.1387549227672689e+00  2.9961000459391660e+00  2.8534451677418962e+00  2.7107902880808954e+00  2.5681354068857845e+00  2.4254805240149286e+00  2.2828256401832565e+00  2.1401707573664637e+00  1.9975158771333956e+00  1.8548609835163068e+00  1.7122060070660827e+00  1.5695507663937245e+00  1.4268948266605137e+00  1.2842371513842628e+00  1.1415765957879209e+00  9.9891442963990407e-01  8.5625372580026438e-01  7.1359588770885318e-01  5.7094373618671979e-01  4.2830063469209301e-01  2.8566573118938221e-01  1.4298108243106608e-01  4.2198073492601807e-05  1.1413145609553375e+01  1.1270288338093065e+01  1.1127319098440310e+01  1.0984688439050064e+01  1.0842091672444202e+01  1.0699404698899386e+01  1.0556772094209263e+01  1.0414107446700971e+01  1.0271457383309462e+01  1.0128800768736191e+01  9.9861466076797125e+00  9.8434914785233030e+00  9.7008366844491700e+00  9.5581817915226406e+00  9.4155269536988619e+00  9.2728721187619172e+00  9.1302172978947578e+00  8.9875624814016284e+00  8.8449076671045201e+00  8.7022528520668239e+00  8.5595980350789169e+00  8.4169432155533883e+00  8.2742883934515010e+00  8.1316335689680184e+00  7.9889787423901852e+00  7.8463239139923600e+00  7.7036690839876822e+00  7.5610142525150499e+00  7.4183594196460891e+00  7.2757045853961095e+00  7.1330497497413079e+00  6.9903949126423583e+00  6.8477400740625880e+00  6.7050852339679876e+00  6.5624303923186869e+00  6.4197755490715158e+00  6.2771207041977064e+00  6.1344658576984763e+00  5.9918110096008901e+00  5.8491561599374995e+00  5.7065013087291856e+00  5.5638464559870426e+00  5.4211916017290553e+00  5.2785367459960106e+00  5.1358818888519053e+00  4.9932270303688462e+00  4.8505721706059575e+00  4.7079173095953983e+00  4.5652624473409311e+00  4.4226075838271468e+00  4.2799527190314697e+00  4.1372978529342896e+00  3.9946429855219194e+00  3.8519881167865124e+00  3.7093332467218509e+00  3.5666783753226565e+00  3.4240235025815742e+00  3.2813686284914314e+00  3.1387137530454594e+00  2.9960588762298759e+00  2.8534039980321340e+00  2.7107491183815275e+00  2.5680942371939586e+00  2.4254393541348467e+00  2.2827844686263377e+00  2.1401295780362943e+00  1.9974746735461884e+00  1.8548197245224132e+00  1.7121646510660908e+00  1.5695092666369974e+00  1.4268531945990444e+00  1.2841957966720705e+00  1.1415365522855099e+00  9.9887597020148311e-01  8.5621588444628438e-01  7.1355885873620317e-01  5.7090951937265710e-01  4.2827765852007815e-01  2.8568867873623338e-01  1.4324984986299774e-01  1.1333678305932538e-04  1.1411000631307797e+01  1.1271457140572062e+01  1.1126471890374846e+01  1.0984988775100026e+01  1.0841865944056247e+01  1.0699424630790125e+01  1.0556687556490543e+01  1.0414064885164475e+01  1.0271398955225321e+01  1.0128747997303432e+01  9.9860918051352670e+00  9.8434372753788608e+00  9.7007822139722037e+00  9.5581273473292043e+00  9.4154724573551754e+00  9.2728176077008548e+00  9.1301627708705695e+00  8.9875079460999263e+00  8.8448531260382808e+00  8.7021983074457960e+00  8.5595434879492842e+00  8.4168886665470914e+00  8.2742338429113342e+00  8.1315790171271800e+00  7.9889241894334049e+00  7.8462693600936202e+00  7.7036145293176430e+00  7.5609596972387934e+00  7.4183048639178191e+00  7.2756500293571946e+00  7.1329951935161713e+00  6.9903403563317408e+00  6.8476855177408904e+00  6.7050306776896234e+00  6.5623758361261837e+00  6.4197209929962931e+00  6.2770661482533470e+00  6.1344113018769928e+00  5.9917564538792263e+00  5.8491016042907438e+00  5.7064467531390850e+00  5.5637919004408261e+00  5.4211370462107169e+00  5.2784821904800490e+00  5.1358273333049826e+00  4.9931724747593735e+00  4.8505176149146347e+00  4.7078627538210842e+00  4.5652078914986669e+00  4.4225530279409337e+00  4.2798981631253783e+00  4.1372432970267914e+00  3.9945884296234540e+00  3.8519335609012852e+00  3.7092786908501916e+00  3.5666238194643300e+00  3.4239689467367707e+00  3.2813140726610439e+00  3.1386591972335531e+00  2.9960043204376356e+00  2.8533494422796570e+00  2.7106945626742736e+00  2.5680396815692279e+00  2.4253847983633143e+00  2.2827299119691116e+00  2.1400750182678956e+00  1.9974201087159120e+00  1.8547651591165408e+00  1.7121101129406784e+00  1.5694548243293718e+00  1.4267990019677754e+00  1.2841421483260373e+00  1.1414836642710271e+00  9.9882326810144062e-01  8.5616231774514373e-01  7.1350387233018164e-01  5.7085300861311372e-01  4.2822190952378480e-01  2.8564845788464677e-01  1.4322406026266429e-01  3.0225344921260494e-03  1.1342987189116160e+01  1.1198623654069078e+01  1.1056110578738606e+01  1.0913454017553471e+01  1.0770823818667337e+01  1.0628168549810807e+01  1.0485515435816376e+01  1.0342861054665027e+01  1.0200206252199697e+01  1.0057551481199317e+01  9.9148965619056444e+00  9.7722416674241899e+00  9.6295867687144927e+00  9.4869318960065048e+00  9.3442770425741610e+00  9.2016222066227407e+00  9.0589673816991834e+00  8.9163125628728075e+00  8.7736577461376193e+00  8.6310029289647474e+00  8.4883481099491682e+00  8.3456932885262773e+00  8.2030384646373129e+00  8.0603836384724428e+00  7.9177288102905878e+00  7.7750739803229436e+00  7.6324191487355844e+00  7.4897643156282063e+00  7.3471094810494746e+00  7.2044546450170008e+00  7.0617998075315489e+00  6.9191449685830611e+00  6.7764901281554879e+00  6.6338352862364145e+00  6.4911804428255415e+00  6.3485255979325759e+00  6.2058707515665663e+00  6.0632159037285653e+00  5.9205610544173757e+00  5.7779062036434690e+00  5.6352513514367466e+00  5.4925964978401831e+00  5.3499416428932252e+00  5.2072867866175354e+00  5.0646319290148289e+00  4.9219770700762089e+00  4.7793222097954411e+00  4.6366673481770979e+00  4.4940124852362713e+00  4.3513576209911040e+00  4.2087027554549348e+00  4.0660478886297975e+00  3.9233930205073668e+00  3.7807381510697500e+00  3.6380832802967182e+00  3.4954284081655409e+00  3.3527735346568890e+00  3.2101186597493965e+00  3.0674637834196079e+00  2.9248089056369708e+00  2.7821540263405211e+00  2.6394991454542569e+00  2.4968442627247343e+00  2.3541893775567964e+00  2.2115344873602512e+00  2.0688795842476897e+00  1.9262246443907469e+00  1.7835696107894021e+00  1.6409143525621177e+00  1.4982586100452704e+00  1.3556019511861597e+00  1.2129439574563288e+00  1.0702845783136319e+00  9.2762456876237853e-01  7.8496594161668665e-01  6.4231267515437263e-01  4.9967225367768908e-01  3.5706572021354183e-01  2.1455586947776395e-01  7.2538551452131367e-02  1.1340938387753951e+01  1.1198830403315451e+01  1.1055953537875887e+01  1.0913355481805530e+01  1.0770665205866225e+01  1.0628030468479157e+01  1.0485368617162695e+01  1.0342717022668024e+01  1.0200061296196708e+01  1.0057406843426335e+01  9.9147519000534903e+00  9.7720970912630456e+00  9.6294422441114289e+00  9.4867874204582741e+00  9.3441326022111735e+00  9.2014777913127048e+00  9.0588229828708613e+00  8.9161681745129595e+00  8.7735133642346455e+00  8.6308585510516878e+00  8.488203734608468