<?xml version="1.0"?>
<VTKFile type="UnstructuredGrid"  version="0.1"  >
<UnstructuredGrid>
<Piece  NumberOfPoints="1369" NumberOfCells="2560">
<Points>
<DataArray  type="Float64"  NumberOfComponents="3"  format="ascii">0 0 0  0.75 0 0  1.5 0 0  2.25 0 0  3 0 0  3.75 0 0  4.5 0 0  5.25 0 0  6 0 0  6.75 0 0  7.5 0 0  8.25 0 0  9 0 0  9.75 0 0  10.5 0 0  11.25 0 0  12 0 0  12.75 0 0  13.5 0 0  14.25 0 0  15 0 0  15.75 0 0  16.5 0 0  17.25 0 0  18 0 0  18.75 0 0  19.5 0 0  20.25 0 0  21 0 0  21.75 0 0  22.5 0 0  23.25 0 0  24 0 0  24.75 0 0  25.5 0 0  26.25 0 0  27 0 0  27.75 0 0  28.5 0 0  29.25 0 0  30 0 0  30.75 0 0  31.5 0 0  32.25 0 0  33 0 0  33.75 0 0  34.5 0 0  35.25 0 0  36 0 0  36.75 0 0  37.5 0 0  38.25 0 0  39 0 0  39.75 0 0  40.5 0 0  41.25 0 0  42 0 0  42.75 0 0  43.5 0 0  44.25 0 0  45 0 0  45.75 0 0  46.5 0 0  47.25 0 0  48 0 0  48.75 0 0  49.5 0 0  50.25 0 0  51 0 0  51.75 0 0  52.5 0 0  53.25 0 0  54 0 0  54.75 0 0  55.5 0 0  56.25 0 0  57 0 0  57.75 0 0  58.5 0 0  59.25 0 0  60 0 0  0 0.5 0  0.75 0.5 0  1.5 0.5 0  2.25 0.5 0  3 0.5 0  3.75 0.5 0  4.5 0.5 0  5.25 0.5 0  6 0.5 0  6.75 0.5 0  7.5 0.5 0  8.25 0.5 0  9 0.5 0  9.75 0.5 0  10.5 0.5 0  11.25 0.5 0  12 0.5 0  12.75 0.5 0  13.5 0.5 0  14.25 0.5 0  15 0.5 0  15.75 0.5 0  16.5 0.5 0  17.25 0.5 0  18 0.5 0  18.75 0.5 0  19.5 0.5 0  20.25 0.5 0  21 0.5 0  21.75 0.5 0  22.5 0.5 0  23.25 0.5 0  24 0.5 0  24.75 0.5 0  25.5 0.5 0  26.25 0.5 0  27 0.5 0  27.75 0.5 0  28.5 0.5 0  29.25 0.5 0  30 0.5 0  30.75 0.5 0  31.5 0.5 0  32.25 0.5 0  33 0.5 0  33.75 0.5 0  34.5 0.5 0  35.25 0.5 0  36 0.5 0  36.75 0.5 0  37.5 0.5 0  38.25 0.5 0  39 0.5 0  39.75 0.5 0  40.5 0.5 0  41.25 0.5 0  42 0.5 0  42.75 0.5 0  43.5 0.5 0  44.25 0.5 0  45 0.5 0  45.75 0.5 0  46.5 0.5 0  47.25 0.5 0  48 0.5 0  48.75 0.5 0  49.5 0.5 0  50.25 0.5 0  51 0.5 0  51.75 0.5 0  52.5 0.5 0  53.25 0.5 0  54 0.5 0  54.75 0.5 0  55.5 0.5 0  56.25 0.5 0  57 0.5 0  57.75 0.5 0  58.5 0.5 0  59.25 0.5 0  60 0.5 0  0 1 0  0.75 1 0  1.5 1 0  2.25 1 0  3 1 0  3.75 1 0  4.5 1 0  5.25 1 0  6 1 0  6.75 1 0  7.5 1 0  8.25 1 0  9 1 0  9.75 1 0  10.5 1 0  11.25 1 0  12 1 0  12.75 1 0  13.5 1 0  14.25 1 0  15 1 0  15.75 1 0  16.5 1 0  17.25 1 0  18 1 0  18.75 1 0  19.5 1 0  20.25 1 0  21 1 0  21.75 1 0  22.5 1 0  23.25 1 0  24 1 0  24.75 1 0  25.5 1 0  26.25 1 0  27 1 0  27.75 1 0  28.5 1 0  29.25 1 0  30 1 0  30.75 1 0  31.5 1 0  32.25 1 0  33 1 0  33.75 1 0  34.5 1 0  35.25 1 0  36 1 0  36.75 1 0  37.5 1 0  38.25 1 0  39 1 0  39.75 1 0  40.5 1 0  41.25 1 0  42 1 0  42.75 1 0  43.5 1 0  44.25 1 0  45 1 0  45.75 1 0  46.5 1 0  47.25 1 0  48 1 0  48.75 1 0  49.5 1 0  50.25 1 0  51 1 0  51.75 1 0  52.5 1 0  53.25 1 0  54 1 0  54.75 1 0  55.5 1 0  56.25 1 0  57 1 0  57.75 1 0  58.5 1 0  59.25 1 0  60 1 0  0 1.5 0  0.75 1.5 0  1.5 1.5 0  2.25 1.5 0  3 1.5 0  3.75 1.5 0  4.5 1.5 0  5.25 1.5 0  6 1.5 0  6.75 1.5 0  7.5 1.5 0  8.25 1.5 0  9 1.5 0  9.75 1.5 0  10.5 1.5 0  11.25 1.5 0  12 1.5 0  12.75 1.5 0  13.5 1.5 0  14.25 1.5 0  15 1.5 0  15.75 1.5 0  16.5 1.5 0  17.25 1.5 0  18 1.5 0  18.75 1.5 0  19.5 1.5 0  20.25 1.5 0  21 1.5 0  21.75 1.5 0  22.5 1.5 0  23.25 1.5 0  24 1.5 0  24.75 1.5 0  25.5 1.5 0  26.25 1.5 0  27 1.5 0  27.75 1.5 0  28.5 1.5 0  29.25 1.5 0  30 1.5 0  30.75 1.5 0  31.5 1.5 0  32.25 1.5 0  33 1.5 0  33.75 1.5 0  34.5 1.5 0  35.25 1.5 0  36 1.5 0  36.75 1.5 0  37.5 1.5 0  38.25 1.5 0  39 1.5 0  39.75 1.5 0  40.5 1.5 0  41.25 1.5 0  42 1.5 0  42.75 1.5 0  43.5 1.5 0  44.25 1.5 0  45 1.5 0  45.75 1.5 0  46.5 1.5 0  47.25 1.5 0  48 1.5 0  48.75 1.5 0  49.5 1.5 0  50.25 1.5 0  51 1.5 0  51.75 1.5 0  52.5 1.5 0  53.25 1.5 0  54 1.5 0  54.75 1.5 0  55.5 1.5 0  56.25 1.5 0  57 1.5 0  57.75 1.5 0  58.5 1.5 0  59.25 1.5 0  60 1.5 0  0 2 0  0.75 2 0  1.5 2 0  2.25 2 0  3 2 0  3.75 2 0  4.5 2 0  5.25 2 0  6 2 0  6.75 2 0  7.5 2 0  8.25 2 0  9 2 0  9.75 2 0  10.5 2 0  11.25 2 0  12 2 0  12.75 2 0  13.5 2 0  14.25 2 0  15 2 0  15.75 2 0  16.5 2 0  17.25 2 0  18 2 0  18.75 2 0  19.5 2 0  20.25 2 0  21 2 0  21.75 2 0  22.5 2 0  23.25 2 0  24 2 0  24.75 2 0  25.5 2 0  26.25 2 0  27 2 0  27.75 2 0  28.5 2 0  29.25 2 0  30 2 0  30.75 2 0  31.5 2 0  32.25 2 0  33 2 0  33.75 2 0  34.5 2 0  35.25 2 0  36 2 0  36.75 2 0  37.5 2 0  38.25 2 0  39 2 0  39.75 2 0  40.5 2 0  41.25 2 0  42 2 0  42.75 2 0  43.5 2 0  44.25 2 0  45 2 0  45.75 2 0  46.5 2 0  47.25 2 0  48 2 0  48.75 2 0  49.5 2 0  50.25 2 0  51 2 0  51.75 2 0  52.5 2 0  53.25 2 0  54 2 0  54.75 2 0  55.5 2 0  56.25 2 0  57 2 0  57.75 2 0  58.5 2 0  59.25 2 0  60 2 0  0 2.5 0  0.75 2.5 0  1.5 2.5 0  2.25 2.5 0  3 2.5 0  3.75 2.5 0  4.5 2.5 0  5.25 2.5 0  6 2.5 0  6.75 2.5 0  7.5 2.5 0  8.25 2.5 0  9 2.5 0  9.75 2.5 0  10.5 2.5 0  11.25 2.5 0  12 2.5 0  12.75 2.5 0  13.5 2.5 0  14.25 2.5 0  15 2.5 0  15.75 2.5 0  16.5 2.5 0  17.25 2.5 0  18 2.5 0  18.75 2.5 0  19.5 2.5 0  20.25 2.5 0  21 2.5 0  21.75 2.5 0  22.5 2.5 0  23.25 2.5 0  24 2.5 0  24.75 2.5 0  25.5 2.5 0  26.25 2.5 0  27 2.5 0  27.75 2.5 0  28.5 2.5 0  29.25 2.5 0  30 2.5 0  30.75 2.5 0  31.5 2.5 0  32.25 2.5 0  33 2.5 0  33.75 2.5 0  34.5 2.5 0  35.25 2.5 0  36 2.5 0  36.75 2.5 0  37.5 2.5 0  38.25 2.5 0  39 2.5 0  39.75 2.5 0  40.5 2.5 0  41.25 2.5 0  42 2.5 0  42.75 2.5 0  43.5 2.5 0  44.25 2.5 0  45 2.5 0  45.75 2.5 0  46.5 2.5 0  47.25 2.5 0  48 2.5 0  48.75 2.5 0  49.5 2.5 0  50.25 2.5 0  51 2.5 0  51.75 2.5 0  52.5 2.5 0  53.25 2.5 0  54 2.5 0  54.75 2.5 0  55.5 2.5 0  56.25 2.5 0  57 2.5 0  57.75 2.5 0  58.5 2.5 0  59.25 2.5 0  60 2.5 0  0 3 0  0.75 3 0  1.5 3 0  2.25 3 0  3 3 0  3.75 3 0  4.5 3 0  5.25 3 0  6 3 0  6.75 3 0  7.5 3 0  8.25 3 0  9 3 0  9.75 3 0  10.5 3 0  11.25 3 0  12 3 0  12.75 3 0  13.5 3 0  14.25 3 0  15 3 0  15.75 3 0  16.5 3 0  17.25 3 0  18 3 0  18.75 3 0  19.5 3 0  20.25 3 0  21 3 0  21.75 3 0  22.5 3 0  23.25 3 0  24 3 0  24.75 3 0  25.5 3 0  26.25 3 0  27 3 0  27.75 3 0  28.5 3 0  29.25 3 0  30 3 0  30.75 3 0  31.5 3 0  32.25 3 0  33 3 0  33.75 3 0  34.5 3 0  35.25 3 0  36 3 0  36.75 3 0  37.5 3 0  38.25 3 0  39 3 0  39.75 3 0  40.5 3 0  41.25 3 0  42 3 0  42.75 3 0  43.5 3 0  44.25 3 0  45 3 0  45.75 3 0  46.5 3 0  47.25 3 0  48 3 0  48.75 3 0  49.5 3 0  50.25 3 0  51 3 0  51.75 3 0  52.5 3 0  53.25 3 0  54 3 0  54.75 3 0  55.5 3 0  56.25 3 0  57 3 0  57.75 3 0  58.5 3 0  59.25 3 0  60 3 0  0 3.5 0  0.75 3.5 0  1.5 3.5 0  2.25 3.5 0  3 3.5 0  3.75 3.5 0  4.5 3.5 0  5.25 3.5 0  6 3.5 0  6.75 3.5 0  7.5 3.5 0  8.25 3.5 0  9 3.5 0  9.75 3.5 0  10.5 3.5 0  11.25 3.5 0  12 3.5 0  12.75 3.5 0  13.5 3.5 0  14.25 3.5 0  15 3.5 0  15.75 3.5 0  16.5 3.5 0  17.25 3.5 0  18 3.5 0  18.75 3.5 0  19.5 3.5 0  20.25 3.5 0  21 3.5 0  21.75 3.5 0  22.5 3.5 0  23.25 3.5 0  24 3.5 0  24.75 3.5 0  25.5 3.5 0  26.25 3.5 0  27 3.5 0  27.75 3.5 0  28.5 3.5 0  29.25 3.5 0  30 3.5 0  30.75 3.5 0  31.5 3.5 0  32.25 3.5 0  33 3.5 0  33.75 3.5 0  34.5 3.5 0  35.25 3.5 0  36 3.5 0  36.75 3.5 0  37.5 3.5 0  38.25 3.5 0  39 3.5 0  39.75 3.5 0  40.5 3.5 0  41.25 3.5 0  42 3.5 0  42.75 3.5 0  43.5 3.5 0  44.25 3.5 0  45 3.5 0  45.75 3.5 0  46.5 3.5 0  47.25 3.5 0  48 3.5 0  48.75 3.5 0  49.5 3.5 0  50.25 3.5 0  51 3.5 0  51.75 3.5 0  52.5 3.5 0  53.25 3.5 0  54 3.5 0  54.75 3.5 0  55.5 3.5 0  56.25 3.5 0  57 3.5 0  57.75 3.5 0  58.5 3.5 0  59.25 3.5 0  60 3.5 0  0 4 0  0.75 4 0  1.5 4 0  2.25 4 0  3 4 0  3.75 4 0  4.5 4 0  5.25 4 0  6 4 0  6.75 4 0  7.5 4 0  8.25 4 0  9 4 0  9.75 4 0  10.5 4 0  11.25 4 0  12 4 0  12.75 4 0  13.5 4 0  14.25 4 0  15 4 0  15.75 4 0  16.5 4 0  17.25 4 0  18 4 0  18.75 4 0  19.5 4 0  20.25 4 0  21 4 0  21.75 4 0  22.5 4 0  23.25 4 0  24 4 0  24.75 4 0  25.5 4 0  26.25 4 0  27 4 0  27.75 4 0  28.5 4 0  29.25 4 0  30 4 0  30.75 4 0  31.5 4 0  32.25 4 0  33 4 0  33.75 4 0  34.5 4 0  35.25 4 0  36 4 0  36.75 4 0  37.5 4 0  38.25 4 0  39 4 0  39.75 4 0  40.5 4 0  41.25 4 0  42 4 0  42.75 4 0  43.5 4 0  44.25 4 0  45 4 0  45.75 4 0  46.5 4 0  47.25 4 0  48 4 0  48.75 4 0  49.5 4 0  50.25 4 0  51 4 0  51.75 4 0  52.5 4 0  53.25 4 0  54 4 0  54.75 4 0  55.5 4 0  56.25 4 0  57 4 0  57.75 4 0  58.5 4 0  59.25 4 0  60 4 0  0.375 0.25 0  1.125 0.25 0  1.875 0.25 0  2.625 0.25 0  3.375 0.25 0  4.125 0.25 0  4.875 0.25 0  5.625 0.25 0  6.375 0.25 0  7.125 0.25 0  7.875 0.25 0  8.625 0.25 0  9.375 0.25 0  10.125 0.25 0  10.875 0.25 0  11.625 0.25 0  12.375 0.25 0  13.125 0.25 0  13.875 0.25 0  14.625 0.25 0  15.375 0.25 0  16.125 0.25 0  16.875 0.25 0  17.625 0.25 0  18.375 0.25 0  19.125 0.25 0  19.875 0.25 0  20.625 0.25 0  21.375 0.25 0  22.125 0.25 0  22.875 0.25 0  23.625 0.25 0  24.375 0.25 0  25.125 0.25 0  25.875 0.25 0  26.625 0.25 0  27.375 0.25 0  28.125 0.25 0  28.875 0.25 0  29.625 0.25 0  30.375 0.25 0  31.125 0.25 0  31.875 0.25 0  32.625 0.25 0  33.375 0.25 0  34.125 0.25 0  34.875 0.25 0  35.625 0.25 0  36.375 0.25 0  37.125 0.25 0  37.875 0.25 0  38.625 0.25 0  39.375 0.25 0  40.125 0.25 0  40.875 0.25 0  41.625 0.25 0  42.375 0.25 0  43.125 0.25 0  43.875 0.25 0  44.625 0.25 0  45.375 0.25 0  46.125 0.25 0  46.875 0.25 0  47.625 0.25 0  48.375 0.25 0  49.125 0.25 0  49.875 0.25 0  50.625 0.25 0  51.375 0.25 0  52.125 0.25 0  52.875 0.25 0  53.625 0.25 0  54.375 0.25 0  55.125 0.25 0  55.875 0.25 0  56.625 0.25 0  57.375 0.25 0  58.125 0.25 0  58.875 0.25 0  59.625 0.25 0  0.375 0.75 0  1.125 0.75 0  1.875 0.75 0  2.625 0.75 0  3.375 0.75 0  4.125 0.75 0  4.875 0.75 0  5.625 0.75 0  6.375 0.75 0  7.125 0.75 0  7.875 0.75 0  8.625 0.75 0  9.375 0.75 0  10.125 0.75 0  10.875 0.75 0  11.625 0.75 0  12.375 0.75 0  13.125 0.75 0  13.875 0.75 0  14.625 0.75 0  15.375 0.75 0  16.125 0.75 0  16.875 0.75 0  17.625 0.75 0  18.375 0.75 0  19.125 0.75 0  19.875 0.75 0  20.625 0.75 0  21.375 0.75 0  22.125 0.75 0  22.875 0.75 0  23.625 0.75 0  24.375 0.75 0  25.125 0.75 0  25.875 0.75 0  26.625 0.75 0  27.375 0.75 0  28.125 0.75 0  28.875 0.75 0  29.625 0.75 0  30.375 0.75 0  31.125 0.75 0  31.875 0.75 0  32.625 0.75 0  33.375 0.75 0  34.125 0.75 0  34.875 0.75 0  35.625 0.75 0  36.375 0.75 0  37.125 0.75 0  37.875 0.75 0  38.625 0.75 0  39.375 0.75 0  40.125 0.75 0  40
[...]
<PointData  Scalars="f_8-1"> 
<DataArray  type="Float64"  Name="f_8-1"  format="ascii">-7.0512048587322758e+00  -6.9659058087034804e+00  -6.8757194555004881e+00  -6.7882362120161961e+00  -6.6999750447055924e+00  -6.6119690457705556e+00  -6.5237740004516329e+00  -6.4356168458830822e+00  -6.3474123212040396e+00  -6.2592302217997817e+00  -6.1710501485753344e+00  -6.0828880490258479e+00  -5.9947316238384891e+00  -5.9065808591109787e+00  -5.8184309482779639e+00  -5.7302816827468117e+00  -5.6421323887268535e+00  -5.5539830472244951e+00  -5.4658337638395471e+00  -5.3776844092603211e+00  -5.2895351216755992e+00  -5.2013857827496253e+00  -5.1132364850593861e+00  -5.0250871559868600e+00  -4.9369378481271022e+00  -4.8487885227488672e+00  -4.7606392070800956e+00  -4.6724898818618934e+00  -4.5843405603367957e+00  -4.4961912334077416e+00  -4.4080419071965258e+00  -4.3198925776029435e+00  -4.2317432473259764e+00  -4.1435939146005829e+00  -4.0554445805631092e+00  -3.9672952444871203e+00  -3.8791459068302405e+00  -3.7909965673061046e+00  -3.7028472260914409e+00  -3.6146978830777909e+00  -3.5265485383308168e+00  -3.4383991918109347e+00  -3.3502498435416443e+00  -3.2621004935090561e+00  -3.1739511417212469e+00  -3.0858017881735087e+00  -2.9976524328685228e+00  -2.9095030758047340e+00  -2.8213537169829666e+00  -2.7332043564027124e+00  -2.6450549940641914e+00  -2.5569056299671438e+00  -2.4687562641115464e+00  -2.3806068964970075e+00  -2.2924575271232155e+00  -2.2043081559892004e+00  -2.1161587830936073e+00  -2.0280094084333560e+00  -1.9398600320028418e+00  -1.8517106537907759e+00  -1.7635612737738280e+00  -1.6754118919061858e+00  -1.5872625080889593e+00  -1.4991131221265406e+00  -1.4109637335998264e+00  -1.3228143416779283e+00  -1.2346649446363258e+00  -1.1465155391212378e+00  -1.0583661185206428e+00  -9.7021667066884054e-01  -8.8206717383744315e-01  -7.9391759362943359e-01  -7.0576788329345508e-01  -6.1761800734753869e-01  -5.2946802898428902e-01  -4.4131837472956742e-01  -3.5317063570123564e-01  -2.6502895713927660e-01  -1.7691790412465741e-01  -8.8732022558114382e-02  -3.2088004621894299e-03  -7.0539855509142813e+00  -6.9650782147600623e+00  -6.8762402458677103e+00  -6.7881626661578256e+00  -6.7001174996367476e+00  -6.6119934957718005e+00  -6.5238599219872224e+00  -6.4356721892336237e+00  -6.3474858511206422e+00  -6.2592919719163103e+00  -6.1711171284978104e+00  -6.0829505810286575e+00  -5.9947958224761937e+00  -5.9066437249247494e+00  -5.8184943980958099e+00  -5.7303447962312974e+00  -5.6421956514250082e+00  -5.5540462463902420e+00  -5.4658969750765243e+00  -5.3777476290706785e+00  -5.2895983224892715e+00  -5.2014490040576353e+00  -5.1132996869558527e+00  -5.0251503743469659e+00  -4.9370010530982515e+00  -4.8488517381352825e+00  -4.7607024145611723e+00  -4.6725530951967373e+00  -4.5844037694186737e+00  -4.4962544455276552e+00  -4.4081051171837942e+00  -4.3199557890680707e+00  -4.2318064577851313e+00  -4.1436571257382546e+00  -4.0555077912524116e+00  -3.9673584554718477e+00  -3.8792091176256540e+00  -3.7910597782241586e+00  -3.7029104369337063e+00  -3.6147610939690189e+00  -3.5266117491934077e+00  -3.4384624026926334e+00  -3.3503130544133679e+00  -3.2621637043883367e+00  -3.1740143525976094e+00  -3.0858649990531446e+00  -2.9977156437477976e+00  -2.9095662866857745e+00  -2.8214169278645351e+00  -2.7332675672855116e+00  -2.6451182049478090e+00  -2.5569688408518352e+00  -2.4688194749971450e+00  -2.3806701073837164e+00  -2.2925207380109112e+00  -2.2043713668783620e+00  -2.1162219939841895e+00  -2.0280726193269452e+00  -1.9399232429002851e+00  -1.8517738646977162e+00  -1.7636244846963698e+00  -1.6754751028659087e+00  -1.5873257191174794e+00  -1.4991763333096590e+00  -1.4110269450818897e+00  -1.3228775537969550e+00  -1.2347281579946421e+00  -1.1465787549902908e+00  -1.0584293391680166e+00  -9.7027990046816559e-01  -8.8213042003579878e-01  -7.9398086809213331e-01  -7.0583120202182592e-01  -6.1768138902294301e-01  -5.2953147651955557e-01  -4.4138184370401395e-01  -3.5323381600017473e-01  -2.6509212850335284e-01  -1.7696210464477591e-01  -8.8990997940694649e-02  1.3346519433232769e-04  -7.0531200621655348e+00  -6.9653246812725138e+00  -6.8764006709180840e+00  -6.7883717444636664e+00  -6.7001370945788894e+00  -6.6120704707981011e+00  -6.5238767105426900e+00  -6.4357292487562798e+00  -6.3475227927506364e+00  -6.2593469028101296e+00  -6.1711617705347122e+00  -6.0830015002379589e+00  -5.9948409221746282e+00  -5.9066907722116477e+00  -5.8185390228308833e+00  -5.7303903232689288e+00  -5.6422403613937915e+00  -5.5540913577442783e+00  -5.4659418197032688e+00  -5.3777926115821026e+00  -5.2896432312988528e+00  -5.2014939421977386e+00  -5.1133446176461073e+00  -5.0251952998079910e+00  -4.9370459884857123e+00  -4.8488966620982783e+00  -4.7607473491963308e+00  -4.6725980206185902e+00  -4.5844487023014118e+00  -4.4962993725959741e+00  -4.4081500486376104e+00  -4.3200007173024204e+00  -4.2318513883328954e+00  -4.1437020546612739e+00  -4.0555527212990308e+00  -3.9674033847581520e+00  -3.8792540474212327e+00  -3.7911047076865541e+00  -3.7029553666135535e+00  -3.6148060235112722e+00  -3.5266566788239215e+00  -3.4385073322694431e+00  -3.3503579840246234e+00  -3.2622086339798839e+00  -3.1740592822023515e+00  -3.0859099286512777e+00  -2.9977605733511350e+00  -2.9096112162873289e+00  -2.8214618574684267e+00  -2.7333124968893596e+00  -2.6451631345529978e+00  -2.5570137704576048e+00  -2.4688644046039268e+00  -2.3807150369912708e+00  -2.2925656676192228e+00  -2.2044162964871417e+00  -2.1162669235927472e+00  -2.0281175489337664e+00  -1.9399681725019813e+00  -1.8518187942870286e+00  -1.7636694142584117e+00  -1.6755200323692991e+00  -1.5873706485008208e+00  -1.4992212624475372e+00  -1.4110718737362571e+00  -1.3229224815015288e+00  -1.2347730838943873e+00  -1.1466236774954932e+00  -1.0584742554715185e+00  -9.7032480544449173e-01  -8.8217530416688095e-01  -7.9402571152002077e-01  -7.0587595850103058e-01  -6.1772593492388872e-01  -5.2957545653181270e-01  -4.4142420038999913e-01  -3.5327143875669825e-01  -2.6511494827241411e-01  -1.7694915969004044e-01  -8.8690989558696989e-02  -2.4811674261504862e-05  -7.0536237437329667e+00  -6.9648937435517375e+00  -6.8767444187435194e+00  -6.7882428312690486e+00  -6.7002280563184415e+00  -6.6119687688539894e+00  -6.5238832732860228e+00  -6.4356640142547068e+00  -6.3475131122835418e+00  -6.2593098478332987e+00  -6.1711474239012540e+00  -6.0829720806018797e+00  -5.9948187264763453e+00  -5.9066611706062222e+00  -5.8185121528373482e+00  -5.7303606396759985e+00  -5.6422119290186918e+00  -5.5540619625719767e+00  -5.4659129279516101e+00  -5.3777634088481285e+00  -5.2896141847695430e+00  -5.2014648191432906e+00  -5.1133155191325201e+00  -5.0251662015931329e+00  -4.9370168767777338e+00  -4.8488675679216309e+00  -4.7607182371823535e+00  -4.6725689244270177e+00  -4.5844195929350580e+00  -4.4962702736503104e+00  -4.4081209417286118e+00  -4.3199716163037740e+00  -4.2318222830554513e+00  -4.1436729524176581e+00  -4.0555236169478057e+00  -3.9673742818465803e+00  -3.8792249435433432e+00  -3.7910756044476952e+00  -3.7029262629583095e+00  -3.6147769201234516e+00  -3.5266275752662128e+00  -3.4384782288178686e+00  -3.3503288805069622e+00  -3.2621795305023236e+00  -3.1740301787000829e+00  -3.0858808251634491e+00  -2.9977314698543234e+00  -2.9095821127954307e+00  -2.8214327539732915e+00  -2.7332833933957867e+00  -2.6451340310582627e+00  -2.5569846669633072e+00  -2.4688353011092308e+00  -2.3806859334966077e+00  -2.2925365641243327e+00  -2.2043871929916139e+00  -2.1162378200959115e+00  -2.0280884454328434e+00  -1.9399390689928089e+00  -1.8517896907572069e+00  -1.7636403106868357e+00  -1.6754909287040223e+00  -1.5873415446480927e+00  -1.4991921581999716e+00  -1.4110427687140144e+00  -1.3228933749248619e+00  -1.2347439743493218e+00  -1.1465945622572054e+00  -1.0584451297168291e+00  -9.7029566026044356e-01  -8.8214612368044820e-01  -7.9399646489288456e-01  -7.0584658057264116e-01  -6.1769626441441694e-01  -5.2954505754944992e-01  -4.4139181518491016e-01  -3.5323341372065897e-01  -2.6506104454072210e-01  -1.7684865644149231e-01  -8.8524291242576852e-02  -1.8512966708562523e-05  -7.0533046400438462e+00  -6.9651132277309591e+00  -6.8765532143988404e+00  -6.7884213727897311e+00  -6.7001017412286528e+00  -6.6120422994717556e+00  -6.5238117841711754e+00  -6.4356896523878815e+00  -6.3474764246845456e+00  -6.2593175484109231e+00  -6.1711276775565249e+00  -6.0829702913296471e+00  -5.9948044705953345e+00  -5.9066539395473248e+00  -5.8184997456505849e+00  -5.7303510775197868e+00  -5.6422004034079372e+00  -5.5540515568726780e+00  -5.4659018266253119e+00  -5.3777526943894953e+00  -5.2896032605394590e+00  -5.2014539924412677e+00  -5.1133046574760925e+00  -5.0251553402017404e+00  -4.9370060312707880e+00  -4.8488567004379162e+00  -4.7607073920290093e+00  -4.6725580592568301e+00  -4.5844087444443131e+00  -4.4962594119368031e+00  -4.4081100901328707e+00  -4.3199607571992944e+00  -4.2318114293955782e+00  -4.1436620948999439e+00  -4.0555127621150806e+00  -3.9673634251808951e+00  -3.8792140881103352e+00  -3.7910647481996151e+00  -3.7029154072421466e+00  -3.6147660640653227e+00  -3.5266167194253297e+00  -3.4384673728407313e+00  -3.3503180246142876e+00  -3.2621686745577980e+00  -3.1740193227869593e+00  -3.0858699692313771e+00  -2.9977206139334593e+00  -2.9095712568678960e+00  -2.8214218980496337e+00  -2.7332725374698961e+00  -2.6451231751337554e+00  -2.5569738110381879e+00  -2.4688244451847594e+00  -2.3806750775722305e+00  -2.2925257082005559e+00  -2.2043763370683322e+00  -2.1162269641732498e+00  -2.0280775895103793e+00  -1.9399282130695672e+00  -1.8517788348300304e+00  -1.7636294547490459e+00  -1.6754800727397072e+00  -1.5873306886251253e+00  -1.4991813020497697e+00  -1.4110319123028507e+00  -1.3228825179853416e+00  -1.2347331163784911e+00  -1.1465837023023251e+00  -1.0584342660501660e+00  -9.7028478972672072e-01  -8.8213524053034864e-01  -7.9398555775649493e-01  -7.0583562434599723e-01  -6.1768519589663662e-01  -5.2953370271952571e-01  -4.4137967117715904e-01  -3.5321903847249830e-01  -2.6504036302414341e-01  -1.7681291155065307e-01  -8.8477340209488997e-02  -1.4424911633803072e-05  -7.0536237590663129e+00  -6.9648937137864637e+00  -6.8767443940036621e+00  -6.7882427985255474e+00  -6.7002280621897681e+00  -6.6119687827232543e+00  -6.5238833017110105e+00  -6.4356640392862996e+00  -6.3475131367981721e+00  -6.2593098647624492e+00  -6.1711474345390007e+00  -6.0829720846018107e+00  -5.9948187276789486e+00  -5.9066611707796808e+00  -5.8185121538821365e+00  -5.7303606418306634e+00  -5.6422119324954112e+00  -5.5540619670418954e+00  -5.4659129332648382e+00  -5.3777634147330273e+00  -5.2896141910993837e+00  -5.2014648257674336e+00  -5.1133155259781935e+00  -5.0251662085847126e+00  -4.9370168838771189e+00  -4.8488675750918899e+00  -4.7607182444043206e+00  -4.6725689316829406e+00  -4.5844196002155071e+00  -4.4962702809469084e+00  -4.4081209490367321e+00  -4.3199716236195274e+00  -4.2318222903765976e+00  -4.1436729597423962e+00  -4.0555236242750539e+00  -3.9673742891755230e+00  -3.8792249508734558e+00  -3.7910756117786040e+00  -3.7029262702897592e+00  -3.6147769274552912e+00  -3.5266275825982958e+00  -3.4384782361501456e+00  -3.3503288878393684e+00  -3.2621795378348422e+00  -3.1740301860326929e+00  -3.0858808324961409e+00  -2.9977314771871173e+00  -2.9095821201283418e+00  -2.8214327613063905e+00  -2.7332834007291136e+00  -2.6451340383919582e+00  -2.5569846742975204e+00  -2.4688353084441812e+00  -2.3806859408326555e+00  -2.2925365714619783e+00  -2.2043872003315954e+00  -2.1162378274393001e+00  -2.0280884527812200e+00  -1.9399390763484803e+00  -1.8517896981235251e+00  -1.7636403180687394e+00  -1.6754909361087322e+00  -1.5873415520862695e+00  -1.4991921656873886e+00  -1.4110427762741966e+00  -1.3228933825931499e+00  -1.2347439821793735e+00  -1.1465945703314513e+00  -1.0584451381636453e+00  -9.7029566928267530e-01  -8.8214613360308569e-01  -7.9399647624173086e-01  -7.0584659420132212e-01  -6.1769628171443858e-01  -5.2954508082911322e-01  -4.4139184839017920e-01  -3.5323346361323504e-01  -2.6506112143728761e-01  -1.7684876792689294e-01  -8.8524404194283215e-02  -1.8521624155887261e-05  -7.0531200265075462e+00  -6.9653246784370619e+00  -6.8764005702168536e+00  -6.7883717080789232e+00  -6.7001370960495921e+00  -6.6120705198366378e+00  -6.5238767681281180e+00  -6.4357293091923138e+00  -6.3475228447741765e+00  -6.2593469441868130e+00  -6.1711617948112378e+00  -6.0830015127380372e+00  -5.9948409277245700e+00  -5.9066907770788770e+00  -5.8185390291915526e+00  -5.7303903324759844e+00  -5.6422403730547259e+00  -5.5540913715920448e+00  -5.4659418351011340e+00  -5.3777926281873283e+00  -5.2896432487213874e+00  -5.2014939602307395e+00  -5.1133446360881241e+00  -5.0251953185494669e+00  -4.9370460074272113e+00  -4.8488966811842404e+00  -4.7607473683785777e+00  -4.6725980398696336e+00  -4.5844487215983527e+00  -4.4962993919253869e+00  -4.4081500679887471e+00  -4.3200007366687512e+00  -4.2318514077094802e+00  -4.1437020740449464e+00  -4.0555527406875278e+00  -3.9674034041499517e+00  -3.8792540668152924e+00  -3.7911047270821627e+00  -3.7029553860102293e+00  -3.6148060429086746e+00  -3.5266566982218208e+00  -3.4385073516676994e+00  -3.3503580034231506e+00  -3.2622086533786070e+00  -3.1740593016012602e+00  -3.0859099480503560e+00  -2.9977605927504034e+00  -2.9096112356868336e+00  -2.8214618768682662e+00  -2.7333125162896756e+00  -2.6451631539540079e+00  -2.5570137898596208e+00  -2.4688644240073798e+00  -2.3807150563968431e+00  -2.2925656870278948e+00  -2.2044163159003500e+00  -2.1162669430125702e+00  -2.0281175683632733e+00  -1.9399681919456322e+00  -1.8518188137513489e+00  -1.7636694337529477e+00  -1.6755200519080553e+00  -1.5873706681043969e+00  -1.4992212821464326e+00  -1.4110718935758289e+00  -1.3229225015498300e+00  -1.2347731042544767e+00  -1.1466236983251865e+00  -1.0584742770156983e+00  -9.7032482808863851e-01  -8.8217532852699510e-01  -7.9402573859265857e-01  -7.0587598990695133e-01  -6.1772597330099766e-01  -5.2957550621858651e-01  -4.4142426875574675e-01  -3.5327153873378142e-01  -2.6511510157772089e-01  -1.7694939766944948e-01  -8.8691281819395881e-02  -2.4839558845854257e-05  -7.0539856376884957e+00  -6.9650782142201653e+00  -6.8762401223391159e+00  -6.7881626341631929e+00  -6.7001175470719874e+00  -6.6119935948411319e+00  -6.5238600403076488e+00  -6.4356723036560508e+00  -6.3474859562132444e+00  -6.2592920579892199e+00  -6.1711171942744265e+00  -6.0829506312078534e+00  -5.9947958657578422e+00  -5.9066437674445433e+00  -5.8184944432606969e+00  -5.7303448448941250e+00  -5.6421957034108186e+00  -5.5540463010413603e+00  -5.4658970317608020e+00  -5.3777476872265844e+00  -5.2895983817055336e+00  -5.2014490640192905e+00  -5.1132997474444695e+00  -5.0251504352018692e+00  -4.9370011142095791e+00  -4.8488517994235636e+00  -4.7607024759724190e+00  -4.6725531566924134e+00  -4.5844038309727519e+00  -4.4962545071216935e+00  -4.4081051788053367e+00  -4.3199558507084044e+00  -4.2318065194383694e+00  -4.1436571874003052e+00  -4.0555078529205018e+00  -3.9673585171440604e+00  -3.8792091793006849e+00  -3.7910598399011466e+00  -3.7029104986120029e+00  -3.6147611556482384e+00  -3.5266118108732427e+00  -3.4384624643729143e+00  -3.3503131160939894e+00  -3.2621637660692033e+00  -3.1740144142787123e+00  -3.0858650607344509e+00  -2.9977157054293535e+00  -2.9095663483676111e+00  -2.8214169895468131e+00  -2.7332676289683655e+00  -2.6451182666315400e+00  -2.5569689025368088e+00  -2.4688195366839265e+00  -2.3806701690731424e+00  -2.2925207997041968e+00  -2.2043714285773106e+00  -2.1162220556913889e+00  -2.0280726810461887e+00  -1.9399233046372020e+00  -1.8517739264603779e+00  -1.7636245464967073e+00  -1.6754751647213619e+00  -1.5873257810537609e+00  -1.4991763953648267e+00  -1.4110270073126339e+00  -1.3228776162884768e+00  -1.2347282208762778e+00  -1.1465788184606960e+00  -1.0584294035364838e+00  -9.7027996622282831e-01  -8.8213048795686277e-01  -7.9398093943854409e-01  -7.0583127883457386e-01  -6.1768147462937417e-01  -5.2953157645526872e-01  -4.4138196756106041e-01  -3.5323398094329489e-01  -2.6509236543402948e-01  -1.7696246021289683e-01  -8.8991669361242670e-02  1.3343126303582811e-04  -7.0512044144878177e+00  -6.9659060616423911e+00  -6.8757192579132909e+00  -6.7882362569612962e+00  -6.6999751197801984e+00  -6.6119691938756615e+00  -6.5237741560918847e+00  -6.4356170000156885e+00  -6.3474124603773543e+00  -6.2592303414197294e+00  -6.1710502472205784e+00  -6.0828881334939116e+00  -5.9947317018316024e+00  -5.9065809371371483e+00  -5.8184310291327952e+00  -5.7302817674773747e+00  -5.6421324768970296e+00  -5.5539831382580376e+00  -5.4658338569793630e+00  -5.3776845039712153e+00  -5.2895352174863097e+00  -5.2013858793535466e+00  -5.1132365822100327e+00  -5.0250872535263582e+00  -4.9369379459326677e+00  -4.8487886207419377e+00  -4.7606393052008142e+00  -4.6724899800718873e+00  -4.5843406586075011e+00  -4.4961913317206168e+00  -4.4080420055380323e+00  -4.3198926759642298e+00  -4.2317433457007363e+00  -4.1435940129845914e+00  -4.0554446789534406e+00  -3.9672953428817652e+00  -3.8791460052278519e+00  -3.7909966657057503e+00  -3.7028473244924629e+00  -3.6146979814797731e+00  -3.5265486367334438e+00  -3.4383992902140252e+00  -3.3502499419450920e+00  -3.2621005919127528e+00  -3.1739512401251844e+00  -3.0858018865776362e+00  -2.9976525312729012e+00  -2.9095031742093873e+00  -2.8213538153880391e+00  -2.7332044548083387e+00  -2.6450550924706469e+00  -2.5569057283747729e+00  -2.4687563625208981e+00  -2.3806069949088555e+00  -2.2924576255387272e+00  -2.2043082544100696e+00  -2.1161588815222849e+00  -2.0280095068734361e+00  -1.9398601304596175e+00  -1.8517107522719225e+00  -1.7635613722906118e+00  -1.6754119904751537e+00  -1.5872626067345268e+00  -1.4991132208849669e+00  -1.4109638325252789e+00  -1.3228144408522025e+00  -1.2346650441841969e+00  -1.1465156392354117e+00  -1.0583662195029504e+00  -9.7021677299841336e-01  -8.8206727828427023e-01  -7.9391770144102958e-01  -7.0576799650203725e-01  -6.1761812929304316e-01  -5.2946816528976737e-01  -4.4131853521353021e-01  -3.5317083787636361e-01  -2.6502923064809147e-01  -1.7691830719406032e-01  -8.8732508060017423e-02  -3.2118121884909690e-03  -7.0105467212718997e+00  -6.9206655784529376e+00  -6.8323943545989669e+00  -6.7443120415516287e+00  -6.6562318494012409e+00  -6.5681118706598500e+00  -6.4799447563684653e+00  -6.3917610521171317e+00  -6.3035685617117094e+00  -6.2153863261532436e+00  -6.1272150070251135e+00  -6.0390553608152491e+00  -5.9509016751315045e+00  -5.8627512731909937e+00  -5.7746016747709250e+00  -5.6864523942392546e+00  -5.5983030719444420e+00  -5.5101537639106226e+00  -5.4220044414336916e+00  -5.3338551225346675e+00  -5.2457058079891867e+00  -5.1575564900876412e+00  -5.0694071767062709e+00  -4.9812578579528681e+00  -4.8931085417084867e+00  -4.8049592208000274e+00  -4.7168099007081823e+00  -4.6286605770494944e+00  -4.5405112530580896e+00  -4.4523619263164127e+00  -4.3642125985491296e+00  -4.2760632685249371e+00  -4.1879139370945202e+00  -4.0997646036725692e+00  -4.0116152686513171e+00  -3.9234659317694200e+00  -3.8353165931970166e+00  -3.7471672528239357e+00  -3.6590179107200185e+00  -3.5708685668411664e+00  -3.4827192212146501e+00  -3.3945698738236234e+00  -3.3064205246782903e+00  -3.2182711737724707e+00  -3.1301218211097988e+00  -3.0419724666881005e+00  -2.9538231105086474e+00  -2.8656737525706522e+00  -2.7775243928745019e+00  -2.6893750314199152e+00  -2.6012256682069763e+00  -2.5130763032354633e+00  -2.4249269365052952e+00  -2.3367775680159664e+00  -2.2486281977671778e+00  -2.1604788257574743e+00  -2.0723294519856066e+00  -1.9841800764468591e+00  -1.8960306991355795e+00  -1.8078813200350723e+00  -1.7197319391196491e+00  -1.6315825563241158e+00  -1.5434331715323730e+00  -1.4552837844751085e+00  -1.3671343946399019e+00  -1.2789850009146586e+00  -1.1908356011544123e+00  -1.102686190995