<?xml version="1.0"?>
<VTKFile type="UnstructuredGrid"  version="0.1"  >
<UnstructuredGrid>
<Piece  NumberOfPoints="1369" NumberOfCells="2560">
<Points>
<DataArray  type="Float64"  NumberOfComponents="3"  format="ascii">0 0 0  0.75 0 0  1.5 0 0  2.25 0 0  3 0 0  3.75 0 0  4.5 0 0  5.25 0 0  6 0 0  6.75 0 0  7.5 0 0  8.25 0 0  9 0 0  9.75 0 0  10.5 0 0  11.25 0 0  12 0 0  12.75 0 0  13.5 0 0  14.25 0 0  15 0 0  15.75 0 0  16.5 0 0  17.25 0 0  18 0 0  18.75 0 0  19.5 0 0  20.25 0 0  21 0 0  21.75 0 0  22.5 0 0  23.25 0 0  24 0 0  24.75 0 0  25.5 0 0  26.25 0 0  27 0 0  27.75 0 0  28.5 0 0  29.25 0 0  30 0 0  30.75 0 0  31.5 0 0  32.25 0 0  33 0 0  33.75 0 0  34.5 0 0  35.25 0 0  36 0 0  36.75 0 0  37.5 0 0  38.25 0 0  39 0 0  39.75 0 0  40.5 0 0  41.25 0 0  42 0 0  42.75 0 0  43.5 0 0  44.25 0 0  45 0 0  45.75 0 0  46.5 0 0  47.25 0 0  48 0 0  48.75 0 0  49.5 0 0  50.25 0 0  51 0 0  51.75 0 0  52.5 0 0  53.25 0 0  54 0 0  54.75 0 0  55.5 0 0  56.25 0 0  57 0 0  57.75 0 0  58.5 0 0  59.25 0 0  60 0 0  0 0.5 0  0.75 0.5 0  1.5 0.5 0  2.25 0.5 0  3 0.5 0  3.75 0.5 0  4.5 0.5 0  5.25 0.5 0  6 0.5 0  6.75 0.5 0  7.5 0.5 0  8.25 0.5 0  9 0.5 0  9.75 0.5 0  10.5 0.5 0  11.25 0.5 0  12 0.5 0  12.75 0.5 0  13.5 0.5 0  14.25 0.5 0  15 0.5 0  15.75 0.5 0  16.5 0.5 0  17.25 0.5 0  18 0.5 0  18.75 0.5 0  19.5 0.5 0  20.25 0.5 0  21 0.5 0  21.75 0.5 0  22.5 0.5 0  23.25 0.5 0  24 0.5 0  24.75 0.5 0  25.5 0.5 0  26.25 0.5 0  27 0.5 0  27.75 0.5 0  28.5 0.5 0  29.25 0.5 0  30 0.5 0  30.75 0.5 0  31.5 0.5 0  32.25 0.5 0  33 0.5 0  33.75 0.5 0  34.5 0.5 0  35.25 0.5 0  36 0.5 0  36.75 0.5 0  37.5 0.5 0  38.25 0.5 0  39 0.5 0  39.75 0.5 0  40.5 0.5 0  41.25 0.5 0  42 0.5 0  42.75 0.5 0  43.5 0.5 0  44.25 0.5 0  45 0.5 0  45.75 0.5 0  46.5 0.5 0  47.25 0.5 0  48 0.5 0  48.75 0.5 0  49.5 0.5 0  50.25 0.5 0  51 0.5 0  51.75 0.5 0  52.5 0.5 0  53.25 0.5 0  54 0.5 0  54.75 0.5 0  55.5 0.5 0  56.25 0.5 0  57 0.5 0  57.75 0.5 0  58.5 0.5 0  59.25 0.5 0  60 0.5 0  0 1 0  0.75 1 0  1.5 1 0  2.25 1 0  3 1 0  3.75 1 0  4.5 1 0  5.25 1 0  6 1 0  6.75 1 0  7.5 1 0  8.25 1 0  9 1 0  9.75 1 0  10.5 1 0  11.25 1 0  12 1 0  12.75 1 0  13.5 1 0  14.25 1 0  15 1 0  15.75 1 0  16.5 1 0  17.25 1 0  18 1 0  18.75 1 0  19.5 1 0  20.25 1 0  21 1 0  21.75 1 0  22.5 1 0  23.25 1 0  24 1 0  24.75 1 0  25.5 1 0  26.25 1 0  27 1 0  27.75 1 0  28.5 1 0  29.25 1 0  30 1 0  30.75 1 0  31.5 1 0  32.25 1 0  33 1 0  33.75 1 0  34.5 1 0  35.25 1 0  36 1 0  36.75 1 0  37.5 1 0  38.25 1 0  39 1 0  39.75 1 0  40.5 1 0  41.25 1 0  42 1 0  42.75 1 0  43.5 1 0  44.25 1 0  45 1 0  45.75 1 0  46.5 1 0  47.25 1 0  48 1 0  48.75 1 0  49.5 1 0  50.25 1 0  51 1 0  51.75 1 0  52.5 1 0  53.25 1 0  54 1 0  54.75 1 0  55.5 1 0  56.25 1 0  57 1 0  57.75 1 0  58.5 1 0  59.25 1 0  60 1 0  0 1.5 0  0.75 1.5 0  1.5 1.5 0  2.25 1.5 0  3 1.5 0  3.75 1.5 0  4.5 1.5 0  5.25 1.5 0  6 1.5 0  6.75 1.5 0  7.5 1.5 0  8.25 1.5 0  9 1.5 0  9.75 1.5 0  10.5 1.5 0  11.25 1.5 0  12 1.5 0  12.75 1.5 0  13.5 1.5 0  14.25 1.5 0  15 1.5 0  15.75 1.5 0  16.5 1.5 0  17.25 1.5 0  18 1.5 0  18.75 1.5 0  19.5 1.5 0  20.25 1.5 0  21 1.5 0  21.75 1.5 0  22.5 1.5 0  23.25 1.5 0  24 1.5 0  24.75 1.5 0  25.5 1.5 0  26.25 1.5 0  27 1.5 0  27.75 1.5 0  28.5 1.5 0  29.25 1.5 0  30 1.5 0  30.75 1.5 0  31.5 1.5 0  32.25 1.5 0  33 1.5 0  33.75 1.5 0  34.5 1.5 0  35.25 1.5 0  36 1.5 0  36.75 1.5 0  37.5 1.5 0  38.25 1.5 0  39 1.5 0  39.75 1.5 0  40.5 1.5 0  41.25 1.5 0  42 1.5 0  42.75 1.5 0  43.5 1.5 0  44.25 1.5 0  45 1.5 0  45.75 1.5 0  46.5 1.5 0  47.25 1.5 0  48 1.5 0  48.75 1.5 0  49.5 1.5 0  50.25 1.5 0  51 1.5 0  51.75 1.5 0  52.5 1.5 0  53.25 1.5 0  54 1.5 0  54.75 1.5 0  55.5 1.5 0  56.25 1.5 0  57 1.5 0  57.75 1.5 0  58.5 1.5 0  59.25 1.5 0  60 1.5 0  0 2 0  0.75 2 0  1.5 2 0  2.25 2 0  3 2 0  3.75 2 0  4.5 2 0  5.25 2 0  6 2 0  6.75 2 0  7.5 2 0  8.25 2 0  9 2 0  9.75 2 0  10.5 2 0  11.25 2 0  12 2 0  12.75 2 0  13.5 2 0  14.25 2 0  15 2 0  15.75 2 0  16.5 2 0  17.25 2 0  18 2 0  18.75 2 0  19.5 2 0  20.25 2 0  21 2 0  21.75 2 0  22.5 2 0  23.25 2 0  24 2 0  24.75 2 0  25.5 2 0  26.25 2 0  27 2 0  27.75 2 0  28.5 2 0  29.25 2 0  30 2 0  30.75 2 0  31.5 2 0  32.25 2 0  33 2 0  33.75 2 0  34.5 2 0  35.25 2 0  36 2 0  36.75 2 0  37.5 2 0  38.25 2 0  39 2 0  39.75 2 0  40.5 2 0  41.25 2 0  42 2 0  42.75 2 0  43.5 2 0  44.25 2 0  45 2 0  45.75 2 0  46.5 2 0  47.25 2 0  48 2 0  48.75 2 0  49.5 2 0  50.25 2 0  51 2 0  51.75 2 0  52.5 2 0  53.25 2 0  54 2 0  54.75 2 0  55.5 2 0  56.25 2 0  57 2 0  57.75 2 0  58.5 2 0  59.25 2 0  60 2 0  0 2.5 0  0.75 2.5 0  1.5 2.5 0  2.25 2.5 0  3 2.5 0  3.75 2.5 0  4.5 2.5 0  5.25 2.5 0  6 2.5 0  6.75 2.5 0  7.5 2.5 0  8.25 2.5 0  9 2.5 0  9.75 2.5 0  10.5 2.5 0  11.25 2.5 0  12 2.5 0  12.75 2.5 0  13.5 2.5 0  14.25 2.5 0  15 2.5 0  15.75 2.5 0  16.5 2.5 0  17.25 2.5 0  18 2.5 0  18.75 2.5 0  19.5 2.5 0  20.25 2.5 0  21 2.5 0  21.75 2.5 0  22.5 2.5 0  23.25 2.5 0  24 2.5 0  24.75 2.5 0  25.5 2.5 0  26.25 2.5 0  27 2.5 0  27.75 2.5 0  28.5 2.5 0  29.25 2.5 0  30 2.5 0  30.75 2.5 0  31.5 2.5 0  32.25 2.5 0  33 2.5 0  33.75 2.5 0  34.5 2.5 0  35.25 2.5 0  36 2.5 0  36.75 2.5 0  37.5 2.5 0  38.25 2.5 0  39 2.5 0  39.75 2.5 0  40.5 2.5 0  41.25 2.5 0  42 2.5 0  42.75 2.5 0  43.5 2.5 0  44.25 2.5 0  45 2.5 0  45.75 2.5 0  46.5 2.5 0  47.25 2.5 0  48 2.5 0  48.75 2.5 0  49.5 2.5 0  50.25 2.5 0  51 2.5 0  51.75 2.5 0  52.5 2.5 0  53.25 2.5 0  54 2.5 0  54.75 2.5 0  55.5 2.5 0  56.25 2.5 0  57 2.5 0  57.75 2.5 0  58.5 2.5 0  59.25 2.5 0  60 2.5 0  0 3 0  0.75 3 0  1.5 3 0  2.25 3 0  3 3 0  3.75 3 0  4.5 3 0  5.25 3 0  6 3 0  6.75 3 0  7.5 3 0  8.25 3 0  9 3 0  9.75 3 0  10.5 3 0  11.25 3 0  12 3 0  12.75 3 0  13.5 3 0  14.25 3 0  15 3 0  15.75 3 0  16.5 3 0  17.25 3 0  18 3 0  18.75 3 0  19.5 3 0  20.25 3 0  21 3 0  21.75 3 0  22.5 3 0  23.25 3 0  24 3 0  24.75 3 0  25.5 3 0  26.25 3 0  27 3 0  27.75 3 0  28.5 3 0  29.25 3 0  30 3 0  30.75 3 0  31.5 3 0  32.25 3 0  33 3 0  33.75 3 0  34.5 3 0  35.25 3 0  36 3 0  36.75 3 0  37.5 3 0  38.25 3 0  39 3 0  39.75 3 0  40.5 3 0  41.25 3 0  42 3 0  42.75 3 0  43.5 3 0  44.25 3 0  45 3 0  45.75 3 0  46.5 3 0  47.25 3 0  48 3 0  48.75 3 0  49.5 3 0  50.25 3 0  51 3 0  51.75 3 0  52.5 3 0  53.25 3 0  54 3 0  54.75 3 0  55.5 3 0  56.25 3 0  57 3 0  57.75 3 0  58.5 3 0  59.25 3 0  60 3 0  0 3.5 0  0.75 3.5 0  1.5 3.5 0  2.25 3.5 0  3 3.5 0  3.75 3.5 0  4.5 3.5 0  5.25 3.5 0  6 3.5 0  6.75 3.5 0  7.5 3.5 0  8.25 3.5 0  9 3.5 0  9.75 3.5 0  10.5 3.5 0  11.25 3.5 0  12 3.5 0  12.75 3.5 0  13.5 3.5 0  14.25 3.5 0  15 3.5 0  15.75 3.5 0  16.5 3.5 0  17.25 3.5 0  18 3.5 0  18.75 3.5 0  19.5 3.5 0  20.25 3.5 0  21 3.5 0  21.75 3.5 0  22.5 3.5 0  23.25 3.5 0  24 3.5 0  24.75 3.5 0  25.5 3.5 0  26.25 3.5 0  27 3.5 0  27.75 3.5 0  28.5 3.5 0  29.25 3.5 0  30 3.5 0  30.75 3.5 0  31.5 3.5 0  32.25 3.5 0  33 3.5 0  33.75 3.5 0  34.5 3.5 0  35.25 3.5 0  36 3.5 0  36.75 3.5 0  37.5 3.5 0  38.25 3.5 0  39 3.5 0  39.75 3.5 0  40.5 3.5 0  41.25 3.5 0  42 3.5 0  42.75 3.5 0  43.5 3.5 0  44.25 3.5 0  45 3.5 0  45.75 3.5 0  46.5 3.5 0  47.25 3.5 0  48 3.5 0  48.75 3.5 0  49.5 3.5 0  50.25 3.5 0  51 3.5 0  51.75 3.5 0  52.5 3.5 0  53.25 3.5 0  54 3.5 0  54.75 3.5 0  55.5 3.5 0  56.25 3.5 0  57 3.5 0  57.75 3.5 0  58.5 3.5 0  59.25 3.5 0  60 3.5 0  0 4 0  0.75 4 0  1.5 4 0  2.25 4 0  3 4 0  3.75 4 0  4.5 4 0  5.25 4 0  6 4 0  6.75 4 0  7.5 4 0  8.25 4 0  9 4 0  9.75 4 0  10.5 4 0  11.25 4 0  12 4 0  12.75 4 0  13.5 4 0  14.25 4 0  15 4 0  15.75 4 0  16.5 4 0  17.25 4 0  18 4 0  18.75 4 0  19.5 4 0  20.25 4 0  21 4 0  21.75 4 0  22.5 4 0  23.25 4 0  24 4 0  24.75 4 0  25.5 4 0  26.25 4 0  27 4 0  27.75 4 0  28.5 4 0  29.25 4 0  30 4 0  30.75 4 0  31.5 4 0  32.25 4 0  33 4 0  33.75 4 0  34.5 4 0  35.25 4 0  36 4 0  36.75 4 0  37.5 4 0  38.25 4 0  39 4 0  39.75 4 0  40.5 4 0  41.25 4 0  42 4 0  42.75 4 0  43.5 4 0  44.25 4 0  45 4 0  45.75 4 0  46.5 4 0  47.25 4 0  48 4 0  48.75 4 0  49.5 4 0  50.25 4 0  51 4 0  51.75 4 0  52.5 4 0  53.25 4 0  54 4 0  54.75 4 0  55.5 4 0  56.25 4 0  57 4 0  57.75 4 0  58.5 4 0  59.25 4 0  60 4 0  0.375 0.25 0  1.125 0.25 0  1.875 0.25 0  2.625 0.25 0  3.375 0.25 0  4.125 0.25 0  4.875 0.25 0  5.625 0.25 0  6.375 0.25 0  7.125 0.25 0  7.875 0.25 0  8.625 0.25 0  9.375 0.25 0  10.125 0.25 0  10.875 0.25 0  11.625 0.25 0  12.375 0.25 0  13.125 0.25 0  13.875 0.25 0  14.625 0.25 0  15.375 0.25 0  16.125 0.25 0  16.875 0.25 0  17.625 0.25 0  18.375 0.25 0  19.125 0.25 0  19.875 0.25 0  20.625 0.25 0  21.375 0.25 0  22.125 0.25 0  22.875 0.25 0  23.625 0.25 0  24.375 0.25 0  25.125 0.25 0  25.875 0.25 0  26.625 0.25 0  27.375 0.25 0  28.125 0.25 0  28.875 0.25 0  29.625 0.25 0  30.375 0.25 0  31.125 0.25 0  31.875 0.25 0  32.625 0.25 0  33.375 0.25 0  34.125 0.25 0  34.875 0.25 0  35.625 0.25 0  36.375 0.25 0  37.125 0.25 0  37.875 0.25 0  38.625 0.25 0  39.375 0.25 0  40.125 0.25 0  40.875 0.25 0  41.625 0.25 0  42.375 0.25 0  43.125 0.25 0  43.875 0.25 0  44.625 0.25 0  45.375 0.25 0  46.125 0.25 0  46.875 0.25 0  47.625 0.25 0  48.375 0.25 0  49.125 0.25 0  49.875 0.25 0  50.625 0.25 0  51.375 0.25 0  52.125 0.25 0  52.875 0.25 0  53.625 0.25 0  54.375 0.25 0  55.125 0.25 0  55.875 0.25 0  56.625 0.25 0  57.375 0.25 0  58.125 0.25 0  58.875 0.25 0  59.625 0.25 0  0.375 0.75 0  1.125 0.75 0  1.875 0.75 0  2.625 0.75 0  3.375 0.75 0  4.125 0.75 0  4.875 0.75 0  5.625 0.75 0  6.375 0.75 0  7.125 0.75 0  7.875 0.75 0  8.625 0.75 0  9.375 0.75 0  10.125 0.75 0  10.875 0.75 0  11.625 0.75 0  12.375 0.75 0  13.125 0.75 0  13.875 0.75 0  14.625 0.75 0  15.375 0.75 0  16.125 0.75 0  16.875 0.75 0  17.625 0.75 0  18.375 0.75 0  19.125 0.75 0  19.875 0.75 0  20.625 0.75 0  21.375 0.75 0  22.125 0.75 0  22.875 0.75 0  23.625 0.75 0  24.375 0.75 0  25.125 0.75 0  25.875 0.75 0  26.625 0.75 0  27.375 0.75 0  28.125 0.75 0  28.875 0.75 0  29.625 0.75 0  30.375 0.75 0  31.125 0.75 0  31.875 0.75 0  32.625 0.75 0  33.375 0.75 0  34.125 0.75 0  34.875 0.75 0  35.625 0.75 0  36.375 0.75 0  37.125 0.75 0  37.875 0.75 0  38.625 0.75 0  39.375 0.75 0  40.125 0.75 0  40
[...]
<PointData  Scalars="f_8-1"> 
<DataArray  type="Float64"  Name="f_8-1"  format="ascii">8.4820741874239616e+00  8.3788234419162961e+00  8.2726387932168155e+00  8.1666250162160754e+00  8.0605791185569871e+00  7.9545308404077835e+00  7.8484812908377783e+00  7.7424316199118719e+00  7.6363820799049345e+00  7.5303326962197845e+00  7.4242834307190444e+00  7.3182342417284101e+00  7.2121850990204592e+00  7.1061359832719262e+00  7.0000868833665084e+00  6.8940377931004608e+00  6.7879887092371476e+00  6.6819396300607012e+00  6.5758905547193436e+00  6.4698414827639930e+00  6.3637924139788984e+00  6.2577433482473248e+00  6.1516942855150631e+00  6.0456452257509739e+00  5.9395961689413541e+00  5.8335471150774767e+00  5.7274980641558386e+00  5.6214490161738535e+00  5.5153999711305319e+00  5.4093509290251367e+00  5.3033018898573427e+00  5.1972528536269538e+00  5.0912038203337113e+00  4.9851547899778250e+00  4.8791057625587655e+00  4.7730567380773339e+00  4.6670077165320976e+00  4.5609586979254129e+00  4.4549096822532492e+00  4.3488606695222796e+00  4.2428116597213901e+00  4.1367626528687840e+00  4.0307136489346274e+00  3.9246646479669103e+00  3.8186156498886530e+00  3.7125666548212264e+00  3.6065176625742197e+00  3.5004686734410355e+00  3.3944196869721783e+00  3.2883707038433685e+00  3.1823217230446779e+00  3.0762727460541108e+00  2.9702237707190928e+00  2.8641748000964586e+00  2.7581258298515641e+00  2.6520768659200420e+00  2.5460279001202588e+00  2.4399789430762358e+00  2.3339299806171883e+00  2.2278810294021896e+00  2.1218320685519299e+00  2.0157831177980698e+00  1.9097341603547231e+00  1.8036852004535131e+00  1.6976362732357264e+00  1.5915872421716879e+00  1.4855381558567253e+00  1.3794878203076648e+00  1.2734354072077914e+00  1.1673758596790988e+00  1.0613081884852216e+00  9.5522473382994166e-01  8.4913968855180089e-01  7.4304693269114885e-01  6.3699210370093651e-01  5.3092909856206949e-01  4.2500605040540890e-01  3.1893767515057092e-01  2.1342685506621470e-01  1.0575915901779546e-01  2.2781939711432348e-03  8.4855373728209855e+00  8.3784539583470021e+00  8.2725927781350226e+00  8.1665507309814540e+00  8.0605073748946019e+00  7.9544590022752963e+00  7.8484095816301940e+00  7.7423599978335673e+00  7.6363105226386647e+00  7.5302611816281200e+00  7.4242119420910235e+00  7.3181627683168928e+00  7.2121136341385768e+00  7.1060645230461024e+00  7.0000154255901617e+00  6.8939663366008395e+00  6.7879172533885930e+00  6.6818681745448858e+00  6.5758190993712233e+00  6.4697700275011911e+00  6.3637209587595480e+00  6.2576718930503317e+00  6.1516228303302203e+00  6.0455737705727284e+00  5.9395247137673923e+00  5.8334756599062514e+00  5.7274266089869057e+00  5.6213775610067378e+00  5.5153285159652246e+00  5.4092794738614147e+00  5.3032304346953536e+00  5.1971813984664186e+00  5.0911323651750466e+00  4.9850833348203460e+00  4.8790343074036153e+00  4.7729852829225798e+00  4.6669362613809762e+00  4.5608872427725551e+00  4.4548382271074933e+00  4.3487892143692415e+00  4.2427402045842646e+00  4.1366911977105900e+00  4.0306421938136774e+00  3.9245931927924267e+00  3.8185441948002383e+00  3.7124951996071331e+00  3.6064462075512815e+00  3.5003972181422789e+00  3.3943482320754881e+00  3.2882992483812137e+00  3.1822502683738692e+00  3.0762012903098448e+00  2.9701523164076447e+00  2.8641033439387158e+00  2.7580543759960943e+00  2.6520054093459362e+00  2.5459564465092632e+00  2.4399074866640791e+00  2.3338585259337390e+00  2.2278095755071168e+00  2.1217606082640570e+00  2.0157116734957876e+00  1.9096626812279107e+00  1.8036137860387012e+00  1.6975647402057827e+00  1.5915159176934235e+00  1.4854664654276943e+00  1.3794166757242943e+00  1.2733630399890903e+00  1.1673045933345632e+00  1.0612332432821445e+00  9.5515285541396766e-01  8.4905945824402529e-01  7.4297997503142432e-01  6.3690662250619612e-01  5.3088264001448082e-01  4.2488358395740489e-01  3.1895665950488511e-01  2.1299485142468400e-01  1.0640702945134378e-01  -5.8256954019758503e-04  8.4852591762097465e+00  8.3787311247276914e+00  8.2725775943685598e+00  8.1665127265889712e+00  8.0604563866904115e+00  7.9544040606854525e+00  7.8483532421707363e+00  7.7423031749385434e+00  7.6362535240777234e+00  7.5302041144855361e+00  7.4241548450687604e+00  7.3181056569764404e+00  7.2120565153612848e+00  7.1060074002959510e+00  6.9999583006579069e+00  6.8939092104969459e+00  6.7878601266507443e+00  6.6818110474804504e+00  6.5757619721354592e+00  6.4697129001818370e+00  6.3636638313976057e+00  6.2576147656693282e+00  6.1515657029400312e+00  6.0455166431795231e+00  5.9394675863732633e+00  5.8334185325128232e+00  5.7273694815944447e+00  5.6213204336157201e+00  5.5152713885755276e+00  5.4092223464733786e+00  5.3031733073084855e+00  5.1971242710815284e+00  5.0910752377907702e+00  4.9850262074389438e+00  4.8789771800212822e+00  4.7729281555456673e+00  4.6668791339989610e+00  4.5608301154026423e+00  4.4547810997218287e+00  4.3487320870124746e+00  4.2426830771857711e+00  4.1366340703807039e+00  4.0305850663824598e+00  3.9245360655180623e+00  3.8184870672967612e+00  3.7124380724424428e+00  3.6063890799050524e+00  3.5003400911772768e+00  3.3942911041798136e+00  3.2882421217358466e+00  3.1821931401143675e+00  3.0761441640642322e+00  2.9700951878009074e+00  2.8640462178718664e+00  2.7579972476298749e+00  2.6519482821727229e+00  2.5458993207008622e+00  2.4398503541165435e+00  2.3338014093638315e+00  2.2277524260777142e+00  2.1217035173239220e+00  2.0156544789313657e+00  1.9096056508728108e+00  1.8035564682323657e+00  1.6975078125401026e+00  1.5914581789800812e+00  1.4854095011987751e+00  1.3793574475630046e+00  1.2733054630512906e+00  1.1672421694046435e+00  1.0611762172803196e+00  9.5508760712817353e-01  8.4900977513094589e-01  7.4291479744955669e-01  6.3687453863834576e-01  5.3079927060415544e-01  4.2484657182194224e-01  3.1874694054016267e-01  2.1283173791303386e-01  1.0607262992420162e-01  2.6418015444333012e-04  8.4852668081416276e+00  8.3788806284409620e+00  8.2726682846285335e+00  8.1665603549641581e+00  8.0604896915016191e+00  7.9544321522964898e+00  7.8483794883825579e+00  7.7423287412616979e+00  7.6362788208379353e+00  7.5302292930080972e+00  7.4241799666281185e+00  7.3181307488844149e+00  7.2120815912438019e+00  7.1060324674196504e+00  6.9999833630524373e+00  6.8939342703672546e+00  6.7878851851987312e+00  6.6818361053443240e+00  6.5757870296512912e+00  6.4697379575225842e+00  6.3636888886514500e+00  6.2576398228808250e+00  6.1515907601309561e+00  6.0455417003609053e+00  5.9394926435500937e+00  5.8334435896877022e+00  5.7273945387684320e+00  5.6213454907892428e+00  5.5152964457489961e+00  5.4092474036463676e+00  5.3031983644818883e+00  5.1971493282537526e+00  5.0911002949645292e+00  4.9850512646095888e+00  4.8790022371965707e+00  4.7729532127126486e+00  4.6669041911789506e+00  4.5608551725609221e+00  4.4548061569143602e+00  4.3487571441501611e+00  4.2427081344088124e+00  4.1366591274715363e+00  4.0306101236742364e+00  3.9245611225086079e+00  3.8185121247315230e+00  3.7124631292345369e+00  3.6064141376107082e+00  3.5003651476153932e+00  3.3943161623381886e+00  3.2882671776341104e+00  3.1822181988838412e+00  3.0761692193709607e+00  2.9701202469987202e+00  2.8640712732187330e+00  2.7580223057735225e+00  2.6519733403642789e+00  2.5459243725277689e+00  2.4398754236237847e+00  2.3338264401222473e+00  2.2277775283235322e+00  2.1217284901292639e+00  2.0156796617035972e+00  1.9096304700840494e+00  1.8035818102706667e+00  1.6975321545983610e+00  1.5914836300451372e+00  1.4854321427012511e+00  1.3793822990325932e+00  1.2733235104930039e+00  1.1672665592809497e+00  1.0611886716578514e+00  9.5512107197196305e-01  8.4902218480247527e-01  7.4297305974147998e-01  6.3687314847969634e-01  5.3088903630901407e-01  4.2477032505811618e-01  3.1884886418078373e-01  2.1251670847306517e-01  1.0642382472536094e-01  -1.5116389838067213e-04  8.4852686729371332e+00  8.3789252187703127e+00  8.2727022611264314e+00  8.1665802919783719e+00  8.0605037835078264e+00  7.9544441621335640e+00  7.8483907546221738e+00  7.7423397360275361e+00  7.6362897096652755e+00  7.5302401363767020e+00  7.4241907885013010e+00  7.3181415597653956e+00  7.2120923962532721e+00  7.1060432692465829e+00  6.9999941631697871e+00  6.8939450695810649e+00  6.7878959839454662e+00  6.6818469038547246e+00  6.5757978280451530e+00  6.4697487558606497e+00  6.3636996869637468e+00  6.2576506211819956e+00  6.1516015584277142e+00  6.0455524986563622e+00  5.9395034418454138e+00  5.8334543879834042e+00  5.7274053370644724e+00  5.6213562890858144e+00  5.5153072440455766e+00  5.4092582019435964e+00  5.3032091627784750e+00  5.1971601265517213e+00  5.0911110932602588e+00  4.9850620629091269e+00  4.8790130354896979e+00  4.7729640110163309e+00  4.6669149894652318e+00  4.5608659708753141e+00  4.4548169551836283e+00  4.3487679424907704e+00  4.2427189326379704e+00  4.1366699258725497e+00  4.0306209218144904e+00  3.9245719210392407e+00  3.8185229226888233e+00  3.7124739280210406e+00  3.6064249352249815e+00  3.5003759468555700e+00  3.3943269593875445e+00  3.2882779775572519e+00  3.1822289951942229e+00  3.0761800200103395e+00  2.9701310428715604e+00  2.8640820736614359e+00  2.7580331032347116e+00  2.6519841367218535e+00  2.5459351784427176e+00  2.4398862042265339e+00  2.3338372730905554e+00  2.2277882632702561e+00  2.1217393948289374e+00  2.0156902789949291e+00  1.9096415461243152e+00  1.8035921258199656e+00  1.6975435962420615e+00  1.5914931099350096e+00  1.4854442374416981e+00  1.3793895090104258e+00  1.2733369199435531e+00  1.1672690652318263e+00  1.0612069773852333e+00  9.5511694843428707e-01  8.4905582518565215e-01  7.4295497880703842e-01  6.3693472029874099e-01  5.3083296062021912e-01  4.2487264844560757e-01  3.1870586885435298e-01  2.1265668895699469e-01  1.0625645518319379e-01  8.0957797389863575e-05  8.4852668025428652e+00  8.3788805291334558e+00  8.2726681859128295e+00  8.1665602843269429e+00  8.0604896426930193e+00  7.9544321173953820e+00  7.8483794621834324e+00  7.7423287205484828e+00  7.6362788035974640e+00  7.5302292779675915e+00  7.4241799529850585e+00  7.3181307361346430e+00  7.2120815790702242e+00  7.1060324556213663e+00  6.9999833515008545e+00  6.8939342589790620e+00  6.7878851739194443e+00  6.6818360941380206e+00  6.5757870184941503e+00  6.4697379463987010e+00  6.3636888775501088e+00  6.2576398117948369e+00  6.1515907490554209e+00  6.0455416892925058e+00  5.9394926324865782e+00  5.8334435786275067e+00  5.7273945277105360e+00  5.6213454797329145e+00  5.5152964346937425e+00  5.4092473925918663e+00  5.3031983534278870e+00  5.1971493172000898e+00  5.0911002839111186e+00  4.9850512535563460e+00  4.8790022261434647e+00  4.7729532016596501e+00  4.6669041801260480e+00  4.5608551615081279e+00  4.4548061458616885e+00  4.3487571330976307e+00  4.2427081233565200e+00  4.1366591164195539e+00  4.0306101126227105e+00  3.9245611114577637e+00  3.8185121136816593e+00  3.7124631181861272e+00  3.6064141265644167e+00  3.5003651365722366e+00  3.3943161512995581e+00  3.2882671666022070e+00  3.1822181878616176e+00  3.0761692083631855e+00  2.9701202360115642e+00  2.8640712622623181e+00  2.7580222948607984e+00  2.6519733295163155e+00  2.5459243617712328e+00  2.4398754130019951e+00  2.3338264296886013e+00  2.2277775181651092e+00  2.1217284803486871e+00  2.0156796524669249e+00  1.9096304615685777e+00  1.8035818027427697e+00  1.6975321482436840e+00  1.5914836250302846e+00  1.4854321386370382e+00  1.3793822950315278e+00  1.2733235042448146e+00  1.1672665484512303e+00  1.0611886537499942e+00  9.5512104827292243e-01  8.4902215601293263e-01  7.4297302959626710e-01  6.3687311649789025e-01  5.3088901743790895e-01  4.2477031767574597e-01  3.1884888723651622e-01  2.1251672888877515e-01  1.0642384152160253e-01  -1.5117249618716087e-04  8.4852591554085688e+00  8.3787308711300366e+00  8.2725773857085958e+00  8.1665125858629040e+00  8.0604562885326345e+00  7.9544039889383971e+00  7.8483531868490122e+00  7.7423031299820906e+00  7.6362534856869511e+00  7.5302040802558805e+00  7.4241548134839475e+00  7.3181056270839511e+00  7.2120564865618189e+00  7.1060073722094188e+00  6.9999582730405887e+00  6.8939091831907344e+00  6.7878600995521152e+00  6.6818110205210433e+00  6.5757619452699041e+00  6.4697128733797600e+00  6.3636638046386453e+00  6.2576147389396883e+00  6.1515656762303879e+00  6.0455166164835497e+00  5.9394675596866167e+00  5.8334185058325545e+00  5.7273694549185610e+00  5.6213204069428473e+00  5.5152713619047029e+00  5.4092223198039742e+00  5.3031732806400491e+00  5.1971242444137529e+00  5.0910752111234832e+00  4.9850261807719702e+00  4.8789771533545725e+00  4.7729281288791441e+00  4.6668791073326270e+00  4.5608300887365054e+00  4.4547810730559076e+00  4.3487320603468644e+00  4.2426830505205864e+00  4.1366340437161266e+00  4.0305850397187379e+00  3.9245360388556310e+00  3.8184870406362021e+00  3.7124380457846136e+00  3.6063890532512519e+00  3.5003400645293259e+00  3.3942910775405362e+00  3.2882420951091187e+00  3.1821931135062704e+00  3.0761441374830008e+00  2.9700951612594682e+00  2.8640461913875663e+00  2.7579972212299966e+00  2.6519482558932856e+00  2.5458992945985255e+00  2.4398503282646948e+00  2.3338013838779945e+00  2.2277524011032948e+00  2.1217034930892975e+00  2.0156544557099094e+00  1.9096056290816641e+00  1.8035564483017117e+00  1.6975077950277706e+00  1.5914581640757350e+00  1.4854094886454263e+00  1.3793574352432412e+00  1.2733054472003973e+00  1.1672421437576253e+00  1.0611761780743187e+00  9.5508755403739709e-01  8.4900971443631179e-01  7.4291472953966353e-01  6.3687447064933156e-01  5.3079921851191170e-01  4.2484656030731160e-01  3.1874696839870648e-01  2.1283181247082716e-01  1.0607262268979264e-01  2.6420109205287827e-04  8.4855373623875501e+00  8.3784533794054372e+00  8.2725924812372558e+00  8.1665505178059608e+00  8.0605072183030551e+00  7.9544588792612858e+00  7.8484094792516004e+00  7.7423599083680195e+00  7.6363104413365868e+00  7.5302611055046098e+00  7.4242118692618853e+00  7.3181626975944800e+00  7.2121135647741337e+00  7.1060644545649794e+00  7.0000153576887385e+00  6.8939662690828980e+00  6.7879171861260543e+00  6.6818681074534290e+00  6.5758190323949464e+00  6.4697699606028056e+00  6.3637208919140100e+00  6.2576718262407462e+00  6.1516227635451042e+00  6.0455737038043695e+00  5.9395246470104448e+00  5.8334755931571491e+00  5.7274265422431547e+00  5.6213774942666506e+00  5.5153284492276669e+00  5.4092794071255899e+00  5.3032303679607136e+00  5.1971813317325894e+00  5.0911322984418153e+00  4.9850832680874912e+00  4.8790342406710900e+00  4.7729852161902979e+00  4.6669361946489261e+00  4.5608871760407359e+00  4.4548381603759539e+00  4.3487891476380733e+00  4.2427401378536205e+00  4.1366911309806804e+00  4.0306421270848416e+00  3.9245931260651590e+00  3.8185441280752768e+00  3.7124951328855298e+00  3.6064461408346120e+00  3.5003971514328240e+00  3.3943481653766048e+00  3.2882991816978580e+00  3.1822502017132348e+00  3.0762012236824599e+00  2.9701522498287409e+00  2.8641032774306479e+00  2.7580543095908685e+00  2.6520053430902117e+00  2.5459563804693564e+00  2.4399074209357874e+00  2.3338584606516228e+00  2.2278095108631941e+00  2.1217605445224570e+00  2.0157116110234541e+00  1.9096626205017080e+00  1.8036137276591717e+00  1.6975646847892354e+00  1.5915158656682156e+00  1.4854664163945885e+00  1.3794166276629862e+00  1.2733629881164794e+00  1.1673045307908130e+00  1.0612331636029115e+00  9.5515275800037380e-01  8.4905934697575436e-01  7.4297985498789187e-01  6.3690649874071259e-01  5.3088253923687012e-01  4.2488353243156030e-01  3.1895667552620155e-01  2.1299494303803232e-01  1.0640700162980839e-01  -5.8262591641101383e-04  8.4820713832646941e+00  8.3788231346156792e+00  8.2726384440943512e+00  8.1666247686713813e+00  8.0605789244547843e+00  7.9545306796577853e+00  7.8484811504474630e+00  7.7424314922026971e+00  7.6363819601813079e+00  7.5303325815464213e+00  7.4242833192484818e+00  7.3182341322989908e+00  7.2121849909018776e+00  7.1061358760026030e+00  7.0000867766523731e+00  6.8940376867523021e+00  6.7879886031319732e+00  6.6819395241178423e+00  6.5758904488855139e+00  6.4698413770037204e+00  6.3637923082684758e+00  6.2577432425707817e+00  6.1516941798615550e+00  6.0456451201132415e+00  5.9395960633143448e+00  5.8335470094578508e+00  5.7274979585412673e+00  5.6214489105627177e+00  5.5153998655217684e+00  5.4093508234180163e+00  5.3033017842513308e+00  5.1972527480216986e+00  5.0912037147290201e+00  4.9851546843735184e+00  4.8791056569547431e+00  4.7730566324735646e+00  4.6670076109285485e+00  4.5609585923220912e+00  4.4549095766502216e+00  4.3488605639196374e+00  4.2428115541192799e+00  4.1367625472674545e+00  4.0307135433344161e+00  3.9246645423683315e+00  3.8186155442924798e+00  3.7125665492285589e+00  3.6065175569867063e+00  3.5004685678610361e+00  3.3944195814032398e+00  3.2883705982905593e+00  3.1823216175156763e+00  3.0762726405596497e+00  2.9702236652754639e+00  2.8641746947264077e+00  2.7581257245894149e+00  2.6520767608132045e+00  2.5460277952400667e+00  2.4399788385199583e+00  2.3339298765300263e+00  2.2278809259789818e+00  2.1218319660789273e+00  2.0157830166466004e+00  1.9097340610458284e+00  1.8036851035889332e+00  1.6976361795153718e+00  1.5915871520058789e+00  1.4855380690230839e+00  1.3794877347800207e+00  1.2734353186701586e+00  1.1673757612139251e+00  1.0613080738522664e+00  9.5522460033247880e-01  8.4913953954211008e-01  7.4304677063682045e-01  6.3699193997803905e-01  5.3092894692497483e-01  4.2500596628009574e-01  3.1893761424798789e-01  2.1342701130988603e-01  1.0575884066112903e-01  2.2789422127794303e-03  8.4312121926937653e+00  8.3253715215261792e+00  8.2193388930485760e+00  8.1133029514137540e+00  8.0072568183639117e+00  7.9012080473948316e+00  7.7951585542754414e+00  7.6891090175793995e+00  7.5830595991573615e+00  7.4770103013585620e+00  7.3709610897765518e+00  7.2649119328649485e+00  7.1588628085445674e+00  7.0528137033922080e+00  6.9467646097097537e+00  6.8407155233848611e+00  6.7346664422429470e+00  6.6286173651829454e+00  6.5225682916371044e+00  6.4165192213235889e+00  6.3104701540971551e+00  6.2044210898856598e+00  6.0983720286516467e+00  5.9923229703760770e+00  5.8862739150490562e+00  5.7802248626653299e+00  5.6741758132221749e+00  5.5681267667179490e+00  5.4620777231519950e+00  5.3560286825237711e+00  5.2499796448330329e+00  5.1439306100795079e+00  5.0378815782632955e+00  4.9318325493840849e+00  4.8257835234422526e+00  4.7197345004370881e+00  4.6136854803697087e+00  4.5076364632381729e+00  4.4015874490456319e+00  4.2955384377868926e+00  4.1894894294702576e+00  4.0834404240823705e+00  3.9773914216441884e+00  3.8713424221227002e+00  3.7652934255685411e+00  3.6592444319042015e+00  3.5531954412451396e+00  3.4471464534198217e+00  3.3410974686754487e+00  3.2350484866564848e+00  3.1289995078556427e+00  3.0229505315901384e+00  2.9169015587584730e+00  2.8108525881686828e+00  2.7048036212661284e+00  2.5987546562422175e+00  2.4927056949222237e+00  2.3866567352294124e+00  2.2806077780202272e+00  2.1745588228377879e+00  2.0685098653567713e+00  1.9624609140255198e+00  1.8564119511552777e+00  1.7503630141173716e+00  1.6443140256777740e+00  1.5382649767131498e+00  1.4322152291757813e+00  1.3261638196171723e+00  1.2201076470696812e+00  1.1140437203996882e+00  1.0079676193363680e+00  9.0188251965738897e-01  7.9579374985387930e-01  6.8971964709918887e-01  5.8366635164343539e-01  4.7765999407863519e-01  3.7170198724767228e-01  2.6574119137456748e-01  1.5962060782459761e-01  5.2012188991065460e-02  8.4319597335974752e+00  8.3255917088024169e+00  8.2195732552121790e+00  8.1135248984430124e+00  8.0074757859266814e+00  7.9014259137770857e+00  7.7953760842038191e+00  7.6893264559309182e+00  7.5832770206036626e+00  7.4772277254214687e+00  7.3711785190546664e+00  7.2651293660924781e+00  7.1590802440576260e+00  7.0530311401649355e+00  6.9469820471123240e+00  6.8409329611144543e+00  6.7348838801221547e+00  6.6288348031381945e+00  6.5227857296224574e+00  6.4167366593234600e+00  6.31068759209