<?xml version="1.0"?>
<VTKFile type="UnstructuredGrid"  version="0.1"  >
<UnstructuredGrid>
<Piece  NumberOfPoints="1369" NumberOfCells="2560">
<Points>
<DataArray  type="Float64"  NumberOfComponents="3"  format="ascii">0 0 0  0.75 0 0  1.5 0 0  2.25 0 0  3 0 0  3.75 0 0  4.5 0 0  5.25 0 0  6 0 0  6.75 0 0  7.5 0 0  8.25 0 0  9 0 0  9.75 0 0  10.5 0 0  11.25 0 0  12 0 0  12.75 0 0  13.5 0 0  14.25 0 0  15 0 0  15.75 0 0  16.5 0 0  17.25 0 0  18 0 0  18.75 0 0  19.5 0 0  20.25 0 0  21 0 0  21.75 0 0  22.5 0 0  23.25 0 0  24 0 0  24.75 0 0  25.5 0 0  26.25 0 0  27 0 0  27.75 0 0  28.5 0 0  29.25 0 0  30 0 0  30.75 0 0  31.5 0 0  32.25 0 0  33 0 0  33.75 0 0  34.5 0 0  35.25 0 0  36 0 0  36.75 0 0  37.5 0 0  38.25 0 0  39 0 0  39.75 0 0  40.5 0 0  41.25 0 0  42 0 0  42.75 0 0  43.5 0 0  44.25 0 0  45 0 0  45.75 0 0  46.5 0 0  47.25 0 0  48 0 0  48.75 0 0  49.5 0 0  50.25 0 0  51 0 0  51.75 0 0  52.5 0 0  53.25 0 0  54 0 0  54.75 0 0  55.5 0 0  56.25 0 0  57 0 0  57.75 0 0  58.5 0 0  59.25 0 0  60 0 0  0 0.5 0  0.75 0.5 0  1.5 0.5 0  2.25 0.5 0  3 0.5 0  3.75 0.5 0  4.5 0.5 0  5.25 0.5 0  6 0.5 0  6.75 0.5 0  7.5 0.5 0  8.25 0.5 0  9 0.5 0  9.75 0.5 0  10.5 0.5 0  11.25 0.5 0  12 0.5 0  12.75 0.5 0  13.5 0.5 0  14.25 0.5 0  15 0.5 0  15.75 0.5 0  16.5 0.5 0  17.25 0.5 0  18 0.5 0  18.75 0.5 0  19.5 0.5 0  20.25 0.5 0  21 0.5 0  21.75 0.5 0  22.5 0.5 0  23.25 0.5 0  24 0.5 0  24.75 0.5 0  25.5 0.5 0  26.25 0.5 0  27 0.5 0  27.75 0.5 0  28.5 0.5 0  29.25 0.5 0  30 0.5 0  30.75 0.5 0  31.5 0.5 0  32.25 0.5 0  33 0.5 0  33.75 0.5 0  34.5 0.5 0  35.25 0.5 0  36 0.5 0  36.75 0.5 0  37.5 0.5 0  38.25 0.5 0  39 0.5 0  39.75 0.5 0  40.5 0.5 0  41.25 0.5 0  42 0.5 0  42.75 0.5 0  43.5 0.5 0  44.25 0.5 0  45 0.5 0  45.75 0.5 0  46.5 0.5 0  47.25 0.5 0  48 0.5 0  48.75 0.5 0  49.5 0.5 0  50.25 0.5 0  51 0.5 0  51.75 0.5 0  52.5 0.5 0  53.25 0.5 0  54 0.5 0  54.75 0.5 0  55.5 0.5 0  56.25 0.5 0  57 0.5 0  57.75 0.5 0  58.5 0.5 0  59.25 0.5 0  60 0.5 0  0 1 0  0.75 1 0  1.5 1 0  2.25 1 0  3 1 0  3.75 1 0  4.5 1 0  5.25 1 0  6 1 0  6.75 1 0  7.5 1 0  8.25 1 0  9 1 0  9.75 1 0  10.5 1 0  11.25 1 0  12 1 0  12.75 1 0  13.5 1 0  14.25 1 0  15 1 0  15.75 1 0  16.5 1 0  17.25 1 0  18 1 0  18.75 1 0  19.5 1 0  20.25 1 0  21 1 0  21.75 1 0  22.5 1 0  23.25 1 0  24 1 0  24.75 1 0  25.5 1 0  26.25 1 0  27 1 0  27.75 1 0  28.5 1 0  29.25 1 0  30 1 0  30.75 1 0  31.5 1 0  32.25 1 0  33 1 0  33.75 1 0  34.5 1 0  35.25 1 0  36 1 0  36.75 1 0  37.5 1 0  38.25 1 0  39 1 0  39.75 1 0  40.5 1 0  41.25 1 0  42 1 0  42.75 1 0  43.5 1 0  44.25 1 0  45 1 0  45.75 1 0  46.5 1 0  47.25 1 0  48 1 0  48.75 1 0  49.5 1 0  50.25 1 0  51 1 0  51.75 1 0  52.5 1 0  53.25 1 0  54 1 0  54.75 1 0  55.5 1 0  56.25 1 0  57 1 0  57.75 1 0  58.5 1 0  59.25 1 0  60 1 0  0 1.5 0  0.75 1.5 0  1.5 1.5 0  2.25 1.5 0  3 1.5 0  3.75 1.5 0  4.5 1.5 0  5.25 1.5 0  6 1.5 0  6.75 1.5 0  7.5 1.5 0  8.25 1.5 0  9 1.5 0  9.75 1.5 0  10.5 1.5 0  11.25 1.5 0  12 1.5 0  12.75 1.5 0  13.5 1.5 0  14.25 1.5 0  15 1.5 0  15.75 1.5 0  16.5 1.5 0  17.25 1.5 0  18 1.5 0  18.75 1.5 0  19.5 1.5 0  20.25 1.5 0  21 1.5 0  21.75 1.5 0  22.5 1.5 0  23.25 1.5 0  24 1.5 0  24.75 1.5 0  25.5 1.5 0  26.25 1.5 0  27 1.5 0  27.75 1.5 0  28.5 1.5 0  29.25 1.5 0  30 1.5 0  30.75 1.5 0  31.5 1.5 0  32.25 1.5 0  33 1.5 0  33.75 1.5 0  34.5 1.5 0  35.25 1.5 0  36 1.5 0  36.75 1.5 0  37.5 1.5 0  38.25 1.5 0  39 1.5 0  39.75 1.5 0  40.5 1.5 0  41.25 1.5 0  42 1.5 0  42.75 1.5 0  43.5 1.5 0  44.25 1.5 0  45 1.5 0  45.75 1.5 0  46.5 1.5 0  47.25 1.5 0  48 1.5 0  48.75 1.5 0  49.5 1.5 0  50.25 1.5 0  51 1.5 0  51.75 1.5 0  52.5 1.5 0  53.25 1.5 0  54 1.5 0  54.75 1.5 0  55.5 1.5 0  56.25 1.5 0  57 1.5 0  57.75 1.5 0  58.5 1.5 0  59.25 1.5 0  60 1.5 0  0 2 0  0.75 2 0  1.5 2 0  2.25 2 0  3 2 0  3.75 2 0  4.5 2 0  5.25 2 0  6 2 0  6.75 2 0  7.5 2 0  8.25 2 0  9 2 0  9.75 2 0  10.5 2 0  11.25 2 0  12 2 0  12.75 2 0  13.5 2 0  14.25 2 0  15 2 0  15.75 2 0  16.5 2 0  17.25 2 0  18 2 0  18.75 2 0  19.5 2 0  20.25 2 0  21 2 0  21.75 2 0  22.5 2 0  23.25 2 0  24 2 0  24.75 2 0  25.5 2 0  26.25 2 0  27 2 0  27.75 2 0  28.5 2 0  29.25 2 0  30 2 0  30.75 2 0  31.5 2 0  32.25 2 0  33 2 0  33.75 2 0  34.5 2 0  35.25 2 0  36 2 0  36.75 2 0  37.5 2 0  38.25 2 0  39 2 0  39.75 2 0  40.5 2 0  41.25 2 0  42 2 0  42.75 2 0  43.5 2 0  44.25 2 0  45 2 0  45.75 2 0  46.5 2 0  47.25 2 0  48 2 0  48.75 2 0  49.5 2 0  50.25 2 0  51 2 0  51.75 2 0  52.5 2 0  53.25 2 0  54 2 0  54.75 2 0  55.5 2 0  56.25 2 0  57 2 0  57.75 2 0  58.5 2 0  59.25 2 0  60 2 0  0 2.5 0  0.75 2.5 0  1.5 2.5 0  2.25 2.5 0  3 2.5 0  3.75 2.5 0  4.5 2.5 0  5.25 2.5 0  6 2.5 0  6.75 2.5 0  7.5 2.5 0  8.25 2.5 0  9 2.5 0  9.75 2.5 0  10.5 2.5 0  11.25 2.5 0  12 2.5 0  12.75 2.5 0  13.5 2.5 0  14.25 2.5 0  15 2.5 0  15.75 2.5 0  16.5 2.5 0  17.25 2.5 0  18 2.5 0  18.75 2.5 0  19.5 2.5 0  20.25 2.5 0  21 2.5 0  21.75 2.5 0  22.5 2.5 0  23.25 2.5 0  24 2.5 0  24.75 2.5 0  25.5 2.5 0  26.25 2.5 0  27 2.5 0  27.75 2.5 0  28.5 2.5 0  29.25 2.5 0  30 2.5 0  30.75 2.5 0  31.5 2.5 0  32.25 2.5 0  33 2.5 0  33.75 2.5 0  34.5 2.5 0  35.25 2.5 0  36 2.5 0  36.75 2.5 0  37.5 2.5 0  38.25 2.5 0  39 2.5 0  39.75 2.5 0  40.5 2.5 0  41.25 2.5 0  42 2.5 0  42.75 2.5 0  43.5 2.5 0  44.25 2.5 0  45 2.5 0  45.75 2.5 0  46.5 2.5 0  47.25 2.5 0  48 2.5 0  48.75 2.5 0  49.5 2.5 0  50.25 2.5 0  51 2.5 0  51.75 2.5 0  52.5 2.5 0  53.25 2.5 0  54 2.5 0  54.75 2.5 0  55.5 2.5 0  56.25 2.5 0  57 2.5 0  57.75 2.5 0  58.5 2.5 0  59.25 2.5 0  60 2.5 0  0 3 0  0.75 3 0  1.5 3 0  2.25 3 0  3 3 0  3.75 3 0  4.5 3 0  5.25 3 0  6 3 0  6.75 3 0  7.5 3 0  8.25 3 0  9 3 0  9.75 3 0  10.5 3 0  11.25 3 0  12 3 0  12.75 3 0  13.5 3 0  14.25 3 0  15 3 0  15.75 3 0  16.5 3 0  17.25 3 0  18 3 0  18.75 3 0  19.5 3 0  20.25 3 0  21 3 0  21.75 3 0  22.5 3 0  23.25 3 0  24 3 0  24.75 3 0  25.5 3 0  26.25 3 0  27 3 0  27.75 3 0  28.5 3 0  29.25 3 0  30 3 0  30.75 3 0  31.5 3 0  32.25 3 0  33 3 0  33.75 3 0  34.5 3 0  35.25 3 0  36 3 0  36.75 3 0  37.5 3 0  38.25 3 0  39 3 0  39.75 3 0  40.5 3 0  41.25 3 0  42 3 0  42.75 3 0  43.5 3 0  44.25 3 0  45 3 0  45.75 3 0  46.5 3 0  47.25 3 0  48 3 0  48.75 3 0  49.5 3 0  50.25 3 0  51 3 0  51.75 3 0  52.5 3 0  53.25 3 0  54 3 0  54.75 3 0  55.5 3 0  56.25 3 0  57 3 0  57.75 3 0  58.5 3 0  59.25 3 0  60 3 0  0 3.5 0  0.75 3.5 0  1.5 3.5 0  2.25 3.5 0  3 3.5 0  3.75 3.5 0  4.5 3.5 0  5.25 3.5 0  6 3.5 0  6.75 3.5 0  7.5 3.5 0  8.25 3.5 0  9 3.5 0  9.75 3.5 0  10.5 3.5 0  11.25 3.5 0  12 3.5 0  12.75 3.5 0  13.5 3.5 0  14.25 3.5 0  15 3.5 0  15.75 3.5 0  16.5 3.5 0  17.25 3.5 0  18 3.5 0  18.75 3.5 0  19.5 3.5 0  20.25 3.5 0  21 3.5 0  21.75 3.5 0  22.5 3.5 0  23.25 3.5 0  24 3.5 0  24.75 3.5 0  25.5 3.5 0  26.25 3.5 0  27 3.5 0  27.75 3.5 0  28.5 3.5 0  29.25 3.5 0  30 3.5 0  30.75 3.5 0  31.5 3.5 0  32.25 3.5 0  33 3.5 0  33.75 3.5 0  34.5 3.5 0  35.25 3.5 0  36 3.5 0  36.75 3.5 0  37.5 3.5 0  38.25 3.5 0  39 3.5 0  39.75 3.5 0  40.5 3.5 0  41.25 3.5 0  42 3.5 0  42.75 3.5 0  43.5 3.5 0  44.25 3.5 0  45 3.5 0  45.75 3.5 0  46.5 3.5 0  47.25 3.5 0  48 3.5 0  48.75 3.5 0  49.5 3.5 0  50.25 3.5 0  51 3.5 0  51.75 3.5 0  52.5 3.5 0  53.25 3.5 0  54 3.5 0  54.75 3.5 0  55.5 3.5 0  56.25 3.5 0  57 3.5 0  57.75 3.5 0  58.5 3.5 0  59.25 3.5 0  60 3.5 0  0 4 0  0.75 4 0  1.5 4 0  2.25 4 0  3 4 0  3.75 4 0  4.5 4 0  5.25 4 0  6 4 0  6.75 4 0  7.5 4 0  8.25 4 0  9 4 0  9.75 4 0  10.5 4 0  11.25 4 0  12 4 0  12.75 4 0  13.5 4 0  14.25 4 0  15 4 0  15.75 4 0  16.5 4 0  17.25 4 0  18 4 0  18.75 4 0  19.5 4 0  20.25 4 0  21 4 0  21.75 4 0  22.5 4 0  23.25 4 0  24 4 0  24.75 4 0  25.5 4 0  26.25 4 0  27 4 0  27.75 4 0  28.5 4 0  29.25 4 0  30 4 0  30.75 4 0  31.5 4 0  32.25 4 0  33 4 0  33.75 4 0  34.5 4 0  35.25 4 0  36 4 0  36.75 4 0  37.5 4 0  38.25 4 0  39 4 0  39.75 4 0  40.5 4 0  41.25 4 0  42 4 0  42.75 4 0  43.5 4 0  44.25 4 0  45 4 0  45.75 4 0  46.5 4 0  47.25 4 0  48 4 0  48.75 4 0  49.5 4 0  50.25 4 0  51 4 0  51.75 4 0  52.5 4 0  53.25 4 0  54 4 0  54.75 4 0  55.5 4 0  56.25 4 0  57 4 0  57.75 4 0  58.5 4 0  59.25 4 0  60 4 0  0.375 0.25 0  1.125 0.25 0  1.875 0.25 0  2.625 0.25 0  3.375 0.25 0  4.125 0.25 0  4.875 0.25 0  5.625 0.25 0  6.375 0.25 0  7.125 0.25 0  7.875 0.25 0  8.625 0.25 0  9.375 0.25 0  10.125 0.25 0  10.875 0.25 0  11.625 0.25 0  12.375 0.25 0  13.125 0.25 0  13.875 0.25 0  14.625 0.25 0  15.375 0.25 0  16.125 0.25 0  16.875 0.25 0  17.625 0.25 0  18.375 0.25 0  19.125 0.25 0  19.875 0.25 0  20.625 0.25 0  21.375 0.25 0  22.125 0.25 0  22.875 0.25 0  23.625 0.25 0  24.375 0.25 0  25.125 0.25 0  25.875 0.25 0  26.625 0.25 0  27.375 0.25 0  28.125 0.25 0  28.875 0.25 0  29.625 0.25 0  30.375 0.25 0  31.125 0.25 0  31.875 0.25 0  32.625 0.25 0  33.375 0.25 0  34.125 0.25 0  34.875 0.25 0  35.625 0.25 0  36.375 0.25 0  37.125 0.25 0  37.875 0.25 0  38.625 0.25 0  39.375 0.25 0  40.125 0.25 0  40.875 0.25 0  41.625 0.25 0  42.375 0.25 0  43.125 0.25 0  43.875 0.25 0  44.625 0.25 0  45.375 0.25 0  46.125 0.25 0  46.875 0.25 0  47.625 0.25 0  48.375 0.25 0  49.125 0.25 0  49.875 0.25 0  50.625 0.25 0  51.375 0.25 0  52.125 0.25 0  52.875 0.25 0  53.625 0.25 0  54.375 0.25 0  55.125 0.25 0  55.875 0.25 0  56.625 0.25 0  57.375 0.25 0  58.125 0.25 0  58.875 0.25 0  59.625 0.25 0  0.375 0.75 0  1.125 0.75 0  1.875 0.75 0  2.625 0.75 0  3.375 0.75 0  4.125 0.75 0  4.875 0.75 0  5.625 0.75 0  6.375 0.75 0  7.125 0.75 0  7.875 0.75 0  8.625 0.75 0  9.375 0.75 0  10.125 0.75 0  10.875 0.75 0  11.625 0.75 0  12.375 0.75 0  13.125 0.75 0  13.875 0.75 0  14.625 0.75 0  15.375 0.75 0  16.125 0.75 0  16.875 0.75 0  17.625 0.75 0  18.375 0.75 0  19.125 0.75 0  19.875 0.75 0  20.625 0.75 0  21.375 0.75 0  22.125 0.75 0  22.875 0.75 0  23.625 0.75 0  24.375 0.75 0  25.125 0.75 0  25.875 0.75 0  26.625 0.75 0  27.375 0.75 0  28.125 0.75 0  28.875 0.75 0  29.625 0.75 0  30.375 0.75 0  31.125 0.75 0  31.875 0.75 0  32.625 0.75 0  33.375 0.75 0  34.125 0.75 0  34.875 0.75 0  35.625 0.75 0  36.375 0.75 0  37.125 0.75 0  37.875 0.75 0  38.625 0.75 0  39.375 0.75 0  40.125 0.75 0  40
[...]
<PointData  Scalars="f_8-1"> 
<DataArray  type="Float64"  Name="f_8-1"  format="ascii">-1.1410001265038728e+01  -1.1268890325929554e+01  -1.1118908522795470e+01  -1.0967368603550227e+01  -1.0814335577299216e+01  -1.0664259743004161e+01  -1.0516115285094775e+01  -1.0370759777849917e+01  -1.0226657719575659e+01  -1.0083769237804178e+01  -9.9413604703679699e+00  -9.7993075998081487e+00  -9.6574036557610743e+00  -9.5155394286473474e+00  -9.3737099456817461e+00  -9.2318341244902111e+00  -9.0899574456718106e+00  -8.9480245547703028e+00  -8.8060823618844903e+00  -8.6640975505895348e+00  -8.5221057566451677e+00  -8.3800867947335682e+00  -8.2380639866274308e+00  -8.0960258087079691e+00  -7.9539877633369009e+00  -7.8119440984579160e+00  -7.6699046686255414e+00  -7.5278659354237822e+00  -7.3858330171821640e+00  -7.2438028711829539e+00  -7.1017775626586310e+00  -6.9597545606435762e+00  -6.8177345743016700e+00  -6.6757158428795460e+00  -6.5336986636479901e+00  -6.3916819864666525e+00  -6.2496660146143634e+00  -6.1076501789911459e+00  -5.9656346435893681e+00  -5.8236191116973064e+00  -5.6816037063848208e+00  -5.5395882721068661e+00  -5.3975728928769042e+00  -5.2555574847694517e+00  -5.1135421013937741e+00  -4.9715266959917344e+00  -4.8295113014055611e+00  -4.6874958909449500e+00  -4.5454804842865570e+00  -4.4034650659703569e+00  -4.2614496476534578e+00  -4.1194342203129866e+00  -3.9774187908181977e+00  -3.8354033538847996e+00  -3.6933879135503105e+00  -3.5513724667150628e+00  -3.4093570157482227e+00  -3.2673415588288273e+00  -3.1253260973433576e+00  -2.9833106302172894e+00  -2.8412951582551269e+00  -2.6992796808123614e+00  -2.5572641983403694e+00  -2.4152487104296734e+00  -2.2732332172987668e+00  -2.1312177186368348e+00  -1.9892022144638883e+00  -1.8471867044222385e+00  -1.7051711882180611e+00  -1.5631556650458152e+00  -1.4211401334261067e+00  -1.2791245896991283e+00  -1.1371090247494864e+00  -9.9509341341112600e-01  -8.5307769344665374e-01  -7.1106162987015042e-01  -5.6904519145119181e-01  -4.2702257786417841e-01  -2.8503034208341321e-01  -1.4272138752425537e-01  -3.4558515846544197e-03  -1.1414040481270826e+01  -1.1267172571786839e+01  -1.1120407584606587e+01  -1.0967100713800797e+01  -1.0815304516714630e+01  -1.0664360023375055e+01  -1.0516586740282836e+01  -1.0370978080722063e+01  -1.0226863774765798e+01  -1.0083995633697835e+01  -9.9414611269097204e+00  -9.7995049274100428e+00  -9.6574764484570199e+00  -9.5157050119533135e+00  -9.3737827942999346e+00  -9.2319753533035076e+00  -9.0900378094854979e+00  -8.9481498868026446e+00  -8.8061697251773534e+00  -8.6642126550478693e+00  -8.5221979971416566e+00  -8.3801957388290838e+00  -8.2381593173647936e+00  -8.0961307958664683e+00  -7.9540844536946569e+00  -7.8120461671966472e+00  -7.6700016887155718e+00  -7.5279660090762439e+00  -7.3859301395278063e+00  -7.2439018216031537e+00  -7.1018748529898188e+00  -6.9598529760761849e+00  -6.8178320649547413e+00  -6.6758140200776985e+00  -6.5337963178604470e+00  -6.3917800506897473e+00  -6.2497637767850112e+00  -6.1077481819447703e+00  -5.9657324696223286e+00  -5.8237170780553447e+00  -5.6817015685547396e+00  -5.5396862159691995e+00  -5.3976707753621511e+00  -5.2556554148984009e+00  -5.1136399954123837e+00  -4.9716246178602317e+00  -4.8296092020540371e+00  -4.6875938079045483e+00  -4.5455783887828396e+00  -4.4035629800345149e+00  -4.2615475543969543e+00  -4.1195321326760448e+00  -3.9775166988797244e+00  -3.8355012652504152e+00  -3.6934858223877569e+00  -3.5514703774967158e+00  -3.4094549250443023e+00  -3.2674394692695667e+00  -3.1254240069120431e+00  -2.9834085404602435e+00  -2.8413930679872395e+00  -2.6993775909420443e+00  -2.5573621081717963e+00  -2.4153466204961171e+00  -2.2733311271923715e+00  -2.1313156286722030e+00  -1.9893001244083075e+00  -1.8472846144819677e+00  -1.7052690983246432e+00  -1.5632535755269534e+00  -1.4212380448539199e+00  -1.2792225040700438e+00  -1.1372069475600255e+00  -9.9519136165457212e-01  -8.5317570742999826e-01  -7.1115991106707355e-01  -5.6914349149508692e-01  -4.2712813937548172e-01  -2.8508902855512541e-01  -1.4327317734016029e-01  4.1423510034559917e-04  -1.1409973334872692e+01  -1.1269348909121046e+01  -1.1116861574891926e+01  -1.0967997261987744e+01  -1.0814515378348721e+01  -1.0665165751147574e+01  -1.0517188624814784e+01  -1.0371407135787361e+01  -1.0227601344338710e+01  -1.0084130612821202e+01  -9.9420249632856255e+00  -9.7995334120453332e+00  -9.6578698895531598e+00  -9.5157235417192574e+00  -9.3740580324641130e+00  -9.2320118496787025e+00  -9.0902396481417416e+00  -8.9482070318339595e+00  -8.8063279763821569e+00  -8.6642850611911868e+00  -8.5223307981547514e+00  -8.3802785166174285e+00  -8.2382777490842436e+00  -8.0962199757643081e+00  -7.9541941709214523e+00  -7.8121385312046359e+00  -7.6701057652547906e+00  -7.5280598695706864e+00  -7.3860308179271668e+00  -7.2439966238029898e+00  -7.1019737235347620e+00  -6.9599485143940178e+00  -6.8179300454951646e+00  -6.6759101049186853e+00  -6.5338938554430923e+00  -6.3918764962900294e+00  -6.2498610766011087e+00  -6.1078448456030836e+00  -5.9658296320264323e+00  -5.8238138676079929e+00  -5.6817986487075078e+00  -5.5397830771956782e+00  -5.3977678060464624e+00  -5.2557523170550473e+00  -5.1137369965504131e+00  -4.9717215435857671e+00  -4.8297061856859429e+00  -4.6876907473028853e+00  -4.5456753621022861e+00  -4.4036599274039663e+00  -4.2616445216619168e+00  -4.1196290847072241e+00  -3.9776136625956413e+00  -3.8355982200151888e+00  -3.6935827840247484e+00  -3.5515673338703753e+00  -3.4095518854657971e+00  -3.2675364265973985e+00  -3.1255209666295678e+00  -2.9835054983662901e+00  -2.8414900273135566e+00  -2.6994745492233685e+00  -2.5574590673178021e+00  -2.4154435790707591e+00  -2.2734280863324456e+00  -2.1314125875476067e+00  -1.9893970836755082e+00  -1.8473815735557992e+00  -1.7053660572049063e+00  -1.5633505326114876e+00  -1.4213349962891946e+00  -1.2793194374491406e+00  -1.1373038269658584e+00  -9.9528808109980149e-01  -8.5327196065624855e-01  -7.1125476801606236e-01  -5.6923453619788755e-01  -4.2720478920916599e-01  -2.8515210850745615e-01  -1.4294148623012320e-01  -2.3928987982362109e-05  -1.1409386385213701e+01  -1.1268202382414580e+01  -1.1114380696296086e+01  -1.0968520844758192e+01  -1.0813807278994556e+01  -1.0667279241785961e+01  -1.0517107595455169e+01  -1.0373186938856833e+01  -1.0227383151433378e+01  -1.0085222931253201e+01  -9.9417280853285135e+00  -9.8001460529798390e+00  -9.6576083485971207e+00  -9.5160578808763034e+00  -9.3738654851356991e+00  -9.2321911101054610e+00  -9.0901077322347419e+00  -8.9483009354961300e+00  -8.8062406542600495e+00  -8.6643324547198635e+00  -8.5222728753492039e+00  -8.3803000986538425e+00  -8.2382384782503610e+00  -8.0962276425573485e+00  -7.9541667185256157e+00  -7.8121384852173943e+00  -7.6700850788789401e+00  -7.5280548260030828e+00  -7.3860134134875723e+00  -7.2439880501580101e+00  -7.1019577556116795e+00  -6.9599375849523764e+00  -6.8179147623513847e+00  -6.6758977553740442e+00  -6.5338789826449162e+00  -6.3918633566458869e+00  -6.2498464859072564e+00  -6.1078312833545843e+00  -5.9658152352916582e+00  -5.8238000798767811e+00  -5.6817843790650056e+00  -5.5397691667773916e+00  -5.3977536159553496e+00  -5.2557383381665046e+00  -5.1137228547235551e+00  -4.9717075256774903e+00  -4.8296920726143266e+00  -4.6876767068578395e+00  -4.5456612659983335e+00  -4.4036458738499622e+00  -4.2616304355212327e+00  -4.1196150235045090e+00  -3.9775995822925996e+00  -3.8355841543444198e+00  -3.6935687071425347e+00  -3.5515532655895226e+00  -3.4095378105960514e+00  -3.2675223567977323e+00  -3.1255068929605616e+00  -2.9834914277025661e+00  -2.8414759543965160e+00  -2.6994604781187008e+00  -2.5574449949478009e+00  -2.4154295078583288e+00  -2.2734140145027526e+00  -2.1313985165586118e+00  -1.9893830124770400e+00  -1.8473675028223475e+00  -1.7053519855674097e+00  -1.5633364579448235e+00  -1.4213209100108923e+00  -1.2793053150982443e+00  -1.1372895953494335e+00  -9.9527352741004804e-01  -8.5325646589923976e-01  -7.1123654898823852e-01  -5.6920839813158375e-01  -4.2715659719941190e-01  -2.8503575157315575e-01  -1.4271303885067180e-01  -2.9011860818717401e-05  -1.1418604476962667e+01  -1.1260461300715487e+01  -1.1120754658792920e+01  -1.0962581538014822e+01  -1.0818544982638656e+01  -1.0663968085055082e+01  -1.0520150536950764e+01  -1.0371374428060919e+01  -1.0229093278511165e+01  -1.0084185299243734e+01  -9.9426356086869365e+00  -9.7995374305119682e+00  -9.6580849745025041e+00  -9.5156959107406287e+00  -9.3741172528058279e+00  -9.2319730421786002e+00  -9.0902406215312652e+00  -8.9481671430609104e+00  -8.8063097989682984e+00  -8.6642488087185079e+00  -8.5223070606651277e+00  -8.3802459301796279e+00  -8.2382529659782211e+00  -8.0961910267740969e+00  -7.9541703351255197e+00  -7.8121124816752685e+00  -7.6700825068816645e+00  -7.5280348484699848e+00  -7.3860068891668798e+00  -7.2439711755512004e+00  -7.1019485596975880e+00  -6.9599222448205147e+00  -6.8179038375516692e+00  -6.6758832224051732e+00  -6.5338670200787909e+00  -6.3918492968929081e+00  -6.2498339352584349e+00  -6.1078175197902720e+00  -5.9658023599994436e+00  -5.8237865030571827e+00  -5.6817713245925514e+00  -5.5397557054533628e+00  -5.3977404612449869e+00  -5.2557249467420748e+00  -5.1137096430207123e+00  -4.9716941759067899e+00  -4.8296788280848713e+00  -4.6876633816831079e+00  -4.5456480024097230e+00  -4.4036325631242867e+00  -4.2616171608260718e+00  -4.1196017212408016e+00  -3.9775863011192145e+00  -3.8355708570287881e+00  -3.6935554221920910e+00  -3.5515399711707882e+00  -3.4095245234482823e+00  -3.2675090640892095e+00  -3.1254936045492370e+00  -2.9834781360350990e+00  -2.8414626652995025e+00  -2.6994471871532140e+00  -2.5574317055807740e+00  -2.4154162175113725e+00  -2.2734007252779214e+00  -2.1313852270139959e+00  -1.9893697239338068e+00  -1.8473542144773820e+00  -1.7053386980197811e+00  -1.5633231697787824e+00  -1.4213076182001656e+00  -1.2792920081342873e+00  -1.1372762392779856e+00  -9.9526002068872066e-01  -8.5324251263820416e-01  -7.1122129161239767e-01  -5.6918938431972743e-01  -4.2712686748350970e-01  -2.8497877451387399e-01  -1.4263105042603180e-01  -4.0672129667018841e-05  -1.1409392807726830e+01  -1.1268163366359486e+01  -1.1114306634459911e+01  -1.0968429426519432e+01  -1.0813725790270180e+01  -1.0667207092400671e+01  -1.0517080994441278e+01  -1.0373171355175405e+01  -1.0227392649779071e+01  -1.0085230779420895e+01  -9.9417418135030609e+00  -9.8001541850612046e+00  -9.6576161048098399e+00  -9.5160617081890049e+00  -9.3738684390526146e+00  -9.2321922729183967e+00  -9.0901085371752615e+00  -8.9483011262366325e+00  -8.8062407880731683e+00  -8.6643324272943509e+00  -8.5222728729522217e+00  -8.3803000678105661e+00  -8.2382384737259127e+00  -8.0962276372240822e+00  -7.9541667266809473e+00  -7.8121384945735297e+00  -7.6700850931566773e+00  -7.5280548405367753e+00  -7.3860134295663364e+00  -7.2439880663006111e+00  -7.1019577723649370e+00  -6.9599376018606680e+00  -6.8179147796009136e+00  -6.6758977727855706e+00  -6.5338790002485183e+00  -6.3918633743526714e+00  -6.2498465037061264e+00  -6.1078313012022249e+00  -5.9658152531764710e+00  -5.8238000977801860e+00  -5.6817843969812589e+00  -5.5397691846995194e+00  -5.3977536338812824e+00  -5.2557383560939455e+00  -5.1137228726519490e+00  -4.9717075436061995e+00  -4.8296920905433218e+00  -4.6876767247870292e+00  -4.5456612839278669e+00  -4.4036458917800232e+00  -4.2616304534521934e+00  -4.1196150414369166e+00  -3.9775996002273946e+00  -3.8355841722830202e+00  -3.6935687250872657e+00  -3.5515532835440000e+00  -3.4095378285659903e+00  -3.2675223747920339e+00  -3.1255069109931028e+00  -2.9834914457947805e+00  -2.8414759725814007e+00  -2.6994604964467346e+00  -2.5574450134958253e+00  -2.4154295267425550e+00  -2.2734140338979381e+00  -2.1313985367258055e+00  -1.9893830338034446e+00  -1.8473675258779512e+00  -1.7053520111843279e+00  -1.5633364873265816e+00  -1.4213209448802022e+00  -1.2793053578915268e+00  -1.1372896494644413e+00  -9.9527359750548361e-01  -8.5325655822687474e-01  -7.1123667169144500e-01  -5.6920856127119879e-01  -4.2715681157619112e-01  -2.8503601899194075e-01  -1.4271328706863584e-01  -2.8998595771573350e-05  -1.1409804330321915e+01  -1.1269462416754969e+01  -1.1116658235787238e+01  -1.0967905658515102e+01  -1.0814287945522455e+01  -1.0665075664343808e+01  -1.0517098633534804e+01  -1.0371401870593068e+01  -1.0227598831249441e+01  -1.0084154814554690e+01  -9.9420407556549080e+00  -9.7995520130836624e+00  -9.6578801086243722e+00  -9.5157320003390051e+00  -9.3740619186168814e+00  -9.2320145871291341e+00  -9.0902405881130370e+00  -8.9482076422897894e+00  -8.8063280449628731e+00  -8.6642851222293160e+00  -8.5223307391571783e+00  -8.3802785079189253e+00  -8.2382777264620053e+00  -8.0962199878376993e+00  -7.9541941849061777e+00  -7.8121385603829294e+00  -7.6701057953911942e+00  -7.5280599049590258e+00  -7.3860308533403005e+00  -7.2439966610464319e+00  -7.1019737608575984e+00  -6.9599485525529934e+00  -6.8179300838519703e+00  -6.6759101437240655e+00  -6.5338938944166625e+00  -6.3918765354884650e+00  -6.2498611158920765e+00  -6.1078448849919793e+00  -5.9658296714539478e+00  -5.8238139070726751e+00  -5.6817986881849656e+00  -5.5397831166855935e+00  -5.3977678455395139e+00  -5.2557523565518514e+00  -5.1137370360475680e+00  -4.9717215830840535e+00  -4.8297062251841956e+00  -4.6876907868017925e+00  -4.5456754016015735e+00  -4.4036599669043586e+00  -4.2616445611638030e+00  -4.1196291242118050e+00  -3.9776137021044375e+00  -3.8355982595308658e+00  -3.6935828235513770e+00  -3.5515673734145059e+00  -3.4095519250375852e+00  -3.2675364662127677e+00  -3.1255210063132761e+00  -2.9835055381565980e+00  -2.8414900672692376e+00  -2.6994745894343306e+00  -2.5574591079207587e+00  -2.4154436202722955e+00  -2.2734281284429301e+00  -2.1314126310301735e+00  -1.9893971292164159e+00  -1.8473816221640453e+00  -1.7053661103516140e+00  -1.5633505924213640e+00  -1.4213350657985848e+00  -1.2793195209443426e+00  -1.1373039304115342e+00  -9.9528821265374923e-01  -8.5327213123720846e-01  -7.1125499181918006e-01  -5.6923483094382898e-01  -4.2720517459847057e-01  -2.8515260651468144e-01  -1.4294203676981010e-01  -2.3928201228679074e-05  -1.1414091350975861e+01  -1.1267180939309146e+01  -1.1120387575711520e+01  -1.0966899876523636e+01  -1.0815122711250236e+01  -1.0664194601446727e+01  -1.0516508054498177e+01  -1.0370942582290501e+01  -1.0226870049374932e+01  -1.0084011947905227e+01  -9.9414835653901505e+00  -9.7995224237878737e+00  -9.6574903476650107e+00  -9.5157135450309305e+00  -9.3737882722292287e+00  -9.2319781403270298e+00  -9.0900393205329895e+00  -8.9481504743585987e+00  -8.8061699794088195e+00  -8.6642126941621012e+00  -8.5221980080941435e+00  -8.3801957324054008e+00  -8.2381593373489341e+00  -8.0961308290079419e+00  -7.9540845055118066e+00  -7.8120462271745259e+00  -7.6700017561726854e+00  -7.5279660793241456e+00  -7.3859302121720898e+00  -7.2439018951476299e+00  -7.1018749274312327e+00  -6.9598530509951759e+00  -6.8178321403498030e+00  -6.6758140957915684e+00  -6.5337963938405856e+00  -6.3917801268533028e+00  -6.2497638530770629e+00  -6.1077482583236344e+00  -5.9657325460527524e+00  -5.8237171545207449e+00  -5.6817016450370508e+00  -5.5396862924639176e+00  -5.3976708518609815e+00  -5.2556554914012921e+00  -5.1136400719156443e+00  -4.9716246943649365e+00  -4.8296092785585518e+00  -4.6875938844100205e+00  -4.5455784652886484e+00  -4.4035630565418051e+00  -4.2615476309059943e+00  -4.1195322091884785e+00  -3.9775167753972558e+00  -3.8355013417764257e+00  -3.6934858989271171e+00  -3.5514704540574451e+00  -3.4094550016386815e+00  -3.2674395459169236e+00  -3.1254240836422826e+00  -2.9834086173195544e+00  -2.8413931450464194e+00  -2.6993776683091966e+00  -2.5573621860109363e+00  -2.4153466990546084e+00  -2.2733312068409686e+00  -2.1313157099628648e+00  -1.9893002081567370e+00  -1.8472847018841330e+00  -1.7052691911187781e+00  -1.5632536762147726e+00  -1.4212381569962154e+00  -1.2792226326701353e+00  -1.1372070995420598e+00  -9.9519154642561136e-01  -8.5317593747631248e-01  -7.1116020248210765e-01  -5.6914386397733885e-01  -4.2712861776366995e-01  -2.8508961688334339e-01  -1.4327412031555772e-01  4.1421062808009854e-04  -1.1409974683796328e+01  -1.1268943712894874e+01  -1.1118846718000194e+01  -1.0967199189883676e+01  -1.0814133286818100e+01  -1.0664108698766572e+01  -1.0516025634282620e+01  -1.0370729612012349e+01  -1.0226659205963518e+01  -1.0083787971654358e+01  -9.9413812765886309e+00  -9.7993263656604608e+00  -9.6574171087914475e+00  -9.5155486003183647e+00  -9.3737153244418963e+00  -9.2318372073007584e+00  -9.0899589462309773e+00  -8.9480252798614472e+00  -8.8060826338318172e+00  -8.6640976662444071e+00  -8.5221057996794336e+00  -8.3800868446045840e+00  -8.2380640467862580e+00  -8.0960258920132588e+00  -7.9539878594825062e+00  -7.8119442068679215e+00  -7.6699047823708746e+00  -7.5278660536199569e+00  -7.3858331369411232e+00  -7.2438029924913341e+00  -7.1017776845117622e+00  -6.9597546832236841e+00  -6.8177346972020505e+00  -6.6757159661985579e+00  -6.5336987871643180e+00  -6.3916821102100947e+00  -6.2496661384557290e+00  -6.1076503029400344e+00  -5.9656347675757457e+00  -5.8236192357289616e+00  -5.6816038304264991e+00  -5.5395883961662156e+00  -5.3975730169367759e+00  -5.2555576088361375e+00  -5.1135422254588789e+00  -4.9715268200597915e+00  -4.8295114254723321e+00  -4.6874960150135294e+00  -4.5454806083548496e+00  -4.4034651900406567e+00  -4.2614497717251885e+00  -4.1194343443884591e+00  -3.9774189148986343e+00  -3.8354034779740225e+00  -3.6933880376529462e+00  -3.5513725908394123e+00  -3.4093571399065272e+00  -3.2673416830406703e+00  -3.1253262216387148e+00  -2.9833107546426092e+00  -2.8412952828813443e+00  -2.6992798057477372e+00  -2.5572643237488148e+00  -2.4152488365580393e+00  -2.2732333445163171e+00  -2.1312178474923198e+00  -1.9892023457665300e+00  -1.8471868393558419e+00  -1.7051713284987939e+00  -1.5631558131366412e+00  -1.4211402928211430e+00  -1.2791247652892368e+00  -1.1371092232720832e+00  -9.9509364396724453e-01  -8.5307796802861779e-01  -7.1106196373242658e-01  -5.6904560336455867e-01  -4.2702308531492916e-01  -2.8503099207501392e-01  -1.4272190157715123e-01  -3.4589694557221949e-03  -1.1341072241464749e+01  -1.1194391573621346e+01  -1.1043674877874579e+01  -1.0891645174872574e+01  -1.0739903305893826e+01  -1.0590845971310777e+01  -1.0444040627578991e+01  -1.0299259361420424e+01  -1.0155767179666837e+01  -1.0013059690114202e+01  -9.8708472228459279e+00  -9.7288283246685872e+00  -9.5869613147167527e+00  -9.4450899531675176e+00  -9.3032494717389600e+00  -9.1613593020283801e+00  -9.0194623748494855e+00  -8.8775169113752241e+00  -8.7355581128446360e+00  -8.5935653174913078e+00  -8.4515627490781196e+00  -8.3095392869243199e+00  -8.1675103402869773e+00  -8.0254705928838206e+00  -7.8834304741252179e+00  -7.7413878542033308e+00  -7.5993491287355495e+00  -7.4573126585410030e+00  -7.3152813447624503e+00  -7.1732532689695709e+00  -7.0312292697135117e+00  -6.8892075964993120e+00  -6.7471883460101472e+00  -6.6051702971666550e+00  -6.4631534385636806e+00  -6.3211370625327419e+00  -6.1791212008561738e+00  -6.0371054856192501e+00  -5.8950899765992961e+00  -5.7530744904587321e+00  -5.6110590849365964e+00  -5.4690436677873455e+00  -5.3270282823973387e+00  -5.1850128805109010e+00  -5.0429974909453676e+00  -4.9009820873329168e+00  -4.7589666876335501e+00  -4.6169512769499468e+00  -4.4749358661238876e+00  -4.3329204465636311e+00  -4.1909050247169413e+00  -4.0488895955734803e+00  -3.9068741629432098e+00  -3.7648587238881968e+00  -3.6228432806530946e+00  -3.4808278315104806e+00  -3.3388123777793211e+00  -3.1967969184411142e+00  -3.0547814542660672e+00  -2.9127659846484688e+00  -2.7707505100287668e+00  -2.6287350300343135e+00  -2.4867195448972401e+00  -2.3447040543604603e+00  -2.2026885585021287e+00  -2.0606730570849541e+00  -1.9186575500218013e+00  -1.776642036960