<?xml version="1.0"?>
<VTKFile type="UnstructuredGrid"  version="0.1"  >
<UnstructuredGrid>
<Piece  NumberOfPoints="1369" NumberOfCells="2560">
<Points>
<DataArray  type="Float64"  NumberOfComponents="3"  format="ascii">0 0 0  0.75 0 0  1.5 0 0  2.25 0 0  3 0 0  3.75 0 0  4.5 0 0  5.25 0 0  6 0 0  6.75 0 0  7.5 0 0  8.25 0 0  9 0 0  9.75 0 0  10.5 0 0  11.25 0 0  12 0 0  12.75 0 0  13.5 0 0  14.25 0 0  15 0 0  15.75 0 0  16.5 0 0  17.25 0 0  18 0 0  18.75 0 0  19.5 0 0  20.25 0 0  21 0 0  21.75 0 0  22.5 0 0  23.25 0 0  24 0 0  24.75 0 0  25.5 0 0  26.25 0 0  27 0 0  27.75 0 0  28.5 0 0  29.25 0 0  30 0 0  30.75 0 0  31.5 0 0  32.25 0 0  33 0 0  33.75 0 0  34.5 0 0  35.25 0 0  36 0 0  36.75 0 0  37.5 0 0  38.25 0 0  39 0 0  39.75 0 0  40.5 0 0  41.25 0 0  42 0 0  42.75 0 0  43.5 0 0  44.25 0 0  45 0 0  45.75 0 0  46.5 0 0  47.25 0 0  48 0 0  48.75 0 0  49.5 0 0  50.25 0 0  51 0 0  51.75 0 0  52.5 0 0  53.25 0 0  54 0 0  54.75 0 0  55.5 0 0  56.25 0 0  57 0 0  57.75 0 0  58.5 0 0  59.25 0 0  60 0 0  0 0.5 0  0.75 0.5 0  1.5 0.5 0  2.25 0.5 0  3 0.5 0  3.75 0.5 0  4.5 0.5 0  5.25 0.5 0  6 0.5 0  6.75 0.5 0  7.5 0.5 0  8.25 0.5 0  9 0.5 0  9.75 0.5 0  10.5 0.5 0  11.25 0.5 0  12 0.5 0  12.75 0.5 0  13.5 0.5 0  14.25 0.5 0  15 0.5 0  15.75 0.5 0  16.5 0.5 0  17.25 0.5 0  18 0.5 0  18.75 0.5 0  19.5 0.5 0  20.25 0.5 0  21 0.5 0  21.75 0.5 0  22.5 0.5 0  23.25 0.5 0  24 0.5 0  24.75 0.5 0  25.5 0.5 0  26.25 0.5 0  27 0.5 0  27.75 0.5 0  28.5 0.5 0  29.25 0.5 0  30 0.5 0  30.75 0.5 0  31.5 0.5 0  32.25 0.5 0  33 0.5 0  33.75 0.5 0  34.5 0.5 0  35.25 0.5 0  36 0.5 0  36.75 0.5 0  37.5 0.5 0  38.25 0.5 0  39 0.5 0  39.75 0.5 0  40.5 0.5 0  41.25 0.5 0  42 0.5 0  42.75 0.5 0  43.5 0.5 0  44.25 0.5 0  45 0.5 0  45.75 0.5 0  46.5 0.5 0  47.25 0.5 0  48 0.5 0  48.75 0.5 0  49.5 0.5 0  50.25 0.5 0  51 0.5 0  51.75 0.5 0  52.5 0.5 0  53.25 0.5 0  54 0.5 0  54.75 0.5 0  55.5 0.5 0  56.25 0.5 0  57 0.5 0  57.75 0.5 0  58.5 0.5 0  59.25 0.5 0  60 0.5 0  0 1 0  0.75 1 0  1.5 1 0  2.25 1 0  3 1 0  3.75 1 0  4.5 1 0  5.25 1 0  6 1 0  6.75 1 0  7.5 1 0  8.25 1 0  9 1 0  9.75 1 0  10.5 1 0  11.25 1 0  12 1 0  12.75 1 0  13.5 1 0  14.25 1 0  15 1 0  15.75 1 0  16.5 1 0  17.25 1 0  18 1 0  18.75 1 0  19.5 1 0  20.25 1 0  21 1 0  21.75 1 0  22.5 1 0  23.25 1 0  24 1 0  24.75 1 0  25.5 1 0  26.25 1 0  27 1 0  27.75 1 0  28.5 1 0  29.25 1 0  30 1 0  30.75 1 0  31.5 1 0  32.25 1 0  33 1 0  33.75 1 0  34.5 1 0  35.25 1 0  36 1 0  36.75 1 0  37.5 1 0  38.25 1 0  39 1 0  39.75 1 0  40.5 1 0  41.25 1 0  42 1 0  42.75 1 0  43.5 1 0  44.25 1 0  45 1 0  45.75 1 0  46.5 1 0  47.25 1 0  48 1 0  48.75 1 0  49.5 1 0  50.25 1 0  51 1 0  51.75 1 0  52.5 1 0  53.25 1 0  54 1 0  54.75 1 0  55.5 1 0  56.25 1 0  57 1 0  57.75 1 0  58.5 1 0  59.25 1 0  60 1 0  0 1.5 0  0.75 1.5 0  1.5 1.5 0  2.25 1.5 0  3 1.5 0  3.75 1.5 0  4.5 1.5 0  5.25 1.5 0  6 1.5 0  6.75 1.5 0  7.5 1.5 0  8.25 1.5 0  9 1.5 0  9.75 1.5 0  10.5 1.5 0  11.25 1.5 0  12 1.5 0  12.75 1.5 0  13.5 1.5 0  14.25 1.5 0  15 1.5 0  15.75 1.5 0  16.5 1.5 0  17.25 1.5 0  18 1.5 0  18.75 1.5 0  19.5 1.5 0  20.25 1.5 0  21 1.5 0  21.75 1.5 0  22.5 1.5 0  23.25 1.5 0  24 1.5 0  24.75 1.5 0  25.5 1.5 0  26.25 1.5 0  27 1.5 0  27.75 1.5 0  28.5 1.5 0  29.25 1.5 0  30 1.5 0  30.75 1.5 0  31.5 1.5 0  32.25 1.5 0  33 1.5 0  33.75 1.5 0  34.5 1.5 0  35.25 1.5 0  36 1.5 0  36.75 1.5 0  37.5 1.5 0  38.25 1.5 0  39 1.5 0  39.75 1.5 0  40.5 1.5 0  41.25 1.5 0  42 1.5 0  42.75 1.5 0  43.5 1.5 0  44.25 1.5 0  45 1.5 0  45.75 1.5 0  46.5 1.5 0  47.25 1.5 0  48 1.5 0  48.75 1.5 0  49.5 1.5 0  50.25 1.5 0  51 1.5 0  51.75 1.5 0  52.5 1.5 0  53.25 1.5 0  54 1.5 0  54.75 1.5 0  55.5 1.5 0  56.25 1.5 0  57 1.5 0  57.75 1.5 0  58.5 1.5 0  59.25 1.5 0  60 1.5 0  0 2 0  0.75 2 0  1.5 2 0  2.25 2 0  3 2 0  3.75 2 0  4.5 2 0  5.25 2 0  6 2 0  6.75 2 0  7.5 2 0  8.25 2 0  9 2 0  9.75 2 0  10.5 2 0  11.25 2 0  12 2 0  12.75 2 0  13.5 2 0  14.25 2 0  15 2 0  15.75 2 0  16.5 2 0  17.25 2 0  18 2 0  18.75 2 0  19.5 2 0  20.25 2 0  21 2 0  21.75 2 0  22.5 2 0  23.25 2 0  24 2 0  24.75 2 0  25.5 2 0  26.25 2 0  27 2 0  27.75 2 0  28.5 2 0  29.25 2 0  30 2 0  30.75 2 0  31.5 2 0  32.25 2 0  33 2 0  33.75 2 0  34.5 2 0  35.25 2 0  36 2 0  36.75 2 0  37.5 2 0  38.25 2 0  39 2 0  39.75 2 0  40.5 2 0  41.25 2 0  42 2 0  42.75 2 0  43.5 2 0  44.25 2 0  45 2 0  45.75 2 0  46.5 2 0  47.25 2 0  48 2 0  48.75 2 0  49.5 2 0  50.25 2 0  51 2 0  51.75 2 0  52.5 2 0  53.25 2 0  54 2 0  54.75 2 0  55.5 2 0  56.25 2 0  57 2 0  57.75 2 0  58.5 2 0  59.25 2 0  60 2 0  0 2.5 0  0.75 2.5 0  1.5 2.5 0  2.25 2.5 0  3 2.5 0  3.75 2.5 0  4.5 2.5 0  5.25 2.5 0  6 2.5 0  6.75 2.5 0  7.5 2.5 0  8.25 2.5 0  9 2.5 0  9.75 2.5 0  10.5 2.5 0  11.25 2.5 0  12 2.5 0  12.75 2.5 0  13.5 2.5 0  14.25 2.5 0  15 2.5 0  15.75 2.5 0  16.5 2.5 0  17.25 2.5 0  18 2.5 0  18.75 2.5 0  19.5 2.5 0  20.25 2.5 0  21 2.5 0  21.75 2.5 0  22.5 2.5 0  23.25 2.5 0  24 2.5 0  24.75 2.5 0  25.5 2.5 0  26.25 2.5 0  27 2.5 0  27.75 2.5 0  28.5 2.5 0  29.25 2.5 0  30 2.5 0  30.75 2.5 0  31.5 2.5 0  32.25 2.5 0  33 2.5 0  33.75 2.5 0  34.5 2.5 0  35.25 2.5 0  36 2.5 0  36.75 2.5 0  37.5 2.5 0  38.25 2.5 0  39 2.5 0  39.75 2.5 0  40.5 2.5 0  41.25 2.5 0  42 2.5 0  42.75 2.5 0  43.5 2.5 0  44.25 2.5 0  45 2.5 0  45.75 2.5 0  46.5 2.5 0  47.25 2.5 0  48 2.5 0  48.75 2.5 0  49.5 2.5 0  50.25 2.5 0  51 2.5 0  51.75 2.5 0  52.5 2.5 0  53.25 2.5 0  54 2.5 0  54.75 2.5 0  55.5 2.5 0  56.25 2.5 0  57 2.5 0  57.75 2.5 0  58.5 2.5 0  59.25 2.5 0  60 2.5 0  0 3 0  0.75 3 0  1.5 3 0  2.25 3 0  3 3 0  3.75 3 0  4.5 3 0  5.25 3 0  6 3 0  6.75 3 0  7.5 3 0  8.25 3 0  9 3 0  9.75 3 0  10.5 3 0  11.25 3 0  12 3 0  12.75 3 0  13.5 3 0  14.25 3 0  15 3 0  15.75 3 0  16.5 3 0  17.25 3 0  18 3 0  18.75 3 0  19.5 3 0  20.25 3 0  21 3 0  21.75 3 0  22.5 3 0  23.25 3 0  24 3 0  24.75 3 0  25.5 3 0  26.25 3 0  27 3 0  27.75 3 0  28.5 3 0  29.25 3 0  30 3 0  30.75 3 0  31.5 3 0  32.25 3 0  33 3 0  33.75 3 0  34.5 3 0  35.25 3 0  36 3 0  36.75 3 0  37.5 3 0  38.25 3 0  39 3 0  39.75 3 0  40.5 3 0  41.25 3 0  42 3 0  42.75 3 0  43.5 3 0  44.25 3 0  45 3 0  45.75 3 0  46.5 3 0  47.25 3 0  48 3 0  48.75 3 0  49.5 3 0  50.25 3 0  51 3 0  51.75 3 0  52.5 3 0  53.25 3 0  54 3 0  54.75 3 0  55.5 3 0  56.25 3 0  57 3 0  57.75 3 0  58.5 3 0  59.25 3 0  60 3 0  0 3.5 0  0.75 3.5 0  1.5 3.5 0  2.25 3.5 0  3 3.5 0  3.75 3.5 0  4.5 3.5 0  5.25 3.5 0  6 3.5 0  6.75 3.5 0  7.5 3.5 0  8.25 3.5 0  9 3.5 0  9.75 3.5 0  10.5 3.5 0  11.25 3.5 0  12 3.5 0  12.75 3.5 0  13.5 3.5 0  14.25 3.5 0  15 3.5 0  15.75 3.5 0  16.5 3.5 0  17.25 3.5 0  18 3.5 0  18.75 3.5 0  19.5 3.5 0  20.25 3.5 0  21 3.5 0  21.75 3.5 0  22.5 3.5 0  23.25 3.5 0  24 3.5 0  24.75 3.5 0  25.5 3.5 0  26.25 3.5 0  27 3.5 0  27.75 3.5 0  28.5 3.5 0  29.25 3.5 0  30 3.5 0  30.75 3.5 0  31.5 3.5 0  32.25 3.5 0  33 3.5 0  33.75 3.5 0  34.5 3.5 0  35.25 3.5 0  36 3.5 0  36.75 3.5 0  37.5 3.5 0  38.25 3.5 0  39 3.5 0  39.75 3.5 0  40.5 3.5 0  41.25 3.5 0  42 3.5 0  42.75 3.5 0  43.5 3.5 0  44.25 3.5 0  45 3.5 0  45.75 3.5 0  46.5 3.5 0  47.25 3.5 0  48 3.5 0  48.75 3.5 0  49.5 3.5 0  50.25 3.5 0  51 3.5 0  51.75 3.5 0  52.5 3.5 0  53.25 3.5 0  54 3.5 0  54.75 3.5 0  55.5 3.5 0  56.25 3.5 0  57 3.5 0  57.75 3.5 0  58.5 3.5 0  59.25 3.5 0  60 3.5 0  0 4 0  0.75 4 0  1.5 4 0  2.25 4 0  3 4 0  3.75 4 0  4.5 4 0  5.25 4 0  6 4 0  6.75 4 0  7.5 4 0  8.25 4 0  9 4 0  9.75 4 0  10.5 4 0  11.25 4 0  12 4 0  12.75 4 0  13.5 4 0  14.25 4 0  15 4 0  15.75 4 0  16.5 4 0  17.25 4 0  18 4 0  18.75 4 0  19.5 4 0  20.25 4 0  21 4 0  21.75 4 0  22.5 4 0  23.25 4 0  24 4 0  24.75 4 0  25.5 4 0  26.25 4 0  27 4 0  27.75 4 0  28.5 4 0  29.25 4 0  30 4 0  30.75 4 0  31.5 4 0  32.25 4 0  33 4 0  33.75 4 0  34.5 4 0  35.25 4 0  36 4 0  36.75 4 0  37.5 4 0  38.25 4 0  39 4 0  39.75 4 0  40.5 4 0  41.25 4 0  42 4 0  42.75 4 0  43.5 4 0  44.25 4 0  45 4 0  45.75 4 0  46.5 4 0  47.25 4 0  48 4 0  48.75 4 0  49.5 4 0  50.25 4 0  51 4 0  51.75 4 0  52.5 4 0  53.25 4 0  54 4 0  54.75 4 0  55.5 4 0  56.25 4 0  57 4 0  57.75 4 0  58.5 4 0  59.25 4 0  60 4 0  0.375 0.25 0  1.125 0.25 0  1.875 0.25 0  2.625 0.25 0  3.375 0.25 0  4.125 0.25 0  4.875 0.25 0  5.625 0.25 0  6.375 0.25 0  7.125 0.25 0  7.875 0.25 0  8.625 0.25 0  9.375 0.25 0  10.125 0.25 0  10.875 0.25 0  11.625 0.25 0  12.375 0.25 0  13.125 0.25 0  13.875 0.25 0  14.625 0.25 0  15.375 0.25 0  16.125 0.25 0  16.875 0.25 0  17.625 0.25 0  18.375 0.25 0  19.125 0.25 0  19.875 0.25 0  20.625 0.25 0  21.375 0.25 0  22.125 0.25 0  22.875 0.25 0  23.625 0.25 0  24.375 0.25 0  25.125 0.25 0  25.875 0.25 0  26.625 0.25 0  27.375 0.25 0  28.125 0.25 0  28.875 0.25 0  29.625 0.25 0  30.375 0.25 0  31.125 0.25 0  31.875 0.25 0  32.625 0.25 0  33.375 0.25 0  34.125 0.25 0  34.875 0.25 0  35.625 0.25 0  36.375 0.25 0  37.125 0.25 0  37.875 0.25 0  38.625 0.25 0  39.375 0.25 0  40.125 0.25 0  40.875 0.25 0  41.625 0.25 0  42.375 0.25 0  43.125 0.25 0  43.875 0.25 0  44.625 0.25 0  45.375 0.25 0  46.125 0.25 0  46.875 0.25 0  47.625 0.25 0  48.375 0.25 0  49.125 0.25 0  49.875 0.25 0  50.625 0.25 0  51.375 0.25 0  52.125 0.25 0  52.875 0.25 0  53.625 0.25 0  54.375 0.25 0  55.125 0.25 0  55.875 0.25 0  56.625 0.25 0  57.375 0.25 0  58.125 0.25 0  58.875 0.25 0  59.625 0.25 0  0.375 0.75 0  1.125 0.75 0  1.875 0.75 0  2.625 0.75 0  3.375 0.75 0  4.125 0.75 0  4.875 0.75 0  5.625 0.75 0  6.375 0.75 0  7.125 0.75 0  7.875 0.75 0  8.625 0.75 0  9.375 0.75 0  10.125 0.75 0  10.875 0.75 0  11.625 0.75 0  12.375 0.75 0  13.125 0.75 0  13.875 0.75 0  14.625 0.75 0  15.375 0.75 0  16.125 0.75 0  16.875 0.75 0  17.625 0.75 0  18.375 0.75 0  19.125 0.75 0  19.875 0.75 0  20.625 0.75 0  21.375 0.75 0  22.125 0.75 0  22.875 0.75 0  23.625 0.75 0  24.375 0.75 0  25.125 0.75 0  25.875 0.75 0  26.625 0.75 0  27.375 0.75 0  28.125 0.75 0  28.875 0.75 0  29.625 0.75 0  30.375 0.75 0  31.125 0.75 0  31.875 0.75 0  32.625 0.75 0  33.375 0.75 0  34.125 0.75 0  34.875 0.75 0  35.625 0.75 0  36.375 0.75 0  37.125 0.75 0  37.875 0.75 0  38.625 0.75 0  39.375 0.75 0  40.125 0.75 0  40
[...]
<PointData  Scalars="f_8-1"> 
<DataArray  type="Float64"  Name="f_8-1"  format="ascii">5.4448949612556579e+00  5.3792123725424874e+00  5.3111525362493133e+00  5.2431128975615255e+00  5.1750405225428242e+00  5.1069586890307095e+00  5.0388734597835505e+00  4.9707875199887299e+00  4.9027018651103962e+00  4.8346167293096034e+00  4.7665320520347620e+00  4.6984477033472594e+00  4.6303635638936527e+00  4.5622795491300909e+00  4.4941956051499794e+00  4.4261117007227870e+00  4.3580278182190710e+00  4.2899439482021151e+00  4.2218600855039448e+00  4.1537762273832364e+00  4.0856923722885305e+00  4.0176085193697704e+00  3.9495246681188818e+00  3.8814408182475528e+00  3.8133569695766312e+00  3.7452731220023701e+00  3.6771892754591216e+00  3.6091054299084480e+00  3.5410215853257276e+00  3.4729377416963154e+00  3.4048538990107784e+00  3.3367700572633372e+00  3.2686862164502397e+00  3.2006023765691975e+00  3.1325185376185898e+00  3.0644346995976637e+00  2.9963508625055377e+00  2.9282670263423958e+00  2.8601831911070263e+00  2.7920993568011734e+00  2.7240155234213734e+00  2.6559316909737971e+00  2.5878478594472329e+00  2.5197640288617369e+00  2.4516801991816082e+00  2.3835963704695806e+00  2.3155125426158532e+00  2.2474287158098911e+00  2.1793448897263015e+00  2.1112610649162615e+00  2.0431772404522235e+00  1.9750934178744823e+00  1.9070095946451662e+00  1.8389257748924206e+00  1.7708419519594600e+00  1.7027581364486828e+00  1.6346743116274480e+00  1.5665905035837402e+00  1.4985066720387472e+00  1.4304228783390702e+00  1.3623390301053051e+00  1.2942552637362714e+00  1.2261713815314732e+00  1.1580876627681775e+00  1.0900037387332657e+00  1.0219201078380740e+00  9.5383628299241829e-01  8.8575283578911257e-01  8.1766954525417579e-01  7.4958502242361325e-01  6.8149992876556564e-01  6.1340388233885490e-01  5.4530868347978290e-01  4.7718435883586130e-01  4.0909798352500587e-01  3.4094622444821165e-01  2.7300746425080941e-01  2.0474474901327283e-01  1.3738183682905741e-01  6.7187445060301429e-02  2.1090327210112384e-03  5.4479472232696464e+00  5.3790356980957812e+00  5.3111204093393081e+00  5.2430648906383857e+00  5.1749910154530969e+00  5.1069084421507718e+00  5.0388230417391870e+00  4.9707371764735804e+00  4.9026516711931496e+00  4.8345666781304741e+00  4.7664821089138592e+00  4.6983978326693530e+00  4.6303137378547303e+00  4.5622297493785720e+00  4.4941458202959890e+00  4.4260619242246690e+00  4.3579780463376370e+00  4.2898941789161258e+00  4.2218103176713369e+00  4.1537264603942745e+00  4.0856426057848712e+00  4.0175587531579398e+00  3.9494749020784696e+00  3.8813910523130724e+00  3.8133072037050959e+00  3.7452233561706860e+00  3.6771395096513348e+00  3.6090556641162244e+00  3.5409718195429973e+00  3.4728879759200360e+00  3.4048041332386041e+00  3.3367202914941236e+00  3.2686364506831485e+00  3.2005526108037086e+00  3.1324687718546032e+00  3.0643849338346780e+00  2.9963010967441748e+00  2.9282172605813681e+00  2.8601334253486517e+00  2.7920495910413168e+00  2.7239657576674583e+00  2.6558819252127601e+00  2.5877980937019962e+00  2.5197142630925495e+00  2.4516304334567653e+00  2.3835466046729223e+00  2.3154627769427236e+00  2.2473789499352987e+00  2.1792951241845255e+00  2.1112112988393119e+00  2.0431274752329878e+00  1.9750436513057463e+00  1.9069598301811077e+00  1.8388760071962802e+00  1.7707921891750074e+00  1.7027083663051481e+00  1.6346245523871952e+00  1.5665407284173234e+00  1.4984569198235607e+00  1.4303730936290735e+00  1.3622892904316095e+00  1.2942054634593381e+00  1.2261216593753654e+00  1.1580378461107810e+00  1.0899540233751963e+00  1.0218703066989436e+00  9.5378649074418265e-01  8.8570319418072185e-01  8.1761928646880810e-01  7.4953591102032480e-01  6.8144752995467250e-01  6.1335649452671170e-01  5.4525041118727169e-01  4.7714608238189837e-01  4.0902274941743544e-01  3.4094069630673163e-01  2.7286863686970364e-01  2.0486338842450930e-01  1.3683933365271755e-01  6.8110721848058414e-02  -5.1864901801844236e-04  5.4478610062247297e+00  5.3793232234818413e+00  5.3111505584234431e+00  5.2430568534777304e+00  5.1749687785969058e+00  5.1068818269978262e+00  5.0387951774814166e+00  4.9707090128203033e+00  4.9026234354643687e+00  4.8345383997617644e+00  4.7664537855843099e+00  4.6983694661409068e+00  4.6302853365103713e+00  4.5622013230250609e+00  4.4941173776147005e+00  4.4260334714548071e+00  4.3579495876495002e+00  4.2898657168233640e+00  4.2217818536747362e+00  4.1536979953262163e+00  4.0856141401229804e+00  4.0175302871581469e+00  3.9494464358887531e+00  3.8813625860125516e+00  3.8132787373411823e+00  3.7451948897689840e+00  3.6771110432278471e+00  3.6090271976796569e+00  3.5409433530989918e+00  3.4728595094717098e+00  3.4047756667880025e+00  3.3366918250425286e+00  3.2686079842311964e+00  3.2005241443522481e+00  3.1324403054033509e+00  3.0643564673850658e+00  2.9962726302941669e+00  2.9281887941350413e+00  2.8601049588989373e+00  2.7920211246008573e+00  2.7239372912140816e+00  2.6558534587849794e+00  2.5877696272334170e+00  2.5196857966960771e+00  2.4516019669422127e+00  2.3835181383563255e+00  2.3154343103053465e+00  2.2473504838167084e+00  2.1792666572456660e+00  2.1111828331837055e+00  2.0430990076107998e+00  1.9750151866540051e+00  1.9069313611382572e+00  1.8388475445331183e+00  1.7707637174626625e+00  1.7026799071564844e+00  1.6345960763001619e+00  1.5665122744588040e+00  1.4984284382249000e+00  1.4303446443881769e+00  1.3622608071930182e+00  1.2941770080947592e+00  1.2260931974314877e+00  1.1580093404800202e+00  1.0899256537205764e+00  1.0218416032438489e+00  9.5375831180903436e-01  8.8567369716678523e-01  8.1759104220215428e-01  7.4950355556275228e-01  6.8141904166997769e-01  6.1331946680899474e-01  5.4522805055846035e-01  4.7710529110188621e-01  4.0901766738589984e-01  3.4088711923495463e-01  2.7286761690927447e-01  2.0469620190389079e-01  1.3671639900121091e-01  6.7961323150958208e-02  2.8358880117564268e-04  5.4478681769952191e+00  5.3794783588433850e+00  5.3112451082653589e+00  5.2431091462693935e+00  5.1750068036720762e+00  5.1069152359680610e+00  5.0388272383124493e+00  4.9707406629596926e+00  4.9026549089207867e+00  4.8345697502094902e+00  4.7664850355299269e+00  4.6984006367065190e+00  4.6303164497324811e+00  4.5622323975636814e+00  4.4941484277543218e+00  4.4260645068042965e+00  4.3579806144011100e+00  4.2898967386421916e+00  4.2218128727285853e+00  4.1537290128133613e+00  4.0856451567335847e+00  4.0175613032638946e+00  3.9494774517074331e+00  3.8813936016614123e+00  3.8133097528917737e+00  3.7452259052600505e+00  3.6771420586841179e+00  3.6090582131144933e+00  3.5409743685213484e+00  3.4728905248863495e+00  3.4048066821983989e+00  3.3367228404503080e+00  3.2686389996380760e+00  3.2005551597583093e+00  3.1324713208104109e+00  3.0643874827911524e+00  2.9963036457036538e+00  2.9282198095405620e+00  2.8601359743138790e+00  2.7920521400015987e+00  2.7239683066419396e+00  2.6558844741681056e+00  2.5878006426949836e+00  2.5197168120265805e+00  2.4516329824931664e+00  2.3835491535444433e+00  2.3154653260855773e+00  2.2473814986467326e+00  2.1792976735812539e+00  2.1112138471748025e+00  2.0431300251998121e+00  1.9750461988263510e+00  1.9069623813326686e+00  1.8388785531007954e+00  1.7707947425598154e+00  1.7027109093517043e+00  1.6346271094177811e+00  1.5665432672915331e+00  1.4984594812393150e+00  1.4303756289872227e+00  1.3622918521499869e+00  1.2942080048292224e+00  1.2261242004292694e+00  1.1580404272524247e+00  1.0899564636810442e+00  1.0218729592412621e+00  9.5378840946502752e-01  8.8570543718329109e-01  8.1761857974275609e-01  7.4953545788802822e-01  6.8144010903122831e-01  6.1335471435857358e-01  5.4524004611740307e-01  4.7715987197941795e-01  4.0901843974239854e-01  3.4097983461249376e-01  2.7279497905933581e-01  2.0482155337469002e-01  1.3642305622470943e-01  6.8378640511955732e-02  -1.9467493441916212e-04  5.4478741808159876e+00  5.3795196190902841e+00  5.3112765141579406e+00  5.2431271763807699e+00  5.1750192861326161e+00  5.1069258782256606e+00  5.0388373235987665e+00  4.9707505861151118e+00  4.9026647713266449e+00  4.8345795748657174e+00  4.7664948296936185e+00  4.6984104065194012e+00  4.6303262016180913e+00  4.5622421372453577e+00  4.4941581596173972e+00  4.4260742338994579e+00  4.3579903386923311e+00  4.2899064613283793e+00  4.2218225945091294e+00  4.1537387340866916e+00  4.0856548777219466e+00  4.0175710240913372e+00  3.9494871724428817e+00  3.8814033223438398e+00  3.8133194735432361e+00  3.7452356258933652e+00  3.6771517793067487e+00  3.6090679337308917e+00  3.5409840891341817e+00  3.4729002454972919e+00  3.4048164028083647e+00  3.3367325610602179e+00  3.2686487202479095e+00  3.2005648803692246e+00  3.1324810414210793e+00  3.0643972034045519e+00  2.9963133663147663e+00  2.9282295301586228e+00  2.8601456949225303e+00  2.7920618606297460e+00  2.7239780272388834e+00  2.6558941948216575e+00  2.5878103632541514e+00  2.5197265327476743e+00  2.4516427029454024e+00  2.3835588744426746e+00  2.3154750462580660e+00  2.2473912199887054e+00  2.1793073930700819e+00  2.1112235695623136e+00  2.0431397431315306e+00  1.9750559235064777e+00  1.9069720959849581e+00  1.8388882824031700e+00  1.7708044509219198e+00  1.7027206470257450e+00  1.6346368071924002e+00  1.5665530177409650e+00  1.4984691651558140e+00  1.4303853920681975e+00  1.3623015301583865e+00  1.2942177574004208e+00  1.2261339224722241e+00  1.1580500730559982e+00  1.0899663913525321e+00  1.0218822038734556e+00  9.5379892682774359e-01  8.8571343335254338e-01  8.1763047889098406e-01  7.4953998153494705e-01  6.8145571488426959e-01  6.1335138900189223e-01  5.4526711117418114e-01  4.7714051461425688e-01  4.0907469649298700e-01  3.4092116689805274e-01  2.7290143286419483e-01  2.0466878315973328e-01  1.3659952639471776e-01  6.8179666931489941e-02  1.0905890899655672e-04  5.4478681673005713e+00  5.3794782571956237e+00  5.3112450093269086e+00  5.2431090800711431e+00  5.1750067628916625e+00  5.1069152107736917e+00  5.0388272222037731e+00  4.9707406518928972e+00  4.9026549004592015e+00  4.8345697430786796e+00  4.7664850291599867e+00  4.6984006308469475e+00  4.6303164442455857e+00  4.5622323923520698e+00  4.4941484227428150e+00  4.4260645019348850e+00  4.3579806096302089e+00  4.2898967339382468e+00  4.2218128680697644e+00  4.1537290081850369e+00  4.0856451521260739e+00  4.0175612986706364e+00  3.9494774471239347e+00  3.8813935970846116e+00  3.8133097483195932e+00  3.7452259006911377e+00  3.6771420541176867e+00  3.6090582085500684e+00  3.5409743639587044e+00  3.4728905203253841e+00  3.4048066776391317e+00  3.3367228358928505e+00  3.2686389950825325e+00  3.2005551552048459e+00  3.1324713162591489e+00  3.0643874782422205e+00  2.9963036411571133e+00  2.9282198049964445e+00  2.8601359697721418e+00  2.7920521354621890e+00  2.7239683021047201e+00  2.6558844696329476e+00  2.5878006381617196e+00  2.5197168074950218e+00  2.4516329779631638e+00  2.3835491490158804e+00  2.3154653215584582e+00  2.2473814941211780e+00  2.1792976690576671e+00  2.1112138426538434e+00  2.0431300206827059e+00  1.9750461943149416e+00  1.9069623768297295e+00  1.8388785486107906e+00  1.7707947380883504e+00  1.7027109049088873e+00  1.6346271050144141e+00  1.5665432629497706e+00  1.4984594769792334e+00  1.4303756248556085e+00  1.3622918481820658e+00  1.2942080011202721e+00  1.2261241970328096e+00  1.1580404243549149e+00  1.0899564613322763e+00  1.0218729577738210e+00  9.5378840878576632e-01  8.8570543772161436e-01  8.1761858064359894e-01  7.4953545915126119e-01  6.8144010745368744e-01  6.1335470961179328e-01  5.4524003303383872e-01  4.7715985643660735e-01  4.0901841735215899e-01  3.4097982581636094e-01  2.7279497283812282e-01  2.0482158543786844e-01  1.3642307611025245e-01  6.8378675594660474e-02  -1.9469510415916349e-04  5.4478609755484939e+00  5.3793229567994123e+00  5.3111503441922085e+00  5.2430567200096565e+00  5.1749686960111516e+00  5.1068817747139397e+00  5.0387951423419430e+00  4.9707089867436158e+00  4.9026234140116056e+00  4.8345383808052622e+00  4.7664537681664694e+00  4.6983694497878545e+00  4.6302853209330355e+00  4.5622013080165589e+00  4.4941173630172155e+00  4.4260334571473905e+00  4.3579495735420890e+00  4.2898657028518343e+00  4.2217818397952902e+00  4.1536979815095334e+00  4.0856141263493404e+00  4.0175302734140415e+00  3.9494464221648831e+00  3.8813625723025602e+00  3.8132787236408974e+00  3.7451948760756850e+00  3.6771110295399216e+00  3.6090271839961385e+00  3.5409433394194001e+00  3.4728594957958840e+00  3.4047756531159599e+00  3.3366918113744513e+00  3.2686079705673396e+00  3.2005241306929131e+00  3.1324402917488037e+00  3.0643564537355119e+00  2.9962726166496978e+00  2.9281887804956677e+00  2.8601049452645437e+00  2.7920211109712465e+00  2.7239372775889628e+00  2.6558534451640159e+00  2.5877696136162238e+00  2.5196857830822319e+00  2.4516019533313598e+00  2.3835181247482136e+00  2.3154342966999439e+00  2.2473504702143385e+00  2.1792666436470869e+00  2.1111828195904452e+00  2.0430989940253363e+00  1.9750151730802958e+00  1.9069313475824110e+00  1.8388475310037793e+00  1.7707637039736024e+00  1.7026798937251357e+00  1.6345960629567591e+00  1.5665122612373159e+00  1.4984284251898459e+00  1.4303446316032444e+00  1.3622607947910179e+00  1.2941769961874754e+00  1.2260931862812035e+00  1.1580093302564010e+00  1.0899256449109320e+00  1.0218415960038414e+00  9.5375830690270591e-01  8.8567369422593123e-01  8.1759104167566166e-01  7.4950355422319315e-01  6.8141903722448294e-01  6.1331944969390229e-01  5.4522802051335639e-01  4.7710524363838291e-01  4.0901762452211010e-01  3.4088707771565957e-01  2.7286761825908867e-01  2.0469622866100540e-01  1.3671650270390720e-01  6.7961326495510982e-02  2.8363788478524057e-04  5.4479471893033553e+00  5.3790350602955508e+00  5.3111200745185139e+00  5.2430646768025007e+00  5.1749908712768677e+00  5.1069083378297080e+00  5.0388229598310561e+00  4.9707371063584000e+00  4.9026516069967947e+00  4.8345666170550770e+00  4.7664820497426792e+00  4.6983977748263239e+00  4.6303136809917005e+00  4.5622296932411253e+00  4.4941457646856984e+00  4.4260618689871700e+00  4.3579779913569539e+00  4.2898941241093089e+00  4.2218102629818191e+00  4.1537264057843757e+00  4.0856425512293733e+00  4.0175586986396565e+00  3.9494748475855381e+00  3.8813909978374146e+00  3.8133071492413881e+00  3.7452233017155190e+00  3.6771394552027004e+00  3.6090556096729580e+00  3.5409717651045547e+00  3.4728879214862776e+00  3.4048040788096627e+00  3.3367202370703053e+00  3.2686363962648790e+00  3.2005525563914490e+00  3.1324687174487988e+00  3.0643848794356678e+00  2.9963010423521639e+00  2.9282172061964347e+00  2.8601333709706873e+00  2.7920495366701212e+00  2.7239657033026892e+00  2.6558818708539951e+00  2.5877980393487392e+00  2.5197142087442508e+00  2.4516303791129292e+00  2.3835465503331976e+00  2.3154627226070383e+00  2.2473788956039873e+00  2.1792950698585734e+00  2.1112112445205815e+00  2.0431274209247294e+00  1.9750435970130420e+00  1.9069597759118271e+00  1.8388759529620586e+00  1.7707921349928373e+00  1.7027083122000470e+00  1.6346244983945606e+00  1.5665406745894150e+00  1.4984568662320843e+00  1.4303730403797821e+00  1.3622892376645148e+00  1.2942054113791945e+00  1.2261216082403801e+00  1.1580377962920936e+00  1.0899539753004273e+00  1.0218702609493933e+00  9.5378644782469291e-01  8.8570315455375281e-01  8.1761924960792143e-01  7.4953587496158536e-01  6.8144748865548121e-01  6.1335643978963705e-01  5.4525033343995688e-01  4.7714598610141662e-01  4.0902264534797617e-01  3.4094060947671784e-01  2.7286858481638065e-01  2.0486341637131864e-01  1.3683944840992548e-01  6.8110754139330085e-02  -5.1876192188508548e-04  5.4448920674990795e+00  5.3792118469400458e+00  5.3111521561245381e+00  5.2431126480196211e+00  5.1750403435823236e+00  5.1069585508899777e+00  5.0388733447498595e+00  4.9707874172513371e+00  4.9027017685182761e+00  4.8346166358300122e+00  4.7665319603423608e+00  4.6984476128533252e+00  4.6303634742764093e+00  4.5622794601661143e+00  4.4941955166654282e+00  4.4261116125801898e+00  4.3580277303131325e+00  4.2899438604562032e+00  4.2218599978652556e+00  4.1537761398165074e+00  4.0856922847703165e+00  4.0176084318842422e+00  3.9495245806552002e+00  3.8814407307983516e+00  3.8133568821371098e+00  3.7452730345695193e+00  3.6771891880312619e+00  3.6091053424846744e+00  3.5410214979057821e+00  3.4729376542802823e+00  3.4048538115990268e+00  3.3367699698563804e+00  3.2686861290487457e+00  3.2006022891738128e+00  3.1325184502299996e+00  3.0644346122164046e+00  2.9963507751320333e+00  2.9282669389769000e+00  2.8601831037496148e+00  2.7920992694517741e+00  2.7240154360797622e+00  2.6559316036396408e+00  2.5878477721200817e+00  2.5197639415410893e+00  2.4516801118669589e+00  2.3835962831605713e+00  2.3155124553123541e+00  2.2474286285122216e+00  2.1793448024353892e+00  2.1112609776340263e+00  2.0431771531819156e+00  1.9750933306214529e+00  1.9070095074175202e+00  1.8389256877024254e+00  1.7708418648250770e+00  1.7027580493961154e+00  1.6346742246948269e+00  1.5665904168252485e+00  1.4985065855329165e+00  1.4304227921945618e+00  1.3623389444779286e+00  1.2942551788342229e+00  1.2261712976490495e+00  1.1580875802745210e+00  1.0900036581413224e+00  1.0219200296934383e+00  9.5383620800197455e-01  8.8575276425977456e-01  8.1766947711561710e-01  7.4958495526435720e-01  6.8149985762807219e-01  6.1340379773197862e-01  5.4530857728657367e-01  4.7718422999697319e-01  4.0909784680518330e-01  3.4094609363986234e-01  2.7300738825805310e-01  2.0474470743910114e-01  1.3738202013903672e-01  6.7187270139265926e-02  2.1092551479568928e-03  5.4127109501918174e+00  5.3449925980212623e+00  5.2769685077236561e+00  5.2089086384982126e+00  5.1408311359832988e+00  5.0727474282128115e+00  5.0046618293464018e+00  4.9365761027189610e+00  4.8684908024074405e+00  4.8004059813197113e+00  4.7323215327672274e+00  4.6642373322179367e+00  4.5961532822449618e+00  4.5280693189704300e+00  4.4599854039856410e+00  4.3919015157233936e+00  4.3238176423662846e+00  4.2557337776439628e+00  4.1876499181558442e+00  4.1195660620807732e+00  4.0514822083818540e+00  3.9833983564810733e+00  3.9153145060289467e+00  3.8472306568251144e+00  3.7791468087432660e+00  3.7110629617106174e+00  3.6429791156800180e+00  3.5748952706244301e+00  3.5068114265257329e+00  3.4387275833737219e+00  3.3706437411612811e+00  3.3025598998843333e+00  3.2344760595400528e+00  3.1663922201267378e+00  3.0983083816433150e+00  3.0302245440890005e+00  2.9621407074636128e+00  2.8940568717664492e+00  2.8259730369981733e+00  2.7578892031572897e+00  2.6898053702462765e+00  2.6217215382606249e+00  2.5536377072082024e+00  2.4855538770753061e+00  2.4174700478853492e+00  2.3493862195983106e+00  2.2813023922809776e+00  2.2132185658220833e+00  2.1451347404027614e+00  2.0770509157295614e+00  2.0089670922672282e+00  1.9408832692855442e+00  1.8727994479065142e+00  1.8047156264233857e+00  1.7366318073758973e+00  1.6685479870269857e+00  1.6004641707564666e+00  1.5323803509076988e+00  1.4642965381131852e+00  1.3962127177521766e+00  1.3281289091689501e+00  1.2600450871720330e+00  1.1919612835077125e+00  1.1238774665334963e+00  1.0557936873658558e+00  9.8770995791417049e-01  9.1962634130995025e-01  8.5154290539906030e-01  7.8345907721185681e-01  7.1537387729605728e-01  6.4728355626372258e-01  5.7918662335917637e-01  5.1107886398605928e-01  4.4296916503493783e-01  3.7486086914690303e-01  3.0679006890661020e-01  2.3875641246134041e-01  1.7072151600397542e-01  1.0252619092014091e-01  3.2831645701197912e-02  5.4135849012220207e+00  5.3452072027894131e+00  5.2771556334081486e+00  5.2090794709227781e+00  5.1409970323178831e+00  5.0729117160009833e+00  5.0048257164707293e+00  4.9367399757748540e+00  4.8686547448122903e+00  4.8005699838932765e+00  4.7324855722596233e+00  4.6644013907539099e+00  4.5963173495905467e+00  4.5282333898953162e+00  4.4601494762540348e+00  4.3920655884313815e+00  4.3239817152346722e+00  4.2558978505762681e+00  4.1878139911368688e+00  4.1197301350970266e+00  4.05164628142