<?xml version="1.0"?>
<VTKFile type="UnstructuredGrid"  version="0.1"  >
<UnstructuredGrid>
<Piece  NumberOfPoints="1369" NumberOfCells="2560">
<Points>
<DataArray  type="Float64"  NumberOfComponents="3"  format="ascii">0 0 0  0.75 0 0  1.5 0 0  2.25 0 0  3 0 0  3.75 0 0  4.5 0 0  5.25 0 0  6 0 0  6.75 0 0  7.5 0 0  8.25 0 0  9 0 0  9.75 0 0  10.5 0 0  11.25 0 0  12 0 0  12.75 0 0  13.5 0 0  14.25 0 0  15 0 0  15.75 0 0  16.5 0 0  17.25 0 0  18 0 0  18.75 0 0  19.5 0 0  20.25 0 0  21 0 0  21.75 0 0  22.5 0 0  23.25 0 0  24 0 0  24.75 0 0  25.5 0 0  26.25 0 0  27 0 0  27.75 0 0  28.5 0 0  29.25 0 0  30 0 0  30.75 0 0  31.5 0 0  32.25 0 0  33 0 0  33.75 0 0  34.5 0 0  35.25 0 0  36 0 0  36.75 0 0  37.5 0 0  38.25 0 0  39 0 0  39.75 0 0  40.5 0 0  41.25 0 0  42 0 0  42.75 0 0  43.5 0 0  44.25 0 0  45 0 0  45.75 0 0  46.5 0 0  47.25 0 0  48 0 0  48.75 0 0  49.5 0 0  50.25 0 0  51 0 0  51.75 0 0  52.5 0 0  53.25 0 0  54 0 0  54.75 0 0  55.5 0 0  56.25 0 0  57 0 0  57.75 0 0  58.5 0 0  59.25 0 0  60 0 0  0 0.5 0  0.75 0.5 0  1.5 0.5 0  2.25 0.5 0  3 0.5 0  3.75 0.5 0  4.5 0.5 0  5.25 0.5 0  6 0.5 0  6.75 0.5 0  7.5 0.5 0  8.25 0.5 0  9 0.5 0  9.75 0.5 0  10.5 0.5 0  11.25 0.5 0  12 0.5 0  12.75 0.5 0  13.5 0.5 0  14.25 0.5 0  15 0.5 0  15.75 0.5 0  16.5 0.5 0  17.25 0.5 0  18 0.5 0  18.75 0.5 0  19.5 0.5 0  20.25 0.5 0  21 0.5 0  21.75 0.5 0  22.5 0.5 0  23.25 0.5 0  24 0.5 0  24.75 0.5 0  25.5 0.5 0  26.25 0.5 0  27 0.5 0  27.75 0.5 0  28.5 0.5 0  29.25 0.5 0  30 0.5 0  30.75 0.5 0  31.5 0.5 0  32.25 0.5 0  33 0.5 0  33.75 0.5 0  34.5 0.5 0  35.25 0.5 0  36 0.5 0  36.75 0.5 0  37.5 0.5 0  38.25 0.5 0  39 0.5 0  39.75 0.5 0  40.5 0.5 0  41.25 0.5 0  42 0.5 0  42.75 0.5 0  43.5 0.5 0  44.25 0.5 0  45 0.5 0  45.75 0.5 0  46.5 0.5 0  47.25 0.5 0  48 0.5 0  48.75 0.5 0  49.5 0.5 0  50.25 0.5 0  51 0.5 0  51.75 0.5 0  52.5 0.5 0  53.25 0.5 0  54 0.5 0  54.75 0.5 0  55.5 0.5 0  56.25 0.5 0  57 0.5 0  57.75 0.5 0  58.5 0.5 0  59.25 0.5 0  60 0.5 0  0 1 0  0.75 1 0  1.5 1 0  2.25 1 0  3 1 0  3.75 1 0  4.5 1 0  5.25 1 0  6 1 0  6.75 1 0  7.5 1 0  8.25 1 0  9 1 0  9.75 1 0  10.5 1 0  11.25 1 0  12 1 0  12.75 1 0  13.5 1 0  14.25 1 0  15 1 0  15.75 1 0  16.5 1 0  17.25 1 0  18 1 0  18.75 1 0  19.5 1 0  20.25 1 0  21 1 0  21.75 1 0  22.5 1 0  23.25 1 0  24 1 0  24.75 1 0  25.5 1 0  26.25 1 0  27 1 0  27.75 1 0  28.5 1 0  29.25 1 0  30 1 0  30.75 1 0  31.5 1 0  32.25 1 0  33 1 0  33.75 1 0  34.5 1 0  35.25 1 0  36 1 0  36.75 1 0  37.5 1 0  38.25 1 0  39 1 0  39.75 1 0  40.5 1 0  41.25 1 0  42 1 0  42.75 1 0  43.5 1 0  44.25 1 0  45 1 0  45.75 1 0  46.5 1 0  47.25 1 0  48 1 0  48.75 1 0  49.5 1 0  50.25 1 0  51 1 0  51.75 1 0  52.5 1 0  53.25 1 0  54 1 0  54.75 1 0  55.5 1 0  56.25 1 0  57 1 0  57.75 1 0  58.5 1 0  59.25 1 0  60 1 0  0 1.5 0  0.75 1.5 0  1.5 1.5 0  2.25 1.5 0  3 1.5 0  3.75 1.5 0  4.5 1.5 0  5.25 1.5 0  6 1.5 0  6.75 1.5 0  7.5 1.5 0  8.25 1.5 0  9 1.5 0  9.75 1.5 0  10.5 1.5 0  11.25 1.5 0  12 1.5 0  12.75 1.5 0  13.5 1.5 0  14.25 1.5 0  15 1.5 0  15.75 1.5 0  16.5 1.5 0  17.25 1.5 0  18 1.5 0  18.75 1.5 0  19.5 1.5 0  20.25 1.5 0  21 1.5 0  21.75 1.5 0  22.5 1.5 0  23.25 1.5 0  24 1.5 0  24.75 1.5 0  25.5 1.5 0  26.25 1.5 0  27 1.5 0  27.75 1.5 0  28.5 1.5 0  29.25 1.5 0  30 1.5 0  30.75 1.5 0  31.5 1.5 0  32.25 1.5 0  33 1.5 0  33.75 1.5 0  34.5 1.5 0  35.25 1.5 0  36 1.5 0  36.75 1.5 0  37.5 1.5 0  38.25 1.5 0  39 1.5 0  39.75 1.5 0  40.5 1.5 0  41.25 1.5 0  42 1.5 0  42.75 1.5 0  43.5 1.5 0  44.25 1.5 0  45 1.5 0  45.75 1.5 0  46.5 1.5 0  47.25 1.5 0  48 1.5 0  48.75 1.5 0  49.5 1.5 0  50.25 1.5 0  51 1.5 0  51.75 1.5 0  52.5 1.5 0  53.25 1.5 0  54 1.5 0  54.75 1.5 0  55.5 1.5 0  56.25 1.5 0  57 1.5 0  57.75 1.5 0  58.5 1.5 0  59.25 1.5 0  60 1.5 0  0 2 0  0.75 2 0  1.5 2 0  2.25 2 0  3 2 0  3.75 2 0  4.5 2 0  5.25 2 0  6 2 0  6.75 2 0  7.5 2 0  8.25 2 0  9 2 0  9.75 2 0  10.5 2 0  11.25 2 0  12 2 0  12.75 2 0  13.5 2 0  14.25 2 0  15 2 0  15.75 2 0  16.5 2 0  17.25 2 0  18 2 0  18.75 2 0  19.5 2 0  20.25 2 0  21 2 0  21.75 2 0  22.5 2 0  23.25 2 0  24 2 0  24.75 2 0  25.5 2 0  26.25 2 0  27 2 0  27.75 2 0  28.5 2 0  29.25 2 0  30 2 0  30.75 2 0  31.5 2 0  32.25 2 0  33 2 0  33.75 2 0  34.5 2 0  35.25 2 0  36 2 0  36.75 2 0  37.5 2 0  38.25 2 0  39 2 0  39.75 2 0  40.5 2 0  41.25 2 0  42 2 0  42.75 2 0  43.5 2 0  44.25 2 0  45 2 0  45.75 2 0  46.5 2 0  47.25 2 0  48 2 0  48.75 2 0  49.5 2 0  50.25 2 0  51 2 0  51.75 2 0  52.5 2 0  53.25 2 0  54 2 0  54.75 2 0  55.5 2 0  56.25 2 0  57 2 0  57.75 2 0  58.5 2 0  59.25 2 0  60 2 0  0 2.5 0  0.75 2.5 0  1.5 2.5 0  2.25 2.5 0  3 2.5 0  3.75 2.5 0  4.5 2.5 0  5.25 2.5 0  6 2.5 0  6.75 2.5 0  7.5 2.5 0  8.25 2.5 0  9 2.5 0  9.75 2.5 0  10.5 2.5 0  11.25 2.5 0  12 2.5 0  12.75 2.5 0  13.5 2.5 0  14.25 2.5 0  15 2.5 0  15.75 2.5 0  16.5 2.5 0  17.25 2.5 0  18 2.5 0  18.75 2.5 0  19.5 2.5 0  20.25 2.5 0  21 2.5 0  21.75 2.5 0  22.5 2.5 0  23.25 2.5 0  24 2.5 0  24.75 2.5 0  25.5 2.5 0  26.25 2.5 0  27 2.5 0  27.75 2.5 0  28.5 2.5 0  29.25 2.5 0  30 2.5 0  30.75 2.5 0  31.5 2.5 0  32.25 2.5 0  33 2.5 0  33.75 2.5 0  34.5 2.5 0  35.25 2.5 0  36 2.5 0  36.75 2.5 0  37.5 2.5 0  38.25 2.5 0  39 2.5 0  39.75 2.5 0  40.5 2.5 0  41.25 2.5 0  42 2.5 0  42.75 2.5 0  43.5 2.5 0  44.25 2.5 0  45 2.5 0  45.75 2.5 0  46.5 2.5 0  47.25 2.5 0  48 2.5 0  48.75 2.5 0  49.5 2.5 0  50.25 2.5 0  51 2.5 0  51.75 2.5 0  52.5 2.5 0  53.25 2.5 0  54 2.5 0  54.75 2.5 0  55.5 2.5 0  56.25 2.5 0  57 2.5 0  57.75 2.5 0  58.5 2.5 0  59.25 2.5 0  60 2.5 0  0 3 0  0.75 3 0  1.5 3 0  2.25 3 0  3 3 0  3.75 3 0  4.5 3 0  5.25 3 0  6 3 0  6.75 3 0  7.5 3 0  8.25 3 0  9 3 0  9.75 3 0  10.5 3 0  11.25 3 0  12 3 0  12.75 3 0  13.5 3 0  14.25 3 0  15 3 0  15.75 3 0  16.5 3 0  17.25 3 0  18 3 0  18.75 3 0  19.5 3 0  20.25 3 0  21 3 0  21.75 3 0  22.5 3 0  23.25 3 0  24 3 0  24.75 3 0  25.5 3 0  26.25 3 0  27 3 0  27.75 3 0  28.5 3 0  29.25 3 0  30 3 0  30.75 3 0  31.5 3 0  32.25 3 0  33 3 0  33.75 3 0  34.5 3 0  35.25 3 0  36 3 0  36.75 3 0  37.5 3 0  38.25 3 0  39 3 0  39.75 3 0  40.5 3 0  41.25 3 0  42 3 0  42.75 3 0  43.5 3 0  44.25 3 0  45 3 0  45.75 3 0  46.5 3 0  47.25 3 0  48 3 0  48.75 3 0  49.5 3 0  50.25 3 0  51 3 0  51.75 3 0  52.5 3 0  53.25 3 0  54 3 0  54.75 3 0  55.5 3 0  56.25 3 0  57 3 0  57.75 3 0  58.5 3 0  59.25 3 0  60 3 0  0 3.5 0  0.75 3.5 0  1.5 3.5 0  2.25 3.5 0  3 3.5 0  3.75 3.5 0  4.5 3.5 0  5.25 3.5 0  6 3.5 0  6.75 3.5 0  7.5 3.5 0  8.25 3.5 0  9 3.5 0  9.75 3.5 0  10.5 3.5 0  11.25 3.5 0  12 3.5 0  12.75 3.5 0  13.5 3.5 0  14.25 3.5 0  15 3.5 0  15.75 3.5 0  16.5 3.5 0  17.25 3.5 0  18 3.5 0  18.75 3.5 0  19.5 3.5 0  20.25 3.5 0  21 3.5 0  21.75 3.5 0  22.5 3.5 0  23.25 3.5 0  24 3.5 0  24.75 3.5 0  25.5 3.5 0  26.25 3.5 0  27 3.5 0  27.75 3.5 0  28.5 3.5 0  29.25 3.5 0  30 3.5 0  30.75 3.5 0  31.5 3.5 0  32.25 3.5 0  33 3.5 0  33.75 3.5 0  34.5 3.5 0  35.25 3.5 0  36 3.5 0  36.75 3.5 0  37.5 3.5 0  38.25 3.5 0  39 3.5 0  39.75 3.5 0  40.5 3.5 0  41.25 3.5 0  42 3.5 0  42.75 3.5 0  43.5 3.5 0  44.25 3.5 0  45 3.5 0  45.75 3.5 0  46.5 3.5 0  47.25 3.5 0  48 3.5 0  48.75 3.5 0  49.5 3.5 0  50.25 3.5 0  51 3.5 0  51.75 3.5 0  52.5 3.5 0  53.25 3.5 0  54 3.5 0  54.75 3.5 0  55.5 3.5 0  56.25 3.5 0  57 3.5 0  57.75 3.5 0  58.5 3.5 0  59.25 3.5 0  60 3.5 0  0 4 0  0.75 4 0  1.5 4 0  2.25 4 0  3 4 0  3.75 4 0  4.5 4 0  5.25 4 0  6 4 0  6.75 4 0  7.5 4 0  8.25 4 0  9 4 0  9.75 4 0  10.5 4 0  11.25 4 0  12 4 0  12.75 4 0  13.5 4 0  14.25 4 0  15 4 0  15.75 4 0  16.5 4 0  17.25 4 0  18 4 0  18.75 4 0  19.5 4 0  20.25 4 0  21 4 0  21.75 4 0  22.5 4 0  23.25 4 0  24 4 0  24.75 4 0  25.5 4 0  26.25 4 0  27 4 0  27.75 4 0  28.5 4 0  29.25 4 0  30 4 0  30.75 4 0  31.5 4 0  32.25 4 0  33 4 0  33.75 4 0  34.5 4 0  35.25 4 0  36 4 0  36.75 4 0  37.5 4 0  38.25 4 0  39 4 0  39.75 4 0  40.5 4 0  41.25 4 0  42 4 0  42.75 4 0  43.5 4 0  44.25 4 0  45 4 0  45.75 4 0  46.5 4 0  47.25 4 0  48 4 0  48.75 4 0  49.5 4 0  50.25 4 0  51 4 0  51.75 4 0  52.5 4 0  53.25 4 0  54 4 0  54.75 4 0  55.5 4 0  56.25 4 0  57 4 0  57.75 4 0  58.5 4 0  59.25 4 0  60 4 0  0.375 0.25 0  1.125 0.25 0  1.875 0.25 0  2.625 0.25 0  3.375 0.25 0  4.125 0.25 0  4.875 0.25 0  5.625 0.25 0  6.375 0.25 0  7.125 0.25 0  7.875 0.25 0  8.625 0.25 0  9.375 0.25 0  10.125 0.25 0  10.875 0.25 0  11.625 0.25 0  12.375 0.25 0  13.125 0.25 0  13.875 0.25 0  14.625 0.25 0  15.375 0.25 0  16.125 0.25 0  16.875 0.25 0  17.625 0.25 0  18.375 0.25 0  19.125 0.25 0  19.875 0.25 0  20.625 0.25 0  21.375 0.25 0  22.125 0.25 0  22.875 0.25 0  23.625 0.25 0  24.375 0.25 0  25.125 0.25 0  25.875 0.25 0  26.625 0.25 0  27.375 0.25 0  28.125 0.25 0  28.875 0.25 0  29.625 0.25 0  30.375 0.25 0  31.125 0.25 0  31.875 0.25 0  32.625 0.25 0  33.375 0.25 0  34.125 0.25 0  34.875 0.25 0  35.625 0.25 0  36.375 0.25 0  37.125 0.25 0  37.875 0.25 0  38.625 0.25 0  39.375 0.25 0  40.125 0.25 0  40.875 0.25 0  41.625 0.25 0  42.375 0.25 0  43.125 0.25 0  43.875 0.25 0  44.625 0.25 0  45.375 0.25 0  46.125 0.25 0  46.875 0.25 0  47.625 0.25 0  48.375 0.25 0  49.125 0.25 0  49.875 0.25 0  50.625 0.25 0  51.375 0.25 0  52.125 0.25 0  52.875 0.25 0  53.625 0.25 0  54.375 0.25 0  55.125 0.25 0  55.875 0.25 0  56.625 0.25 0  57.375 0.25 0  58.125 0.25 0  58.875 0.25 0  59.625 0.25 0  0.375 0.75 0  1.125 0.75 0  1.875 0.75 0  2.625 0.75 0  3.375 0.75 0  4.125 0.75 0  4.875 0.75 0  5.625 0.75 0  6.375 0.75 0  7.125 0.75 0  7.875 0.75 0  8.625 0.75 0  9.375 0.75 0  10.125 0.75 0  10.875 0.75 0  11.625 0.75 0  12.375 0.75 0  13.125 0.75 0  13.875 0.75 0  14.625 0.75 0  15.375 0.75 0  16.125 0.75 0  16.875 0.75 0  17.625 0.75 0  18.375 0.75 0  19.125 0.75 0  19.875 0.75 0  20.625 0.75 0  21.375 0.75 0  22.125 0.75 0  22.875 0.75 0  23.625 0.75 0  24.375 0.75 0  25.125 0.75 0  25.875 0.75 0  26.625 0.75 0  27.375 0.75 0  28.125 0.75 0  28.875 0.75 0  29.625 0.75 0  30.375 0.75 0  31.125 0.75 0  31.875 0.75 0  32.625 0.75 0  33.375 0.75 0  34.125 0.75 0  34.875 0.75 0  35.625 0.75 0  36.375 0.75 0  37.125 0.75 0  37.875 0.75 0  38.625 0.75 0  39.375 0.75 0  40.125 0.75 0  40
[...]
<PointData  Scalars="f_8-1"> 
<DataArray  type="Float64"  Name="f_8-1"  format="ascii">5.4448504103834070e+00  5.3791650348988789e+00  5.3111097625260850e+00  5.2430701443368024e+00  5.1749981228648885e+00  5.1069175804792124e+00  5.0388346792156673e+00  4.9707515078164777e+00  4.9026685853540295e+00  4.8345859610908057e+00  4.7665035581808004e+00  4.6984212944559047e+00  4.6303391101064166e+00  4.5622569690049879e+00  4.4941748504987684e+00  4.4260927438111759e+00  4.3580106433016992e+00  4.2899285462673866e+00  4.2218464513338274e+00  4.1537643578815908e+00  4.0856822655873044e+00  4.0176001743137162e+00  3.9495180839827477e+00  3.8814359945641175e+00  3.8133539060376842e+00  3.7452718183967213e+00  3.6771897316356470e+00  3.6091076457529301e+00  3.5410255607468648e+00  3.4729434766171372e+00  3.4048613933631633e+00  3.3367793109848649e+00  3.2686972294820018e+00  3.2006151488546966e+00  3.1325330691025939e+00  3.0644509902261832e+00  2.9963689122245216e+00  2.9282868350992048e+00  2.8602047588473520e+00  2.7921226834741306e+00  2.7240406089702618e+00  2.6559585353520059e+00  2.5878764625909265e+00  2.5197943907361440e+00  2.4517123197030308e+00  2.3836302496356780e+00  2.3155481802900910e+00  2.2474661120745512e+00  2.1793840443103205e+00  2.1113019781123383e+00  2.0432199116628169e+00  1.9751378478893502e+00  1.9070557821142511e+00  1.8389737217175692e+00  1.7708916551458691e+00  1.7028096002484094e+00  1.6347275296396608e+00  1.5666454847232498e+00  1.4985634032393700e+00  1.4304813770393239e+00  1.3623992711279149e+00  1.2943172782352628e+00  1.2262351256040511e+00  1.1581531857259113e+00  1.0900709805559736e+00  1.0219891294857129e+00  9.5390702151551476e-01  8.8582519340415222e-01  8.1774314963737937e-01  7.4965847765134486e-01  6.8157128979743109e-01  6.1346881277409882e-01  5.4536530331762501e-01  4.7722883103962560e-01  4.0913888889548716e-01  3.4098126514833771e-01  2.7305269793985226e-01  2.0477748438715609e-01  1.3744383384580466e-01  6.7153971428850281e-02  2.1144816102377346e-03  5.4479359374495253e+00  5.3789935875814896e+00  5.3110775081934545e+00  5.2430222589716671e+00  5.1749487215665768e+00  5.1068676146024439e+00  5.0387846803123040e+00  4.9707015967743269e+00  4.9026187687010907e+00  4.8345362159336682e+00  4.7664538593691868e+00  4.6983716227340260e+00  4.6302894534189880e+00  4.5622073203135267e+00  4.4941252059482704e+00  4.4260431013429882e+00  4.3579610018635568e+00  4.2898789053325066e+00  4.2217968106417336e+00  4.1537147173075084e+00  4.0856326250692030e+00  4.0175505338235320e+00  3.9494684435053573e+00  3.8813863540937157e+00  3.8133042655702529e+00  3.7452221779313288e+00  3.6771400911710859e+00  3.6090580052891852e+00  3.5409759202835547e+00  3.4728938361543160e+00  3.4048117529007493e+00  3.3367296705228071e+00  3.2686475890204636e+00  3.2005655083933173e+00  3.1324834286420402e+00  3.0644013497652494e+00  2.9963192717653637e+00  2.9282371946380237e+00  2.8601551183908120e+00  2.7920730430106433e+00  2.7239909685198138e+00  2.6559088948804521e+00  2.5878268221561194e+00  2.5197447502409918e+00  2.4516626793089746e+00  2.3835806090770566e+00  2.3154985399995738e+00  2.2474164713552613e+00  2.1793344042722733e+00  2.1112523370081719e+00  2.0431702722108742e+00  1.9750882059121289e+00  1.9070061439534096e+00  1.8389240778643974e+00  1.7708420196807253e+00  1.7027599525762211e+00  1.6346778994955686e+00  1.5665958297212403e+00  1.4985137828876895e+00  1.4304317090927834e+00  1.3623496667598241e+00  1.2942675908660386e+00  1.2261855406571869e+00  1.1581034803959360e+00  1.0900213956010154e+00  1.0219394476578216e+00  9.5385732279921698e-01  8.8577570113006365e-01  8.1769283002546878e-01  7.4960954142222991e-01  6.8151832006939084e-01  6.1342167210968734e-01  5.4530536113680184e-01  4.7719078366900480e-01  4.0906084935366954e-01  3.4097967130405987e-01  2.7290722038955073e-01  2.0490370313150286e-01  1.3688466058740789e-01  6.8100236937634173e-02  -5.1183018264197751e-04  5.4478604182331090e+00  5.3792915288901764e+00  5.3111113302990045e+00  5.2430157354080391e+00  5.1749274946934314e+00  5.1068417875473866e+00  5.0387573657136544e+00  4.9706737730769559e+00  4.9025907449876547e+00  4.8345080953866129e+00  4.7664256837303656e+00  4.6983434135851976e+00  4.6302612240465946e+00  4.5621790790158805e+00  4.4940969578986918e+00  4.4260148495614002e+00  4.3579327480965704e+00  4.2898506505208296e+00  4.2217685553019271e+00  4.1536864616993103e+00  4.0856043693312847e+00  4.0175222780209214e+00  3.9494401876730838e+00  3.8813580982466935e+00  3.8132760097171281e+00  3.7451939220751900e+00  3.6771118353140411e+00  3.6090297494317731e+00  3.5409476644262421e+00  3.4728655802972308e+00  3.4047834970438102e+00  3.3367014146663703e+00  3.2686193331638558e+00  3.2005372525377656e+00  3.1324551727853209e+00  3.0643730939112870e+00  2.9962910159072464e+00  2.9282089387878125e+00  2.8601268625276672e+00  2.7920447871702208e+00  2.7239627126416663e+00  2.6558806390661727e+00  2.5877985662367786e+00  2.5197164944945949e+00  2.4516344232834313e+00  2.3835523534989922e+00  2.3154702837163215e+00  2.2473882161712928e+00  2.1793061474034454e+00  2.1112240826866100e+00  2.0431420141060257e+00  1.9750599533351345e+00  1.9069778834525135e+00  1.8388958284984744e+00  1.7708137549962792e+00  1.7027317084167584e+00  1.6346496285340522e+00  1.5665675923022904e+00  1.4984855051075086e+00  1.4304034755473454e+00  1.3623213894709230e+00  1.2942393423010892e+00  1.2261572952187314e+00  1.1580751523090131e+00  1.0899932596332753e+00  1.0219108290578571e+00  9.5382934269836495e-01  8.8574594986750321e-01  8.1766454992875581e-01  7.4957615063684802e-01  6.8148982523835766e-01  6.1338322130919798e-01  5.4528403421856264e-01  4.7714888317884541e-01  4.0905852800541281e-01  3.4092364889769683e-01  2.7290643747615001e-01  2.0472964941425337e-01  1.3675069794067332e-01  6.7958479293880145e-02  2.9268316292563784e-04  5.4478663728773586e+00  5.3794550437836932e+00  5.3112104196004699e+00  5.2430703856520404e+00  5.1749671257462815e+00  5.1068763378501600e+00  5.0387901609920718e+00  4.9707059151279624e+00  4.9026226062146918e+00  4.8345398110811821e+00  4.7664573149543434e+00  4.6983749941931094e+00  4.6302927746719407e+00  4.5622106123057833e+00  4.4941284815053528e+00  4.4260463679002306e+00  4.3579642636635194e+00  4.2898821646519467e+00  4.2218000687127581e+00  4.1537179747492257e+00  4.0856358822071952e+00  4.0175537908112240e+00  3.9494717004239814e+00  3.8813896109782577e+00  3.8133075224404904e+00  3.7452254347944178e+00  3.6771433480318056e+00  3.6090612621486455e+00  3.5409791771429577e+00  3.4728970930135636e+00  3.4048150097602958e+00  3.3367329273822035e+00  3.2686508458804155e+00  3.2005687652525738e+00  3.1324866855026952e+00  3.0644046066235897e+00  2.9963225286278172e+00  2.9282404514934819e+00  2.8601583752583450e+00  2.7920762998577895e+00  2.7239942254013516e+00  2.6559121517050399e+00  2.5878300790747448e+00  2.5197480070071721e+00  2.4516659363210160e+00  2.3835838656999071e+00  2.3155017972338672e+00  2.2474197276469794e+00  2.1793376620024478e+00  2.1112555925854806e+00  2.0431735309686476e+00  1.9750914600647604e+00  1.9070094046598651e+00  1.8389273294352313e+00  1.7708452836668569e+00  1.7027632000514707e+00  1.6346811679745497e+00  1.5665990721114691e+00  1.4985170546415447e+00  1.4304349490342121e+00  1.3623529311520668e+00  1.2942708425757024e+00  1.2261887590863028e+00  1.1581067787985602e+00  1.0900244271720902e+00  1.0219427537573211e+00  9.5385945991005627e-01  8.8577811403977236e-01  8.1769110517899102e-01  7.4960818080271541e-01  6.8150844860682247e-01  6.1341990021435844e-01  5.4529397979509997e-01  4.7720984869919419e-01  4.0905542822922442e-01  3.4102384436276695e-01  2.7282374594858477e-01  2.0486507905021367e-01  1.3643668603252720e-01  6.8399689374444572e-02  -2.1329261408318056e-04  5.4478723036033685e+00  5.3794988926129337e+00  5.3112438374315616e+00  5.2430895838035454e+00  5.1749804294785129e+00  5.1068876318016496e+00  5.0388007671683477e+00  4.9707162700390821e+00  4.9026328572558731e+00  4.8345500109719239e+00  4.7664674859887137e+00  4.6983851481201411e+00  4.6303029185059392e+00  4.5622207503092413e+00  4.4941386162384420e+00  4.4260565008527406e+00  4.3579743956774903e+00  4.2898922961840285e+00  4.2218102000049393e+00  4.1537281059245865e+00  4.0856460133277439e+00  4.0175639219066728e+00  3.9494818315087277e+00  3.8813997420586985e+00  3.8133176535195794e+00  3.7452355658732657e+00  3.6771534791108551e+00  3.6090713932280325e+00  3.5409893082225161e+00  3.4729072240935084e+00  3.4048251408400403e+00  3.3367430584626381e+00  3.2686609769597879e+00  3.2005788963339130e+00  3.1324968165805496e+00  3.0644147377075082e+00  2.9963326597010611e+00  2.9282505825850826e+00  2.8601685063183369e+00  2.7920864309714388e+00  2.7240043564245551e+00  2.6559222828790818e+00  2.5878402099998890e+00  2.5197581383388248e+00  2.4516760669970621e+00  2.3835939974216549e+00  2.3155119273109417e+00  2.2474298602789449e+00  2.1793477907261707e+00  2.1112657272048452e+00  2.0431836568435453e+00  1.9751015987048106e+00  1.9070195250157682e+00  1.8389374754905121e+00  1.7708553944054131e+00  1.7027733581380187e+00  1.6346912644793274e+00  1.5666092456504130e+00  1.4985271366592936e+00  1.4304451310094011e+00  1.3623630183022666e+00  1.2942809896331473e+00  1.2261989291037811e+00  1.1581167490683137e+00  1.0900348897838639e+00  1.0219521465812447e+00  9.5387066054264757e-01  8.8578578993510726e-01  8.1770395214237090e-01  7.4961130556925892e-01  6.8152587098578887e-01  6.1341353400057064e-01  5.4532575339543465e-01  4.7718523579909139e-01  4.0912168626570888e-01  3.4095302235175201e-01  2.7294774668432409e-01  2.0468878889373904e-01  1.3664054319176389e-01  6.8170561510124406e-02  1.3245715305203052e-04  5.4478663627506885e+00  5.3794549332173176e+00  5.3112103113675593e+00  5.2430703132016347e+00  5.1749670812571233e+00  5.1068763103807404e+00  5.0387901430768904e+00  4.9707059024711517e+00  4.9026225965660402e+00  4.8345398032609097e+00  4.7664573082965305e+00  4.6983749882908210e+00  4.6302927692654823e+00  4.5622106072273105e+00  4.4941284766459111e+00  4.4260463631886120e+00  4.3579642590525429e+00  4.2898821601099684e+00  4.2218000642182716e+00  4.1537179702875449e+00  4.0856358777681825e+00  4.0175537863878787e+00  3.9494716960114564e+00  3.8813896065731939e+00  3.8133075180405740e+00  3.7452254303980226e+00  3.6771433436378498e+00  3.6090612577563514e+00  3.5409791727518076e+00  3.4728970886231911e+00  3.4048150053704656e+00  3.3367329229927400e+00  3.2686508414912097e+00  3.2005687608635487e+00  3.1324866811137921e+00  3.0644046022347835e+00  2.9963225242390892e+00  2.9282404471048258e+00  2.8601583708697680e+00  2.7920762954693128e+00  2.7239942210130024e+00  2.6559121473168696e+00  2.5878300746868295e+00  2.5197480026196306e+00  2.4516659319340279e+00  2.3835838613137077e+00  2.3155017928488508e+00  2.2474197232636572e+00  2.1793376576216450e+00  2.1112555882083459e+00  2.0431735265968314e+00  1.9750914557008801e+00  1.9070094003071756e+00  1.8389273250996176e+00  1.7708452793546516e+00  1.7027631957757521e+00  1.6346811637474332e+00  1.5665990679613024e+00  1.4985170505912739e+00  1.4304349451435978e+00  1.3623529274627844e+00  1.2942708392109554e+00  1.2261887561129794e+00  1.1581067764603064e+00  1.0900244255372513e+00  1.0219427532411296e+00  9.5385946037407066e-01  8.8577811587501920e-01  8.1769110709777604e-01  7.4960818232695470e-01  6.8150844561375457e-01  6.1341989249370832e-01  5.4529396253940210e-01  4.7720983004997947e-01  4.0905540362363324e-01  3.4102383557961574e-01  2.7282373975254426e-01  2.0486511669281121e-01  1.3643670986774797e-01  6.8399729803919965e-02  -2.1331482483264867e-04  5.4478603866585722e+00  5.3792912399470012e+00  5.3111110972380615e+00  5.2430155905904385e+00  5.1749274058895196e+00  5.1068417308879779e+00  5.0387573266330827e+00  4.9706737437566826e+00  4.9025907213867370e+00  4.8345080753207856e+00  4.7664256659242517e+00  4.6983433972487640e+00  4.6302612086763224e+00  4.5621790642872240e+00  4.4940969436006606e+00  4.4260148355552680e+00  4.3579327342898377e+00  4.2898506368510763e+00  4.2217685417266129e+00  4.1536864481892311e+00  4.0856043558662991e+00  4.0175222645870923e+00  3.9494401742607694e+00  3.8813580848492202e+00  3.8132759963298639e+00  3.7451939086949531e+00  3.6771118219386301e+00  3.6090297360596728e+00  3.5409476510564044e+00  3.4728655669289465e+00  3.4047834836765878e+00  3.3367014012998810e+00  3.2686193197978795e+00  3.2005372391721441e+00  3.1324551594199388e+00  3.0643730805460998e+00  2.9962910025422094e+00  2.9282089254229322e+00  2.8601268491629543e+00  2.7920447738056935e+00  2.7239626992773931e+00  2.6558806257022720e+00  2.5877985528733820e+00  2.5197164811319617e+00  2.4516344099218843e+00  2.3835523401390772e+00  2.3154702703587478e+00  2.2473882028171883e+00  2.1793061340543751e+00  2.1112240693449387e+00  2.0431420007751990e+00  1.9750599400199871e+00  1.9069778701606819e+00  1.8388958152396875e+00  1.7708137417873993e+00  1.7027316952770519e+00  1.6346496155002190e+00  1.5665675794119034e+00  1.4984854924388016e+00  1.4304034631718849e+00  1.3623213775514762e+00  1.2942393309674556e+00  1.2261572847995201e+00  1.1580751430119538e+00  1.0899932520753042e+00  1.0219108234288081e+00  9.5382933987386387e-01  8.8574594917958083e-01  8.1766455131427529e-01  7.4957614931646610e-01  6.8148981770969663e-01  6.1338319741298097e-01  5.4528399695469298e-01  4.7714883089223115e-01  4.0905848285489654e-01  3.4092360411191003e-01  2.7290644233573735e-01  2.0472968347915180e-01  1.3675081496641067e-01  6.7958487702975440e-02  2.9273520604119910e-04  5.4479358980198249e+00  5.3789929087751052e+00  5.3110771470756601e+00  5.2430220300401400e+00  5.1749485691360810e+00  5.1068675045151899e+00  5.0387845930989439e+00  4.9707015220802155e+00  4.9026187012534939e+00  4.8345361529484920e+00  4.7664537992447302e+00  4.6983715644777835e+00  4.6302893963934997e+00  4.5622072641052522e+00  4.4941251502876893e+00  4.4260430460530573e+00  4.3579609468265224e+00  4.2898788504691314e+00  4.2217967558980760e+00  4.1537146626465864e+00  4.0856325704655028e+00  4.0175504792593584e+00  3.9494683889685192e+00  3.8813862995757051e+00  3.8133042110652196e+00  3.7452221234352363e+00  3.6771400366811089e+00  3.6090579508034240e+00  3.5409758658006756e+00  3.4728937816734105e+00  3.4048116984211885e+00  3.3367296160441842e+00  3.2686475345424917e+00  3.2005654539157908e+00  3.1324833741648308e+00  3.0644012952882753e+00  2.9963192172885891e+00  2.9282371401614600e+00  2.8601550639144460e+00  2.7920729885345166e+00  2.7239909140440219e+00  2.6559088404051203e+00  2.5878267676814537e+00  2.5197446957672853e+00  2.4516626248366831e+00  2.3835805546068278e+00  2.3154984855323608e+00  2.2474164168924697e+00  2.1793343498159534e+00  2.1112522825613218e+00  2.0431702177778819e+00  1.9750881514993721e+00  1.9070060895701615e+00  1.8389240235242847e+00  1.7708419654031371e+00  1.7027598983899710e+00  1.6346778454407707e+00  1.5665957758578990e+00  1.4985137292975601e+00  1.4304316558982282e+00  1.3623496141235252e+00  1.2942675390303104e+00  1.2261854899322315e+00  1.1581034312349832e+00  1.0900213485335750e+00  1.0219394033851539e+00  9.5385728186621110e-01  8.8577566380231498e-01  8.1769279495763736e-01  7.4960950506694357e-01  6.8151827431210388e-01  6.1342160855420769e-01  5.4530527338502444e-01  4.7719068105193158e-01  4.0906074180483004e-01  3.4097958051221738e-01  2.7290717265345699e-01  2.0490374234493366e-01  1.3688479503973258e-01  6.8100278666720679e-02  -5.1194661783569579e-04  5.4448474295661757e+00  5.3791644629229349e+00  5.3111093556109026e+00  5.2430698789890906e+00  5.1749979351245363e+00  5.1069174364589260e+00  5.0388345589275447e+00  4.9707514003916744e+00  4.9026684852137103e+00  4.8345858653413822e+00  4.7665034652067435e+00  4.6984212032799597e+00  4.6303390201092691e+00  4.5622568797873706e+00  4.4941747618014825e+00  4.4260926554647106e+00  4.3580105551938795e+00  4.2899284583231152e+00  4.2218463635021735e+00  4.1537642701277422e+00  4.0856821778872794e+00  4.0176000866508899e+00  3.9495179963456684e+00  3.8814359069447883e+00  3.8133538184305960e+00  3.7452717307980818e+00  3.6771896440427820e+00  3.6091075581640522e+00  3.5410254731607211e+00  3.4729433890328556e+00  3.4048613057801580e+00  3.3367792234027522e+00  3.2686971419005135e+00  3.2006150612736324e+00  3.1325329815218255e+00  3.0644509026456430e+00  2.9963688246441764e+00  2.9282867475190781e+00  2.8602046712674247e+00  2.7921225958944471e+00  2.7240405213909287e+00  2.6559584477731604e+00  2.5878763750127711e+00  2.5197943031590100e+00  2.4517122321273814e+00  2.3836301620622042e+00  2.3155480927197867e+00  2.2474660245089186e+00  2.1793839567514945e+00  2.1113018905635070e+00  2.0432198241285899e+00  1.9751377603764197e+00  1.9070556946325263e+00  1.8389736342811049e+00  1.7708915677757859e+00  1.7028095129738510e+00  1.6347274425052054e+00  1.5666453977885468e+00  1.4985633165968768e+00  1.4304812908089739e+00  1.3623991854967608e+00  1.2943171934372342e+00  1.2262350420043733e+00  1.1581531037498731e+00  1.0900709008587721e+00  1.0219890526771209e+00  9.5390694842227919e-01  8.8582512403023217e-01  8.1774308326143552e-01  7.4965841013908885e-01  6.8157121438502544e-01  6.1346871934258440e-01  5.4536518658934907e-01  4.7722869452663713e-01  4.0913874742054390e-01  3.4098113065408653e-01  2.7305262532214192e-01  2.0477745541220621e-01  1.3744403751252901e-01  6.7153811407661190e-02  2.1146747737676034e-03  5.4126592402779332e+00  5.3449507296466292e+00  5.2769278463082419e+00  5.2088682517626390e+00  5.1407916201128288e+00  5.0727098401937045e+00  5.0046268731283714e+00  4.9365439076028963e+00  4.8684612000263972e+00  4.8003787320870552e+00  4.7322964278074187e+00  4.6642142207069774e+00  4.5961320674341275e+00  4.5280499426608225e+00  4.4599678327029251e+00  4.3918857304397649e+00  4.3238036323428206e+00  4.2557215366896228e+00  4.1876394426611254e+00  4.1195573498674953e+00  4.0514752581233564e+00  3.9833931673409446e+00  3.9153110774765136e+00  3.8472289885099085e+00  3.7791469004297333e+00  3.7110648132313968e+00  3.6429827269115083e+00  3.5749006414690290e+00  3.5068185569028305e+00  3.4387364732127090e+00  3.3706543903982129e+00  3.3025723084592937e+00  3.2344902273958778e+00  3.1664081472078087e+00  3.0983260678952700e+00  3.0302439894578046e+00  2.9621619118961391e+00  2.8940798352089279e+00  2.8259977593985455e+00  2.7579156844608370e+00  2.6898336104028355e+00  2.6217515372124911e+00  2.5536694649101284e+00  2.4855873934614583e+00  2.4175053229232351e+00  2.3494232532019574e+00  2.2813411844489773e+00  2.2132591164207529e+00  2.1451770495020237e+00  2.0770949830898608e+00  2.0090129181107876e+00  1.9409308531534764e+00  1.8728487903223026e+00  1.8047667265054279e+00  1.7366846661930773e+00  1.6686026029412888e+00  1.6005205457161038e+00  1.5324384820134354e+00  1.4643564284627282e+00  1.3962743624933791e+00  1.3281923122145969e+00  1.2601102412385268e+00  1.1920281921063163e+00  1.1239461230053351e+00  1.0558640941988977e+00  9.8778210773790276e-01  9.1970016006668398e-01  8.5161813235320816e-01  7.8353483205466290e-01  7.1544842801073794e-01  6.4735376556934998e-01  5.7924927671232285e-01  5.1113117636497019e-01  4.4301313017061322e-01  3.7490108373656172e-01  3.0683193215466914e-01  2.3879853138696389e-01  1.7076556014417077e-01  1.0255445721211193e-01  3.2797420477922515e-02  5.4135654166588516e+00  5.3451694366470699e+00  5.2771160323149289e+00  5.2090395730654739e+00  5.1409579161655659e+00  5.0728745651687275e+00  5.0047911630566526e+00  4.9367080954840077e+00  4.8686253742280030e+00  4.8005429093412673e+00  4.7324606086656100e+00  4.6643784032017122e+00  4.5962962503449214e+00  4.5282141253729478e+00  4.4601320151222481e+00  4.3920499125892523e+00  4.3239678143196860e+00  4.2558857185522623e+00  4.1878036244634966e+00  4.1197215316332345e+00  4.05163943987