<?xml version="1.0"?>
<VTKFile type="UnstructuredGrid"  version="0.1"  >
<UnstructuredGrid>
<Piece  NumberOfPoints="1369" NumberOfCells="2560">
<Points>
<DataArray  type="Float64"  NumberOfComponents="3"  format="ascii">0 0 0  0.75 0 0  1.5 0 0  2.25 0 0  3 0 0  3.75 0 0  4.5 0 0  5.25 0 0  6 0 0  6.75 0 0  7.5 0 0  8.25 0 0  9 0 0  9.75 0 0  10.5 0 0  11.25 0 0  12 0 0  12.75 0 0  13.5 0 0  14.25 0 0  15 0 0  15.75 0 0  16.5 0 0  17.25 0 0  18 0 0  18.75 0 0  19.5 0 0  20.25 0 0  21 0 0  21.75 0 0  22.5 0 0  23.25 0 0  24 0 0  24.75 0 0  25.5 0 0  26.25 0 0  27 0 0  27.75 0 0  28.5 0 0  29.25 0 0  30 0 0  30.75 0 0  31.5 0 0  32.25 0 0  33 0 0  33.75 0 0  34.5 0 0  35.25 0 0  36 0 0  36.75 0 0  37.5 0 0  38.25 0 0  39 0 0  39.75 0 0  40.5 0 0  41.25 0 0  42 0 0  42.75 0 0  43.5 0 0  44.25 0 0  45 0 0  45.75 0 0  46.5 0 0  47.25 0 0  48 0 0  48.75 0 0  49.5 0 0  50.25 0 0  51 0 0  51.75 0 0  52.5 0 0  53.25 0 0  54 0 0  54.75 0 0  55.5 0 0  56.25 0 0  57 0 0  57.75 0 0  58.5 0 0  59.25 0 0  60 0 0  0 0.5 0  0.75 0.5 0  1.5 0.5 0  2.25 0.5 0  3 0.5 0  3.75 0.5 0  4.5 0.5 0  5.25 0.5 0  6 0.5 0  6.75 0.5 0  7.5 0.5 0  8.25 0.5 0  9 0.5 0  9.75 0.5 0  10.5 0.5 0  11.25 0.5 0  12 0.5 0  12.75 0.5 0  13.5 0.5 0  14.25 0.5 0  15 0.5 0  15.75 0.5 0  16.5 0.5 0  17.25 0.5 0  18 0.5 0  18.75 0.5 0  19.5 0.5 0  20.25 0.5 0  21 0.5 0  21.75 0.5 0  22.5 0.5 0  23.25 0.5 0  24 0.5 0  24.75 0.5 0  25.5 0.5 0  26.25 0.5 0  27 0.5 0  27.75 0.5 0  28.5 0.5 0  29.25 0.5 0  30 0.5 0  30.75 0.5 0  31.5 0.5 0  32.25 0.5 0  33 0.5 0  33.75 0.5 0  34.5 0.5 0  35.25 0.5 0  36 0.5 0  36.75 0.5 0  37.5 0.5 0  38.25 0.5 0  39 0.5 0  39.75 0.5 0  40.5 0.5 0  41.25 0.5 0  42 0.5 0  42.75 0.5 0  43.5 0.5 0  44.25 0.5 0  45 0.5 0  45.75 0.5 0  46.5 0.5 0  47.25 0.5 0  48 0.5 0  48.75 0.5 0  49.5 0.5 0  50.25 0.5 0  51 0.5 0  51.75 0.5 0  52.5 0.5 0  53.25 0.5 0  54 0.5 0  54.75 0.5 0  55.5 0.5 0  56.25 0.5 0  57 0.5 0  57.75 0.5 0  58.5 0.5 0  59.25 0.5 0  60 0.5 0  0 1 0  0.75 1 0  1.5 1 0  2.25 1 0  3 1 0  3.75 1 0  4.5 1 0  5.25 1 0  6 1 0  6.75 1 0  7.5 1 0  8.25 1 0  9 1 0  9.75 1 0  10.5 1 0  11.25 1 0  12 1 0  12.75 1 0  13.5 1 0  14.25 1 0  15 1 0  15.75 1 0  16.5 1 0  17.25 1 0  18 1 0  18.75 1 0  19.5 1 0  20.25 1 0  21 1 0  21.75 1 0  22.5 1 0  23.25 1 0  24 1 0  24.75 1 0  25.5 1 0  26.25 1 0  27 1 0  27.75 1 0  28.5 1 0  29.25 1 0  30 1 0  30.75 1 0  31.5 1 0  32.25 1 0  33 1 0  33.75 1 0  34.5 1 0  35.25 1 0  36 1 0  36.75 1 0  37.5 1 0  38.25 1 0  39 1 0  39.75 1 0  40.5 1 0  41.25 1 0  42 1 0  42.75 1 0  43.5 1 0  44.25 1 0  45 1 0  45.75 1 0  46.5 1 0  47.25 1 0  48 1 0  48.75 1 0  49.5 1 0  50.25 1 0  51 1 0  51.75 1 0  52.5 1 0  53.25 1 0  54 1 0  54.75 1 0  55.5 1 0  56.25 1 0  57 1 0  57.75 1 0  58.5 1 0  59.25 1 0  60 1 0  0 1.5 0  0.75 1.5 0  1.5 1.5 0  2.25 1.5 0  3 1.5 0  3.75 1.5 0  4.5 1.5 0  5.25 1.5 0  6 1.5 0  6.75 1.5 0  7.5 1.5 0  8.25 1.5 0  9 1.5 0  9.75 1.5 0  10.5 1.5 0  11.25 1.5 0  12 1.5 0  12.75 1.5 0  13.5 1.5 0  14.25 1.5 0  15 1.5 0  15.75 1.5 0  16.5 1.5 0  17.25 1.5 0  18 1.5 0  18.75 1.5 0  19.5 1.5 0  20.25 1.5 0  21 1.5 0  21.75 1.5 0  22.5 1.5 0  23.25 1.5 0  24 1.5 0  24.75 1.5 0  25.5 1.5 0  26.25 1.5 0  27 1.5 0  27.75 1.5 0  28.5 1.5 0  29.25 1.5 0  30 1.5 0  30.75 1.5 0  31.5 1.5 0  32.25 1.5 0  33 1.5 0  33.75 1.5 0  34.5 1.5 0  35.25 1.5 0  36 1.5 0  36.75 1.5 0  37.5 1.5 0  38.25 1.5 0  39 1.5 0  39.75 1.5 0  40.5 1.5 0  41.25 1.5 0  42 1.5 0  42.75 1.5 0  43.5 1.5 0  44.25 1.5 0  45 1.5 0  45.75 1.5 0  46.5 1.5 0  47.25 1.5 0  48 1.5 0  48.75 1.5 0  49.5 1.5 0  50.25 1.5 0  51 1.5 0  51.75 1.5 0  52.5 1.5 0  53.25 1.5 0  54 1.5 0  54.75 1.5 0  55.5 1.5 0  56.25 1.5 0  57 1.5 0  57.75 1.5 0  58.5 1.5 0  59.25 1.5 0  60 1.5 0  0 2 0  0.75 2 0  1.5 2 0  2.25 2 0  3 2 0  3.75 2 0  4.5 2 0  5.25 2 0  6 2 0  6.75 2 0  7.5 2 0  8.25 2 0  9 2 0  9.75 2 0  10.5 2 0  11.25 2 0  12 2 0  12.75 2 0  13.5 2 0  14.25 2 0  15 2 0  15.75 2 0  16.5 2 0  17.25 2 0  18 2 0  18.75 2 0  19.5 2 0  20.25 2 0  21 2 0  21.75 2 0  22.5 2 0  23.25 2 0  24 2 0  24.75 2 0  25.5 2 0  26.25 2 0  27 2 0  27.75 2 0  28.5 2 0  29.25 2 0  30 2 0  30.75 2 0  31.5 2 0  32.25 2 0  33 2 0  33.75 2 0  34.5 2 0  35.25 2 0  36 2 0  36.75 2 0  37.5 2 0  38.25 2 0  39 2 0  39.75 2 0  40.5 2 0  41.25 2 0  42 2 0  42.75 2 0  43.5 2 0  44.25 2 0  45 2 0  45.75 2 0  46.5 2 0  47.25 2 0  48 2 0  48.75 2 0  49.5 2 0  50.25 2 0  51 2 0  51.75 2 0  52.5 2 0  53.25 2 0  54 2 0  54.75 2 0  55.5 2 0  56.25 2 0  57 2 0  57.75 2 0  58.5 2 0  59.25 2 0  60 2 0  0 2.5 0  0.75 2.5 0  1.5 2.5 0  2.25 2.5 0  3 2.5 0  3.75 2.5 0  4.5 2.5 0  5.25 2.5 0  6 2.5 0  6.75 2.5 0  7.5 2.5 0  8.25 2.5 0  9 2.5 0  9.75 2.5 0  10.5 2.5 0  11.25 2.5 0  12 2.5 0  12.75 2.5 0  13.5 2.5 0  14.25 2.5 0  15 2.5 0  15.75 2.5 0  16.5 2.5 0  17.25 2.5 0  18 2.5 0  18.75 2.5 0  19.5 2.5 0  20.25 2.5 0  21 2.5 0  21.75 2.5 0  22.5 2.5 0  23.25 2.5 0  24 2.5 0  24.75 2.5 0  25.5 2.5 0  26.25 2.5 0  27 2.5 0  27.75 2.5 0  28.5 2.5 0  29.25 2.5 0  30 2.5 0  30.75 2.5 0  31.5 2.5 0  32.25 2.5 0  33 2.5 0  33.75 2.5 0  34.5 2.5 0  35.25 2.5 0  36 2.5 0  36.75 2.5 0  37.5 2.5 0  38.25 2.5 0  39 2.5 0  39.75 2.5 0  40.5 2.5 0  41.25 2.5 0  42 2.5 0  42.75 2.5 0  43.5 2.5 0  44.25 2.5 0  45 2.5 0  45.75 2.5 0  46.5 2.5 0  47.25 2.5 0  48 2.5 0  48.75 2.5 0  49.5 2.5 0  50.25 2.5 0  51 2.5 0  51.75 2.5 0  52.5 2.5 0  53.25 2.5 0  54 2.5 0  54.75 2.5 0  55.5 2.5 0  56.25 2.5 0  57 2.5 0  57.75 2.5 0  58.5 2.5 0  59.25 2.5 0  60 2.5 0  0 3 0  0.75 3 0  1.5 3 0  2.25 3 0  3 3 0  3.75 3 0  4.5 3 0  5.25 3 0  6 3 0  6.75 3 0  7.5 3 0  8.25 3 0  9 3 0  9.75 3 0  10.5 3 0  11.25 3 0  12 3 0  12.75 3 0  13.5 3 0  14.25 3 0  15 3 0  15.75 3 0  16.5 3 0  17.25 3 0  18 3 0  18.75 3 0  19.5 3 0  20.25 3 0  21 3 0  21.75 3 0  22.5 3 0  23.25 3 0  24 3 0  24.75 3 0  25.5 3 0  26.25 3 0  27 3 0  27.75 3 0  28.5 3 0  29.25 3 0  30 3 0  30.75 3 0  31.5 3 0  32.25 3 0  33 3 0  33.75 3 0  34.5 3 0  35.25 3 0  36 3 0  36.75 3 0  37.5 3 0  38.25 3 0  39 3 0  39.75 3 0  40.5 3 0  41.25 3 0  42 3 0  42.75 3 0  43.5 3 0  44.25 3 0  45 3 0  45.75 3 0  46.5 3 0  47.25 3 0  48 3 0  48.75 3 0  49.5 3 0  50.25 3 0  51 3 0  51.75 3 0  52.5 3 0  53.25 3 0  54 3 0  54.75 3 0  55.5 3 0  56.25 3 0  57 3 0  57.75 3 0  58.5 3 0  59.25 3 0  60 3 0  0 3.5 0  0.75 3.5 0  1.5 3.5 0  2.25 3.5 0  3 3.5 0  3.75 3.5 0  4.5 3.5 0  5.25 3.5 0  6 3.5 0  6.75 3.5 0  7.5 3.5 0  8.25 3.5 0  9 3.5 0  9.75 3.5 0  10.5 3.5 0  11.25 3.5 0  12 3.5 0  12.75 3.5 0  13.5 3.5 0  14.25 3.5 0  15 3.5 0  15.75 3.5 0  16.5 3.5 0  17.25 3.5 0  18 3.5 0  18.75 3.5 0  19.5 3.5 0  20.25 3.5 0  21 3.5 0  21.75 3.5 0  22.5 3.5 0  23.25 3.5 0  24 3.5 0  24.75 3.5 0  25.5 3.5 0  26.25 3.5 0  27 3.5 0  27.75 3.5 0  28.5 3.5 0  29.25 3.5 0  30 3.5 0  30.75 3.5 0  31.5 3.5 0  32.25 3.5 0  33 3.5 0  33.75 3.5 0  34.5 3.5 0  35.25 3.5 0  36 3.5 0  36.75 3.5 0  37.5 3.5 0  38.25 3.5 0  39 3.5 0  39.75 3.5 0  40.5 3.5 0  41.25 3.5 0  42 3.5 0  42.75 3.5 0  43.5 3.5 0  44.25 3.5 0  45 3.5 0  45.75 3.5 0  46.5 3.5 0  47.25 3.5 0  48 3.5 0  48.75 3.5 0  49.5 3.5 0  50.25 3.5 0  51 3.5 0  51.75 3.5 0  52.5 3.5 0  53.25 3.5 0  54 3.5 0  54.75 3.5 0  55.5 3.5 0  56.25 3.5 0  57 3.5 0  57.75 3.5 0  58.5 3.5 0  59.25 3.5 0  60 3.5 0  0 4 0  0.75 4 0  1.5 4 0  2.25 4 0  3 4 0  3.75 4 0  4.5 4 0  5.25 4 0  6 4 0  6.75 4 0  7.5 4 0  8.25 4 0  9 4 0  9.75 4 0  10.5 4 0  11.25 4 0  12 4 0  12.75 4 0  13.5 4 0  14.25 4 0  15 4 0  15.75 4 0  16.5 4 0  17.25 4 0  18 4 0  18.75 4 0  19.5 4 0  20.25 4 0  21 4 0  21.75 4 0  22.5 4 0  23.25 4 0  24 4 0  24.75 4 0  25.5 4 0  26.25 4 0  27 4 0  27.75 4 0  28.5 4 0  29.25 4 0  30 4 0  30.75 4 0  31.5 4 0  32.25 4 0  33 4 0  33.75 4 0  34.5 4 0  35.25 4 0  36 4 0  36.75 4 0  37.5 4 0  38.25 4 0  39 4 0  39.75 4 0  40.5 4 0  41.25 4 0  42 4 0  42.75 4 0  43.5 4 0  44.25 4 0  45 4 0  45.75 4 0  46.5 4 0  47.25 4 0  48 4 0  48.75 4 0  49.5 4 0  50.25 4 0  51 4 0  51.75 4 0  52.5 4 0  53.25 4 0  54 4 0  54.75 4 0  55.5 4 0  56.25 4 0  57 4 0  57.75 4 0  58.5 4 0  59.25 4 0  60 4 0  0.375 0.25 0  1.125 0.25 0  1.875 0.25 0  2.625 0.25 0  3.375 0.25 0  4.125 0.25 0  4.875 0.25 0  5.625 0.25 0  6.375 0.25 0  7.125 0.25 0  7.875 0.25 0  8.625 0.25 0  9.375 0.25 0  10.125 0.25 0  10.875 0.25 0  11.625 0.25 0  12.375 0.25 0  13.125 0.25 0  13.875 0.25 0  14.625 0.25 0  15.375 0.25 0  16.125 0.25 0  16.875 0.25 0  17.625 0.25 0  18.375 0.25 0  19.125 0.25 0  19.875 0.25 0  20.625 0.25 0  21.375 0.25 0  22.125 0.25 0  22.875 0.25 0  23.625 0.25 0  24.375 0.25 0  25.125 0.25 0  25.875 0.25 0  26.625 0.25 0  27.375 0.25 0  28.125 0.25 0  28.875 0.25 0  29.625 0.25 0  30.375 0.25 0  31.125 0.25 0  31.875 0.25 0  32.625 0.25 0  33.375 0.25 0  34.125 0.25 0  34.875 0.25 0  35.625 0.25 0  36.375 0.25 0  37.125 0.25 0  37.875 0.25 0  38.625 0.25 0  39.375 0.25 0  40.125 0.25 0  40.875 0.25 0  41.625 0.25 0  42.375 0.25 0  43.125 0.25 0  43.875 0.25 0  44.625 0.25 0  45.375 0.25 0  46.125 0.25 0  46.875 0.25 0  47.625 0.25 0  48.375 0.25 0  49.125 0.25 0  49.875 0.25 0  50.625 0.25 0  51.375 0.25 0  52.125 0.25 0  52.875 0.25 0  53.625 0.25 0  54.375 0.25 0  55.125 0.25 0  55.875 0.25 0  56.625 0.25 0  57.375 0.25 0  58.125 0.25 0  58.875 0.25 0  59.625 0.25 0  0.375 0.75 0  1.125 0.75 0  1.875 0.75 0  2.625 0.75 0  3.375 0.75 0  4.125 0.75 0  4.875 0.75 0  5.625 0.75 0  6.375 0.75 0  7.125 0.75 0  7.875 0.75 0  8.625 0.75 0  9.375 0.75 0  10.125 0.75 0  10.875 0.75 0  11.625 0.75 0  12.375 0.75 0  13.125 0.75 0  13.875 0.75 0  14.625 0.75 0  15.375 0.75 0  16.125 0.75 0  16.875 0.75 0  17.625 0.75 0  18.375 0.75 0  19.125 0.75 0  19.875 0.75 0  20.625 0.75 0  21.375 0.75 0  22.125 0.75 0  22.875 0.75 0  23.625 0.75 0  24.375 0.75 0  25.125 0.75 0  25.875 0.75 0  26.625 0.75 0  27.375 0.75 0  28.125 0.75 0  28.875 0.75 0  29.625 0.75 0  30.375 0.75 0  31.125 0.75 0  31.875 0.75 0  32.625 0.75 0  33.375 0.75 0  34.125 0.75 0  34.875 0.75 0  35.625 0.75 0  36.375 0.75 0  37.125 0.75 0  37.875 0.75 0  38.625 0.75 0  39.375 0.75 0  40.125 0.75 0  40
[...]
<PointData  Scalars="f_8-1"> 
<DataArray  type="Float64"  Name="f_8-1"  format="ascii">1.8751089745161535e+00  1.8533733399615588e+00  1.8299803142284239e+00  1.8065624824089459e+00  1.7831171790547633e+00  1.7596629901720076e+00  1.7362051301135091e+00  1.7127454780506526e+00  1.6892846936648351e+00  1.6658229715817232e+00  1.6423603458752138e+00  1.6188969502586112e+00  1.5954330742712857e+00  1.5719690539860904e+00  1.5485051305863320e+00  1.5250414078463239e+00  1.5015778833378699e+00  1.4781145067014354e+00  1.4546512202015518e+00  1.4311879788286672e+00  1.4077247534070427e+00  1.3842615280945647e+00  1.3607982957424944e+00  1.3373350545344784e+00  1.3138718053382150e+00  1.2904085502452070e+00  1.2669452915138451e+00  1.2434820310622128e+00  1.2200187701762950e+00  1.1965555095533857e+00  1.1730922494309930e+00  1.1496289897710457e+00  1.1261657303976442e+00  1.1027024711333533e+00  1.0792392118627703e+00  1.0557759525151111e+00  1.0323126930045339e+00  1.0088494332297706e+00  9.8538617313321553e-01  9.6192291274156250e-01  9.3845965212333504e-01  9.1499639130881150e-01  8.9153313026191505e-01  8.6806986894084781e-01  8.4460660738339155e-01  8.2114334573938930e-01  7.9768008420467029e-01  7.7421682294075456e-01  7.5075356197894638e-01  7.2729030130469874e-01  7.0382704077630354e-01  6.8036378049548207e-01  6.5690052022351775e-01  6.3343726058893268e-01  6.0997400059476314e-01  5.8651074239349998e-01  5.6304748187498377e-01  5.3958422679768148e-01  5.1612096227326654e-01  4.9265771581224910e-01  4.6919443659500715e-01  4.4573121643566471e-01  4.2226789182439278e-01  3.9880474798166288e-01  3.7534129747911826e-01  3.5187835202431711e-01  3.2841460140584805e-01  3.0495210862944894e-01  2.8148786980879881e-01  2.5802634077304759e-01  2.3456220216266871e-01  2.1110139736262543e-01  1.8763732751595286e-01  1.6416270795469257e-01  1.4070432594036955e-01  1.1720911443931437e-01  9.3864428325578994e-02  7.0231589023087113e-02  4.7398802430523856e-02  2.2390766273830499e-02  1.7082529915641732e-03  1.8772200354733664e+00  1.8533091695760304e+00  1.8299746212898216e+00  1.8065441875648922e+00  1.7830961764235806e+00  1.7596408497500562e+00  1.7361825215666202e+00  1.7127226690233468e+00  1.6892618044641614e+00  1.6658000567305120e+00  1.6423374490759044e+00  1.6188741316014037e+00  1.5954103986142925e+00  1.5719465594306712e+00  1.5484828165650406e+00  1.5250192445713939e+00  1.5015558301928407e+00  1.4780925259537236e+00  1.4546292833443559e+00  1.4311660670258612e+00  1.4077028554926179e+00  1.3842396380364008e+00  1.3607764106049602e+00  1.3373131730564711e+00  1.3138499270551907e+00  1.2903866749845161e+00  1.2669234191297463e+00  1.2434601613290361e+00  1.2199969027751287e+00  1.1965336441162973e+00  1.1730703855903510e+00  1.1496071271990966e+00  1.1261438688266106e+00  1.1026806103637707e+00  1.0792173517521118e+00  1.0557540929573754e+00  1.0322908339138810e+00  1.0088275745396060e+00  9.8536431479838082e-01  9.6190105473127030e-01  9.3843779440563824e-01  9.1497453384196392e-01  8.9151127300258359e-01  8.6804801185772085e-01  8.4458475046693293e-01  8.2112148898459492e-01  7.9765822760810090e-01  7.7419496645915897e-01  7.5073170559604840e-01  7.2726844492357801e-01  7.0380518448083351e-01  6.8034192407362837e-01  6.5687866409507667e-01  6.3341540399845087e-01  6.0995214499777917e-01  5.8648888509256536e-01  5.6302562777040754e-01  5.3956236698045190e-01  5.1609911254867280e-01  4.9263584836152474e-01  4.6917259962293106e-01  4.4570932749827691e-01  4.2224609002982705e-01  3.9878280218702633e-01  3.7531958542674709e-01  3.5185627008128778e-01  3.2839308789981980e-01  3.0492976280946110e-01  2.8146666156386096e-01  2.5800370627126529e-01  2.3454086880476180e-01  2.1107917534759116e-01  1.8761260045824485e-01  1.6414557309674718e-01  1.4066820020890511e-01  1.1723036360290374e-01  9.3774795797396823e-02  7.0386013653678803e-02  4.6980235319554503e-02  2.3260003987092177e-02  -3.8905095160149812e-04  1.8771967893895891e+00  1.8535003785097277e+00  1.8300084365796538e+00  1.8065543832239301e+00  1.7830991427491425e+00  1.7596420613136090e+00  1.7361834643976963e+00  1.7127236962388706e+00  1.6892629654279852e+00  1.6658013830877845e+00  1.6423390269308580e+00  1.6188760161277862e+00  1.5954125531643200e+00  1.5719488772431469e+00  1.5484851843293315e+00  1.5250215837408885e+00  1.5015581061355494e+00  1.4780947353514544e+00  1.4546314386438244e+00  1.4311681845259729e+00  1.4077049496793690e+00  1.3842417195072123e+00  1.3607784863057855e+00  1.3373152470026171e+00  1.3138520012751966e+00  1.2903887501878484e+00  1.2669254952989555e+00  1.2434622381167928e+00  1.2199989798114332e+00  1.1965357211291696e+00  1.1730724624485187e+00  1.1496092038929571e+00  1.1261459454339493e+00  1.1026826869774653e+00  1.0792194284302241e+00  1.0557561697250988e+00  1.0322929108024390e+00  1.0088296515923327e+00  9.8536639203356891e-01  9.6190313210998024e-01  9.3843987185403022e-01  9.1497661131116836e-01  8.9151335050250624e-01  8.6805008943653994e-01  8.4458682814294905e-01  8.2112356672302189e-01  7.9766030530116072e-01  7.7419704404852574e-01  7.5073378299129123e-01  7.2727052227827360e-01  7.0380726166100360e-01  6.8034400156745234e-01  6.5688074118449102e-01  6.3341748204577397e-01  6.0995422150245127e-01  5.8649096428349967e-01  5.6302770229323018e-01  5.3956444901271916e-01  5.1610118231831359e-01  4.9263793712970044e-01  4.6917465951831205e-01  4.4571142991891033e-01  4.2224813168592851e-01  3.9878492886742639e-01  3.7532159716036978e-01  3.5185843506513004e-01  3.2839506315855133e-01  3.0493194649070143e-01  2.8146862738071321e-01  2.5800545949877418e-01  2.3454262893270264e-01  2.1107818644095785e-01  1.8761497306399985e-01  1.6414379368174523e-01  1.4068617525656008e-01  1.1722625157683368e-01  9.3808147498165170e-02  7.0340120256999095e-02  4.6964907806818702e-02  2.3255478508501015e-02  1.6340010446156246e-04  1.8772043744110407e+00  1.8535945088514378e+00  1.8300682024113579e+00  1.8065913862066036e+00  1.7831293315694692e+00  1.7596704401080674e+00  1.7362115187688643e+00  1.7127517992640868e+00  1.6892911832310420e+00  1.6658297523927577e+00  1.6423676170383019e+00  1.6189048541715432e+00  1.5954415867749652e+00  1.5719780069908085e+00  1.5485143182838397e+00  1.5250506655737162e+00  1.5015871165581622e+00  1.4781236789096655e+00  1.4546603304514947e+00  1.4311970410183528e+00  1.4077337845375271e+00  1.3842705424340309e+00  1.3608073035176915e+00  1.3373440620444330e+00  1.3138808159161217e+00  1.2904175650609875e+00  1.2669543104289565e+00  1.2434910532782553e+00  1.2200277947791769e+00  1.1965645357670798e+00  1.1731012767304074e+00  1.1496380178862282e+00  1.1261747592656768e+00  1.1027115007690063e+00  1.0792482422563074e+00  1.0557849836268012e+00  1.0323217248247163e+00  1.0088584657831614e+00  9.8539520640536116e-01  9.6193194661617831e-01  9.3846868642068770e-01  9.1500542589242717e-01  8.9154216510926398e-01  8.6807890410084443e-01  8.4461564287562141e-01  8.2115238146016378e-01  7.9768911997418446e-01  7.7422585853724468e-01  7.5076259736180517e-01  7.2729933641203104e-01  7.0383607595353925e-01  6.8037281550643913e-01  6.5690955589430478e-01  6.3344629554522891e-01  6.0998303727397740e-01  5.8651977612819650e-01  5.6305652071749879e-01  5.3959325636800126e-01  5.1613000746553617e-01  4.9266673403806710e-01  4.6920349998908190e-01  4.4574020472370240e-01  4.2227700362382720e-01  3.9881366025800147e-01  3.7535052936498020e-01  3.5188708791156986e-01  3.2842409274006679e-01  3.0496048449075908e-01  2.8149764945942990e-01  2.5803384599605822e-01  2.3457056928783465e-01  2.1110659667787551e-01  1.8763996870215482e-01  1.6417833430935794e-01  1.4070742766689301e-01  1.1727602381742103e-01  9.3805437482704382e-02  7.0423014607842602e-02  4.6850511520221405e-02  2.3516543363945916e-02  -1.2340376446511630e-04  1.8772113629131812e+00  1.8536160376709385e+00  1.8300840097139781e+00  1.8065999093343590e+00  1.7831350352098725e+00  1.7596753170172283e+00  1.7362161930293907e+00  1.7127564466097285e+00  1.6892958491488121e+00  1.6658344484013115e+00  1.6423723456238917e+00  1.6189096256027453e+00  1.5954464074897188e+00  1.5719828703989194e+00  1.5485192071883882e+00  1.5250555624822160e+00  1.5015920096186035e+00  1.4781285631837762e+00  1.4546652055494382e+00  1.4312019087713150e+00  1.4077386472325597e+00  1.3842754021076997e+00  1.3608121616145490e+00  1.3373489194593036e+00  1.3138856731103794e+00  1.2904224222682081e+00  1.2669591677611809e+00  1.2434959107738688e+00  1.2200326524129201e+00  1.1965693934992940e+00  1.1731061345361411e+00  1.1496428757566637e+00  1.1261796172090808e+00  1.1027163588333533e+00  1.0792531005214649e+00  1.0557898421539391e+00  1.0323265836207167e+00  1.0088633248301377e+00  9.8540006571305805e-01  9.6193680622442990e-01  9.3847354634365943e-01  9.1501028607555701e-01  8.9154702544770870e-01  8.6808376451282121e-01  8.4462050333733030e-01  8.2115724201432561e-01  7.9769398062287966e-01  7.7423071929116571e-01  7.5076745805108036e-01  7.2730419710168437e-01  7.0384093628193811e-01  6.8037767606277411e-01  6.5691441567280606e-01  6.3345115657419304e-01  6.0998789611725335e-01  5.8652463895867046e-01  5.6306137688322644e-01  5.3959812388159112e-01  5.1613485627670952e-01  4.9267161312652824e-01  4.6920833086250541e-01  4.4574511094668218e-01  4.2228179385454451e-01  3.9881862650493488e-01  3.7535523286323780e-01  3.5189217653368809e-01  3.2842863241979847e-01  3.0496576486781718e-01  2.8150197575202229e-01  2.5803914356100044e-01  2.3457499557481698e-01  2.1111076115301172e-01  1.8764668912156998e-01  1.6417872974354522e-01  1.4072481125798042e-01  1.1726262900881053e-01  9.3845571699552932e-02  7.0362616448299845e-02  4.6941422969546100e-02  2.3414716830390859e-02  5.0870209490150676e-05  1.8772043686592133e+00  1.8535944533184836e+00  1.8300681523824369e+00  1.8065913567173899e+00  1.7831293166754576e+00  1.7596704331370361e+00  1.7362115155974003e+00  1.7127517975570759e+00  1.6892911820335552e+00  1.6658297512119074e+00  1.6423676155244513e+00  1.6189048524048761e+00  1.5954415849997594e+00  1.5719780052060155e+00  1.5485143162359498e+00  1.5250506629967309e+00  1.5015871133871419e+00  1.4781236752544906e+00  1.4546603263964613e+00  1.4311970365578035e+00  1.4077337796870661e+00  1.3842705372737742e+00  1.3608072981005286e+00  1.3373440563286305e+00  1.3138808098270041e+00  1.2904175586123547e+00  1.2669543037538893e+00  1.2434910465354716e+00  1.2200277880712445e+00  1.1965645291574407e+00  1.1731012702776167e+00  1.1496380116353413e+00  1.1261747532616024e+00  1.1027114951109247e+00  1.0792482370945884e+00  1.0557849790679885e+00  1.0323217208653634e+00  1.0088584623699564e+00  9.8539520354114241e-01  9.6193194436412544e-01  9.3846868479445422e-01  9.1500542476749236e-01  8.9154216426609290e-01  8.6807890336058102e-01  8.4461564219444507e-01  8.2115238089869036e-01  7.9768911958058342e-01  7.7422585825218015e-01  7.5076259702051162e-01  7.2729933583235884e-01  7.0383607503811141e-01  6.8037281428946828e-01  6.5690955451319255e-01  6.3344629416518816e-01  6.0998303601671033e-01  5.8651977503557173e-01  5.6305651976279814e-01  5.3959325548658166e-01  5.1613000659863539e-01  4.9266673314637016e-01  4.6920349907071340e-01  4.4574020379038515e-01  4.2227700270591562e-01  3.9881365938486857e-01  3.7535052855503309e-01  3.5188708722310374e-01  3.2842409214704393e-01  3.0496048416908073e-01  2.8149764924179288e-01  2.5803384638243410e-01  2.3457056960055137e-01  2.1110659815219901e-01  1.8763996893261048e-01  1.6417833668588466e-01  1.4070742653506024e-01  1.1727603116069381e-01  9.3805436834758352e-02  7.0423032444765513e-02  4.6850520071773698e-02  2.3516573767681188e-02  -1.2342347846823395e-04  1.8771967657656785e+00  1.8535002415711588e+00  1.8300083326347814e+00  1.8065543261978283e+00  1.7830991124345401e+00  1.7596420445366880e+00  1.7361834538650893e+00  1.7127236882001673e+00  1.6892629581459915e+00  1.6658013757855616e+00  1.6423390193054941e+00  1.6188760081496525e+00  1.5954125447796326e+00  1.5719488682261604e+00  1.5484851744140939e+00  1.5250215728050385e+00  1.5015580942408910e+00  1.4780947226351120e+00  1.4546314252021377e+00  1.4311681704103589e+00  1.4077049349458250e+00  1.3842417042131976e+00  1.3607784704798696e+00  1.3373152306689142e+00  1.3138519845239487e+00  1.2903887332096162e+00  1.2669254783375192e+00  1.2434622213900457e+00  1.2199989634806911e+00  1.1965357053253585e+00  1.1730724473026766e+00  1.1496091895482243e+00  1.1261459320509648e+00  1.1026826747205962e+00  1.0792194174174436e+00  1.0557561599800551e+00  1.0322929022673362e+00  1.0088296441866951e+00  9.8536638567908275e-01  9.6190312668652700e-01  9.3843986714982586e-01  9.1497660704806560e-01  8.9151334643165425e-01  8.6805008541664530e-01  8.4458682412739738e-01  8.2112356267218811e-01  7.9766030110539843e-01  7.7419703953310159e-01  7.5073377800033059e-01  7.2727051677154275e-01  7.0380725575259917e-01  6.8034399548247348e-01  6.5688073516379630e-01  6.3341747625674982e-01  6.0995421599561694e-01  5.8649095900977799e-01  5.6302769715106427e-01  5.3956444390986713e-01  5.1610117719840931e-01  4.9263793199576406e-01  4.6917465440517608e-01  4.4571142489565319e-01  4.2224812682941820e-01  3.9878492425009171e-01  3.7532159291446276e-01  3.5185843122934374e-01  3.2839506003828162e-01  3.0493194399108059e-01  2.8146862623556851e-01  2.5800545906045480e-01  2.3454263092870503e-01  2.1107818798167402e-01  1.8761497716654246e-01  1.6414378986745820e-01  1.4068617187917651e-01  1.1722623214941408e-01  9.3808150737031595e-02  7.0340120701348735e-02  4.6964982338368218e-02  2.3255481670855394e-02  1.6345710982629963e-04  1.8772200414119895e+00  1.8533088035038787e+00  1.8299744447424886e+00  1.8065440841284723e+00  1.7830961086773243e+00  1.7596407988082883e+00  1.7361824780084867e+00  1.7127226282926480e+00  1.6892617644154466e+00  1.6658000164795752e+00  1.6423374084363875e+00  1.6188740905123660e+00  1.5954103567546813e+00  1.5719465163157644e+00  1.5484827718825422e+00  1.5250191983479022e+00  1.5015557826501491e+00  1.4780924772819459e+00  1.4546292336480311e+00  1.4311660163992155e+00  1.4077028040320956e+00  1.3842395857821477e+00  1.3607763575534328e+00  1.3373131192821026e+00  1.3138498728087562e+00  1.2903866206459484e+00  1.2669233650684177e+00  1.2434601078226726e+00  1.2199968500322218e+00  1.1965335923254348e+00  1.1730703349513947e+00  1.1496070779518521e+00  1.1261438212500225e+00  1.1026805646967102e+00  1.0792173080869247e+00  1.0557540512278676e+00  1.0322907939937456e+00  1.0088275363178283e+00  9.8536427812707306e-01  9.6190101931693894e-01  9.3843775980363775e-01  9.1497449960141519e-01  8.9151123883535599e-01  8.6804797767130637e-01  8.4458471623481945e-01  8.2112145458089847e-01  7.9765819275857386e-01  7.7419493085257673e-01  7.5073166906758759e-01  7.2726840757377786e-01  7.0380514665148641e-01  6.8034188620280267e-01  6.5687862654324725e-01  6.3341536693605371e-01  6.0995210839579084e-01  5.8648884879323127e-01  5.6302559159024812e-01  5.3956233078681026e-01  5.1609907630019380e-01  4.9263581209243118e-01  4.6917256342879549e-01  4.4570929148769478e-01  4.2224605433800649e-01  3.9878276693926829e-01  3.7531955079789059e-01  3.5185623626007706e-01  3.2839305515787015e-01  3.0492973146697361e-01  2.8146663200757865e-01  2.5800367895896392e-01  2.3454084401463990e-01  2.1107915316886153e-01  1.8761257792009475e-01  1.6414554511031126e-01  1.4066815459980095e-01  1.1723030712262243e-01  9.3774736548440624e-02  7.0386016793714784e-02  4.6980280256020725e-02  2.3260093390729701e-02  -3.8918873070281943e-04  1.8751070244080712e+00  1.8533729864581623e+00  1.8299801011735783e+00  1.8065623511511386e+00  1.7831170864500139e+00  1.7596629160228765e+00  1.7362050640570692e+00  1.7127454149788053e+00  1.6892846311558196e+00  1.6658229086108325e+00  1.6423602821976406e+00  1.6188968858366191e+00  1.5954330088213950e+00  1.5719689869981963e+00  1.5485050616666751e+00  1.5250413369480507e+00  1.5015778106665885e+00  1.4781144324771915e+00  1.4546511445619570e+00  1.4311879018880413e+00  1.4077246752837529e+00  1.3842614488571616e+00  1.3607982154074689e+00  1.3373349731828221e+00  1.3138717232346881e+00  1.2904084678170631e+00  1.2669452092116371e+00  1.2434819492540772e+00  1.2200186891505203e+00  1.1965554295682377e+00  1.1730921707528779e+00  1.1496289127060666e+00  1.1261656552963015e+00  1.1027023983166642e+00  1.0792391415052429e+00  1.0557758846084941e+00  1.0323126274441770e+00  1.0088493699038865e+00  9.8538611188920722e-01  9.6192285327297855e-01  9.3845959394164336e-01  9.1499633387830648e-01  8.9153307318989528e-01  8.6806981204665812e-01  8.4460655058712308e-01  8.2114328888213617e-01  7.9768002696869555e-01  7.7421676494353420e-01  7.5075350296883314e-01  7.2729024131318143e-01  7.0382698012404865e-01  6.8036371965508657e-01  6.5690045962694177e-01  6.3343720048399554e-01  6.0997394100678703e-01  5.8651068318607769e-01  5.6304742285347609e-01  5.3958416780784502e-01  5.1612090324401538e-01  4.9265765677379125e-01  4.6919437762643146e-01  4.4573115768683469e-01  4.2226783340077600e-01  3.9880469012006070e-01  3.7534124024083804e-01  3.5187829587322278e-01  3.2841454628126870e-01  3.0495205549448112e-01  2.8148781827192942e-01  2.5802629259917464e-01  2.3456215605525255e-01  2.1110135589717594e-01  1.8763728441637700e-01  1.6416266304680585e-01  1.4070425907326589e-01  1.1720903776616115e-01  9.3864340778606989e-02  7.0231557669240066e-02  4.7398863942148109e-02  2.2390774498136916e-02  1.7081379450121746e-03  1.8647942407478393e+00  1.8416470018379938e+00  1.8182478724690743e+00  1.7948116727041004e+00  1.7713606148879522e+00  1.7479040047472920e+00  1.7244449734844431e+00  1.7009846174969794e+00  1.6775232965280666e+00  1.6540610879562798e+00  1.6305980693730018e+00  1.6071344626462278e+00  1.5836705866775376e+00  1.5602067160471933e+00  1.5367430000291189e+00  1.5132794696490088e+00  1.4898160897155523e+00  1.4663528061036524e+00  1.4428895721318322e+00  1.4194263562688221e+00  1.3959631407695261e+00  1.3724999174706074e+00  1.3490366840108297e+00  1.3255734411119688e+00  1.3021101908694930e+00  1.2786469357131498e+00  1.2551836777931962e+00  1.2317204186799102e+00  1.2082571593106195e+00  1.1847939001160497e+00  1.1613306411879680e+00  1.1378673824359045e+00  1.1144041237149012e+00  1.0909408649187011e+00  1.0674776059902185e+00  1.0440143468750229e+00  1.0205510874924761e+00  9.9708782777537663e-01  9.7362456772309991e-01  9.5016130739482529e-01  9.2669804684087476e-01  9.0323478605177954e-01  8.7977152498500455e-01  8.5630826364510804e-01  8.3284500213864665e-01  8.0938174064678492e-01  7.8591847934487424e-01  7.6245521831721796e-01  7.3899195755982450e-01  7.1552869699341715e-01  6.9206543660189235e-01  6.6860217634085939e-01  6.4513891639076182e-01  6.2167565663111757e-01  5.9821239749808119e-01  5.7474913830967833e-01  5.5128588022154634e-01  5.2782262105972477e-01  5.0435936427175876e-01  4.8089610392731963e-01  4.5743284945378038e-01  4.3396958573914246e-01  4.1050633629315497e-01  3.8704306445398795e-01  3.6357982690355023e-01  3.4011653703111361e-01  3.1665334134142425e-01  2.9319006163211497e-01  2.6972712033758067e-01  2.4626423675489179e-01  2.2280197355478984e-01  1.9933850585619595e-01  1.7587103159476097e-01  1.5239974900878414e-01  1.2893512675568111e-01  1.0549488248560103e-01  8.2067670994160083e-02  5.8661269393284220e-02  3.5208619228737338e-02  1.0825819197797843e-02  1.8653799309753321e+00  1.8417660813448515e+00  1.8183386376672692e+00  1.7948913897924721e+00  1.7714372432990266e+00  1.7479797611406820e+00  1.7245205327179505e+00  1.7010601698088361e+00  1.6775988987716375e+00  1.6541367837214822e+00  1.6306739202337597e+00  1.6072105155412795e+00  1.5837468419766669e+00  1.5602831306667961e+00  1.5368195148993902e+00  1.5133560335829315e+00  1.4898926695532775e+00  1.4664293852676786e+00  1.4429661450766438e+00  1.4195029230093692e+00  1.39603970340