<?xml version="1.0"?>
<VTKFile type="UnstructuredGrid"  version="0.1"  >
<UnstructuredGrid>
<Piece  NumberOfPoints="1369" NumberOfCells="2560">
<Points>
<DataArray  type="Float64"  NumberOfComponents="3"  format="ascii">0 0 0  0.75 0 0  1.5 0 0  2.25 0 0  3 0 0  3.75 0 0  4.5 0 0  5.25 0 0  6 0 0  6.75 0 0  7.5 0 0  8.25 0 0  9 0 0  9.75 0 0  10.5 0 0  11.25 0 0  12 0 0  12.75 0 0  13.5 0 0  14.25 0 0  15 0 0  15.75 0 0  16.5 0 0  17.25 0 0  18 0 0  18.75 0 0  19.5 0 0  20.25 0 0  21 0 0  21.75 0 0  22.5 0 0  23.25 0 0  24 0 0  24.75 0 0  25.5 0 0  26.25 0 0  27 0 0  27.75 0 0  28.5 0 0  29.25 0 0  30 0 0  30.75 0 0  31.5 0 0  32.25 0 0  33 0 0  33.75 0 0  34.5 0 0  35.25 0 0  36 0 0  36.75 0 0  37.5 0 0  38.25 0 0  39 0 0  39.75 0 0  40.5 0 0  41.25 0 0  42 0 0  42.75 0 0  43.5 0 0  44.25 0 0  45 0 0  45.75 0 0  46.5 0 0  47.25 0 0  48 0 0  48.75 0 0  49.5 0 0  50.25 0 0  51 0 0  51.75 0 0  52.5 0 0  53.25 0 0  54 0 0  54.75 0 0  55.5 0 0  56.25 0 0  57 0 0  57.75 0 0  58.5 0 0  59.25 0 0  60 0 0  0 0.5 0  0.75 0.5 0  1.5 0.5 0  2.25 0.5 0  3 0.5 0  3.75 0.5 0  4.5 0.5 0  5.25 0.5 0  6 0.5 0  6.75 0.5 0  7.5 0.5 0  8.25 0.5 0  9 0.5 0  9.75 0.5 0  10.5 0.5 0  11.25 0.5 0  12 0.5 0  12.75 0.5 0  13.5 0.5 0  14.25 0.5 0  15 0.5 0  15.75 0.5 0  16.5 0.5 0  17.25 0.5 0  18 0.5 0  18.75 0.5 0  19.5 0.5 0  20.25 0.5 0  21 0.5 0  21.75 0.5 0  22.5 0.5 0  23.25 0.5 0  24 0.5 0  24.75 0.5 0  25.5 0.5 0  26.25 0.5 0  27 0.5 0  27.75 0.5 0  28.5 0.5 0  29.25 0.5 0  30 0.5 0  30.75 0.5 0  31.5 0.5 0  32.25 0.5 0  33 0.5 0  33.75 0.5 0  34.5 0.5 0  35.25 0.5 0  36 0.5 0  36.75 0.5 0  37.5 0.5 0  38.25 0.5 0  39 0.5 0  39.75 0.5 0  40.5 0.5 0  41.25 0.5 0  42 0.5 0  42.75 0.5 0  43.5 0.5 0  44.25 0.5 0  45 0.5 0  45.75 0.5 0  46.5 0.5 0  47.25 0.5 0  48 0.5 0  48.75 0.5 0  49.5 0.5 0  50.25 0.5 0  51 0.5 0  51.75 0.5 0  52.5 0.5 0  53.25 0.5 0  54 0.5 0  54.75 0.5 0  55.5 0.5 0  56.25 0.5 0  57 0.5 0  57.75 0.5 0  58.5 0.5 0  59.25 0.5 0  60 0.5 0  0 1 0  0.75 1 0  1.5 1 0  2.25 1 0  3 1 0  3.75 1 0  4.5 1 0  5.25 1 0  6 1 0  6.75 1 0  7.5 1 0  8.25 1 0  9 1 0  9.75 1 0  10.5 1 0  11.25 1 0  12 1 0  12.75 1 0  13.5 1 0  14.25 1 0  15 1 0  15.75 1 0  16.5 1 0  17.25 1 0  18 1 0  18.75 1 0  19.5 1 0  20.25 1 0  21 1 0  21.75 1 0  22.5 1 0  23.25 1 0  24 1 0  24.75 1 0  25.5 1 0  26.25 1 0  27 1 0  27.75 1 0  28.5 1 0  29.25 1 0  30 1 0  30.75 1 0  31.5 1 0  32.25 1 0  33 1 0  33.75 1 0  34.5 1 0  35.25 1 0  36 1 0  36.75 1 0  37.5 1 0  38.25 1 0  39 1 0  39.75 1 0  40.5 1 0  41.25 1 0  42 1 0  42.75 1 0  43.5 1 0  44.25 1 0  45 1 0  45.75 1 0  46.5 1 0  47.25 1 0  48 1 0  48.75 1 0  49.5 1 0  50.25 1 0  51 1 0  51.75 1 0  52.5 1 0  53.25 1 0  54 1 0  54.75 1 0  55.5 1 0  56.25 1 0  57 1 0  57.75 1 0  58.5 1 0  59.25 1 0  60 1 0  0 1.5 0  0.75 1.5 0  1.5 1.5 0  2.25 1.5 0  3 1.5 0  3.75 1.5 0  4.5 1.5 0  5.25 1.5 0  6 1.5 0  6.75 1.5 0  7.5 1.5 0  8.25 1.5 0  9 1.5 0  9.75 1.5 0  10.5 1.5 0  11.25 1.5 0  12 1.5 0  12.75 1.5 0  13.5 1.5 0  14.25 1.5 0  15 1.5 0  15.75 1.5 0  16.5 1.5 0  17.25 1.5 0  18 1.5 0  18.75 1.5 0  19.5 1.5 0  20.25 1.5 0  21 1.5 0  21.75 1.5 0  22.5 1.5 0  23.25 1.5 0  24 1.5 0  24.75 1.5 0  25.5 1.5 0  26.25 1.5 0  27 1.5 0  27.75 1.5 0  28.5 1.5 0  29.25 1.5 0  30 1.5 0  30.75 1.5 0  31.5 1.5 0  32.25 1.5 0  33 1.5 0  33.75 1.5 0  34.5 1.5 0  35.25 1.5 0  36 1.5 0  36.75 1.5 0  37.5 1.5 0  38.25 1.5 0  39 1.5 0  39.75 1.5 0  40.5 1.5 0  41.25 1.5 0  42 1.5 0  42.75 1.5 0  43.5 1.5 0  44.25 1.5 0  45 1.5 0  45.75 1.5 0  46.5 1.5 0  47.25 1.5 0  48 1.5 0  48.75 1.5 0  49.5 1.5 0  50.25 1.5 0  51 1.5 0  51.75 1.5 0  52.5 1.5 0  53.25 1.5 0  54 1.5 0  54.75 1.5 0  55.5 1.5 0  56.25 1.5 0  57 1.5 0  57.75 1.5 0  58.5 1.5 0  59.25 1.5 0  60 1.5 0  0 2 0  0.75 2 0  1.5 2 0  2.25 2 0  3 2 0  3.75 2 0  4.5 2 0  5.25 2 0  6 2 0  6.75 2 0  7.5 2 0  8.25 2 0  9 2 0  9.75 2 0  10.5 2 0  11.25 2 0  12 2 0  12.75 2 0  13.5 2 0  14.25 2 0  15 2 0  15.75 2 0  16.5 2 0  17.25 2 0  18 2 0  18.75 2 0  19.5 2 0  20.25 2 0  21 2 0  21.75 2 0  22.5 2 0  23.25 2 0  24 2 0  24.75 2 0  25.5 2 0  26.25 2 0  27 2 0  27.75 2 0  28.5 2 0  29.25 2 0  30 2 0  30.75 2 0  31.5 2 0  32.25 2 0  33 2 0  33.75 2 0  34.5 2 0  35.25 2 0  36 2 0  36.75 2 0  37.5 2 0  38.25 2 0  39 2 0  39.75 2 0  40.5 2 0  41.25 2 0  42 2 0  42.75 2 0  43.5 2 0  44.25 2 0  45 2 0  45.75 2 0  46.5 2 0  47.25 2 0  48 2 0  48.75 2 0  49.5 2 0  50.25 2 0  51 2 0  51.75 2 0  52.5 2 0  53.25 2 0  54 2 0  54.75 2 0  55.5 2 0  56.25 2 0  57 2 0  57.75 2 0  58.5 2 0  59.25 2 0  60 2 0  0 2.5 0  0.75 2.5 0  1.5 2.5 0  2.25 2.5 0  3 2.5 0  3.75 2.5 0  4.5 2.5 0  5.25 2.5 0  6 2.5 0  6.75 2.5 0  7.5 2.5 0  8.25 2.5 0  9 2.5 0  9.75 2.5 0  10.5 2.5 0  11.25 2.5 0  12 2.5 0  12.75 2.5 0  13.5 2.5 0  14.25 2.5 0  15 2.5 0  15.75 2.5 0  16.5 2.5 0  17.25 2.5 0  18 2.5 0  18.75 2.5 0  19.5 2.5 0  20.25 2.5 0  21 2.5 0  21.75 2.5 0  22.5 2.5 0  23.25 2.5 0  24 2.5 0  24.75 2.5 0  25.5 2.5 0  26.25 2.5 0  27 2.5 0  27.75 2.5 0  28.5 2.5 0  29.25 2.5 0  30 2.5 0  30.75 2.5 0  31.5 2.5 0  32.25 2.5 0  33 2.5 0  33.75 2.5 0  34.5 2.5 0  35.25 2.5 0  36 2.5 0  36.75 2.5 0  37.5 2.5 0  38.25 2.5 0  39 2.5 0  39.75 2.5 0  40.5 2.5 0  41.25 2.5 0  42 2.5 0  42.75 2.5 0  43.5 2.5 0  44.25 2.5 0  45 2.5 0  45.75 2.5 0  46.5 2.5 0  47.25 2.5 0  48 2.5 0  48.75 2.5 0  49.5 2.5 0  50.25 2.5 0  51 2.5 0  51.75 2.5 0  52.5 2.5 0  53.25 2.5 0  54 2.5 0  54.75 2.5 0  55.5 2.5 0  56.25 2.5 0  57 2.5 0  57.75 2.5 0  58.5 2.5 0  59.25 2.5 0  60 2.5 0  0 3 0  0.75 3 0  1.5 3 0  2.25 3 0  3 3 0  3.75 3 0  4.5 3 0  5.25 3 0  6 3 0  6.75 3 0  7.5 3 0  8.25 3 0  9 3 0  9.75 3 0  10.5 3 0  11.25 3 0  12 3 0  12.75 3 0  13.5 3 0  14.25 3 0  15 3 0  15.75 3 0  16.5 3 0  17.25 3 0  18 3 0  18.75 3 0  19.5 3 0  20.25 3 0  21 3 0  21.75 3 0  22.5 3 0  23.25 3 0  24 3 0  24.75 3 0  25.5 3 0  26.25 3 0  27 3 0  27.75 3 0  28.5 3 0  29.25 3 0  30 3 0  30.75 3 0  31.5 3 0  32.25 3 0  33 3 0  33.75 3 0  34.5 3 0  35.25 3 0  36 3 0  36.75 3 0  37.5 3 0  38.25 3 0  39 3 0  39.75 3 0  40.5 3 0  41.25 3 0  42 3 0  42.75 3 0  43.5 3 0  44.25 3 0  45 3 0  45.75 3 0  46.5 3 0  47.25 3 0  48 3 0  48.75 3 0  49.5 3 0  50.25 3 0  51 3 0  51.75 3 0  52.5 3 0  53.25 3 0  54 3 0  54.75 3 0  55.5 3 0  56.25 3 0  57 3 0  57.75 3 0  58.5 3 0  59.25 3 0  60 3 0  0 3.5 0  0.75 3.5 0  1.5 3.5 0  2.25 3.5 0  3 3.5 0  3.75 3.5 0  4.5 3.5 0  5.25 3.5 0  6 3.5 0  6.75 3.5 0  7.5 3.5 0  8.25 3.5 0  9 3.5 0  9.75 3.5 0  10.5 3.5 0  11.25 3.5 0  12 3.5 0  12.75 3.5 0  13.5 3.5 0  14.25 3.5 0  15 3.5 0  15.75 3.5 0  16.5 3.5 0  17.25 3.5 0  18 3.5 0  18.75 3.5 0  19.5 3.5 0  20.25 3.5 0  21 3.5 0  21.75 3.5 0  22.5 3.5 0  23.25 3.5 0  24 3.5 0  24.75 3.5 0  25.5 3.5 0  26.25 3.5 0  27 3.5 0  27.75 3.5 0  28.5 3.5 0  29.25 3.5 0  30 3.5 0  30.75 3.5 0  31.5 3.5 0  32.25 3.5 0  33 3.5 0  33.75 3.5 0  34.5 3.5 0  35.25 3.5 0  36 3.5 0  36.75 3.5 0  37.5 3.5 0  38.25 3.5 0  39 3.5 0  39.75 3.5 0  40.5 3.5 0  41.25 3.5 0  42 3.5 0  42.75 3.5 0  43.5 3.5 0  44.25 3.5 0  45 3.5 0  45.75 3.5 0  46.5 3.5 0  47.25 3.5 0  48 3.5 0  48.75 3.5 0  49.5 3.5 0  50.25 3.5 0  51 3.5 0  51.75 3.5 0  52.5 3.5 0  53.25 3.5 0  54 3.5 0  54.75 3.5 0  55.5 3.5 0  56.25 3.5 0  57 3.5 0  57.75 3.5 0  58.5 3.5 0  59.25 3.5 0  60 3.5 0  0 4 0  0.75 4 0  1.5 4 0  2.25 4 0  3 4 0  3.75 4 0  4.5 4 0  5.25 4 0  6 4 0  6.75 4 0  7.5 4 0  8.25 4 0  9 4 0  9.75 4 0  10.5 4 0  11.25 4 0  12 4 0  12.75 4 0  13.5 4 0  14.25 4 0  15 4 0  15.75 4 0  16.5 4 0  17.25 4 0  18 4 0  18.75 4 0  19.5 4 0  20.25 4 0  21 4 0  21.75 4 0  22.5 4 0  23.25 4 0  24 4 0  24.75 4 0  25.5 4 0  26.25 4 0  27 4 0  27.75 4 0  28.5 4 0  29.25 4 0  30 4 0  30.75 4 0  31.5 4 0  32.25 4 0  33 4 0  33.75 4 0  34.5 4 0  35.25 4 0  36 4 0  36.75 4 0  37.5 4 0  38.25 4 0  39 4 0  39.75 4 0  40.5 4 0  41.25 4 0  42 4 0  42.75 4 0  43.5 4 0  44.25 4 0  45 4 0  45.75 4 0  46.5 4 0  47.25 4 0  48 4 0  48.75 4 0  49.5 4 0  50.25 4 0  51 4 0  51.75 4 0  52.5 4 0  53.25 4 0  54 4 0  54.75 4 0  55.5 4 0  56.25 4 0  57 4 0  57.75 4 0  58.5 4 0  59.25 4 0  60 4 0  0.375 0.25 0  1.125 0.25 0  1.875 0.25 0  2.625 0.25 0  3.375 0.25 0  4.125 0.25 0  4.875 0.25 0  5.625 0.25 0  6.375 0.25 0  7.125 0.25 0  7.875 0.25 0  8.625 0.25 0  9.375 0.25 0  10.125 0.25 0  10.875 0.25 0  11.625 0.25 0  12.375 0.25 0  13.125 0.25 0  13.875 0.25 0  14.625 0.25 0  15.375 0.25 0  16.125 0.25 0  16.875 0.25 0  17.625 0.25 0  18.375 0.25 0  19.125 0.25 0  19.875 0.25 0  20.625 0.25 0  21.375 0.25 0  22.125 0.25 0  22.875 0.25 0  23.625 0.25 0  24.375 0.25 0  25.125 0.25 0  25.875 0.25 0  26.625 0.25 0  27.375 0.25 0  28.125 0.25 0  28.875 0.25 0  29.625 0.25 0  30.375 0.25 0  31.125 0.25 0  31.875 0.25 0  32.625 0.25 0  33.375 0.25 0  34.125 0.25 0  34.875 0.25 0  35.625 0.25 0  36.375 0.25 0  37.125 0.25 0  37.875 0.25 0  38.625 0.25 0  39.375 0.25 0  40.125 0.25 0  40.875 0.25 0  41.625 0.25 0  42.375 0.25 0  43.125 0.25 0  43.875 0.25 0  44.625 0.25 0  45.375 0.25 0  46.125 0.25 0  46.875 0.25 0  47.625 0.25 0  48.375 0.25 0  49.125 0.25 0  49.875 0.25 0  50.625 0.25 0  51.375 0.25 0  52.125 0.25 0  52.875 0.25 0  53.625 0.25 0  54.375 0.25 0  55.125 0.25 0  55.875 0.25 0  56.625 0.25 0  57.375 0.25 0  58.125 0.25 0  58.875 0.25 0  59.625 0.25 0  0.375 0.75 0  1.125 0.75 0  1.875 0.75 0  2.625 0.75 0  3.375 0.75 0  4.125 0.75 0  4.875 0.75 0  5.625 0.75 0  6.375 0.75 0  7.125 0.75 0  7.875 0.75 0  8.625 0.75 0  9.375 0.75 0  10.125 0.75 0  10.875 0.75 0  11.625 0.75 0  12.375 0.75 0  13.125 0.75 0  13.875 0.75 0  14.625 0.75 0  15.375 0.75 0  16.125 0.75 0  16.875 0.75 0  17.625 0.75 0  18.375 0.75 0  19.125 0.75 0  19.875 0.75 0  20.625 0.75 0  21.375 0.75 0  22.125 0.75 0  22.875 0.75 0  23.625 0.75 0  24.375 0.75 0  25.125 0.75 0  25.875 0.75 0  26.625 0.75 0  27.375 0.75 0  28.125 0.75 0  28.875 0.75 0  29.625 0.75 0  30.375 0.75 0  31.125 0.75 0  31.875 0.75 0  32.625 0.75 0  33.375 0.75 0  34.125 0.75 0  34.875 0.75 0  35.625 0.75 0  36.375 0.75 0  37.125 0.75 0  37.875 0.75 0  38.625 0.75 0  39.375 0.75 0  40.125 0.75 0  40
[...]
<PointData  Scalars="f_8-1"> 
<DataArray  type="Float64"  Name="f_8-1"  format="ascii">-1.1849596115841802e+01  -1.1703828971346791e+01  -1.1555713723603017e+01  -1.1407719161617022e+01  -1.1259688258659191e+01  -1.1111610133936928e+01  -1.0963490387241542e+01  -1.0815341004671991e+01  -1.0667173511861439e+01  -1.0518997087390352e+01  -1.0370816257225920e+01  -1.0222634719336405e+01  -1.0074456720038663e+01  -9.9262854283556230e+00  -9.7781209717410302e+00  -9.6299616159148140e+00  -9.4818052678871911e+00  -9.3336504487462406e+00  -9.1854963074842733e+00  -9.0373424563741569e+00  -8.8891887238489673e+00  -8.7410350477183325e+00  -8.5928813986626285e+00  -8.4447277661987776e+00  -8.2965741430099751e+00  -8.1484205263784055e+00  -8.0002669138738902e+00  -7.8521133046879870e+00  -7.7039596980004204e+00  -7.5558060935805722e+00  -7.4076524911612696e+00  -7.2594988906762854e+00  -7.1113452920429285e+00  -6.9631916952389883e+00  -6.8150381002414298e+00  -6.6668845070404164e+00  -6.5187309156312230e+00  -6.3705773260083891e+00  -6.2224237381721190e+00  -6.0742701521192366e+00  -5.9261165678507552e+00  -5.7779629853649137e+00  -5.6298094046625096e+00  -5.4816558257426058e+00  -5.3335022486056900e+00  -5.1853486732512390e+00  -5.0371950996795505e+00  -4.8890415278903738e+00  -4.7408879578838432e+00  -4.5927343896597739e+00  -4.4445808232182253e+00  -4.2964272585591869e+00  -4.1482736956825015e+00  -4.0001201345880837e+00  -3.8519665752758154e+00  -3.7038130177454098e+00  -3.5556594619965245e+00  -3.4075059080284809e+00  -3.2593523558402011e+00  -3.1111988054296082e+00  -2.9630452567929901e+00  -2.8148917099230406e+00  -2.6667381648056980e+00  -2.5185846214121859e+00  -2.3704310796851118e+00  -2.2222775395055394e+00  -2.0741240006320720e+00  -1.9259704625570599e+00  -1.7778169242578481e+00  -1.6296633833754122e+00  -1.4815098358796941e+00  -1.3333562662968830e+00  -1.1852026745363196e+00  -1.0370488521703818e+00  -8.8889539806746876e-01  -7.4073778860880579e-01  -5.9259474608691698e-01  -4.4436702925562799e-01  -2.9645199033568786e-01  -1.4720050539574978e-01  -2.5063918373538297e-03  -1.1852352125788924e+01  -1.1703746569623918e+01  -1.1555722458101005e+01  -1.1407706988286080e+01  -1.1259674522011689e+01  -1.1111600353222311e+01  -1.0963484707359425e+01  -1.0815337872399944e+01  -1.0667171921161493e+01  -1.0518996187745822e+01  -1.0370816065107501e+01  -1.0222633914983042e+01  -1.0074454749680987e+01  -9.9262823582487787e+00  -9.7781173597308744e+00  -9.6299577733204860e+00  -9.4818013962403747e+00  -9.3336465732759084e+00  -9.1854924490520737e+00  -9.0373385984867785e+00  -8.8891848706183083e+00  -8.7410311923106381e+00  -8.5928775443739092e+00  -8.4447239106454859e+00  -8.2965702879398275e+00  -8.1484166707661458e+00  -8.0002630585052259e+00  -7.8521094490925112e+00  -7.7039558425186980e+00  -7.5558022380045964e+00  -7.4076486356324107e+00  -7.2594950351096479e+00  -7.1113414364922818e+00  -6.9631878396739033e+00  -6.8150342446792358e+00  -6.6668806514726944e+00  -6.5187270600615852e+00  -6.3705734704361179e+00  -6.2224198825965660e+00  -6.0742662965416718e+00  -5.9261127122697745e+00  -5.7779591297818351e+00  -5.6298055490761927e+00  -5.4816519701539521e+00  -5.3334983930139890e+00  -5.1853448176570325e+00  -5.0371912440824431e+00  -4.8890376722906215e+00  -4.7408841022812460e+00  -4.5927305340544669e+00  -4.4445769676101285e+00  -4.2964234029483137e+00  -4.1482698400688101e+00  -4.0001162789715918e+00  -3.8519627196564632e+00  -3.7038091621231932e+00  -3.5556556063713809e+00  -3.4075020524004289e+00  -3.2593485002091933e+00  -3.1111949497959182e+00  -2.9630414011569957e+00  -2.8148878542864044e+00  -2.6667343091713711e+00  -2.5185807657884913e+00  -2.3704272240881648e+00  -2.2222736839741879e+00  -2.0741201452436853e+00  -1.9259666074921404e+00  -1.7778130698560370e+00  -1.6296595306151382e+00  -1.4815059856278383e+00  -1.3333524280484679e+00  -1.1851988284377946e+00  -1.0370451868934938e+00  -8.8889110545729455e-01  -7.4073752987311303e-01  -5.9257700213393438e-01  -4.4443433476857225e-01  -2.9618240726756917e-01  -1.4820127886226861e-01  6.9789605962008278e-04  -1.1852308787943448e+01  -1.1703940503323002e+01  -1.1555766374256104e+01  -1.1407727312614700e+01  -1.1259677700449837e+01  -1.1111602766996256e+01  -1.0963486389419559e+01  -1.0815343136191554e+01  -1.0667178024857076e+01  -1.0519004022745611e+01  -1.0370824733147431e+01  -1.0222642854516936e+01  -1.0074462496923639e+01  -9.9262893231856388e+00  -9.7781237656053488e+00  -9.6299640787916676e+00  -9.4818076310871469e+00  -9.3336528436445487e+00  -9.1854987103850583e+00  -9.0373448781799315e+00  -8.8891911436808950e+00  -8.7410374717373802e+00  -8.5928838199226352e+00  -8.4447301887158162e+00  -8.2965765642388138e+00  -8.1484229481608850e+00  -8.0002693351435497e+00  -7.8521157262073462e+00  -7.7039621193184953e+00  -7.5558085150025844e+00  -7.4076549125053477e+00  -7.2595013120575649e+00  -7.1113477133952339e+00  -6.9631941166000884e+00  -6.8150405215920857e+00  -6.6668869283890766e+00  -6.5187333369755249e+00  -6.3705797473473478e+00  -6.2224261595080934e+00  -6.0742725734493250e+00  -5.9261189891777013e+00  -5.7779654066862536e+00  -5.6298118259802292e+00  -5.4816582470550621e+00  -5.3335046699140989e+00  -5.1853510945547061e+00  -5.0371975209787081e+00  -4.8890439491847397e+00  -4.7408903791737194e+00  -4.5927368109449613e+00  -4.4445832444989151e+00  -4.2964296798351542e+00  -4.1482761169538929e+00  -4.0001225558548779e+00  -3.8519689965380270e+00  -3.7038154390030891e+00  -3.5556618832497038e+00  -3.4075083292774329e+00  -3.2593547770851523e+00  -3.1112012266713265e+00  -2.9630476780327641e+00  -2.8148941311640763e+00  -2.6667405860540585e+00  -2.5185870426816250e+00  -2.3704335010034043e+00  -2.2222799609329429e+00  -2.0741264222926232e+00  -1.9259728847202353e+00  -1.7778193474724751e+00  -1.6296658089994462e+00  -1.4815122661410007e+00  -1.3333587117649364e+00  -1.1852051326029529e+00  -1.0370514861689770e+00  -8.8889773460550248e-01  -7.4074347666775220e-01  -5.9258910281112487e-01  -4.4442966411107365e-01  -2.9627500330264694e-01  -1.4810864112777453e-01  -1.6929546246843128e-05  -1.1852244825072196e+01  -1.1703992359141624e+01  -1.1555830608407961e+01  -1.1407736386481064e+01  -1.1259678133770402e+01  -1.1111589678191864e+01  -1.0963479864220355e+01  -1.0815337322575280e+01  -1.0667178848427168e+01  -1.0519006138878019e+01  -1.0370829736840889e+01  -1.0222649212287592e+01  -1.0074470692560014e+01  -9.9262972384922161e+00  -9.7781311180092860e+00  -9.6299703775379832e+00  -9.4818133611372630e+00  -9.3336581189392973e+00  -9.1855038418445822e+00  -9.0373498966427253e+00  -8.8891961496252829e+00  -8.7410424502553603e+00  -8.5928888018458647e+00  -8.4447351616172686e+00  -8.2965815396587086e+00  -8.1484279200755036e+00  -8.0002743083233412e+00  -7.8521206979943141e+00  -7.7039670916981002e+00  -7.5558134868381712e+00  -7.4076598845977726e+00  -7.2595062839493512e+00  -7.1113526853852917e+00  -6.9631990885257782e+00  -6.8150454935478875e+00  -6.6668919003310858e+00  -6.5187383089222406e+00  -6.3705847192963816e+00  -6.2224311314546021e+00  -6.0742775454014772e+00  -5.9261239611267049e+00  -5.7779703786402523e+00  -5.6298167979322296e+00  -5.4816632190107084e+00  -5.3335096418689556e+00  -5.1853560665120870e+00  -5.0372024929361627e+00  -4.8890489211440373e+00  -4.7408953511336085e+00  -4.5927417829063231e+00  -4.4445882164612156e+00  -4.2964346517987995e+00  -4.1482810889186714e+00  -4.0001275278210748e+00  -3.8519739685056806e+00  -3.7038204109724870e+00  -3.5556668552211508e+00  -3.4075133012513108e+00  -3.2593597490620478e+00  -3.1112061986518129e+00  -2.9630526500175240e+00  -2.8148991031530248e+00  -2.6667455580459327e+00  -2.5185920146706064e+00  -2.3704384729749894e+00  -2.2222849328501106e+00  -2.0741313940731314e+00  -1.9259778561780736e+00  -1.7778243182044218e+00  -1.6296707781416542e+00  -1.4815172317925764e+00  -1.3333636703547000e+00  -1.1852100749832080e+00  -1.0370564073256476e+00  -8.8890258257414456e-01  -7.4074847294306267e-01  -5.9259377670994284e-01  -4.4443888671358500e-01  -2.9628494447227111e-01  -1.4814639201950225e-01  6.4006615630939359e-06  -1.1852252552436765e+01  -1.1704005953267487e+01  -1.1555837075147682e+01  -1.1407743021006109e+01  -1.1259664433243941e+01  -1.1111582555998595e+01  -1.0963466202587373e+01  -1.0815329900331195e+01  -1.0667169824894339e+01  -1.0519000686906463e+01  -1.0370823376341056e+01  -1.0222644826065318e+01  -1.0074466499727835e+01  -9.9262938017888693e+00  -9.7781270636231810e+00  -9.6299660966554850e+00  -9.4818085612041880e+00  -9.3336531958200695e+00  -9.1854987338397684e+00  -9.0373447838629897e+00  -8.8891909835922096e+00  -8.7410372970390124e+00  -8.5928836306980898e+00  -8.4447299983078405e+00  -8.2965763692226879e+00  -8.1484227533281413e+00  -8.0002691386081146e+00  -7.8521155299389074e+00  -7.7039619224068367e+00  -7.5558083182714793e+00  -7.4076547155325168e+00  -7.2595011151799724e+00  -7.1113475164307172e+00  -6.9631939196777939e+00  -6.8150403246423688e+00  -6.6668867314551825e+00  -6.5187331400359882e+00  -6.3705795504125859e+00  -6.2224259625747314e+00  -6.0742723765169684e+00  -5.9261187922483343e+00  -5.7779652097570873e+00  -5.6298116290538909e+00  -5.4816580501291119e+00  -5.3335044729904455e+00  -5.1853508976317739e+00  -5.0371973240576438e+00  -4.8890437522646799e+00  -4.7408901822552956e+00  -4.5927366140277615e+00  -4.4445830475833361e+00  -4.2964294829210612e+00  -4.1482759200415291e+00  -4.0001223589444184e+00  -3.8519687996298932e+00  -3.7038152420977459e+00  -3.5556616863479844e+00  -3.4075081323802920e+00  -3.2593545801941031e+00  -3.1112010297881589e+00  -2.9630474811597853e+00  -2.8148939343031789e+00  -2.6667403892059585e+00  -2.5185868458417757e+00  -2.3704333041550094e+00  -2.2222797640283574e+00  -2.0741262252163462e+00  -1.9259726872043992e+00  -1.7778191489174111e+00  -1.6296656080994851e+00  -1.4815120600111689e+00  -1.3333584946311701e+00  -1.1852048908811541e+00  -1.0370512049298704e+00  -8.8889735191050223e-01  -7.4074318748544565e-01  -5.9258859823279675e-01  -4.4443404845188672e-01  -2.9628291646646276e-01  -1.4813936260937149e-01  -6.4721502040144900e-06  -1.1852244826958106e+01  -1.1703992332874579e+01  -1.1555830577417682e+01  -1.1407736361253077e+01  -1.1259678123848261e+01  -1.1111589680681195e+01  -1.0963479875190773e+01  -1.0815337334722388e+01  -1.0667178859228581e+01  -1.0519006144095378e+01  -1.0370829735896146e+01  -1.0222649208814920e+01  -1.0074470687640449e+01  -9.9262972307132884e+00  -9.7781311068064287e+00  -9.6299703640557208e+00  -9.4818133470968959e+00  -9.3336581055979462e+00  -9.1855038297321521e+00  -9.0373498857701779e+00  -8.8891961397699095e+00  -8.7410424411509791e+00  -8.5928887932668765e+00  -8.4447351533978257e+00  -8.2965815316846125e+00  -8.1484279122698844e+00  -8.0002743006344197e+00  -7.8521206903866965e+00  -7.7039670841473171e+00  -7.5558134793270941e+00  -7.4076598771143862e+00  -7.2595062764852623e+00  -7.1113526779346179e+00  -6.9631990810844213e+00  -6.8150454861130054e+00  -6.6668918929007237e+00  -6.5187383014950431e+00  -6.3705847118714187e+00  -6.2224311240312247e+00  -6.0742775379792295e+00  -5.9261239537052948e+00  -5.7779703712194364e+00  -5.6298167905118763e+00  -5.4816632115907069e+00  -5.3335096344492285e+00  -5.1853560590925909e+00  -5.0372024855168602e+00  -4.8890489137249027e+00  -4.7408953437146710e+00  -4.5927417754875979e+00  -4.4445882090427755e+00  -4.2964346443807493e+00  -4.1482810815011986e+00  -4.0001275204044289e+00  -3.8519739610903061e+00  -3.7038204035589990e+00  -3.5556668478105165e+00  -3.4075132938448807e+00  -3.2593597416619011e+00  -3.1112061912609974e+00  -2.9630526426405441e+00  -2.8148990957964943e+00  -2.6667455507195910e+00  -2.5185920073887686e+00  -2.3704384657585953e+00  -2.2222849257297312e+00  -2.0741313870931055e+00  -1.9259778494023130e+00  -1.7778243117240851e+00  -1.6296707720850261e+00  -1.4815172263367709e+00  -1.3333636657376755e+00  -1.1852100715117904e+00  -1.0370564053718023e+00  -8.8890258253498855e-01  -7.4074847514799258e-01  -5.9259378109257543e-01  -4.4443889243895507e-01  -2.9628494994353671e-01  -1.4814640105627289e-01  6.4078630600073975e-06  -1.1852308775156095e+01  -1.1703940453053990e+01  -1.1555766300826678e+01  -1.1407727265029493e+01  -1.1259677679440200e+01  -1.1111602771178537e+01  -1.0963486408095404e+01  -1.0815343156953622e+01  -1.0667178041997053e+01  -1.0519004029033875e+01  -1.0370824728761260e+01  -1.0222642845140264e+01  -1.0074462483939254e+01  -9.9262893047494316e+00  -9.7781237415134896e+00  -9.6299640513194564e+00  -9.4818076031129301e+00  -9.3336528171332986e+00  -9.1854986860969632e+00  -9.0373448560554497e+00  -8.8891911233076542e+00  -8.7410374526503833e+00  -8.5928838017339988e+00  -8.4447301711417655e+00  -8.2965765470839870e+00  -8.1484229312938741e+00  -8.0002693184757732e+00  -7.8521157096781966e+00  -7.7039621028862308e+00  -7.5558084986379663e+00  -7.4076548961878848e+00  -7.2595012957729752e+00  -7.1113476971334979e+00  -6.9631941003541984e+00  -6.8150405053572456e+00  -6.6668869121619476e+00  -6.5187333207537774e+00  -6.3705797311294274e+00  -6.2224261432928634e+00  -6.0742725572360454e+00  -5.9261189729658410e+00  -5.7779653904754111e+00  -5.6298118097701719e+00  -5.4816582308456141e+00  -5.3335046537051012e+00  -5.1853510783460903e+00  -5.0371975047703961e+00  -4.8890439329767226e+00  -4.7408903629660122e+00  -4.5927367947376219e+00  -4.4445832282920703e+00  -4.2964296636289827e+00  -4.1482761007487134e+00  -4.0001225396511453e+00  -3.8519689803365105e+00  -3.7038154228049058e+00  -3.5556618670565632e+00  -3.4075083130917121e+00  -3.2593547609105342e+00  -3.1112012105132170e+00  -2.9630476618991319e+00  -2.8148941150666245e+00  -2.6667405700099982e+00  -2.5185870267162747e+00  -2.3704334851537561e+00  -2.2222799452529705e+00  -2.0741264068605449e+00  -1.9259728696486418e+00  -1.7778193329216967e+00  -1.6296657951945892e+00  -1.4815122533919189e+00  -1.3333587004859420e+00  -1.1852051233258463e+00  -1.0370514795246584e+00  -8.8889773128655392e-01  -7.4074347704969024e-01  -5.9258910722635549e-01  -4.4442966875925460e-01  -2.9627500571523629e-01  -1.4810865109520494e-01  -1.6920097652376369e-05  -1.1852352158780690e+01  -1.1703746353465091e+01  -1.1555722344558800e+01  -1.1407706902770087e+01  -1.1259674472015252e+01  -1.1111600332050784e+01  -1.0963484701351979e+01  -1.0815337868516712e+01  -1.0667171910925195e+01  -1.0518996165175974e+01  -1.0370816031020297e+01  -1.0222633873754008e+01  -1.0074454702908017e+01  -9.9262823054482450e+00  -9.7781173015736851e+00  -9.6299577122454743e+00  -9.4818013350248513e+00  -9.3336465138114306e+00  -9.1854923920778724e+00  -9.0373385439312841e+00  -8.8891848180395900e+00  -8.7410311412008497e+00  -8.5928774942997741e+00  -8.4447238612841335e+00  -8.2965702390658151e+00  -8.1484166222266659e+00  -8.0002630101968872e+00  -7.8521094009448138e+00  -7.7039557944830532e+00  -7.5558021900471326e+00  -7.4076485877294669e+00  -7.2594949872446923e+00  -7.1113413886537629e+00  -6.9631877918537315e+00  -6.8150341968718608e+00  -6.6668806036742536e+00  -6.5187270122693910e+00  -6.3705734226483477e+00  -6.2224198348119177e+00  -6.0742662487592858e+00  -5.9261126644890103e+00  -5.7779590820022486e+00  -5.6298055012975050e+00  -5.4816519223759244e+00  -5.3334983452364497e+00  -5.1853447698799000e+00  -5.0371911963056153e+00  -4.8890376245140885e+00  -4.7408840545050079e+00  -4.5927304862785974e+00  -4.4445769198348053e+00  -4.2964233551736255e+00  -4.1482697922952001e+00  -4.0001162311995566e+00  -3.8519626718868434e+00  -3.7038091143572567e+00  -3.5556555586109826e+00  -3.4075020046483151e+00  -3.2593484524694345e+00  -3.1111949020745495e+00  -2.9630413534629074e+00  -2.8148878066326346e+00  -2.6667342615770946e+00  -2.5185807182818065e+00  -2.3704271767100922e+00  -2.2222736367843607e+00  -2.0741200983281698e+00  -1.9259665609741048e+00  -1.7778130239095282e+00  -1.6296594854819120e+00  -1.4815059416356537e+00  -1.3333523856264184e+00  -1.1851987881141361e+00  -1.0370451492831727e+00  -8.8889107098382292e-01  -7.4073749940584088e-01  -5.9257697130831655e-01  -4.4443431582668469e-01  -2.9618232972915204e-01  -1.4820128296256069e-01  6.9802081227695386e-04  -1.1849593637486516e+01  -1.1703828948402538e+01  -1.1555713572848809e+01  -1.1407719066346749e+01  -1.1259688199296557e+01  -1.1111610101701881e+01  -1.0963490367654305e+01  -1.0815340984880043e+01  -1.0667173483173919e+01  -1.0518997045603360e+01  -1.0370816203892021e+01  -1.0222634658094565e+01  -1.0074456652670591e+01  -9.9262853552077779e+00  -9.7781208940015478e+00  -9.6299615359770030e+00  -9.4818051882795107e+00  -9.3336503711353558e+00  -9.1854962324907028e+00  -9.0373423838709286e+00  -8.8891886533740951e+00  -8.7410349787512978e+00  -8.5928813307621024e+00  -8.4447276990335727e+00  -8.2965740763486497e+00  -8.1484204600629564e+00  -8.0002668477975689e+00  -7.8521132387776627e+00  -7.7039596322059190e+00  -7.5558060278667840e+00  -7.4076524255038256e+00  -7.2594988250580563e+00  -7.1113452264520243e+00  -6.9631916296670413e+00  -6.8150380346827282e+00  -6.6668844414909669e+00  -6.5187308500882377e+00  -6.3705772604699833e+00  -6.2224236726369426e+00  -6.0742700865863908e+00  -5.9261165023195774e+00  -5.7779629198349385e+00  -5.6298093391334314e+00  -5.4816557602141671e+00  -5.3335021830777034e+00  -5.1853486077236282e+00  -5.0371950341522043e+00  -4.8890414623632426e+00  -4.7408878923569180e+00  -4.5927343241331329e+00  -4.4445807576920329e+00  -4.2964271930334759e+00  -4.1482736301576937e+00  -4.0001200690646437e+00  -3.8519665097545013e+00  -3.7038129522273966e+00  -3.5556593964835193e+00  -3.4075058425229918e+00  -3.2593522903459706e+00  -3.1111987399521621e+00  -2.9630451913404929e+00  -2.8148916445074184e+00  -2.6667380994444789e+00  -2.5185845561310014e+00  -2.3704310145212979e+00  -2.2222774745131741e+00  -2.0741239358888466e+00  -1.9259703981734440e+00  -1.7778168603885738e+00  -1.6296633202327862e+00  -1.4815097737461507e+00  -1.3333562055320709e+00  -1.1852026155662461e+00  -1.0370487954014926e+00  -8.8889534402207193e-01  -7.4073773551943001e-01  -5.9259470198737352e-01  -4.4436694003052624e-01  -2.9645206864386692e-01  -1.4719990634611294e-01  -2.5078426882771889e-03  -1.1777830408647102e+01  -1.1629721164652160e+01  -1.1481703600980264e+01  -1.1333679698026307e+01  -1.1185624890518607e+01  -1.1037528096740166e+01  -1.0889394937871813e+01  -1.0741237850765545e+01  -1.0593066381512939e+01  -1.0444888498664508e+01  -1.0296707294367250e+01  -1.0148527029840547e+01  -1.0000351718239905e+01  -9.8521834713284360e+00  -9.7040213782865106e+00  -9.5558634879977973e+00  -9.4077078928737414e+00  -9.2595534216471833e+00  -9.1113994256792186e+00  -8.9632456370377387e+00  -8.8150919316051386e+00  -8.6669382696660424e+00  -8.5187846282350996e+00  -8.3706310006022377e+00  -8.2224773804292131e+00  -8.0743237659305311e+00  -7.9261701549926853e+00  -7.7780165470720393e+00  -7.6298629414870494e+00  -7.4817093380617026e+00  -7.3335557365983748e+00  -7.1854021370266246e+00  -7.0372485393018254e+00  -6.8890949433877111e+00  -6.7409413492824255e+00  -6.5927877569649525e+00  -6.4446341664419311e+00  -6.2964805777011410e+00  -6.1483269907486031e+00  -6.0001734055775229e+00  -5.8520198221917417e+00  -5.7038662405877236e+00  -5.5557126607675631e+00  -5.4075590827295112e+00  -5.2594055064746303e+00  -5.1112519320020686e+00  -4.9630983593123297e+00  -4.8149447884050200e+00  -4.6667912192803724e+00  -4.5186376519381577e+00  -4.3704840863784682e+00  -4.2223305226011751e+00  -4.0741769606062181e+00  -3.9260234003934351e+00  -3.7778698419626404e+00  -3.6297162853135085e+00  -3.4815627304455483e+00  -3.3334091773578574e+00  -3.1852556260489395e+00  -3.0371020765159531e+00  -2.8889485287537724e+00  -2.7407949827522557e+00  -2.5926414384916674e+00  -2.4444878959320562e+00  -2.2963343549929141e+00  -2.1481808155090314e+00  -2.0000272771412670e+00  -1.85187373918614