<?xml version="1.0"?>
<VTKFile type="UnstructuredGrid"  version="0.1"  >
<UnstructuredGrid>
<Piece  NumberOfPoints="1369" NumberOfCells="2560">
<Points>
<DataArray  type="Float64"  NumberOfComponents="3"  format="ascii">0 0 0  0.75 0 0  1.5 0 0  2.25 0 0  3 0 0  3.75 0 0  4.5 0 0  5.25 0 0  6 0 0  6.75 0 0  7.5 0 0  8.25 0 0  9 0 0  9.75 0 0  10.5 0 0  11.25 0 0  12 0 0  12.75 0 0  13.5 0 0  14.25 0 0  15 0 0  15.75 0 0  16.5 0 0  17.25 0 0  18 0 0  18.75 0 0  19.5 0 0  20.25 0 0  21 0 0  21.75 0 0  22.5 0 0  23.25 0 0  24 0 0  24.75 0 0  25.5 0 0  26.25 0 0  27 0 0  27.75 0 0  28.5 0 0  29.25 0 0  30 0 0  30.75 0 0  31.5 0 0  32.25 0 0  33 0 0  33.75 0 0  34.5 0 0  35.25 0 0  36 0 0  36.75 0 0  37.5 0 0  38.25 0 0  39 0 0  39.75 0 0  40.5 0 0  41.25 0 0  42 0 0  42.75 0 0  43.5 0 0  44.25 0 0  45 0 0  45.75 0 0  46.5 0 0  47.25 0 0  48 0 0  48.75 0 0  49.5 0 0  50.25 0 0  51 0 0  51.75 0 0  52.5 0 0  53.25 0 0  54 0 0  54.75 0 0  55.5 0 0  56.25 0 0  57 0 0  57.75 0 0  58.5 0 0  59.25 0 0  60 0 0  0 0.5 0  0.75 0.5 0  1.5 0.5 0  2.25 0.5 0  3 0.5 0  3.75 0.5 0  4.5 0.5 0  5.25 0.5 0  6 0.5 0  6.75 0.5 0  7.5 0.5 0  8.25 0.5 0  9 0.5 0  9.75 0.5 0  10.5 0.5 0  11.25 0.5 0  12 0.5 0  12.75 0.5 0  13.5 0.5 0  14.25 0.5 0  15 0.5 0  15.75 0.5 0  16.5 0.5 0  17.25 0.5 0  18 0.5 0  18.75 0.5 0  19.5 0.5 0  20.25 0.5 0  21 0.5 0  21.75 0.5 0  22.5 0.5 0  23.25 0.5 0  24 0.5 0  24.75 0.5 0  25.5 0.5 0  26.25 0.5 0  27 0.5 0  27.75 0.5 0  28.5 0.5 0  29.25 0.5 0  30 0.5 0  30.75 0.5 0  31.5 0.5 0  32.25 0.5 0  33 0.5 0  33.75 0.5 0  34.5 0.5 0  35.25 0.5 0  36 0.5 0  36.75 0.5 0  37.5 0.5 0  38.25 0.5 0  39 0.5 0  39.75 0.5 0  40.5 0.5 0  41.25 0.5 0  42 0.5 0  42.75 0.5 0  43.5 0.5 0  44.25 0.5 0  45 0.5 0  45.75 0.5 0  46.5 0.5 0  47.25 0.5 0  48 0.5 0  48.75 0.5 0  49.5 0.5 0  50.25 0.5 0  51 0.5 0  51.75 0.5 0  52.5 0.5 0  53.25 0.5 0  54 0.5 0  54.75 0.5 0  55.5 0.5 0  56.25 0.5 0  57 0.5 0  57.75 0.5 0  58.5 0.5 0  59.25 0.5 0  60 0.5 0  0 1 0  0.75 1 0  1.5 1 0  2.25 1 0  3 1 0  3.75 1 0  4.5 1 0  5.25 1 0  6 1 0  6.75 1 0  7.5 1 0  8.25 1 0  9 1 0  9.75 1 0  10.5 1 0  11.25 1 0  12 1 0  12.75 1 0  13.5 1 0  14.25 1 0  15 1 0  15.75 1 0  16.5 1 0  17.25 1 0  18 1 0  18.75 1 0  19.5 1 0  20.25 1 0  21 1 0  21.75 1 0  22.5 1 0  23.25 1 0  24 1 0  24.75 1 0  25.5 1 0  26.25 1 0  27 1 0  27.75 1 0  28.5 1 0  29.25 1 0  30 1 0  30.75 1 0  31.5 1 0  32.25 1 0  33 1 0  33.75 1 0  34.5 1 0  35.25 1 0  36 1 0  36.75 1 0  37.5 1 0  38.25 1 0  39 1 0  39.75 1 0  40.5 1 0  41.25 1 0  42 1 0  42.75 1 0  43.5 1 0  44.25 1 0  45 1 0  45.75 1 0  46.5 1 0  47.25 1 0  48 1 0  48.75 1 0  49.5 1 0  50.25 1 0  51 1 0  51.75 1 0  52.5 1 0  53.25 1 0  54 1 0  54.75 1 0  55.5 1 0  56.25 1 0  57 1 0  57.75 1 0  58.5 1 0  59.25 1 0  60 1 0  0 1.5 0  0.75 1.5 0  1.5 1.5 0  2.25 1.5 0  3 1.5 0  3.75 1.5 0  4.5 1.5 0  5.25 1.5 0  6 1.5 0  6.75 1.5 0  7.5 1.5 0  8.25 1.5 0  9 1.5 0  9.75 1.5 0  10.5 1.5 0  11.25 1.5 0  12 1.5 0  12.75 1.5 0  13.5 1.5 0  14.25 1.5 0  15 1.5 0  15.75 1.5 0  16.5 1.5 0  17.25 1.5 0  18 1.5 0  18.75 1.5 0  19.5 1.5 0  20.25 1.5 0  21 1.5 0  21.75 1.5 0  22.5 1.5 0  23.25 1.5 0  24 1.5 0  24.75 1.5 0  25.5 1.5 0  26.25 1.5 0  27 1.5 0  27.75 1.5 0  28.5 1.5 0  29.25 1.5 0  30 1.5 0  30.75 1.5 0  31.5 1.5 0  32.25 1.5 0  33 1.5 0  33.75 1.5 0  34.5 1.5 0  35.25 1.5 0  36 1.5 0  36.75 1.5 0  37.5 1.5 0  38.25 1.5 0  39 1.5 0  39.75 1.5 0  40.5 1.5 0  41.25 1.5 0  42 1.5 0  42.75 1.5 0  43.5 1.5 0  44.25 1.5 0  45 1.5 0  45.75 1.5 0  46.5 1.5 0  47.25 1.5 0  48 1.5 0  48.75 1.5 0  49.5 1.5 0  50.25 1.5 0  51 1.5 0  51.75 1.5 0  52.5 1.5 0  53.25 1.5 0  54 1.5 0  54.75 1.5 0  55.5 1.5 0  56.25 1.5 0  57 1.5 0  57.75 1.5 0  58.5 1.5 0  59.25 1.5 0  60 1.5 0  0 2 0  0.75 2 0  1.5 2 0  2.25 2 0  3 2 0  3.75 2 0  4.5 2 0  5.25 2 0  6 2 0  6.75 2 0  7.5 2 0  8.25 2 0  9 2 0  9.75 2 0  10.5 2 0  11.25 2 0  12 2 0  12.75 2 0  13.5 2 0  14.25 2 0  15 2 0  15.75 2 0  16.5 2 0  17.25 2 0  18 2 0  18.75 2 0  19.5 2 0  20.25 2 0  21 2 0  21.75 2 0  22.5 2 0  23.25 2 0  24 2 0  24.75 2 0  25.5 2 0  26.25 2 0  27 2 0  27.75 2 0  28.5 2 0  29.25 2 0  30 2 0  30.75 2 0  31.5 2 0  32.25 2 0  33 2 0  33.75 2 0  34.5 2 0  35.25 2 0  36 2 0  36.75 2 0  37.5 2 0  38.25 2 0  39 2 0  39.75 2 0  40.5 2 0  41.25 2 0  42 2 0  42.75 2 0  43.5 2 0  44.25 2 0  45 2 0  45.75 2 0  46.5 2 0  47.25 2 0  48 2 0  48.75 2 0  49.5 2 0  50.25 2 0  51 2 0  51.75 2 0  52.5 2 0  53.25 2 0  54 2 0  54.75 2 0  55.5 2 0  56.25 2 0  57 2 0  57.75 2 0  58.5 2 0  59.25 2 0  60 2 0  0 2.5 0  0.75 2.5 0  1.5 2.5 0  2.25 2.5 0  3 2.5 0  3.75 2.5 0  4.5 2.5 0  5.25 2.5 0  6 2.5 0  6.75 2.5 0  7.5 2.5 0  8.25 2.5 0  9 2.5 0  9.75 2.5 0  10.5 2.5 0  11.25 2.5 0  12 2.5 0  12.75 2.5 0  13.5 2.5 0  14.25 2.5 0  15 2.5 0  15.75 2.5 0  16.5 2.5 0  17.25 2.5 0  18 2.5 0  18.75 2.5 0  19.5 2.5 0  20.25 2.5 0  21 2.5 0  21.75 2.5 0  22.5 2.5 0  23.25 2.5 0  24 2.5 0  24.75 2.5 0  25.5 2.5 0  26.25 2.5 0  27 2.5 0  27.75 2.5 0  28.5 2.5 0  29.25 2.5 0  30 2.5 0  30.75 2.5 0  31.5 2.5 0  32.25 2.5 0  33 2.5 0  33.75 2.5 0  34.5 2.5 0  35.25 2.5 0  36 2.5 0  36.75 2.5 0  37.5 2.5 0  38.25 2.5 0  39 2.5 0  39.75 2.5 0  40.5 2.5 0  41.25 2.5 0  42 2.5 0  42.75 2.5 0  43.5 2.5 0  44.25 2.5 0  45 2.5 0  45.75 2.5 0  46.5 2.5 0  47.25 2.5 0  48 2.5 0  48.75 2.5 0  49.5 2.5 0  50.25 2.5 0  51 2.5 0  51.75 2.5 0  52.5 2.5 0  53.25 2.5 0  54 2.5 0  54.75 2.5 0  55.5 2.5 0  56.25 2.5 0  57 2.5 0  57.75 2.5 0  58.5 2.5 0  59.25 2.5 0  60 2.5 0  0 3 0  0.75 3 0  1.5 3 0  2.25 3 0  3 3 0  3.75 3 0  4.5 3 0  5.25 3 0  6 3 0  6.75 3 0  7.5 3 0  8.25 3 0  9 3 0  9.75 3 0  10.5 3 0  11.25 3 0  12 3 0  12.75 3 0  13.5 3 0  14.25 3 0  15 3 0  15.75 3 0  16.5 3 0  17.25 3 0  18 3 0  18.75 3 0  19.5 3 0  20.25 3 0  21 3 0  21.75 3 0  22.5 3 0  23.25 3 0  24 3 0  24.75 3 0  25.5 3 0  26.25 3 0  27 3 0  27.75 3 0  28.5 3 0  29.25 3 0  30 3 0  30.75 3 0  31.5 3 0  32.25 3 0  33 3 0  33.75 3 0  34.5 3 0  35.25 3 0  36 3 0  36.75 3 0  37.5 3 0  38.25 3 0  39 3 0  39.75 3 0  40.5 3 0  41.25 3 0  42 3 0  42.75 3 0  43.5 3 0  44.25 3 0  45 3 0  45.75 3 0  46.5 3 0  47.25 3 0  48 3 0  48.75 3 0  49.5 3 0  50.25 3 0  51 3 0  51.75 3 0  52.5 3 0  53.25 3 0  54 3 0  54.75 3 0  55.5 3 0  56.25 3 0  57 3 0  57.75 3 0  58.5 3 0  59.25 3 0  60 3 0  0 3.5 0  0.75 3.5 0  1.5 3.5 0  2.25 3.5 0  3 3.5 0  3.75 3.5 0  4.5 3.5 0  5.25 3.5 0  6 3.5 0  6.75 3.5 0  7.5 3.5 0  8.25 3.5 0  9 3.5 0  9.75 3.5 0  10.5 3.5 0  11.25 3.5 0  12 3.5 0  12.75 3.5 0  13.5 3.5 0  14.25 3.5 0  15 3.5 0  15.75 3.5 0  16.5 3.5 0  17.25 3.5 0  18 3.5 0  18.75 3.5 0  19.5 3.5 0  20.25 3.5 0  21 3.5 0  21.75 3.5 0  22.5 3.5 0  23.25 3.5 0  24 3.5 0  24.75 3.5 0  25.5 3.5 0  26.25 3.5 0  27 3.5 0  27.75 3.5 0  28.5 3.5 0  29.25 3.5 0  30 3.5 0  30.75 3.5 0  31.5 3.5 0  32.25 3.5 0  33 3.5 0  33.75 3.5 0  34.5 3.5 0  35.25 3.5 0  36 3.5 0  36.75 3.5 0  37.5 3.5 0  38.25 3.5 0  39 3.5 0  39.75 3.5 0  40.5 3.5 0  41.25 3.5 0  42 3.5 0  42.75 3.5 0  43.5 3.5 0  44.25 3.5 0  45 3.5 0  45.75 3.5 0  46.5 3.5 0  47.25 3.5 0  48 3.5 0  48.75 3.5 0  49.5 3.5 0  50.25 3.5 0  51 3.5 0  51.75 3.5 0  52.5 3.5 0  53.25 3.5 0  54 3.5 0  54.75 3.5 0  55.5 3.5 0  56.25 3.5 0  57 3.5 0  57.75 3.5 0  58.5 3.5 0  59.25 3.5 0  60 3.5 0  0 4 0  0.75 4 0  1.5 4 0  2.25 4 0  3 4 0  3.75 4 0  4.5 4 0  5.25 4 0  6 4 0  6.75 4 0  7.5 4 0  8.25 4 0  9 4 0  9.75 4 0  10.5 4 0  11.25 4 0  12 4 0  12.75 4 0  13.5 4 0  14.25 4 0  15 4 0  15.75 4 0  16.5 4 0  17.25 4 0  18 4 0  18.75 4 0  19.5 4 0  20.25 4 0  21 4 0  21.75 4 0  22.5 4 0  23.25 4 0  24 4 0  24.75 4 0  25.5 4 0  26.25 4 0  27 4 0  27.75 4 0  28.5 4 0  29.25 4 0  30 4 0  30.75 4 0  31.5 4 0  32.25 4 0  33 4 0  33.75 4 0  34.5 4 0  35.25 4 0  36 4 0  36.75 4 0  37.5 4 0  38.25 4 0  39 4 0  39.75 4 0  40.5 4 0  41.25 4 0  42 4 0  42.75 4 0  43.5 4 0  44.25 4 0  45 4 0  45.75 4 0  46.5 4 0  47.25 4 0  48 4 0  48.75 4 0  49.5 4 0  50.25 4 0  51 4 0  51.75 4 0  52.5 4 0  53.25 4 0  54 4 0  54.75 4 0  55.5 4 0  56.25 4 0  57 4 0  57.75 4 0  58.5 4 0  59.25 4 0  60 4 0  0.375 0.25 0  1.125 0.25 0  1.875 0.25 0  2.625 0.25 0  3.375 0.25 0  4.125 0.25 0  4.875 0.25 0  5.625 0.25 0  6.375 0.25 0  7.125 0.25 0  7.875 0.25 0  8.625 0.25 0  9.375 0.25 0  10.125 0.25 0  10.875 0.25 0  11.625 0.25 0  12.375 0.25 0  13.125 0.25 0  13.875 0.25 0  14.625 0.25 0  15.375 0.25 0  16.125 0.25 0  16.875 0.25 0  17.625 0.25 0  18.375 0.25 0  19.125 0.25 0  19.875 0.25 0  20.625 0.25 0  21.375 0.25 0  22.125 0.25 0  22.875 0.25 0  23.625 0.25 0  24.375 0.25 0  25.125 0.25 0  25.875 0.25 0  26.625 0.25 0  27.375 0.25 0  28.125 0.25 0  28.875 0.25 0  29.625 0.25 0  30.375 0.25 0  31.125 0.25 0  31.875 0.25 0  32.625 0.25 0  33.375 0.25 0  34.125 0.25 0  34.875 0.25 0  35.625 0.25 0  36.375 0.25 0  37.125 0.25 0  37.875 0.25 0  38.625 0.25 0  39.375 0.25 0  40.125 0.25 0  40.875 0.25 0  41.625 0.25 0  42.375 0.25 0  43.125 0.25 0  43.875 0.25 0  44.625 0.25 0  45.375 0.25 0  46.125 0.25 0  46.875 0.25 0  47.625 0.25 0  48.375 0.25 0  49.125 0.25 0  49.875 0.25 0  50.625 0.25 0  51.375 0.25 0  52.125 0.25 0  52.875 0.25 0  53.625 0.25 0  54.375 0.25 0  55.125 0.25 0  55.875 0.25 0  56.625 0.25 0  57.375 0.25 0  58.125 0.25 0  58.875 0.25 0  59.625 0.25 0  0.375 0.75 0  1.125 0.75 0  1.875 0.75 0  2.625 0.75 0  3.375 0.75 0  4.125 0.75 0  4.875 0.75 0  5.625 0.75 0  6.375 0.75 0  7.125 0.75 0  7.875 0.75 0  8.625 0.75 0  9.375 0.75 0  10.125 0.75 0  10.875 0.75 0  11.625 0.75 0  12.375 0.75 0  13.125 0.75 0  13.875 0.75 0  14.625 0.75 0  15.375 0.75 0  16.125 0.75 0  16.875 0.75 0  17.625 0.75 0  18.375 0.75 0  19.125 0.75 0  19.875 0.75 0  20.625 0.75 0  21.375 0.75 0  22.125 0.75 0  22.875 0.75 0  23.625 0.75 0  24.375 0.75 0  25.125 0.75 0  25.875 0.75 0  26.625 0.75 0  27.375 0.75 0  28.125 0.75 0  28.875 0.75 0  29.625 0.75 0  30.375 0.75 0  31.125 0.75 0  31.875 0.75 0  32.625 0.75 0  33.375 0.75 0  34.125 0.75 0  34.875 0.75 0  35.625 0.75 0  36.375 0.75 0  37.125 0.75 0  37.875 0.75 0  38.625 0.75 0  39.375 0.75 0  40.125 0.75 0  40
[...]
<PointData  Scalars="f_8-1"> 
<DataArray  type="Float64"  Name="f_8-1"  format="ascii">-9.7058863102619917e+00  -9.5868619102630834e+00  -9.4643252613062128e+00  -9.3434253961381408e+00  -9.2221538249590242e+00  -9.1009421846032001e+00  -8.9796189383707539e+00  -8.8582788957024512e+00  -8.7369067945370951e+00  -8.6155305867934668e+00  -8.4941484119794488e+00  -8.3727752070645955e+00  -8.2514122963190211e+00  -8.1300610983502200e+00  -8.0087167481815875e+00  -7.8873766332981807e+00  -7.7660381124688760e+00  -7.6447003947489724e+00  -7.5233628853518661e+00  -7.4020255161758897e+00  -7.2806881848992449e+00  -7.1593508906950074e+00  -7.0380136115484362e+00  -6.9166763412191612e+00  -6.7953390761782941e+00  -6.6740018100340901e+00  -6.5526645444021563e+00  -6.4313272747844756e+00  -6.3099900034563863e+00  -6.1886527276137384e+00  -6.0673154489723728e+00  -5.9459781659060598e+00  -5.8246408794767470e+00  -5.7033035887973034e+00  -5.5819662944571338e+00  -5.4606289959989240e+00  -5.3392916937254915e+00  -5.2179543874133305e+00  -5.0966170772085659e+00  -4.9752797630072463e+00  -4.8539424448762034e+00  -4.7326051227692663e+00  -4.6112677967155369e+00  -4.4899304666953990e+00  -4.3685931327209833e+00  -4.2472557947842509e+00  -4.1259184528900343e+00  -4.0045811070351505e+00  -3.8832437572214107e+00  -3.7619064034476142e+00  -3.6405690457143618e+00  -3.5192316840211602e+00  -3.3978943183681078e+00  -3.2765569487548998e+00  -3.1552195751814160e+00  -3.0338821976472690e+00  -2.9125448161520184e+00  -2.7912074306948025e+00  -2.6698700412744052e+00  -2.5485326478882557e+00  -2.4271952505323284e+00  -2.3058578491974560e+00  -2.1845204438677679e+00  -2.0631830345070132e+00  -1.9418456210475459e+00  -1.8205082033399627e+00  -1.6991707810989931e+00  -1.5778333537286515e+00  -1.4564959201176877e+00  -1.3351584781248238e+00  -1.2138210240574054e+00  -1.0924835517063449e+00  -9.7114605272780619e-01  -8.4980851952288172e-01  -7.2847096974463477e-01  -6.0713343036749856e-01  -4.8579669373437440e-01  -3.6445709091617856e-01  -2.4315821458789827e-01  -1.2155887286161093e-01  -3.1383574931522894e-03  -9.7087571001319475e+00  -9.5863903790556595e+00  -9.4646614885547020e+00  -9.3434425151543969e+00  -9.2222551823962231e+00  -9.1009986058189174e+00  -8.9796996001681908e+00  -8.8583486088454837e+00  -8.7369862980081230e+00  -8.6156059170747756e+00  -8.4942260296778027e+00  -8.3728491115650261e+00  -8.2514863330731512e+00  -8.1301336024695932e+00  -8.0087895880386579e+00  -7.8874490452888448e+00  -7.7661107587057341e+00  -7.6447728938645936e+00  -7.5234354784248065e+00  -7.4020980496874813e+00  -7.2807607518885122e+00  -7.1594234353856079e+00  -7.0380861676004836e+00  -6.9167488901272947e+00  -6.7954116281905819e+00  -6.6740743605038926e+00  -6.5527370950863011e+00  -6.4313998257048732e+00  -6.3100625538158681e+00  -6.1887252785678575e+00  -6.0673879993370781e+00  -5.9460507167777337e+00  -5.8247134299239640e+00  -5.7033761395816747e+00  -5.5820388449818328e+00  -5.4607015467209772e+00  -5.3393642443044769e+00  -5.2180269380984248e+00  -5.0966896278211387e+00  -4.9753523136734268e+00  -4.8540149955084075e+00  -4.7326776734274461e+00  -4.6113403473592056e+00  -4.4900030173514986e+00  -4.3686656833717397e+00  -4.2473283454412067e+00  -4.1259910035457255e+00  -4.0046536576943028e+00  -3.8833163078810236e+00  -3.7619789541095403e+00  -3.6406415963774514e+00  -3.5193042346861110e+00  -3.3979668690345064e+00  -3.2766294994229765e+00  -3.1552921258510636e+00  -3.0339547483184961e+00  -2.9126173668249207e+00  -2.7912799813692271e+00  -2.6699425919507949e+00  -2.5486051985664293e+00  -2.4272678012138735e+00  -2.3059303998833229e+00  -2.1845929945641496e+00  -2.0632555852222478e+00  -1.9419181718077896e+00  -1.8205807541901096e+00  -1.6992433321496831e+00  -1.5779059051849500e+00  -1.4565684724276666e+00  -1.3352310321366192e+00  -1.2138935815406544e+00  -1.0925561162363302e+00  -9.7121863164399058e-01  -8.4988112873084132e-01  -7.2854363757424390e-01  -6.0720631677127745e-01  -4.8586938992506096e-01  -3.6453635361169412e-01  -2.4319059429203396e-01  -1.2204815793690107e-01  3.8534270640094961e-04  -9.7079951379345513e+00  -9.5867742091985804e+00  -9.4648250257732176e+00  -9.3436391582162841e+00  -9.2223033463107456e+00  -9.1010797007103097e+00  -8.9797407939433747e+00  -8.8584162355996234e+00  -8.7370405922544645e+00  -8.6156753732419489e+00  -8.4942890341609694e+00  -8.3729173795479781e+00  -8.2515501374282962e+00  -8.1301989433064250e+00  -8.0088525096940835e+00  -7.8875126232770736e+00  -7.7661733431185427e+00  -7.6448358639203207e+00  -7.5234980774896592e+00  -7.4021608408956681e+00  -7.2808233982753192e+00  -7.1594861646843446e+00  -7.0381488393980645e+00  -6.9168115946711426e+00  -6.7954743113131144e+00  -6.6741370550327668e+00  -6.5527997828974494e+00  -6.4314625164578993e+00  -6.3101252433283888e+00  -6.1887879681029085e+00  -6.0674506893066971e+00  -5.9461134060545575e+00  -5.8247761199061214e+00  -5.7034388289037210e+00  -5.5821015348630194e+00  -5.4607642361474351e+00  -5.3394269340874105e+00  -5.2180896276128372e+00  -5.0967523175368230e+00  -4.9754150032461890e+00  -4.8540776851856346e+00  -4.7327403630347646e+00  -4.6114030370175128e+00  -4.4900657069782568e+00  -4.3687283730224236e+00  -4.2473910350789508e+00  -4.1260536931946232e+00  -4.0047163473386931e+00  -3.8833789975308926e+00  -3.7620416437585265e+00  -3.6407042860295147e+00  -3.5193669243387888e+00  -3.3980295586893390e+00  -3.2766921890790894e+00  -3.1553548155090909e+00  -3.0340174379782225e+00  -2.9126800564866850e+00  -2.7913426710331386e+00  -2.6700052816170752e+00  -2.5486678882352574e+00  -2.4273304908849145e+00  -2.3059930895558396e+00  -2.1846556842344120e+00  -2.0633182748831884e+00  -1.9419808614382696e+00  -1.8206434437475068e+00  -1.6993060215216136e+00  -1.5779685941195893e+00  -1.4566311602714455e+00  -1.3352937172827113e+00  -1.2139562597435498e+00  -1.0926187762245736e+00  -9.7128124192273346e-01  -8.4994360068400188e-01  -7.2860572408021673e-01  -6.0726728602009350e-01  -4.8592746700386580e-01  -3.6458337532600366e-01  -2.4323154955956683e-01  -1.2179511419434451e-01  -1.9102581898115563e-05  -9.7083143632562923e+00  -9.5865083543845060e+00  -9.4651076330272730e+00  -9.3435615082765828e+00  -9.2223649051531922e+00  -9.1009990520797626e+00  -8.9797372735842576e+00  -8.8583636504769441e+00  -8.7370284918562948e+00  -8.6156429586902021e+00  -8.4942778257789584e+00  -8.3728976889564084e+00  -8.2515381779846724e+00  -8.1301805411089649e+00  -8.0088359695047107e+00  -7.8874925765007724e+00  -7.7661541444064817e+00  -7.6448152933083664e+00  -7.5234780307937115e+00  -7.4021402899383943e+00  -7.2808031080812059e+00  -7.1594656771574821e+00  -7.0381284640990289e+00  -6.9167911409591971e+00  -6.7954539017883775e+00  -6.6741166164457981e+00  -6.5527793595665420e+00  -6.4314420841327404e+00  -6.3101048148247187e+00  -6.1887675380320166e+00  -6.0674302591494662e+00  -5.9460929765695010e+00  -5.8247556894073620e+00  -5.7034183994117553e+00  -5.5820811044332102e+00  -5.4607438065015739e+00  -5.3394065038028717e+00  -5.2180691978220217e+00  -5.0967318873714538e+00  -4.9753945733560272e+00  -4.8540572550967624e+00  -4.7327199330863614e+00  -4.6113826069715342e+00  -4.4900452769990506e+00  -4.3687079429982525e+00  -4.2473706050845799e+00  -4.1260332631805614e+00  -4.0046959173371457e+00  -3.8833585675210136e+00  -3.7620212137535174e+00  -3.6406838560209973e+00  -3.5193464943319737e+00  -3.3980091286810303e+00  -3.2766717590713683e+00  -3.1553343855008671e+00  -3.0339970079705108e+00  -2.9126596264792588e+00  -2.7913222410268221e+00  -2.6699848516118445e+00  -2.5486474582317848e+00  -2.4273100608818590e+00  -2.3059726595511636e+00  -2.1846352542183478e+00  -2.0632978448360109e+00  -1.9419604313070717e+00  -1.8206230134208854e+00  -1.6992855907362561e+00  -1.5779481623017566e+00  -1.4566107260839589e+00  -1.3352732776259459e+00  -1.2139358069817598e+00  -1.0925982910285068e+00  -9.7126067369711222e-01  -8.4992281333497099e-01  -7.2858433949076040e-01  -6.0724425259698522e-01  -4.8589978399806494e-01  -3.6454330483437286e-01  -2.4315265910581280e-01  -1.2166525229899862e-01  -1.0952556493315431e-05  -9.7081455910519558e+00  -9.5866408878127096e+00  -9.4650033712888018e+00  -9.3436805651155570e+00  -9.2222763576585098e+00  -9.1010439811687487e+00  -8.9796797244236490e+00  -8.8583775657836359e+00  -8.7369957236804741e+00  -8.6156444599489124e+00  -8.4942587927008191e+00  -8.3728951155917137e+00  -8.2515256381247255e+00  -8.1301744343925826e+00  -8.0088245673169638e+00  -7.8874837806398537e+00  -7.7661429442225556e+00  -7.6448053172235824e+00  -7.5234670663902019e+00  -7.4021298941495139e+00  -7.2807923086166859e+00  -7.1594551251814336e+00  -7.0381177463562228e+00  -6.9167805252678152e+00  -6.7954432203604247e+00  -6.6741059740357453e+00  -6.5527686935997052e+00  -6.4314314309147980e+00  -6.3100941549729077e+00  -6.1887568808594828e+00  -6.0674196013686421e+00  -5.9460823182358471e+00  -5.8247450320979537e+00  -5.7034077409312776e+00  -5.5820704470632450e+00  -5.4607331481625376e+00  -5.3393958462602580e+00  -5.2180585396515031e+00  -5.0967212296810818e+00  -4.9753839153094805e+00  -4.8540465973097691e+00  -4.7327092751153526e+00  -4.6113719491298086e+00  -4.4900346190690392e+00  -4.3686972851284382e+00  -4.2473599471749308e+00  -4.1260226052973232e+00  -4.0046852594368136e+00  -3.8833479096316270e+00  -3.7620105558570498e+00  -3.6406731981287801e+00  -3.5193358364368845e+00  -3.3979984707875235e+00  -3.2766611011768432e+00  -3.1553237276071417e+00  -3.0339863500769080e+00  -2.9126489685867996e+00  -2.7913115831358422e+00  -2.6699741937233914e+00  -2.5486368003470066e+00  -2.4272994030020425e+00  -2.3059620016777216e+00  -2.1846245963511763e+00  -2.0632871869722544e+00  -1.9419497734338245e+00  -1.8206123555044542e+00  -1.6992749326885148e+00  -1.5779375039141155e+00  -1.4566000668507149e+00  -1.3352626163266061e+00  -1.2139251405540472e+00  -1.0925876115921747e+00  -9.7124996040983047e-01  -8.4991200963013813e-01  -7.2857328821637490e-01  -6.0723251210143825e-01  -4.8588613058682711e-01  -3.6452429651290119e-01  -2.4312060241966957e-01  -1.2162295323271306e-01  -1.1822309003159158e-05  -9.7083143678665866e+00  -9.5865083440699923e+00  -9.4651076127835783e+00  -9.3435614887667757e+00  -9.2223649125780351e+00  -9.1009990756899519e+00  -8.9797373101548104e+00  -8.8583636894787467e+00  -8.7370285270044121e+00  -8.6156429875218254e+00  -8.4942778505173386e+00  -8.3728977087484413e+00  -8.2515381922519548e+00  -8.1301805506455764e+00  -8.0088359765847734e+00  -7.8874925831447795e+00  -7.7661541519326560e+00  -7.6448153021687402e+00  -7.5234780409907343e+00  -7.4021403012290916e+00  -7.2808031202025880e+00  -7.1594656898692168e+00  -7.0381284772260626e+00  -6.9167911543711158e+00  -6.7954539153987650e+00  -6.6741166301928185e+00  -6.5527793734097299e+00  -6.4314420980428357e+00  -6.3101048287822357e+00  -6.1887675520226768e+00  -6.0674302731636871e+00  -5.9460929906002784e+00  -5.8247557034500534e+00  -5.7034184134629875e+00  -5.5820811184907528e+00  -5.4607438205638079e+00  -5.3394065178687171e+00  -5.2180692118906755e+00  -5.0967319014423849e+00  -4.9753945874288119e+00  -4.8540572691711104e+00  -4.7327199471620141e+00  -4.6113826210482820e+00  -4.4900452910767008e+00  -4.3687079570766096e+00  -4.2473706191634584e+00  -4.1260332772597952e+00  -4.0046959314165829e+00  -3.8833585816005201e+00  -3.7620212278329808e+00  -3.6406838701003368e+00  -3.5193465084111817e+00  -3.3980091427601948e+00  -3.2766717731507020e+00  -3.1553343995807541e+00  -3.0339970220515906e+00  -2.9126596405625369e+00  -2.7913222551138230e+00  -2.6699848657048686e+00  -2.5486474723342529e+00  -2.4273100749988843e+00  -2.3059726736903539e+00  -2.1846352683911316e+00  -2.0632978590596029e+00  -1.9419604456075408e+00  -1.8206230278379125e+00  -1.6992856053305032e+00  -1.5779481771663300e+00  -1.4566107413622600e+00  -1.3352732935393576e+00  -1.2139358238723570e+00  -1.0925983094247638e+00  -9.7126069441479534e-01  -8.4992283763114618e-01  -7.2858436929246262e-01  -6.0724429081992815e-01  -4.8589983490185812e-01  -3.6454337411015525e-01  -2.4315275059577188e-01  -1.2166534197742006e-01  -1.0954209220562406e-05  -9.7079951255056365e+00  -9.5867742198633312e+00  -9.4648249625867642e+00  -9.3436391318394847e+00  -9.2223033611590139e+00  -9.1010797582965584e+00  -8.9797408707262374e+00  -8.8584163190556939e+00  -8.7370406648282515e+00  -8.6156754342616217e+00  -8.4942890861627927e+00  -8.3729174217941686e+00  -8.2515501685532922e+00  -8.1301989658891891e+00  -8.0088525280357388e+00  -7.8875126413505470e+00  -7.7661733630738423e+00  -7.6448358865383419e+00  -7.5234981026073422e+00  -7.4021608680576776e+00  -7.2808234269479906e+00  -7.1594861944400030e+00  -7.0381488699018044e+00  -6.9168116256950514e+00  -6.7954743426936934e+00  -6.6741370866627632e+00  -6.5527998147003794e+00  -6.4314625483830037e+00  -6.3101252753388524e+00  -6.1887880001738989e+00  -6.0674507214201299e+00  -5.9461134381982470e+00  -5.8247761520713333e+00  -5.7034388610845870e+00  -5.5821015670553287e+00  -5.4607642683483810e+00  -5.3394269662949565e+00  -5.2180896598255684e+00  -5.0967523497537277e+00  -4.9754150354665194e+00  -4.8540777174088507e+00  -4.7327403952603877e+00  -4.6114030692451307e+00  -4.4900657392075187e+00  -4.3687284052529503e+00  -4.2473910673104021e+00  -4.1260537254266527e+00  -4.0047163795710476e+00  -3.8833790297633177e+00  -3.7620416759907749e+00  -3.6407043182614700e+00  -3.5193669565704186e+00  -3.3980295909208160e+00  -3.2766922213108174e+00  -3.1553548477417865e+00  -3.0340174702130858e+00  -2.9126800887256028e+00  -2.7913427032789571e+00  -2.6700053138740909e+00  -2.5486679205098617e+00  -2.4273305231866211e+00  -2.3059931218988368e+00  -2.1846557166399725e+00  -2.0633183073833563e+00  -1.9419808940815741e+00  -1.8206434766077724e+00  -1.6993060547117089e+00  -1.5779686278127458e+00  -1.4566311947344854e+00  -1.3352937529276427e+00  -1.2139562972072206e+00  -1.0926188164910848e+00  -9.7128128651172319e-01  -8.4994365193911925e-01  -7.2860578559937272e-01  -6.0726736325854069e-01  -4.8592756808098708e-01  -3.6458351118299664e-01  -2.4323173755517294e-01  -1.2179533595211575e-01  -1.9114601702365830e-05  -9.7087571384943416e+00  -9.5863904047915600e+00  -9.4646614111649559e+00  -9.3434425001709140e+00  -9.2222552292969127e+00  -9.1009987067681575e+00  -8.9796997265602840e+00  -8.8583487394262530e+00  -8.7369864157194446e+00  -8.6156060193397384e+00  -8.4942261189820361e+00  -8.3728491873722160e+00  -8.2514863958940676e+00  -8.1301336559317470e+00  -8.0087896373945746e+00  -7.8874490947853628e+00  -7.7661108107124717e+00  -7.6447729491007630e+00  -7.5234355366819310e+00  -7.4020981103803152e+00  -7.2807608143968823e+00  -7.1594234991873078e+00  -7.0380862323035025e+00  -6.9167489554529942e+00  -6.7954116939465683e+00  -6.6740744265585885e+00  -6.5527371613495369e+00  -6.4313998921143787e+00  -6.3100626203282664e+00  -6.1887253451527959e+00  -6.0673880659732840e+00  -5.9460507834503336e+00  -5.8247134966226710e+00  -5.7033762062992990e+00  -5.5820389117134166e+00  -5.4607016134630459e+00  -5.3393643110546014e+00  -5.2180270048548465e+00  -5.0966896945826274e+00  -4.9753523804390376e+00  -4.8540150622774387e+00  -4.7326777401992732e+00  -4.6113404141333110e+00  -4.4900030841274061e+00  -4.3686657501489679e+00  -4.2473284122192991e+00  -4.1259910703242584e+00  -4.0046537244729477e+00  -3.8833163746594628e+00  -3.7619790208874662e+00  -3.6406416631547311e+00  -3.5193043014627148e+00  -3.3979669358106515e+00  -3.2766295661991816e+00  -3.1552921926282078e+00  -3.0339548150980642e+00  -2.9126174336092090e+00  -2.7912800481617062e+00  -2.6699426587566806e+00  -2.5486052653934648e+00  -2.4272678680735771e+00  -2.3059304667928915e+00  -2.1845930615493696e+00  -2.0632556523220367e+00  -1.9419182390811163e+00  -1.8205808217268165e+00  -1.6992434000873251e+00  -1.5779059737348851e+00  -1.4565685419157719e+00  -1.3352311030664281e+00  -1.2138936546909564e+00  -1.0925561928109635e+00  -9.7121871350121514e-01  -8.4988121873151168e-01  -7.2854374009529332e-01  -6.0720643844194111e-01  -4.8586954041797764e-01  -3.6453654861733908e-01  -2.4319083846227879e-01  -1.2204864883925201e-01  3.8536016084941561e-04  -9.7058852540650431e+00  -9.5868622436793363e+00  -9.4643251333137801e+00  -9.3434254512042187e+00  -9.2221539102998626e+00  -9.1009423348205836e+00  -8.9796191076991168e+00  -8.8582790670980120e+00  -8.7369069513375450e+00  -8.6155307270116559e+00  -8.4941485373287442e+00  -8.3727753183615317e+00  -8.2514123950812657e+00  -8.1300611886563257e+00  -8.0087168350478297e+00  -7.8873767207601517e+00  -7.7660382026860244e+00  -7.6447004883715826e+00  -7.5233629821046959e+00  -7.4020256154563064e+00  -7.2806882860570648e+00  -7.1593509931967780e+00  -7.0380137149847428e+00  -6.9166764453042902e+00  -6.7953391807103865e+00  -6.6740019148779410e+00  -6.5526646494627574e+00  -6.4313273799978781e+00  -6.3099901087768027e+00  -6.1886528330100683e+00  -6.0673155544221729e+00  -5.9459782713941030e+00  -5.8246409849921212e+00  -5.7033036943326438e+00  -5.5819664000071469e+00  -5.4606291015599933e+00  -5.3392917992950171e+00  -5.2179544929894464e+00  -5.0966171827899114e+00  -4.9752798685927981e+00  -4.8539425504651339e+00  -4.7326052283608915e+00  -4.6112679023092662e+00  -4.4899305722906622e+00  -4.3685932383172439e+00  -4.2472559003810098e+00  -4.1259185584868074e+00  -4.0045812126315754e+00  -3.8832438628171495e+00  -3.7619065090423289e+00  -3.6405691513079086e+00  -3.5192317896135150e+00  -3.3978944239594662e+00  -3.2765570543457905e+00  -3.1552196807726904e+00  -3.0338823032403783e+00  -2.9125449217491952e+00  -2.7912075362993982e+00  -2.6698701468914376e+00  -2.5485327535251669e+00  -2.4271953562001620e+00  -2.3058579549127196e+00  -2.1845205496552320e+00  -2.0631831404041230e+00  -1.9418457271110903e+00  -1.8205083096566723e+00  -1.6991708878018776e+00  -1.5778334610224209e+00  -1.4564960283183437e+00  -1.3351585877209942e+00  -1.2138211358049404e+00  -1.0924836667732145e+00  -9.7114617291476679e-01  -8.4980864759568264e-01  -7.2847110991927899e-01  -6.0713358894557823e-01  -4.8579688016747247e-01  -3.6445731520376784e-01  -2.4315852075636313e-01  -1.2155901201396797e-01  -3.1409220809297113e-03  -9.6483072131443564e+00  -9.5256486222331009e+00  -9.4042966958373011e+00  -9.2830818547735863e+00  -9.1618629130543940e+00  -9.0405876225927884e+00  -8.9192592401499873e+00  -8.7979041225183643e+00  -8.6765306804394218e+00  -8.5551514482664253e+00  -8.4337727521895172e+00  -8.3124041146234884e+00  -8.1910465652524653e+00  -8.0696986796228174e+00  -7.9483563450240542e+00  -7.8270170418847824e+00  -7.7056789002751591e+00  -7.5843412979043956e+00  -7.4630038497129245e+00  -7.3416665034486766e+00  -7.2203291869472883e+00  -7.0989919016560155e+00  -6.9776546255766920e+00  -6.8563173582921335e+00  -6.7349800923646308e+00  -6.6136428264932530e+00  -6.4923055588835199e+00  -6.3709682883177772e+00  -6.2496310148298457e+00  -6.1282937374950590e+00  -6.0069564567315181e+00  -5.8856191719204753e+00  -5.7642818834302174e+00  -5.6429445908856808e+00  -5.5216072945278762e+00  -5.4002699941472265e+00  -5.2789326898807785e+00  -5.1575953816193811e+00  -5.0362580694340409e+00  -4.9149207532713470e+00  -4.7935834331655007e+00  -4.6722461090918506e+00  -4.5509087810658579e+00  -4.4295714490767137e+00  -4.3082341131310624e+00  -4.1868967732243538e+00  -4.0655594293592801e+00  -3.9442220815339777e+00  -3.8228847297495014e+00  -3.7015473740050853e+00  -3.5802100143010622e+00  -3.4588726506370850e+00  -3.3375352830131177e+00  -3.2161979114289272e+00  -3.0948605358842407e+00  -2.9735231563787181e+00  -2.8521857729115863e+00  -2.7308483854820587e+00  -2.6095109940880334e+00  -2.4881735987269260e+00  -2.3668361993921829e+00  -2.2454987960735160e+00  -2.1241613887469479e+00  -2.0028239773686778e+00  -1.8814865618428791e+00  -1.7601491419846163e+00  -1.6388117174126284e+00  -1.517474287404