<?xml version="1.0"?>
<VTKFile type="UnstructuredGrid"  version="0.1"  >
<UnstructuredGrid>
<Piece  NumberOfPoints="1369" NumberOfCells="2560">
<Points>
<DataArray  type="Float64"  NumberOfComponents="3"  format="ascii">0 0 0  0.75 0 0  1.5 0 0  2.25 0 0  3 0 0  3.75 0 0  4.5 0 0  5.25 0 0  6 0 0  6.75 0 0  7.5 0 0  8.25 0 0  9 0 0  9.75 0 0  10.5 0 0  11.25 0 0  12 0 0  12.75 0 0  13.5 0 0  14.25 0 0  15 0 0  15.75 0 0  16.5 0 0  17.25 0 0  18 0 0  18.75 0 0  19.5 0 0  20.25 0 0  21 0 0  21.75 0 0  22.5 0 0  23.25 0 0  24 0 0  24.75 0 0  25.5 0 0  26.25 0 0  27 0 0  27.75 0 0  28.5 0 0  29.25 0 0  30 0 0  30.75 0 0  31.5 0 0  32.25 0 0  33 0 0  33.75 0 0  34.5 0 0  35.25 0 0  36 0 0  36.75 0 0  37.5 0 0  38.25 0 0  39 0 0  39.75 0 0  40.5 0 0  41.25 0 0  42 0 0  42.75 0 0  43.5 0 0  44.25 0 0  45 0 0  45.75 0 0  46.5 0 0  47.25 0 0  48 0 0  48.75 0 0  49.5 0 0  50.25 0 0  51 0 0  51.75 0 0  52.5 0 0  53.25 0 0  54 0 0  54.75 0 0  55.5 0 0  56.25 0 0  57 0 0  57.75 0 0  58.5 0 0  59.25 0 0  60 0 0  0 0.5 0  0.75 0.5 0  1.5 0.5 0  2.25 0.5 0  3 0.5 0  3.75 0.5 0  4.5 0.5 0  5.25 0.5 0  6 0.5 0  6.75 0.5 0  7.5 0.5 0  8.25 0.5 0  9 0.5 0  9.75 0.5 0  10.5 0.5 0  11.25 0.5 0  12 0.5 0  12.75 0.5 0  13.5 0.5 0  14.25 0.5 0  15 0.5 0  15.75 0.5 0  16.5 0.5 0  17.25 0.5 0  18 0.5 0  18.75 0.5 0  19.5 0.5 0  20.25 0.5 0  21 0.5 0  21.75 0.5 0  22.5 0.5 0  23.25 0.5 0  24 0.5 0  24.75 0.5 0  25.5 0.5 0  26.25 0.5 0  27 0.5 0  27.75 0.5 0  28.5 0.5 0  29.25 0.5 0  30 0.5 0  30.75 0.5 0  31.5 0.5 0  32.25 0.5 0  33 0.5 0  33.75 0.5 0  34.5 0.5 0  35.25 0.5 0  36 0.5 0  36.75 0.5 0  37.5 0.5 0  38.25 0.5 0  39 0.5 0  39.75 0.5 0  40.5 0.5 0  41.25 0.5 0  42 0.5 0  42.75 0.5 0  43.5 0.5 0  44.25 0.5 0  45 0.5 0  45.75 0.5 0  46.5 0.5 0  47.25 0.5 0  48 0.5 0  48.75 0.5 0  49.5 0.5 0  50.25 0.5 0  51 0.5 0  51.75 0.5 0  52.5 0.5 0  53.25 0.5 0  54 0.5 0  54.75 0.5 0  55.5 0.5 0  56.25 0.5 0  57 0.5 0  57.75 0.5 0  58.5 0.5 0  59.25 0.5 0  60 0.5 0  0 1 0  0.75 1 0  1.5 1 0  2.25 1 0  3 1 0  3.75 1 0  4.5 1 0  5.25 1 0  6 1 0  6.75 1 0  7.5 1 0  8.25 1 0  9 1 0  9.75 1 0  10.5 1 0  11.25 1 0  12 1 0  12.75 1 0  13.5 1 0  14.25 1 0  15 1 0  15.75 1 0  16.5 1 0  17.25 1 0  18 1 0  18.75 1 0  19.5 1 0  20.25 1 0  21 1 0  21.75 1 0  22.5 1 0  23.25 1 0  24 1 0  24.75 1 0  25.5 1 0  26.25 1 0  27 1 0  27.75 1 0  28.5 1 0  29.25 1 0  30 1 0  30.75 1 0  31.5 1 0  32.25 1 0  33 1 0  33.75 1 0  34.5 1 0  35.25 1 0  36 1 0  36.75 1 0  37.5 1 0  38.25 1 0  39 1 0  39.75 1 0  40.5 1 0  41.25 1 0  42 1 0  42.75 1 0  43.5 1 0  44.25 1 0  45 1 0  45.75 1 0  46.5 1 0  47.25 1 0  48 1 0  48.75 1 0  49.5 1 0  50.25 1 0  51 1 0  51.75 1 0  52.5 1 0  53.25 1 0  54 1 0  54.75 1 0  55.5 1 0  56.25 1 0  57 1 0  57.75 1 0  58.5 1 0  59.25 1 0  60 1 0  0 1.5 0  0.75 1.5 0  1.5 1.5 0  2.25 1.5 0  3 1.5 0  3.75 1.5 0  4.5 1.5 0  5.25 1.5 0  6 1.5 0  6.75 1.5 0  7.5 1.5 0  8.25 1.5 0  9 1.5 0  9.75 1.5 0  10.5 1.5 0  11.25 1.5 0  12 1.5 0  12.75 1.5 0  13.5 1.5 0  14.25 1.5 0  15 1.5 0  15.75 1.5 0  16.5 1.5 0  17.25 1.5 0  18 1.5 0  18.75 1.5 0  19.5 1.5 0  20.25 1.5 0  21 1.5 0  21.75 1.5 0  22.5 1.5 0  23.25 1.5 0  24 1.5 0  24.75 1.5 0  25.5 1.5 0  26.25 1.5 0  27 1.5 0  27.75 1.5 0  28.5 1.5 0  29.25 1.5 0  30 1.5 0  30.75 1.5 0  31.5 1.5 0  32.25 1.5 0  33 1.5 0  33.75 1.5 0  34.5 1.5 0  35.25 1.5 0  36 1.5 0  36.75 1.5 0  37.5 1.5 0  38.25 1.5 0  39 1.5 0  39.75 1.5 0  40.5 1.5 0  41.25 1.5 0  42 1.5 0  42.75 1.5 0  43.5 1.5 0  44.25 1.5 0  45 1.5 0  45.75 1.5 0  46.5 1.5 0  47.25 1.5 0  48 1.5 0  48.75 1.5 0  49.5 1.5 0  50.25 1.5 0  51 1.5 0  51.75 1.5 0  52.5 1.5 0  53.25 1.5 0  54 1.5 0  54.75 1.5 0  55.5 1.5 0  56.25 1.5 0  57 1.5 0  57.75 1.5 0  58.5 1.5 0  59.25 1.5 0  60 1.5 0  0 2 0  0.75 2 0  1.5 2 0  2.25 2 0  3 2 0  3.75 2 0  4.5 2 0  5.25 2 0  6 2 0  6.75 2 0  7.5 2 0  8.25 2 0  9 2 0  9.75 2 0  10.5 2 0  11.25 2 0  12 2 0  12.75 2 0  13.5 2 0  14.25 2 0  15 2 0  15.75 2 0  16.5 2 0  17.25 2 0  18 2 0  18.75 2 0  19.5 2 0  20.25 2 0  21 2 0  21.75 2 0  22.5 2 0  23.25 2 0  24 2 0  24.75 2 0  25.5 2 0  26.25 2 0  27 2 0  27.75 2 0  28.5 2 0  29.25 2 0  30 2 0  30.75 2 0  31.5 2 0  32.25 2 0  33 2 0  33.75 2 0  34.5 2 0  35.25 2 0  36 2 0  36.75 2 0  37.5 2 0  38.25 2 0  39 2 0  39.75 2 0  40.5 2 0  41.25 2 0  42 2 0  42.75 2 0  43.5 2 0  44.25 2 0  45 2 0  45.75 2 0  46.5 2 0  47.25 2 0  48 2 0  48.75 2 0  49.5 2 0  50.25 2 0  51 2 0  51.75 2 0  52.5 2 0  53.25 2 0  54 2 0  54.75 2 0  55.5 2 0  56.25 2 0  57 2 0  57.75 2 0  58.5 2 0  59.25 2 0  60 2 0  0 2.5 0  0.75 2.5 0  1.5 2.5 0  2.25 2.5 0  3 2.5 0  3.75 2.5 0  4.5 2.5 0  5.25 2.5 0  6 2.5 0  6.75 2.5 0  7.5 2.5 0  8.25 2.5 0  9 2.5 0  9.75 2.5 0  10.5 2.5 0  11.25 2.5 0  12 2.5 0  12.75 2.5 0  13.5 2.5 0  14.25 2.5 0  15 2.5 0  15.75 2.5 0  16.5 2.5 0  17.25 2.5 0  18 2.5 0  18.75 2.5 0  19.5 2.5 0  20.25 2.5 0  21 2.5 0  21.75 2.5 0  22.5 2.5 0  23.25 2.5 0  24 2.5 0  24.75 2.5 0  25.5 2.5 0  26.25 2.5 0  27 2.5 0  27.75 2.5 0  28.5 2.5 0  29.25 2.5 0  30 2.5 0  30.75 2.5 0  31.5 2.5 0  32.25 2.5 0  33 2.5 0  33.75 2.5 0  34.5 2.5 0  35.25 2.5 0  36 2.5 0  36.75 2.5 0  37.5 2.5 0  38.25 2.5 0  39 2.5 0  39.75 2.5 0  40.5 2.5 0  41.25 2.5 0  42 2.5 0  42.75 2.5 0  43.5 2.5 0  44.25 2.5 0  45 2.5 0  45.75 2.5 0  46.5 2.5 0  47.25 2.5 0  48 2.5 0  48.75 2.5 0  49.5 2.5 0  50.25 2.5 0  51 2.5 0  51.75 2.5 0  52.5 2.5 0  53.25 2.5 0  54 2.5 0  54.75 2.5 0  55.5 2.5 0  56.25 2.5 0  57 2.5 0  57.75 2.5 0  58.5 2.5 0  59.25 2.5 0  60 2.5 0  0 3 0  0.75 3 0  1.5 3 0  2.25 3 0  3 3 0  3.75 3 0  4.5 3 0  5.25 3 0  6 3 0  6.75 3 0  7.5 3 0  8.25 3 0  9 3 0  9.75 3 0  10.5 3 0  11.25 3 0  12 3 0  12.75 3 0  13.5 3 0  14.25 3 0  15 3 0  15.75 3 0  16.5 3 0  17.25 3 0  18 3 0  18.75 3 0  19.5 3 0  20.25 3 0  21 3 0  21.75 3 0  22.5 3 0  23.25 3 0  24 3 0  24.75 3 0  25.5 3 0  26.25 3 0  27 3 0  27.75 3 0  28.5 3 0  29.25 3 0  30 3 0  30.75 3 0  31.5 3 0  32.25 3 0  33 3 0  33.75 3 0  34.5 3 0  35.25 3 0  36 3 0  36.75 3 0  37.5 3 0  38.25 3 0  39 3 0  39.75 3 0  40.5 3 0  41.25 3 0  42 3 0  42.75 3 0  43.5 3 0  44.25 3 0  45 3 0  45.75 3 0  46.5 3 0  47.25 3 0  48 3 0  48.75 3 0  49.5 3 0  50.25 3 0  51 3 0  51.75 3 0  52.5 3 0  53.25 3 0  54 3 0  54.75 3 0  55.5 3 0  56.25 3 0  57 3 0  57.75 3 0  58.5 3 0  59.25 3 0  60 3 0  0 3.5 0  0.75 3.5 0  1.5 3.5 0  2.25 3.5 0  3 3.5 0  3.75 3.5 0  4.5 3.5 0  5.25 3.5 0  6 3.5 0  6.75 3.5 0  7.5 3.5 0  8.25 3.5 0  9 3.5 0  9.75 3.5 0  10.5 3.5 0  11.25 3.5 0  12 3.5 0  12.75 3.5 0  13.5 3.5 0  14.25 3.5 0  15 3.5 0  15.75 3.5 0  16.5 3.5 0  17.25 3.5 0  18 3.5 0  18.75 3.5 0  19.5 3.5 0  20.25 3.5 0  21 3.5 0  21.75 3.5 0  22.5 3.5 0  23.25 3.5 0  24 3.5 0  24.75 3.5 0  25.5 3.5 0  26.25 3.5 0  27 3.5 0  27.75 3.5 0  28.5 3.5 0  29.25 3.5 0  30 3.5 0  30.75 3.5 0  31.5 3.5 0  32.25 3.5 0  33 3.5 0  33.75 3.5 0  34.5 3.5 0  35.25 3.5 0  36 3.5 0  36.75 3.5 0  37.5 3.5 0  38.25 3.5 0  39 3.5 0  39.75 3.5 0  40.5 3.5 0  41.25 3.5 0  42 3.5 0  42.75 3.5 0  43.5 3.5 0  44.25 3.5 0  45 3.5 0  45.75 3.5 0  46.5 3.5 0  47.25 3.5 0  48 3.5 0  48.75 3.5 0  49.5 3.5 0  50.25 3.5 0  51 3.5 0  51.75 3.5 0  52.5 3.5 0  53.25 3.5 0  54 3.5 0  54.75 3.5 0  55.5 3.5 0  56.25 3.5 0  57 3.5 0  57.75 3.5 0  58.5 3.5 0  59.25 3.5 0  60 3.5 0  0 4 0  0.75 4 0  1.5 4 0  2.25 4 0  3 4 0  3.75 4 0  4.5 4 0  5.25 4 0  6 4 0  6.75 4 0  7.5 4 0  8.25 4 0  9 4 0  9.75 4 0  10.5 4 0  11.25 4 0  12 4 0  12.75 4 0  13.5 4 0  14.25 4 0  15 4 0  15.75 4 0  16.5 4 0  17.25 4 0  18 4 0  18.75 4 0  19.5 4 0  20.25 4 0  21 4 0  21.75 4 0  22.5 4 0  23.25 4 0  24 4 0  24.75 4 0  25.5 4 0  26.25 4 0  27 4 0  27.75 4 0  28.5 4 0  29.25 4 0  30 4 0  30.75 4 0  31.5 4 0  32.25 4 0  33 4 0  33.75 4 0  34.5 4 0  35.25 4 0  36 4 0  36.75 4 0  37.5 4 0  38.25 4 0  39 4 0  39.75 4 0  40.5 4 0  41.25 4 0  42 4 0  42.75 4 0  43.5 4 0  44.25 4 0  45 4 0  45.75 4 0  46.5 4 0  47.25 4 0  48 4 0  48.75 4 0  49.5 4 0  50.25 4 0  51 4 0  51.75 4 0  52.5 4 0  53.25 4 0  54 4 0  54.75 4 0  55.5 4 0  56.25 4 0  57 4 0  57.75 4 0  58.5 4 0  59.25 4 0  60 4 0  0.375 0.25 0  1.125 0.25 0  1.875 0.25 0  2.625 0.25 0  3.375 0.25 0  4.125 0.25 0  4.875 0.25 0  5.625 0.25 0  6.375 0.25 0  7.125 0.25 0  7.875 0.25 0  8.625 0.25 0  9.375 0.25 0  10.125 0.25 0  10.875 0.25 0  11.625 0.25 0  12.375 0.25 0  13.125 0.25 0  13.875 0.25 0  14.625 0.25 0  15.375 0.25 0  16.125 0.25 0  16.875 0.25 0  17.625 0.25 0  18.375 0.25 0  19.125 0.25 0  19.875 0.25 0  20.625 0.25 0  21.375 0.25 0  22.125 0.25 0  22.875 0.25 0  23.625 0.25 0  24.375 0.25 0  25.125 0.25 0  25.875 0.25 0  26.625 0.25 0  27.375 0.25 0  28.125 0.25 0  28.875 0.25 0  29.625 0.25 0  30.375 0.25 0  31.125 0.25 0  31.875 0.25 0  32.625 0.25 0  33.375 0.25 0  34.125 0.25 0  34.875 0.25 0  35.625 0.25 0  36.375 0.25 0  37.125 0.25 0  37.875 0.25 0  38.625 0.25 0  39.375 0.25 0  40.125 0.25 0  40.875 0.25 0  41.625 0.25 0  42.375 0.25 0  43.125 0.25 0  43.875 0.25 0  44.625 0.25 0  45.375 0.25 0  46.125 0.25 0  46.875 0.25 0  47.625 0.25 0  48.375 0.25 0  49.125 0.25 0  49.875 0.25 0  50.625 0.25 0  51.375 0.25 0  52.125 0.25 0  52.875 0.25 0  53.625 0.25 0  54.375 0.25 0  55.125 0.25 0  55.875 0.25 0  56.625 0.25 0  57.375 0.25 0  58.125 0.25 0  58.875 0.25 0  59.625 0.25 0  0.375 0.75 0  1.125 0.75 0  1.875 0.75 0  2.625 0.75 0  3.375 0.75 0  4.125 0.75 0  4.875 0.75 0  5.625 0.75 0  6.375 0.75 0  7.125 0.75 0  7.875 0.75 0  8.625 0.75 0  9.375 0.75 0  10.125 0.75 0  10.875 0.75 0  11.625 0.75 0  12.375 0.75 0  13.125 0.75 0  13.875 0.75 0  14.625 0.75 0  15.375 0.75 0  16.125 0.75 0  16.875 0.75 0  17.625 0.75 0  18.375 0.75 0  19.125 0.75 0  19.875 0.75 0  20.625 0.75 0  21.375 0.75 0  22.125 0.75 0  22.875 0.75 0  23.625 0.75 0  24.375 0.75 0  25.125 0.75 0  25.875 0.75 0  26.625 0.75 0  27.375 0.75 0  28.125 0.75 0  28.875 0.75 0  29.625 0.75 0  30.375 0.75 0  31.125 0.75 0  31.875 0.75 0  32.625 0.75 0  33.375 0.75 0  34.125 0.75 0  34.875 0.75 0  35.625 0.75 0  36.375 0.75 0  37.125 0.75 0  37.875 0.75 0  38.625 0.75 0  39.375 0.75 0  40.125 0.75 0  40
[...]
<PointData  Scalars="f_8-1"> 
<DataArray  type="Float64"  Name="f_8-1"  format="ascii">-9.7058663303570434e+00  -9.5862980595314120e+00  -9.4651790098927862e+00  -9.3439172952408587e+00  -9.2225987575012383e+00  -9.1012589521376057e+00  -8.9799104247792361e+00  -8.8585584980738581e+00  -8.7372053129411587e+00  -8.6158521480205366e+00  -8.4945001752700833e+00  -8.3731502087151046e+00  -8.2518022920553875e+00  -8.1304559930126068e+00  -8.0091107682969245e+00  -7.8877661897795139e+00  -7.7664219698488930e+00  -7.6450779391856258e+00  -7.5237340027752202e+00  -7.4023901120122728e+00  -7.2810462424551643e+00  -7.1597023828513917e+00  -7.0383585278608765e+00  -6.9170146751575370e+00  -6.7956708236220118e+00  -6.6743269727589727e+00  -6.5529831223185271e+00  -6.4316392721807096e+00  -6.3102954222862415e+00  -6.1889515726016411e+00  -6.0676077231132917e+00  -5.9462638738105156e+00  -5.8249200246907469e+00  -5.7035761757501069e+00  -5.5822323269884615e+00  -5.4608884784042209e+00  -5.3395446299976603e+00  -5.2182007817680720e+00  -5.0968569337156353e+00  -4.9755130858400296e+00  -4.8541692381414050e+00  -4.7328253906196016e+00  -4.6114815432746701e+00  -4.4901376961065456e+00  -4.3687938491152698e+00  -4.2474500023007975e+00  -4.1261061556631571e+00  -4.0047623092023192e+00  -3.8834184629182871e+00  -3.7620746168110388e+00  -3.6407307708805980e+00  -3.5193869251269336e+00  -3.3980430795500287e+00  -3.2766992341497785e+00  -3.1553553889262518e+00  -3.0340115438787207e+00  -2.9126676990082698e+00  -2.7913238543094701e+00  -2.6699800097941750e+00  -2.5486361654181948e+00  -2.4272923212947224e+00  -2.3059484770528758e+00  -2.1846046337095935e+00  -2.0632607881497482e+00  -1.9419169491065256e+00  -1.8205730909427789e+00  -1.6992292853084916e+00  -1.5778853292689106e+00  -1.4565417784559418e+00  -1.3351971202088184e+00  -1.2138553467194935e+00  -1.0925061386395025e+00  -9.7117524496969299e-01  -8.4980082801529633e-01  -7.2852533178076706e-01  -6.0704073854630625e-01  -4.8599734937290245e-01  -3.6416499895412224e-01  -2.4409798203595098e-01  -1.2040114061895435e-01  -9.2793225460350182e-04  -9.7080745741824224e+00  -9.5862931752376390e+00  -9.4651483166728543e+00  -9.3438734970716393e+00  -9.2225539277005666e+00  -9.1012153018155484e+00  -8.9798680978939558e+00  -8.8585170200554622e+00  -8.7371643540548884e+00  -8.6158114714830329e+00  -8.4944594009701291e+00  -8.3731089574248756e+00  -8.2517604717452393e+00  -8.1304137375405272e+00  -8.0090682656973797e+00  -7.8877235741962703e+00  -7.7663793125840961e+00  -7.6450352691699175e+00  -7.5236913298229879e+00  -7.4023474384338170e+00  -7.2810035687356587e+00  -7.1596597089856395e+00  -7.0383158538940362e+00  -6.9169720011096540e+00  -6.7956281495292004e+00  -6.6742842986397424e+00  -6.5529404481851667e+00  -6.4315965980408638e+00  -6.3102527481421120e+00  -6.1889088984563312e+00  -6.0675650489664790e+00  -5.9462211996635901e+00  -5.8248773505431322e+00  -5.7035335016024682e+00  -5.5821896528403894e+00  -5.4608458042560608e+00  -5.3395019558491796e+00  -5.2181581076194217e+00  -5.0968142595667016e+00  -4.9754704116908988e+00  -4.8541265639920175e+00  -4.7327827164699841e+00  -4.6114388691248065e+00  -4.4900950219564413e+00  -4.3687511749649177e+00  -4.2474073281501967e+00  -4.1260634815123005e+00  -4.0047196350512078e+00  -3.8833757887669060e+00  -3.7620319426593838e+00  -3.6406880967286543e+00  -3.5193442509746831e+00  -3.3980004053974144e+00  -3.2766565599968622e+00  -3.1553127147726965e+00  -3.0339688697253462e+00  -2.9126250248524799e+00  -2.7912811801589079e+00  -2.6699373356266376e+00  -2.5485934913001174e+00  -2.4272496470358438e+00  -2.3059058032130184e+00  -2.1845619586986755e+00  -2.0632181165374366e+00  -1.9418742681065053e+00  -1.8205304362989592e+00  -1.6991865594247080e+00  -1.5778427957402936e+00  -1.4564987430413552e+00  -1.3351553750023564e+00  -1.2138104058733277e+00  -1.0924688960529683e+00  -9.7112027740011386e-01  -8.4978501016568886e-01  -7.2842764508143720e-01  -6.0710518832771765e-01  -4.8575389436064320e-01  -3.6445498991539732e-01  -2.4328287305766050e-01  -1.2123647967804417e-01  2.8063316426991193e-04  -9.7081527274647677e+00  -9.5865509890902310e+00  -9.4651830206036056e+00  -9.3438574244021577e+00  -9.2225231838493826e+00  -9.1011798777753956e+00  -8.9798308133731126e+00  -8.8584785541746509e+00  -8.7371252156779686e+00  -8.6157718074486098e+00  -8.4944187038475150e+00  -8.3730670459133805e+00  -8.2517178547777981e+00  -8.1303710040424875e+00  -8.0090257168964207e+00  -7.8876812530499079e+00  -7.7663371587248280e+00  -7.6449932116674120e+00  -7.5236493205850312e+00  -7.4023054509191430e+00  -7.2809615906003522e+00  -7.1596177347562868e+00  -7.0382738813761669e+00  -6.9169300293409410e+00  -6.7955861781237443e+00  -6.6742423274047207e+00  -6.5528984770391752e+00  -6.4315546269380164e+00  -6.3102107770625295e+00  -6.1888669273882284e+00  -6.0675230779045419e+00  -5.9461792286047963e+00  -5.8248353794858954e+00  -5.7034915305461062e+00  -5.5821476817843791e+00  -5.4608038332002540e+00  -5.3394599847933657e+00  -5.2181161365636033e+00  -5.0967722885108060e+00  -4.9754284406349623e+00  -4.8540845929359664e+00  -4.7327407454138513e+00  -4.6113968980685449e+00  -4.4900530509001104e+00  -4.3687092039084519e+00  -4.2473653570936252e+00  -4.1260215104556064e+00  -4.0046776639943831e+00  -3.8833338177099401e+00  -3.7619899716022753e+00  -3.6406461256713718e+00  -3.5193022799171954e+00  -3.3979584343397429e+00  -3.2766145889388700e+00  -3.1552707437146554e+00  -3.0339268986664027e+00  -2.9125830537953452e+00  -2.7912392090964611e+00  -2.6698953645815755e+00  -2.5485515202122451e+00  -2.4272076760883365e+00  -2.3058638319133933e+00  -2.1845199884746518e+00  -2.0631761435624849e+00  -1.9418323029816400e+00  -1.8204884512221571e+00  -1.6991446277387010e+00  -1.5778007327816241e+00  -1.4564570071877951e+00  -1.3351128832994454e+00  -1.2137696322695097e+00  -1.0924245224043547e+00  -9.7108308256246367e-01  -8.4973474479628386e-01  -7.2839859067804280e-01  -6.0704205163170688e-01  -4.8572098141706505e-01  -3.6432752995855711e-01  -2.4306212051336765e-01  -1.2124810288802819e-01  -1.7310018349387752e-04  -9.7081862836851371e+00  -9.5866607746253489e+00  -9.4652460337416837e+00  -9.3438883213699402e+00  -9.2225434084793356e+00  -9.1011972165876127e+00  -8.9798475614751574e+00  -8.8584953052717168e+00  -8.7371419766073686e+00  -8.6157885550821014e+00  -8.4944353617121564e+00  -8.3730834602531719e+00  -8.2517339621621790e+00  -8.1303868830417461e+00  -8.0090414816142079e+00  -7.8876969850813143e+00  -7.7663528939084889e+00  -7.6450089590390649e+00  -7.5236650778597740e+00  -7.4023212142229680e+00  -7.2809773568953799e+00  -7.1596335024534703e+00  -7.0382896496589114e+00  -6.9169457978892224e+00  -6.7956019467820621e+00  -6.6742580961205151e+00  -6.5529142457813112e+00  -6.4315703956963155e+00  -6.3102265458291082e+00  -6.1888826961602241e+00  -6.0675388466796267e+00  -5.9461949973818022e+00  -5.8248511482641261e+00  -5.7035072993250244e+00  -5.5821634505637663e+00  -5.4608196019798800e+00  -5.3394757535731445e+00  -5.2181319053433901e+00  -5.0967880572906141e+00  -4.9754442094146905e+00  -4.8541003617156395e+00  -4.7327565141934365e+00  -4.6114126668480484e+00  -4.4900688196794878e+00  -4.3687249726877262e+00  -4.2473811258727840e+00  -4.1260372792346605e+00  -4.0046934327733217e+00  -3.8833495864887695e+00  -3.7620057403810154e+00  -3.6406618944500315e+00  -3.5193180486957707e+00  -3.3979742031182480e+00  -3.2766303577174218e+00  -3.1552865124931277e+00  -3.0339426674454777e+00  -2.9125988225735555e+00  -2.7912549778790066e+00  -2.6699111333554604e+00  -2.5485672890176163e+00  -2.4272234448188992e+00  -2.3058796008762341e+00  -2.1845357568522683e+00  -2.0631919136062669e+00  -1.9418480688091659e+00  -1.8205042282973889e+00  -1.6991603771059540e+00  -1.5778165513979008e+00  -1.4564726637174277e+00  -1.3351289144868441e+00  -1.2137848485717708e+00  -1.0924414402683029e+00  -9.7109660033753531e-01  -8.4975444290170987e-01  -7.2840626480748327e-01  -6.0706737216687434e-01  -4.8570119902486847e-01  -3.6436384273125505e-01  -2.4291102846286192e-01  -1.2147454219762709e-01  4.4519176671717991e-05  -9.7081927438940827e+00  -9.5866967121260505e+00  -9.4652740619004980e+00  -9.3439071045453161e+00  -9.2225586823914725e+00  -9.1012117381249951e+00  -8.9798621668569094e+00  -8.8585101816282741e+00  -8.7371570510289622e+00  -8.6158037120857482e+00  -8.4944507109953449e+00  -8.3730989946281547e+00  -8.2517494881847746e+00  -8.1304022642849496e+00  -8.0090567120239520e+00  -7.8877121159388794e+00  -7.7663679743652123e+00  -7.6450240184200409e+00  -7.5236801299129965e+00  -7.4023362640870500e+00  -7.2809924062240965e+00  -7.1596485516439454e+00  -7.0383046988165905e+00  -6.9169608470285535e+00  -6.7956169959192518e+00  -6.6742731452577075e+00  -6.5529292949238078e+00  -6.4315854448432663e+00  -6.3102415949809760e+00  -6.1888977453156455e+00  -6.0675538958379196e+00  -5.9462100465421521e+00  -5.8248661974258695e+00  -5.7035223484876978e+00  -5.5821784997270125e+00  -5.4608346511434620e+00  -5.3394908027368411e+00  -5.2181469545071630e+00  -5.0968031064542840e+00  -4.9754592585782467e+00  -4.8541154108790456e+00  -4.7327715633566587e+00  -4.6114277160110602e+00  -4.4900838688422864e+00  -4.3687400218503152e+00  -4.2473961750351421e+00  -4.1260523283967805e+00  -4.0047084819352508e+00  -3.8833646356505147e+00  -3.7620207895425701e+00  -3.6406769436114335e+00  -3.5193330978571153e+00  -3.3979892522795825e+00  -3.2766454068788327e+00  -3.1553015616548730e+00  -3.0339577166075151e+00  -2.9126138717370633e+00  -2.7912700270420814e+00  -2.6699261825255234e+00  -2.5485823381769954e+00  -2.4272384940203167e+00  -2.3058946499820667e+00  -2.1845508062387240e+00  -2.0632069622912388e+00  -1.9418631193477889e+00  -1.8205192742151886e+00  -1.6991754344878323e+00  -1.5778315812568184e+00  -1.4564877579173738e+00  -1.3351438620574749e+00  -1.2138001167358488e+00  -1.0924560150095111e+00  -9.7111257629034664e-01  -8.4976745402077813e-01  -7.2842468339798316e-01  -6.0707359919469950e-01  -4.8572682309416326e-01  -3.6434517834386121e-01  -2.4294536527406149e-01  -1.2145648853157549e-01  -2.6344303696583737e-05  -9.7081862667241783e+00  -9.5866606789348747e+00  -9.4652459516612240e+00  -9.3438882756935371e+00  -9.2225433883921273e+00  -9.1011972097611462e+00  -8.9798475596457301e+00  -8.8584953049889279e+00  -8.7371419753313884e+00  -8.6157885524604598e+00  -8.4944353597262090e+00  -8.3730834590126904e+00  -8.2517339600964323e+00  -8.1303868794081424e+00  -8.0090414770207179e+00  -7.8876969805190775e+00  -7.7663528899980818e+00  -7.6450089559281880e+00  -7.5236650754300030e+00  -7.4023212122869966e+00  -7.2809773552928787e+00  -7.1596335010723653e+00  -7.0382896484266197e+00  -6.9169457967590597e+00  -6.7956019457230408e+00  -6.6742580951114210e+00  -6.5529142448071465e+00  -6.4315703947465970e+00  -6.3102265448963104e+00  -6.1888826952391414e+00  -6.0675388457665855e+00  -5.9461949964743157e+00  -5.8248511473604569e+00  -5.7035072984239275e+00  -5.5821634496644768e+00  -5.4608196010817958e+00  -5.3394757526758863e+00  -5.2181319044467322e+00  -5.0967880563943071e+00  -4.9754442085186659e+00  -4.8541003608198157e+00  -4.7327565132977290e+00  -4.6114126659524519e+00  -4.4900688187839588e+00  -4.3687249717922487e+00  -4.2473811249773830e+00  -4.1260372783393020e+00  -4.0046934318780592e+00  -3.8833495855936238e+00  -3.7620057394860220e+00  -3.6406618935552593e+00  -3.5193180478013470e+00  -3.3979742022243031e+00  -3.2766303568242039e+00  -3.1552865116009565e+00  -3.0339426665548337e+00  -2.9125988216851613e+00  -2.7912549769938724e+00  -2.6699111324750948e+00  -2.5485672881442172e+00  -2.4272234439556000e+00  -2.3058796000276693e+00  -2.1845357560249554e+00  -2.0631919128099607e+00  -1.9418480680567376e+00  -1.8205042276100509e+00  -1.6991603765062375e+00  -1.5778165509358468e+00  -1.4564726634188723e+00  -1.3351289144870537e+00  -1.2137848488411453e+00  -1.0924414412109658e+00  -9.7109660163936196e-01  -8.4975444577663772e-01  -7.2840626802329622e-01  -6.0706737903353503e-01  -4.8570120521843019e-01  -3.6436385545621319e-01  -2.4291102475632498e-01  -1.2147452491383286e-01  4.4528914417026715e-05  -9.7081526665486564e+00  -9.5865507321460921e+00  -9.4651828335255441e+00  -9.3438573261596733e+00  -9.2225231373517929e+00  -9.1011798569573248e+00  -8.9798308030539733e+00  -8.8584785473774108e+00  -8.7371252083194957e+00  -8.6157717990172014e+00  -8.4944186961112216e+00  -8.3730670387297597e+00  -8.2517178465347545e+00  -8.1303709941135605e+00  -8.0090257060738335e+00  -7.8876812424964280e+00  -7.7663371491582671e+00  -7.6449932032464440e+00  -7.5236493131442366e+00  -7.4023054442033089e+00  -7.2809615843850581e+00  -7.1596177288791036e+00  -7.0382738757283656e+00  -6.9169300238509104e+00  -6.7955861727434703e+00  -6.6742423221012510e+00  -6.5528984717894643e+00  -6.4315546217257733e+00  -6.3102107718763190e+00  -6.1888669222199759e+00  -6.0675230727486946e+00  -5.9461792234574817e+00  -5.8248353743444286e+00  -5.7034915254086478e+00  -5.5821476766496412e+00  -5.4608038280674283e+00  -5.3394599796618145e+00  -5.2181161314329305e+00  -5.0967722833807398e+00  -4.9754284355052993e+00  -4.8540845878066055e+00  -4.7327407402846955e+00  -4.6113968929395375e+00  -4.4900530457711882e+00  -4.3687091987796336e+00  -4.2473653519648620e+00  -4.1260215053269418e+00  -4.0046776588658224e+00  -3.8833338125815282e+00  -3.7619899664740517e+00  -3.6406461205434488e+00  -3.5193022747896818e+00  -3.3979584292128253e+00  -3.2766145838128313e+00  -3.1552707385899170e+00  -3.0339268935435464e+00  -2.9125830486752271e+00  -2.7912392039803753e+00  -2.6698953594713504e+00  -2.5485515151105482e+00  -2.4272076709990511e+00  -2.3058638268420126e+00  -2.1845199834294720e+00  -2.0631761385542586e+00  -1.9418322980288094e+00  -1.8204884463423801e+00  -1.6991446229794642e+00  -1.5778007281513866e+00  -1.4564570028414725e+00  -1.3351128791161999e+00  -1.2137696288269237e+00  -1.0924245189730561e+00  -9.7108308104446595e-01  -8.4973474289121320e-01  -7.2839859299186738e-01  -6.0704205363287467e-01  -4.8572099279863895e-01  -3.6432753859929373e-01  -2.4306214492882605e-01  -1.2124802764951764e-01  -1.7313479453966803e-04  -9.7080744065282758e+00  -9.5862924872703008e+00  -9.4651479926599293e+00  -9.3438733286090709e+00  -9.2225538338680089e+00  -9.1012152430577924e+00  -8.9798680544269409e+00  -8.8585169822800740e+00  -8.7371643177883787e+00  -8.6158114356670730e+00  -8.4944593656464225e+00  -8.3731089221906583e+00  -8.2517604359714909e+00  -8.1304137011437057e+00  -8.0090682292036739e+00  -7.8877235382616249e+00  -7.7663792776115121e+00  -7.6450352352375557e+00  -7.5236912967999778e+00  -7.4023474061159025e+00  -7.2810035369291066e+00  -7.1596596775379266e+00  -7.0383158226953988e+00  -6.9169719700838836e+00  -6.7956281186237844e+00  -6.6742842678183125e+00  -6.5529404174223789e+00  -6.4315965673188984e+00  -6.3102527174484875e+00  -6.1889088677823123e+00  -6.0675650183060181e+00  -5.9462211690124391e+00  -5.8248773198983770e+00  -5.7035334709621113e+00  -5.5821896222030567e+00  -5.4608457736208003e+00  -5.3395019252152984e+00  -5.2181580769865015e+00  -5.0968142289344387e+00  -4.9754703810591154e+00  -4.8541265333605264e+00  -4.7327826858387274e+00  -4.6114388384936928e+00  -4.4900949913254529e+00  -4.3687511443339888e+00  -4.2474072975193282e+00  -4.1260634508814968e+00  -4.0047196044204663e+00  -3.8833757581362303e+00  -3.7620319120288301e+00  -3.6406880660982424e+00  -3.5193442203444842e+00  -3.3980003747675220e+00  -3.2766565293674170e+00  -3.1553126841439121e+00  -3.0339688390975237e+00  -2.9126249942260509e+00  -2.7912811495345022e+00  -2.6699373050051682e+00  -2.5485934606828984e+00  -2.4272496164247288e+00  -2.3059057726108025e+00  -2.1845619281088560e+00  -2.0632180859663269e+00  -1.9418742375589366e+00  -1.8205304057931693e+00  -1.6991865289537813e+00  -1.5778427653827729e+00  -1.4564987126727134e+00  -1.3351553450468425e+00  -1.2138103754793050e+00  -1.0924688673425276e+00  -9.7112024644593076e-01  -8.4978498458855778e-01  -7.2842761441921888e-01  -6.0710516663224234e-01  -4.8575387535116693e-01  -3.6445498335262316e-01  -2.4328294763814431e-01  -1.2123631094499449e-01  2.8072322899421766e-04  -9.7058628222310919e+00  -9.5862973145895474e+00  -9.4651786412006924e+00  -9.3439170958909479e+00  -9.2225986360220826e+00  -9.1012588660251890e+00  -8.9799103535028610e+00  -8.8585584318174906e+00  -8.7372052479241766e+00  -8.6158520835774119e+00  -8.4945001113138066e+00  -8.3731501446886796e+00  -8.2518022275431111e+00  -8.1304559282432205e+00  -8.0091107039271687e+00  -7.8877661263940846e+00  -7.7664219077067429e+00  -7.6450778782405289e+00  -7.5237339428204377e+00  -7.4023900528049245e+00  -7.2810461837840288e+00  -7.1597023245554414e+00  -7.0383584698255630e+00  -6.9170146173033844e+00  -6.7956707658940712e+00  -6.6743269151190798e+00  -6.5529830647401024e+00  -6.4316392146449983e+00  -6.3102953647801563e+00  -6.1889515151160355e+00  -6.0676076656418658e+00  -5.9462638163488064e+00  -5.8249199672357026e+00  -5.7035761182996492e+00  -5.5822322695411319e+00  -5.4608884209590656e+00  -5.3395445725539386e+00  -5.2182007243253397e+00  -5.0968568762735940e+00  -4.9755130283984927e+00  -4.8541691807001621e+00  -4.7328253331785932e+00  -4.6114814858338233e+00  -4.4901376386658169e+00  -4.3687937916745758e+00  -4.2474499448601577e+00  -4.1261060982225661e+00  -4.0047622517617549e+00  -3.8834184054777316e+00  -3.7620745593705420e+00  -3.6407307134401350e+00  -3.5193868676865381e+00  -3.3980430221097024e+00  -3.2766991767095841e+00  -3.1553553314862315e+00  -3.0340114864389540e+00  -2.9126676415688655e+00  -2.7913237968705800e+00  -2.6699799523560124e+00  -2.5486361079810305e+00  -2.4272922638589742e+00  -2.3059484196190079e+00  -2.1846045762783968e+00  -2.0632607307215824e+00  -1.9419168916836946e+00  -1.8205730335219010e+00  -1.6992292279043819e+00  -1.5778852718393301e+00  -1.4565417211346412e+00  -1.3351970625988709e+00  -1.2138552900069652e+00  -1.0925060795055179e+00  -9.7117519264048069e-01  -8.4980075906285046e-01  -7.2852530351824885e-01  -6.0704062625932909e-01  -4.8599740989071749e-01  -3.6416477289881871e-01  -2.4409840030227251e-01  -1.2040044313448470e-01  -9.2850197919277686e-04  -9.6463998953152537e+00  -9.5256291825292969e+00  -9.4044359480634796e+00  -9.2831440715255127e+00  -9.1618160278299676e+00  -9.0404733011951226e+00  -8.9191242620802775e+00  -8.7977724850140255e+00  -8.6764197928946913e+00  -8.5550675008261603e+00  -8.4337165751649614e+00  -8.3123674392604308e+00  -8.1910200244808173e+00  -8.0696739787075398e+00  -7.9483288814717259e+00  -7.8269843713035590e+00  -7.7056401919787083e+00  -7.5842961847233559e+00  -7.4629522615049924e+00  -7.3416083774740954e+00  -7.2202645113103436e+00  -7.0989206533008327e+00  -6.9775767991173003e+00  -6.8562329468259504e+00  -6.7348890955385992e+00  -6.6135452448412817e+00  -6.4922013945274282e+00  -6.3708575444989517e+00  -6.2495136947016645e+00  -6.1281698451114046e+00  -6.0068259957126671e+00  -5.8854821464996387e+00  -5.7641382974675350e+00  -5.6427944486150530e+00  -5.5214505999405805e+00  -5.4001067514438930e+00  -5.2787629031244032e+00  -5.1574190549820829e+00  -5.0360752070167081e+00  -4.9147313592282726e+00  -4.7933875116167188e+00  -4.6720436641820209e+00  -4.5506998169241566e+00  -4.4293559698431233e+00  -4.3080121229389094e+00  -4.1866682762115097e+00  -4.0653244296609232e+00  -3.9439805832871491e+00  -3.8226367370901637e+00  -3.7012928910699627e+00  -3.5799490452265488e+00  -3.4586051995598872e+00  -3.3372613540699336e+00  -3.2159175087566059e+00  -3.0945736636197090e+00  -2.9732298186590227e+00  -2.8518859738735372e+00  -2.7305421292629566e+00  -2.6091982848216762e+00  -2.4878544405528888e+00  -2.3665105964214086e+00  -2.2451667524749053e+00  -2.1238229084763733e+00  -2.0024790648751019e+00  -1.8811352200513576e+00  -1.7597913775205889e+00  -1.6384475266929210e+00  -1.51710369116310