<?xml version="1.0"?>
<VTKFile type="UnstructuredGrid"  version="0.1"  >
<UnstructuredGrid>
<Piece  NumberOfPoints="1369" NumberOfCells="2560">
<Points>
<DataArray  type="Float64"  NumberOfComponents="3"  format="ascii">0 0 0  0.75 0 0  1.5 0 0  2.25 0 0  3 0 0  3.75 0 0  4.5 0 0  5.25 0 0  6 0 0  6.75 0 0  7.5 0 0  8.25 0 0  9 0 0  9.75 0 0  10.5 0 0  11.25 0 0  12 0 0  12.75 0 0  13.5 0 0  14.25 0 0  15 0 0  15.75 0 0  16.5 0 0  17.25 0 0  18 0 0  18.75 0 0  19.5 0 0  20.25 0 0  21 0 0  21.75 0 0  22.5 0 0  23.25 0 0  24 0 0  24.75 0 0  25.5 0 0  26.25 0 0  27 0 0  27.75 0 0  28.5 0 0  29.25 0 0  30 0 0  30.75 0 0  31.5 0 0  32.25 0 0  33 0 0  33.75 0 0  34.5 0 0  35.25 0 0  36 0 0  36.75 0 0  37.5 0 0  38.25 0 0  39 0 0  39.75 0 0  40.5 0 0  41.25 0 0  42 0 0  42.75 0 0  43.5 0 0  44.25 0 0  45 0 0  45.75 0 0  46.5 0 0  47.25 0 0  48 0 0  48.75 0 0  49.5 0 0  50.25 0 0  51 0 0  51.75 0 0  52.5 0 0  53.25 0 0  54 0 0  54.75 0 0  55.5 0 0  56.25 0 0  57 0 0  57.75 0 0  58.5 0 0  59.25 0 0  60 0 0  0 0.5 0  0.75 0.5 0  1.5 0.5 0  2.25 0.5 0  3 0.5 0  3.75 0.5 0  4.5 0.5 0  5.25 0.5 0  6 0.5 0  6.75 0.5 0  7.5 0.5 0  8.25 0.5 0  9 0.5 0  9.75 0.5 0  10.5 0.5 0  11.25 0.5 0  12 0.5 0  12.75 0.5 0  13.5 0.5 0  14.25 0.5 0  15 0.5 0  15.75 0.5 0  16.5 0.5 0  17.25 0.5 0  18 0.5 0  18.75 0.5 0  19.5 0.5 0  20.25 0.5 0  21 0.5 0  21.75 0.5 0  22.5 0.5 0  23.25 0.5 0  24 0.5 0  24.75 0.5 0  25.5 0.5 0  26.25 0.5 0  27 0.5 0  27.75 0.5 0  28.5 0.5 0  29.25 0.5 0  30 0.5 0  30.75 0.5 0  31.5 0.5 0  32.25 0.5 0  33 0.5 0  33.75 0.5 0  34.5 0.5 0  35.25 0.5 0  36 0.5 0  36.75 0.5 0  37.5 0.5 0  38.25 0.5 0  39 0.5 0  39.75 0.5 0  40.5 0.5 0  41.25 0.5 0  42 0.5 0  42.75 0.5 0  43.5 0.5 0  44.25 0.5 0  45 0.5 0  45.75 0.5 0  46.5 0.5 0  47.25 0.5 0  48 0.5 0  48.75 0.5 0  49.5 0.5 0  50.25 0.5 0  51 0.5 0  51.75 0.5 0  52.5 0.5 0  53.25 0.5 0  54 0.5 0  54.75 0.5 0  55.5 0.5 0  56.25 0.5 0  57 0.5 0  57.75 0.5 0  58.5 0.5 0  59.25 0.5 0  60 0.5 0  0 1 0  0.75 1 0  1.5 1 0  2.25 1 0  3 1 0  3.75 1 0  4.5 1 0  5.25 1 0  6 1 0  6.75 1 0  7.5 1 0  8.25 1 0  9 1 0  9.75 1 0  10.5 1 0  11.25 1 0  12 1 0  12.75 1 0  13.5 1 0  14.25 1 0  15 1 0  15.75 1 0  16.5 1 0  17.25 1 0  18 1 0  18.75 1 0  19.5 1 0  20.25 1 0  21 1 0  21.75 1 0  22.5 1 0  23.25 1 0  24 1 0  24.75 1 0  25.5 1 0  26.25 1 0  27 1 0  27.75 1 0  28.5 1 0  29.25 1 0  30 1 0  30.75 1 0  31.5 1 0  32.25 1 0  33 1 0  33.75 1 0  34.5 1 0  35.25 1 0  36 1 0  36.75 1 0  37.5 1 0  38.25 1 0  39 1 0  39.75 1 0  40.5 1 0  41.25 1 0  42 1 0  42.75 1 0  43.5 1 0  44.25 1 0  45 1 0  45.75 1 0  46.5 1 0  47.25 1 0  48 1 0  48.75 1 0  49.5 1 0  50.25 1 0  51 1 0  51.75 1 0  52.5 1 0  53.25 1 0  54 1 0  54.75 1 0  55.5 1 0  56.25 1 0  57 1 0  57.75 1 0  58.5 1 0  59.25 1 0  60 1 0  0 1.5 0  0.75 1.5 0  1.5 1.5 0  2.25 1.5 0  3 1.5 0  3.75 1.5 0  4.5 1.5 0  5.25 1.5 0  6 1.5 0  6.75 1.5 0  7.5 1.5 0  8.25 1.5 0  9 1.5 0  9.75 1.5 0  10.5 1.5 0  11.25 1.5 0  12 1.5 0  12.75 1.5 0  13.5 1.5 0  14.25 1.5 0  15 1.5 0  15.75 1.5 0  16.5 1.5 0  17.25 1.5 0  18 1.5 0  18.75 1.5 0  19.5 1.5 0  20.25 1.5 0  21 1.5 0  21.75 1.5 0  22.5 1.5 0  23.25 1.5 0  24 1.5 0  24.75 1.5 0  25.5 1.5 0  26.25 1.5 0  27 1.5 0  27.75 1.5 0  28.5 1.5 0  29.25 1.5 0  30 1.5 0  30.75 1.5 0  31.5 1.5 0  32.25 1.5 0  33 1.5 0  33.75 1.5 0  34.5 1.5 0  35.25 1.5 0  36 1.5 0  36.75 1.5 0  37.5 1.5 0  38.25 1.5 0  39 1.5 0  39.75 1.5 0  40.5 1.5 0  41.25 1.5 0  42 1.5 0  42.75 1.5 0  43.5 1.5 0  44.25 1.5 0  45 1.5 0  45.75 1.5 0  46.5 1.5 0  47.25 1.5 0  48 1.5 0  48.75 1.5 0  49.5 1.5 0  50.25 1.5 0  51 1.5 0  51.75 1.5 0  52.5 1.5 0  53.25 1.5 0  54 1.5 0  54.75 1.5 0  55.5 1.5 0  56.25 1.5 0  57 1.5 0  57.75 1.5 0  58.5 1.5 0  59.25 1.5 0  60 1.5 0  0 2 0  0.75 2 0  1.5 2 0  2.25 2 0  3 2 0  3.75 2 0  4.5 2 0  5.25 2 0  6 2 0  6.75 2 0  7.5 2 0  8.25 2 0  9 2 0  9.75 2 0  10.5 2 0  11.25 2 0  12 2 0  12.75 2 0  13.5 2 0  14.25 2 0  15 2 0  15.75 2 0  16.5 2 0  17.25 2 0  18 2 0  18.75 2 0  19.5 2 0  20.25 2 0  21 2 0  21.75 2 0  22.5 2 0  23.25 2 0  24 2 0  24.75 2 0  25.5 2 0  26.25 2 0  27 2 0  27.75 2 0  28.5 2 0  29.25 2 0  30 2 0  30.75 2 0  31.5 2 0  32.25 2 0  33 2 0  33.75 2 0  34.5 2 0  35.25 2 0  36 2 0  36.75 2 0  37.5 2 0  38.25 2 0  39 2 0  39.75 2 0  40.5 2 0  41.25 2 0  42 2 0  42.75 2 0  43.5 2 0  44.25 2 0  45 2 0  45.75 2 0  46.5 2 0  47.25 2 0  48 2 0  48.75 2 0  49.5 2 0  50.25 2 0  51 2 0  51.75 2 0  52.5 2 0  53.25 2 0  54 2 0  54.75 2 0  55.5 2 0  56.25 2 0  57 2 0  57.75 2 0  58.5 2 0  59.25 2 0  60 2 0  0 2.5 0  0.75 2.5 0  1.5 2.5 0  2.25 2.5 0  3 2.5 0  3.75 2.5 0  4.5 2.5 0  5.25 2.5 0  6 2.5 0  6.75 2.5 0  7.5 2.5 0  8.25 2.5 0  9 2.5 0  9.75 2.5 0  10.5 2.5 0  11.25 2.5 0  12 2.5 0  12.75 2.5 0  13.5 2.5 0  14.25 2.5 0  15 2.5 0  15.75 2.5 0  16.5 2.5 0  17.25 2.5 0  18 2.5 0  18.75 2.5 0  19.5 2.5 0  20.25 2.5 0  21 2.5 0  21.75 2.5 0  22.5 2.5 0  23.25 2.5 0  24 2.5 0  24.75 2.5 0  25.5 2.5 0  26.25 2.5 0  27 2.5 0  27.75 2.5 0  28.5 2.5 0  29.25 2.5 0  30 2.5 0  30.75 2.5 0  31.5 2.5 0  32.25 2.5 0  33 2.5 0  33.75 2.5 0  34.5 2.5 0  35.25 2.5 0  36 2.5 0  36.75 2.5 0  37.5 2.5 0  38.25 2.5 0  39 2.5 0  39.75 2.5 0  40.5 2.5 0  41.25 2.5 0  42 2.5 0  42.75 2.5 0  43.5 2.5 0  44.25 2.5 0  45 2.5 0  45.75 2.5 0  46.5 2.5 0  47.25 2.5 0  48 2.5 0  48.75 2.5 0  49.5 2.5 0  50.25 2.5 0  51 2.5 0  51.75 2.5 0  52.5 2.5 0  53.25 2.5 0  54 2.5 0  54.75 2.5 0  55.5 2.5 0  56.25 2.5 0  57 2.5 0  57.75 2.5 0  58.5 2.5 0  59.25 2.5 0  60 2.5 0  0 3 0  0.75 3 0  1.5 3 0  2.25 3 0  3 3 0  3.75 3 0  4.5 3 0  5.25 3 0  6 3 0  6.75 3 0  7.5 3 0  8.25 3 0  9 3 0  9.75 3 0  10.5 3 0  11.25 3 0  12 3 0  12.75 3 0  13.5 3 0  14.25 3 0  15 3 0  15.75 3 0  16.5 3 0  17.25 3 0  18 3 0  18.75 3 0  19.5 3 0  20.25 3 0  21 3 0  21.75 3 0  22.5 3 0  23.25 3 0  24 3 0  24.75 3 0  25.5 3 0  26.25 3 0  27 3 0  27.75 3 0  28.5 3 0  29.25 3 0  30 3 0  30.75 3 0  31.5 3 0  32.25 3 0  33 3 0  33.75 3 0  34.5 3 0  35.25 3 0  36 3 0  36.75 3 0  37.5 3 0  38.25 3 0  39 3 0  39.75 3 0  40.5 3 0  41.25 3 0  42 3 0  42.75 3 0  43.5 3 0  44.25 3 0  45 3 0  45.75 3 0  46.5 3 0  47.25 3 0  48 3 0  48.75 3 0  49.5 3 0  50.25 3 0  51 3 0  51.75 3 0  52.5 3 0  53.25 3 0  54 3 0  54.75 3 0  55.5 3 0  56.25 3 0  57 3 0  57.75 3 0  58.5 3 0  59.25 3 0  60 3 0  0 3.5 0  0.75 3.5 0  1.5 3.5 0  2.25 3.5 0  3 3.5 0  3.75 3.5 0  4.5 3.5 0  5.25 3.5 0  6 3.5 0  6.75 3.5 0  7.5 3.5 0  8.25 3.5 0  9 3.5 0  9.75 3.5 0  10.5 3.5 0  11.25 3.5 0  12 3.5 0  12.75 3.5 0  13.5 3.5 0  14.25 3.5 0  15 3.5 0  15.75 3.5 0  16.5 3.5 0  17.25 3.5 0  18 3.5 0  18.75 3.5 0  19.5 3.5 0  20.25 3.5 0  21 3.5 0  21.75 3.5 0  22.5 3.5 0  23.25 3.5 0  24 3.5 0  24.75 3.5 0  25.5 3.5 0  26.25 3.5 0  27 3.5 0  27.75 3.5 0  28.5 3.5 0  29.25 3.5 0  30 3.5 0  30.75 3.5 0  31.5 3.5 0  32.25 3.5 0  33 3.5 0  33.75 3.5 0  34.5 3.5 0  35.25 3.5 0  36 3.5 0  36.75 3.5 0  37.5 3.5 0  38.25 3.5 0  39 3.5 0  39.75 3.5 0  40.5 3.5 0  41.25 3.5 0  42 3.5 0  42.75 3.5 0  43.5 3.5 0  44.25 3.5 0  45 3.5 0  45.75 3.5 0  46.5 3.5 0  47.25 3.5 0  48 3.5 0  48.75 3.5 0  49.5 3.5 0  50.25 3.5 0  51 3.5 0  51.75 3.5 0  52.5 3.5 0  53.25 3.5 0  54 3.5 0  54.75 3.5 0  55.5 3.5 0  56.25 3.5 0  57 3.5 0  57.75 3.5 0  58.5 3.5 0  59.25 3.5 0  60 3.5 0  0 4 0  0.75 4 0  1.5 4 0  2.25 4 0  3 4 0  3.75 4 0  4.5 4 0  5.25 4 0  6 4 0  6.75 4 0  7.5 4 0  8.25 4 0  9 4 0  9.75 4 0  10.5 4 0  11.25 4 0  12 4 0  12.75 4 0  13.5 4 0  14.25 4 0  15 4 0  15.75 4 0  16.5 4 0  17.25 4 0  18 4 0  18.75 4 0  19.5 4 0  20.25 4 0  21 4 0  21.75 4 0  22.5 4 0  23.25 4 0  24 4 0  24.75 4 0  25.5 4 0  26.25 4 0  27 4 0  27.75 4 0  28.5 4 0  29.25 4 0  30 4 0  30.75 4 0  31.5 4 0  32.25 4 0  33 4 0  33.75 4 0  34.5 4 0  35.25 4 0  36 4 0  36.75 4 0  37.5 4 0  38.25 4 0  39 4 0  39.75 4 0  40.5 4 0  41.25 4 0  42 4 0  42.75 4 0  43.5 4 0  44.25 4 0  45 4 0  45.75 4 0  46.5 4 0  47.25 4 0  48 4 0  48.75 4 0  49.5 4 0  50.25 4 0  51 4 0  51.75 4 0  52.5 4 0  53.25 4 0  54 4 0  54.75 4 0  55.5 4 0  56.25 4 0  57 4 0  57.75 4 0  58.5 4 0  59.25 4 0  60 4 0  0.375 0.25 0  1.125 0.25 0  1.875 0.25 0  2.625 0.25 0  3.375 0.25 0  4.125 0.25 0  4.875 0.25 0  5.625 0.25 0  6.375 0.25 0  7.125 0.25 0  7.875 0.25 0  8.625 0.25 0  9.375 0.25 0  10.125 0.25 0  10.875 0.25 0  11.625 0.25 0  12.375 0.25 0  13.125 0.25 0  13.875 0.25 0  14.625 0.25 0  15.375 0.25 0  16.125 0.25 0  16.875 0.25 0  17.625 0.25 0  18.375 0.25 0  19.125 0.25 0  19.875 0.25 0  20.625 0.25 0  21.375 0.25 0  22.125 0.25 0  22.875 0.25 0  23.625 0.25 0  24.375 0.25 0  25.125 0.25 0  25.875 0.25 0  26.625 0.25 0  27.375 0.25 0  28.125 0.25 0  28.875 0.25 0  29.625 0.25 0  30.375 0.25 0  31.125 0.25 0  31.875 0.25 0  32.625 0.25 0  33.375 0.25 0  34.125 0.25 0  34.875 0.25 0  35.625 0.25 0  36.375 0.25 0  37.125 0.25 0  37.875 0.25 0  38.625 0.25 0  39.375 0.25 0  40.125 0.25 0  40.875 0.25 0  41.625 0.25 0  42.375 0.25 0  43.125 0.25 0  43.875 0.25 0  44.625 0.25 0  45.375 0.25 0  46.125 0.25 0  46.875 0.25 0  47.625 0.25 0  48.375 0.25 0  49.125 0.25 0  49.875 0.25 0  50.625 0.25 0  51.375 0.25 0  52.125 0.25 0  52.875 0.25 0  53.625 0.25 0  54.375 0.25 0  55.125 0.25 0  55.875 0.25 0  56.625 0.25 0  57.375 0.25 0  58.125 0.25 0  58.875 0.25 0  59.625 0.25 0  0.375 0.75 0  1.125 0.75 0  1.875 0.75 0  2.625 0.75 0  3.375 0.75 0  4.125 0.75 0  4.875 0.75 0  5.625 0.75 0  6.375 0.75 0  7.125 0.75 0  7.875 0.75 0  8.625 0.75 0  9.375 0.75 0  10.125 0.75 0  10.875 0.75 0  11.625 0.75 0  12.375 0.75 0  13.125 0.75 0  13.875 0.75 0  14.625 0.75 0  15.375 0.75 0  16.125 0.75 0  16.875 0.75 0  17.625 0.75 0  18.375 0.75 0  19.125 0.75 0  19.875 0.75 0  20.625 0.75 0  21.375 0.75 0  22.125 0.75 0  22.875 0.75 0  23.625 0.75 0  24.375 0.75 0  25.125 0.75 0  25.875 0.75 0  26.625 0.75 0  27.375 0.75 0  28.125 0.75 0  28.875 0.75 0  29.625 0.75 0  30.375 0.75 0  31.125 0.75 0  31.875 0.75 0  32.625 0.75 0  33.375 0.75 0  34.125 0.75 0  34.875 0.75 0  35.625 0.75 0  36.375 0.75 0  37.125 0.75 0  37.875 0.75 0  38.625 0.75 0  39.375 0.75 0  40.125 0.75 0  40
[...]
<PointData  Scalars="f_8-1"> 
<DataArray  type="Float64"  Name="f_8-1"  format="ascii">3.7089803909407459e+00  3.6612907283763696e+00  3.6145568211177723e+00  3.5682080374229148e+00  3.5217364338754598e+00  3.4755308268838343e+00  3.4291576905830321e+00  3.3828969222329213e+00  3.3365201810544254e+00  3.2902108868407063e+00  3.2438514959173474e+00  3.1975257903790215e+00  3.1511789415671303e+00  3.1048453867090244e+00  3.0585039471958453e+00  3.0121670706347374e+00  2.9658276094240938e+00  2.9194895632237858e+00  2.8731507459502845e+00  2.8268123350428578e+00  2.7804737086691382e+00  2.7341351923067250e+00  2.6877966183092519e+00  2.6414580726413579e+00  2.5951195118850872e+00  2.5487809579997163e+00  2.5024424000829195e+00  2.4561038436081319e+00  2.4097652859055110e+00  2.3634267283159480e+00  2.3170881702002166e+00  2.2707496118835588e+00  2.2244110532166026e+00  2.1780724942781249e+00  2.1317339350342439e+00  2.0853953755044525e+00  2.0390568156815898e+00  1.9927182555707510e+00  1.9463796951707506e+00  1.9000411344831285e+00  1.8537025735079202e+00  1.8073640122457892e+00  1.7610254506970673e+00  1.7146868888622688e+00  1.6683483267418211e+00  1.6220097643361859e+00  1.5756712016457122e+00  1.5293326386707806e+00  1.4829940754118145e+00  1.4366555118691617e+00  1.3903169480431314e+00  1.3439783839337096e+00  1.2976398195412289e+00  1.2513012548652906e+00  1.2049626899066985e+00  1.1586241246642479e+00  1.1122855591393692e+00  1.0659469933282011e+00  1.0196084272315058e+00  9.7326986083688927e-01  9.2693129413680053e-01  8.8059272709036829e-01  8.3425415965511973e-01  7.8791559171941572e-01  7.4157702322982066e-01  6.9523845433477227e-01  6.4889988666899623e-01  6.0256132668969287e-01  5.5622279562308408e-01  5.0988434941664840e-01  4.6354611232393261e-01  4.1720830904315753e-01  3.7087124976564112e-01  3.2453512242918453e-01  2.7819948670947869e-01  2.3186313724877083e-01  1.8552540085210797e-01  1.3918689547086416e-01  9.2847316817822934e-02  4.6508896908179442e-02  -1.6053192368334113e-04  3.7080835685569546e+00  3.6616059622094439e+00  3.6146334602121795e+00  3.5682738754300742e+00  3.5218078792803076e+00  3.4755150137335820e+00  3.4291987561218273e+00  3.3828809673818445e+00  3.3365503541593275e+00  3.2902081810149459e+00  3.2438725936129398e+00  3.1975312022016293e+00  3.1511946015239949e+00  3.1048546805407597e+00  3.0585171464635854e+00  3.0121779548909151e+00  2.9658398566009425e+00  2.9195010314111820e+00  2.8731626588631798e+00  2.8268240012817909e+00  2.7804855122651242e+00  2.7341469216989491e+00  2.6878083881897075e+00  2.6414698211782892e+00  2.5951312718893291e+00  2.5487927121034253e+00  2.5024541573270676e+00  2.4561155992781654e+00  2.4097770424125335e+00  2.3634384844168741e+00  2.3170999265199219e+00  2.2707613681022529e+00  2.2244228094922249e+00  2.1780842505301479e+00  2.1317456913018233e+00  2.0854071317677314e+00  2.0390685719502035e+00  1.9927300118399864e+00  1.9463914514430363e+00  1.9000528907574494e+00  1.8537143297849654e+00  1.8073757685253757e+00  1.7610372069793867e+00  1.7146986451472463e+00  1.6683600830294516e+00  1.6220215206263437e+00  1.5756829579382567e+00  1.5293443949655157e+00  1.4830058317084998e+00  1.4366672681675257e+00  1.3903287043429735e+00  1.3439901402347316e+00  1.2976515758433476e+00  1.2513130111681880e+00  1.2049744462104517e+00  1.1586358809685346e+00  1.1122973154445683e+00  1.0659587496341087e+00  1.0196201835388252e+00  9.7328161714548411e-01  9.2694305044556424e-01  8.8060448339503861e-01  8.3426591593266652e-01  7.8792734791394781e-01  7.4158877913724075e-01  6.9525020941036786e-01  6.4891163922167971e-01  6.0257307220505330e-01  5.5623452225634240e-01  5.0989603048604204e-01  4.6355769402945390e-01  4.1721970327578478e-01  3.7088234779320761e-01  3.2454588043752264e-01  2.7821005069355942e-01  2.3187379932676835e-01  1.8553635288117273e-01  1.3919835960794844e-01  9.2860638304472068e-02  4.6507433586551870e-02  4.9010450036669904e-05  3.7080846703766128e+00  3.6616620741252368e+00  3.6147966524022412e+00  3.5684095134395553e+00  3.5218996569683951e+00  3.4755866980861496e+00  3.4292251375359837e+00  3.3829176944471349e+00  3.3365711433962404e+00  3.2902437742468220e+00  3.2438994049661662e+00  3.1975655838969774e+00  3.1512240666118108e+00  3.1048878073632578e+00  3.0585477998497423e+00  3.0122103466015515e+00  2.9658711068910342e+00  2.9195330442211169e+00  2.8731941950364503e+00  2.8268558396371031e+00  2.7805171709126708e+00  2.7341786890621722e+00  2.6878400937378930e+00  2.6415015627373184e+00  2.5951629937749172e+00  2.5488244451383042e+00  2.5024858844929425e+00  2.4561473297148786e+00  2.4098087711912206e+00  2.3634702141157038e+00  2.3171316557720223e+00  2.2707930976051776e+00  2.2244545388798560e+00  2.1781159799846654e+00  2.1317774207279871e+00  2.0854388612118058e+00  2.0391003013881082e+00  1.9927617412833298e+00  1.9464231808860151e+00  1.9000846202031239e+00  1.8537460592321600e+00  1.8074074979751207e+00  1.7610689364316592e+00  1.7147303746025275e+00  1.6683918124878698e+00  1.6220532500880724e+00  1.5757146874033663e+00  1.5293761244340232e+00  1.4830375611802868e+00  1.4366989976423772e+00  1.3903604338204785e+00  1.3440218697146467e+00  1.2976833053250831e+00  1.2513447406518059e+00  1.2050061756952490e+00  1.1586676104556239e+00  1.1123290449342338e+00  1.0659904791326689e+00  1.0196519130564092e+00  9.7331334671649949e-01  9.2697478014222601e-01  8.8063621340198495e-01  8.3429764666235307e-01  7.8795908032219919e-01  7.4162051533074747e-01  6.9528195395519998e-01  6.4894340152124386e-01  6.0260487032281163e-01  5.5626638706015397e-01  5.0992800493248058e-01  4.6358981660943754e-01  4.1725195462412173e-01  3.7091453460794827e-01  3.2457747605018650e-01  2.7824023554038380e-01  2.3190175840338248e-01  1.8556067784453592e-01  1.3921492041423325e-01  9.2858728217821679e-02  4.6473162843714722e-02  7.0584876264918450e-06  3.7082169840492969e+00  3.6615609239102223e+00  3.6149911771552525e+00  3.5684053719718229e+00  3.5220150567448352e+00  3.4755842279731968e+00  3.4292755534353638e+00  3.3829132927982037e+00  3.3366006318374102e+00  3.2902498862223371e+00  3.2439232792140316e+00  3.1975781124722222e+00  3.1512447801309880e+00  3.1049031385432677e+00  3.0585668337049583e+00  3.0122269503957106e+00  2.9658893288920365e+00  2.9195502346600901e+00  2.8732120467849289e+00  2.8268732863017334e+00  2.7805348667661489e+00  2.7341962384030380e+00  2.6878577298000943e+00  2.6415191497197479e+00  2.5951806088775120e+00  2.5488420448688860e+00  2.5025034928103733e+00  2.4561649334870532e+00  2.4098263774582414e+00  2.3634878191032445e+00  2.3171492614555871e+00  2.2708107029434625e+00  2.2244721444059805e+00  2.1781335854209458e+00  2.1317950262137013e+00  2.0854564666751250e+00  2.0391179068645440e+00  1.9927793467549335e+00  1.9464407863618234e+00  1.9001022256789570e+00  1.8537636647105054e+00  1.8074251034552500e+00  1.7610865419144748e+00  1.7147479800880687e+00  1.6684094179765050e+00  1.6220708555799095e+00  1.5757322928985156e+00  1.5293937299324867e+00  1.4830551666819598e+00  1.4367166031470346e+00  1.3903780393277572e+00  1.3440394752242042e+00  1.2977009108364619e+00  1.2513623461647565e+00  1.2050237812093878e+00  1.1586852159713230e+00  1.1123466504523092e+00  1.0660080846575706e+00  1.0196695185982185e+00  9.7333095230367028e-01  9.2699238584017707e-01  8.8065381937053977e-01  8.3431525326476408e-01  7.8797668838811907e-01  7.4163812667661189e-01  6.9529957246502561e-01  6.4896103507146730e-01  6.0262253383000952e-01  5.5628410572191134e-01  5.0994581410103768e-01  4.6360774946406264e-01  4.1727000290937777e-01  3.7093256115543194e-01  3.2459507797439030e-01  2.7825672528360740e-01  2.3191636860364717e-01  1.8557212724409969e-01  1.3921997350021709e-01  9.2851671390292947e-02  4.6452037251219332e-02  5.1627091709584793e-06  3.7081923316149412e+00  3.6615909030275198e+00  3.6149624811675016e+00  3.5684723669204059e+00  3.5219788535256646e+00  3.4756298875391973e+00  3.4292443621587130e+00  3.3829346787931196e+00  3.3365804221709756e+00  3.2902595497656817e+00  3.2439120429918091e+00  3.1975815915543673e+00  3.1512383776538084e+00  3.1049033888303068e+00  3.0585627322090021e+00  3.0122256786944259e+00  2.9658862558914234e+00  2.9195482980985910e+00  2.8732094081841049e+00  2.8268710770220129e+00  2.7805324005975351e+00  2.7341939243963065e+00  2.6878553276016910e+00  2.6415167981838521e+00  2.5951782288494472e+00  2.5488396807602460e+00  2.5025011199911789e+00  2.4561625654183832e+00  2.4098240068530825e+00  2.3634854498531892e+00  2.3171468914973077e+00  2.2708083333569609e+00  2.2244697746288051e+00  2.1781312157426060e+00  2.1317926564858993e+00  2.0854540969733559e+00  2.0391155371509351e+00  1.9927769770488324e+00  1.9464384166539936e+00  1.9000998559744138e+00  1.8537612950072064e+00  1.8074227337545856e+00  1.7610841722160600e+00  1.7147456103923038e+00  1.6684070482833273e+00  1.6220684858893952e+00  1.5757299232105688e+00  1.5293913602469609e+00  1.4830527969986476e+00  1.4367142334656680e+00  1.3903756696480811e+00  1.3440371055459577e+00  1.2976985411593638e+00  1.2513599764885135e+00  1.2050214115337678e+00  1.1586828462961776e+00  1.1123442807780426e+00  1.0660057149853366e+00  1.0196671489319893e+00  9.7332858265233979e-01  9.2699001622687460e-01  8.8065144984669774e-01  8.3431288395189884e-01  7.8797431955136554e-01  7.4163575890140765e-01  6.9529720696041164e-01  6.4895867423387699e-01  6.0262018187877620e-01  5.5628176901299831e-01  5.0994349945917294e-01  4.6360545805332581e-01  4.1726771364815113e-01  3.7093020502306939e-01  3.2459254105691704e-01  2.7825389488712476e-01  2.3191304150491243e-01  1.8556781212774637e-01  1.3921370751273740e-01  9.2842128600361326e-02  4.6440019122399874e-02  1.1541369073689508e-05  3.7082169715603164e+00  3.6615609520763956e+00  3.6149911768415106e+00  3.5684053692533060e+00  3.5220150453903338e+00  3.4755842222511411e+00  3.4292755500738008e+00  3.3829132943606104e+00  3.3366006347289034e+00  3.2902498897016210e+00  3.2439232824061697e+00  3.1975781152002765e+00  3.1512447825535030e+00  3.1049031405352290e+00  3.0585668355265314e+00  3.0122269519381937e+00  2.9658893303509379e+00  2.9195502359630732e+00  2.8732120480466166e+00  2.8268732874833722e+00  2.7805348679235200e+00  2.7341962395202839e+00  2.6878577309012281e+00  2.6415191508001872e+00  2.5951806099468908e+00  2.5488420459266132e+00  2.5025034938602531e+00  2.4561649345295833e+00  2.4098263784950964e+00  2.3634878201351173e+00  2.3171492624834475e+00  2.2708107039680616e+00  2.2244721454281695e+00  2.1781335864415574e+00  2.1317950272335531e+00  2.0854564676950451e+00  2.0391179078853163e+00  1.9927793477773252e+00  1.9464407873866061e+00  1.9001022267068415e+00  1.8537636657421639e+00  1.8074251044912337e+00  1.7610865429551870e+00  1.7147479811337925e+00  1.6684094190274166e+00  1.6220708566360462e+00  1.5757322939597693e+00  1.5293937309985499e+00  1.4830551677524231e+00  1.4367166042213724e+00  1.3903780404054635e+00  1.3440394763047370e+00  1.2977009119192235e+00  1.2513623472490778e+00  1.2050237822945320e+00  1.1586852170565063e+00  1.1123466515367333e+00  1.0660080857404453e+00  1.0196695196786896e+00  9.7333095338082309e-01  9.2699238691302754e-01  8.8065382043820750e-01  8.3431525432699560e-01  7.8797668944652832e-01  7.4163812773783711e-01  6.9529957354786476e-01  6.4896103622206958e-01  6.0262253514917730e-01  5.5628410740227940e-01  5.0994581645084258e-01  4.6360775286653316e-01  4.1727000769382666e-01  3.7093256754976084e-01  3.2459508656790481e-01  2.7825673794654393e-01  2.3191638831866465e-01  1.8557215712139438e-01  1.3922001761434658e-01  9.2851731051268954e-02  4.6452094919168255e-02  5.1720736248085895e-06  3.7080847151063141e+00  3.6616621072743221e+00  3.6147966816844379e+00  3.5684094797365677e+00  3.5218996364616237e+00  3.4755866715275978e+00  3.4292251386488983e+00  3.3829176974895883e+00  3.3365711545665309e+00  3.2902437825891657e+00  3.2438994135402930e+00  3.1975655903780531e+00  3.1512240722520830e+00  3.1048878119569641e+00  3.0585478037399381e+00  3.0122103500412951e+00  2.9658711098818498e+00  2.9195330470124494e+00  2.8731941975793234e+00  2.8268558420798642e+00  2.7805171732291782e+00  2.7341786913222204e+00  2.6878400959339963e+00  2.6415015648984506e+00  2.5951629959011053e+00  2.5488244472412247e+00  2.5024858865744428e+00  2.4561473317799543e+00  2.4098087732416773e+00  2.3634702161540395e+00  2.3171316577997683e+00  2.2707930996239818e+00  2.2244545408911915e+00  2.1781159819901381e+00  2.1317774227292561e+00  2.0854388632106420e+00  2.0391003033862409e+00  1.9927617432825255e+00  1.9464231828880088e+00  1.9000846222096093e+00  1.8537460612447640e+00  1.8074074999953469e+00  1.7610689384608249e+00  1.7147303766416535e+00  1.6683918145377215e+00  1.6220532521490989e+00  1.5757146894756855e+00  1.5293761265173993e+00  1.4830375632741182e+00  1.4366989997457096e+00  1.3903604359321156e+00  1.3440218718332513e+00  1.2976833074491638e+00  1.2513447427797237e+00  1.2050061778251222e+00  1.1586676125852367e+00  1.1123290470609757e+00  1.0659904812534819e+00  1.0196519151676324e+00  9.7331334881368869e-01  9.2697478221988727e-01  8.8063621545340764e-01  8.3429764867984624e-01  7.8795908229846978e-01  7.4162051726322198e-01  6.9528195585677288e-01  6.4894340344420809e-01  6.0260487240492677e-01  5.5626638959813057e-01  5.0992800846782582e-01  4.6358982197456056e-01  4.1725196288609612e-01  3.7091454697630111e-01  3.2457749409585662e-01  2.7824026205140273e-01  2.3190179842040187e-01  1.8556073926791497e-01  1.3921501424940635e-01  9.2858864789483561e-02  4.6473322115860687e-02  7.0728347549148463e-06  3.7080834526055368e+00  3.6616061729331157e+00  3.6146334019284092e+00  3.5682738573606163e+00  3.5218077973265376e+00  3.4755149789706934e+00  3.4291987454761159e+00  3.3828809722503212e+00  3.3365503641570879e+00  3.2902081878921079e+00  3.2438725993241939e+00  3.1975312046261108e+00  3.1511946026348268e+00  3.1048546796813778e+00  3.0585171448365647e+00  3.0121779522413048e+00  2.9658398535237245e+00  2.9195010278253690e+00  2.8731626550357223e+00  2.8268239972061440e+00  2.7804855080557123e+00  2.7341469173667541e+00  2.6878083837815265e+00  2.6414698167042108e+00  2.5951312673686568e+00  2.5487927075430852e+00  2.5024541527357331e+00  2.4561155946602264e+00  2.4097770377723569e+00  2.3634384797573151e+00  2.3170999218436767e+00  2.2707613634114381e+00  2.2244228047890506e+00  2.1780842458168692e+00  2.1317456865809929e+00  2.0854071270419920e+00  2.0390685672222602e+00  1.9927300071125220e+00  1.9463914467187851e+00  1.9000528860390224e+00  1.8537143250749377e+00  1.8073757638262038e+00  1.7610372022932639e+00  1.7146986404759690e+00  1.6683600783743084e+00  1.6220215159882039e+00  1.5756829533174688e+00  1.5293443903618980e+00  1.4830058271212994e+00  1.4366672635952999e+00  1.3903286997838784e+00  1.3439901356866126e+00  1.2976515713038907e+00  1.2513130066348435e+00  1.2049744416802848e+00  1.1586358764380036e+00  1.1122973109093768e+00  1.0659587450890904e+00  1.0196201789777444e+00  9.7328161256068246e-01  9.2694304582740128e-01  8.8060447873133230e-01  8.3426591120841276e-01  7.8792734311236345e-01  7.4158877424405512e-01  6.9525020442583740e-01  6.4891163418951869e-01  6.0257306727343263e-01  5.5623451778837130e-01  5.0989602721894189e-01  4.6355769322533147e-01  4.1721970672619468e-01  3.7088235758289267e-01  3.2454589877968609e-01  2.7821008079358628e-01  2.3187384779014208e-01  1.8553643194076772e-01  1.3919848767001783e-01  9.2860842037833027e-02  4.6507741905609599e-02  4.9142939939858238e-05  3.7089798820830824e+00  3.6612911443917904e+00  3.6145566100950655e+00  3.5682080971980228e+00  3.5217362842643061e+00  3.4755308291034424e+00  3.4291576580975995e+00  3.3828969430586526e+00  3.3365201820588171e+00  3.2902108995799617e+00  3.2438514967529222e+00  3.1975257940216029e+00  3.1511789395738279e+00  3.1048453849346096e+00  3.0585039431251335e+00  3.0121670662123101e+00  2.9658276040690499e+00  2.9194895575407309e+00  2.8731507398583198e+00  2.8268123287435789e+00  2.7804737021772072e+00  2.7341351856961715e+00  2.6877966115991589e+00  2.6414580658611175e+00  2.5951195050469535e+00  2.5487809511167798e+00  2.5024423931624802e+00  2.4561038366568120e+00  2.4097652789278268e+00  2.3634267213158169e+00  2.3170881631808551e+00  2.2707496048479094e+00  2.2244110461675430e+00  2.1780724872186936e+00  2.1317339279677694e+00  2.0853953684342796e+00  2.0390568086111611e+00  1.9927182485033950e+00  1.9463796881098119e+00  1.9000411274317399e+00  1.8537025664691367e+00  1.8073640052224018e+00  1.7610254436914832e+00  1.7146868818763881e+00  1.6683483197768996e+00  1.6220097573929420e+00  1.5756711947242183e+00  1.5293326317705218e+00  1.4829940685315453e+00  1.4366555050069718e+00  1.3903169411966789e+00  1.3439783771004106e+00  1.2976398127183830e+00  1.2513012480500147e+00  1.2049626830957936e+00  1.1586241178540428e+00  1.1122855523256148e+00  1.0659469865060898e+00  1.0196084203955276e+00  9.7326985398063148e-01  9.2693128725259211e-01  8.8059272016902435e-01  8.3425415268622838e-01  7.8791558469336687e-01  7.4157701614377558e-01  6.9523844720783112e-01  6.4889987957650053e-01  6.0256131983217409e-01  5.5622278944399883e-01  5.0988434475640632e-01  4.6354611053278622e-01  4.1720831190524460e-01  3.7087125919183639e-01  3.2453514035770586e-01  2.7819951619712041e-01  2.3186318493999655e-01  1.8552547881610715e-01  1.3918702180009890e-01  9.2847518943859036e-02  4.6509206616090287e-02  -1.6000761772123675e-04  3.6850533587282506e+00  3.6380938974043566e+00  3.5915059210049534e+00  3.5450681013733432e+00  3.4987243377530701e+00  3.4524250491149884e+00  3.4061122790291534e+00  3.3597905047869832e+00  3.3134508337543664e+00  3.2671142367870356e+00  3.2207737307163122e+00  3.1744359879147934e+00  3.1280968106819724e+00  3.0817586712189144e+00  3.0354198997685198e+00  2.9890815176673340e+00  2.9427428800677538e+00  2.8964043904517696e+00  2.8500658056210337e+00  2.8037272736982595e+00  2.7573887086681905e+00  2.7110501609332860e+00  2.6647116022723640e+00  2.6183730486877073e+00  2.5720344915408950e+00  2.5256959356228634e+00  2.4793573784432730e+00  2.4330188213708484e+00  2.3866802637243580e+00  2.3403417058817344e+00  2.2940031476657898e+00  2.2476645891788793e+00  2.2013260303774405e+00  2.1549874712890986e+00  2.1086489119039951e+00  2.0623103522299013e+00  2.0159717922650198e+00  1.9696332320117536e+00  1.9232946714700709e+00  1.8769561106408623e+00  1.8306175495244181e+00  1.7842789881212202e+00  1.7379404264316547e+00  1.6916018644561890e+00  1.6452633021952157e+00  1.5989247396491229e+00  1.5525861768182623e+00  1.5062476137030139e+00  1.4599090503037484e+00  1.4135704866208563e+00  1.3672319226544114e+00  1.3208933584047253e+00  1.2745547938715887e+00  1.2282162290554570e+00  1.1818776639558088e+00  1.1355390985730411e+00  1.0892005329052910e+00  1.0428619669504793e+00  9.9652340070056789e-01  9.5018483413913668e-01  9.0384626722999284e-01  8.5750769989103648e-01  8.1116913197192664e-01  7.6483056316467835e-01  7.1849199305977984e-01  6.7215342131358891e-01  6.2581484940370058e-01  5.7947628540294871e-01  5.3313775787558459e-01  4.8679934110481260e-01  4.4046119529513383e-01  3.9412358993522140e-01  3.4778683534229421e-01  3.0145094481721701e-01  2.5511522533089542e-01  2.0877877377187887e-01  1.6244191369242725e-01  1.1610603407531907e-01  6.9772438398110467e-02  2.3421832429005317e-02  3.6847290915266981e+00  3.6382058952029177e+00  3.5916016632489023e+00  3.5450892847236015e+00  3.4987568414609020e+00  3.4523899812041199e+00  3.4060917609741992e+00  3.3597503439551710e+00  3.3134226917756182e+00  3.2670804367772335e+00  3.2207442619418218e+00  3.1744044244622436e+00  3.1280667159521194e+00  3.0817277380012764e+00  3.0353895461071159e+00  2.9890508102318867e+00  2.9427124152685802e+00  2.8963737794550388e+00  2.8500352913112246e+00  2.8036967034820384e+00  2.7573581738320