<?xml version="1.0"?>
<VTKFile type="UnstructuredGrid"  version="0.1"  >
<UnstructuredGrid>
<Piece  NumberOfPoints="1369" NumberOfCells="2560">
<Points>
<DataArray  type="Float64"  NumberOfComponents="3"  format="ascii">0 0 0  0.75 0 0  1.5 0 0  2.25 0 0  3 0 0  3.75 0 0  4.5 0 0  5.25 0 0  6 0 0  6.75 0 0  7.5 0 0  8.25 0 0  9 0 0  9.75 0 0  10.5 0 0  11.25 0 0  12 0 0  12.75 0 0  13.5 0 0  14.25 0 0  15 0 0  15.75 0 0  16.5 0 0  17.25 0 0  18 0 0  18.75 0 0  19.5 0 0  20.25 0 0  21 0 0  21.75 0 0  22.5 0 0  23.25 0 0  24 0 0  24.75 0 0  25.5 0 0  26.25 0 0  27 0 0  27.75 0 0  28.5 0 0  29.25 0 0  30 0 0  30.75 0 0  31.5 0 0  32.25 0 0  33 0 0  33.75 0 0  34.5 0 0  35.25 0 0  36 0 0  36.75 0 0  37.5 0 0  38.25 0 0  39 0 0  39.75 0 0  40.5 0 0  41.25 0 0  42 0 0  42.75 0 0  43.5 0 0  44.25 0 0  45 0 0  45.75 0 0  46.5 0 0  47.25 0 0  48 0 0  48.75 0 0  49.5 0 0  50.25 0 0  51 0 0  51.75 0 0  52.5 0 0  53.25 0 0  54 0 0  54.75 0 0  55.5 0 0  56.25 0 0  57 0 0  57.75 0 0  58.5 0 0  59.25 0 0  60 0 0  0 0.5 0  0.75 0.5 0  1.5 0.5 0  2.25 0.5 0  3 0.5 0  3.75 0.5 0  4.5 0.5 0  5.25 0.5 0  6 0.5 0  6.75 0.5 0  7.5 0.5 0  8.25 0.5 0  9 0.5 0  9.75 0.5 0  10.5 0.5 0  11.25 0.5 0  12 0.5 0  12.75 0.5 0  13.5 0.5 0  14.25 0.5 0  15 0.5 0  15.75 0.5 0  16.5 0.5 0  17.25 0.5 0  18 0.5 0  18.75 0.5 0  19.5 0.5 0  20.25 0.5 0  21 0.5 0  21.75 0.5 0  22.5 0.5 0  23.25 0.5 0  24 0.5 0  24.75 0.5 0  25.5 0.5 0  26.25 0.5 0  27 0.5 0  27.75 0.5 0  28.5 0.5 0  29.25 0.5 0  30 0.5 0  30.75 0.5 0  31.5 0.5 0  32.25 0.5 0  33 0.5 0  33.75 0.5 0  34.5 0.5 0  35.25 0.5 0  36 0.5 0  36.75 0.5 0  37.5 0.5 0  38.25 0.5 0  39 0.5 0  39.75 0.5 0  40.5 0.5 0  41.25 0.5 0  42 0.5 0  42.75 0.5 0  43.5 0.5 0  44.25 0.5 0  45 0.5 0  45.75 0.5 0  46.5 0.5 0  47.25 0.5 0  48 0.5 0  48.75 0.5 0  49.5 0.5 0  50.25 0.5 0  51 0.5 0  51.75 0.5 0  52.5 0.5 0  53.25 0.5 0  54 0.5 0  54.75 0.5 0  55.5 0.5 0  56.25 0.5 0  57 0.5 0  57.75 0.5 0  58.5 0.5 0  59.25 0.5 0  60 0.5 0  0 1 0  0.75 1 0  1.5 1 0  2.25 1 0  3 1 0  3.75 1 0  4.5 1 0  5.25 1 0  6 1 0  6.75 1 0  7.5 1 0  8.25 1 0  9 1 0  9.75 1 0  10.5 1 0  11.25 1 0  12 1 0  12.75 1 0  13.5 1 0  14.25 1 0  15 1 0  15.75 1 0  16.5 1 0  17.25 1 0  18 1 0  18.75 1 0  19.5 1 0  20.25 1 0  21 1 0  21.75 1 0  22.5 1 0  23.25 1 0  24 1 0  24.75 1 0  25.5 1 0  26.25 1 0  27 1 0  27.75 1 0  28.5 1 0  29.25 1 0  30 1 0  30.75 1 0  31.5 1 0  32.25 1 0  33 1 0  33.75 1 0  34.5 1 0  35.25 1 0  36 1 0  36.75 1 0  37.5 1 0  38.25 1 0  39 1 0  39.75 1 0  40.5 1 0  41.25 1 0  42 1 0  42.75 1 0  43.5 1 0  44.25 1 0  45 1 0  45.75 1 0  46.5 1 0  47.25 1 0  48 1 0  48.75 1 0  49.5 1 0  50.25 1 0  51 1 0  51.75 1 0  52.5 1 0  53.25 1 0  54 1 0  54.75 1 0  55.5 1 0  56.25 1 0  57 1 0  57.75 1 0  58.5 1 0  59.25 1 0  60 1 0  0 1.5 0  0.75 1.5 0  1.5 1.5 0  2.25 1.5 0  3 1.5 0  3.75 1.5 0  4.5 1.5 0  5.25 1.5 0  6 1.5 0  6.75 1.5 0  7.5 1.5 0  8.25 1.5 0  9 1.5 0  9.75 1.5 0  10.5 1.5 0  11.25 1.5 0  12 1.5 0  12.75 1.5 0  13.5 1.5 0  14.25 1.5 0  15 1.5 0  15.75 1.5 0  16.5 1.5 0  17.25 1.5 0  18 1.5 0  18.75 1.5 0  19.5 1.5 0  20.25 1.5 0  21 1.5 0  21.75 1.5 0  22.5 1.5 0  23.25 1.5 0  24 1.5 0  24.75 1.5 0  25.5 1.5 0  26.25 1.5 0  27 1.5 0  27.75 1.5 0  28.5 1.5 0  29.25 1.5 0  30 1.5 0  30.75 1.5 0  31.5 1.5 0  32.25 1.5 0  33 1.5 0  33.75 1.5 0  34.5 1.5 0  35.25 1.5 0  36 1.5 0  36.75 1.5 0  37.5 1.5 0  38.25 1.5 0  39 1.5 0  39.75 1.5 0  40.5 1.5 0  41.25 1.5 0  42 1.5 0  42.75 1.5 0  43.5 1.5 0  44.25 1.5 0  45 1.5 0  45.75 1.5 0  46.5 1.5 0  47.25 1.5 0  48 1.5 0  48.75 1.5 0  49.5 1.5 0  50.25 1.5 0  51 1.5 0  51.75 1.5 0  52.5 1.5 0  53.25 1.5 0  54 1.5 0  54.75 1.5 0  55.5 1.5 0  56.25 1.5 0  57 1.5 0  57.75 1.5 0  58.5 1.5 0  59.25 1.5 0  60 1.5 0  0 2 0  0.75 2 0  1.5 2 0  2.25 2 0  3 2 0  3.75 2 0  4.5 2 0  5.25 2 0  6 2 0  6.75 2 0  7.5 2 0  8.25 2 0  9 2 0  9.75 2 0  10.5 2 0  11.25 2 0  12 2 0  12.75 2 0  13.5 2 0  14.25 2 0  15 2 0  15.75 2 0  16.5 2 0  17.25 2 0  18 2 0  18.75 2 0  19.5 2 0  20.25 2 0  21 2 0  21.75 2 0  22.5 2 0  23.25 2 0  24 2 0  24.75 2 0  25.5 2 0  26.25 2 0  27 2 0  27.75 2 0  28.5 2 0  29.25 2 0  30 2 0  30.75 2 0  31.5 2 0  32.25 2 0  33 2 0  33.75 2 0  34.5 2 0  35.25 2 0  36 2 0  36.75 2 0  37.5 2 0  38.25 2 0  39 2 0  39.75 2 0  40.5 2 0  41.25 2 0  42 2 0  42.75 2 0  43.5 2 0  44.25 2 0  45 2 0  45.75 2 0  46.5 2 0  47.25 2 0  48 2 0  48.75 2 0  49.5 2 0  50.25 2 0  51 2 0  51.75 2 0  52.5 2 0  53.25 2 0  54 2 0  54.75 2 0  55.5 2 0  56.25 2 0  57 2 0  57.75 2 0  58.5 2 0  59.25 2 0  60 2 0  0 2.5 0  0.75 2.5 0  1.5 2.5 0  2.25 2.5 0  3 2.5 0  3.75 2.5 0  4.5 2.5 0  5.25 2.5 0  6 2.5 0  6.75 2.5 0  7.5 2.5 0  8.25 2.5 0  9 2.5 0  9.75 2.5 0  10.5 2.5 0  11.25 2.5 0  12 2.5 0  12.75 2.5 0  13.5 2.5 0  14.25 2.5 0  15 2.5 0  15.75 2.5 0  16.5 2.5 0  17.25 2.5 0  18 2.5 0  18.75 2.5 0  19.5 2.5 0  20.25 2.5 0  21 2.5 0  21.75 2.5 0  22.5 2.5 0  23.25 2.5 0  24 2.5 0  24.75 2.5 0  25.5 2.5 0  26.25 2.5 0  27 2.5 0  27.75 2.5 0  28.5 2.5 0  29.25 2.5 0  30 2.5 0  30.75 2.5 0  31.5 2.5 0  32.25 2.5 0  33 2.5 0  33.75 2.5 0  34.5 2.5 0  35.25 2.5 0  36 2.5 0  36.75 2.5 0  37.5 2.5 0  38.25 2.5 0  39 2.5 0  39.75 2.5 0  40.5 2.5 0  41.25 2.5 0  42 2.5 0  42.75 2.5 0  43.5 2.5 0  44.25 2.5 0  45 2.5 0  45.75 2.5 0  46.5 2.5 0  47.25 2.5 0  48 2.5 0  48.75 2.5 0  49.5 2.5 0  50.25 2.5 0  51 2.5 0  51.75 2.5 0  52.5 2.5 0  53.25 2.5 0  54 2.5 0  54.75 2.5 0  55.5 2.5 0  56.25 2.5 0  57 2.5 0  57.75 2.5 0  58.5 2.5 0  59.25 2.5 0  60 2.5 0  0 3 0  0.75 3 0  1.5 3 0  2.25 3 0  3 3 0  3.75 3 0  4.5 3 0  5.25 3 0  6 3 0  6.75 3 0  7.5 3 0  8.25 3 0  9 3 0  9.75 3 0  10.5 3 0  11.25 3 0  12 3 0  12.75 3 0  13.5 3 0  14.25 3 0  15 3 0  15.75 3 0  16.5 3 0  17.25 3 0  18 3 0  18.75 3 0  19.5 3 0  20.25 3 0  21 3 0  21.75 3 0  22.5 3 0  23.25 3 0  24 3 0  24.75 3 0  25.5 3 0  26.25 3 0  27 3 0  27.75 3 0  28.5 3 0  29.25 3 0  30 3 0  30.75 3 0  31.5 3 0  32.25 3 0  33 3 0  33.75 3 0  34.5 3 0  35.25 3 0  36 3 0  36.75 3 0  37.5 3 0  38.25 3 0  39 3 0  39.75 3 0  40.5 3 0  41.25 3 0  42 3 0  42.75 3 0  43.5 3 0  44.25 3 0  45 3 0  45.75 3 0  46.5 3 0  47.25 3 0  48 3 0  48.75 3 0  49.5 3 0  50.25 3 0  51 3 0  51.75 3 0  52.5 3 0  53.25 3 0  54 3 0  54.75 3 0  55.5 3 0  56.25 3 0  57 3 0  57.75 3 0  58.5 3 0  59.25 3 0  60 3 0  0 3.5 0  0.75 3.5 0  1.5 3.5 0  2.25 3.5 0  3 3.5 0  3.75 3.5 0  4.5 3.5 0  5.25 3.5 0  6 3.5 0  6.75 3.5 0  7.5 3.5 0  8.25 3.5 0  9 3.5 0  9.75 3.5 0  10.5 3.5 0  11.25 3.5 0  12 3.5 0  12.75 3.5 0  13.5 3.5 0  14.25 3.5 0  15 3.5 0  15.75 3.5 0  16.5 3.5 0  17.25 3.5 0  18 3.5 0  18.75 3.5 0  19.5 3.5 0  20.25 3.5 0  21 3.5 0  21.75 3.5 0  22.5 3.5 0  23.25 3.5 0  24 3.5 0  24.75 3.5 0  25.5 3.5 0  26.25 3.5 0  27 3.5 0  27.75 3.5 0  28.5 3.5 0  29.25 3.5 0  30 3.5 0  30.75 3.5 0  31.5 3.5 0  32.25 3.5 0  33 3.5 0  33.75 3.5 0  34.5 3.5 0  35.25 3.5 0  36 3.5 0  36.75 3.5 0  37.5 3.5 0  38.25 3.5 0  39 3.5 0  39.75 3.5 0  40.5 3.5 0  41.25 3.5 0  42 3.5 0  42.75 3.5 0  43.5 3.5 0  44.25 3.5 0  45 3.5 0  45.75 3.5 0  46.5 3.5 0  47.25 3.5 0  48 3.5 0  48.75 3.5 0  49.5 3.5 0  50.25 3.5 0  51 3.5 0  51.75 3.5 0  52.5 3.5 0  53.25 3.5 0  54 3.5 0  54.75 3.5 0  55.5 3.5 0  56.25 3.5 0  57 3.5 0  57.75 3.5 0  58.5 3.5 0  59.25 3.5 0  60 3.5 0  0 4 0  0.75 4 0  1.5 4 0  2.25 4 0  3 4 0  3.75 4 0  4.5 4 0  5.25 4 0  6 4 0  6.75 4 0  7.5 4 0  8.25 4 0  9 4 0  9.75 4 0  10.5 4 0  11.25 4 0  12 4 0  12.75 4 0  13.5 4 0  14.25 4 0  15 4 0  15.75 4 0  16.5 4 0  17.25 4 0  18 4 0  18.75 4 0  19.5 4 0  20.25 4 0  21 4 0  21.75 4 0  22.5 4 0  23.25 4 0  24 4 0  24.75 4 0  25.5 4 0  26.25 4 0  27 4 0  27.75 4 0  28.5 4 0  29.25 4 0  30 4 0  30.75 4 0  31.5 4 0  32.25 4 0  33 4 0  33.75 4 0  34.5 4 0  35.25 4 0  36 4 0  36.75 4 0  37.5 4 0  38.25 4 0  39 4 0  39.75 4 0  40.5 4 0  41.25 4 0  42 4 0  42.75 4 0  43.5 4 0  44.25 4 0  45 4 0  45.75 4 0  46.5 4 0  47.25 4 0  48 4 0  48.75 4 0  49.5 4 0  50.25 4 0  51 4 0  51.75 4 0  52.5 4 0  53.25 4 0  54 4 0  54.75 4 0  55.5 4 0  56.25 4 0  57 4 0  57.75 4 0  58.5 4 0  59.25 4 0  60 4 0  0.375 0.25 0  1.125 0.25 0  1.875 0.25 0  2.625 0.25 0  3.375 0.25 0  4.125 0.25 0  4.875 0.25 0  5.625 0.25 0  6.375 0.25 0  7.125 0.25 0  7.875 0.25 0  8.625 0.25 0  9.375 0.25 0  10.125 0.25 0  10.875 0.25 0  11.625 0.25 0  12.375 0.25 0  13.125 0.25 0  13.875 0.25 0  14.625 0.25 0  15.375 0.25 0  16.125 0.25 0  16.875 0.25 0  17.625 0.25 0  18.375 0.25 0  19.125 0.25 0  19.875 0.25 0  20.625 0.25 0  21.375 0.25 0  22.125 0.25 0  22.875 0.25 0  23.625 0.25 0  24.375 0.25 0  25.125 0.25 0  25.875 0.25 0  26.625 0.25 0  27.375 0.25 0  28.125 0.25 0  28.875 0.25 0  29.625 0.25 0  30.375 0.25 0  31.125 0.25 0  31.875 0.25 0  32.625 0.25 0  33.375 0.25 0  34.125 0.25 0  34.875 0.25 0  35.625 0.25 0  36.375 0.25 0  37.125 0.25 0  37.875 0.25 0  38.625 0.25 0  39.375 0.25 0  40.125 0.25 0  40.875 0.25 0  41.625 0.25 0  42.375 0.25 0  43.125 0.25 0  43.875 0.25 0  44.625 0.25 0  45.375 0.25 0  46.125 0.25 0  46.875 0.25 0  47.625 0.25 0  48.375 0.25 0  49.125 0.25 0  49.875 0.25 0  50.625 0.25 0  51.375 0.25 0  52.125 0.25 0  52.875 0.25 0  53.625 0.25 0  54.375 0.25 0  55.125 0.25 0  55.875 0.25 0  56.625 0.25 0  57.375 0.25 0  58.125 0.25 0  58.875 0.25 0  59.625 0.25 0  0.375 0.75 0  1.125 0.75 0  1.875 0.75 0  2.625 0.75 0  3.375 0.75 0  4.125 0.75 0  4.875 0.75 0  5.625 0.75 0  6.375 0.75 0  7.125 0.75 0  7.875 0.75 0  8.625 0.75 0  9.375 0.75 0  10.125 0.75 0  10.875 0.75 0  11.625 0.75 0  12.375 0.75 0  13.125 0.75 0  13.875 0.75 0  14.625 0.75 0  15.375 0.75 0  16.125 0.75 0  16.875 0.75 0  17.625 0.75 0  18.375 0.75 0  19.125 0.75 0  19.875 0.75 0  20.625 0.75 0  21.375 0.75 0  22.125 0.75 0  22.875 0.75 0  23.625 0.75 0  24.375 0.75 0  25.125 0.75 0  25.875 0.75 0  26.625 0.75 0  27.375 0.75 0  28.125 0.75 0  28.875 0.75 0  29.625 0.75 0  30.375 0.75 0  31.125 0.75 0  31.875 0.75 0  32.625 0.75 0  33.375 0.75 0  34.125 0.75 0  34.875 0.75 0  35.625 0.75 0  36.375 0.75 0  37.125 0.75 0  37.875 0.75 0  38.625 0.75 0  39.375 0.75 0  40.125 0.75 0  40
[...]
<PointData  Scalars="f_8-1"> 
<DataArray  type="Float64"  Name="f_8-1"  format="ascii">-1.0689738035662671e+01  -1.0558243352852143e+01  -1.0424907372154749e+01  -1.0291527675579498e+01  -1.0158096222450352e+01  -1.0024586436103181e+01  -9.8909886291766185e+00  -9.7573182868939075e+00  -9.6236000743108985e+00  -9.4898605850072588e+00  -9.3561179459729580e+00  -9.2223837477660116e+00  -9.0886622528923748e+00  -8.9549536908464038e+00  -8.8212551191828013e+00  -8.6875642086017280e+00  -8.5538785275372682e+00  -8.4201953169434844e+00  -8.2865119734727699e+00  -8.1528278164355026e+00  -8.0191435963489770e+00  -7.8854602307047905e+00  -7.7517778471810921e+00  -7.6180963979369425e+00  -7.4844165667952423e+00  -7.3507401995331678e+00  -7.2170697152211334e+00  -7.0834071410599000e+00  -6.9497532933765065e+00  -6.8161075658833541e+00  -6.6824682217265394e+00  -6.5488329763665911e+00  -6.4151995483932005e+00  -6.2815660372588598e+00  -6.1479310728323995e+00  -6.0142938064156333e+00  -5.8806538123849617e+00  -5.7470109731346497e+00  -5.6133653758485398e+00  -5.4797172353679819e+00  -5.3460668373691549e+00  -5.2124144983054048e+00  -5.0787605360826760e+00  -4.9451052501690738e+00  -4.8114489089901671e+00  -4.6777917440022385e+00  -4.5441339486299128e+00  -4.4104756807150096e+00  -4.2768170667133285e+00  -4.1431582064916199e+00  -4.0094991778233577e+00  -3.8758400402655746e+00  -3.7421808383520094e+00  -3.6085216042634372e+00  -3.4748623601409512e+00  -3.3412031201684629e+00  -3.2075438924668642e+00  -3.0738846807817293e+00  -2.9402254859247456e+00  -2.8065663069323468e+00  -2.6729071419353483e+00  -2.5392479887572330e+00  -2.4055888452881891e+00  -2.2719297096729436e+00  -2.1382705804220139e+00  -2.0046114562578525e+00  -1.8709523367084664e+00  -1.7372932194119117e+00  -1.6036341107946890e+00  -1.4699749828331528e+00  -1.3363159430675509e+00  -1.2026565794534110e+00  -1.0689984167346609e+00  -9.3533600954444018e-01  -8.0168801331595596e-01  -6.6799406763970148e-01  -5.3443797702840612e-01  -4.0050468063506628e-01  -2.6754591926470783e-01  -1.3242677924472079e-01  -1.4027659475337986e-03  -1.0691961624694446e+01  -1.0558188364380122e+01  -1.0424840713967088e+01  -1.0291444518538656e+01  -1.0158018492603118e+01  -1.0024519600994845e+01  -9.8909316172215789e+00  -9.7572676038019370e+00  -9.6235522152032527e+00  -9.4898129968076042e+00  -9.3560698475337656e+00  -9.2223343506447542e+00  -9.0886116779307109e+00  -8.9549025107728433e+00  -8.8212035138887614e+00  -8.6875120820360117e+00  -8.5538262958394036e+00  -8.4201434296616284e+00  -8.2864604517466027e+00  -8.1527763344055568e+00  -8.0190919974526089e+00  -7.8854086207940304e+00  -7.7517263781316093e+00  -7.6180449805904260e+00  -7.4843648593314409e+00  -7.3506877712210095e+00  -7.2170162676793028e+00  -7.0833526117544832e+00  -6.9496978444678073e+00  -6.8160514845454943e+00  -6.6824118167292150e+00  -6.5487765020537143e+00  -6.4151431776475878e+00  -6.2815098651035690e+00  -6.1478751382087307e+00  -6.0142381134688829e+00  -5.8805983473800172e+00  -5.7469557136992693e+00  -5.6133102962682191e+00  -5.4796623088989076e+00  -5.3460120379930185e+00  -5.2123598017693347e+00  -5.0787059208457404e+00  -4.9450506978008457e+00  -4.8113944043068093e+00  -4.6777372747942279e+00  -4.5440795052694396e+00  -4.4104212556597426e+00  -4.2767626540937851e+00  -4.1431038017680635e+00  -4.0094447775575492e+00  -3.8757856419446619e+00  -3.7421264402529002e+00  -3.6084672053146458e+00  -3.4748079597855313e+00  -3.3411487182229300e+00  -3.2074894889933945e+00  -3.0738302759790233e+00  -2.9401710800469081e+00  -2.8065119002339274e+00  -2.6728527346405175e+00  -2.5391935810469231e+00  -2.4055344372962204e+00  -2.2718753015011659e+00  -2.1382161721033266e+00  -2.0045570479482913e+00  -1.8708979279255160e+00  -1.7372388121682893e+00  -1.6035796969830758e+00  -1.4699205939748345e+00  -1.3362614577685981e+00  -1.2026024473742540e+00  -1.0689430127484709e+00  -9.3528492492288751e-01  -8.0162279886536147e-01  -6.6797152006160265e-01  -5.3429423405547638e-01  -4.0066820881000381e-01  -2.6696674722648034e-01  -1.3330149326552285e-01  3.9184982568049874e-04  -1.0692086784524614e+01  -1.0558296909142717e+01  -1.0424820302463877e+01  -1.0291410092256431e+01  -1.0157992165399939e+01  -1.0024501351605824e+01  -9.8909182279859120e+00  -9.7572538630806225e+00  -9.6235366460109990e+00  -9.4897940828038099e+00  -9.3560491009566711e+00  -9.2223122666108246e+00  -9.0885885401578594e+00  -8.9548797952143815e+00  -8.8211813657451064e+00  -8.6874897802195505e+00  -8.5538042947552828e+00  -8.4201224134728765e+00  -8.2864401069780111e+00  -8.1527557933857633e+00  -8.0190709483990670e+00  -7.8853874124401031e+00  -7.7517053823929665e+00  -7.6180240553057335e+00  -7.4843434174184447e+00  -7.3506651908497362e+00  -7.2169922670718769e+00  -7.0833273452337178e+00  -6.9496717695594654e+00  -6.8160251366560214e+00  -6.6823856334334328e+00  -6.5487507442447912e+00  -6.4151179395066880e+00  -6.2814851264027363e+00  -6.1478508224562116e+00  -6.0142141290119069e+00  -5.8805746092400986e+00  -5.7469321508301521e+00  -5.6132868521497770e+00  -5.4796389398141985e+00  -5.3459887112919260e+00  -5.2123364942145827e+00  -5.0786826170179991e+00  -4.9450273883841298e+00  -4.8113710844042368e+00  -4.6777139423953757e+00  -4.5440561600320430e+00  -4.4103978980599354e+00  -4.2767392849379879e+00  -4.1430804219859123e+00  -4.0094213881616163e+00  -3.8757622440535360e+00  -3.7421030350985500e+00  -3.6084437942087568e+00  -3.4747845440451992e+00  -3.3411252990842271e+00  -3.2074660675350337e+00  -3.0738068530760581e+00  -2.9401476563569116e+00  -2.8064884762122797e+00  -2.6728293105734933e+00  -2.5391701570924901e+00  -2.4055110135247086e+00  -2.2718518779246071e+00  -2.1381927487192804e+00  -2.0045336246811800e+00  -1.8708745049471573e+00  -1.7372153886700881e+00  -1.6035562760218862e+00  -1.4698971639912033e+00  -1.3362380613509068e+00  -1.2025789345087368e+00  -1.0689198908751714e+00  -9.3526057876053603e-01  -8.0160202663003277e-01  -6.6794136792085990e-01  -5.3428579811810617e-01  -4.0061973608215207e-01  -2.6696937948429411e-01  -1.3338604733716278e-01  1.2868704903569593e-05  -1.0692079571589263e+01  -1.0558396977932286e+01  -1.0424882892931231e+01  -1.0291446818553842e+01  -1.0158007798316239e+01  -1.0024510186296272e+01  -9.8909290966512167e+00  -9.7572714509994540e+00  -9.6235619816495106e+00  -9.4898254148816541e+00  -9.3560838736739509e+00  -9.2223492600499100e+00  -9.0886258418209280e+00  -8.9549164567902295e+00  -8.8212178950243558e+00  -8.6875258646837157e+00  -8.5538395387310135e+00  -8.4201570903189893e+00  -8.2864748982981595e+00  -8.1527909268101784e+00  -8.0191062156643103e+00  -7.8854225564788143e+00  -7.7517404703843873e+00  -7.6180593948315716e+00  -7.4843792979495847e+00  -7.3507016281416391e+00  -7.2170289743010390e+00  -7.0833638596289559e+00  -6.9497076587318212e+00  -6.8160601444380982e+00  -6.6824197329488335e+00  -6.5487840921514833e+00  -6.4151507875931815e+00  -6.2815177302889662e+00  -6.1478833837340483e+00  -6.0142467736134542e+00  -5.8806073960014613e+00  -5.7469650925990177e+00  -5.6133199382584085e+00  -5.4796721517468665e+00  -5.3460220311061493e+00  -5.2123699069513734e+00  -5.0787161103496370e+00  -4.9450609513593529e+00  -4.8114047066678403e+00  -4.6777476139671945e+00  -4.5440898715467730e+00  -4.4104316410755970e+00  -4.2767730521625529e+00  -4.1431142073245546e+00  -4.0094551866485482e+00  -3.8757960517180208e+00  -3.7421368488288143e+00  -3.6084776116283543e+00  -3.4748183634071630e+00  -3.3411591191721342e+00  -3.2074998875660672e+00  -3.0738406726048844e+00  -2.9401814751842714e+00  -2.8065222943043744e+00  -2.6728631279959303e+00  -2.5392039739615599e+00  -2.4055448299742808e+00  -2.2718856940884424e+00  -2.1382265647188410e+00  -2.0045674406404417e+00  -1.8709083209339459e+00  -1.7372492049517130e+00  -1.6035900921295982e+00  -1.4699309823713334e+00  -1.3362718744546203e+00  -1.2026127719406607e+00  -1.0689536663419101e+00  -9.3529460616976057e-01  -8.0163554908940404e-01  -6.6797705107138450e-01  -5.3431945803208392e-01  -4.0066844280432085e-01  -2.6704293312062249e-01  -1.3351093736969194e-01  1.4664228324969311e-05  -1.0692070024978136e+01  -1.0558428047990164e+01  -1.0424902564152530e+01  -1.0291448929467586e+01  -1.0157999520566856e+01  -1.0024496335729049e+01  -9.8909166477489272e+00  -9.7572638267743557e+00  -9.6235592265012144e+00  -9.4898271476552232e+00  -9.3560878769715128e+00  -9.2223541909954818e+00  -9.0886312427510489e+00  -8.9549212076932481e+00  -8.8212216916420250e+00  -8.6875295646631745e+00  -8.5538429448519739e+00  -8.4201597312832650e+00  -8.2864770918954385e+00  -8.1527935766137229e+00  -8.0191096026019597e+00  -7.8854262461474098e+00  -7.7517439436627580e+00  -7.6180626949738759e+00  -7.4843829375709623e+00  -7.3507061355389940e+00  -7.2170344498505754e+00  -7.0833699140158313e+00  -6.9497136281761538e+00  -6.8160654247706463e+00  -6.6824239993932277e+00  -6.5487873533945224e+00  -6.4151532864870431e+00  -6.2815197959996194e+00  -6.1478853039462731e+00  -6.0142487343967437e+00  -5.8806094789427625e+00  -5.7469673079787267e+00  -5.6133222629286115e+00  -5.4796745577312702e+00  -5.3460244984381076e+00  -5.2123724258070414e+00  -5.0787186772071218e+00  -4.9450635647455812e+00  -4.8114073641895541e+00  -4.6777503114730026e+00  -4.5440926034484370e+00  -4.4104344012647703e+00  -4.2767758347648988e+00  -4.1431170071898746e+00  -4.0094579994863970e+00  -3.8757988740680127e+00  -3.7421396779311733e+00  -3.6084804453100565e+00  -3.4748211999824141e+00  -3.3411619573761837e+00  -3.2075027264942286e+00  -3.0738435116571341e+00  -2.9401843140043495e+00  -2.8065251327206031e+00  -2.6728659659653173e+00  -2.5392068115235347e+00  -2.4055476672154876e+00  -2.2718885311195489e+00  -2.1382294016622376e+00  -2.0045702776240617e+00  -1.8709111580998845e+00  -1.7372520424334745e+00  -1.6035929301673133e+00  -1.4699338209459218e+00  -1.3362747147852392e+00  -1.2026156120921070e+00  -1.0689565192344888e+00  -9.3529745564385647e-01  -8.0163853883699165e-01  -6.6798015231590668e-01  -5.3432412523347794e-01  -4.0067720948097169e-01  -2.6706543646787811e-01  -1.3351414659812449e-01  -4.6518905254086169e-06  -1.0692079547910376e+01  -1.0558397036015933e+01  -1.0424882626628156e+01  -1.0291446080403150e+01  -1.0158006784978998e+01  -1.0024509169924183e+01  -9.8909283423649761e+00  -9.7572710680980990e+00  -9.6235617967093905e+00  -9.4898253624673519e+00  -9.3560839401342477e+00  -9.2223488481293199e+00  -9.0886256663800662e+00  -8.9549160990780816e+00  -8.8212169438326669e+00  -8.6875251977030299e+00  -8.5538393050729127e+00  -8.4201564912651623e+00  -8.2864739329761470e+00  -8.1527905297693017e+00  -8.0191068716379910e+00  -7.8854237038746469e+00  -7.7517412640999650e+00  -7.6180596397770781e+00  -7.4843795784360641e+00  -7.3507027221015218e+00  -7.2170312052011614e+00  -7.0833668753937848e+00  -6.9497106796814094e+00  -6.8160624119196189e+00  -6.6824208538636851e+00  -6.5487841266629720e+00  -6.4151501112831966e+00  -6.2815168053809538e+00  -6.1478825713657113e+00  -6.0142462520565285e+00  -5.8806071775341842e+00  -5.7469650922418447e+00  -5.6133200458910730e+00  -5.4796722793255173e+00  -5.3460221295843198e+00  -5.2123699617101478e+00  -5.0787161276163424e+00  -4.9450609450081311e+00  -4.8114046897087057e+00  -4.6777475950354432e+00  -4.5440898547761099e+00  -4.4104316274732840e+00  -4.2767730411667770e+00  -4.1431141979291377e+00  -4.0094551779881007e+00  -3.8757960432504066e+00  -3.7421368403020310e+00  -3.6084776029759706e+00  -3.4748183546508091e+00  -3.3411591103586828e+00  -3.2074998787380409e+00  -3.0738406637928235e+00  -2.9401814664099000e+00  -2.8065222855869232e+00  -2.6728631193586132e+00  -2.5392039654368666e+00  -2.4055448216089816e+00  -2.2718856859490457e+00  -2.1382265568981360e+00  -2.0045674332655397e+00  -1.8709083141758802e+00  -1.7372491990359979e+00  -1.6035900873460960e+00  -1.4699309790808139e+00  -1.3362718730851386e+00  -1.2026127729685534e+00  -1.0689536702269802e+00  -9.3529461326807672e-01  -8.0163555936238884e-01  -6.6797706395030909e-01  -5.3431947123044898e-01  -4.0066845198574874e-01  -2.6704293385639150e-01  -1.3351094212472617e-01  1.4687652226979038e-05  -1.0692086946857287e+01  -1.0558296990224159e+01  -1.0424819827608903e+01  -1.0291408852240908e+01  -1.0157990441874505e+01  -1.0024499687558727e+01  -9.8909169564482831e+00  -9.7572532285347986e+00  -9.6235363134161123e+00  -9.4897941214772743e+00  -9.3560490399959466e+00  -9.2223118826234920e+00  -9.0885882989266520e+00  -8.9548790939042888e+00  -8.8211801631653444e+00  -8.6874889899383003e+00  -8.5538038137558612e+00  -8.4201214635003439e+00  -8.2864389800693932e+00  -8.1527556154831942e+00  -8.0190721045439890e+00  -7.8853890971793072e+00  -7.7517066303120457e+00  -7.6180247929829976e+00  -7.4843444788791889e+00  -7.3506675104441479e+00  -7.2169960873534054e+00  -7.0833320206227999e+00  -6.9496761660379898e+00  -6.8160282472016274e+00  -6.6823870109545656e+00  -6.5487505731457745e+00  -6.4151168119703721e+00  -6.2814837159544012e+00  -6.1478496312668707e+00  -6.0142133885094999e+00  -5.8805743160416704e+00  -5.7469321697752953e+00  -5.6132870192975801e+00  -5.4796391277688068e+00  -5.3459888510492615e+00  -5.2123365669223771e+00  -5.0786826335838358e+00  -4.9450273701751186e+00  -4.8113710509824061e+00  -4.6777139065749749e+00  -4.5440561278442768e+00  -4.4103978708703782e+00  -4.2767392617941429e+00  -4.1430804013023224e+00  -4.0094213685925242e+00  -3.8757622247606669e+00  -3.7421030156948851e+00  -3.6084437745955569e+00  -3.4747845242604236e+00  -3.3411252792048485e+00  -3.2074660476307253e+00  -3.0738068331971085e+00  -2.9401476365391739e+00  -2.8064884564872425e+00  -2.6728292909786928e+00  -2.5391701376800193e+00  -2.4055109943692332e+00  -2.2718518591319667e+00  -2.1381927304366166e+00  -2.0045336071090669e+00  -1.8708744883538555e+00  -1.7372153734064835e+00  -1.6035562625348787e+00  -1.4698971528278693e+00  -1.3362380531543809e+00  -1.2025789299476961e+00  -1.0689198906368185e+00  -9.3526058303530424e-01  -8.0160203569853050e-01  -6.6794137901813500e-01  -5.3428581051295310e-01  -4.0061973721296457e-01  -2.6696935564128144e-01  -1.3338602146049308e-01  1.2877824761814119e-05  -1.0691961542809699e+01  -1.0558188113282792e+01  -1.0424839958510344e+01  -1.0291443058393435e+01  -1.0158016630222555e+01  -1.0024517836190940e+01  -9.8909303168865108e+00  -9.7572668744450741e+00  -9.6235519277887196e+00  -9.4898129980499188e+00  -9.3560697858232427e+00  -9.2223341721483152e+00  -9.0886114008252044e+00  -8.9549018709531030e+00  -8.8212026777287154e+00  -8.6875114828652258e+00  -8.5538258093663035e+00  -8.4201427554647914e+00  -8.2864599434574373e+00  -8.1527767029722771e+00  -8.0190933865461904e+00  -7.8854104261439826e+00  -7.7517279638734271e+00  -7.6180463636403335e+00  -7.4843666724719613e+00  -7.3506906556765408e+00  -7.2170202942760682e+00  -7.0833571601964334e+00  -6.9497019405899438e+00  -6.8160542993241062e+00  -6.6824130118061200e+00  -6.5487762784368737e+00  -6.4151420812039994e+00  -6.2815085067418526e+00  -6.1478739756675358e+00  -6.0142373631484682e+00  -5.8805980133275790e+00  -5.7469556770545358e+00  -5.6133104073106415e+00  -5.4796624476446967e+00  -5.3460121365070448e+00  -5.2123598387481263e+00  -5.0787059039971005e+00  -4.9450506461464823e+00  -4.8113943363281066e+00  -4.6777372031944093e+00  -4.5440794364428942e+00  -4.4104211914170035e+00  -4.2767625938092335e+00  -4.1431037440218921e+00  -4.0094447210467710e+00  -3.8757855858090298e+00  -3.7421263840647563e+00  -3.6084671489406119e+00  -3.4748079032430712e+00  -3.3411486615808403e+00  -3.2074894323208873e+00  -3.0738302193294436e+00  -2.9401710234599019e+00  -2.8065118437446199e+00  -2.6728526782894999e+00  -2.5391935248894288e+00  -2.4055343814103862e+00  -2.2718752459967826e+00  -2.1382161171317420e+00  -2.0045569937140195e+00  -1.8708978746989529e+00  -1.7372387602982680e+00  -1.6035796469040835e+00  -1.4699205462112725e+00  -1.3362614128842343e+00  -1.2026024060228593e+00  -1.0689429751070749e+00  -9.3528489199455922e-01  -8.0162276710591562e-01  -6.6797149482214202e-01  -5.3429419406913670e-01  -4.0066817356074852e-01  -2.6696667412174280e-01  -1.3330136426749734e-01  3.9197239726670953e-04  -1.0689735390695020e+01  -1.0558243029886638e+01  -1.0424906338616678e+01  -1.0291525987175453e+01  -1.0158094235097332e+01  -1.0024584669745684e+01  -9.8909873862461719e+00  -9.7573176472944176e+00  -9.6235999167902353e+00  -9.4898606552196281e+00  -9.3561180062711511e+00  -9.2223837365334695e+00  -9.0886620650846073e+00  -8.9549532151562641e+00  -8.8212545911733358e+00  -8.6875638804859232e+00  -8.5538782494948045e+00  -8.4201949737897994e+00  -8.2865119749076435e+00  -8.1528287120743475e+00  -8.0191453833799962e+00  -7.8854623335022866e+00  -7.7517797546949749e+00  -7.6180981864925696e+00  -7.4844187998760647e+00  -7.3507433819582060e+00  -7.2170738174644828e+00  -7.0834115389961756e+00  -6.9497570963817754e+00  -6.8161100618093284e+00  -6.6824691657474302e+00  -6.5488326098444176e+00  -6.4151984068997168e+00  -6.2815646931828271e+00  -6.1479299422279698e+00  -6.0142930768671832e+00  -5.8806534762173284e+00  -5.7470109128285483e+00  -5.6133654492222176e+00  -5.4797173304853786e+00  -5.3460668918976646e+00  -5.2124144935610985e+00  -5.0787604801974950e+00  -4.9451051614973682e+00  -4.8114488051028896e+00  -4.6777916368880978e+00  -4.5441338442790551e+00  -4.4104755807861906e+00  -4.2768169705750223e+00  -4.1431581127748638e+00  -4.0094990852803933e+00  -3.8758399480750940e+00  -3.7421807461067580e+00  -3.6085215118373402e+00  -3.4748622675518863e+00  -3.3412030274830986e+00  -3.2075437997520062e+00  -3.0738845880887471e+00  -2.9402253932916556e+00  -2.8065662143925389e+00  -2.6729070495271836e+00  -2.5392478965326579e+00  -2.4055887533204214e+00  -2.2719296180645259e+00  -2.1382704893135616e+00  -2.0046113658382447e+00  -1.8709522472253233e+00  -1.7372931311813380e+00  -1.6036340242059262e+00  -1.4699748983377121e+00  -1.3363158611790984e+00  -1.2026565005152134e+00  -1.0689983415649864e+00  -9.3533593575663210e-01  -8.0168794864706816e-01  -6.6799397891205092e-01  -5.3443795592742493e-01  -4.0050444831993315e-01  -2.6754612701022601e-01  -1.3242604687125412e-01  -1.4035846167070006e-03  -1.0624583738986679e+01  -1.0491481438265948e+01  -1.0358107393289513e+01  -1.0224696295416898e+01  -1.0091228824399252e+01  -9.9576815298311345e+00  -9.8240530738784351e+00  -9.6903630383531372e+00  -9.5566359822499773e+00  -9.4228956664733587e+00  -9.2891570987043277e+00  -9.1554285542589753e+00  -9.0217129128551115e+00  -8.8880090697422602e+00  -8.7543138905628002e+00  -8.6206252064551681e+00  -8.4869406999723829e+00  -8.3532576457565710e+00  -8.2195740403600315e+00  -8.0858898183287629e+00  -7.9522059398408800e+00  -7.8185230932060206e+00  -7.6848412906755108e+00  -7.5511607009022512e+00  -7.4174824363509178e+00  -7.2838085959242260e+00  -7.1501414797165426e+00  -7.0164826463038796e+00  -6.8828323218357834e+00  -6.7491894056257102e+00  -6.6155518996136582e+00  -6.4819174953934997e+00  -6.3482840597634560e+00  -6.2146499169400986e+00  -6.0810139262956486e+00  -5.9473754303888589e+00  -5.8137341454872784e+00  -5.6800900496954210e+00  -5.5464432904214620e+00  -5.4127941162696942e+00  -5.2791428279360515e+00  -5.1454897432021758e+00  -5.0118351720311933e+00  -4.8781794000411010e+00  -4.7445226789824186e+00  -4.6108652230287666e+00  -4.4772072093512163e+00  -4.3435487813829310e+00  -4.2098900533383654e+00  -4.0762311148951822e+00  -3.9425720354363469e+00  -3.8089128676129897e+00  -3.6752536502988473e+00  -3.5415944110811188e+00  -3.4079351684616652e+00  -3.2742759338434571e+00  -3.1406167133312364e+00  -3.0069575093063401e+00  -2.8732983217441035e+00  -2.7396391492425316e+00  -2.6059799897716225e+00  -2.4723208411688313e+00  -2.3386617014312496e+00  -2.2050025688560999e+00  -2.0713434420764325e+00  -1.9376843200525602e+00  -1.8040252019651057e+00  -1.6703660873415938