<?xml version="1.0"?>
<VTKFile type="UnstructuredGrid"  version="0.1"  >
<UnstructuredGrid>
<Piece  NumberOfPoints="1369" NumberOfCells="2560">
<Points>
<DataArray  type="Float64"  NumberOfComponents="3"  format="ascii">0 0 0  0.75 0 0  1.5 0 0  2.25 0 0  3 0 0  3.75 0 0  4.5 0 0  5.25 0 0  6 0 0  6.75 0 0  7.5 0 0  8.25 0 0  9 0 0  9.75 0 0  10.5 0 0  11.25 0 0  12 0 0  12.75 0 0  13.5 0 0  14.25 0 0  15 0 0  15.75 0 0  16.5 0 0  17.25 0 0  18 0 0  18.75 0 0  19.5 0 0  20.25 0 0  21 0 0  21.75 0 0  22.5 0 0  23.25 0 0  24 0 0  24.75 0 0  25.5 0 0  26.25 0 0  27 0 0  27.75 0 0  28.5 0 0  29.25 0 0  30 0 0  30.75 0 0  31.5 0 0  32.25 0 0  33 0 0  33.75 0 0  34.5 0 0  35.25 0 0  36 0 0  36.75 0 0  37.5 0 0  38.25 0 0  39 0 0  39.75 0 0  40.5 0 0  41.25 0 0  42 0 0  42.75 0 0  43.5 0 0  44.25 0 0  45 0 0  45.75 0 0  46.5 0 0  47.25 0 0  48 0 0  48.75 0 0  49.5 0 0  50.25 0 0  51 0 0  51.75 0 0  52.5 0 0  53.25 0 0  54 0 0  54.75 0 0  55.5 0 0  56.25 0 0  57 0 0  57.75 0 0  58.5 0 0  59.25 0 0  60 0 0  0 0.5 0  0.75 0.5 0  1.5 0.5 0  2.25 0.5 0  3 0.5 0  3.75 0.5 0  4.5 0.5 0  5.25 0.5 0  6 0.5 0  6.75 0.5 0  7.5 0.5 0  8.25 0.5 0  9 0.5 0  9.75 0.5 0  10.5 0.5 0  11.25 0.5 0  12 0.5 0  12.75 0.5 0  13.5 0.5 0  14.25 0.5 0  15 0.5 0  15.75 0.5 0  16.5 0.5 0  17.25 0.5 0  18 0.5 0  18.75 0.5 0  19.5 0.5 0  20.25 0.5 0  21 0.5 0  21.75 0.5 0  22.5 0.5 0  23.25 0.5 0  24 0.5 0  24.75 0.5 0  25.5 0.5 0  26.25 0.5 0  27 0.5 0  27.75 0.5 0  28.5 0.5 0  29.25 0.5 0  30 0.5 0  30.75 0.5 0  31.5 0.5 0  32.25 0.5 0  33 0.5 0  33.75 0.5 0  34.5 0.5 0  35.25 0.5 0  36 0.5 0  36.75 0.5 0  37.5 0.5 0  38.25 0.5 0  39 0.5 0  39.75 0.5 0  40.5 0.5 0  41.25 0.5 0  42 0.5 0  42.75 0.5 0  43.5 0.5 0  44.25 0.5 0  45 0.5 0  45.75 0.5 0  46.5 0.5 0  47.25 0.5 0  48 0.5 0  48.75 0.5 0  49.5 0.5 0  50.25 0.5 0  51 0.5 0  51.75 0.5 0  52.5 0.5 0  53.25 0.5 0  54 0.5 0  54.75 0.5 0  55.5 0.5 0  56.25 0.5 0  57 0.5 0  57.75 0.5 0  58.5 0.5 0  59.25 0.5 0  60 0.5 0  0 1 0  0.75 1 0  1.5 1 0  2.25 1 0  3 1 0  3.75 1 0  4.5 1 0  5.25 1 0  6 1 0  6.75 1 0  7.5 1 0  8.25 1 0  9 1 0  9.75 1 0  10.5 1 0  11.25 1 0  12 1 0  12.75 1 0  13.5 1 0  14.25 1 0  15 1 0  15.75 1 0  16.5 1 0  17.25 1 0  18 1 0  18.75 1 0  19.5 1 0  20.25 1 0  21 1 0  21.75 1 0  22.5 1 0  23.25 1 0  24 1 0  24.75 1 0  25.5 1 0  26.25 1 0  27 1 0  27.75 1 0  28.5 1 0  29.25 1 0  30 1 0  30.75 1 0  31.5 1 0  32.25 1 0  33 1 0  33.75 1 0  34.5 1 0  35.25 1 0  36 1 0  36.75 1 0  37.5 1 0  38.25 1 0  39 1 0  39.75 1 0  40.5 1 0  41.25 1 0  42 1 0  42.75 1 0  43.5 1 0  44.25 1 0  45 1 0  45.75 1 0  46.5 1 0  47.25 1 0  48 1 0  48.75 1 0  49.5 1 0  50.25 1 0  51 1 0  51.75 1 0  52.5 1 0  53.25 1 0  54 1 0  54.75 1 0  55.5 1 0  56.25 1 0  57 1 0  57.75 1 0  58.5 1 0  59.25 1 0  60 1 0  0 1.5 0  0.75 1.5 0  1.5 1.5 0  2.25 1.5 0  3 1.5 0  3.75 1.5 0  4.5 1.5 0  5.25 1.5 0  6 1.5 0  6.75 1.5 0  7.5 1.5 0  8.25 1.5 0  9 1.5 0  9.75 1.5 0  10.5 1.5 0  11.25 1.5 0  12 1.5 0  12.75 1.5 0  13.5 1.5 0  14.25 1.5 0  15 1.5 0  15.75 1.5 0  16.5 1.5 0  17.25 1.5 0  18 1.5 0  18.75 1.5 0  19.5 1.5 0  20.25 1.5 0  21 1.5 0  21.75 1.5 0  22.5 1.5 0  23.25 1.5 0  24 1.5 0  24.75 1.5 0  25.5 1.5 0  26.25 1.5 0  27 1.5 0  27.75 1.5 0  28.5 1.5 0  29.25 1.5 0  30 1.5 0  30.75 1.5 0  31.5 1.5 0  32.25 1.5 0  33 1.5 0  33.75 1.5 0  34.5 1.5 0  35.25 1.5 0  36 1.5 0  36.75 1.5 0  37.5 1.5 0  38.25 1.5 0  39 1.5 0  39.75 1.5 0  40.5 1.5 0  41.25 1.5 0  42 1.5 0  42.75 1.5 0  43.5 1.5 0  44.25 1.5 0  45 1.5 0  45.75 1.5 0  46.5 1.5 0  47.25 1.5 0  48 1.5 0  48.75 1.5 0  49.5 1.5 0  50.25 1.5 0  51 1.5 0  51.75 1.5 0  52.5 1.5 0  53.25 1.5 0  54 1.5 0  54.75 1.5 0  55.5 1.5 0  56.25 1.5 0  57 1.5 0  57.75 1.5 0  58.5 1.5 0  59.25 1.5 0  60 1.5 0  0 2 0  0.75 2 0  1.5 2 0  2.25 2 0  3 2 0  3.75 2 0  4.5 2 0  5.25 2 0  6 2 0  6.75 2 0  7.5 2 0  8.25 2 0  9 2 0  9.75 2 0  10.5 2 0  11.25 2 0  12 2 0  12.75 2 0  13.5 2 0  14.25 2 0  15 2 0  15.75 2 0  16.5 2 0  17.25 2 0  18 2 0  18.75 2 0  19.5 2 0  20.25 2 0  21 2 0  21.75 2 0  22.5 2 0  23.25 2 0  24 2 0  24.75 2 0  25.5 2 0  26.25 2 0  27 2 0  27.75 2 0  28.5 2 0  29.25 2 0  30 2 0  30.75 2 0  31.5 2 0  32.25 2 0  33 2 0  33.75 2 0  34.5 2 0  35.25 2 0  36 2 0  36.75 2 0  37.5 2 0  38.25 2 0  39 2 0  39.75 2 0  40.5 2 0  41.25 2 0  42 2 0  42.75 2 0  43.5 2 0  44.25 2 0  45 2 0  45.75 2 0  46.5 2 0  47.25 2 0  48 2 0  48.75 2 0  49.5 2 0  50.25 2 0  51 2 0  51.75 2 0  52.5 2 0  53.25 2 0  54 2 0  54.75 2 0  55.5 2 0  56.25 2 0  57 2 0  57.75 2 0  58.5 2 0  59.25 2 0  60 2 0  0 2.5 0  0.75 2.5 0  1.5 2.5 0  2.25 2.5 0  3 2.5 0  3.75 2.5 0  4.5 2.5 0  5.25 2.5 0  6 2.5 0  6.75 2.5 0  7.5 2.5 0  8.25 2.5 0  9 2.5 0  9.75 2.5 0  10.5 2.5 0  11.25 2.5 0  12 2.5 0  12.75 2.5 0  13.5 2.5 0  14.25 2.5 0  15 2.5 0  15.75 2.5 0  16.5 2.5 0  17.25 2.5 0  18 2.5 0  18.75 2.5 0  19.5 2.5 0  20.25 2.5 0  21 2.5 0  21.75 2.5 0  22.5 2.5 0  23.25 2.5 0  24 2.5 0  24.75 2.5 0  25.5 2.5 0  26.25 2.5 0  27 2.5 0  27.75 2.5 0  28.5 2.5 0  29.25 2.5 0  30 2.5 0  30.75 2.5 0  31.5 2.5 0  32.25 2.5 0  33 2.5 0  33.75 2.5 0  34.5 2.5 0  35.25 2.5 0  36 2.5 0  36.75 2.5 0  37.5 2.5 0  38.25 2.5 0  39 2.5 0  39.75 2.5 0  40.5 2.5 0  41.25 2.5 0  42 2.5 0  42.75 2.5 0  43.5 2.5 0  44.25 2.5 0  45 2.5 0  45.75 2.5 0  46.5 2.5 0  47.25 2.5 0  48 2.5 0  48.75 2.5 0  49.5 2.5 0  50.25 2.5 0  51 2.5 0  51.75 2.5 0  52.5 2.5 0  53.25 2.5 0  54 2.5 0  54.75 2.5 0  55.5 2.5 0  56.25 2.5 0  57 2.5 0  57.75 2.5 0  58.5 2.5 0  59.25 2.5 0  60 2.5 0  0 3 0  0.75 3 0  1.5 3 0  2.25 3 0  3 3 0  3.75 3 0  4.5 3 0  5.25 3 0  6 3 0  6.75 3 0  7.5 3 0  8.25 3 0  9 3 0  9.75 3 0  10.5 3 0  11.25 3 0  12 3 0  12.75 3 0  13.5 3 0  14.25 3 0  15 3 0  15.75 3 0  16.5 3 0  17.25 3 0  18 3 0  18.75 3 0  19.5 3 0  20.25 3 0  21 3 0  21.75 3 0  22.5 3 0  23.25 3 0  24 3 0  24.75 3 0  25.5 3 0  26.25 3 0  27 3 0  27.75 3 0  28.5 3 0  29.25 3 0  30 3 0  30.75 3 0  31.5 3 0  32.25 3 0  33 3 0  33.75 3 0  34.5 3 0  35.25 3 0  36 3 0  36.75 3 0  37.5 3 0  38.25 3 0  39 3 0  39.75 3 0  40.5 3 0  41.25 3 0  42 3 0  42.75 3 0  43.5 3 0  44.25 3 0  45 3 0  45.75 3 0  46.5 3 0  47.25 3 0  48 3 0  48.75 3 0  49.5 3 0  50.25 3 0  51 3 0  51.75 3 0  52.5 3 0  53.25 3 0  54 3 0  54.75 3 0  55.5 3 0  56.25 3 0  57 3 0  57.75 3 0  58.5 3 0  59.25 3 0  60 3 0  0 3.5 0  0.75 3.5 0  1.5 3.5 0  2.25 3.5 0  3 3.5 0  3.75 3.5 0  4.5 3.5 0  5.25 3.5 0  6 3.5 0  6.75 3.5 0  7.5 3.5 0  8.25 3.5 0  9 3.5 0  9.75 3.5 0  10.5 3.5 0  11.25 3.5 0  12 3.5 0  12.75 3.5 0  13.5 3.5 0  14.25 3.5 0  15 3.5 0  15.75 3.5 0  16.5 3.5 0  17.25 3.5 0  18 3.5 0  18.75 3.5 0  19.5 3.5 0  20.25 3.5 0  21 3.5 0  21.75 3.5 0  22.5 3.5 0  23.25 3.5 0  24 3.5 0  24.75 3.5 0  25.5 3.5 0  26.25 3.5 0  27 3.5 0  27.75 3.5 0  28.5 3.5 0  29.25 3.5 0  30 3.5 0  30.75 3.5 0  31.5 3.5 0  32.25 3.5 0  33 3.5 0  33.75 3.5 0  34.5 3.5 0  35.25 3.5 0  36 3.5 0  36.75 3.5 0  37.5 3.5 0  38.25 3.5 0  39 3.5 0  39.75 3.5 0  40.5 3.5 0  41.25 3.5 0  42 3.5 0  42.75 3.5 0  43.5 3.5 0  44.25 3.5 0  45 3.5 0  45.75 3.5 0  46.5 3.5 0  47.25 3.5 0  48 3.5 0  48.75 3.5 0  49.5 3.5 0  50.25 3.5 0  51 3.5 0  51.75 3.5 0  52.5 3.5 0  53.25 3.5 0  54 3.5 0  54.75 3.5 0  55.5 3.5 0  56.25 3.5 0  57 3.5 0  57.75 3.5 0  58.5 3.5 0  59.25 3.5 0  60 3.5 0  0 4 0  0.75 4 0  1.5 4 0  2.25 4 0  3 4 0  3.75 4 0  4.5 4 0  5.25 4 0  6 4 0  6.75 4 0  7.5 4 0  8.25 4 0  9 4 0  9.75 4 0  10.5 4 0  11.25 4 0  12 4 0  12.75 4 0  13.5 4 0  14.25 4 0  15 4 0  15.75 4 0  16.5 4 0  17.25 4 0  18 4 0  18.75 4 0  19.5 4 0  20.25 4 0  21 4 0  21.75 4 0  22.5 4 0  23.25 4 0  24 4 0  24.75 4 0  25.5 4 0  26.25 4 0  27 4 0  27.75 4 0  28.5 4 0  29.25 4 0  30 4 0  30.75 4 0  31.5 4 0  32.25 4 0  33 4 0  33.75 4 0  34.5 4 0  35.25 4 0  36 4 0  36.75 4 0  37.5 4 0  38.25 4 0  39 4 0  39.75 4 0  40.5 4 0  41.25 4 0  42 4 0  42.75 4 0  43.5 4 0  44.25 4 0  45 4 0  45.75 4 0  46.5 4 0  47.25 4 0  48 4 0  48.75 4 0  49.5 4 0  50.25 4 0  51 4 0  51.75 4 0  52.5 4 0  53.25 4 0  54 4 0  54.75 4 0  55.5 4 0  56.25 4 0  57 4 0  57.75 4 0  58.5 4 0  59.25 4 0  60 4 0  0.375 0.25 0  1.125 0.25 0  1.875 0.25 0  2.625 0.25 0  3.375 0.25 0  4.125 0.25 0  4.875 0.25 0  5.625 0.25 0  6.375 0.25 0  7.125 0.25 0  7.875 0.25 0  8.625 0.25 0  9.375 0.25 0  10.125 0.25 0  10.875 0.25 0  11.625 0.25 0  12.375 0.25 0  13.125 0.25 0  13.875 0.25 0  14.625 0.25 0  15.375 0.25 0  16.125 0.25 0  16.875 0.25 0  17.625 0.25 0  18.375 0.25 0  19.125 0.25 0  19.875 0.25 0  20.625 0.25 0  21.375 0.25 0  22.125 0.25 0  22.875 0.25 0  23.625 0.25 0  24.375 0.25 0  25.125 0.25 0  25.875 0.25 0  26.625 0.25 0  27.375 0.25 0  28.125 0.25 0  28.875 0.25 0  29.625 0.25 0  30.375 0.25 0  31.125 0.25 0  31.875 0.25 0  32.625 0.25 0  33.375 0.25 0  34.125 0.25 0  34.875 0.25 0  35.625 0.25 0  36.375 0.25 0  37.125 0.25 0  37.875 0.25 0  38.625 0.25 0  39.375 0.25 0  40.125 0.25 0  40.875 0.25 0  41.625 0.25 0  42.375 0.25 0  43.125 0.25 0  43.875 0.25 0  44.625 0.25 0  45.375 0.25 0  46.125 0.25 0  46.875 0.25 0  47.625 0.25 0  48.375 0.25 0  49.125 0.25 0  49.875 0.25 0  50.625 0.25 0  51.375 0.25 0  52.125 0.25 0  52.875 0.25 0  53.625 0.25 0  54.375 0.25 0  55.125 0.25 0  55.875 0.25 0  56.625 0.25 0  57.375 0.25 0  58.125 0.25 0  58.875 0.25 0  59.625 0.25 0  0.375 0.75 0  1.125 0.75 0  1.875 0.75 0  2.625 0.75 0  3.375 0.75 0  4.125 0.75 0  4.875 0.75 0  5.625 0.75 0  6.375 0.75 0  7.125 0.75 0  7.875 0.75 0  8.625 0.75 0  9.375 0.75 0  10.125 0.75 0  10.875 0.75 0  11.625 0.75 0  12.375 0.75 0  13.125 0.75 0  13.875 0.75 0  14.625 0.75 0  15.375 0.75 0  16.125 0.75 0  16.875 0.75 0  17.625 0.75 0  18.375 0.75 0  19.125 0.75 0  19.875 0.75 0  20.625 0.75 0  21.375 0.75 0  22.125 0.75 0  22.875 0.75 0  23.625 0.75 0  24.375 0.75 0  25.125 0.75 0  25.875 0.75 0  26.625 0.75 0  27.375 0.75 0  28.125 0.75 0  28.875 0.75 0  29.625 0.75 0  30.375 0.75 0  31.125 0.75 0  31.875 0.75 0  32.625 0.75 0  33.375 0.75 0  34.125 0.75 0  34.875 0.75 0  35.625 0.75 0  36.375 0.75 0  37.125 0.75 0  37.875 0.75 0  38.625 0.75 0  39.375 0.75 0  40.125 0.75 0  40
[...]
<PointData  Scalars="f_8-1"> 
<DataArray  type="Float64"  Name="f_8-1"  format="ascii">-8.4795809066296588e+00  -8.3804419954393676e+00  -8.2620712629117428e+00  -8.1509250364483279e+00  -8.0344294104267160e+00  -7.9247331081634753e+00  -7.8134519509823255e+00  -7.7060954086264228e+00  -7.5982079967344811e+00  -7.4919369923518984e+00  -7.3855942269169654e+00  -7.2797416814449880e+00  -7.1739976136824861e+00  -7.0683107035638928e+00  -6.9627619554583724e+00  -6.8571453915412679e+00  -6.7516450132646906e+00  -6.6460646430030410e+00  -6.5405672826331163e+00  -6.4350090101435580e+00  -6.3295084089801943e+00  -6.2239716822881901e+00  -6.1184767676003844e+00  -6.0129642793987976e+00  -5.9074812527189087e+00  -5.8019900084637346e+00  -5.6965175927570426e+00  -5.5910405314521565e+00  -5.4855743655098674e+00  -5.3801049766994335e+00  -5.2746415027894020e+00  -5.1691757044477438e+00  -5.0637130502930763e+00  -4.9582488024508802e+00  -4.8527862446625534e+00  -4.7473226571928322e+00  -4.6418600011229234e+00  -4.5363967080591694e+00  -4.4309339405496022e+00  -4.3254707891899473e+00  -4.2200079390446623e+00  -4.1145448607107831e+00  -4.0090819563120972e+00  -3.9036189169741049e+00  -3.7981559782071090e+00  -3.6926929596185789e+00  -3.5872299989736081e+00  -3.4817669908768338e+00  -3.3763040158675186e+00  -3.2708410123618381e+00  -3.1653780274283827e+00  -3.0599150250863647e+00  -2.9544520328339101e+00  -2.8489890296566829e+00  -2.7435260316090968e+00  -2.6380630264279201e+00  -2.5326000234745392e+00  -2.4271370156024399e+00  -2.3216740082575646e+00  -2.2162109972824453e+00  -2.1107479858310354e+00  -2.0052849714852736e+00  -1.8998219560523999e+00  -1.7943589381139244e+00  -1.6888959186732719e+00  -1.5834328968680895e+00  -1.4779698732169331e+00  -1.3725068472052113e+00  -1.2670438192709612e+00  -1.1615807898613097e+00  -1.0561177618400424e+00  -9.5065474371886449e-01  -8.4519176191048007e-01  -7.3972889393725116e-01  -6.3426636554289628e-01  -5.2880482751139546e-01  -4.2334617424009074e-01  -3.1789553534583798e-01  -2.1247501794497495e-01  -1.0701299211207187e-01  -4.3026465876176657e-03  -8.4902913068048669e+00  -8.3741097247057077e+00  -8.2661709153353709e+00  -8.1477168601122987e+00  -8.0367316696096136e+00  -7.9235623325260569e+00  -7.8144765307055000e+00  -7.7058806202986450e+00  -7.5985484715630198e+00  -7.4920668076224128e+00  -7.3856641488382184e+00  -7.2799504279678917e+00  -7.1739964725124983e+00  -7.0685075747866675e+00  -6.9627630261772575e+00  -6.8573094115687656e+00  -6.7516662525381257e+00  -6.6461992356371917e+00  -6.5406078511079535e+00  -6.4351219293596182e+00  -6.3295622119815969e+00  -6.2240695752534334e+00  -6.1185386364611665e+00  -6.0130525883565422e+00  -5.9075481711038718e+00  -5.8020727301411164e+00  -5.6965878052832721e+00  -5.5911201513720830e+00  -5.4856466986290426e+00  -5.3801828738925828e+00  -5.2747151464142039e+00  -5.1692526203749427e+00  -5.0637874759579127e+00  -4.9583251465240661e+00  -4.8528611282923162e+00  -4.7473986643984585e+00  -4.6419351513387177e+00  -4.5364725164395763e+00  -4.4310092460315582e+00  -4.3255464803946895e+00  -4.2200833351807834e+00  -4.1146204829844866e+00  -4.0091574054975672e+00  -3.9036944987475959e+00  -3.7982314584808221e+00  -3.6927685176146108e+00  -3.5873054974768608e+00  -3.4818425349223130e+00  -3.3763795250597162e+00  -3.2709165482284046e+00  -3.1654535428852557e+00  -3.0599905561617904e+00  -2.9545275519604011e+00  -2.8490645579277198e+00  -2.7436015528845452e+00  -2.6381385530584818e+00  -2.5326755460088175e+00  -2.4272125412739478e+00  -2.3217495315304837e+00  -2.2162865223942680e+00  -2.1108235095394678e+00  -2.0053604962728238e+00  -1.8998974800215211e+00  -1.7944344627186275e+00  -1.6889714428051121e+00  -1.5835084213769062e+00  -1.4780453974522580e+00  -1.3725823716444092e+00  -1.2671193434743060e+00  -1.1616563139136014e+00  -1.0561932849105775e+00  -9.5073026416086615e-01  -8.4526727429078730e-01  -7.3980438284557914e-01  -6.3434178538994224e-01  -5.2888004519770848e-01  -4.2342075668233919e-01  -3.1796867736057904e-01  -2.1253109602410250e-01  -1.0724039114229886e-01  -5.1641857029367025e-05  -8.4777446829990417e+00  -8.3797520645589074e+00  -8.2568845428634798e+00  -8.1509531824600110e+00  -8.0341477243258073e+00  -7.9249433303588352e+00  -7.8147025327027357e+00  -7.7061213239324324e+00  -7.5993638675371855e+00  -7.4918735973476940e+00  -7.3863919307742547e+00  -7.2796976138574250e+00  -7.1745195780873541e+00  -7.0683202789572572e+00  -6.9631157645996895e+00  -6.8572016842613586e+00  -6.7519030399986013e+00  -6.6461541690858033e+00  -6.5407732781802883e+00  -6.4351191835821702e+00  -6.3296843358343828e+00  -6.2240921101477440e+00  -6.1186341523329624e+00  -6.0130895671705415e+00  -5.9076278187623856e+00  -5.8021182760536751e+00  -5.6966584265649258e+00  -5.5911709961291152e+00  -5.4857123119314286e+00  -5.3802370062192058e+00  -5.2747779685514287e+00  -5.1693087526622694e+00  -5.0638487127838152e+00  -4.9583824714303928e+00  -4.8529214488307888e+00  -4.7474566920479688e+00  -4.6419949368437381e+00  -4.5365309561879243e+00  -4.4310687177703088e+00  -4.3256051616010165e+00  -4.2201426226441097e+00  -4.1146793057808093e+00  -4.0092165846648893e+00  -3.9037534046790419e+00  -3.7982905739648403e+00  -3.6928274724182821e+00  -3.5873645754915193e+00  -3.4819015184778128e+00  -3.3764385810253175e+00  -3.2709755486992798e+00  -3.1655125858826088e+00  -3.0600495665772494e+00  -2.9545865873391115e+00  -2.8491235741827925e+00  -2.7436605837940014e+00  -2.6381975727393727e+00  -2.5327345743006697e+00  -2.4272715629656871e+00  -2.3218085582931973e+00  -2.2163455452730809e+00  -2.1108825354177809e+00  -2.0054195198692129e+00  -1.8999565054107543e+00  -1.7944934867827282e+00  -1.6890304679623185e+00  -1.5835674457622364e+00  -1.4781044224088578e+00  -1.3726413957289061e+00  -1.2671783663988005e+00  -1.1617153315125912e+00  -1.0562522871885067e+00  -9.5078921989366472e-01  -8.4532609403291270e-01  -7.3986280655081649e-01  -6.3439906321517159e-01  -5.2893401353235636e-01  -4.2346518029622160e-01  -3.1798496690611944e-01  -2.1246870228080239e-01  -1.0673397685515040e-01  -4.5549738200027914e-05  -8.4767924027058221e+00  -8.3791154509415691e+00  -8.2536666238059659e+00  -8.1531798611871480e+00  -8.0318521978254296e+00  -7.9282313700210247e+00  -7.8129630417098559e+00  -7.7087569827002351e+00  -7.5980035547076588e+00  -7.4936041086544343e+00  -7.3854055712250082e+00  -7.2807437388584315e+00  -7.1738528646324413e+00  -7.0689249165411479e+00  -6.9626838972747844e+00  -6.8575408626722476e+00  -6.7516276111321769e+00  -6.6463376954213720e+00  -6.5405967955225881e+00  -6.4352137663220645e+00  -6.3295691441475626e+00  -6.2241357358067928e+00  -6.1185549966761199e+00  -6.0131026448003055e+00  -5.9075686577029547e+00  -5.8021125613401479e+00  -5.6966102549488626e+00  -5.5911539512666915e+00  -5.4856704324879235e+00  -5.3802133759072932e+00  -5.2747398624154647e+00  -5.1692813888077431e+00  -5.0638129149451450e+00  -4.9583530030560992e+00  -4.8528870586866679e+00  -4.7474260288002919e+00  -4.6419613951956453e+00  -4.5364996069304411e+00  -4.4310356819038441e+00  -4.3255734147581419e+00  -4.2201098860034696e+00  -4.1146473270580382e+00  -4.0091840243472721e+00  -3.9037212901826903e+00  -3.7982581174085706e+00  -3.6927952782079680e+00  -3.5873321800064004e+00  -3.4818692773774758e+00  -3.3764062215070543e+00  -3.2709432799875571e+00  -3.1654802475505135e+00  -3.0600172816064410e+00  -2.9545542614781066e+00  -2.8490912796481993e+00  -2.7436282652633093e+00  -2.6381652725902565e+00  -2.5327022600724076e+00  -2.4272392595298431e+00  -2.3217762465923633e+00  -2.2163132399252836e+00  -2.1108502252179746e+00  -2.0053872134360140e+00  -1.8999241961460958e+00  -1.7944611797957499e+00  -1.6889981593625498e+00  -1.5835351385729859e+00  -1.4780721142197710e+00  -1.3726090879191393e+00  -1.2671460561170171e+00  -1.1616830151664139e+00  -1.0562199498414973e+00  -9.5075682047882715e-01  -8.4529351041491130e-01  -7.3982968694374995e-01  -6.3436439272129852e-01  -5.2889488117896044e-01  -4.2341327631401438e-01  -3.1789703850408618e-01  -2.1228110005134340e-01  -1.0639071534533535e-01  -6.2960564966074907e-05  -8.5008953695881182e+00  -8.3598292411130579e+00  -8.2709631326180819e+00  -8.1389447352506838e+00  -8.0429989575204317e+00  -7.9201073309148464e+00  -7.8193260978194035e+00  -7.7043801422146876e+00  -7.6014398850944067e+00  -7.4912452197531776e+00  -7.3872383991587620e+00  -7.2794484045511121e+00  -7.1748392809065109e+00  -7.0681954879654771e+00  -6.9632223931661361e+00  -6.8571203393300424e+00  -6.7519247309830455e+00  -6.6460894514972146e+00  -6.5407604629921172e+00  -6.4350638904025352e+00  -6.3296581799348797e+00  -6.2240430877182389e+00  -6.1186014014579069e+00  -6.0130428983137127e+00  -5.9075897940360180e+00  -5.8020713538745561e+00  -5.6966161413128402e+00  -5.5911232175148280e+00  -5.4856672151445327e+00  -5.3801886980720806e+00  -5.2747313203698702e+00  -5.1692602917826376e+00  -5.0638012995890431e+00  -4.9583340439983008e+00  -4.8528736741140683e+00  -4.7474083453315830e+00  -4.6419469882034381e+00  -4.5364826807979126e+00  -4.4310206809114012e+00  -4.3255569360288977e+00  -4.2200945384556556e+00  -4.1146311117326384e+00  -4.0091684740291749e+00  -3.9037052296993271e+00  -3.7982424481840269e+00  -3.6927793087614829e+00  -3.5873164409069500e+00  -3.4818533615150460e+00  -3.3763904412685890e+00  -3.2709273957022864e+00  -3.1654644430639407e+00  -3.0600014159371463e+00  -2.9545384427010810e+00  -2.8490754249446142e+00  -2.7436124380773279e+00  -2.6381494243343364e+00  -2.5326864279524992e+00  -2.4272234150596828e+00  -2.3217604115919253e+00  -2.2162973976858118e+00  -2.1108343885592653e+00  -2.0053713725445328e+00  -1.8999083585887528e+00  -1.7944453398078513e+00  -1.6889823214556252e+00  -1.5835192993763572e+00  -1.4780562764463192e+00  -1.3725932495006437e+00  -1.2671302182410300e+00  -1.1616671749613616e+00  -1.0562041026806053e+00  -9.5074094831514067e-01  -8.4527756203082860e-01  -7.3981351012075791e-01  -6.3434754794378723e-01  -5.2887610377204919e-01  -4.2338897394577779e-01  -3.1785738813214592e-01  -2.1220519637802618e-01  -1.0628630285239826e-01  -6.7101748338596121e-05  -8.4768059304022234e+00  -8.3790549980705702e+00  -8.2536245278744929e+00  -8.1531307299206848e+00  -8.0318377741365214e+00  -7.9282018915775749e+00  -7.8129623518034856e+00  -7.7087458592251616e+00  -7.5980071569806213e+00  -7.4936013174844067e+00  -7.3854086652456550e+00  -7.2807433394613117e+00  -7.1738545548405277e+00  -7.0689249205649292e+00  -6.9626846258190600e+00  -6.8575408612898388e+00  -6.7516278754871912e+00  -6.6463376726539209e+00  -6.5405968806483674e+00  -6.4352137471950872e+00  -6.3295691715281350e+00  -6.2241357270188598e+00  -6.1185550078492650e+00  -6.0131026437367927e+00  -5.9075686651706452e+00  -5.8021125649025471e+00  -5.6966102622277379e+00  -5.5911539574308859e+00  -5.4856704402682714e+00  -5.3802133834018724e+00  -5.2747398705797872e+00  -5.1692813968960154e+00  -5.0638129232918843e+00  -4.9583530113767873e+00  -4.8528870671012934e+00  -4.7474260372039288e+00  -4.6419614036322816e+00  -4.5364996153623531e+00  -4.4310356903471186e+00  -4.3255734231994047e+00  -4.2201098944485587e+00  -4.1146473355022097e+00  -4.0091840327926391e+00  -3.9037212986276582e+00  -3.7982581258538497e+00  -3.6927952866530607e+00  -3.5873321884515548e+00  -3.4818692858225369e+00  -3.3764062299521149e+00  -3.2709432884326080e+00  -3.1654802559956075e+00  -3.0600172900516589e+00  -2.9545542699236895e+00  -2.8490912880944261e+00  -2.7436282737109288e+00  -2.6381652810404352e+00  -2.5327022685271725e+00  -2.4272392679928809e+00  -2.3217762550696897e+00  -2.2163132484272521e+00  -2.1108502337616968e+00  -2.0053872220498836e+00  -1.8999242048765985e+00  -1.7944611887185897e+00  -1.6889981686001299e+00  -1.5835351483218369e+00  -1.4780721247935027e+00  -1.3726090998149694e+00  -1.2671460701184454e+00  -1.1616830325001919e+00  -1.0562199724162440e+00  -9.5075685124443576e-01  -8.4529355389892158e-01  -7.3982975004175100e-01  -6.3436448583667659e-01  -5.2889501977136177e-01  -4.2341348251012850e-01  -3.1789733971764439e-01  -2.1228150518957892e-01  -1.0639109783058118e-01  -6.2975280507890962e-05  -8.4776025037153513e+00  -8.3798005425175486e+00  -8.2567271737392431e+00  -8.1509504332253062e+00  -8.0340530109176029e+00  -7.9249372726910217e+00  -7.8146647536276017e+00  -7.7061247343902517e+00  -7.5993536772577732e+00  -7.4918791097427517e+00  -7.3863903941321718e+00  -7.2797013310965335e+00  -7.1745197130061804e+00  -7.0683220850301369e+00  -6.9631159191960217e+00  -6.8572023969351541e+00  -6.7519030666528739e+00  -6.6461544113657558e+00  -6.5407732619049943e+00  -6.4351192628418605e+00  -6.3296843243666876e+00  -6.2240921423757589e+00  -6.1186341538909135e+00  -6.0130895883423214e+00  -5.9076278299719966e+00  -5.8021182960216917e+00  -5.6966584435489098e+00  -5.5911710169983131e+00  -5.4857123319836782e+00  -5.3802370279260714e+00  -5.2747779900292535e+00  -5.1693087747995934e+00  -5.0638487348408727e+00  -4.9583824937351659e+00  -4.8529214711009834e+00  -4.7474567144083837e+00  -4.6419949591887049e+00  -4.5365309785655823e+00  -4.4310687401411633e+00  -4.3256051839836474e+00  -4.2201426450236541e+00  -4.1146793281644793e+00  -4.0092166070470654e+00  -3.9037534270626235e+00  -3.7982905963476763e+00  -3.6928274948015631e+00  -3.5873645978744100e+00  -3.4819015408608518e+00  -3.3764386034081646e+00  -3.2709755710822175e+00  -3.1655126082655625e+00  -3.0600495889604993e+00  -2.9545866097229609e+00  -2.8491235965679080e+00  -2.7436606061816411e+00  -2.6381975951317016e+00  -2.5327345967014954e+00  -2.4272715853815789e+00  -2.3218085807353259e+00  -2.2163455677602508e+00  -2.1108825579813280e+00  -2.0054195425609116e+00  -1.8999565283154807e+00  -1.7944935100385588e+00  -1.6890304917924139e+00  -1.5835674705248228e+00  -1.4781044486752863e+00  -1.3726414244047627e+00  -1.2671783989104939e+00  -1.1617153700928013e+00  -1.0562523353096875e+00  -9.5078928292119513e-01  -8.4532618019986605e-01  -7.3986292839759449e-01  -6.3439923968256551e-01  -5.2893427291151784e-01  -4.2346556399607749e-01  -3.1798553197068713e-01  -2.1246950913400264e-01  -1.0673489270565285e-01  -4.5588349750282838e-05  -8.4903516198878854e+00  -8.3740656280559715e+00  -8.2661527928985716e+00  -8.1476264564002339e+00  -8.0366855304503169e+00  -7.9235089352481447e+00  -7.8144581121152843e+00  -7.7058644621481784e+00  -7.5985474335711327e+00  -7.4920651674155510e+00  -7.3856670047758088e+00  -7.2799516480468691e+00  -7.1739986016450610e+00  -7.0685085058773796e+00  -6.9627640358656446e+00  -6.8573098156757100e+00  -6.7516666400538838e+00  -6.6461993804689312e+00  -6.5406079987785439e+00  -6.4351219967950000e+00  -6.3295622914037848e+00  -6.2240696324083711e+00  -6.1185387032360463e+00  -6.0130526503408497e+00  -5.9075482387127645e+00  -5.8020727975389130e+00  -5.6965878755796577e+00  -5.5911202222779890e+00  -5.4856467708695247e+00  -5.3801829466134201e+00  -5.2747152196635518e+00  -5.1692526938810950e+00  -5.0637875496363112e+00  -4.9583252203242321e+00  -4.8528612021336679e+00  -4.7473987382983740e+00  -4.6419352252402879e+00  -4.5364725903711278e+00  -4.4310093199559608e+00  -4.3255465543351006e+00  -4.2200834091139621e+00  -4.1146205569263623e+00  -4.0091574794340534e+00  -3.9036945726889183e+00  -3.7982315324185736e+00  -3.6927685915550934e+00  -3.5873055714151207e+00  -3.4818426088621539e+00  -3.3763795989982315e+00  -3.2709166221679045e+00  -3.1654536168241325e+00  -3.0599906301015993e+00  -2.9545276259006212e+00  -2.8490646318699286e+00  -2.7436016268297885e+00  -2.6381386270099734e+00  -2.5326756199710849e+00  -2.4272126152555380e+00  -2.3217496055453801e+00  -2.2162865964663210e+00  -2.1108235837080231e+00  -2.0053605706030435e+00  -1.8998975546197652e+00  -1.7944345377577999e+00  -1.6889715185640635e+00  -1.5835084983026313e+00  -1.4780454762564719e+00  -1.3725824534534452e+00  -1.2671194300595086e+00  -1.1616564080432330e+00  -1.0561933908833818e+00  -9.5073038860844139e-01  -8.4526742737363170e-01  -7.3980458001877281e-01  -6.3434204998220645e-01  -5.2888041213835502e-01  -4.2342127784442091e-01  -3.1796942970186404e-01  -2.1253218950458844e-01  -1.0724209468694469e-01  -5.1840952223663877e-05  -8.4795387114317133e+00  -8.3804560941873234e+00  -8.2620197601444616e+00  -8.1508647059575736e+00  -8.0343623827535797e+00  -7.9246928453301102e+00  -7.8134232113959481e+00  -7.7060850574847564e+00  -7.5982025368534822e+00  -7.4919379944558546e+00  -7.3855953175264926e+00  -7.2797441033703105e+00  -7.1739990647675560e+00  -7.0683121767343318e+00  -6.9627627174551074e+00  -6.8571460459822147e+00  -6.7516453245971686e+00  -6.6460649147948541e+00  -6.5405674237366576e+00  -6.4350091541513779e+00  -6.3295085106923459e+00  -6.2239717960248697e+00  -6.1184768688545219e+00  -6.0129643901149317e+00  -5.9074813599301308e+00  -5.8019901214305625e+00  -5.6965177047608231e+00  -5.5910406466021971e+00  -5.4855744803189399e+00  -5.3801050930993011e+00  -5.2746416189709953e+00  -5.1691758213912857e+00  -5.0637131670647113e+00  -4.9582489195835091e+00  -4.8527863616711500e+00  -4.7473227743777136e+00  -4.6418601182267105e+00  -4.5363968252529778e+00  -4.4309340576932170e+00  -4.3254709063811996e+00  -4.2200080562055993e+00  -4.1145449778975394e+00  -4.0090820734807986e+00  -3.9036190341570909e+00  -3.7981560953794711e+00  -3.6926930767989705e+00  -3.5872301161478020e+00  -3.4817671080556094e+00  -3.3763041330427233e+00  -3.2708411295397468e+00  -3.1653781446044151e+00  -3.0599151422643436e+00  -2.9544521500116216e+00  -2.8489891468371020e+00  -2.7435261487923213e+00  -2.6380631436180768e+00  -2.5326001406757190e+00  -2.4271371328239990e+00  -2.3216741255136051e+00  -2.2162111145978360e+00  -2.1107481032460846e+00  -2.0052850890670735e+00  -1.8998220739098828e+00  -1.7943590564241336e+00  -1.6888960377210505e+00  -1.5834330171094206e+00  -1.4779699953765497e+00  -1.3725069724282966e+00  -1.2670439493555341e+00  -1.1615809276128548e+00  -1.0561179116078105e+00  -9.5065491220102394e-01  -8.4519195935124936e-01  -7.3972913588981726e-01  -6.3426667543622484e-01  -5.2880524033918064e-01  -4.2334674183019844e-01  -3.1789633350472357e-01  -2.1247616552994930e-01  -1.0701453580620179e-01  -4.3075528371319801e-03  -8.4317227103132204e+00  -8.3215494751427386e+00  -8.2064084284003123e+00  -8.0933826461892728e+00  -7.9799002959320431e+00  -7.8695725792515923e+00  -7.7602084937389062e+00  -7.6524901476691323e+00  -7.5454807411315246e+00  -7.4390555054874339e+00  -7.3330325377329952e+00  -7.2271500727610984e+00  -7.1214879411908925e+00  -7.0158186652924295e+00  -6.9102690589198073e+00  -6.8046809492769738e+00  -6.6991599780648743e+00  -6.5936043318876125e+00  -6.4880874543164913e+00  -6.3825483300475936e+00  -6.2770356664061628e+00  -6.1715142087509367e+00  -6.0660138613838166e+00  -5.9605128856786074e+00  -5.8550277102087787e+00  -5.7495440777313949e+00  -5.6440705159537421e+00  -5.5385978940715352e+00  -5.4331308242090506e+00  -5.3276638215652294e+00  -5.2221996068830503e+00  -5.1167350519040919e+00  -5.0112718498007851e+00  -4.9058082557109151e+00  -4.8003453294123632e+00  -4.6948820956700574e+00  -4.5894192070232069e+00  -4.4839561110014499e+00  -4.3784932020295226e+00  -4.2730301626399338e+00  -4.1675672280553320e+00  -4.0621042139724537e+00  -3.9566412595346656e+00  -3.8511782571314046e+00  -3.7457152886946936e+00  -3.6402522912394697e+00  -3.5347893128801671e+00  -3.4293263167313444e+00  -3.3238633309992749e+00  -3.2184003340887957e+00  -3.1129373425175269e+00  -3.0074743436461366e+00  -2.9020113471433300e+00  -2.7965483456103031e+00  -2.6910853447083363e+00  -2.5856223401024661e+00  -2.4801593351100872e+00  -2.3746963271865238e+00  -2.2692333182760831e+00  -2.1637703068787659e+00  -2.0583072941296310e+00  -1.9528442791333518e+00  -1.8473812625380372e+00  -1.7419182437865293e+00  -1.6364552232178009e+00  -1.5309922004520746e+00  -1.4255291756505784e+00  -1.3200661486