<?xml version="1.0"?>
<VTKFile type="UnstructuredGrid"  version="0.1"  >
<UnstructuredGrid>
<Piece  NumberOfPoints="1369" NumberOfCells="2560">
<Points>
<DataArray  type="Float64"  NumberOfComponents="3"  format="ascii">0 0 0  0.75 0 0  1.5 0 0  2.25 0 0  3 0 0  3.75 0 0  4.5 0 0  5.25 0 0  6 0 0  6.75 0 0  7.5 0 0  8.25 0 0  9 0 0  9.75 0 0  10.5 0 0  11.25 0 0  12 0 0  12.75 0 0  13.5 0 0  14.25 0 0  15 0 0  15.75 0 0  16.5 0 0  17.25 0 0  18 0 0  18.75 0 0  19.5 0 0  20.25 0 0  21 0 0  21.75 0 0  22.5 0 0  23.25 0 0  24 0 0  24.75 0 0  25.5 0 0  26.25 0 0  27 0 0  27.75 0 0  28.5 0 0  29.25 0 0  30 0 0  30.75 0 0  31.5 0 0  32.25 0 0  33 0 0  33.75 0 0  34.5 0 0  35.25 0 0  36 0 0  36.75 0 0  37.5 0 0  38.25 0 0  39 0 0  39.75 0 0  40.5 0 0  41.25 0 0  42 0 0  42.75 0 0  43.5 0 0  44.25 0 0  45 0 0  45.75 0 0  46.5 0 0  47.25 0 0  48 0 0  48.75 0 0  49.5 0 0  50.25 0 0  51 0 0  51.75 0 0  52.5 0 0  53.25 0 0  54 0 0  54.75 0 0  55.5 0 0  56.25 0 0  57 0 0  57.75 0 0  58.5 0 0  59.25 0 0  60 0 0  0 0.5 0  0.75 0.5 0  1.5 0.5 0  2.25 0.5 0  3 0.5 0  3.75 0.5 0  4.5 0.5 0  5.25 0.5 0  6 0.5 0  6.75 0.5 0  7.5 0.5 0  8.25 0.5 0  9 0.5 0  9.75 0.5 0  10.5 0.5 0  11.25 0.5 0  12 0.5 0  12.75 0.5 0  13.5 0.5 0  14.25 0.5 0  15 0.5 0  15.75 0.5 0  16.5 0.5 0  17.25 0.5 0  18 0.5 0  18.75 0.5 0  19.5 0.5 0  20.25 0.5 0  21 0.5 0  21.75 0.5 0  22.5 0.5 0  23.25 0.5 0  24 0.5 0  24.75 0.5 0  25.5 0.5 0  26.25 0.5 0  27 0.5 0  27.75 0.5 0  28.5 0.5 0  29.25 0.5 0  30 0.5 0  30.75 0.5 0  31.5 0.5 0  32.25 0.5 0  33 0.5 0  33.75 0.5 0  34.5 0.5 0  35.25 0.5 0  36 0.5 0  36.75 0.5 0  37.5 0.5 0  38.25 0.5 0  39 0.5 0  39.75 0.5 0  40.5 0.5 0  41.25 0.5 0  42 0.5 0  42.75 0.5 0  43.5 0.5 0  44.25 0.5 0  45 0.5 0  45.75 0.5 0  46.5 0.5 0  47.25 0.5 0  48 0.5 0  48.75 0.5 0  49.5 0.5 0  50.25 0.5 0  51 0.5 0  51.75 0.5 0  52.5 0.5 0  53.25 0.5 0  54 0.5 0  54.75 0.5 0  55.5 0.5 0  56.25 0.5 0  57 0.5 0  57.75 0.5 0  58.5 0.5 0  59.25 0.5 0  60 0.5 0  0 1 0  0.75 1 0  1.5 1 0  2.25 1 0  3 1 0  3.75 1 0  4.5 1 0  5.25 1 0  6 1 0  6.75 1 0  7.5 1 0  8.25 1 0  9 1 0  9.75 1 0  10.5 1 0  11.25 1 0  12 1 0  12.75 1 0  13.5 1 0  14.25 1 0  15 1 0  15.75 1 0  16.5 1 0  17.25 1 0  18 1 0  18.75 1 0  19.5 1 0  20.25 1 0  21 1 0  21.75 1 0  22.5 1 0  23.25 1 0  24 1 0  24.75 1 0  25.5 1 0  26.25 1 0  27 1 0  27.75 1 0  28.5 1 0  29.25 1 0  30 1 0  30.75 1 0  31.5 1 0  32.25 1 0  33 1 0  33.75 1 0  34.5 1 0  35.25 1 0  36 1 0  36.75 1 0  37.5 1 0  38.25 1 0  39 1 0  39.75 1 0  40.5 1 0  41.25 1 0  42 1 0  42.75 1 0  43.5 1 0  44.25 1 0  45 1 0  45.75 1 0  46.5 1 0  47.25 1 0  48 1 0  48.75 1 0  49.5 1 0  50.25 1 0  51 1 0  51.75 1 0  52.5 1 0  53.25 1 0  54 1 0  54.75 1 0  55.5 1 0  56.25 1 0  57 1 0  57.75 1 0  58.5 1 0  59.25 1 0  60 1 0  0 1.5 0  0.75 1.5 0  1.5 1.5 0  2.25 1.5 0  3 1.5 0  3.75 1.5 0  4.5 1.5 0  5.25 1.5 0  6 1.5 0  6.75 1.5 0  7.5 1.5 0  8.25 1.5 0  9 1.5 0  9.75 1.5 0  10.5 1.5 0  11.25 1.5 0  12 1.5 0  12.75 1.5 0  13.5 1.5 0  14.25 1.5 0  15 1.5 0  15.75 1.5 0  16.5 1.5 0  17.25 1.5 0  18 1.5 0  18.75 1.5 0  19.5 1.5 0  20.25 1.5 0  21 1.5 0  21.75 1.5 0  22.5 1.5 0  23.25 1.5 0  24 1.5 0  24.75 1.5 0  25.5 1.5 0  26.25 1.5 0  27 1.5 0  27.75 1.5 0  28.5 1.5 0  29.25 1.5 0  30 1.5 0  30.75 1.5 0  31.5 1.5 0  32.25 1.5 0  33 1.5 0  33.75 1.5 0  34.5 1.5 0  35.25 1.5 0  36 1.5 0  36.75 1.5 0  37.5 1.5 0  38.25 1.5 0  39 1.5 0  39.75 1.5 0  40.5 1.5 0  41.25 1.5 0  42 1.5 0  42.75 1.5 0  43.5 1.5 0  44.25 1.5 0  45 1.5 0  45.75 1.5 0  46.5 1.5 0  47.25 1.5 0  48 1.5 0  48.75 1.5 0  49.5 1.5 0  50.25 1.5 0  51 1.5 0  51.75 1.5 0  52.5 1.5 0  53.25 1.5 0  54 1.5 0  54.75 1.5 0  55.5 1.5 0  56.25 1.5 0  57 1.5 0  57.75 1.5 0  58.5 1.5 0  59.25 1.5 0  60 1.5 0  0 2 0  0.75 2 0  1.5 2 0  2.25 2 0  3 2 0  3.75 2 0  4.5 2 0  5.25 2 0  6 2 0  6.75 2 0  7.5 2 0  8.25 2 0  9 2 0  9.75 2 0  10.5 2 0  11.25 2 0  12 2 0  12.75 2 0  13.5 2 0  14.25 2 0  15 2 0  15.75 2 0  16.5 2 0  17.25 2 0  18 2 0  18.75 2 0  19.5 2 0  20.25 2 0  21 2 0  21.75 2 0  22.5 2 0  23.25 2 0  24 2 0  24.75 2 0  25.5 2 0  26.25 2 0  27 2 0  27.75 2 0  28.5 2 0  29.25 2 0  30 2 0  30.75 2 0  31.5 2 0  32.25 2 0  33 2 0  33.75 2 0  34.5 2 0  35.25 2 0  36 2 0  36.75 2 0  37.5 2 0  38.25 2 0  39 2 0  39.75 2 0  40.5 2 0  41.25 2 0  42 2 0  42.75 2 0  43.5 2 0  44.25 2 0  45 2 0  45.75 2 0  46.5 2 0  47.25 2 0  48 2 0  48.75 2 0  49.5 2 0  50.25 2 0  51 2 0  51.75 2 0  52.5 2 0  53.25 2 0  54 2 0  54.75 2 0  55.5 2 0  56.25 2 0  57 2 0  57.75 2 0  58.5 2 0  59.25 2 0  60 2 0  0 2.5 0  0.75 2.5 0  1.5 2.5 0  2.25 2.5 0  3 2.5 0  3.75 2.5 0  4.5 2.5 0  5.25 2.5 0  6 2.5 0  6.75 2.5 0  7.5 2.5 0  8.25 2.5 0  9 2.5 0  9.75 2.5 0  10.5 2.5 0  11.25 2.5 0  12 2.5 0  12.75 2.5 0  13.5 2.5 0  14.25 2.5 0  15 2.5 0  15.75 2.5 0  16.5 2.5 0  17.25 2.5 0  18 2.5 0  18.75 2.5 0  19.5 2.5 0  20.25 2.5 0  21 2.5 0  21.75 2.5 0  22.5 2.5 0  23.25 2.5 0  24 2.5 0  24.75 2.5 0  25.5 2.5 0  26.25 2.5 0  27 2.5 0  27.75 2.5 0  28.5 2.5 0  29.25 2.5 0  30 2.5 0  30.75 2.5 0  31.5 2.5 0  32.25 2.5 0  33 2.5 0  33.75 2.5 0  34.5 2.5 0  35.25 2.5 0  36 2.5 0  36.75 2.5 0  37.5 2.5 0  38.25 2.5 0  39 2.5 0  39.75 2.5 0  40.5 2.5 0  41.25 2.5 0  42 2.5 0  42.75 2.5 0  43.5 2.5 0  44.25 2.5 0  45 2.5 0  45.75 2.5 0  46.5 2.5 0  47.25 2.5 0  48 2.5 0  48.75 2.5 0  49.5 2.5 0  50.25 2.5 0  51 2.5 0  51.75 2.5 0  52.5 2.5 0  53.25 2.5 0  54 2.5 0  54.75 2.5 0  55.5 2.5 0  56.25 2.5 0  57 2.5 0  57.75 2.5 0  58.5 2.5 0  59.25 2.5 0  60 2.5 0  0 3 0  0.75 3 0  1.5 3 0  2.25 3 0  3 3 0  3.75 3 0  4.5 3 0  5.25 3 0  6 3 0  6.75 3 0  7.5 3 0  8.25 3 0  9 3 0  9.75 3 0  10.5 3 0  11.25 3 0  12 3 0  12.75 3 0  13.5 3 0  14.25 3 0  15 3 0  15.75 3 0  16.5 3 0  17.25 3 0  18 3 0  18.75 3 0  19.5 3 0  20.25 3 0  21 3 0  21.75 3 0  22.5 3 0  23.25 3 0  24 3 0  24.75 3 0  25.5 3 0  26.25 3 0  27 3 0  27.75 3 0  28.5 3 0  29.25 3 0  30 3 0  30.75 3 0  31.5 3 0  32.25 3 0  33 3 0  33.75 3 0  34.5 3 0  35.25 3 0  36 3 0  36.75 3 0  37.5 3 0  38.25 3 0  39 3 0  39.75 3 0  40.5 3 0  41.25 3 0  42 3 0  42.75 3 0  43.5 3 0  44.25 3 0  45 3 0  45.75 3 0  46.5 3 0  47.25 3 0  48 3 0  48.75 3 0  49.5 3 0  50.25 3 0  51 3 0  51.75 3 0  52.5 3 0  53.25 3 0  54 3 0  54.75 3 0  55.5 3 0  56.25 3 0  57 3 0  57.75 3 0  58.5 3 0  59.25 3 0  60 3 0  0 3.5 0  0.75 3.5 0  1.5 3.5 0  2.25 3.5 0  3 3.5 0  3.75 3.5 0  4.5 3.5 0  5.25 3.5 0  6 3.5 0  6.75 3.5 0  7.5 3.5 0  8.25 3.5 0  9 3.5 0  9.75 3.5 0  10.5 3.5 0  11.25 3.5 0  12 3.5 0  12.75 3.5 0  13.5 3.5 0  14.25 3.5 0  15 3.5 0  15.75 3.5 0  16.5 3.5 0  17.25 3.5 0  18 3.5 0  18.75 3.5 0  19.5 3.5 0  20.25 3.5 0  21 3.5 0  21.75 3.5 0  22.5 3.5 0  23.25 3.5 0  24 3.5 0  24.75 3.5 0  25.5 3.5 0  26.25 3.5 0  27 3.5 0  27.75 3.5 0  28.5 3.5 0  29.25 3.5 0  30 3.5 0  30.75 3.5 0  31.5 3.5 0  32.25 3.5 0  33 3.5 0  33.75 3.5 0  34.5 3.5 0  35.25 3.5 0  36 3.5 0  36.75 3.5 0  37.5 3.5 0  38.25 3.5 0  39 3.5 0  39.75 3.5 0  40.5 3.5 0  41.25 3.5 0  42 3.5 0  42.75 3.5 0  43.5 3.5 0  44.25 3.5 0  45 3.5 0  45.75 3.5 0  46.5 3.5 0  47.25 3.5 0  48 3.5 0  48.75 3.5 0  49.5 3.5 0  50.25 3.5 0  51 3.5 0  51.75 3.5 0  52.5 3.5 0  53.25 3.5 0  54 3.5 0  54.75 3.5 0  55.5 3.5 0  56.25 3.5 0  57 3.5 0  57.75 3.5 0  58.5 3.5 0  59.25 3.5 0  60 3.5 0  0 4 0  0.75 4 0  1.5 4 0  2.25 4 0  3 4 0  3.75 4 0  4.5 4 0  5.25 4 0  6 4 0  6.75 4 0  7.5 4 0  8.25 4 0  9 4 0  9.75 4 0  10.5 4 0  11.25 4 0  12 4 0  12.75 4 0  13.5 4 0  14.25 4 0  15 4 0  15.75 4 0  16.5 4 0  17.25 4 0  18 4 0  18.75 4 0  19.5 4 0  20.25 4 0  21 4 0  21.75 4 0  22.5 4 0  23.25 4 0  24 4 0  24.75 4 0  25.5 4 0  26.25 4 0  27 4 0  27.75 4 0  28.5 4 0  29.25 4 0  30 4 0  30.75 4 0  31.5 4 0  32.25 4 0  33 4 0  33.75 4 0  34.5 4 0  35.25 4 0  36 4 0  36.75 4 0  37.5 4 0  38.25 4 0  39 4 0  39.75 4 0  40.5 4 0  41.25 4 0  42 4 0  42.75 4 0  43.5 4 0  44.25 4 0  45 4 0  45.75 4 0  46.5 4 0  47.25 4 0  48 4 0  48.75 4 0  49.5 4 0  50.25 4 0  51 4 0  51.75 4 0  52.5 4 0  53.25 4 0  54 4 0  54.75 4 0  55.5 4 0  56.25 4 0  57 4 0  57.75 4 0  58.5 4 0  59.25 4 0  60 4 0  0.375 0.25 0  1.125 0.25 0  1.875 0.25 0  2.625 0.25 0  3.375 0.25 0  4.125 0.25 0  4.875 0.25 0  5.625 0.25 0  6.375 0.25 0  7.125 0.25 0  7.875 0.25 0  8.625 0.25 0  9.375 0.25 0  10.125 0.25 0  10.875 0.25 0  11.625 0.25 0  12.375 0.25 0  13.125 0.25 0  13.875 0.25 0  14.625 0.25 0  15.375 0.25 0  16.125 0.25 0  16.875 0.25 0  17.625 0.25 0  18.375 0.25 0  19.125 0.25 0  19.875 0.25 0  20.625 0.25 0  21.375 0.25 0  22.125 0.25 0  22.875 0.25 0  23.625 0.25 0  24.375 0.25 0  25.125 0.25 0  25.875 0.25 0  26.625 0.25 0  27.375 0.25 0  28.125 0.25 0  28.875 0.25 0  29.625 0.25 0  30.375 0.25 0  31.125 0.25 0  31.875 0.25 0  32.625 0.25 0  33.375 0.25 0  34.125 0.25 0  34.875 0.25 0  35.625 0.25 0  36.375 0.25 0  37.125 0.25 0  37.875 0.25 0  38.625 0.25 0  39.375 0.25 0  40.125 0.25 0  40.875 0.25 0  41.625 0.25 0  42.375 0.25 0  43.125 0.25 0  43.875 0.25 0  44.625 0.25 0  45.375 0.25 0  46.125 0.25 0  46.875 0.25 0  47.625 0.25 0  48.375 0.25 0  49.125 0.25 0  49.875 0.25 0  50.625 0.25 0  51.375 0.25 0  52.125 0.25 0  52.875 0.25 0  53.625 0.25 0  54.375 0.25 0  55.125 0.25 0  55.875 0.25 0  56.625 0.25 0  57.375 0.25 0  58.125 0.25 0  58.875 0.25 0  59.625 0.25 0  0.375 0.75 0  1.125 0.75 0  1.875 0.75 0  2.625 0.75 0  3.375 0.75 0  4.125 0.75 0  4.875 0.75 0  5.625 0.75 0  6.375 0.75 0  7.125 0.75 0  7.875 0.75 0  8.625 0.75 0  9.375 0.75 0  10.125 0.75 0  10.875 0.75 0  11.625 0.75 0  12.375 0.75 0  13.125 0.75 0  13.875 0.75 0  14.625 0.75 0  15.375 0.75 0  16.125 0.75 0  16.875 0.75 0  17.625 0.75 0  18.375 0.75 0  19.125 0.75 0  19.875 0.75 0  20.625 0.75 0  21.375 0.75 0  22.125 0.75 0  22.875 0.75 0  23.625 0.75 0  24.375 0.75 0  25.125 0.75 0  25.875 0.75 0  26.625 0.75 0  27.375 0.75 0  28.125 0.75 0  28.875 0.75 0  29.625 0.75 0  30.375 0.75 0  31.125 0.75 0  31.875 0.75 0  32.625 0.75 0  33.375 0.75 0  34.125 0.75 0  34.875 0.75 0  35.625 0.75 0  36.375 0.75 0  37.125 0.75 0  37.875 0.75 0  38.625 0.75 0  39.375 0.75 0  40.125 0.75 0  40
[...]
<PointData  Scalars="f_8-1"> 
<DataArray  type="Float64"  Name="f_8-1"  format="ascii">-1.0689692767739912e+01  -1.0558225549618882e+01  -1.0423967360567708e+01  -1.0290618315368297e+01  -1.0157086806246150e+01  -1.0023544167508948e+01  -9.8899306747968723e+00  -9.7562887387230415e+00  -9.6226237419819967e+00  -9.4889508326663119e+00  -9.3552734243359357e+00  -9.2216011778679228e+00  -9.0879378800083153e+00  -8.9542841209383628e+00  -8.8206365541482032e+00  -8.6869925133841619e+00  -8.5533499187362487e+00  -8.4197079354943423e+00  -8.2860661198020154e+00  -8.1524243822362354e+00  -8.0187826589814346e+00  -7.8851409504470995e+00  -7.7514992427805991e+00  -7.6178575369042507e+00  -7.4842158287085585e+00  -7.3505741180034132e+00  -7.2169324039216045e+00  -7.0832906860632061e+00  -6.9496489644919786e+00  -6.8160072388422144e+00  -6.6823655093393537e+00  -6.5487237757205365e+00  -6.4150820381705715e+00  -6.2814402965256768e+00  -6.1477985509025190e+00  -6.0141568012088396e+00  -5.8805150475093768e+00  -5.7468732897560839e+00  -5.6132315279819203e+00  -5.4795897621634468e+00  -5.3459479923163578e+00  -5.2123062184298563e+00  -5.0786644405109822e+00  -4.9450226585550379e+00  -4.8113808725650236e+00  -4.6777390825389249e+00  -4.5440972884779960e+00  -4.4104554903814224e+00  -4.2768136882496579e+00  -4.1431718820824077e+00  -4.0095300718797970e+00  -3.8758882576416425e+00  -3.7422464393679382e+00  -3.6086046170584738e+00  -3.4749627907130107e+00  -3.3413209603310827e+00  -3.2076791259119455e+00  -3.0740372874540642e+00  -2.9403954449548579e+00  -2.8067535984088514e+00  -2.6731117478061877e+00  -2.5394698931260753e+00  -2.4058280343290295e+00  -2.2721861713328293e+00  -2.1385443039777798e+00  -2.0049024319383948e+00  -1.8712605545832568e+00  -1.7376186706627768e+00  -1.6039767777988010e+00  -1.4703348714554310e+00  -1.3366929432998549e+00  -1.2030509780887140e+00  -1.0694089495641965e+00  -9.3576680553848646e-01  -8.0212448945419390e-01  -6.6848155164707168e-01  -5.3483944772657344e-01  -4.0118284764190115e-01  -2.6760410093688769e-01  -1.3348362441428122e-01  -2.9158038623982412e-03  -1.0692518586001205e+01  -1.0557949616508278e+01  -1.0424164270439544e+01  -1.0290650008132518e+01  -1.0157149684069305e+01  -1.0023591292180207e+01  -9.8899891693378326e+00  -9.7563445380228000e+00  -9.6226841659883746e+00  -9.4890104785901688e+00  -9.3553336428556246e+00  -9.2216590419979969e+00  -9.0879951030982209e+00  -8.9543403769949723e+00  -8.8206928353313092e+00  -8.6870485994231430e+00  -8.5534061148778164e+00  -8.4197640749860323e+00  -8.2861223065507890e+00  -8.1524805425214577e+00  -8.0188388365259051e+00  -7.8851971167785253e+00  -7.7515554157578048e+00  -7.6179137056072594e+00  -7.4842719998766452e+00  -7.3506302877085323e+00  -7.2169885744051818e+00  -7.0833468561584194e+00  -6.9497051347401753e+00  -6.8160634090655385e+00  -6.6824216795254339e+00  -6.5487799459718898e+00  -6.4151382083533601e+00  -6.2814964667738344e+00  -6.1478547210967616e+00  -6.0142129714482051e+00  -5.8805712177152873e+00  -5.7469294599886247e+00  -5.6132876981963538e+00  -5.4796459323922537e+00  -5.3460041625364179e+00  -5.2123623886573016e+00  -5.0787206107347291e+00  -4.9450788287825729e+00  -4.8114370427913391e+00  -4.6777952527673197e+00  -4.5441534587063339e+00  -4.4105116606110526e+00  -4.2768698584797278e+00  -4.1432280523134555e+00  -4.0095862421114745e+00  -3.8759444278741446e+00  -3.7423026096011567e+00  -3.6086607872924499e+00  -3.4750189609477542e+00  -3.3413771305666020e+00  -3.2077352961484156e+00  -3.0740934576916836e+00  -2.9404516151943771e+00  -2.8068097686515396e+00  -2.6731679180552685e+00  -2.5395260633878460e+00  -2.4058842046171187e+00  -2.2722423416751618e+00  -2.1386004744310578e+00  -2.0049586026178652e+00  -1.8713167257158747e+00  -1.7376748426997346e+00  -1.6040329516113061e+00  -1.4703910487549161e+00  -1.3367491273544090e+00  -1.2031071753787803e+00  -1.0694651720702850e+00  -9.3582308570612571e-01  -8.0218084958486224e-01  -6.6853846608418588e-01  -5.3489499723671219e-01  -4.0125537836678471e-01  -2.6757921744490587e-01  -1.3413704883498975e-01  5.4204108549858548e-04  -1.0691982583697165e+01  -1.0558298654473239e+01  -1.0424290274104838e+01  -1.0290782439593793e+01  -1.0157193220409329e+01  -1.0023648408203890e+01  -9.8900273019980141e+00  -9.7563964574340503e+00  -9.6227311569286353e+00  -9.4890657871090252e+00  -9.3553865904556996e+00  -9.2217140551100965e+00  -9.0880477210002280e+00  -8.9543933820489556e+00  -8.8207445959895399e+00  -8.6871005458730188e+00  -8.5534575790912299e+00  -8.4198156915558968e+00  -8.2861737536711146e+00  -8.1525320744951717e+00  -8.0188903038897035e+00  -7.8852486222436671e+00  -7.7516068951817392e+00  -7.6179652008354886e+00  -7.4843234848107967e+00  -7.3506817787617633e+00  -7.2170400617295165e+00  -7.0833983455558522e+00  -6.9497566230264942e+00  -6.8161148978640620e+00  -6.6824731681477010e+00  -6.5488314345929668e+00  -6.4151896970632993e+00  -6.2815479553676390e+00  -6.1479062098108832e+00  -6.0142644600574080e+00  -5.8806227064139378e+00  -5.7469809486184431e+00  -5.6133391868805482e+00  -5.4796974210378400e+00  -5.3460556512115431e+00  -5.2124138773130673e+00  -5.0787720994054446e+00  -4.9451303174445567e+00  -4.8114885314606353e+00  -4.6778467414332106e+00  -4.5442049473758663e+00  -4.4105631492796631e+00  -4.2769213471503500e+00  -4.1432795409842305e+00  -4.0096377307835880e+00  -3.8759959165469038e+00  -3.7423540982750088e+00  -3.6087122759671990e+00  -3.4750704496235869e+00  -3.3414286192435538e+00  -3.2077867848265371e+00  -3.0741449463711832e+00  -2.9405031038751193e+00  -2.8068612573338236e+00  -2.6732194067381632e+00  -2.5395775520711390e+00  -2.4059356932967022e+00  -2.2722938303471776e+00  -2.1386519630788055e+00  -2.0050100912182747e+00  -1.8713682141996781e+00  -1.7377263309445841e+00  -1.6040844392936349e+00  -1.4704425351597095e+00  -1.3368006104815819e+00  -1.2031586498189291e+00  -1.0695166228129582e+00  -9.3587446950224740e-01  -8.0223206462632668e-01  -6.6858909858134086e-01  -5.3494497487786552e-01  -4.0129688329887175e-01  -2.6764547244154324e-01  -1.3393440965645209e-01  -1.5769500834548500e-05  -1.0692116348956150e+01  -1.0558179639584928e+01  -1.0424469894263975e+01  -1.0290747841627418e+01  -1.0157217219510121e+01  -1.0023597224060831e+01  -9.8900136822366402e+00  -9.7563620167451575e+00  -9.6227181494847454e+00  -9.4890448663119340e+00  -9.3553773268192781e+00  -9.2217023407271270e+00  -9.0880397619872078e+00  -8.9543820398828640e+00  -8.8207334554186811e+00  -8.6870873728603701e+00  -8.5534445164942259e+00  -8.4198018930688114e+00  -8.2861601422427356e+00  -8.1525182205192301e+00  -8.0188765634319399e+00  -7.8852347914021355e+00  -7.7515931160290332e+00  -7.6179513854233063e+00  -7.4843096909479465e+00  -7.3506679706505365e+00  -7.2170262619426193e+00  -7.0833845406701768e+00  -6.9497428209199033e+00  -6.8161010942785820e+00  -6.6824593652143323e+00  -6.5488176314552096e+00  -6.4151758938905230e+00  -6.2815341523404351e+00  -6.1478924066045249e+00  -6.0142506570288585e+00  -5.8806089032305842e+00  -5.7469671455635796e+00  -5.6133253837256305e+00  -5.4796836179594255e+00  -5.3460418480772383e+00  -5.2124000742193282e+00  -5.0787582962834419e+00  -4.9451165143423097e+00  -4.8114747283451695e+00  -4.6778329383267536e+00  -4.5441911442636513e+00  -4.4105493461713667e+00  -4.2769075440397373e+00  -4.1432657378753071e+00  -4.0096239276738759e+00  -3.8759821134380275e+00  -3.7423402951660645e+00  -3.6086984728588725e+00  -3.4750566465156254e+00  -3.3414148161362971e+00  -3.2077729817199216e+00  -3.0741311432652187e+00  -2.9404893007691895e+00  -2.8068474542263364e+00  -2.6732056036250671e+00  -2.5395637489428959e+00  -2.4059218901331105e+00  -2.2722800271039874e+00  -2.1386381596672828e+00  -2.0049962874528999e+00  -1.8713544097141173e+00  -1.7377125249882175e+00  -1.6040706303604479e+00  -1.4704287200839856e+00  -1.3367867825172928e+00  -1.2031447936804969e+00  -1.0695027019483243e+00  -9.3586039111389874e-01  -8.0221758189814507e-01  -6.6857357259838390e-01  -5.3492650833044131e-01  -4.0127155351109778e-01  -2.6759491489845422e-01  -1.3385738085602483e-01  -4.2058841030479059e-06  -1.0692057759138862e+01  -1.0558239782656081e+01  -1.0424431522141052e+01  -1.0290804981168936e+01  -1.0157170220561737e+01  -1.0023611612121616e+01  -9.8899792801722146e+00  -9.7563620939301696e+00  -9.6226973515781768e+00  -9.4890405163768676e+00  -9.3553642046090211e+00  -9.2216975211665346e+00  -9.0880306071930281e+00  -8.9543756431488273e+00  -8.8207243819947418e+00  -8.6870792562111596e+00  -8.5534351796532100e+00  -8.4197930485054400e+00  -8.2861508213381700e+00  -8.1525091505341578e+00  -8.0188673055971105e+00  -7.8852256471107012e+00  -7.7515838946589257e+00  -7.6179422124062528e+00  -7.4843004863113380e+00  -7.3506587856958596e+00  -7.2170170646691565e+00  -7.0833753507473602e+00  -6.9497336267463989e+00  -6.8160919024022135e+00  -6.6824501722268819e+00  -6.5488084389023600e+00  -6.4151667012830487e+00  -6.2815249596103584e+00  -6.1478832140745725e+00  -6.0142414642898752e+00  -5.8805997106852956e+00  -5.7469579528564738e+00  -5.6133161911489706e+00  -5.4796744252832541e+00  -5.3460326554756801e+00  -5.2123908815639730e+00  -5.0787491036664756e+00  -4.9451073216988197e+00  -4.8114655357198979e+00  -4.6778237456893281e+00  -4.5441819516343385e+00  -4.4105401535368429e+00  -4.2768983514086782e+00  -4.1432565452421963e+00  -4.0096147350422537e+00  -3.8759729208057787e+00  -3.7423311025346355e+00  -3.6086892802275683e+00  -3.4750474538851401e+00  -3.3414056235065863e+00  -3.2077637890915427e+00  -3.0741219506384363e+00  -2.9404801081445631e+00  -2.8068382616040579e+00  -2.6731964110049864e+00  -2.5395545563229618e+00  -2.4059126975080281e+00  -2.2722708344592721e+00  -2.1386289669721354e+00  -2.0049870946375807e+00  -1.8713452166372828e+00  -1.7377033313493875e+00  -1.6040614355476677e+00  -1.4704195227855956e+00  -1.3367775799087396e+00  -1.2031355792845875e+00  -1.0694934602084349e+00  -9.3585108209164625e-01  -8.0220810060668590e-01  -6.6856363347534575e-01  -5.3491535473014373e-01  -4.0125704148003793e-01  -2.6757216071103518e-01  -1.3382719902704762e-01  -8.1349659107372128e-06  -1.0692116351337344e+01  -1.0558179633791967e+01  -1.0424469879982588e+01  -1.0290747829643424e+01  -1.0157217227829900e+01  -1.0023597246849459e+01  -9.8900137150252512e+00  -9.7563620523750600e+00  -9.6227181816918517e+00  -9.4890448927008855e+00  -9.3553773498787987e+00  -9.2217023600846151e+00  -9.0880397763055978e+00  -8.9543820494178110e+00  -8.8207334621971771e+00  -8.6870873790379566e+00  -8.5534445234747931e+00  -8.4198019013743064e+00  -8.2861601518706181e+00  -8.1525182312339304e+00  -8.0188765749677042e+00  -7.8852348035279656e+00  -7.7515931285720079e+00  -7.6179513982574303e+00  -7.4843097039854651e+00  -7.3506679838292674e+00  -7.2170262752196601e+00  -7.0833845540152502e+00  -6.9497428343120928e+00  -6.8161011077032283e+00  -6.6824593786613828e+00  -6.5488176449176185e+00  -6.4151759073634969e+00  -6.2815341658206414e+00  -6.1478924200896996e+00  -6.0142506705174243e+00  -5.8806089167214664e+00  -5.7469671590560623e+00  -5.6133253972191905e+00  -5.4796836314537352e+00  -5.3460418615720728e+00  -5.2124000877145225e+00  -5.0787583097788893e+00  -4.9451165278379445e+00  -4.8114747418409429e+00  -4.6778329518226442e+00  -4.5441911577596601e+00  -4.4105493596674936e+00  -4.2769075575360453e+00  -4.1432657513718345e+00  -4.0096239411707240e+00  -3.8759821269353307e+00  -3.7423403086640294e+00  -3.6086984863578020e+00  -3.4750566600159734e+00  -3.3414148296387394e+00  -3.2077729952254463e+00  -3.0741311567752581e+00  -2.9404893142858870e+00  -2.8068474677528403e+00  -2.6732056171660545e+00  -2.5395637625052965e+00  -2.4059219037272066e+00  -2.2722800407450685e+00  -2.1386381733781339e+00  -2.0049963012675054e+00  -1.8713544236832431e+00  -1.7377125391876420e+00  -1.6040706449031696e+00  -1.4704287351380554e+00  -1.3367867983318533e+00  -1.2031448106236662e+00  -1.0695027205617063e+00  -9.3586041218746574e-01  -8.0221760656178043e-01  -6.6857360240341435e-01  -5.3492654522078797e-01  -4.0127159969007115e-01  -2.6759497204303073e-01  -1.3385743699101013e-01  -4.2041917908426525e-06  -1.0691982574926884e+01  -1.0558298664449975e+01  -1.0424290229390904e+01  -1.0290782424271686e+01  -1.0157193237951969e+01  -1.0023648460350898e+01  -9.8900273702251855e+00  -9.7563965316410375e+00  -9.6227312224313586e+00  -9.4890658416926552e+00  -9.3553866380159558e+00  -9.2217140949724925e+00  -9.0880477508763899e+00  -8.9543934032730661e+00  -8.8207446126005564e+00  -8.6871005618883252e+00  -8.5534575968672311e+00  -8.4198157119107311e+00  -8.2861737764801724e+00  -8.1525320992965948e+00  -8.0188903301747576e+00  -7.8852486495944030e+00  -7.7516069232807006e+00  -7.6179652294580213e+00  -7.4843235137971744e+00  -7.3506818080016449e+00  -7.2170400911449875e+00  -7.0833983750932417e+00  -6.9497566526479719e+00  -6.8161149275436514e+00  -6.6824731978672229e+00  -6.5488314643399814e+00  -6.4151897268291398e+00  -6.2815479851464229e+00  -6.1479062395985054e+00  -6.0142644898510813e+00  -5.8806227362117545e+00  -5.7469809784191073e+00  -5.6133392166831415e+00  -5.4796974508417815e+00  -5.3460556810164093e+00  -5.2124139071185835e+00  -5.0787721292114201e+00  -4.9451303472508599e+00  -4.8114885612671863e+00  -4.6778467712399765e+00  -4.5442049771828410e+00  -4.4105631790868740e+00  -4.2769213769578709e+00  -4.1432795707921670e+00  -4.0096377605921072e+00  -3.8759959463562645e+00  -3.7423541280855908e+00  -3.6087123057795663e+00  -3.4750704794385787e+00  -3.3414286490624048e+00  -3.2077868146510702e+00  -3.0741449762040585e+00  -2.9405031337202696e+00  -2.8068612871970786e+00  -2.6732194366281550e+00  -2.5395775820006548e+00  -2.4059357232847045e+00  -2.2722938604218905e+00  -2.1386519932822736e+00  -2.0050101216132337e+00  -1.8713682448798203e+00  -1.7377263620498240e+00  -1.6040844710326685e+00  -1.4704425678430506e+00  -1.3368006445698235e+00  -1.2031586859930368e+00  -1.0695166620752858e+00  -9.3587451331450855e-01  -8.0223211507975856e-01  -6.6858915853103107e-01  -5.3494504804017140e-01  -4.0129697305339374e-01  -2.6764558726335308e-01  -1.3393454432056445e-01  -1.5771974322265201e-05  -1.0692518617004946e+01  -1.0557949597454025e+01  -1.0424164218514289e+01  -1.0290649996289341e+01  -1.0157149720647148e+01  -1.0023591371064290e+01  -9.8899892684411537e+00  -9.7563446413721486e+00  -9.6226842586867143e+00  -9.4890105579465498e+00  -9.3553337116415296e+00  -9.2216590998732659e+00  -9.0879951493722597e+00  -8.9543404141116021e+00  -8.8206928679777512e+00  -8.6870486318481550e+00  -8.5534061495635232e+00  -8.4197641127446161e+00  -8.2861223472154659e+00  -8.1524805855403031e+00  -8.0188388813076781e+00  -7.8851971628268789e+00  -7.7515554626983283e+00  -7.6179137531707983e+00  -7.4842720478737208e+00  -7.3506303360068079e+00  -7.2169886229123508e+00  -7.0833469048102353e+00  -6.9497051834919228e+00  -6.8160634578861945e+00  -6.6824217283935301e+00  -6.5487799948725733e+00  -6.4151382572764035e+00  -6.2814965157122185e+00  -6.1478547700456376e+00  -6.0142130204042576e+00  -5.8805712666762711e+00  -5.7469295089529702e+00  -5.6132877471629969e+00  -5.4796459813604974e+00  -5.3460042115057558e+00  -5.2123624376274051e+00  -5.0787206597053816e+00  -4.9450788777536010e+00  -4.8114370917626745e+00  -4.6777953017388993e+00  -4.5441535076781658e+00  -4.4105117095831661e+00  -4.2768699074522152e+00  -4.1432281012864207e+00  -4.0095862910851290e+00  -3.8759444768487938e+00  -3.7423026585772310e+00  -3.6086608362706283e+00  -3.4750190099290235e+00  -3.3413771795524121e+00  -3.2077353451409114e+00  -3.0740935066939827e+00  -2.9404516642111296e+00  -2.8068098176896079e+00  -2.6731679671248432e+00  -2.5395261125039950e+00  -2.4058842538022440e+00  -2.2722423909626057e+00  -2.1386005238705232e+00  -2.0049586522835523e+00  -1.8713167757186104e+00  -1.7376748932050090e+00  -1.6040330028658845e+00  -1.4703911011258248e+00  -1.3367491813855885e+00  -1.2031072318725962e+00  -1.0694652322021565e+00  -9.3582315117583692e-01  -8.0218092278116981e-01  -6.6853855026504927e-01  -5.3489509592494988e-01  -4.0125549935481819e-01  -2.6757933697407305e-01  -1.3413735247825576e-01  5.4210162144934860e-04  -1.0689691263864933e+01  -1.0558225830341817e+01  -1.0423967275166572e+01  -1.0290618354889276e+01  -1.0157086877324437e+01  -1.0023544284404545e+01  -9.8899308084454098e+00  -9.7562888734548512e+00  -9.6226238647504783e+00  -9.4889509411509216e+00  -9.3552735205538209e+00  -9.2216012623255388e+00  -9.0879379532965991e+00  -8.9542841859948759e+00  -8.8206366155124023e+00  -8.6869925749949974e+00  -8.5533499828701380e+00  -8.4197080028588438e+00  -8.2860661901851174e+00  -8.1524244550584797e+00  -8.0187827336317756e+00  -7.8851410264116844e+00  -7.7514993196716544e+00  -7.6178576144421699e+00  -7.4842159066965213e+00  -7.3505741963039029e+00  -7.2169324824387289e+00  -7.0832907647303216e+00  -6.9496490432626299e+00  -6.8160073176842984e+00  -6.6823655882305619e+00  -6.5487238546455355e+00  -6.4150821171187058e+00  -6.2814403754897148e+00  -6.1477986298774248e+00  -6.0141568801911882e+00  -5.8805151264968369e+00  -5.7468733687470106e+00  -5.6132316069752344e+00  -5.4795898411584165e+00  -5.3459480713124634e+00  -5.2123062974267613e+00  -5.0786645195084450e+00  -4.9450227375528977e+00  -4.8113809515631791e+00  -4.6777391615373300e+00  -4.5440973674766552e+00  -4.4104555693803427e+00  -4.2768137672489281e+00  -4.1431719610821487e+00  -4.0095301508801748e+00  -3.8758883366429573e+00  -3.7422465183705831e+00  -3.6086046960630815e+00  -3.4749628697205086e+00  -3.3413210393428230e+00  -3.2076792049299314e+00  -3.0740373664812060e+00  -2.9403955239954995e+00  -2.8067536774694233e+00  -2.6731118268962319e+00  -2.5394699722597096e+00  -2.4058281135272743e+00  -2.2721862506269894e+00  -2.1385443834145699e+00  -2.0049025115875931e+00  -1.8712606345490981e+00  -1.7376187511008578e+00  -1.6039768589408736e+00  -1.4703349536455430e+00  -1.3366930270464874e+00  -1.2030510641389469e+00  -1.0694090390060795e+00  -9.3576689993074824e-01  -8.0212459096519095e-01  -6.6848166300012424e-01  -5.3483957308960395e-01  -4.0118298222663434e-01  -2.6760430523076467e-01  -1.3348348947350153e-01  -2.9179294651859272e-03  -1.0625623264301256e+01  -1.0491169991840296e+01  -1.0357585976867885e+01  -1.0224073257535508e+01  -1.0090544039628242e+01  -9.9569641575046770e+00  -9.8233380243672492e+00  -9.6896858049319903e+00  -9.5560176001657435e+00  -9.4223426430783093e+00  -9.2886669221748388e+00  -9.1549985961684150e+00  -9.0213396312545111e+00  -8.8876888720521325e+00  -8.7540429983198322e+00  -8.6203996979290274e+00  -8.4867573983127631e+00  -8.3531155095163072e+00  -8.2194737281195653e+00  -8.0858320011460343e+00  -7.9521902831260398e+00  -7.8185485761965516e+00  -7.6849068686551290e+00  -7.5512651620045679e+00  -7.4176234523358549e+00  -7.2839817400284499e+00  -7.1503400240366783e+00  -7.0166983043094078e+00  -6.8830565807303508e+00  -6.7494148531228078e+00  -6.6157731215963587e+00  -6.4821313859869312e+00  -6.3484896464144782e+00  -6.2148479027654560e+00  -6.0812061551228354e+00  -5.9475644034190074e+00  -5.8139226477021868e+00  -5.6802808879359832e+00  -5.5466391241456190e+00  -5.4129973563129790e+00  -5.2793555844502729e+00  -5.1457138085490266e+00  -5.0120720286148019e+00  -4.8784302446438712e+00  -4.7447884566385783e+00  -4.6111466645973973e+00  -4.4775048685212457e+00  -4.3438630684094859e+00  -4.2102212642625174e+00  -4.0765794560800446e+00  -3.9429376438621526e+00  -3.8092958276086999e+00  -3.6756540073195860e+00  -3.5420121829946045e+00  -3.4083703546334037e+00  -3.2747285222354159e+00  -3.1410866857995976e+00  -3.0074448453240334e+00  -2.8738030008051347e+00  -2.7401611522359506e+00  -2.6065192996030908e+00  -2.4728774428794544e+00  -2.3392355820123663e+00  -2.2055937168938211e+00  -2.0719518473134380e+00  -1.9383099728466746e+00  -1.8046680926755911e+00  -1.671026205200