<?xml version="1.0"?>
<VTKFile type="UnstructuredGrid"  version="0.1"  >
<UnstructuredGrid>
<Piece  NumberOfPoints="1369" NumberOfCells="2560">
<Points>
<DataArray  type="Float64"  NumberOfComponents="3"  format="ascii">0 0 0  0.75 0 0  1.5 0 0  2.25 0 0  3 0 0  3.75 0 0  4.5 0 0  5.25 0 0  6 0 0  6.75 0 0  7.5 0 0  8.25 0 0  9 0 0  9.75 0 0  10.5 0 0  11.25 0 0  12 0 0  12.75 0 0  13.5 0 0  14.25 0 0  15 0 0  15.75 0 0  16.5 0 0  17.25 0 0  18 0 0  18.75 0 0  19.5 0 0  20.25 0 0  21 0 0  21.75 0 0  22.5 0 0  23.25 0 0  24 0 0  24.75 0 0  25.5 0 0  26.25 0 0  27 0 0  27.75 0 0  28.5 0 0  29.25 0 0  30 0 0  30.75 0 0  31.5 0 0  32.25 0 0  33 0 0  33.75 0 0  34.5 0 0  35.25 0 0  36 0 0  36.75 0 0  37.5 0 0  38.25 0 0  39 0 0  39.75 0 0  40.5 0 0  41.25 0 0  42 0 0  42.75 0 0  43.5 0 0  44.25 0 0  45 0 0  45.75 0 0  46.5 0 0  47.25 0 0  48 0 0  48.75 0 0  49.5 0 0  50.25 0 0  51 0 0  51.75 0 0  52.5 0 0  53.25 0 0  54 0 0  54.75 0 0  55.5 0 0  56.25 0 0  57 0 0  57.75 0 0  58.5 0 0  59.25 0 0  60 0 0  0 0.5 0  0.75 0.5 0  1.5 0.5 0  2.25 0.5 0  3 0.5 0  3.75 0.5 0  4.5 0.5 0  5.25 0.5 0  6 0.5 0  6.75 0.5 0  7.5 0.5 0  8.25 0.5 0  9 0.5 0  9.75 0.5 0  10.5 0.5 0  11.25 0.5 0  12 0.5 0  12.75 0.5 0  13.5 0.5 0  14.25 0.5 0  15 0.5 0  15.75 0.5 0  16.5 0.5 0  17.25 0.5 0  18 0.5 0  18.75 0.5 0  19.5 0.5 0  20.25 0.5 0  21 0.5 0  21.75 0.5 0  22.5 0.5 0  23.25 0.5 0  24 0.5 0  24.75 0.5 0  25.5 0.5 0  26.25 0.5 0  27 0.5 0  27.75 0.5 0  28.5 0.5 0  29.25 0.5 0  30 0.5 0  30.75 0.5 0  31.5 0.5 0  32.25 0.5 0  33 0.5 0  33.75 0.5 0  34.5 0.5 0  35.25 0.5 0  36 0.5 0  36.75 0.5 0  37.5 0.5 0  38.25 0.5 0  39 0.5 0  39.75 0.5 0  40.5 0.5 0  41.25 0.5 0  42 0.5 0  42.75 0.5 0  43.5 0.5 0  44.25 0.5 0  45 0.5 0  45.75 0.5 0  46.5 0.5 0  47.25 0.5 0  48 0.5 0  48.75 0.5 0  49.5 0.5 0  50.25 0.5 0  51 0.5 0  51.75 0.5 0  52.5 0.5 0  53.25 0.5 0  54 0.5 0  54.75 0.5 0  55.5 0.5 0  56.25 0.5 0  57 0.5 0  57.75 0.5 0  58.5 0.5 0  59.25 0.5 0  60 0.5 0  0 1 0  0.75 1 0  1.5 1 0  2.25 1 0  3 1 0  3.75 1 0  4.5 1 0  5.25 1 0  6 1 0  6.75 1 0  7.5 1 0  8.25 1 0  9 1 0  9.75 1 0  10.5 1 0  11.25 1 0  12 1 0  12.75 1 0  13.5 1 0  14.25 1 0  15 1 0  15.75 1 0  16.5 1 0  17.25 1 0  18 1 0  18.75 1 0  19.5 1 0  20.25 1 0  21 1 0  21.75 1 0  22.5 1 0  23.25 1 0  24 1 0  24.75 1 0  25.5 1 0  26.25 1 0  27 1 0  27.75 1 0  28.5 1 0  29.25 1 0  30 1 0  30.75 1 0  31.5 1 0  32.25 1 0  33 1 0  33.75 1 0  34.5 1 0  35.25 1 0  36 1 0  36.75 1 0  37.5 1 0  38.25 1 0  39 1 0  39.75 1 0  40.5 1 0  41.25 1 0  42 1 0  42.75 1 0  43.5 1 0  44.25 1 0  45 1 0  45.75 1 0  46.5 1 0  47.25 1 0  48 1 0  48.75 1 0  49.5 1 0  50.25 1 0  51 1 0  51.75 1 0  52.5 1 0  53.25 1 0  54 1 0  54.75 1 0  55.5 1 0  56.25 1 0  57 1 0  57.75 1 0  58.5 1 0  59.25 1 0  60 1 0  0 1.5 0  0.75 1.5 0  1.5 1.5 0  2.25 1.5 0  3 1.5 0  3.75 1.5 0  4.5 1.5 0  5.25 1.5 0  6 1.5 0  6.75 1.5 0  7.5 1.5 0  8.25 1.5 0  9 1.5 0  9.75 1.5 0  10.5 1.5 0  11.25 1.5 0  12 1.5 0  12.75 1.5 0  13.5 1.5 0  14.25 1.5 0  15 1.5 0  15.75 1.5 0  16.5 1.5 0  17.25 1.5 0  18 1.5 0  18.75 1.5 0  19.5 1.5 0  20.25 1.5 0  21 1.5 0  21.75 1.5 0  22.5 1.5 0  23.25 1.5 0  24 1.5 0  24.75 1.5 0  25.5 1.5 0  26.25 1.5 0  27 1.5 0  27.75 1.5 0  28.5 1.5 0  29.25 1.5 0  30 1.5 0  30.75 1.5 0  31.5 1.5 0  32.25 1.5 0  33 1.5 0  33.75 1.5 0  34.5 1.5 0  35.25 1.5 0  36 1.5 0  36.75 1.5 0  37.5 1.5 0  38.25 1.5 0  39 1.5 0  39.75 1.5 0  40.5 1.5 0  41.25 1.5 0  42 1.5 0  42.75 1.5 0  43.5 1.5 0  44.25 1.5 0  45 1.5 0  45.75 1.5 0  46.5 1.5 0  47.25 1.5 0  48 1.5 0  48.75 1.5 0  49.5 1.5 0  50.25 1.5 0  51 1.5 0  51.75 1.5 0  52.5 1.5 0  53.25 1.5 0  54 1.5 0  54.75 1.5 0  55.5 1.5 0  56.25 1.5 0  57 1.5 0  57.75 1.5 0  58.5 1.5 0  59.25 1.5 0  60 1.5 0  0 2 0  0.75 2 0  1.5 2 0  2.25 2 0  3 2 0  3.75 2 0  4.5 2 0  5.25 2 0  6 2 0  6.75 2 0  7.5 2 0  8.25 2 0  9 2 0  9.75 2 0  10.5 2 0  11.25 2 0  12 2 0  12.75 2 0  13.5 2 0  14.25 2 0  15 2 0  15.75 2 0  16.5 2 0  17.25 2 0  18 2 0  18.75 2 0  19.5 2 0  20.25 2 0  21 2 0  21.75 2 0  22.5 2 0  23.25 2 0  24 2 0  24.75 2 0  25.5 2 0  26.25 2 0  27 2 0  27.75 2 0  28.5 2 0  29.25 2 0  30 2 0  30.75 2 0  31.5 2 0  32.25 2 0  33 2 0  33.75 2 0  34.5 2 0  35.25 2 0  36 2 0  36.75 2 0  37.5 2 0  38.25 2 0  39 2 0  39.75 2 0  40.5 2 0  41.25 2 0  42 2 0  42.75 2 0  43.5 2 0  44.25 2 0  45 2 0  45.75 2 0  46.5 2 0  47.25 2 0  48 2 0  48.75 2 0  49.5 2 0  50.25 2 0  51 2 0  51.75 2 0  52.5 2 0  53.25 2 0  54 2 0  54.75 2 0  55.5 2 0  56.25 2 0  57 2 0  57.75 2 0  58.5 2 0  59.25 2 0  60 2 0  0 2.5 0  0.75 2.5 0  1.5 2.5 0  2.25 2.5 0  3 2.5 0  3.75 2.5 0  4.5 2.5 0  5.25 2.5 0  6 2.5 0  6.75 2.5 0  7.5 2.5 0  8.25 2.5 0  9 2.5 0  9.75 2.5 0  10.5 2.5 0  11.25 2.5 0  12 2.5 0  12.75 2.5 0  13.5 2.5 0  14.25 2.5 0  15 2.5 0  15.75 2.5 0  16.5 2.5 0  17.25 2.5 0  18 2.5 0  18.75 2.5 0  19.5 2.5 0  20.25 2.5 0  21 2.5 0  21.75 2.5 0  22.5 2.5 0  23.25 2.5 0  24 2.5 0  24.75 2.5 0  25.5 2.5 0  26.25 2.5 0  27 2.5 0  27.75 2.5 0  28.5 2.5 0  29.25 2.5 0  30 2.5 0  30.75 2.5 0  31.5 2.5 0  32.25 2.5 0  33 2.5 0  33.75 2.5 0  34.5 2.5 0  35.25 2.5 0  36 2.5 0  36.75 2.5 0  37.5 2.5 0  38.25 2.5 0  39 2.5 0  39.75 2.5 0  40.5 2.5 0  41.25 2.5 0  42 2.5 0  42.75 2.5 0  43.5 2.5 0  44.25 2.5 0  45 2.5 0  45.75 2.5 0  46.5 2.5 0  47.25 2.5 0  48 2.5 0  48.75 2.5 0  49.5 2.5 0  50.25 2.5 0  51 2.5 0  51.75 2.5 0  52.5 2.5 0  53.25 2.5 0  54 2.5 0  54.75 2.5 0  55.5 2.5 0  56.25 2.5 0  57 2.5 0  57.75 2.5 0  58.5 2.5 0  59.25 2.5 0  60 2.5 0  0 3 0  0.75 3 0  1.5 3 0  2.25 3 0  3 3 0  3.75 3 0  4.5 3 0  5.25 3 0  6 3 0  6.75 3 0  7.5 3 0  8.25 3 0  9 3 0  9.75 3 0  10.5 3 0  11.25 3 0  12 3 0  12.75 3 0  13.5 3 0  14.25 3 0  15 3 0  15.75 3 0  16.5 3 0  17.25 3 0  18 3 0  18.75 3 0  19.5 3 0  20.25 3 0  21 3 0  21.75 3 0  22.5 3 0  23.25 3 0  24 3 0  24.75 3 0  25.5 3 0  26.25 3 0  27 3 0  27.75 3 0  28.5 3 0  29.25 3 0  30 3 0  30.75 3 0  31.5 3 0  32.25 3 0  33 3 0  33.75 3 0  34.5 3 0  35.25 3 0  36 3 0  36.75 3 0  37.5 3 0  38.25 3 0  39 3 0  39.75 3 0  40.5 3 0  41.25 3 0  42 3 0  42.75 3 0  43.5 3 0  44.25 3 0  45 3 0  45.75 3 0  46.5 3 0  47.25 3 0  48 3 0  48.75 3 0  49.5 3 0  50.25 3 0  51 3 0  51.75 3 0  52.5 3 0  53.25 3 0  54 3 0  54.75 3 0  55.5 3 0  56.25 3 0  57 3 0  57.75 3 0  58.5 3 0  59.25 3 0  60 3 0  0 3.5 0  0.75 3.5 0  1.5 3.5 0  2.25 3.5 0  3 3.5 0  3.75 3.5 0  4.5 3.5 0  5.25 3.5 0  6 3.5 0  6.75 3.5 0  7.5 3.5 0  8.25 3.5 0  9 3.5 0  9.75 3.5 0  10.5 3.5 0  11.25 3.5 0  12 3.5 0  12.75 3.5 0  13.5 3.5 0  14.25 3.5 0  15 3.5 0  15.75 3.5 0  16.5 3.5 0  17.25 3.5 0  18 3.5 0  18.75 3.5 0  19.5 3.5 0  20.25 3.5 0  21 3.5 0  21.75 3.5 0  22.5 3.5 0  23.25 3.5 0  24 3.5 0  24.75 3.5 0  25.5 3.5 0  26.25 3.5 0  27 3.5 0  27.75 3.5 0  28.5 3.5 0  29.25 3.5 0  30 3.5 0  30.75 3.5 0  31.5 3.5 0  32.25 3.5 0  33 3.5 0  33.75 3.5 0  34.5 3.5 0  35.25 3.5 0  36 3.5 0  36.75 3.5 0  37.5 3.5 0  38.25 3.5 0  39 3.5 0  39.75 3.5 0  40.5 3.5 0  41.25 3.5 0  42 3.5 0  42.75 3.5 0  43.5 3.5 0  44.25 3.5 0  45 3.5 0  45.75 3.5 0  46.5 3.5 0  47.25 3.5 0  48 3.5 0  48.75 3.5 0  49.5 3.5 0  50.25 3.5 0  51 3.5 0  51.75 3.5 0  52.5 3.5 0  53.25 3.5 0  54 3.5 0  54.75 3.5 0  55.5 3.5 0  56.25 3.5 0  57 3.5 0  57.75 3.5 0  58.5 3.5 0  59.25 3.5 0  60 3.5 0  0 4 0  0.75 4 0  1.5 4 0  2.25 4 0  3 4 0  3.75 4 0  4.5 4 0  5.25 4 0  6 4 0  6.75 4 0  7.5 4 0  8.25 4 0  9 4 0  9.75 4 0  10.5 4 0  11.25 4 0  12 4 0  12.75 4 0  13.5 4 0  14.25 4 0  15 4 0  15.75 4 0  16.5 4 0  17.25 4 0  18 4 0  18.75 4 0  19.5 4 0  20.25 4 0  21 4 0  21.75 4 0  22.5 4 0  23.25 4 0  24 4 0  24.75 4 0  25.5 4 0  26.25 4 0  27 4 0  27.75 4 0  28.5 4 0  29.25 4 0  30 4 0  30.75 4 0  31.5 4 0  32.25 4 0  33 4 0  33.75 4 0  34.5 4 0  35.25 4 0  36 4 0  36.75 4 0  37.5 4 0  38.25 4 0  39 4 0  39.75 4 0  40.5 4 0  41.25 4 0  42 4 0  42.75 4 0  43.5 4 0  44.25 4 0  45 4 0  45.75 4 0  46.5 4 0  47.25 4 0  48 4 0  48.75 4 0  49.5 4 0  50.25 4 0  51 4 0  51.75 4 0  52.5 4 0  53.25 4 0  54 4 0  54.75 4 0  55.5 4 0  56.25 4 0  57 4 0  57.75 4 0  58.5 4 0  59.25 4 0  60 4 0  0.375 0.25 0  1.125 0.25 0  1.875 0.25 0  2.625 0.25 0  3.375 0.25 0  4.125 0.25 0  4.875 0.25 0  5.625 0.25 0  6.375 0.25 0  7.125 0.25 0  7.875 0.25 0  8.625 0.25 0  9.375 0.25 0  10.125 0.25 0  10.875 0.25 0  11.625 0.25 0  12.375 0.25 0  13.125 0.25 0  13.875 0.25 0  14.625 0.25 0  15.375 0.25 0  16.125 0.25 0  16.875 0.25 0  17.625 0.25 0  18.375 0.25 0  19.125 0.25 0  19.875 0.25 0  20.625 0.25 0  21.375 0.25 0  22.125 0.25 0  22.875 0.25 0  23.625 0.25 0  24.375 0.25 0  25.125 0.25 0  25.875 0.25 0  26.625 0.25 0  27.375 0.25 0  28.125 0.25 0  28.875 0.25 0  29.625 0.25 0  30.375 0.25 0  31.125 0.25 0  31.875 0.25 0  32.625 0.25 0  33.375 0.25 0  34.125 0.25 0  34.875 0.25 0  35.625 0.25 0  36.375 0.25 0  37.125 0.25 0  37.875 0.25 0  38.625 0.25 0  39.375 0.25 0  40.125 0.25 0  40.875 0.25 0  41.625 0.25 0  42.375 0.25 0  43.125 0.25 0  43.875 0.25 0  44.625 0.25 0  45.375 0.25 0  46.125 0.25 0  46.875 0.25 0  47.625 0.25 0  48.375 0.25 0  49.125 0.25 0  49.875 0.25 0  50.625 0.25 0  51.375 0.25 0  52.125 0.25 0  52.875 0.25 0  53.625 0.25 0  54.375 0.25 0  55.125 0.25 0  55.875 0.25 0  56.625 0.25 0  57.375 0.25 0  58.125 0.25 0  58.875 0.25 0  59.625 0.25 0  0.375 0.75 0  1.125 0.75 0  1.875 0.75 0  2.625 0.75 0  3.375 0.75 0  4.125 0.75 0  4.875 0.75 0  5.625 0.75 0  6.375 0.75 0  7.125 0.75 0  7.875 0.75 0  8.625 0.75 0  9.375 0.75 0  10.125 0.75 0  10.875 0.75 0  11.625 0.75 0  12.375 0.75 0  13.125 0.75 0  13.875 0.75 0  14.625 0.75 0  15.375 0.75 0  16.125 0.75 0  16.875 0.75 0  17.625 0.75 0  18.375 0.75 0  19.125 0.75 0  19.875 0.75 0  20.625 0.75 0  21.375 0.75 0  22.125 0.75 0  22.875 0.75 0  23.625 0.75 0  24.375 0.75 0  25.125 0.75 0  25.875 0.75 0  26.625 0.75 0  27.375 0.75 0  28.125 0.75 0  28.875 0.75 0  29.625 0.75 0  30.375 0.75 0  31.125 0.75 0  31.875 0.75 0  32.625 0.75 0  33.375 0.75 0  34.125 0.75 0  34.875 0.75 0  35.625 0.75 0  36.375 0.75 0  37.125 0.75 0  37.875 0.75 0  38.625 0.75 0  39.375 0.75 0  40.125 0.75 0  40
[...]
<PointData  Scalars="f_8-1"> 
<DataArray  type="Float64"  Name="f_8-1"  format="ascii">5.4448792804277719e+00  5.3791957088586209e+00  5.3111375152382445e+00  5.2430978526040350e+00  5.1750254541071055e+00  5.1069438074030558e+00  5.0388591764779740e+00  4.9707741174586886e+00  4.9026894133657670e+00  4.8346051802304402e+00  4.7665213247799594e+00  4.6984377242454007e+00  4.6303542787161929e+00  4.5622709223202422e+00  4.4941876149531348e+00  4.4261043342735729e+00  4.3580210679957547e+00  4.2899378097660579e+00  4.2218545561893972e+00  4.1537713055515306e+00  4.0856880569131979e+00  4.0176048097968922e+00  3.9495215639271506e+00  3.8814383191620996e+00  3.8133550754157106e+00  3.7452718326434935e+00  3.6771885908173547e+00  3.6091053499228281e+00  3.5410221099505028e+00  3.4729388708954896e+00  3.4048556327546051e+00  3.3367723955261028e+00  3.2686891592088836e+00  3.2006059238023488e+00  3.1325226893060303e+00  3.0644394557198957e+00  2.9963562230433793e+00  2.9282729912772147e+00  2.8601897604198530e+00  2.7921065304739376e+00  2.7240233014346207e+00  2.6559400733106044e+00  2.5878568460862352e+00  2.5197736197891052e+00  2.4516903943706474e+00  2.3836071699152876e+00  2.3155239462769845e+00  2.2474407237050595e+00  2.1793575017764231e+00  2.1112742812000387e+00  2.0431910607965627e+00  1.9751078425034543e+00  1.9070246231641266e+00  1.8389414078584130e+00  1.7708581884832202e+00  1.7027749778083401e+00  1.6346917558903793e+00  1.5666085534976804e+00  1.4985253235992810e+00  1.4304421370697769e+00  1.3623588882059177e+00  1.2942757314020072e+00  1.2261924451112463e+00  1.1581093391295707e+00  1.0900260097652090e+00  1.0219429970701446e+00  9.5385977737336569e-01  8.8577692154554732e-01  8.1769413728532403e-01  7.4960971899021878e-01  6.8152415984489234e-01  6.1342623487935222e-01  5.4532842876424814e-01  4.7719988994087542e-01  4.0911203119990658e-01  3.4095823068585152e-01  2.7302328364633888e-01  2.0475623244308003e-01  1.3740372382801411e-01  6.7175680711995742e-02  2.1109803079504895e-03  5.4479432429200694e+00  5.3790208817216119e+00  5.3111053243215762e+00  5.2430498790319815e+00  5.1749759560252713e+00  5.1068936145983121e+00  5.0388088776277673e+00  4.9707239199819915e+00  4.9026393559054426e+00  4.8345552414633302e+00  4.7664714698489536e+00  4.6983879225557512e+00  4.6303045084883356e+00  4.5622211699506909e+00  4.4941378723757541e+00  4.4260545969943434e+00  4.3579713335300339e+00  4.2898880768111454e+00  4.2218048240355790e+00  4.1537215738368651e+00  4.0856383254343855e+00  4.0175550784516210e+00  3.9494718326543539e+00  3.8813885879318630e+00  3.8133053442085916e+00  3.7452221014505915e+00  3.6771388596321475e+00  3.6090556187426741e+00  3.5409723787731253e+00  3.4728891397201238e+00  3.4048059015804530e+00  3.3367226643529095e+00  3.2686394280364444e+00  3.2005561926304473e+00  3.1324729581348745e+00  3.0643897245489073e+00  2.9963064918735798e+00  2.9282232601067171e+00  2.8601400292520376e+00  2.7920567993028151e+00  2.7239735702707657e+00  2.6558903421355629e+00  2.5878071149319655e+00  2.5197238886008444e+00  2.4516406632414109e+00  2.3835574386887730e+00  2.3154742152131322e+00  2.2473909923764852e+00  2.1793077708779625e+00  2.1112245496156308e+00  2.0431413302975896e+00  1.9750581103136151e+00  1.9069748935815054e+00  1.8388916743131143e+00  1.7708084608942931e+00  1.7027252413879908e+00  1.6346420324107365e+00  1.5665588113189981e+00  1.4984756080536252e+00  1.4303923842454191e+00  1.3623091863834498e+00  1.2942259617742116e+00  1.2261427615734453e+00  1.1580595527769662e+00  1.0899763310543558e+00  1.0218932294523086e+00  9.5381001016690337e-01  8.8572732492553363e-01  8.1764385418901575e-01  7.4956066573728197e-01  6.8147157128633973e-01  6.1337894842315555e-01  5.4526961397464380e-01  4.7716166876925631e-01  4.0903576307689388e-01  3.4095404139268476e-01  2.7288219424322191e-01  2.0487748892214047e-01  1.3685529749044054e-01  6.8107088330040325e-02  -5.1630180919823320e-04  5.4478607986843315e+00  5.3793120752825985e+00  5.3111367510288803e+00  5.2430423382363305e+00  5.1749540395292835e+00  5.1068672754421245e+00  5.0387812306321544e+00  4.9706958979447320e+00  4.9026112037948888e+00  4.8345270165543575e+00  4.7664431901701292e+00  4.6983596005856363e+00  4.6302761563981338e+00  4.5621927978513028e+00  4.4941094878934367e+00  4.4260262051561590e+00  4.3579429375158911e+00  4.2898596784624168e+00  4.2217764244225151e+00  4.1536931735351574e+00  4.0856099247672946e+00  4.0175266775856011e+00  3.9494434316831382e+00  3.8813601869025023e+00  3.8132769431484745e+00  3.7451937003731470e+00  3.6771104585456564e+00  3.6090272176510361e+00  3.5409439776788978e+00  3.4728607386245236e+00  3.4047775004842062e+00  3.3366942632565557e+00  3.2686110269399489e+00  3.2005277915344981e+00  3.1324445570385393e+00  3.0643613234540861e+00  2.9962780907769910e+00  2.9281948590142930e+00  2.8601116281533256e+00  2.7920283982161833e+00  2.7239451691643892e+00  2.6558619410641016e+00  2.5877787138025310e+00  2.5196954875697282e+00  2.4516122620487919e+00  2.3835290377615097e+00  2.3154458138592653e+00  2.2473625917029780e+00  2.1792793691401093e+00  2.1111961495226814e+00  2.0431129277115492e+00  1.9750297114498903e+00  1.9069464892748813e+00  1.8388632778240781e+00  1.7707800534365332e+00  1.7026968489766472e+00  1.6346136199479695e+00  1.5665304246793841e+00  1.4984471896165417e+00  1.4303640022395832e+00  1.3622807670327823e+00  1.2941975710555502e+00  1.2261143674827002e+00  1.1580311026952643e+00  1.0899480369801968e+00  1.0218645527626389e+00  9.5378190051924205e-01  8.8569774703866244e-01  8.1761560495516039e-01  7.4952796224381713e-01  6.8144307404869042e-01  6.1334140943217730e-01  5.4524759288699487e-01  4.7712045524210772e-01  4.0903164990462704e-01  3.4089967176306329e-01  2.7288120701488838e-01  2.0470781229667617e-01  1.3672856479032941e-01  6.7960198702758462e-02  2.8696909607589614e-04  5.4478675530163931e+00  5.3794701628953216e+00  5.3112328839679890e+00  5.2430954200064512e+00  5.1749926156386090e+00  5.1069011334939711e+00  5.0388136103989245e+00  4.9707277611459642e+00  4.9026428344056852e+00  4.8345585048649520e+00  4.7664745783873910e+00  4.6983909181050096e+00  4.6303074266209157e+00  4.5622240379294752e+00  4.4941407097724211e+00  4.4260574164042810e+00  4.3579741427908951e+00  4.2898908804233526e+00  4.2218076245943905e+00  4.1537243727332749e+00  4.0856411234472656e+00  4.0175578759821171e+00  3.9494746299287926e+00  3.8813913850640152e+00  3.8133081412650669e+00  3.7452248984639835e+00  3.6771416566227737e+00  3.6090584157200127e+00  3.5409751757435712e+00  3.4728919366864814e+00  3.4048086985448442e+00  3.3367254613160715e+00  3.2686422249993559e+00  3.2005589895928637e+00  3.1324757550979796e+00  3.0643925215111198e+00  2.9963092888380007e+00  2.9282260570680494e+00  2.8601428262196680e+00  2.7920595962605010e+00  2.7239763672465820e+00  2.6558931390815781e+00  2.5878099119292912e+00  2.5197266855139739e+00  2.4516434602944890e+00  2.3835602355160237e+00  2.3154770124047093e+00  2.2473937889943625e+00  2.1793105683941381e+00  2.1112273457574764e+00  2.0431441285235317e+00  1.9750609054535477e+00  1.9069776932375950e+00  1.8388944675276395e+00  1.7708112631483672e+00  1.7027280313269653e+00  1.6346448386862056e+00  1.5665615967533095e+00  1.4984784186155775e+00  1.4303951665475672e+00  1.3623119953068290e+00  1.2942287524769758e+00  1.2261455427379135e+00  1.1580623877883409e+00  1.0899789867353169e+00  1.0218961226889720e+00  9.5381203253592994e-01  8.8572966506746476e-01  8.1764285190647557e-01  7.4955994116936453e-01  6.8146331650938596e-01  6.1337709804374274e-01  5.4525879091171625e-01  4.7717726695892271e-01  4.0903118350176748e-01  3.4099501182901820e-01  2.7280499743748182e-01  2.0483674852409828e-01  1.3642781681992136e-01  6.8386090063261740e-02  -2.0129058260634031e-04  5.4478735385140951e+00  5.3795123349876350e+00  5.3112649943641008e+00  5.2431138520554628e+00  5.1750053842961234e+00  5.1069120193410003e+00  5.0388239025053778e+00  4.9707378560901363e+00  4.9026528468800121e+00  4.8345684704647187e+00  4.7664845118464454e+00  4.6984008289344175e+00  4.6303173221886391e+00  4.5622339237308625e+00  4.4941505896090401e+00  4.4260672927414539e+00  4.3579840171426518e+00  4.2899007536772809e+00  4.2218174972525500e+00  4.1537342450718109e+00  4.0856509956154392e+00  4.0175677480595988e+00  3.9494845019580334e+00  3.8814012570674938e+00  3.8133180132548330e+00  3.7452347704463875e+00  3.6771515286012564e+00  3.6090682876964291e+00  3.5409850477188809e+00  3.4729018086613088e+00  3.4048185705192910e+00  3.3367353332906875e+00  3.2686520969734842e+00  3.2005688615679211e+00  3.1324856270715542e+00  3.0644023934876046e+00  2.9963191608095827e+00  2.9282359290486362e+00  2.8601526981847987e+00  2.7920694682529072e+00  2.7239862391923446e+00  2.6559030111073549e+00  2.5878197838203594e+00  2.5197365576305741e+00  2.4516533320392622e+00  2.3835701078681439e+00  2.3154868837797076e+00  2.2474036619232796e+00  2.1793204388910152e+00  2.1112372200104286e+00  2.0431539970748456e+00  1.9750707825302138e+00  1.9069875578076758e+00  1.8389043501263633e+00  1.7708211203282864e+00  1.7027379235632190e+00  1.6346546839552611e+00  1.5665715028954437e+00  1.4984882494927936e+00  1.4304050844592748e+00  1.3623218234669152e+00  1.2942386524652190e+00  1.2261554277834033e+00  1.1580721582015339e+00  1.0899891079472359e+00  1.0219054342788481e+00  9.5382279722040597e-01  8.8573757671481823e-01  8.1765509183570850e-01  7.4956402025107183e-01  6.8147954760789542e-01  6.1337273566277473e-01  5.4528742686794762e-01  4.7715610821654469e-01  4.0909089534069187e-01  3.4093222775759680e-01  2.7291743038839378e-01  2.0467595237246383e-01  1.3661361162340097e-01  6.8176863424697587e-02  1.1681367042141352e-04  5.4478675431802532e+00  5.3794700581241752e+00  5.3112327817332465e+00  5.2430953515665726e+00  5.1749925735331921e+00  5.1069011075900539e+00  5.0388135938241012e+00  4.9707277496236717e+00  4.9026428255321139e+00  4.8345584974500158e+00  4.7664745718720853e+00  4.6983909122010905e+00  4.6303074211491024e+00  4.5622240327628338e+00  4.4941407048183546e+00  4.4260574115963953e+00  4.3579741380828692e+00  4.2898908757834668e+00  4.2218076200011030e+00  4.1537243681720275e+00  4.0856411189081534e+00  4.0175578714583704e+00  3.9494746254157205e+00  3.8813913805583695e+00  3.8133081367646184e+00  3.7452248939671233e+00  3.6771416521284195e+00  3.6090584112274287e+00  3.5409751712522852e+00  3.4728919321961467e+00  3.4048086940552560e+00  3.3367254568270912e+00  3.2686422205108951e+00  3.2005589851048959e+00  3.1324757506104590e+00  3.0643925170240505e+00  2.9963092843513515e+00  2.9282260525818491e+00  2.8601428217338993e+00  2.7920595917751898e+00  2.7239763627617051e+00  2.6558931345971835e+00  2.5878099074453895e+00  2.5197266810306487e+00  2.4516434558118467e+00  2.3835602310342052e+00  2.3154770079240055e+00  2.2473937845151633e+00  2.1793105639171046e+00  2.1112273412835405e+00  2.0431441240541366e+00  1.9750609009908358e+00  1.9069776887845105e+00  1.8388944630890951e+00  1.7708112587301963e+00  1.7027280269402254e+00  1.6346448343421094e+00  1.5665615924760399e+00  1.4984784144261558e+00  1.4303951624971383e+00  1.3623119914327630e+00  1.2942287488839064e+00  1.2261455394836436e+00  1.1580623850783733e+00  1.0899789846247880e+00  1.0218961215394058e+00  9.5381203224079592e-01  8.8572966605486092e-01  8.1764285319033292e-01  7.4955994260566072e-01  6.8146331456374065e-01  6.1337709236081894e-01  5.4525877634588593e-01  4.7717725019239521e-01  4.0903116024720593e-01  3.4099500310259190e-01  2.7280499121407947e-01  2.0483678249122142e-01  1.3642783803579722e-01  6.8386127004779446e-02  -2.0131148624287964e-04  5.4478607676974704e+00  5.3793118007918750e+00  5.3111365301138695e+00  5.2430422005801756e+00  5.1749539547749457e+00  5.1068672219563185e+00  5.0387811944354448e+00  4.9706958708517570e+00  4.9026111815513813e+00  4.8345269971164351e+00  4.7664431725344896e+00  4.6983595841907428e+00  4.6302761408773501e+00  4.5621927829442619e+00  4.4941094734125926e+00  4.4260261909685070e+00  4.3579429235289648e+00  4.2898596646128642e+00  4.2217764106672391e+00  4.1536931598448188e+00  4.0856099111219182e+00  4.0175266639714424e+00  3.9494434180906985e+00  3.8813601733251613e+00  3.8132769295816611e+00  3.7451936868136388e+00  3.6771104449912744e+00  3.6090272041002929e+00  3.5409439641308023e+00  3.4728607250784056e+00  3.4047774869396359e+00  3.3366942497132563e+00  3.2686110133977659e+00  3.2005277779933228e+00  3.1324445434983312e+00  3.0643613099148137e+00  2.9962780772386313e+00  2.9281948454768534e+00  2.8601116146168022e+00  2.7920283846805694e+00  2.7239451556296910e+00  2.6558619275303768e+00  2.5877787002698160e+00  2.5196954740381803e+00  2.4516122485185976e+00  2.3835290242330212e+00  2.3154458003330163e+00  2.2473625781798519e+00  2.1792793556213765e+00  2.1111961360103613e+00  2.0431129142085642e+00  1.9750296979605866e+00  1.9069464758058376e+00  1.8388632643842626e+00  1.7707800400406528e+00  1.7026968356426839e+00  1.6346136067081765e+00  1.5665304115688417e+00  1.4984471767042729e+00  1.4303639895918978e+00  1.3622807547924876e+00  1.2941975593404804e+00  1.2261143565772035e+00  1.1580310927809836e+00  1.0899480285872323e+00  1.0218645460572044e+00  9.5378189630934151e-01  8.8569774487268282e-01  8.1761560514910792e-01  7.4952796107790753e-01  6.8144306878306316e-01  6.1334139010784228e-01  5.4524756017729681e-01  4.7712040578241288e-01  4.0903160630723567e-01  3.4089962916507272e-01  2.7288120953546091e-01  2.0470784150823573e-01  1.3672867312424272e-01  6.7960203733744229e-02  2.8701927353736622e-04  5.4479432070582092e+00  5.3790202295245226e+00  5.3111049801720762e+00  5.2430496596296301e+00  5.1749758089354474e+00  5.1068935086509564e+00  5.0388087942760764e+00  4.9707238484288636e+00  4.9026392905272740e+00  4.8345551795981203e+00  4.7664714102328984e+00  4.6983878645000043e+00  4.6303044515422833e+00  4.5622211137888407e+00  4.4941378167598440e+00  4.4260545417539223e+00  4.3579712785461791e+00  4.2898880220025317e+00  4.2218047693469920e+00  4.1537215192308885e+00  4.0856382708855330e+00  4.0175550239424549e+00  3.9494717781727475e+00  3.8813885334694400e+00  3.8133052897594912e+00  3.7452220470107522e+00  3.6771388051987892e+00  3.6090555643139122e+00  3.5409723243476878e+00  3.4728890852971905e+00  3.4048058471594596e+00  3.3367226099335419e+00  3.2686393736185053e+00  3.2005561382138348e+00  3.1324729037195196e+00  3.0643896701347897e+00  2.9963064374607140e+00  2.9282232056950792e+00  2.8601399748416534e+00  2.7920567448937064e+00  2.7239735158629341e+00  2.6558902877290587e+00  2.5878070605268877e+00  2.5197238341973600e+00  2.4516406088397829e+00  2.3835573842894324e+00  2.3154741608168012e+00  2.2473909379842518e+00  2.1793077164915338e+00  2.1112244952375421e+00  2.0431412759316956e+00  1.9750580559655375e+00  1.9069748392595869e+00  1.8388916200295899e+00  1.7708084066668872e+00  1.7027251872428566e+00  1.6346419783846968e+00  1.5665587574667554e+00  1.4984755544501089e+00  1.4303923310018756e+00  1.3623091336473974e+00  1.2942259097630133e+00  1.2261427105623990e+00  1.1580595031641348e+00  1.0899762833000413e+00  1.0218931841782426e+00  9.5380996789716888e-01  8.8572728607940321e-01  8.1764381800896202e-01  7.4956062976699256e-01  6.8147152873086791e-01  6.1337889079552577e-01  5.4526953254672461e-01  4.7716156991019243e-01  4.0903565785299595e-01  3.4095395326287309e-01  2.7288214359707769e-01  2.0487752070988444e-01  1.3685541899712839e-01  6.8107123887081900e-02  -5.1641606220834656e-04  5.4448763560933102e+00  5.3791951669805851e+00  5.3111371256135040e+00  5.2430975972723006e+00  5.1750252720057208e+00  5.1069436675214970e+00  5.0388590600081633e+00  4.9707740132821598e+00  4.9026893155209335e+00  4.8346050858473983e+00  4.7665212325247994e+00  4.6984376334348505e+00  4.6303541889292381e+00  4.5622708332596567e+00  4.4941875264007871e+00  4.4261042460717954e+00  4.3580209800335927e+00  4.2899377219672594e+00  4.2218544685021762e+00  4.1537712179408448e+00  4.0856879693552779e+00  4.0176047222755145e+00  3.9495214764310944e+00  3.8814382316836156e+00  3.8133549879493955e+00  3.7452717451855908e+00  3.6771885033653104e+00  3.6091052624749191e+00  3.5410220225055591e+00  3.4729387834527974e+00  3.4048555453136680e+00  3.3367723080866649e+00  3.2686890717707962e+00  3.2006058363655683e+00  3.1325226018705137e+00  3.0644393682856710e+00  2.9963561356104873e+00  2.9282729038456736e+00  2.8601896729897129e+00  2.7921064430452622e+00  2.7240232140074232e+00  2.6559399858849639e+00  2.5878567586622587e+00  2.5197735323670063e+00  2.4516903069506943e+00  2.3836070824979543e+00  2.3155238588630138e+00  2.2474406362956261e+00  2.1793574143732872e+00  2.1112741938059170e+00  2.0431909734154630e+00  1.9751077551413676e+00  1.9070245358298161e+00  1.8389413205647611e+00  1.7708581012491931e+00  1.7027748906610627e+00  1.6346916688699507e+00  1.5666084666600772e+00  1.4985252370274238e+00  1.4304420508761855e+00  1.3623588025565401e+00  1.2942756465139353e+00  1.2261923613017918e+00  1.1581092567865705e+00  1.0900259294473673e+00  1.0219429193456431e+00  9.5385970299478229e-01  8.8577685074120283e-01  8.1769406980780635e-01  7.4960965188516027e-01  6.8152408749889415e-01  6.1342614738182188e-01  5.4532831875272414e-01  4.7719975809205134e-01  4.0911189279327154e-01  3.4095809866211052e-01  2.7302320875709885e-01  2.0475619512689797e-01  1.3740391416090197e-01  6.7175510861873178e-02  2.1111924599633812e-03  5.4126926869800291e+00  5.3449778441253546e+00  5.2769541677859753e+00  5.2088943086401587e+00  5.1408168927863160e+00  5.0727336109849963e+00  5.0046487914873570e+00  4.9365639967184851e+00  4.8684796184540859e+00  4.8003956463681270e+00  4.7323119690502713e+00  4.6642284783668053e+00  4.5961450967231343e+00  4.5280617758660506e+00  4.4599784879555981e+00  4.3918952178045663e+00  4.3238119573410767e+00  4.2557287024013819e+00  4.1876454508112158e+00  4.1195622014553219e+00  4.0514789537316798e+00  3.9833957073251027e+00  3.9153124620558066e+00  3.8472292178284224e+00  3.7791459745853979e+00  3.7110627322966128e+00  3.6429794909426936e+00  3.5748962505139072e+00  3.5068130110035005e+00  3.4387297724082977e+00  3.3706465347258572e+00  3.3025632979551216e+00  3.2344800620951610e+00  3.1663968271456238e+00  3.0983135931062717e+00  3.0302303599767222e+00  2.9621471277572757e+00  2.8940638964471916e+00  2.8259806660475881e+00  2.7578974365564091e+00  2.6898142079772511e+00  2.6217309803037083e+00  2.5536477535467763e+00  2.4855645276874707e+00  2.4174813027579565e+00  2.3493980787039384e+00  2.2813148556151153e+00  2.2132316333440030e+00  2.1451484121282802e+00  2.0770651915876712e+00  2.0089819723183426e+00  1.9408987533944115e+00  1.8728155362243997e+00  1.8047323186884401e+00  1.7366491039098699e+00  1.6685658873383051e+00  1.6004826754570196e+00  1.5323994591244743e+00  1.4643162508815224e+00  1.3962330336391537e+00  1.3281498296560386e+00  1.2600666102749507e+00  1.1919834110695826e+00  1.1239001976286018e+00  1.0558170252885248e+00  9.8773390611870004e-01  9.1965088848172660e-01  8.5156799396530125e-01  7.8348446571197450e-01  7.1539905957869110e-01  6.4730754334392082e-01  5.7920831259731698e-01  5.1109710708373512e-01  4.4298435055828467e-01  3.7487462509752068e-01  3.0680452785874179e-01  2.3877116335011753e-01  1.7073697341932853e-01  1.0253616335255777e-01  3.2819492034888868e-02  5.4135780736052332e+00  5.3451939245601565e+00  5.2771417028900371e+00  5.2090653412787660e+00  5.1409829439503438e+00  5.0728980768303913e+00  5.0048128666411396e+00  4.9367280357983905e+00  4.8686436958114720e+00  4.8005597592266520e+00  4.7324761033071869e+00  4.6643926230858703e+00  4.5963092459105068e+00  4.5282259265636302e+00  4.4601426390342764e+00  4.3920593688594654e+00  4.3239761083125634e+00  4.2558928532919733e+00  4.1878096016575368e+00  4.1197263522740295e+00  4.05164310453