<?xml version="1.0"?>
<VTKFile type="UnstructuredGrid"  version="0.1"  >
<UnstructuredGrid>
<Piece  NumberOfPoints="1369" NumberOfCells="2560">
<Points>
<DataArray  type="Float64"  NumberOfComponents="3"  format="ascii">0 0 0  0.75 0 0  1.5 0 0  2.25 0 0  3 0 0  3.75 0 0  4.5 0 0  5.25 0 0  6 0 0  6.75 0 0  7.5 0 0  8.25 0 0  9 0 0  9.75 0 0  10.5 0 0  11.25 0 0  12 0 0  12.75 0 0  13.5 0 0  14.25 0 0  15 0 0  15.75 0 0  16.5 0 0  17.25 0 0  18 0 0  18.75 0 0  19.5 0 0  20.25 0 0  21 0 0  21.75 0 0  22.5 0 0  23.25 0 0  24 0 0  24.75 0 0  25.5 0 0  26.25 0 0  27 0 0  27.75 0 0  28.5 0 0  29.25 0 0  30 0 0  30.75 0 0  31.5 0 0  32.25 0 0  33 0 0  33.75 0 0  34.5 0 0  35.25 0 0  36 0 0  36.75 0 0  37.5 0 0  38.25 0 0  39 0 0  39.75 0 0  40.5 0 0  41.25 0 0  42 0 0  42.75 0 0  43.5 0 0  44.25 0 0  45 0 0  45.75 0 0  46.5 0 0  47.25 0 0  48 0 0  48.75 0 0  49.5 0 0  50.25 0 0  51 0 0  51.75 0 0  52.5 0 0  53.25 0 0  54 0 0  54.75 0 0  55.5 0 0  56.25 0 0  57 0 0  57.75 0 0  58.5 0 0  59.25 0 0  60 0 0  0 0.5 0  0.75 0.5 0  1.5 0.5 0  2.25 0.5 0  3 0.5 0  3.75 0.5 0  4.5 0.5 0  5.25 0.5 0  6 0.5 0  6.75 0.5 0  7.5 0.5 0  8.25 0.5 0  9 0.5 0  9.75 0.5 0  10.5 0.5 0  11.25 0.5 0  12 0.5 0  12.75 0.5 0  13.5 0.5 0  14.25 0.5 0  15 0.5 0  15.75 0.5 0  16.5 0.5 0  17.25 0.5 0  18 0.5 0  18.75 0.5 0  19.5 0.5 0  20.25 0.5 0  21 0.5 0  21.75 0.5 0  22.5 0.5 0  23.25 0.5 0  24 0.5 0  24.75 0.5 0  25.5 0.5 0  26.25 0.5 0  27 0.5 0  27.75 0.5 0  28.5 0.5 0  29.25 0.5 0  30 0.5 0  30.75 0.5 0  31.5 0.5 0  32.25 0.5 0  33 0.5 0  33.75 0.5 0  34.5 0.5 0  35.25 0.5 0  36 0.5 0  36.75 0.5 0  37.5 0.5 0  38.25 0.5 0  39 0.5 0  39.75 0.5 0  40.5 0.5 0  41.25 0.5 0  42 0.5 0  42.75 0.5 0  43.5 0.5 0  44.25 0.5 0  45 0.5 0  45.75 0.5 0  46.5 0.5 0  47.25 0.5 0  48 0.5 0  48.75 0.5 0  49.5 0.5 0  50.25 0.5 0  51 0.5 0  51.75 0.5 0  52.5 0.5 0  53.25 0.5 0  54 0.5 0  54.75 0.5 0  55.5 0.5 0  56.25 0.5 0  57 0.5 0  57.75 0.5 0  58.5 0.5 0  59.25 0.5 0  60 0.5 0  0 1 0  0.75 1 0  1.5 1 0  2.25 1 0  3 1 0  3.75 1 0  4.5 1 0  5.25 1 0  6 1 0  6.75 1 0  7.5 1 0  8.25 1 0  9 1 0  9.75 1 0  10.5 1 0  11.25 1 0  12 1 0  12.75 1 0  13.5 1 0  14.25 1 0  15 1 0  15.75 1 0  16.5 1 0  17.25 1 0  18 1 0  18.75 1 0  19.5 1 0  20.25 1 0  21 1 0  21.75 1 0  22.5 1 0  23.25 1 0  24 1 0  24.75 1 0  25.5 1 0  26.25 1 0  27 1 0  27.75 1 0  28.5 1 0  29.25 1 0  30 1 0  30.75 1 0  31.5 1 0  32.25 1 0  33 1 0  33.75 1 0  34.5 1 0  35.25 1 0  36 1 0  36.75 1 0  37.5 1 0  38.25 1 0  39 1 0  39.75 1 0  40.5 1 0  41.25 1 0  42 1 0  42.75 1 0  43.5 1 0  44.25 1 0  45 1 0  45.75 1 0  46.5 1 0  47.25 1 0  48 1 0  48.75 1 0  49.5 1 0  50.25 1 0  51 1 0  51.75 1 0  52.5 1 0  53.25 1 0  54 1 0  54.75 1 0  55.5 1 0  56.25 1 0  57 1 0  57.75 1 0  58.5 1 0  59.25 1 0  60 1 0  0 1.5 0  0.75 1.5 0  1.5 1.5 0  2.25 1.5 0  3 1.5 0  3.75 1.5 0  4.5 1.5 0  5.25 1.5 0  6 1.5 0  6.75 1.5 0  7.5 1.5 0  8.25 1.5 0  9 1.5 0  9.75 1.5 0  10.5 1.5 0  11.25 1.5 0  12 1.5 0  12.75 1.5 0  13.5 1.5 0  14.25 1.5 0  15 1.5 0  15.75 1.5 0  16.5 1.5 0  17.25 1.5 0  18 1.5 0  18.75 1.5 0  19.5 1.5 0  20.25 1.5 0  21 1.5 0  21.75 1.5 0  22.5 1.5 0  23.25 1.5 0  24 1.5 0  24.75 1.5 0  25.5 1.5 0  26.25 1.5 0  27 1.5 0  27.75 1.5 0  28.5 1.5 0  29.25 1.5 0  30 1.5 0  30.75 1.5 0  31.5 1.5 0  32.25 1.5 0  33 1.5 0  33.75 1.5 0  34.5 1.5 0  35.25 1.5 0  36 1.5 0  36.75 1.5 0  37.5 1.5 0  38.25 1.5 0  39 1.5 0  39.75 1.5 0  40.5 1.5 0  41.25 1.5 0  42 1.5 0  42.75 1.5 0  43.5 1.5 0  44.25 1.5 0  45 1.5 0  45.75 1.5 0  46.5 1.5 0  47.25 1.5 0  48 1.5 0  48.75 1.5 0  49.5 1.5 0  50.25 1.5 0  51 1.5 0  51.75 1.5 0  52.5 1.5 0  53.25 1.5 0  54 1.5 0  54.75 1.5 0  55.5 1.5 0  56.25 1.5 0  57 1.5 0  57.75 1.5 0  58.5 1.5 0  59.25 1.5 0  60 1.5 0  0 2 0  0.75 2 0  1.5 2 0  2.25 2 0  3 2 0  3.75 2 0  4.5 2 0  5.25 2 0  6 2 0  6.75 2 0  7.5 2 0  8.25 2 0  9 2 0  9.75 2 0  10.5 2 0  11.25 2 0  12 2 0  12.75 2 0  13.5 2 0  14.25 2 0  15 2 0  15.75 2 0  16.5 2 0  17.25 2 0  18 2 0  18.75 2 0  19.5 2 0  20.25 2 0  21 2 0  21.75 2 0  22.5 2 0  23.25 2 0  24 2 0  24.75 2 0  25.5 2 0  26.25 2 0  27 2 0  27.75 2 0  28.5 2 0  29.25 2 0  30 2 0  30.75 2 0  31.5 2 0  32.25 2 0  33 2 0  33.75 2 0  34.5 2 0  35.25 2 0  36 2 0  36.75 2 0  37.5 2 0  38.25 2 0  39 2 0  39.75 2 0  40.5 2 0  41.25 2 0  42 2 0  42.75 2 0  43.5 2 0  44.25 2 0  45 2 0  45.75 2 0  46.5 2 0  47.25 2 0  48 2 0  48.75 2 0  49.5 2 0  50.25 2 0  51 2 0  51.75 2 0  52.5 2 0  53.25 2 0  54 2 0  54.75 2 0  55.5 2 0  56.25 2 0  57 2 0  57.75 2 0  58.5 2 0  59.25 2 0  60 2 0  0 2.5 0  0.75 2.5 0  1.5 2.5 0  2.25 2.5 0  3 2.5 0  3.75 2.5 0  4.5 2.5 0  5.25 2.5 0  6 2.5 0  6.75 2.5 0  7.5 2.5 0  8.25 2.5 0  9 2.5 0  9.75 2.5 0  10.5 2.5 0  11.25 2.5 0  12 2.5 0  12.75 2.5 0  13.5 2.5 0  14.25 2.5 0  15 2.5 0  15.75 2.5 0  16.5 2.5 0  17.25 2.5 0  18 2.5 0  18.75 2.5 0  19.5 2.5 0  20.25 2.5 0  21 2.5 0  21.75 2.5 0  22.5 2.5 0  23.25 2.5 0  24 2.5 0  24.75 2.5 0  25.5 2.5 0  26.25 2.5 0  27 2.5 0  27.75 2.5 0  28.5 2.5 0  29.25 2.5 0  30 2.5 0  30.75 2.5 0  31.5 2.5 0  32.25 2.5 0  33 2.5 0  33.75 2.5 0  34.5 2.5 0  35.25 2.5 0  36 2.5 0  36.75 2.5 0  37.5 2.5 0  38.25 2.5 0  39 2.5 0  39.75 2.5 0  40.5 2.5 0  41.25 2.5 0  42 2.5 0  42.75 2.5 0  43.5 2.5 0  44.25 2.5 0  45 2.5 0  45.75 2.5 0  46.5 2.5 0  47.25 2.5 0  48 2.5 0  48.75 2.5 0  49.5 2.5 0  50.25 2.5 0  51 2.5 0  51.75 2.5 0  52.5 2.5 0  53.25 2.5 0  54 2.5 0  54.75 2.5 0  55.5 2.5 0  56.25 2.5 0  57 2.5 0  57.75 2.5 0  58.5 2.5 0  59.25 2.5 0  60 2.5 0  0 3 0  0.75 3 0  1.5 3 0  2.25 3 0  3 3 0  3.75 3 0  4.5 3 0  5.25 3 0  6 3 0  6.75 3 0  7.5 3 0  8.25 3 0  9 3 0  9.75 3 0  10.5 3 0  11.25 3 0  12 3 0  12.75 3 0  13.5 3 0  14.25 3 0  15 3 0  15.75 3 0  16.5 3 0  17.25 3 0  18 3 0  18.75 3 0  19.5 3 0  20.25 3 0  21 3 0  21.75 3 0  22.5 3 0  23.25 3 0  24 3 0  24.75 3 0  25.5 3 0  26.25 3 0  27 3 0  27.75 3 0  28.5 3 0  29.25 3 0  30 3 0  30.75 3 0  31.5 3 0  32.25 3 0  33 3 0  33.75 3 0  34.5 3 0  35.25 3 0  36 3 0  36.75 3 0  37.5 3 0  38.25 3 0  39 3 0  39.75 3 0  40.5 3 0  41.25 3 0  42 3 0  42.75 3 0  43.5 3 0  44.25 3 0  45 3 0  45.75 3 0  46.5 3 0  47.25 3 0  48 3 0  48.75 3 0  49.5 3 0  50.25 3 0  51 3 0  51.75 3 0  52.5 3 0  53.25 3 0  54 3 0  54.75 3 0  55.5 3 0  56.25 3 0  57 3 0  57.75 3 0  58.5 3 0  59.25 3 0  60 3 0  0 3.5 0  0.75 3.5 0  1.5 3.5 0  2.25 3.5 0  3 3.5 0  3.75 3.5 0  4.5 3.5 0  5.25 3.5 0  6 3.5 0  6.75 3.5 0  7.5 3.5 0  8.25 3.5 0  9 3.5 0  9.75 3.5 0  10.5 3.5 0  11.25 3.5 0  12 3.5 0  12.75 3.5 0  13.5 3.5 0  14.25 3.5 0  15 3.5 0  15.75 3.5 0  16.5 3.5 0  17.25 3.5 0  18 3.5 0  18.75 3.5 0  19.5 3.5 0  20.25 3.5 0  21 3.5 0  21.75 3.5 0  22.5 3.5 0  23.25 3.5 0  24 3.5 0  24.75 3.5 0  25.5 3.5 0  26.25 3.5 0  27 3.5 0  27.75 3.5 0  28.5 3.5 0  29.25 3.5 0  30 3.5 0  30.75 3.5 0  31.5 3.5 0  32.25 3.5 0  33 3.5 0  33.75 3.5 0  34.5 3.5 0  35.25 3.5 0  36 3.5 0  36.75 3.5 0  37.5 3.5 0  38.25 3.5 0  39 3.5 0  39.75 3.5 0  40.5 3.5 0  41.25 3.5 0  42 3.5 0  42.75 3.5 0  43.5 3.5 0  44.25 3.5 0  45 3.5 0  45.75 3.5 0  46.5 3.5 0  47.25 3.5 0  48 3.5 0  48.75 3.5 0  49.5 3.5 0  50.25 3.5 0  51 3.5 0  51.75 3.5 0  52.5 3.5 0  53.25 3.5 0  54 3.5 0  54.75 3.5 0  55.5 3.5 0  56.25 3.5 0  57 3.5 0  57.75 3.5 0  58.5 3.5 0  59.25 3.5 0  60 3.5 0  0 4 0  0.75 4 0  1.5 4 0  2.25 4 0  3 4 0  3.75 4 0  4.5 4 0  5.25 4 0  6 4 0  6.75 4 0  7.5 4 0  8.25 4 0  9 4 0  9.75 4 0  10.5 4 0  11.25 4 0  12 4 0  12.75 4 0  13.5 4 0  14.25 4 0  15 4 0  15.75 4 0  16.5 4 0  17.25 4 0  18 4 0  18.75 4 0  19.5 4 0  20.25 4 0  21 4 0  21.75 4 0  22.5 4 0  23.25 4 0  24 4 0  24.75 4 0  25.5 4 0  26.25 4 0  27 4 0  27.75 4 0  28.5 4 0  29.25 4 0  30 4 0  30.75 4 0  31.5 4 0  32.25 4 0  33 4 0  33.75 4 0  34.5 4 0  35.25 4 0  36 4 0  36.75 4 0  37.5 4 0  38.25 4 0  39 4 0  39.75 4 0  40.5 4 0  41.25 4 0  42 4 0  42.75 4 0  43.5 4 0  44.25 4 0  45 4 0  45.75 4 0  46.5 4 0  47.25 4 0  48 4 0  48.75 4 0  49.5 4 0  50.25 4 0  51 4 0  51.75 4 0  52.5 4 0  53.25 4 0  54 4 0  54.75 4 0  55.5 4 0  56.25 4 0  57 4 0  57.75 4 0  58.5 4 0  59.25 4 0  60 4 0  0.375 0.25 0  1.125 0.25 0  1.875 0.25 0  2.625 0.25 0  3.375 0.25 0  4.125 0.25 0  4.875 0.25 0  5.625 0.25 0  6.375 0.25 0  7.125 0.25 0  7.875 0.25 0  8.625 0.25 0  9.375 0.25 0  10.125 0.25 0  10.875 0.25 0  11.625 0.25 0  12.375 0.25 0  13.125 0.25 0  13.875 0.25 0  14.625 0.25 0  15.375 0.25 0  16.125 0.25 0  16.875 0.25 0  17.625 0.25 0  18.375 0.25 0  19.125 0.25 0  19.875 0.25 0  20.625 0.25 0  21.375 0.25 0  22.125 0.25 0  22.875 0.25 0  23.625 0.25 0  24.375 0.25 0  25.125 0.25 0  25.875 0.25 0  26.625 0.25 0  27.375 0.25 0  28.125 0.25 0  28.875 0.25 0  29.625 0.25 0  30.375 0.25 0  31.125 0.25 0  31.875 0.25 0  32.625 0.25 0  33.375 0.25 0  34.125 0.25 0  34.875 0.25 0  35.625 0.25 0  36.375 0.25 0  37.125 0.25 0  37.875 0.25 0  38.625 0.25 0  39.375 0.25 0  40.125 0.25 0  40.875 0.25 0  41.625 0.25 0  42.375 0.25 0  43.125 0.25 0  43.875 0.25 0  44.625 0.25 0  45.375 0.25 0  46.125 0.25 0  46.875 0.25 0  47.625 0.25 0  48.375 0.25 0  49.125 0.25 0  49.875 0.25 0  50.625 0.25 0  51.375 0.25 0  52.125 0.25 0  52.875 0.25 0  53.625 0.25 0  54.375 0.25 0  55.125 0.25 0  55.875 0.25 0  56.625 0.25 0  57.375 0.25 0  58.125 0.25 0  58.875 0.25 0  59.625 0.25 0  0.375 0.75 0  1.125 0.75 0  1.875 0.75 0  2.625 0.75 0  3.375 0.75 0  4.125 0.75 0  4.875 0.75 0  5.625 0.75 0  6.375 0.75 0  7.125 0.75 0  7.875 0.75 0  8.625 0.75 0  9.375 0.75 0  10.125 0.75 0  10.875 0.75 0  11.625 0.75 0  12.375 0.75 0  13.125 0.75 0  13.875 0.75 0  14.625 0.75 0  15.375 0.75 0  16.125 0.75 0  16.875 0.75 0  17.625 0.75 0  18.375 0.75 0  19.125 0.75 0  19.875 0.75 0  20.625 0.75 0  21.375 0.75 0  22.125 0.75 0  22.875 0.75 0  23.625 0.75 0  24.375 0.75 0  25.125 0.75 0  25.875 0.75 0  26.625 0.75 0  27.375 0.75 0  28.125 0.75 0  28.875 0.75 0  29.625 0.75 0  30.375 0.75 0  31.125 0.75 0  31.875 0.75 0  32.625 0.75 0  33.375 0.75 0  34.125 0.75 0  34.875 0.75 0  35.625 0.75 0  36.375 0.75 0  37.125 0.75 0  37.875 0.75 0  38.625 0.75 0  39.375 0.75 0  40.125 0.75 0  40
[...]
<PointData  Scalars="f_8-1"> 
<DataArray  type="Float64"  Name="f_8-1"  format="ascii">1.8750047903580684e+00  1.8532756903643322e+00  1.8298920736997601e+00  1.8064726660393278e+00  1.7830241018471733e+00  1.7595659693007535e+00  1.7361044519106519e+00  1.7126423716246606e+00  1.6891808343417749e+00  1.6657200061965411e+00  1.6422597294260284e+00  1.6187998014682055e+00  1.5953400709900469e+00  1.5718804428150994e+00  1.5484208652136529e+00  1.5249613113214613e+00  1.5015017684194616e+00  1.4780422303719098e+00  1.4545826944932265e+00  1.4311231594937832e+00  1.4076636248414136e+00  1.3842040902634041e+00  1.3607445556530124e+00  1.3372850209479687e+00  1.3138254861251217e+00  1.2903659511687622e+00  1.2669064160733172e+00  1.2434468808345709e+00  1.2199873454509522e+00  1.1965278099213357e+00  1.1730682742452025e+00  1.1496087384222831e+00  1.1261492024523398e+00  1.1026896663353534e+00  1.0792301300711624e+00  1.0557705936598620e+00  1.0323110571012521e+00  1.0088515203956001e+00  9.8539198354239110e-01  9.6193244654255206e-01  9.3847290939428507e-01  9.1501337210095501e-01  8.9155383465617744e-01  8.6809429707189034e-01  8.4463475932564991e-01  8.2117522145914124e-01  7.9771568339500776e-01  7.7425614527532605e-01  7.5079660683990124e-01  7.2733706856086555e-01  7.0387752958567396e-01  6.8041799143995940e-01  6.5695845141039522e-01  6.3349891427912675e-01  6.1003937167832867e-01  5.8657983811442405e-01  5.6312028864085539e-01  5.3966076574034649e-01  5.1620119770314254e-01  4.9274170427771469e-01  4.6928208744522631e-01  4.4582267043611817e-01  4.2236293175559519e-01  3.9890369867856557e-01  3.7544368228773933e-01  3.5198485456010903e-01  3.2852432757973721e-01  3.0506633123382743e-01  2.8160532855083709e-01  2.5814858712818606e-01  2.3468732094150591e-01  2.1122658698165683e-01  1.8775888640466004e-01  1.6427051569461895e-01  1.4080753955051903e-01  1.1727334427682519e-01  9.3926665645856167e-02  7.0247844124073255e-02  4.7500570423449073e-02  2.2272608885535335e-02  1.7373994185745315e-03  1.8771981782060285e+00  1.8532207268681808e+00  1.8298863541464372e+00  1.8064548902985302e+00  1.7830038748377943e+00  1.7595448414948349e+00  1.7360831115930420e+00  1.7126211456901956e+00  1.6891598110390849e+00  1.6656991568024662e+00  1.6422389993789426e+00  1.6187791433458347e+00  1.5953194526440395e+00  1.5718598450735517e+00  1.5484002777752188e+00  1.5249407288581944e+00  1.5014811883483228e+00  1.4780216514167961e+00  1.4545621160728082e+00  1.4311025813177485e+00  1.4076430467856149e+00  1.3841835122612351e+00  1.3607239776789459e+00  1.3372644429855620e+00  1.3138049081696088e+00  1.2903453732155570e+00  1.2668858381218422e+00  1.2434263028833663e+00  1.2199667675001402e+00  1.1965072319704191e+00  1.1730476962943135e+00  1.1495881604712319e+00  1.1261286245012299e+00  1.1026690883840686e+00  1.0792095521198330e+00  1.0557500157082904e+00  1.0322904791497829e+00  1.0088309424435955e+00  9.8537140559105429e-01  9.6191186858962896e-01  9.3845233144398210e-01  9.1499279414548285e-01  8.9153325670990413e-01  8.6807371910850950e-01  8.4461418139302535e-01  8.2115464347089206e-01  7.9769510550589662e-01  7.7423556721043829e-01  7.5077602908358831e-01  7.2731649026761358e-01  7.0385695221794997e-01  6.8039741249305452e-01  6.5693787513143775e-01  6.3347833354068461e-01  6.1001879831688510e-01  5.8655925267784315e-01  5.6309972276206111e-01  5.3964016849255869e-01  5.1618065024524917e-01  4.9272107847518898e-01  4.6926158357653425e-01  4.4580197842243197e-01  4.2234252598652733e-01  3.9888286270587892e-01  3.7542347804308956e-01  3.5196374272810782e-01  3.2850446188157750e-01  3.0504481330883465e-01  2.8158575593538121e-01  2.5812678401224209e-01  2.3466683790582929e-01  2.1120556177438060e-01  1.8773257442744079e-01  1.6425879356697989e-01  1.4076532971001418e-01  1.1730584091882429e-01  9.3812924758672075e-02  7.0437578380670940e-02  4.7030940306723300e-02  2.3215780130522667e-02  -3.7528836114680668e-04  1.8771946675257773e+00  1.8534395990978680e+00  1.8299312902456000e+00  1.8064706564791650e+00  1.7830105036846911e+00  1.7595491255140792e+00  1.7360870828095096e+00  1.7126252121265944e+00  1.6891639161091658e+00  1.6657032139827148e+00  1.6422429735117876e+00  1.6187830396148681e+00  1.5953232904975869e+00  1.5718636448299954e+00  1.5484040545885751e+00  1.5249444927963443e+00  1.5014849453109260e+00  1.4780254047706836e+00  1.4545658675766167e+00  1.4311063319107467e+00  1.4076467969241668e+00  1.3841872621834659e+00  1.3607277274938705e+00  1.3372681927508625e+00  1.3138086579099171e+00  1.2903491229447419e+00  1.2668895878451747e+00  1.2434300526042215e+00  1.2199705172195507e+00  1.1965109816892223e+00  1.1730514460126615e+00  1.1495919101893524e+00  1.1261323742190621e+00  1.1026728381017925e+00  1.0792133018371688e+00  1.0557537654257763e+00  1.0322942288663957e+00  1.0088346921612561e+00  9.8537515530616648e-01  9.6191561830886663e-01  9.3845608115505430e-01  9.1499654387091756e-01  8.9153700640876909e-01  8.6807746885467296e-01  8.4461793105443250e-01  8.2115839328170925e-01  7.9769885505510285e-01  7.7423931721253691e-01  7.5077977831048648e-01  7.2732024080641544e-01  7.0386070056632932e-01  6.8040116445164689e-01  6.5694162122862076e-01  6.3348208901172443e-01  6.1002253903927894e-01  5.8656301620392237e-01  5.6310345162512310e-01  5.3964394900611767e-01  5.1618435506294047e-01  4.9272489173024037e-01  4.6926524376134909e-01  4.4580584878949781e-01  4.2234611153401724e-01  3.9888681901764095e-01  3.7542695967771095e-01  3.5196778050395588e-01  3.2850784037762032e-01  3.0504867663872198e-01  2.8158890031483413e-01  2.5812901585857867e-01  2.3466868367008079e-01  2.1120305244915408e-01  1.8773615746834263e-01  1.6425586477125059e-01  1.4078733187113690e-01  1.1729860065443827e-01  9.3860153040501521e-02  7.0380844671076553e-02  4.7001123163663720e-02  2.3232992098975096e-02  1.7002664392871204e-04  1.8771994860959416e+00  1.8535523346271863e+00  1.8300020860233097e+00  1.8065136685113095e+00  1.7830447575574213e+00  1.7595810760327026e+00  1.7361186875850509e+00  1.7126567993438759e+00  1.6891954345887144e+00  1.6657346171074459e+00  1.6422742571693647e+00  1.6188142266132646e+00  1.5953544096254353e+00  1.5718947211441623e+00  1.5484351056177084e+00  1.5249755297652001e+00  1.5015159747090809e+00  1.4780564302619470e+00  1.4545968910737981e+00  1.4311373544276893e+00  1.4076778189545027e+00  1.3842182839826087e+00  1.3607587491791791e+00  1.3372992143838036e+00  1.3138396795168641e+00  1.2903801445403076e+00  1.2669206094349468e+00  1.2434610741916696e+00  1.2200015388057519e+00  1.1965420032749690e+00  1.1730824675981451e+00  1.1496229317746649e+00  1.1261633958043522e+00  1.1027038596868088e+00  1.0792443234224200e+00  1.0557847870102810e+00  1.0323252504519762e+00  1.0088657137444883e+00  9.8540617689341947e-01  9.6194663988834950e-01  9.3848710274846725e-01  9.1502756543864527e-01  8.9156802802268875e-01  8.6810849038552040e-01  8.4464895273292817e-01  8.2118941470002371e-01  7.9772987692767183e-01  7.7427033830103897e-01  7.5081080073898465e-01  7.2735126097426861e-01  7.0389172450442661e-01  6.8043218219007817e-01  6.5697264902630359e-01  6.3351310073420086e-01  6.1005357606111232e-01  5.8659401404178679e-01  5.6313450911787810e-01  5.3967491713789162e-01  5.1621545451257222e-01  4.9275580118505263e-01  4.6929642209277111e-01  4.4583665219385493e-01  4.2237742290234487e-01  3.9891745316064697e-01  3.7545845386624632e-01  3.5199819648088659e-01  3.2853942992065288e-01  3.0507883989128237e-01  2.8161977198905436e-01  2.5815845875626586e-01  2.3469606149364006e-01  2.1123167136044416e-01  1.8775803050606865e-01  1.6429274332302743e-01  1.4080451928698021e-01  1.1736411098932875e-01  9.3850514780518340e-02  7.0477614106633307e-02  4.6863278765422303e-02  2.3528778294217387e-02  -1.5031097672184732e-04  1.8772073459602274e+00  1.8535789958058739e+00  1.8300225008014166e+00  1.8065252120967079e+00  1.7830528115854556e+00  1.7595881113355498e+00  1.7361255084713716e+00  1.7126636076754425e+00  1.6892022383239040e+00  1.6657413966535728e+00  1.6422810058049340e+00  1.6188209477640458e+00  1.5953611106470365e+00  1.5719014090679635e+00  1.5484417857026209e+00  1.5249822054097031e+00  1.5015226479543571e+00  1.4780631022501443e+00  1.4546035624251559e+00  1.4311440254619328e+00  1.4076844898354794e+00  1.3842249547900740e+00  1.3607654199526069e+00  1.3373058851415225e+00  1.3138463502677666e+00  1.2903868152882942e+00  1.2669272801818730e+00  1.2434677449382561e+00  1.2200082095523217e+00  1.1965486740216174e+00  1.1730891383448590e+00  1.1496296025215045e+00  1.1261700665511341e+00  1.1027105304338247e+00  1.0792509941690496e+00  1.0557914577576519e+00  1.0323319211979385e+00  1.0088723844930483e+00  9.8541284763709736e-01  9.6195331064099143e-01  9.3849377348462859e-01  9.1503423620480162e-01  8.9157469873462858e-01  8.6811516119475263e-01  8.4465562336931321e-01  8.2119608564119329e-01  7.9773654733736654e-01  7.7427700962945278e-01  7.5081747049831160e-01  7.2735793338618815e-01  7.0389839248980701e-01  6.8043885747619470e-01  6.5697931243744812e-01  6.3351978320891345e-01  6.1006022837991813e-01  5.8660071338530506e-01  5.6314113625022622e-01  5.3968165346872665e-01  5.1622202830664277e-01  4.9276261291248852e-01  4.6930289130291492e-01  4.4584360496715653e-01  4.2238370632097538e-01  3.9892463885737650e-01  3.7546445522142474e-01  3.5200568302995450e-01  3.2854511258303143e-01  3.0508646702056375e-01  2.8162528685403376e-01  2.5816529207213185e-01  2.3470208025160089e-01  2.1123539689400009e-01  1.8776841896559290e-01  1.6428898076904289e-01  1.4083137785822522e-01  1.1733745425301165e-01  9.3916961376058247e-02  7.0386318334889120e-02  4.6998030047317320e-02  2.3380854496399584e-02  9.6727183007458970e-05  1.8771994793096778e+00  1.8535522689186632e+00  1.8300020242429025e+00  1.8065136307700516e+00  1.7830447374316565e+00  1.7595810657048745e+00  1.7361186824952617e+00  1.7126567969461712e+00  1.6891954332275805e+00  1.6657346159191950e+00  1.6422742559198504e+00  1.6188142253562208e+00  1.5953544084525817e+00  1.5718947200984765e+00  1.5484351046973934e+00  1.5249755289482161e+00  1.5015159739702155e+00  1.4780564295798222e+00  1.4545968904322197e+00  1.4311373538149419e+00  1.4076778183621805e+00  1.3842182834047214e+00  1.3607587486114476e+00  1.3372992138231812e+00  1.3138396789611790e+00  1.2903801439880542e+00  1.2669206088850586e+00  1.2434610736434009e+00  1.2200015382586016e+00  1.1965420027285729e+00  1.1730824670522717e+00  1.1496229312291479e+00  1.1261633952590793e+00  1.1027038591417055e+00  1.0792443228774298e+00  1.0557847864653740e+00  1.0323252499071363e+00  1.0088657131996963e+00  9.8540617634867100e-01  9.6194663934365199e-01  9.3848710220382936e-01  9.1502756489408166e-01  8.9156802747824027e-01  8.6810848984122002e-01  8.4464895218885983e-01  8.2118941415627378e-01  7.9772987638442006e-01  7.7427033775846099e-01  7.5081080019748447e-01  7.2735126043419707e-01  7.0389172396668498e-01  6.8043218165536268e-01  6.5697264849658499e-01  6.3351310021094565e-01  6.1005357554839867e-01  5.8659401354302765e-01  5.6313450864085790e-01  5.3967491669126966e-01  5.1621545410965053e-01  4.9275580084836162e-01  4.6929642184171477e-01  4.4583665208501067e-01  4.2237742295685093e-01  3.9891745351245694e-01  3.7545845451449894e-01  3.5199819772728952e-01  3.2853943163677141e-01  3.0507884271442665e-01  2.8161977524896120e-01  2.5815846357771610e-01  2.3469606529017012e-01  2.1123167577792368e-01  1.8775802861158081e-01  1.6429274083462747e-01  1.4080450543428055e-01  1.1736410793374905e-01  9.3850503851880804e-02  7.0477648534837595e-02  4.6863293182095728e-02  2.3528826837104850e-02  -1.5033983676433326e-04  1.8771946417349330e+00  1.8534394269560475e+00  1.8299311573540180e+00  1.8064705819919173e+00  1.7830104635173099e+00  1.7595491040700668e+00  1.7360870709294520e+00  1.7126252043209180e+00  1.6891639094896882e+00  1.6657032074882729e+00  1.6422429670300878e+00  1.6187830333108801e+00  1.5953232844987177e+00  1.5718636391630192e+00  1.5484040492145754e+00  1.5249444876539100e+00  1.5014849403411490e+00  1.4780253999259467e+00  1.4545658628212328e+00  1.4311063272188005e+00  1.4076467922770781e+00  1.3841872575679568e+00  1.3607277229004926e+00  1.3372681881729136e+00  1.3138086533426769e+00  1.2903491183849074e+00  1.2668895832904339e+00  1.2434300480529734e+00  1.2199705126707006e+00  1.1965109771420048e+00  1.1730514414665663e+00  1.1495919056440167e+00  1.1261323696742458e+00  1.1026728335573410e+00  1.0792132972929669e+00  1.0557537608817507e+00  1.0322942243225099e+00  1.0088346876174756e+00  9.8537515076248483e-01  9.6191561376529466e-01  9.3845607661160957e-01  9.1499653932764835e-01  8.9153700186573759e-01  8.6807746431199106e-01  8.4461792651225043e-01  8.2115838874026648e-01  7.9769885051470935e-01  7.7423931267374602e-01  7.5077977377392191e-01  7.2732023627331388e-01  7.0386069603796697e-01  6.8040115993072248e-01  6.5694161671779872e-01  6.3348208451676769e-01  6.1002253456593514e-01  5.8656301176392889e-01  5.6310344723162975e-01  5.3964394468135513e-01  5.1618435083856351e-01  4.9272488764420208e-01  4.6926523989098257e-01  4.4580584519044586e-01  4.2234610839050923e-01  3.9888681638989593e-01  3.7542695798359532e-01  3.5196777973560039e-01  3.2850784143160772e-01  3.0504867910586952e-01  2.8158890592026481e-01  2.5812902232887980e-01  2.3466869319629602e-01  2.1120305597826913e-01  1.8773615684037409e-01  1.6425584174180882e-01  1.4078730740014972e-01  1.1729856195961816e-01  9.3860159191854919e-02  7.0380856221277252e-02  4.7001237281503377e-02  2.3233004858779199e-02  1.7010038289538775e-04  1.8771981778867146e+00  1.8532202798115898e+00  1.8298861314115353e+00  1.8064547611943604e+00  1.7830037929154454e+00  1.7595447842676939e+00  1.7360830668473985e+00  1.7126211060090877e+00  1.6891597725508984e+00  1.6656991182163325e+00  1.6422389606949046e+00  1.6187791048765527e+00  1.5953194145935039e+00  1.5718598074810333e+00  1.5484002405836801e+00  1.5249406919808146e+00  1.5014811517036861e+00  1.4780216149400847e+00  1.4545620797158954e+00  1.4311025450458454e+00  1.4076430105738198e+00  1.3841834760917682e+00  1.3607239415391263e+00  1.3372644068664170e+00  1.3138048720648055e+00  1.2903453371206712e+00  1.2668858020337748e+00  1.2434262667999738e+00  1.2199667314199487e+00  1.1965071958924154e+00  1.1730476602178135e+00  1.1495881243957533e+00  1.1261285884264380e+00  1.1026690523097622e+00  1.0792095160458661e+00  1.0557499796345597e+00  1.0322904430762361e+00  1.0088309063701972e+00  9.8537136951778337e-01  9.6191183251650314e-01  9.3845229537103836e-01  9.1499275807277214e-01  8.9153322063752316e-01  8.6807368303660282e-01  8.4461414532181200e-01  8.2115460740066992e-01  7.9769506943715152e-01  7.7423553114381882e-01  7.5077599302013598e-01  7.2731645420871038e-01  7.0385691616584622e-01  6.8039737645066434e-01  6.5693783910361958e-01  6.3347829753355678e-01  6.1001876234083108e-01  5.8655921674574230e-01  5.6309968689571199e-01  5.3964013271910438e-01  5.1618061460950804e-01  4.9272104303397712e-01  4.6926154841976714e-01  4.4580194366684517e-01  4.2234249180716910e-01  3.9888282933466290e-01  3.7542344580441539e-01  3.5196371205544286e-01  3.2850443331342760e-01  3.0504478752035324e-01  2.8158573348961163e-01  2.5812676511043647e-01  2.3466682092224753e-01  2.1120554222211463e-01  1.8773254137303841e-01  1.6425873930376908e-01  1.4076524952381964e-01  1.1730576948569151e-01  9.3812867464517447e-02  7.0437611163556069e-02  4.7031034397471479e-02  2.3215908646707174e-02  -3.7544147871535247e-04  1.8750026227537357e+00  1.8532752400053401e+00  1.8298918130281150e+00  1.8064725080623152e+00  1.7830239942936752e+00  1.7595658881863705e+00  1.7361043843342527e+00  1.7126423098065557e+00  1.6891807740089566e+00  1.6657199457238812e+00  1.6422596686582751e+00  1.6187997407082522e+00  1.5953400104928463e+00  1.5718803826752048e+00  1.5484208054135429e+00  1.5249612517982836e+00  1.5015017091054617e+00  1.4780421712103247e+00  1.4545826354409432e+00  1.4311231005193794e+00  1.4076635659222514e+00  1.3842040313832984e+00  1.3607444968003584e+00  1.3372849621145169e+00  1.3138254273050216e+00  1.2903658923579218e+00  1.2669063572688593e+00  1.2434468220344865e+00  1.2199872866538704e+00  1.1965277511263166e+00  1.1730682154515937e+00  1.1496086796296299e+00  1.1261491436603388e+00  1.1026896075438077e+00  1.0792300712799396e+00  1.0557705348688671e+00  1.0323109983104335e+00  1.0088514616049262e+00  9.8539192475184589e-01  9.6193238775215595e-01  9.3847285060407604e-01  9.1501331331099856e-01  8.9155377586656992e-01  8.6809423828278964e-01  8.4463470053729339e-01  8.2117516267185275e-01  7.9771562460928880e-01  7.7425608649192290e-01  7.5079654805984630e-01  7.2733700978577465e-01  7.0387747081774410e-01  6.8041793268268846e-01  6.5695839266840617e-01  6.3349885555993801e-01  6.1003931299163616e-01  5.8657977947630691e-01  5.6312023007136669e-01  5.3966070727381010e-01  5.1620113938004253e-01  4.9274164617118843e-01  4.6928202963350690e-01  4.4582261307524573e-01  4.2236287498605618e-01  3.9890364283052371e-01  3.7544362758846045e-01  3.5198480167234941e-01  3.2852427682075819e-01  3.0506628372491112e-01  2.8160528446172189e-01  2.5814854741470833e-01  2.3468728320218096e-01  2.1122654833554555e-01  1.8775883362772880e-01  1.6427044391116413e-01  1.4080743568490597e-01  1.1727324897093318e-01  9.3926578058441790e-02  7.0247848184402134e-02  4.7500682218328136e-02  2.2272675596439750e-02  1.7371996000114423e-03  1.8646890502335003e+00  1.8415673322784694e+00  1.8181709367324390e+00  1.7947327702791567e+00  1.7712784092710991e+00  1.7478182020966129e+00  1.7243563136537954e+00  1.7008945762248002e+00  1.6774335123684410e+00  1.6539730646500002e+00  1.6305130366352607e+00  1.6070532542222069e+00  1.5835936019142851e+00  1.5601340136640212e+00  1.5366744555100218e+00  1.5132149109284605e+00  1.4897553723402901e+00  1.4662958362906111e+00  1.4428363012954537e+00  1.4193767666797701e+00  1.3959172321668960e+00  1.3724576976198131e+00  1.3489981629854262e+00  1.3255386282312995e+00  1.3020790933466393e+00  1.2786195583220883e+00  1.2551600231555469e+00  1.2317004878438265e+00  1.2082409523866557e+00  1.1847814167828823e+00  1.1613218810325237e+00  1.1378623451351237e+00  1.1144028090907525e+00  1.0909432728992019e+00  1.0674837365605279e+00  1.0440242000746127e+00  1.0205646634415659e+00  9.9710512666115036e-01  9.7364558973376236e-01  9.5018605265861555e-01  9.2672651543715456e-01  9.0326697806666179e-01  8.7980744055209037e-01  8.5634790288428275e-01  8.3288836507980069e-01  8.0942882710864683e-01  7.8596928902418317e-01  7.6250975073163008e-01  7.3905021239671209e-01  7.1559067373122365e-01  6.9213113522873138e-01  6.6867159605082238e-01  6.4521205759953681e-01  6.2175251755471028e-01  5.9829297969324391e-01  5.7483343794082287e-01  5.5137390190028579e-01  5.2791435657833863e-01  5.0445482497604022e-01  4.8099527215992216e-01  4.5753575023524518e-01  4.3407618175619261e-01  4.1061667978720329e-01  3.8715708001377369e-01  3.6369762352759244e-01  3.4023798834670443e-01  3.1677869224866784e-01  2.9331919137832496e-01  2.6986039271298012e-01  2.4640101012313118e-01  2.2294052793711555e-01  1.9947443371499546e-01  1.7599906317784236e-01  1.5251773435776853e-01  1.2903303825631984e-01  1.0556736901709836e-01  8.2121856888604391e-02  5.8722596101831843e-02  3.5239557482055456e-02  1.0749863386459306e-02  1.8653445691304207e+00  1.8416925542421909e+00  1.8182601589204586e+00  1.7948092277515495e+00  1.7713511857484485e+00  1.7478899947284043e+00  1.7244280314170566e+00  1.7009664417899366e+00  1.6775055013389453e+00  1.6540451138751795e+00  1.6305851035874881e+00  1.6071253200510336e+00  1.5836656611158826e+00  1.5602060665492163e+00  1.5367465038443755e+00  1.5132869564386995e+00  1.4898274162153751e+00  1.4663678792814556e+00  1.4429083438183867e+00  1.4194488089676294e+00  1.39598927433