<?xml version="1.0"?>
<VTKFile type="UnstructuredGrid"  version="0.1"  >
<UnstructuredGrid>
<Piece  NumberOfPoints="1369" NumberOfCells="2560">
<Points>
<DataArray  type="Float64"  NumberOfComponents="3"  format="ascii">0 0 0  0.75 0 0  1.5 0 0  2.25 0 0  3 0 0  3.75 0 0  4.5 0 0  5.25 0 0  6 0 0  6.75 0 0  7.5 0 0  8.25 0 0  9 0 0  9.75 0 0  10.5 0 0  11.25 0 0  12 0 0  12.75 0 0  13.5 0 0  14.25 0 0  15 0 0  15.75 0 0  16.5 0 0  17.25 0 0  18 0 0  18.75 0 0  19.5 0 0  20.25 0 0  21 0 0  21.75 0 0  22.5 0 0  23.25 0 0  24 0 0  24.75 0 0  25.5 0 0  26.25 0 0  27 0 0  27.75 0 0  28.5 0 0  29.25 0 0  30 0 0  30.75 0 0  31.5 0 0  32.25 0 0  33 0 0  33.75 0 0  34.5 0 0  35.25 0 0  36 0 0  36.75 0 0  37.5 0 0  38.25 0 0  39 0 0  39.75 0 0  40.5 0 0  41.25 0 0  42 0 0  42.75 0 0  43.5 0 0  44.25 0 0  45 0 0  45.75 0 0  46.5 0 0  47.25 0 0  48 0 0  48.75 0 0  49.5 0 0  50.25 0 0  51 0 0  51.75 0 0  52.5 0 0  53.25 0 0  54 0 0  54.75 0 0  55.5 0 0  56.25 0 0  57 0 0  57.75 0 0  58.5 0 0  59.25 0 0  60 0 0  0 0.5 0  0.75 0.5 0  1.5 0.5 0  2.25 0.5 0  3 0.5 0  3.75 0.5 0  4.5 0.5 0  5.25 0.5 0  6 0.5 0  6.75 0.5 0  7.5 0.5 0  8.25 0.5 0  9 0.5 0  9.75 0.5 0  10.5 0.5 0  11.25 0.5 0  12 0.5 0  12.75 0.5 0  13.5 0.5 0  14.25 0.5 0  15 0.5 0  15.75 0.5 0  16.5 0.5 0  17.25 0.5 0  18 0.5 0  18.75 0.5 0  19.5 0.5 0  20.25 0.5 0  21 0.5 0  21.75 0.5 0  22.5 0.5 0  23.25 0.5 0  24 0.5 0  24.75 0.5 0  25.5 0.5 0  26.25 0.5 0  27 0.5 0  27.75 0.5 0  28.5 0.5 0  29.25 0.5 0  30 0.5 0  30.75 0.5 0  31.5 0.5 0  32.25 0.5 0  33 0.5 0  33.75 0.5 0  34.5 0.5 0  35.25 0.5 0  36 0.5 0  36.75 0.5 0  37.5 0.5 0  38.25 0.5 0  39 0.5 0  39.75 0.5 0  40.5 0.5 0  41.25 0.5 0  42 0.5 0  42.75 0.5 0  43.5 0.5 0  44.25 0.5 0  45 0.5 0  45.75 0.5 0  46.5 0.5 0  47.25 0.5 0  48 0.5 0  48.75 0.5 0  49.5 0.5 0  50.25 0.5 0  51 0.5 0  51.75 0.5 0  52.5 0.5 0  53.25 0.5 0  54 0.5 0  54.75 0.5 0  55.5 0.5 0  56.25 0.5 0  57 0.5 0  57.75 0.5 0  58.5 0.5 0  59.25 0.5 0  60 0.5 0  0 1 0  0.75 1 0  1.5 1 0  2.25 1 0  3 1 0  3.75 1 0  4.5 1 0  5.25 1 0  6 1 0  6.75 1 0  7.5 1 0  8.25 1 0  9 1 0  9.75 1 0  10.5 1 0  11.25 1 0  12 1 0  12.75 1 0  13.5 1 0  14.25 1 0  15 1 0  15.75 1 0  16.5 1 0  17.25 1 0  18 1 0  18.75 1 0  19.5 1 0  20.25 1 0  21 1 0  21.75 1 0  22.5 1 0  23.25 1 0  24 1 0  24.75 1 0  25.5 1 0  26.25 1 0  27 1 0  27.75 1 0  28.5 1 0  29.25 1 0  30 1 0  30.75 1 0  31.5 1 0  32.25 1 0  33 1 0  33.75 1 0  34.5 1 0  35.25 1 0  36 1 0  36.75 1 0  37.5 1 0  38.25 1 0  39 1 0  39.75 1 0  40.5 1 0  41.25 1 0  42 1 0  42.75 1 0  43.5 1 0  44.25 1 0  45 1 0  45.75 1 0  46.5 1 0  47.25 1 0  48 1 0  48.75 1 0  49.5 1 0  50.25 1 0  51 1 0  51.75 1 0  52.5 1 0  53.25 1 0  54 1 0  54.75 1 0  55.5 1 0  56.25 1 0  57 1 0  57.75 1 0  58.5 1 0  59.25 1 0  60 1 0  0 1.5 0  0.75 1.5 0  1.5 1.5 0  2.25 1.5 0  3 1.5 0  3.75 1.5 0  4.5 1.5 0  5.25 1.5 0  6 1.5 0  6.75 1.5 0  7.5 1.5 0  8.25 1.5 0  9 1.5 0  9.75 1.5 0  10.5 1.5 0  11.25 1.5 0  12 1.5 0  12.75 1.5 0  13.5 1.5 0  14.25 1.5 0  15 1.5 0  15.75 1.5 0  16.5 1.5 0  17.25 1.5 0  18 1.5 0  18.75 1.5 0  19.5 1.5 0  20.25 1.5 0  21 1.5 0  21.75 1.5 0  22.5 1.5 0  23.25 1.5 0  24 1.5 0  24.75 1.5 0  25.5 1.5 0  26.25 1.5 0  27 1.5 0  27.75 1.5 0  28.5 1.5 0  29.25 1.5 0  30 1.5 0  30.75 1.5 0  31.5 1.5 0  32.25 1.5 0  33 1.5 0  33.75 1.5 0  34.5 1.5 0  35.25 1.5 0  36 1.5 0  36.75 1.5 0  37.5 1.5 0  38.25 1.5 0  39 1.5 0  39.75 1.5 0  40.5 1.5 0  41.25 1.5 0  42 1.5 0  42.75 1.5 0  43.5 1.5 0  44.25 1.5 0  45 1.5 0  45.75 1.5 0  46.5 1.5 0  47.25 1.5 0  48 1.5 0  48.75 1.5 0  49.5 1.5 0  50.25 1.5 0  51 1.5 0  51.75 1.5 0  52.5 1.5 0  53.25 1.5 0  54 1.5 0  54.75 1.5 0  55.5 1.5 0  56.25 1.5 0  57 1.5 0  57.75 1.5 0  58.5 1.5 0  59.25 1.5 0  60 1.5 0  0 2 0  0.75 2 0  1.5 2 0  2.25 2 0  3 2 0  3.75 2 0  4.5 2 0  5.25 2 0  6 2 0  6.75 2 0  7.5 2 0  8.25 2 0  9 2 0  9.75 2 0  10.5 2 0  11.25 2 0  12 2 0  12.75 2 0  13.5 2 0  14.25 2 0  15 2 0  15.75 2 0  16.5 2 0  17.25 2 0  18 2 0  18.75 2 0  19.5 2 0  20.25 2 0  21 2 0  21.75 2 0  22.5 2 0  23.25 2 0  24 2 0  24.75 2 0  25.5 2 0  26.25 2 0  27 2 0  27.75 2 0  28.5 2 0  29.25 2 0  30 2 0  30.75 2 0  31.5 2 0  32.25 2 0  33 2 0  33.75 2 0  34.5 2 0  35.25 2 0  36 2 0  36.75 2 0  37.5 2 0  38.25 2 0  39 2 0  39.75 2 0  40.5 2 0  41.25 2 0  42 2 0  42.75 2 0  43.5 2 0  44.25 2 0  45 2 0  45.75 2 0  46.5 2 0  47.25 2 0  48 2 0  48.75 2 0  49.5 2 0  50.25 2 0  51 2 0  51.75 2 0  52.5 2 0  53.25 2 0  54 2 0  54.75 2 0  55.5 2 0  56.25 2 0  57 2 0  57.75 2 0  58.5 2 0  59.25 2 0  60 2 0  0 2.5 0  0.75 2.5 0  1.5 2.5 0  2.25 2.5 0  3 2.5 0  3.75 2.5 0  4.5 2.5 0  5.25 2.5 0  6 2.5 0  6.75 2.5 0  7.5 2.5 0  8.25 2.5 0  9 2.5 0  9.75 2.5 0  10.5 2.5 0  11.25 2.5 0  12 2.5 0  12.75 2.5 0  13.5 2.5 0  14.25 2.5 0  15 2.5 0  15.75 2.5 0  16.5 2.5 0  17.25 2.5 0  18 2.5 0  18.75 2.5 0  19.5 2.5 0  20.25 2.5 0  21 2.5 0  21.75 2.5 0  22.5 2.5 0  23.25 2.5 0  24 2.5 0  24.75 2.5 0  25.5 2.5 0  26.25 2.5 0  27 2.5 0  27.75 2.5 0  28.5 2.5 0  29.25 2.5 0  30 2.5 0  30.75 2.5 0  31.5 2.5 0  32.25 2.5 0  33 2.5 0  33.75 2.5 0  34.5 2.5 0  35.25 2.5 0  36 2.5 0  36.75 2.5 0  37.5 2.5 0  38.25 2.5 0  39 2.5 0  39.75 2.5 0  40.5 2.5 0  41.25 2.5 0  42 2.5 0  42.75 2.5 0  43.5 2.5 0  44.25 2.5 0  45 2.5 0  45.75 2.5 0  46.5 2.5 0  47.25 2.5 0  48 2.5 0  48.75 2.5 0  49.5 2.5 0  50.25 2.5 0  51 2.5 0  51.75 2.5 0  52.5 2.5 0  53.25 2.5 0  54 2.5 0  54.75 2.5 0  55.5 2.5 0  56.25 2.5 0  57 2.5 0  57.75 2.5 0  58.5 2.5 0  59.25 2.5 0  60 2.5 0  0 3 0  0.75 3 0  1.5 3 0  2.25 3 0  3 3 0  3.75 3 0  4.5 3 0  5.25 3 0  6 3 0  6.75 3 0  7.5 3 0  8.25 3 0  9 3 0  9.75 3 0  10.5 3 0  11.25 3 0  12 3 0  12.75 3 0  13.5 3 0  14.25 3 0  15 3 0  15.75 3 0  16.5 3 0  17.25 3 0  18 3 0  18.75 3 0  19.5 3 0  20.25 3 0  21 3 0  21.75 3 0  22.5 3 0  23.25 3 0  24 3 0  24.75 3 0  25.5 3 0  26.25 3 0  27 3 0  27.75 3 0  28.5 3 0  29.25 3 0  30 3 0  30.75 3 0  31.5 3 0  32.25 3 0  33 3 0  33.75 3 0  34.5 3 0  35.25 3 0  36 3 0  36.75 3 0  37.5 3 0  38.25 3 0  39 3 0  39.75 3 0  40.5 3 0  41.25 3 0  42 3 0  42.75 3 0  43.5 3 0  44.25 3 0  45 3 0  45.75 3 0  46.5 3 0  47.25 3 0  48 3 0  48.75 3 0  49.5 3 0  50.25 3 0  51 3 0  51.75 3 0  52.5 3 0  53.25 3 0  54 3 0  54.75 3 0  55.5 3 0  56.25 3 0  57 3 0  57.75 3 0  58.5 3 0  59.25 3 0  60 3 0  0 3.5 0  0.75 3.5 0  1.5 3.5 0  2.25 3.5 0  3 3.5 0  3.75 3.5 0  4.5 3.5 0  5.25 3.5 0  6 3.5 0  6.75 3.5 0  7.5 3.5 0  8.25 3.5 0  9 3.5 0  9.75 3.5 0  10.5 3.5 0  11.25 3.5 0  12 3.5 0  12.75 3.5 0  13.5 3.5 0  14.25 3.5 0  15 3.5 0  15.75 3.5 0  16.5 3.5 0  17.25 3.5 0  18 3.5 0  18.75 3.5 0  19.5 3.5 0  20.25 3.5 0  21 3.5 0  21.75 3.5 0  22.5 3.5 0  23.25 3.5 0  24 3.5 0  24.75 3.5 0  25.5 3.5 0  26.25 3.5 0  27 3.5 0  27.75 3.5 0  28.5 3.5 0  29.25 3.5 0  30 3.5 0  30.75 3.5 0  31.5 3.5 0  32.25 3.5 0  33 3.5 0  33.75 3.5 0  34.5 3.5 0  35.25 3.5 0  36 3.5 0  36.75 3.5 0  37.5 3.5 0  38.25 3.5 0  39 3.5 0  39.75 3.5 0  40.5 3.5 0  41.25 3.5 0  42 3.5 0  42.75 3.5 0  43.5 3.5 0  44.25 3.5 0  45 3.5 0  45.75 3.5 0  46.5 3.5 0  47.25 3.5 0  48 3.5 0  48.75 3.5 0  49.5 3.5 0  50.25 3.5 0  51 3.5 0  51.75 3.5 0  52.5 3.5 0  53.25 3.5 0  54 3.5 0  54.75 3.5 0  55.5 3.5 0  56.25 3.5 0  57 3.5 0  57.75 3.5 0  58.5 3.5 0  59.25 3.5 0  60 3.5 0  0 4 0  0.75 4 0  1.5 4 0  2.25 4 0  3 4 0  3.75 4 0  4.5 4 0  5.25 4 0  6 4 0  6.75 4 0  7.5 4 0  8.25 4 0  9 4 0  9.75 4 0  10.5 4 0  11.25 4 0  12 4 0  12.75 4 0  13.5 4 0  14.25 4 0  15 4 0  15.75 4 0  16.5 4 0  17.25 4 0  18 4 0  18.75 4 0  19.5 4 0  20.25 4 0  21 4 0  21.75 4 0  22.5 4 0  23.25 4 0  24 4 0  24.75 4 0  25.5 4 0  26.25 4 0  27 4 0  27.75 4 0  28.5 4 0  29.25 4 0  30 4 0  30.75 4 0  31.5 4 0  32.25 4 0  33 4 0  33.75 4 0  34.5 4 0  35.25 4 0  36 4 0  36.75 4 0  37.5 4 0  38.25 4 0  39 4 0  39.75 4 0  40.5 4 0  41.25 4 0  42 4 0  42.75 4 0  43.5 4 0  44.25 4 0  45 4 0  45.75 4 0  46.5 4 0  47.25 4 0  48 4 0  48.75 4 0  49.5 4 0  50.25 4 0  51 4 0  51.75 4 0  52.5 4 0  53.25 4 0  54 4 0  54.75 4 0  55.5 4 0  56.25 4 0  57 4 0  57.75 4 0  58.5 4 0  59.25 4 0  60 4 0  0.375 0.25 0  1.125 0.25 0  1.875 0.25 0  2.625 0.25 0  3.375 0.25 0  4.125 0.25 0  4.875 0.25 0  5.625 0.25 0  6.375 0.25 0  7.125 0.25 0  7.875 0.25 0  8.625 0.25 0  9.375 0.25 0  10.125 0.25 0  10.875 0.25 0  11.625 0.25 0  12.375 0.25 0  13.125 0.25 0  13.875 0.25 0  14.625 0.25 0  15.375 0.25 0  16.125 0.25 0  16.875 0.25 0  17.625 0.25 0  18.375 0.25 0  19.125 0.25 0  19.875 0.25 0  20.625 0.25 0  21.375 0.25 0  22.125 0.25 0  22.875 0.25 0  23.625 0.25 0  24.375 0.25 0  25.125 0.25 0  25.875 0.25 0  26.625 0.25 0  27.375 0.25 0  28.125 0.25 0  28.875 0.25 0  29.625 0.25 0  30.375 0.25 0  31.125 0.25 0  31.875 0.25 0  32.625 0.25 0  33.375 0.25 0  34.125 0.25 0  34.875 0.25 0  35.625 0.25 0  36.375 0.25 0  37.125 0.25 0  37.875 0.25 0  38.625 0.25 0  39.375 0.25 0  40.125 0.25 0  40.875 0.25 0  41.625 0.25 0  42.375 0.25 0  43.125 0.25 0  43.875 0.25 0  44.625 0.25 0  45.375 0.25 0  46.125 0.25 0  46.875 0.25 0  47.625 0.25 0  48.375 0.25 0  49.125 0.25 0  49.875 0.25 0  50.625 0.25 0  51.375 0.25 0  52.125 0.25 0  52.875 0.25 0  53.625 0.25 0  54.375 0.25 0  55.125 0.25 0  55.875 0.25 0  56.625 0.25 0  57.375 0.25 0  58.125 0.25 0  58.875 0.25 0  59.625 0.25 0  0.375 0.75 0  1.125 0.75 0  1.875 0.75 0  2.625 0.75 0  3.375 0.75 0  4.125 0.75 0  4.875 0.75 0  5.625 0.75 0  6.375 0.75 0  7.125 0.75 0  7.875 0.75 0  8.625 0.75 0  9.375 0.75 0  10.125 0.75 0  10.875 0.75 0  11.625 0.75 0  12.375 0.75 0  13.125 0.75 0  13.875 0.75 0  14.625 0.75 0  15.375 0.75 0  16.125 0.75 0  16.875 0.75 0  17.625 0.75 0  18.375 0.75 0  19.125 0.75 0  19.875 0.75 0  20.625 0.75 0  21.375 0.75 0  22.125 0.75 0  22.875 0.75 0  23.625 0.75 0  24.375 0.75 0  25.125 0.75 0  25.875 0.75 0  26.625 0.75 0  27.375 0.75 0  28.125 0.75 0  28.875 0.75 0  29.625 0.75 0  30.375 0.75 0  31.125 0.75 0  31.875 0.75 0  32.625 0.75 0  33.375 0.75 0  34.125 0.75 0  34.875 0.75 0  35.625 0.75 0  36.375 0.75 0  37.125 0.75 0  37.875 0.75 0  38.625 0.75 0  39.375 0.75 0  40.125 0.75 0  40
[...]
<PointData  Scalars="f_8-1"> 
<DataArray  type="Float64"  Name="f_8-1"  format="ascii">-1.1849319651610555e+01  -1.1703801292923641e+01  -1.1555868716673766e+01  -1.1407832736294955e+01  -1.1259745895060714e+01  -1.1111625220865708e+01  -1.0963481074416016e+01  -1.0815321414771683e+01  -1.0667152917600333e+01  -1.0518979976299880e+01  -1.0370805085411106e+01  -1.0222630810540863e+01  -1.0074459689525357e+01  -9.9262930311727064e+00  -9.7781304361196959e+00  -9.6299706853257412e+00  -9.4818125664798405e+00  -9.3336552675323574e+00  -9.1854983360977016e+00  -9.0373415631942606e+00  -8.8891848564716618e+00  -8.7410281810139221e+00  -8.5928715213531035e+00  -8.4447148720611498e+00  -8.2965582299325007e+00  -8.1484015939427064e+00  -8.0002449632068018e+00  -7.8520883375233481e+00  -7.7039317166176691e+00  -7.5557751004609290e+00  -7.4076184889640864e+00  -7.2594618821280452e+00  -7.1113052799236653e+00  -6.9631486823534683e+00  -6.8149920894083422e+00  -6.6668355010890936e+00  -6.5186789173932524e+00  -6.3705223383206651e+00  -6.2223657638708998e+00  -6.0742091940435783e+00  -5.9260526288388133e+00  -5.7778960682562710e+00  -5.6297395122960934e+00  -5.4815829609580868e+00  -5.3334264142423589e+00  -5.1852698721487931e+00  -5.0371133346774277e+00  -4.8889568018282095e+00  -4.7408002736011605e+00  -4.5926437499962427e+00  -4.4444872310134222e+00  -4.2963307166526699e+00  -4.1481742069139225e+00  -4.0000177017970664e+00  -3.8518612013019431e+00  -3.7037047054282457e+00  -3.5555482141754591e+00  -3.4073917275425680e+00  -3.2592352455278233e+00  -3.1110787681276495e+00  -2.9629222953355452e+00  -2.8147658271379830e+00  -2.6666093635100450e+00  -2.5184529043977579e+00  -2.3702964497106396e+00  -2.2221399992065631e+00  -2.0739835526738197e+00  -1.9258271085817000e+00  -1.7776706686584152e+00  -1.6295142165246252e+00  -1.4813578018311233e+00  -1.3332011896629767e+00  -1.1850452380387781e+00  -1.0368865201138868e+00  -8.8873740223667808e-01  -7.4055351291059823e-01  -5.9248143428068223e-01  -4.4406056561508694e-01  -2.9661262881187694e-01  -1.4664339055703199e-01  -2.0119295095238029e-03  -1.1852167425993398e+01  -1.1703741907889022e+01  -1.1555817786424717e+01  -1.1407769442413036e+01  -1.1259683699305693e+01  -1.1111566856253825e+01  -1.0963425848656275e+01  -1.0815268384925860e+01  -1.0667100896147288e+01  -1.0518928618112334e+01  -1.0370754055072229e+01  -1.0222579306047228e+01  -1.0074407249756478e+01  -9.9262397958952491e+00  -9.7780767615209676e+00  -9.6299168372942585e+00  -9.4817586743176641e+00  -9.3336013727182756e+00  -9.1854444467152749e+00  -9.0372876770054607e+00  -8.8891309717799558e+00  -8.7409742965042501e+00  -8.5928176369258047e+00  -8.4446609875060492e+00  -8.2965043453856193e+00  -8.1483477093366581e+00  -8.0001910786169148e+00  -7.8520344529107975e+00  -7.7038778320170893e+00  -7.5557212158517837e+00  -7.4075646043618573e+00  -7.2594079975229819e+00  -7.1112513953224248e+00  -6.9630947977518280e+00  -6.8149382048089429e+00  -6.6667816164902920e+00  -6.5186250327959989e+00  -6.3704684537243965e+00  -6.2223118792759040e+00  -6.0741553094496972e+00  -5.9259987442461055e+00  -5.7778421836647098e+00  -5.6296856277056770e+00  -5.4815290763688296e+00  -5.3333725296542349e+00  -5.1852159875618158e+00  -5.0370594500915855e+00  -4.8889029172435086e+00  -4.7407463890175885e+00  -4.5925898654137915e+00  -4.4444333464320911e+00  -4.2962768320724409e+00  -4.1481203223347825e+00  -3.9999638172189989e+00  -3.8518073167249205e+00  -3.7036508208522632e+00  -3.5554943296005206e+00  -3.4073378429687939e+00  -3.2591813609554250e+00  -3.1110248835574135e+00  -2.9628684107688619e+00  -2.8147119425787039e+00  -2.6665554789645709e+00  -2.5183990198849742e+00  -2.3702425652494767e+00  -2.2220861149152733e+00  -2.0739296684570716e+00  -1.9257732256428899e+00  -1.7776167835511538e+00  -1.6294603464591744e+00  -1.4813038830719971e+00  -1.3331474847606766e+00  -1.1849907578691292e+00  -1.0368349733246824e+00  -8.8867563374082548e-01  -7.4052604492498553e-01  -5.9234724564722374e-01  -4.4423061886209420e-01  -2.9598131582644216e-01  -1.4780949973007471e-01  5.6651143163206940e-04  -1.1852265984780063e+01  -1.1703921060040940e+01  -1.1555815787590328e+01  -1.1407743159862967e+01  -1.1259653728246445e+01  -1.1111537451933454e+01  -1.0963397722392788e+01  -1.0815241140565403e+01  -1.0667073928305356e+01  -1.0518901841028727e+01  -1.0370727423371566e+01  -1.0222551841145751e+01  -1.0074378601506348e+01  -9.9262104332630638e+00  -9.7780472435133330e+00  -9.6298874100845744e+00  -9.4817293783654719e+00  -9.3335721656226784e+00  -9.1854152883057694e+00  -9.0372585394929317e+00  -8.8891018432521847e+00  -8.7409451710082564e+00  -8.5927885128606860e+00  -8.4446318638698745e+00  -8.2964752220682367e+00  -8.1483185860997160e+00  -8.0001619554755461e+00  -7.8520053297867536e+00  -7.7038487089242791e+00  -7.5556920927634570e+00  -7.4075354812838574e+00  -7.2593788744470187e+00  -7.1112222722498721e+00  -6.9630656746807169e+00  -6.8149090817390201e+00  -6.6667524934215434e+00  -6.5185959097277975e+00  -6.3704393306571241e+00  -6.2222827562090499e+00  -6.0741261863836087e+00  -5.9259696211804425e+00  -5.7778130605996774e+00  -5.6296565046411100e+00  -5.4814999533048345e+00  -5.3333434065907248e+00  -5.1851868644988217e+00  -5.0370303270291004e+00  -4.8888737941815430e+00  -4.7407172659561212e+00  -4.5925607423528367e+00  -4.4444042233716479e+00  -4.2962477090125120e+00  -4.1480911992753846e+00  -3.9999346941601441e+00  -3.8517781936666471e+00  -3.7036216977946506e+00  -3.5554652065437100e+00  -3.4073087199131322e+00  -3.2591522379015259e+00  -3.1109957605066527e+00  -2.9628392877238388e+00  -2.8146828195449145e+00  -2.6665263559531094e+00  -2.5183698969168460e+00  -2.3702134423740291e+00  -2.2220569921964506e+00  -2.0739005461687774e+00  -1.9257441037046747e+00  -1.7775876643519024e+00  -1.6294312244597464e+00  -1.4812747877242380e+00  -1.3331183205918540e+00  -1.1849619052652438e+00  -1.0368051859186773e+00  -8.8864916029994734e-01  -7.4049048748883239e-01  -5.9233769434747008e-01  -4.4416769352906038e-01  -2.9602697634222902e-01  -1.4783434756155828e-01  -4.0886501281965889e-05  -1.1852254445898845e+01  -1.1704009762281542e+01  -1.1555870471614258e+01  -1.1407772855478656e+01  -1.1259674148887944e+01  -1.1111557231783936e+01  -1.0963419401093399e+01  -1.0815265504473187e+01  -1.0667100492139694e+01  -1.0518929736719056e+01  -1.0370756222474158e+01  -1.0222581644334843e+01  -1.0074408827767353e+01  -9.9262404165736324e+00  -9.7780766694462482e+00  -9.6299163503719090e+00  -9.4817580033137379e+00  -9.3336006324768199e+00  -9.1854436834060245e+00  -9.0372869083775136e+00  -8.8891302016114064e+00  -8.7409735262604435e+00  -8.5928168663830977e+00  -8.4446602169507266e+00  -8.2965035746961675e+00  -8.1483469386587153e+00  -8.0001903078990075e+00  -7.8520336822135564e+00  -7.7038770613116290e+00  -7.5557204451611719e+00  -7.4075638336707659e+00  -7.2594072268400147e+00  -7.1112506246403413e+00  -6.9630940270736579e+00  -6.8149374341316395e+00  -6.6667808458147366e+00  -6.5186242621210599e+00  -6.3704676830501992e+00  -6.2223111086021090e+00  -6.0741545387762264e+00  -5.9259979735728860e+00  -5.7778414129916280e+00  -5.6296848570327622e+00  -5.4815283056959903e+00  -5.3333717589815004e+00  -5.1852152168891372e+00  -5.0370586794190011e+00  -4.8889021465709943e+00  -4.7407456183451613e+00  -4.5925890947414638e+00  -4.4444325757599019e+00  -4.2962760614004347e+00  -4.1481195516630223e+00  -3.9999630465475882e+00  -3.8518065460540094e+00  -3.7036500501821048e+00  -3.5554935589314902e+00  -3.4073370723015297e+00  -3.2591805902909794e+00  -3.1110241128975535e+00  -2.9628676401167429e+00  -2.8147111719398379e+00  -2.6665547083495715e+00  -2.5183982493120243e+00  -2.3702417947595125e+00  -2.2220853445605884e+00  -2.0739288984489068e+00  -1.9257724559380098e+00  -1.7776160159602792e+00  -1.6294595769770925e+00  -1.4813031342548943e+00  -1.3331466859293215e+00  -1.1849902057874537e+00  -1.0368337305949462e+00  -8.8867708902671838e-01  -7.4052084977098565e-01  -5.9236409783368082e-01  -4.4421284661442301e-01  -2.9606847684847476e-01  -1.4800353121785834e-01  1.7657859002467810e-05  -1.1852247002499039e+01  -1.1704033377220417e+01  -1.1555883086003357e+01  -1.1407776873378380e+01  -1.1259674220819441e+01  -1.1111556402896854e+01  -1.0963419616535035e+01  -1.0815266667524902e+01  -1.0667102857072473e+01  -1.0518932725028746e+01  -1.0370759654382983e+01  -1.0222585658741901e+01  -1.0074413397105047e+01  -9.9262450254236860e+00  -9.7780810198150565e+00  -9.6299203802309687e+00  -9.4817618155790164e+00  -9.3336043181718171e+00  -9.1854473137578889e+00  -9.0372905135769503e+00  -8.8891337989071690e+00  -8.7409771196523103e+00  -8.5928204589941153e+00  -8.4446638087748376e+00  -8.2965071664906809e+00  -8.1483505302352643e+00  -8.0001938995166100e+00  -7.8520372737677411e+00  -7.7038806528980244e+00  -7.5557240367303171e+00  -7.4075674252573043e+00  -7.2594108184230137e+00  -7.1112542162312655e+00  -6.9630976186648601e+00  -6.8149410257260472e+00  -6.6667844374101994e+00  -6.5186278537177120e+00  -6.3704712746478114e+00  -6.2223147002001582e+00  -6.0741581303749710e+00  -5.9260015651718314e+00  -5.7778450045910681e+00  -5.6296884486323444e+00  -5.4815318972959295e+00  -5.3333753505815942e+00  -5.1852188084895205e+00  -5.0370622710195567e+00  -4.8889057381718040e+00  -4.7407492099462010e+00  -4.5925926863427931e+00  -4.4444361673615385e+00  -4.2962796530024416e+00  -4.1481231432654866e+00  -3.9999666381506436e+00  -3.8518101376578535e+00  -3.7036536417869925e+00  -3.5554971505378075e+00  -3.4073406639097943e+00  -3.2591841819018921e+00  -3.1110277045119989e+00  -2.9628712317357704e+00  -2.8147147635644343e+00  -2.6665582999801711e+00  -2.5184018409471403e+00  -2.3702453863934552e+00  -2.2220889361757474e+00  -2.0739324900131471e+00  -1.9257760473483811e+00  -1.7776196071426762e+00  -1.6294631672925310e+00  -1.4813067244032303e+00  -1.3331502708122325e+00  -1.1849938001873255e+00  -1.0368372895818163e+00  -8.8868079499612496e-01  -7.4052436869773219e-01  -5.9236925003611951e-01  -4.4421821539609324e-01  -2.9609078540836187e-01  -1.4801103048334330e-01  -1.3580224738428444e-05  -1.1852254445323876e+01  -1.1704009703382988e+01  -1.1555870417948528e+01  -1.1407772819632159e+01  -1.1259674129332335e+01  -1.1111557223220077e+01  -1.0963419397659843e+01  -1.0815265501137798e+01  -1.0667100486975313e+01  -1.0518929726962250e+01  -1.0370756208854333e+01  -1.0222581630024033e+01  -1.0074408812909782e+01  -9.9262403994405375e+00  -9.7780766495764908e+00  -9.6299163289184975e+00  -9.4817579817643090e+00  -9.3336006117633694e+00  -9.1854436638092771e+00  -9.0372868897931138e+00  -8.8891301838067296e+00  -8.7409735090115817e+00  -8.5928168495180248e+00  -8.4446602003488636e+00  -8.2965035582754982e+00  -8.1483469223634444e+00  -8.0001902916908705e+00  -7.8520336660659300e+00  -7.7038770452059433e+00  -7.5557204290845048e+00  -7.4075638176140837e+00  -7.2594072107971117e+00  -7.1112506086069027e+00  -6.9630940110466986e+00  -6.8149374181091140e+00  -6.6667808297952433e+00  -6.5186242461036512e+00  -6.3704676670342142e+00  -6.2223110925870957e+00  -6.0741545227618747e+00  -5.9259979575589963e+00  -5.7778413969780598e+00  -5.6296848410194125e+00  -5.4815282896828137e+00  -5.3333717429684526e+00  -5.1852152008762014e+00  -5.0370586634061585e+00  -4.8889021305582681e+00  -4.7407456023325949e+00  -4.5925890787291141e+00  -4.4444325597478400e+00  -4.2962760453887805e+00  -4.1481195356519578e+00  -3.9999630305373928e+00  -3.8518065300450948e+00  -3.7036500341750473e+00  -3.5554935429271510e+00  -3.4073370563011598e+00  -3.2591805742964142e+00  -3.1110240969114518e+00  -2.9628676241429619e+00  -2.8147111559839884e+00  -2.6665546924197203e+00  -2.5183982334197816e+00  -2.3702417789214572e+00  -2.2220853288002025e+00  -2.0739288827990996e+00  -1.9257724404442753e+00  -1.7776160006842563e+00  -1.6294595620002290e+00  -1.4813031196796955e+00  -1.3331466718804668e+00  -1.1849901923894597e+00  -1.0368337179799063e+00  -8.8867707715564492e-01  -7.4052083861452900e-01  -5.9236408622945336e-01  -4.4421283342581347e-01  -2.9606845645632118e-01  -1.4800351108292875e-01  1.7667757342953774e-05  -1.1852265952900735e+01  -1.1703920920849464e+01  -1.1555815672695307e+01  -1.1407743086405031e+01  -1.1259653685903508e+01  -1.1111537429299066e+01  -1.0963397708375803e+01  -1.0815241126753826e+01  -1.0667073910603197e+01  -1.0518901815347327e+01  -1.0370727391647799e+01  -1.0222551807588728e+01  -1.0074378566084246e+01  -9.9262103939518234e+00  -9.7780472002074994e+00  -9.6298873647334862e+00  -9.4817293331829422e+00  -9.3335721219337664e+00  -9.1854152464735801e+00  -9.0372584993202860e+00  -8.8891018043576118e+00  -8.7409451330278731e+00  -8.5927884755134460e+00  -8.4446318269573677e+00  -8.2964751854548293e+00  -8.1483185496930357e+00  -8.0001619192122035e+00  -7.8520052936228675e+00  -7.7038486728292668e+00  -7.5556920567160830e+00  -7.4075354452693176e+00  -7.2593788384550644e+00  -7.1112222362734174e+00  -6.9630656387149044e+00  -6.8149090457804977e+00  -6.6667524574679948e+00  -6.5185958737776666e+00  -6.3704392947093167e+00  -6.2222827202628457e+00  -6.0741261504384960e+00  -5.9259695852360847e+00  -5.7778130246558526e+00  -5.6296564686976591e+00  -5.4814999173616643e+00  -5.3333433706477544e+00  -5.1851868285560414e+00  -5.0370302910864782e+00  -4.8888737582391171e+00  -4.7407172300139573e+00  -4.5925607064110192e+00  -4.4444041874303037e+00  -4.2962476730718491e+00  -4.1480911633357032e+00  -3.9999346582219029e+00  -3.8517781577304993e+00  -3.7036216618615820e+00  -3.5554651706151197e+00  -3.4073086839910949e+00  -3.2591522019890560e+00  -3.1109957246081223e+00  -2.9628392518456019e+00  -2.8146827836961612e+00  -2.6665263201470748e+00  -2.5183698611725176e+00  -2.3702134067184382e+00  -2.2220569566677510e+00  -2.0739005108202120e+00  -1.9257440686093441e+00  -1.7775876296082447e+00  -1.6294311901951599e+00  -1.4812747541010733e+00  -1.3331182877823800e+00  -1.1849618734996150e+00  -1.0368051551696693e+00  -8.8864913099600940e-01  -7.4049045780016132e-01  -5.9233766590672576e-01  -4.4416765678133607e-01  -2.9602693011329584e-01  -1.4783427005740848e-01  -4.0899858336344853e-05  -1.1852167372020562e+01  -1.1703741482087398e+01  -1.1555817583011210e+01  -1.1407769305748827e+01  -1.1259683602145676e+01  -1.1111566781355219e+01  -1.0963425782733685e+01  -1.0815268319021602e+01  -1.0667100824964539e+01  -1.0518928539071725e+01  -1.0370753969977519e+01  -1.0222579217668549e+01  -1.0074407158434543e+01  -9.9262397008914682e+00  -9.7780766632925538e+00  -9.6299167376012207e+00  -9.4817585750501880e+00  -9.3336012750458703e+00  -9.1854443509862111e+00  -9.0372875830456181e+00  -8.8891308792158608e+00  -8.7409742049590502e+00  -8.5928175460958442e+00  -8.4446608971704062e+00  -8.2965042553905803e+00  -8.1483476195767697e+00  -8.0001909890197815e+00  -7.8520343634263874e+00  -7.7038777426107341e+00  -7.5557211264993569e+00  -7.4075645150466292e+00  -7.2594079082333423e+00  -7.1112513060503861e+00  -6.9630947084918393e+00  -6.8149381155572124e+00  -6.6667815272442184e+00  -6.5186249435537951e+00  -6.3704683644848439e+00  -6.2223117900381677e+00  -6.0741552202132096e+00  -5.9259986550104786e+00  -5.7778420944296798e+00  -5.6296855384710893e+00  -5.4815289871345492e+00  -5.3333724404201819e+00  -5.1852158983279573e+00  -5.0370593608579188e+00  -4.8889028280100444e+00  -4.7407462997843997e+00  -4.5925897761809571e+00  -4.4444332571997336e+00  -4.2962767428407664e+00  -4.1481202331041080e+00  -3.9999637279897726e+00  -3.8518072274977988e+00  -3.7036507316282239e+00  -3.5554942403809626e+00  -3.4073377537557885e+00  -3.2591812717519750e+00  -3.1110247943678515e+00  -2.9628683215994704e+00  -2.8147118534385469e+00  -2.6665553898666485e+00  -2.5183989308477881e+00  -2.3702424762991723e+00  -2.2220860260883715e+00  -2.0739295798037878e+00  -1.9257731372309237e+00  -1.7776166954685870e+00  -1.6294602588182883e+00  -1.4813037959928270e+00  -1.3331473984120692e+00  -1.1849906721863241e+00  -1.0368348888800070e+00  -8.8867554811692651e-01  -7.4052596351135802e-01  -5.9234714971751579e-01  -4.4423053604788626e-01  -2.9598120099809250e-01  -1.4780931040208153e-01  5.6665909071846471e-04  -1.1849316240874966e+01  -1.1703800913866155e+01  -1.1555868453931392e+01  -1.1407832551607816e+01  -1.1259745751917984e+01  -1.1111625099003117e+01  -1.0963480959769960e+01  -1.0815321298422440e+01  -1.0667152794202424e+01  -1.0518979844636512e+01  -1.0370804947764846e+01  -1.0222630669124619e+01  -1.0074459544760275e+01  -9.9262928829650505e+00  -9.7781302853575145e+00  -9.6299705337479260e+00  -9.4818124157592312e+00  -9.3336551186373260e+00  -9.1854981892628764e+00  -9.0373414181929768e+00  -8.8891847129089978e+00  -8.7410280385013888e+00  -8.5928713795791758e+00  -8.4447147307982604e+00  -8.2965580890220139e+00  -8.1484014532755022e+00  -8.0002448227078773e+00  -7.8520881971408212e+00  -7.7039315763158127e+00  -7.5557749602146878e+00  -7.4076183487562481e+00  -7.2594617419465823e+00  -7.1113051397603542e+00  -6.9631485422026032e+00  -6.8149919492659885e+00  -6.6668353609525779e+00  -6.5186787772607477e+00  -6.3705221981909093e+00  -6.2223656237429674e+00  -6.0742090539169551e+00  -5.9260524887131165e+00  -5.7778959281311488e+00  -5.6297393721714259e+00  -5.4815828208337551e+00  -5.3334262741182394e+00  -5.1852697320248637e+00  -5.0371131945537124e+00  -4.8889566617046674e+00  -4.7408001334778591e+00  -4.5926436098732788e+00  -4.4444870908908687e+00  -4.2963305765307016e+00  -4.1481740667928220e+00  -4.0000175616772040e+00  -3.8518610611838882e+00  -3.7037045653128491e+00  -3.5555480740638923e+00  -3.4073915874366065e+00  -3.2592351054300055e+00  -3.1110786280416485e+00  -2.9629221552666798e+00  -2.8147656870938649e+00  -2.6666092235015686e+00  -2.5184527644403101e+00  -2.3702963098257706e+00  -2.2221398594240505e+00  -2.0739834130338832e+00  -1.9258269691373988e+00  -1.7776705294764028e+00  -1.6295140776832815e+00  -1.4813576634182484e+00  -1.3332010517023050e+00  -1.1850451007441696e+00  -1.0368863822531551e+00  -8.8873726797431485e-01  -7.4055336212632017e-01  -5.9248133243473322e-01  -4.4406028797472352e-01  -2.9661278460566587e-01  -1.4664252990286011e-01  -2.0128444519039446e-03  -1.1777329142876845e+01  -1.1629712098864150e+01  -1.1481714896051139e+01  -1.1333650347252686e+01  -1.1185547727905387e+01  -1.1037417669172482e+01  -1.0889267670224474e+01  -1.0741104886029889e+01  -1.0592934795843751e+01  -1.0444761407200632e+01  -1.0296586978901296e+01  -1.0148413957512442e+01  -1.0000244539839027e+01  -9.8520794984181173e+00  -9.7039180856177634e+00  -9.5557590466082978e+00  -9.4076012989732742e+00  -9.2594441736238746e+00  -9.1112873185982828e+00  -8.9631305784939279e+00  -8.8149738869690495e+00  -8.6668172193054893e+00  -8.5186605646122260e+00  -8.3705039188519450e+00  -8.2223472797195836e+00  -8.0741906463479509e+00  -7.9260340181208271e+00  -7.7778773948279412e+00  -7.6297207762960042e+00  -7.4815641624725870e+00  -7.3334075533099563e+00  -7.1852509487933736e+00  -7.0370943489108724e+00  -6.8889377536570322e+00  -6.7407811630296770e+00  -6.5926245770261458e+00  -6.4444679956466189e+00  -6.2963114188896148e+00  -6.1481548467556433e+00  -5.9999982792438722e+00  -5.8518417163546852e+00  -5.7036851580876586e+00  -5.5555286044430030e+00  -5.4073720554204945e+00  -5.2592155110202459e+00  -5.1110589712421577e+00  -4.9629024360862548e+00  -4.8147459055525044e+00  -4.6665893796408993e+00  -4.5184328583514040e+00  -4.3702763416839865e+00  -4.2221198296385971e+00  -4.0739633222151523e+00  -3.9258068194135003e+00  -3.7776503212334127e+00  -3.6294938276744673e+00  -3.4813373387359308e+00  -3.3331808544164390e+00  -3.1850243747134299e+00  -3.0368678996220191e+00  -2.8887114291327221e+00  -2.7405549632269994e+00  -2.5923985018682849e+00  -2.4442420449848998e+00  -2.2960855924338324e+00  -2.1479291439409787e+00  -1.9997726989405145e+00  -1.85161625643950