<?xml version="1.0"?>
<VTKFile type="UnstructuredGrid"  version="0.1"  >
<UnstructuredGrid>
<Piece  NumberOfPoints="1369" NumberOfCells="2560">
<Points>
<DataArray  type="Float64"  NumberOfComponents="3"  format="ascii">0 0 0  0.75 0 0  1.5 0 0  2.25 0 0  3 0 0  3.75 0 0  4.5 0 0  5.25 0 0  6 0 0  6.75 0 0  7.5 0 0  8.25 0 0  9 0 0  9.75 0 0  10.5 0 0  11.25 0 0  12 0 0  12.75 0 0  13.5 0 0  14.25 0 0  15 0 0  15.75 0 0  16.5 0 0  17.25 0 0  18 0 0  18.75 0 0  19.5 0 0  20.25 0 0  21 0 0  21.75 0 0  22.5 0 0  23.25 0 0  24 0 0  24.75 0 0  25.5 0 0  26.25 0 0  27 0 0  27.75 0 0  28.5 0 0  29.25 0 0  30 0 0  30.75 0 0  31.5 0 0  32.25 0 0  33 0 0  33.75 0 0  34.5 0 0  35.25 0 0  36 0 0  36.75 0 0  37.5 0 0  38.25 0 0  39 0 0  39.75 0 0  40.5 0 0  41.25 0 0  42 0 0  42.75 0 0  43.5 0 0  44.25 0 0  45 0 0  45.75 0 0  46.5 0 0  47.25 0 0  48 0 0  48.75 0 0  49.5 0 0  50.25 0 0  51 0 0  51.75 0 0  52.5 0 0  53.25 0 0  54 0 0  54.75 0 0  55.5 0 0  56.25 0 0  57 0 0  57.75 0 0  58.5 0 0  59.25 0 0  60 0 0  0 0.5 0  0.75 0.5 0  1.5 0.5 0  2.25 0.5 0  3 0.5 0  3.75 0.5 0  4.5 0.5 0  5.25 0.5 0  6 0.5 0  6.75 0.5 0  7.5 0.5 0  8.25 0.5 0  9 0.5 0  9.75 0.5 0  10.5 0.5 0  11.25 0.5 0  12 0.5 0  12.75 0.5 0  13.5 0.5 0  14.25 0.5 0  15 0.5 0  15.75 0.5 0  16.5 0.5 0  17.25 0.5 0  18 0.5 0  18.75 0.5 0  19.5 0.5 0  20.25 0.5 0  21 0.5 0  21.75 0.5 0  22.5 0.5 0  23.25 0.5 0  24 0.5 0  24.75 0.5 0  25.5 0.5 0  26.25 0.5 0  27 0.5 0  27.75 0.5 0  28.5 0.5 0  29.25 0.5 0  30 0.5 0  30.75 0.5 0  31.5 0.5 0  32.25 0.5 0  33 0.5 0  33.75 0.5 0  34.5 0.5 0  35.25 0.5 0  36 0.5 0  36.75 0.5 0  37.5 0.5 0  38.25 0.5 0  39 0.5 0  39.75 0.5 0  40.5 0.5 0  41.25 0.5 0  42 0.5 0  42.75 0.5 0  43.5 0.5 0  44.25 0.5 0  45 0.5 0  45.75 0.5 0  46.5 0.5 0  47.25 0.5 0  48 0.5 0  48.75 0.5 0  49.5 0.5 0  50.25 0.5 0  51 0.5 0  51.75 0.5 0  52.5 0.5 0  53.25 0.5 0  54 0.5 0  54.75 0.5 0  55.5 0.5 0  56.25 0.5 0  57 0.5 0  57.75 0.5 0  58.5 0.5 0  59.25 0.5 0  60 0.5 0  0 1 0  0.75 1 0  1.5 1 0  2.25 1 0  3 1 0  3.75 1 0  4.5 1 0  5.25 1 0  6 1 0  6.75 1 0  7.5 1 0  8.25 1 0  9 1 0  9.75 1 0  10.5 1 0  11.25 1 0  12 1 0  12.75 1 0  13.5 1 0  14.25 1 0  15 1 0  15.75 1 0  16.5 1 0  17.25 1 0  18 1 0  18.75 1 0  19.5 1 0  20.25 1 0  21 1 0  21.75 1 0  22.5 1 0  23.25 1 0  24 1 0  24.75 1 0  25.5 1 0  26.25 1 0  27 1 0  27.75 1 0  28.5 1 0  29.25 1 0  30 1 0  30.75 1 0  31.5 1 0  32.25 1 0  33 1 0  33.75 1 0  34.5 1 0  35.25 1 0  36 1 0  36.75 1 0  37.5 1 0  38.25 1 0  39 1 0  39.75 1 0  40.5 1 0  41.25 1 0  42 1 0  42.75 1 0  43.5 1 0  44.25 1 0  45 1 0  45.75 1 0  46.5 1 0  47.25 1 0  48 1 0  48.75 1 0  49.5 1 0  50.25 1 0  51 1 0  51.75 1 0  52.5 1 0  53.25 1 0  54 1 0  54.75 1 0  55.5 1 0  56.25 1 0  57 1 0  57.75 1 0  58.5 1 0  59.25 1 0  60 1 0  0 1.5 0  0.75 1.5 0  1.5 1.5 0  2.25 1.5 0  3 1.5 0  3.75 1.5 0  4.5 1.5 0  5.25 1.5 0  6 1.5 0  6.75 1.5 0  7.5 1.5 0  8.25 1.5 0  9 1.5 0  9.75 1.5 0  10.5 1.5 0  11.25 1.5 0  12 1.5 0  12.75 1.5 0  13.5 1.5 0  14.25 1.5 0  15 1.5 0  15.75 1.5 0  16.5 1.5 0  17.25 1.5 0  18 1.5 0  18.75 1.5 0  19.5 1.5 0  20.25 1.5 0  21 1.5 0  21.75 1.5 0  22.5 1.5 0  23.25 1.5 0  24 1.5 0  24.75 1.5 0  25.5 1.5 0  26.25 1.5 0  27 1.5 0  27.75 1.5 0  28.5 1.5 0  29.25 1.5 0  30 1.5 0  30.75 1.5 0  31.5 1.5 0  32.25 1.5 0  33 1.5 0  33.75 1.5 0  34.5 1.5 0  35.25 1.5 0  36 1.5 0  36.75 1.5 0  37.5 1.5 0  38.25 1.5 0  39 1.5 0  39.75 1.5 0  40.5 1.5 0  41.25 1.5 0  42 1.5 0  42.75 1.5 0  43.5 1.5 0  44.25 1.5 0  45 1.5 0  45.75 1.5 0  46.5 1.5 0  47.25 1.5 0  48 1.5 0  48.75 1.5 0  49.5 1.5 0  50.25 1.5 0  51 1.5 0  51.75 1.5 0  52.5 1.5 0  53.25 1.5 0  54 1.5 0  54.75 1.5 0  55.5 1.5 0  56.25 1.5 0  57 1.5 0  57.75 1.5 0  58.5 1.5 0  59.25 1.5 0  60 1.5 0  0 2 0  0.75 2 0  1.5 2 0  2.25 2 0  3 2 0  3.75 2 0  4.5 2 0  5.25 2 0  6 2 0  6.75 2 0  7.5 2 0  8.25 2 0  9 2 0  9.75 2 0  10.5 2 0  11.25 2 0  12 2 0  12.75 2 0  13.5 2 0  14.25 2 0  15 2 0  15.75 2 0  16.5 2 0  17.25 2 0  18 2 0  18.75 2 0  19.5 2 0  20.25 2 0  21 2 0  21.75 2 0  22.5 2 0  23.25 2 0  24 2 0  24.75 2 0  25.5 2 0  26.25 2 0  27 2 0  27.75 2 0  28.5 2 0  29.25 2 0  30 2 0  30.75 2 0  31.5 2 0  32.25 2 0  33 2 0  33.75 2 0  34.5 2 0  35.25 2 0  36 2 0  36.75 2 0  37.5 2 0  38.25 2 0  39 2 0  39.75 2 0  40.5 2 0  41.25 2 0  42 2 0  42.75 2 0  43.5 2 0  44.25 2 0  45 2 0  45.75 2 0  46.5 2 0  47.25 2 0  48 2 0  48.75 2 0  49.5 2 0  50.25 2 0  51 2 0  51.75 2 0  52.5 2 0  53.25 2 0  54 2 0  54.75 2 0  55.5 2 0  56.25 2 0  57 2 0  57.75 2 0  58.5 2 0  59.25 2 0  60 2 0  0 2.5 0  0.75 2.5 0  1.5 2.5 0  2.25 2.5 0  3 2.5 0  3.75 2.5 0  4.5 2.5 0  5.25 2.5 0  6 2.5 0  6.75 2.5 0  7.5 2.5 0  8.25 2.5 0  9 2.5 0  9.75 2.5 0  10.5 2.5 0  11.25 2.5 0  12 2.5 0  12.75 2.5 0  13.5 2.5 0  14.25 2.5 0  15 2.5 0  15.75 2.5 0  16.5 2.5 0  17.25 2.5 0  18 2.5 0  18.75 2.5 0  19.5 2.5 0  20.25 2.5 0  21 2.5 0  21.75 2.5 0  22.5 2.5 0  23.25 2.5 0  24 2.5 0  24.75 2.5 0  25.5 2.5 0  26.25 2.5 0  27 2.5 0  27.75 2.5 0  28.5 2.5 0  29.25 2.5 0  30 2.5 0  30.75 2.5 0  31.5 2.5 0  32.25 2.5 0  33 2.5 0  33.75 2.5 0  34.5 2.5 0  35.25 2.5 0  36 2.5 0  36.75 2.5 0  37.5 2.5 0  38.25 2.5 0  39 2.5 0  39.75 2.5 0  40.5 2.5 0  41.25 2.5 0  42 2.5 0  42.75 2.5 0  43.5 2.5 0  44.25 2.5 0  45 2.5 0  45.75 2.5 0  46.5 2.5 0  47.25 2.5 0  48 2.5 0  48.75 2.5 0  49.5 2.5 0  50.25 2.5 0  51 2.5 0  51.75 2.5 0  52.5 2.5 0  53.25 2.5 0  54 2.5 0  54.75 2.5 0  55.5 2.5 0  56.25 2.5 0  57 2.5 0  57.75 2.5 0  58.5 2.5 0  59.25 2.5 0  60 2.5 0  0 3 0  0.75 3 0  1.5 3 0  2.25 3 0  3 3 0  3.75 3 0  4.5 3 0  5.25 3 0  6 3 0  6.75 3 0  7.5 3 0  8.25 3 0  9 3 0  9.75 3 0  10.5 3 0  11.25 3 0  12 3 0  12.75 3 0  13.5 3 0  14.25 3 0  15 3 0  15.75 3 0  16.5 3 0  17.25 3 0  18 3 0  18.75 3 0  19.5 3 0  20.25 3 0  21 3 0  21.75 3 0  22.5 3 0  23.25 3 0  24 3 0  24.75 3 0  25.5 3 0  26.25 3 0  27 3 0  27.75 3 0  28.5 3 0  29.25 3 0  30 3 0  30.75 3 0  31.5 3 0  32.25 3 0  33 3 0  33.75 3 0  34.5 3 0  35.25 3 0  36 3 0  36.75 3 0  37.5 3 0  38.25 3 0  39 3 0  39.75 3 0  40.5 3 0  41.25 3 0  42 3 0  42.75 3 0  43.5 3 0  44.25 3 0  45 3 0  45.75 3 0  46.5 3 0  47.25 3 0  48 3 0  48.75 3 0  49.5 3 0  50.25 3 0  51 3 0  51.75 3 0  52.5 3 0  53.25 3 0  54 3 0  54.75 3 0  55.5 3 0  56.25 3 0  57 3 0  57.75 3 0  58.5 3 0  59.25 3 0  60 3 0  0 3.5 0  0.75 3.5 0  1.5 3.5 0  2.25 3.5 0  3 3.5 0  3.75 3.5 0  4.5 3.5 0  5.25 3.5 0  6 3.5 0  6.75 3.5 0  7.5 3.5 0  8.25 3.5 0  9 3.5 0  9.75 3.5 0  10.5 3.5 0  11.25 3.5 0  12 3.5 0  12.75 3.5 0  13.5 3.5 0  14.25 3.5 0  15 3.5 0  15.75 3.5 0  16.5 3.5 0  17.25 3.5 0  18 3.5 0  18.75 3.5 0  19.5 3.5 0  20.25 3.5 0  21 3.5 0  21.75 3.5 0  22.5 3.5 0  23.25 3.5 0  24 3.5 0  24.75 3.5 0  25.5 3.5 0  26.25 3.5 0  27 3.5 0  27.75 3.5 0  28.5 3.5 0  29.25 3.5 0  30 3.5 0  30.75 3.5 0  31.5 3.5 0  32.25 3.5 0  33 3.5 0  33.75 3.5 0  34.5 3.5 0  35.25 3.5 0  36 3.5 0  36.75 3.5 0  37.5 3.5 0  38.25 3.5 0  39 3.5 0  39.75 3.5 0  40.5 3.5 0  41.25 3.5 0  42 3.5 0  42.75 3.5 0  43.5 3.5 0  44.25 3.5 0  45 3.5 0  45.75 3.5 0  46.5 3.5 0  47.25 3.5 0  48 3.5 0  48.75 3.5 0  49.5 3.5 0  50.25 3.5 0  51 3.5 0  51.75 3.5 0  52.5 3.5 0  53.25 3.5 0  54 3.5 0  54.75 3.5 0  55.5 3.5 0  56.25 3.5 0  57 3.5 0  57.75 3.5 0  58.5 3.5 0  59.25 3.5 0  60 3.5 0  0 4 0  0.75 4 0  1.5 4 0  2.25 4 0  3 4 0  3.75 4 0  4.5 4 0  5.25 4 0  6 4 0  6.75 4 0  7.5 4 0  8.25 4 0  9 4 0  9.75 4 0  10.5 4 0  11.25 4 0  12 4 0  12.75 4 0  13.5 4 0  14.25 4 0  15 4 0  15.75 4 0  16.5 4 0  17.25 4 0  18 4 0  18.75 4 0  19.5 4 0  20.25 4 0  21 4 0  21.75 4 0  22.5 4 0  23.25 4 0  24 4 0  24.75 4 0  25.5 4 0  26.25 4 0  27 4 0  27.75 4 0  28.5 4 0  29.25 4 0  30 4 0  30.75 4 0  31.5 4 0  32.25 4 0  33 4 0  33.75 4 0  34.5 4 0  35.25 4 0  36 4 0  36.75 4 0  37.5 4 0  38.25 4 0  39 4 0  39.75 4 0  40.5 4 0  41.25 4 0  42 4 0  42.75 4 0  43.5 4 0  44.25 4 0  45 4 0  45.75 4 0  46.5 4 0  47.25 4 0  48 4 0  48.75 4 0  49.5 4 0  50.25 4 0  51 4 0  51.75 4 0  52.5 4 0  53.25 4 0  54 4 0  54.75 4 0  55.5 4 0  56.25 4 0  57 4 0  57.75 4 0  58.5 4 0  59.25 4 0  60 4 0  0.375 0.25 0  1.125 0.25 0  1.875 0.25 0  2.625 0.25 0  3.375 0.25 0  4.125 0.25 0  4.875 0.25 0  5.625 0.25 0  6.375 0.25 0  7.125 0.25 0  7.875 0.25 0  8.625 0.25 0  9.375 0.25 0  10.125 0.25 0  10.875 0.25 0  11.625 0.25 0  12.375 0.25 0  13.125 0.25 0  13.875 0.25 0  14.625 0.25 0  15.375 0.25 0  16.125 0.25 0  16.875 0.25 0  17.625 0.25 0  18.375 0.25 0  19.125 0.25 0  19.875 0.25 0  20.625 0.25 0  21.375 0.25 0  22.125 0.25 0  22.875 0.25 0  23.625 0.25 0  24.375 0.25 0  25.125 0.25 0  25.875 0.25 0  26.625 0.25 0  27.375 0.25 0  28.125 0.25 0  28.875 0.25 0  29.625 0.25 0  30.375 0.25 0  31.125 0.25 0  31.875 0.25 0  32.625 0.25 0  33.375 0.25 0  34.125 0.25 0  34.875 0.25 0  35.625 0.25 0  36.375 0.25 0  37.125 0.25 0  37.875 0.25 0  38.625 0.25 0  39.375 0.25 0  40.125 0.25 0  40.875 0.25 0  41.625 0.25 0  42.375 0.25 0  43.125 0.25 0  43.875 0.25 0  44.625 0.25 0  45.375 0.25 0  46.125 0.25 0  46.875 0.25 0  47.625 0.25 0  48.375 0.25 0  49.125 0.25 0  49.875 0.25 0  50.625 0.25 0  51.375 0.25 0  52.125 0.25 0  52.875 0.25 0  53.625 0.25 0  54.375 0.25 0  55.125 0.25 0  55.875 0.25 0  56.625 0.25 0  57.375 0.25 0  58.125 0.25 0  58.875 0.25 0  59.625 0.25 0  0.375 0.75 0  1.125 0.75 0  1.875 0.75 0  2.625 0.75 0  3.375 0.75 0  4.125 0.75 0  4.875 0.75 0  5.625 0.75 0  6.375 0.75 0  7.125 0.75 0  7.875 0.75 0  8.625 0.75 0  9.375 0.75 0  10.125 0.75 0  10.875 0.75 0  11.625 0.75 0  12.375 0.75 0  13.125 0.75 0  13.875 0.75 0  14.625 0.75 0  15.375 0.75 0  16.125 0.75 0  16.875 0.75 0  17.625 0.75 0  18.375 0.75 0  19.125 0.75 0  19.875 0.75 0  20.625 0.75 0  21.375 0.75 0  22.125 0.75 0  22.875 0.75 0  23.625 0.75 0  24.375 0.75 0  25.125 0.75 0  25.875 0.75 0  26.625 0.75 0  27.375 0.75 0  28.125 0.75 0  28.875 0.75 0  29.625 0.75 0  30.375 0.75 0  31.125 0.75 0  31.875 0.75 0  32.625 0.75 0  33.375 0.75 0  34.125 0.75 0  34.875 0.75 0  35.625 0.75 0  36.375 0.75 0  37.125 0.75 0  37.875 0.75 0  38.625 0.75 0  39.375 0.75 0  40.125 0.75 0  40
[...]
<PointData  Scalars="f_8-1"> 
<DataArray  type="Float64"  Name="f_8-1"  format="ascii">1.8750492923621074e+00  1.8533184882260683e+00  1.8299314151516641e+00  1.8065128453410482e+00  1.7830658428118660e+00  1.7596096064309039e+00  1.7361494882416610e+00  1.7126873210864171e+00  1.6892240821709106e+00  1.6657606073178637e+00  1.6422974678253710e+00  1.6188348671693387e+00  1.5953727593104623e+00  1.5719110044954365e+00  1.5484494686576826e+00  1.5249880560479885e+00  1.5015267090887530e+00  1.4780653963691459e+00  1.4546041019268907e+00  1.4311428177377594e+00  1.4076815396945208e+00  1.3842202655156710e+00  1.3607589938316440e+00  1.3372977237609949e+00  1.3138364547201438e+00  1.2903751863248512e+00  1.2669139183216696e+00  1.2434526505489623e+00  1.2199913829004159e+00  1.1965301153088241e+00  1.1730688477282361e+00  1.1496075801290162e+00  1.1261463124897715e+00  1.1026850447966523e+00  1.0792237770397513e+00  1.0557625092131790e+00  1.0323012413129897e+00  1.0088399733371269e+00  9.8537870528418381e-01  9.6191743715371070e-01  9.3845616894501604e-01  9.1499490065889799e-01  8.9153363229417826e-01  8.6807236385415210e-01  8.4461109533337941e-01  8.2114982674314685e-01  7.9768855806146077e-01  7.7422728933049145e-01  7.5076602046841312e-01  7.2730475163073627e-01  7.0384348252028195e-01  6.8038221369442908e-01  6.5692094410715740e-01  6.3345967569496975e-01  6.0999840489276402e-01  5.8653713819325182e-01  5.6307586386913289e-01  5.3961460287299856e-01  5.1615331813479737e-01  4.9269207447601693e-01  4.6923075986030444e-01  4.4576956532543249e-01  4.2230816972146801e-01  3.9884710373192434e-01  3.7538550737262905e-01  3.5192474590652179e-01  3.2846273424604994e-01  3.0500263348569828e-01  2.8154013716008114e-01  2.5808132240191722e-01  2.3461908626556222e-01  2.1115938430884168e-01  1.8769491509839267e-01  1.6421591971566427e-01  1.4076029677573687e-01  1.1724791420032374e-01  9.3900095533307693e-02  7.0241465715470269e-02  4.7458811861532973e-02  2.2324156732463130e-02  1.7245361408365152e-03  1.8772074504739387e+00  1.8532594595438552e+00  1.8299254987867202e+00  1.8064947275623440e+00  1.7830452139405395e+00  1.7595879985393696e+00  1.7361274949881500e+00  1.7126651774557056e+00  1.6892019624587442e+00  1.6657386419063942e+00  1.6422757122143874e+00  1.6188133057524905e+00  1.5953513446204624e+00  1.5718896861908747e+00  1.5484282085615881e+00  1.5249668290682237e+00  1.5015055006540281e+00  1.4780441982993735e+00  1.4545829098748180e+00  1.4311216292792106e+00  1.4076603534928329e+00  1.3841990807496525e+00  1.3607378100068950e+00  1.3372765405476770e+00  1.3138152719115566e+00  1.2903540037807297e+00  1.2668927359541604e+00  1.2434314682985252e+00  1.2199702007296194e+00  1.1965089331919780e+00  1.1730476656489268e+00  1.1495863980758190e+00  1.1261251304553350e+00  1.1026638627759557e+00  1.0792025950297226e+00  1.0557413272118499e+00  1.0322800593193198e+00  1.0088187913504025e+00  9.8535752330430904e-01  9.6189625518009481e-01  9.3843498697842143e-01  9.1497371869759292e-01  8.9151245034128357e-01  8.6805118190327268e-01  8.4458991339616596e-01  8.2112864479646575e-01  7.9766737614772265e-01  7.7420610736882489e-01  7.5074483860734065e-01  7.2728356959544649e-01  7.0382230080957064e-01  6.8036103140739446e-01  6.5689976284954921e-01  6.3343849263238738e-01  6.0997722497078111e-01  5.8651595287935443e-01  5.6305468771913547e-01  5.3959341133641814e-01  5.1613215217046815e-01  4.9267086648874775e-01  4.6920962023962198e-01  4.4574831574419810e-01  4.2228709494967864e-01  3.9882575527435793e-01  3.7536457967660164e-01  3.5190318840417772e-01  3.2844208684630405e-01  3.0498073133755155e-01  2.8151981511577107e-01  2.5805913580477269e-01  2.3459827280677556e-01  2.1113781039311960e-01  1.8766941299952333e-01  1.6420164377840166e-01  1.4072186547270793e-01  1.1727542911275216e-01  9.3795756260953211e-02  7.0416292533843267e-02  4.7010891285887549e-02  2.3234734324277674e-02  -3.7969518115672465e-04  1.8771954637866477e+00  1.8534667188112608e+00  1.8299658767236571e+00  1.8065082360902904e+00  1.7830502714691987e+00  1.7595907349475106e+00  1.7361297532450213e+00  1.7126676231006268e+00  1.6892047979794158e+00  1.6657418006028211e+00  1.6422790229440920e+00  1.6188166281747904e+00  1.5953546071614750e+00  1.5718928728537760e+00  1.5484313302347779e+00  1.5249699045872782e+00  1.5015085466216072e+00  1.4780472266835636e+00  1.4545859281467852e+00  1.4311246418516672e+00  1.4076633628067889e+00  1.3842020881708490e+00  1.3607408162860886e+00  1.3372795461251978e+00  1.3138182770465536e+00  1.2903570086361500e+00  1.2668957406311545e+00  1.2434344728619453e+00  1.2199732052204213e+00  1.1965119376363471e+00  1.1730506700638961e+00  1.1495894024725402e+00  1.1261281348416554e+00  1.1026668671573496e+00  1.0792055994102188e+00  1.0557443315942900e+00  1.0322830637055005e+00  1.0088217957418200e+00  9.8536052770108029e-01  9.6189925958375821e-01  9.3843799138671224e-01  9.1497672311481903e-01  8.9151545475826688e-01  8.6805418633579168e-01  8.4459291781216872e-01  8.2113164925329751e-01  7.9767038053665307e-01  7.7420911188658670e-01  7.5074784289523111e-01  7.2728657429334842e-01  7.0382530478562311e-01  6.8036403663289391e-01  6.5690276594197605e-01  6.3344149930589622e-01  6.0998022574163524e-01  5.8651896321029351e-01  5.6305768289108205e-01  5.3959643008943825e-01  5.1613513506569431e-01  4.9267390281998524e-01  4.6921257873174133e-01  4.4575138533452746e-01  4.2229000959427276e-01  3.9882888123428129e-01  3.7536742707819287e-01  3.5190638735650109e-01  3.2844486774832971e-01  3.0498388831349643e-01  2.8152253736870925e-01  2.5806129293093022e-01  2.3460035905471899e-01  2.1113608237239534e-01  1.8767263629001169e-01  1.6419934730772962e-01  1.4074143906907835e-01  1.1726909495897384e-01  9.3837955578102053e-02  7.0363059290721716e-02  4.6986948025063174e-02  2.3242293968775845e-02  1.6829631722310425e-04  1.8772016833301919e+00  1.8535716662873298e+00  1.8300321474606314e+00  1.8065488304535655e+00  1.7830828269353893e+00  1.7596209851547302e+00  1.7361595487720167e+00  1.7126976190175502e+00  1.6892351471708795e+00  1.6657723894373859e+00  1.6423096779429593e+00  1.6188472335557098e+00  1.5953851177650236e+00  1.5719232901987721e+00  1.5484616746526974e+00  1.5250001991449125e+00  1.5015388097231308e+00  1.4780774710357381e+00  1.4546161616106061e+00  1.4311548690712255e+00  1.4076935863937277e+00  1.3842323096092857e+00  1.3607710364128944e+00  1.3373097654382278e+00  1.3138484958435677e+00  1.2903872271050789e+00  1.2669259588891277e+00  1.2434646909845122e+00  1.2200034232554122e+00  1.1965421556149243e+00  1.1730808880063086e+00  1.1496196203924647e+00  1.1261583527485581e+00  1.1026970850579390e+00  1.0792358173093541e+00  1.0557745494951427e+00  1.0323132816105081e+00  1.0088520136518255e+00  9.8539074561787121e-01  9.6192947750567759e-01  9.3846820931764674e-01  9.1500694104692781e-01  8.9154567270523466e-01  8.6808440426945055e-01  8.4462313578270642e-01  8.2116186716411299e-01  7.9770059856326037e-01  7.7423932970544151e-01  7.5077806108855050e-01  7.2731679181918341e-01  7.0385552348003577e-01  6.8039425330192060e-01  6.5693298606315320e-01  6.3347171363314037e-01  6.1001044963845652e-01  5.8654917159037001e-01  5.6308791600919550e-01  5.3962662454452637e-01  5.1616538888831498e-01  4.9270406729552396e-01  4.6924287528987163e-01  4.4578149044572707e-01  4.2232038699341856e-01  3.9885888006624209e-01  3.7539793794739629e-01  3.5193622884155473e-01  3.2847551595962676e-01  3.0501356440567051e-01  2.8155289117417798e-01  2.5809069487044484e-01  2.3462840780668878e-01  2.1116533093304954e-01  1.8769620179504082e-01  1.6423550423116029e-01  1.4075912863824450e-01  1.1732815183950704e-01  9.3831083830302656e-02  7.0455265152051361e-02  4.6856081018498377e-02  2.3527124201384059e-02  -1.4280705010236023e-04  1.8772093017526856e+00  1.8535961248509150e+00  1.8300506390132427e+00  1.8065591602244717e+00  1.7830899416008132e+00  1.7596271235159011e+00  1.7361654502346073e+00  1.7127035167962790e+00  1.6892411155283347e+00  1.6657784333806991e+00  1.6423157654129874e+00  1.6188533286070863e+00  1.5953911992934411e+00  1.5719293518306154e+00  1.5484677184168549e+00  1.5250062297423439e+00  1.5015448316994986e+00  1.4780834877488189e+00  1.4546221752592314e+00  1.4311608809665219e+00  1.4076995972894870e+00  1.3842383199221129e+00  1.3607770463777065e+00  1.3373157751875535e+00  1.3138545054571915e+00  1.2903932366314768e+00  1.2669319683595803e+00  1.2434707004188243e+00  1.2200094326666313e+00  1.1965481650114962e+00  1.1730868973939919e+00  1.1496256297751888e+00  1.1261643621292010e+00  1.1027030944387446e+00  1.0792418266920303e+00  1.0557805588813012e+00  1.0323192910010011e+00  1.0088580230480466e+00  9.8539675501921931e-01  9.6193548691464759e-01  9.3847421873001968e-01  9.1501295047094244e-01  8.9155168212479330e-01  8.6809041371427409e-01  8.4462914519557175e-01  8.2116787664988689e-01  7.9770660792619441e-01  7.7424533930113626e-01  7.5078407027205563e-01  7.2732280174141362e-01  7.0386153210723923e-01  6.8040026417798294e-01  6.5693899309324744e-01  6.3347772715135797e-01  6.1001645238250091e-01  5.8655519196374406e-01  5.6309390801263037e-01  5.3963266150817513e-01  5.1617135579203877e-01  4.9271014169452848e-01  4.6924878752168636e-01  4.4578764339984167e-01  4.2232618924774190e-01  3.9886518296645984e-01  3.7540354467062831e-01  3.5194277022353032e-01  3.2848085324896620e-01  3.0502031825703924e-01  2.8155805446357041e-01  2.5809705331970972e-01  2.3463404757201808e-01  2.1116940753071634e-01  1.8770548659986638e-01  1.6423372444870768e-01  1.4078211237345434e-01  1.1730625486091711e-01  9.3886545543443528e-02  7.0377298230125146e-02  4.6972052093265958e-02  2.3399253316538120e-02  7.3300903266259809e-05  1.8772016769824018e+00  1.8535716056653926e+00  1.8300320914182893e+00  1.8065487966126146e+00  1.7830828089403814e+00  1.7596209759404535e+00  1.7361595440951698e+00  1.7126976163509542e+00  1.6892351455410781e+00  1.6657723885713374e+00  1.6423096774490671e+00  1.6188472330006072e+00  1.5953851169610509e+00  1.5719232892024197e+00  1.5484616735947401e+00  1.5250001981107859e+00  1.5015388087355783e+00  1.4780774700857182e+00  1.4546161606843595e+00  1.4311548681596122e+00  1.4076935854912547e+00  1.3842323087115225e+00  1.3607710355157032e+00  1.3373097645383150e+00  1.3138484949391027e+00  1.2903872261957712e+00  1.2669259579757570e+00  1.2434646900683040e+00  1.2200034223377478e+00  1.1965421546972641e+00  1.1730808870901643e+00  1.1496196194793624e+00  1.1261583518400562e+00  1.1026970841556507e+00  1.0792358164149558e+00  1.0557745486102654e+00  1.0323132807365583e+00  1.0088520127898397e+00  9.8539074476851540e-01  9.6192947666925532e-01  9.3846820849416701e-01  9.1500694023615980e-01  8.9154567190666489e-01  8.6808440348224225e-01  8.4462313500568220e-01  8.2116186639577127e-01  7.9770059780204139e-01  7.7423932894981029e-01  7.5077806033717776e-01  7.2731679107076197e-01  7.0385552273363861e-01  6.8039425255674812e-01  6.5693298531962496e-01  6.3347171289169613e-01  6.1001044890174627e-01  5.8654917086014602e-01  5.6308791529122548e-01  5.3962662384295546e-01  5.1616538821430258e-01  4.9270406666011313e-01  4.6924287471131970e-01  4.4578148995283451e-01  4.2232038660832727e-01  3.9885887986115792e-01  3.7539793793148224e-01  3.5193622918824335e-01  3.2847551659914864e-01  3.0501356573961758e-01  2.8155289280839024e-01  2.5809069766465809e-01  2.3462841019773181e-01  2.1116533453747238e-01  1.8769620179349034e-01  1.6423550513695132e-01  1.4075912146059957e-01  1.1732815238054431e-01  9.3831074107693244e-02  7.0455292544713680e-02  4.6856092435069163e-02  2.3527164775067097e-02  -1.4283191977398734e-04  1.8771954389684531e+00  1.8534665626333022e+00  1.8299657570664165e+00  1.8065081694614369e+00  1.7830502353375539e+00  1.7595907146770045e+00  1.7361297409492455e+00  1.7126676149099860e+00  1.6892047919689452e+00  1.6657417955330989e+00  1.6422790179283508e+00  1.6188166227964589e+00  1.5953546014415774e+00  1.5718928670063637e+00  1.5484313244435854e+00  1.5249698989290466e+00  1.5015085410945159e+00  1.4780472212572020e+00  1.4545859227908222e+00  1.4311246365427472e+00  1.4076633575268818e+00  1.3842020829055117e+00  1.3607408110245760e+00  1.3372795408609743e+00  1.3138182717769966e+00  1.2903570033614797e+00  1.2668957353531860e+00  1.2434344675831761e+00  1.2199731999436585e+00  1.1965119323645450e+00  1.1730506648001622e+00  1.1495893972201590e+00  1.1261281296041392e+00  1.1026668619383211e+00  1.0792055942130958e+00  1.0557443264219757e+00  1.0322830585601015e+00  1.0088217906246422e+00  9.8536052261268892e-01  9.6189925452405711e-01  9.3843798635499442e-01  9.1497671810970682e-01  8.9151544977758990e-01  8.6805418137661761e-01  8.4459291287101612e-01  8.2113164432647689e-01  7.9767037562047194e-01  7.7420910697758172e-01  7.5074783799019007e-01  7.2728656938983105e-01  7.0382529988199771e-01  6.8036403172939153e-01  6.5690276103975898e-01  6.3344149440891528e-01  6.0998022085398640e-01  5.8651895834125101e-01  5.6305767804995122e-01  5.3959642529571461e-01  5.1613513034093539e-01  4.9267389819983110e-01  4.6921257426565549e-01  4.4575138107670348e-01  4.2229000566085872e-01  3.9882887768827308e-01  3.7536742418889629e-01  3.5190638514245520e-01  3.2844486680450291e-01  3.0498388839598001e-01  2.8152253973687880e-01  2.5806129620364254e-01  2.3460036548694921e-01  2.1113608612279794e-01  1.8767263979193077e-01  1.6419933467954373e-01  1.4074142376581880e-01  1.1726906165834237e-01  9.3837958722610471e-02  7.0363065111758341e-02  4.6987044501610016e-02  2.3242302334985945e-02  1.6836300452902346e-04  1.8772074528709297e+00  1.8532590477392723e+00  1.8299252965359509e+00  1.8064946096975123e+00  1.7830451378182206e+00  1.7595879429010877e+00  1.7361274493933501e+00  1.7126651372044308e+00  1.6892019251480197e+00  1.6657386056834427e+00  1.6422756757541912e+00  1.6188132685824570e+00  1.5953513069344325e+00  1.5718896483776508e+00  1.5484281708851573e+00  1.5249667916104621e+00  1.5015054633914284e+00  1.4780441611810926e+00  1.4545828728570116e+00  1.4311215923288583e+00  1.4076603165835020e+00  1.3841990438597433e+00  1.3607377731206056e+00  1.3372765036559520e+00  1.3138152350113237e+00  1.2903539668729442e+00  1.2668926990418141e+00  1.2434314313854473e+00  1.2199701638199816e+00  1.1965088962901733e+00  1.1730476287595530e+00  1.1495863612037664e+00  1.1261250936059284e+00  1.1026638259546979e+00  1.0792025582417841e+00  1.0557412904615011e+00  1.0322800226095923e+00  1.0088187546830973e+00  9.8535748668014844e-01  9.6189621859887775e-01  9.3843495043906722e-01  9.1497368219798825e-01  8.9151241387806879e-01  8.6805114547189577e-01  8.4458987699128507e-01  8.2112860841247415e-01  7.9766733977913262e-01  7.7420607101036354e-01  7.5074480225421913e-01  7.2728353324376049e-01  7.0382226445720319e-01  6.8036099505432268e-01  6.5689972649849082e-01  6.3343845628788564e-01  6.0997718864092132e-01  5.8651591657449131e-01  5.6305465145740030e-01  5.3959337514073913e-01  5.1613211607959264e-01  4.9267083054928651e-01  4.6920958452656175e-01  4.4574828034707736e-01  4.2228706000755889e-01  3.9882572095795005e-01  3.7536454623438764e-01  3.5190315614791523e-01  3.2844205617917682e-01  3.0498070276083178e-01  2.8151978913374887e-01  2.5805911289169420e-01  2.3459825259517600e-01  2.1113779105518313e-01  1.8766938722619278e-01  1.6420160304706727e-01  1.4072179930433365e-01  1.1727535948271905e-01  9.3795697947733389e-02  7.0416310972350710e-02  4.7010962922192596e-02  2.3234846119302918e-02  -3.7984294053065469e-04  1.8750472153987765e+00  1.8533180799090347e+00  1.8299311757120926e+00  1.8065126991425000e+00  1.7830657414106412e+00  1.7596095272547370e+00  1.7361494199465168e+00  1.7126872584461501e+00  1.6892240226217117e+00  1.6657605489948770e+00  1.6422974093183853e+00  1.6188348078597472e+00  1.5953726992970023e+00  1.5719109441643695e+00  1.5484494083236913e+00  1.5249879958468722e+00  1.5015266490317589e+00  1.4780653364229519e+00  1.4546040420564341e+00  1.4311427579156559e+00  1.4076814798984778e+00  1.3842202057267943e+00  1.3607589340355117e+00  1.3372976639491392e+00  1.3138363948899103e+00  1.2903751264778551e+00  1.2669138584618245e+00  1.2434525906812286e+00  1.2199913230301846e+00  1.1965300554417524e+00  1.1730687878702339e+00  1.1496075202863176e+00  1.1261462526690735e+00  1.1026849850049287e+00  1.0792237172837278e+00  1.0557624494987323e+00  1.0323011816446959e+00  1.0088399137182067e+00  9.8537864571656097e-01  9.6191737763818885e-01  9.3845610948130376e-01  9.1499484124545516e-01  8.9153357292800062e-01  8.6807230453077455e-01  8.4461103604722043e-01  8.2114976748804780e-01  7.9768849883114357e-01  7.7422723011878003e-01  7.5076596126943407e-01  7.2730469243952323e-01  7.0384342333345029e-01  6.8038215451110140e-01  6.5692088492890965e-01  6.3345961652654637e-01  6.0999834574121459e-01  5.8653707907113661e-01  5.6307580479271835e-01  5.3961454387175567e-01  5.1615325924277133e-01  4.9269201575707056e-01  4.6923070137572748e-01  4.4576950720869946e-01  4.2230811206927127e-01  3.9884704682705285e-01  3.7538545133989443e-01  3.5192469133174314e-01  3.2846268122291611e-01  3.0500258310202799e-01  2.8154008928977448e-01  2.5808127859595359e-01  2.3461904494344724e-01  2.1115934570634726e-01  1.8769486912747257e-01  1.6421586176965783e-01  1.4076020811112255e-01  1.1724782218075225e-01  9.3900007412266992e-02  7.0241452416284669e-02  4.7458901232401408e-02  2.2324197307697212e-02  1.7243724495492542e-03  1.8647343448751712e+00  1.8416026943982835e+00  1.8182054589508116e+00  1.7947683425841998e+00  1.7713156169189319e+00  1.7478569892655984e+00  1.7243956402937193e+00  1.7009328369308645e+00  1.6774694776224830e+00  1.6540062490836378e+00  1.6305434971408235e+00  1.6070812580199134e+00  1.5836194175295890e+00  1.5601578342654936e+00  1.5366963988732469e+00  1.5132350418696050e+00  1.4897737250881804e+00  1.4663124289081479e+00  1.4428511438981226e+00  1.4193898653344439e+00  1.3959285908053320e+00  1.3724673188661409e+00  1.3490060486316626e+00  1.3255447794894788e+00  1.3020835110432856e+00  1.2786222430203915e+00  1.2551609752494386e+00  1.2316997076155358e+00  1.2082384400470945e+00  1.1847771724953398e+00  1.1613159049288480e+00  1.1378546373253491e+00  1.1143933696700050e+00  1.0909321019524354e+00  1.0674708341660515e+00  1.0440095663066720e+00  1.0205482983718837e+00  9.9708703036027679e-01  9.7362576227115405e-01  9.5016449410403292e-01  9.2670322585911191e-01  9.0324195753605285e-01  8.7978068913624441e-01  8.5631942065798194e-01  8.3285815210524583e-01  8.0939688347056815e-01  7.8593561476761964e-01  7.6247434597024877e-01  7.3901307712586473e-01  7.1555180814637187e-01  6.9209053918854002e-01  6.6862926996959215e-01  6.4516800098376315e-01  6.2170673136998478e-01  5.9824546259608380e-01  5.7478419218824706e-01  5.5132292423200102e-01  5.2786165207359059e-01  5.0440038634019602e-01  4.8093911029876740e-01  4.5747784985634538e-01  4.3401656530845428e-01  4.1055531676787527e-01  3.8709401386304759e-01  3.6363279395700482e-01  3.4017146332331244e-01  3.1671034728284020e-01  2.9324910074895555e-01  2.6978845006824265e-01  2.4632772210619697e-01  2.2286712873285930e-01  1.9940358859012541e-01  1.7593416781272558e-01  1.5246162464850874e-01  1.2899116118648626e-01  1.0553770017816339e-01  8.2097975537023582e-02  5.8698233783200847e-02  3.5228063898560986e-02  1.0781280242622657e-02  1.8653607783389081e+00  1.8417255861578612e+00  1.8182956784502864e+00  1.7948465177770596e+00  1.7713903066201249e+00  1.7479306368960628e+00  1.7244690542501508e+00  1.7010063359280523e+00  1.6775431992978465e+00  1.6540802035872755e+00  1.6306176192953565e+00  1.6071554713518652e+00  1.5836936675245006e+00  1.5602320923885522e+00  1.5367706541331780e+00  1.5133092920812183e+00  1.4898479712289008e+00  1.4663866725072570e+00  1.4429253861341114e+00  1.4194641069232574e+00  1.39600283211