<?xml version="1.0"?>
<VTKFile type="UnstructuredGrid"  version="0.1"  >
<UnstructuredGrid>
<Piece  NumberOfPoints="1369" NumberOfCells="2560">
<Points>
<DataArray  type="Float64"  NumberOfComponents="3"  format="ascii">0 0 0  0.75 0 0  1.5 0 0  2.25 0 0  3 0 0  3.75 0 0  4.5 0 0  5.25 0 0  6 0 0  6.75 0 0  7.5 0 0  8.25 0 0  9 0 0  9.75 0 0  10.5 0 0  11.25 0 0  12 0 0  12.75 0 0  13.5 0 0  14.25 0 0  15 0 0  15.75 0 0  16.5 0 0  17.25 0 0  18 0 0  18.75 0 0  19.5 0 0  20.25 0 0  21 0 0  21.75 0 0  22.5 0 0  23.25 0 0  24 0 0  24.75 0 0  25.5 0 0  26.25 0 0  27 0 0  27.75 0 0  28.5 0 0  29.25 0 0  30 0 0  30.75 0 0  31.5 0 0  32.25 0 0  33 0 0  33.75 0 0  34.5 0 0  35.25 0 0  36 0 0  36.75 0 0  37.5 0 0  38.25 0 0  39 0 0  39.75 0 0  40.5 0 0  41.25 0 0  42 0 0  42.75 0 0  43.5 0 0  44.25 0 0  45 0 0  45.75 0 0  46.5 0 0  47.25 0 0  48 0 0  48.75 0 0  49.5 0 0  50.25 0 0  51 0 0  51.75 0 0  52.5 0 0  53.25 0 0  54 0 0  54.75 0 0  55.5 0 0  56.25 0 0  57 0 0  57.75 0 0  58.5 0 0  59.25 0 0  60 0 0  0 0.5 0  0.75 0.5 0  1.5 0.5 0  2.25 0.5 0  3 0.5 0  3.75 0.5 0  4.5 0.5 0  5.25 0.5 0  6 0.5 0  6.75 0.5 0  7.5 0.5 0  8.25 0.5 0  9 0.5 0  9.75 0.5 0  10.5 0.5 0  11.25 0.5 0  12 0.5 0  12.75 0.5 0  13.5 0.5 0  14.25 0.5 0  15 0.5 0  15.75 0.5 0  16.5 0.5 0  17.25 0.5 0  18 0.5 0  18.75 0.5 0  19.5 0.5 0  20.25 0.5 0  21 0.5 0  21.75 0.5 0  22.5 0.5 0  23.25 0.5 0  24 0.5 0  24.75 0.5 0  25.5 0.5 0  26.25 0.5 0  27 0.5 0  27.75 0.5 0  28.5 0.5 0  29.25 0.5 0  30 0.5 0  30.75 0.5 0  31.5 0.5 0  32.25 0.5 0  33 0.5 0  33.75 0.5 0  34.5 0.5 0  35.25 0.5 0  36 0.5 0  36.75 0.5 0  37.5 0.5 0  38.25 0.5 0  39 0.5 0  39.75 0.5 0  40.5 0.5 0  41.25 0.5 0  42 0.5 0  42.75 0.5 0  43.5 0.5 0  44.25 0.5 0  45 0.5 0  45.75 0.5 0  46.5 0.5 0  47.25 0.5 0  48 0.5 0  48.75 0.5 0  49.5 0.5 0  50.25 0.5 0  51 0.5 0  51.75 0.5 0  52.5 0.5 0  53.25 0.5 0  54 0.5 0  54.75 0.5 0  55.5 0.5 0  56.25 0.5 0  57 0.5 0  57.75 0.5 0  58.5 0.5 0  59.25 0.5 0  60 0.5 0  0 1 0  0.75 1 0  1.5 1 0  2.25 1 0  3 1 0  3.75 1 0  4.5 1 0  5.25 1 0  6 1 0  6.75 1 0  7.5 1 0  8.25 1 0  9 1 0  9.75 1 0  10.5 1 0  11.25 1 0  12 1 0  12.75 1 0  13.5 1 0  14.25 1 0  15 1 0  15.75 1 0  16.5 1 0  17.25 1 0  18 1 0  18.75 1 0  19.5 1 0  20.25 1 0  21 1 0  21.75 1 0  22.5 1 0  23.25 1 0  24 1 0  24.75 1 0  25.5 1 0  26.25 1 0  27 1 0  27.75 1 0  28.5 1 0  29.25 1 0  30 1 0  30.75 1 0  31.5 1 0  32.25 1 0  33 1 0  33.75 1 0  34.5 1 0  35.25 1 0  36 1 0  36.75 1 0  37.5 1 0  38.25 1 0  39 1 0  39.75 1 0  40.5 1 0  41.25 1 0  42 1 0  42.75 1 0  43.5 1 0  44.25 1 0  45 1 0  45.75 1 0  46.5 1 0  47.25 1 0  48 1 0  48.75 1 0  49.5 1 0  50.25 1 0  51 1 0  51.75 1 0  52.5 1 0  53.25 1 0  54 1 0  54.75 1 0  55.5 1 0  56.25 1 0  57 1 0  57.75 1 0  58.5 1 0  59.25 1 0  60 1 0  0 1.5 0  0.75 1.5 0  1.5 1.5 0  2.25 1.5 0  3 1.5 0  3.75 1.5 0  4.5 1.5 0  5.25 1.5 0  6 1.5 0  6.75 1.5 0  7.5 1.5 0  8.25 1.5 0  9 1.5 0  9.75 1.5 0  10.5 1.5 0  11.25 1.5 0  12 1.5 0  12.75 1.5 0  13.5 1.5 0  14.25 1.5 0  15 1.5 0  15.75 1.5 0  16.5 1.5 0  17.25 1.5 0  18 1.5 0  18.75 1.5 0  19.5 1.5 0  20.25 1.5 0  21 1.5 0  21.75 1.5 0  22.5 1.5 0  23.25 1.5 0  24 1.5 0  24.75 1.5 0  25.5 1.5 0  26.25 1.5 0  27 1.5 0  27.75 1.5 0  28.5 1.5 0  29.25 1.5 0  30 1.5 0  30.75 1.5 0  31.5 1.5 0  32.25 1.5 0  33 1.5 0  33.75 1.5 0  34.5 1.5 0  35.25 1.5 0  36 1.5 0  36.75 1.5 0  37.5 1.5 0  38.25 1.5 0  39 1.5 0  39.75 1.5 0  40.5 1.5 0  41.25 1.5 0  42 1.5 0  42.75 1.5 0  43.5 1.5 0  44.25 1.5 0  45 1.5 0  45.75 1.5 0  46.5 1.5 0  47.25 1.5 0  48 1.5 0  48.75 1.5 0  49.5 1.5 0  50.25 1.5 0  51 1.5 0  51.75 1.5 0  52.5 1.5 0  53.25 1.5 0  54 1.5 0  54.75 1.5 0  55.5 1.5 0  56.25 1.5 0  57 1.5 0  57.75 1.5 0  58.5 1.5 0  59.25 1.5 0  60 1.5 0  0 2 0  0.75 2 0  1.5 2 0  2.25 2 0  3 2 0  3.75 2 0  4.5 2 0  5.25 2 0  6 2 0  6.75 2 0  7.5 2 0  8.25 2 0  9 2 0  9.75 2 0  10.5 2 0  11.25 2 0  12 2 0  12.75 2 0  13.5 2 0  14.25 2 0  15 2 0  15.75 2 0  16.5 2 0  17.25 2 0  18 2 0  18.75 2 0  19.5 2 0  20.25 2 0  21 2 0  21.75 2 0  22.5 2 0  23.25 2 0  24 2 0  24.75 2 0  25.5 2 0  26.25 2 0  27 2 0  27.75 2 0  28.5 2 0  29.25 2 0  30 2 0  30.75 2 0  31.5 2 0  32.25 2 0  33 2 0  33.75 2 0  34.5 2 0  35.25 2 0  36 2 0  36.75 2 0  37.5 2 0  38.25 2 0  39 2 0  39.75 2 0  40.5 2 0  41.25 2 0  42 2 0  42.75 2 0  43.5 2 0  44.25 2 0  45 2 0  45.75 2 0  46.5 2 0  47.25 2 0  48 2 0  48.75 2 0  49.5 2 0  50.25 2 0  51 2 0  51.75 2 0  52.5 2 0  53.25 2 0  54 2 0  54.75 2 0  55.5 2 0  56.25 2 0  57 2 0  57.75 2 0  58.5 2 0  59.25 2 0  60 2 0  0 2.5 0  0.75 2.5 0  1.5 2.5 0  2.25 2.5 0  3 2.5 0  3.75 2.5 0  4.5 2.5 0  5.25 2.5 0  6 2.5 0  6.75 2.5 0  7.5 2.5 0  8.25 2.5 0  9 2.5 0  9.75 2.5 0  10.5 2.5 0  11.25 2.5 0  12 2.5 0  12.75 2.5 0  13.5 2.5 0  14.25 2.5 0  15 2.5 0  15.75 2.5 0  16.5 2.5 0  17.25 2.5 0  18 2.5 0  18.75 2.5 0  19.5 2.5 0  20.25 2.5 0  21 2.5 0  21.75 2.5 0  22.5 2.5 0  23.25 2.5 0  24 2.5 0  24.75 2.5 0  25.5 2.5 0  26.25 2.5 0  27 2.5 0  27.75 2.5 0  28.5 2.5 0  29.25 2.5 0  30 2.5 0  30.75 2.5 0  31.5 2.5 0  32.25 2.5 0  33 2.5 0  33.75 2.5 0  34.5 2.5 0  35.25 2.5 0  36 2.5 0  36.75 2.5 0  37.5 2.5 0  38.25 2.5 0  39 2.5 0  39.75 2.5 0  40.5 2.5 0  41.25 2.5 0  42 2.5 0  42.75 2.5 0  43.5 2.5 0  44.25 2.5 0  45 2.5 0  45.75 2.5 0  46.5 2.5 0  47.25 2.5 0  48 2.5 0  48.75 2.5 0  49.5 2.5 0  50.25 2.5 0  51 2.5 0  51.75 2.5 0  52.5 2.5 0  53.25 2.5 0  54 2.5 0  54.75 2.5 0  55.5 2.5 0  56.25 2.5 0  57 2.5 0  57.75 2.5 0  58.5 2.5 0  59.25 2.5 0  60 2.5 0  0 3 0  0.75 3 0  1.5 3 0  2.25 3 0  3 3 0  3.75 3 0  4.5 3 0  5.25 3 0  6 3 0  6.75 3 0  7.5 3 0  8.25 3 0  9 3 0  9.75 3 0  10.5 3 0  11.25 3 0  12 3 0  12.75 3 0  13.5 3 0  14.25 3 0  15 3 0  15.75 3 0  16.5 3 0  17.25 3 0  18 3 0  18.75 3 0  19.5 3 0  20.25 3 0  21 3 0  21.75 3 0  22.5 3 0  23.25 3 0  24 3 0  24.75 3 0  25.5 3 0  26.25 3 0  27 3 0  27.75 3 0  28.5 3 0  29.25 3 0  30 3 0  30.75 3 0  31.5 3 0  32.25 3 0  33 3 0  33.75 3 0  34.5 3 0  35.25 3 0  36 3 0  36.75 3 0  37.5 3 0  38.25 3 0  39 3 0  39.75 3 0  40.5 3 0  41.25 3 0  42 3 0  42.75 3 0  43.5 3 0  44.25 3 0  45 3 0  45.75 3 0  46.5 3 0  47.25 3 0  48 3 0  48.75 3 0  49.5 3 0  50.25 3 0  51 3 0  51.75 3 0  52.5 3 0  53.25 3 0  54 3 0  54.75 3 0  55.5 3 0  56.25 3 0  57 3 0  57.75 3 0  58.5 3 0  59.25 3 0  60 3 0  0 3.5 0  0.75 3.5 0  1.5 3.5 0  2.25 3.5 0  3 3.5 0  3.75 3.5 0  4.5 3.5 0  5.25 3.5 0  6 3.5 0  6.75 3.5 0  7.5 3.5 0  8.25 3.5 0  9 3.5 0  9.75 3.5 0  10.5 3.5 0  11.25 3.5 0  12 3.5 0  12.75 3.5 0  13.5 3.5 0  14.25 3.5 0  15 3.5 0  15.75 3.5 0  16.5 3.5 0  17.25 3.5 0  18 3.5 0  18.75 3.5 0  19.5 3.5 0  20.25 3.5 0  21 3.5 0  21.75 3.5 0  22.5 3.5 0  23.25 3.5 0  24 3.5 0  24.75 3.5 0  25.5 3.5 0  26.25 3.5 0  27 3.5 0  27.75 3.5 0  28.5 3.5 0  29.25 3.5 0  30 3.5 0  30.75 3.5 0  31.5 3.5 0  32.25 3.5 0  33 3.5 0  33.75 3.5 0  34.5 3.5 0  35.25 3.5 0  36 3.5 0  36.75 3.5 0  37.5 3.5 0  38.25 3.5 0  39 3.5 0  39.75 3.5 0  40.5 3.5 0  41.25 3.5 0  42 3.5 0  42.75 3.5 0  43.5 3.5 0  44.25 3.5 0  45 3.5 0  45.75 3.5 0  46.5 3.5 0  47.25 3.5 0  48 3.5 0  48.75 3.5 0  49.5 3.5 0  50.25 3.5 0  51 3.5 0  51.75 3.5 0  52.5 3.5 0  53.25 3.5 0  54 3.5 0  54.75 3.5 0  55.5 3.5 0  56.25 3.5 0  57 3.5 0  57.75 3.5 0  58.5 3.5 0  59.25 3.5 0  60 3.5 0  0 4 0  0.75 4 0  1.5 4 0  2.25 4 0  3 4 0  3.75 4 0  4.5 4 0  5.25 4 0  6 4 0  6.75 4 0  7.5 4 0  8.25 4 0  9 4 0  9.75 4 0  10.5 4 0  11.25 4 0  12 4 0  12.75 4 0  13.5 4 0  14.25 4 0  15 4 0  15.75 4 0  16.5 4 0  17.25 4 0  18 4 0  18.75 4 0  19.5 4 0  20.25 4 0  21 4 0  21.75 4 0  22.5 4 0  23.25 4 0  24 4 0  24.75 4 0  25.5 4 0  26.25 4 0  27 4 0  27.75 4 0  28.5 4 0  29.25 4 0  30 4 0  30.75 4 0  31.5 4 0  32.25 4 0  33 4 0  33.75 4 0  34.5 4 0  35.25 4 0  36 4 0  36.75 4 0  37.5 4 0  38.25 4 0  39 4 0  39.75 4 0  40.5 4 0  41.25 4 0  42 4 0  42.75 4 0  43.5 4 0  44.25 4 0  45 4 0  45.75 4 0  46.5 4 0  47.25 4 0  48 4 0  48.75 4 0  49.5 4 0  50.25 4 0  51 4 0  51.75 4 0  52.5 4 0  53.25 4 0  54 4 0  54.75 4 0  55.5 4 0  56.25 4 0  57 4 0  57.75 4 0  58.5 4 0  59.25 4 0  60 4 0  0.375 0.25 0  1.125 0.25 0  1.875 0.25 0  2.625 0.25 0  3.375 0.25 0  4.125 0.25 0  4.875 0.25 0  5.625 0.25 0  6.375 0.25 0  7.125 0.25 0  7.875 0.25 0  8.625 0.25 0  9.375 0.25 0  10.125 0.25 0  10.875 0.25 0  11.625 0.25 0  12.375 0.25 0  13.125 0.25 0  13.875 0.25 0  14.625 0.25 0  15.375 0.25 0  16.125 0.25 0  16.875 0.25 0  17.625 0.25 0  18.375 0.25 0  19.125 0.25 0  19.875 0.25 0  20.625 0.25 0  21.375 0.25 0  22.125 0.25 0  22.875 0.25 0  23.625 0.25 0  24.375 0.25 0  25.125 0.25 0  25.875 0.25 0  26.625 0.25 0  27.375 0.25 0  28.125 0.25 0  28.875 0.25 0  29.625 0.25 0  30.375 0.25 0  31.125 0.25 0  31.875 0.25 0  32.625 0.25 0  33.375 0.25 0  34.125 0.25 0  34.875 0.25 0  35.625 0.25 0  36.375 0.25 0  37.125 0.25 0  37.875 0.25 0  38.625 0.25 0  39.375 0.25 0  40.125 0.25 0  40.875 0.25 0  41.625 0.25 0  42.375 0.25 0  43.125 0.25 0  43.875 0.25 0  44.625 0.25 0  45.375 0.25 0  46.125 0.25 0  46.875 0.25 0  47.625 0.25 0  48.375 0.25 0  49.125 0.25 0  49.875 0.25 0  50.625 0.25 0  51.375 0.25 0  52.125 0.25 0  52.875 0.25 0  53.625 0.25 0  54.375 0.25 0  55.125 0.25 0  55.875 0.25 0  56.625 0.25 0  57.375 0.25 0  58.125 0.25 0  58.875 0.25 0  59.625 0.25 0  0.375 0.75 0  1.125 0.75 0  1.875 0.75 0  2.625 0.75 0  3.375 0.75 0  4.125 0.75 0  4.875 0.75 0  5.625 0.75 0  6.375 0.75 0  7.125 0.75 0  7.875 0.75 0  8.625 0.75 0  9.375 0.75 0  10.125 0.75 0  10.875 0.75 0  11.625 0.75 0  12.375 0.75 0  13.125 0.75 0  13.875 0.75 0  14.625 0.75 0  15.375 0.75 0  16.125 0.75 0  16.875 0.75 0  17.625 0.75 0  18.375 0.75 0  19.125 0.75 0  19.875 0.75 0  20.625 0.75 0  21.375 0.75 0  22.125 0.75 0  22.875 0.75 0  23.625 0.75 0  24.375 0.75 0  25.125 0.75 0  25.875 0.75 0  26.625 0.75 0  27.375 0.75 0  28.125 0.75 0  28.875 0.75 0  29.625 0.75 0  30.375 0.75 0  31.125 0.75 0  31.875 0.75 0  32.625 0.75 0  33.375 0.75 0  34.125 0.75 0  34.875 0.75 0  35.625 0.75 0  36.375 0.75 0  37.125 0.75 0  37.875 0.75 0  38.625 0.75 0  39.375 0.75 0  40.125 0.75 0  40
[...]
<PointData  Scalars="f_8-1"> 
<DataArray  type="Float64"  Name="f_8-1"  format="ascii">-1.0689400241995330e+01  -1.0557928787558419e+01  -1.0424532425013554e+01  -1.0290985316068198e+01  -1.0157375045096881e+01  -1.0023738847577858e+01  -9.8900899289069404e+00  -9.7564347585902382e+00  -9.6227766023155699e+00  -9.4891173633928219e+00  -9.3554584610187703e+00  -9.2218013519297291e+00  -9.0881468497619338e+00  -8.9544949031154850e+00  -8.8208448860031172e+00  -8.6871960978863196e+00  -8.5535479939050685e+00  -8.4199002390001940e+00  -8.2862526488006125e+00  -8.1526051339801935e+00  -8.0189576525116344e+00  -7.8853101864139203e+00  -7.7516627275267442e+00  -7.6180152724843406e+00  -7.4843678196411698e+00  -7.3507203683018227e+00  -7.2170729180914934e+00  -7.0834254688415363e+00  -6.9497780204618174e+00  -6.8161305729044628e+00  -6.6824831261494460e+00  -6.5488356801806784e+00  -6.4151882349951652e+00  -6.2815407905865621e+00  -6.1478933469553487e+00  -6.0142459040986944e+00  -5.8805984620173986e+00  -5.7469510207101528e+00  -5.6133035801774431e+00  -5.4796561404186699e+00  -5.3460087014341209e+00  -5.2123612632235012e+00  -5.0787138257869486e+00  -4.9450663891243281e+00  -4.8114189532357026e+00  -4.6777715181210207e+00  -4.5441240837802912e+00  -4.4104766502135098e+00  -4.2768292174206683e+00  -4.1431817854017421e+00  -4.0095343541567345e+00  -3.8758869236856048e+00  -3.7422394939883188e+00  -3.6085920650647902e+00  -3.4749446369148989e+00  -3.3412972095383346e+00  -3.2076497829347121e+00  -3.0740023571027595e+00  -2.9403549320416285e+00  -2.8067075077443291e+00  -2.6730600842145886e+00  -2.5394126614015571e+00  -2.4057652393971511e+00  -2.2721178177476875e+00  -2.1384703976415880e+00  -2.0048229746384161e+00  -1.8711755619060710e+00  -1.7375281154089177e+00  -1.6038807693547252e+00  -1.4702331020460715e+00  -1.3365863776881122e+00  -1.2029368395085032e+00  -1.0692952575337571e+00  -9.3563178936840319e-01  -8.0202595899176654e-01  -6.6827827132124840e-01  -5.3486876692826368e-01  -4.0074730656110569e-01  -2.6828190454402168e-01  -1.3244315890786293e-01  -1.3294610104424773e-03  -1.0691958093828701e+01  -1.0557911298356357e+01  -1.0424494113569557e+01  -1.0290932239186843e+01  -1.0157321519063112e+01  -1.0023687251514414e+01  -9.8900402493987816e+00  -9.7563863120332783e+00  -9.6227288418952543e+00  -9.4890700160650159e+00  -9.3554111483561631e+00  -9.2217535593691089e+00  -9.0880983774484410e+00  -8.9544458837538521e+00  -8.8207955560555860e+00  -8.6871466309204166e+00  -8.5534984806937349e+00  -8.4198507141845518e+00  -8.2862031228117523e+00  -8.1525556083478161e+00  -8.0189081271836837e+00  -7.8852606610748257e+00  -7.7516132021364506e+00  -7.6179657470199933e+00  -7.4843182941388449e+00  -7.3506708427737033e+00  -7.2170233925514058e+00  -7.0833759432957590e+00  -6.9497284949123834e+00  -6.8160810473544844e+00  -6.6824336005980776e+00  -6.5487861546296635e+00  -6.4151387094434806e+00  -6.2814912650351813e+00  -6.1478438214035851e+00  -6.0141963785470658e+00  -5.8805489364655212e+00  -5.7469014951582889e+00  -5.6132540546253988e+00  -5.4796066148665732e+00  -5.3459591758818741e+00  -5.2123117376711665e+00  -5.0786643002344825e+00  -4.9450168635717597e+00  -4.8113694276830019e+00  -4.6777219925682010e+00  -4.5440745582273463e+00  -4.4104271246604334e+00  -4.2767796918674552e+00  -4.1431322598483833e+00  -4.0094848286032221e+00  -3.8758373981319183e+00  -3.7421899684344342e+00  -3.6085425395106872e+00  -3.4748951113605293e+00  -3.3412476839837151e+00  -3.2076002573797044e+00  -3.0739528315478979e+00  -2.9403054064856637e+00  -2.8066579821929833e+00  -2.6730105586530453e+00  -2.5393631358878337e+00  -2.4057157137622061e+00  -2.2720682925832247e+00  -2.1384208711354069e+00  -2.0047734527370231e+00  -1.8711260262953477e+00  -1.7374786234729762e+00  -1.6038311479965395e+00  -1.4701838691583999e+00  -1.3365360340201347e+00  -1.2028896185486915e+00  -1.0692396526819155e+00  -9.3559781272233944e-01  -8.0193909652161977e-01  -6.6831274656524109e-01  -5.3464003394020565e-01  -4.0103923450888268e-01  -2.6747215076117825e-01  -1.3343960353824696e-01  3.7495485006594346e-04  -1.0692020210326147e+01  -1.0558162103915279e+01  -1.0424517498358892e+01  -1.0290910576313742e+01  -1.0157288814475727e+01  -1.0023651847519947e+01  -9.8900039798025094e+00  -9.7563493747746062e+00  -9.6226913315738809e+00  -9.4890322264958566e+00  -9.3553726391875216e+00  -9.2217137891621519e+00  -9.0880576360349945e+00  -8.9544048232258060e+00  -8.8207545984458111e+00  -8.6871058898776141e+00  -8.5534579166483180e+00  -8.4198102567023074e+00  -8.2861627191057980e+00  -8.1525152287534119e+00  -8.0188677576295646e+00  -7.8852202956111705e+00  -7.7515728383573750e+00  -7.6179253839873216e+00  -7.4842779314430370e+00  -7.3506304802496745e+00  -7.2169830301064106e+00  -7.0833355808964802e+00  -6.9496881325320654e+00  -6.8160406849871631e+00  -6.6823932382347841e+00  -6.5487457922700720e+00  -6.4150983470842844e+00  -6.2814509026768235e+00  -6.1478034590447521e+00  -6.0141560161881449e+00  -5.8805085741059724e+00  -5.7468611327982666e+00  -5.6132136922647335e+00  -5.4795662525053137e+00  -5.3459188135199538e+00  -5.2122713753086138e+00  -5.0786239378712645e+00  -4.9449765012078890e+00  -4.8113290653184624e+00  -4.6776816302029953e+00  -4.5440341958614781e+00  -4.4103867622938902e+00  -4.2767393295002298e+00  -4.1430918974804776e+00  -4.0094444662346094e+00  -3.8757970357626030e+00  -3.7421496060644106e+00  -3.6085021771399388e+00  -3.4748547489890704e+00  -3.3412073216115799e+00  -3.2075598950071531e+00  -3.0739124691749917e+00  -2.9402650441144860e+00  -2.8066176198217074e+00  -2.6729701962985510e+00  -2.5393227735183288e+00  -2.4056753515269800e+00  -2.2720279301045254e+00  -2.1383805097881687e+00  -2.0047330886575430e+00  -1.8710856719239104e+00  -1.7374382432925550e+00  -1.6037908473106597e+00  -1.4701433570664486e+00  -1.3364961044588568e+00  -1.2028482287190556e+00  -1.0692018013471984e+00  -9.3555202765587431e-01  -8.0190917547282470e-01  -6.6825241395824475e-01  -5.3462115995416015e-01  -4.0093696054781369e-01  -2.6735076842638228e-01  -1.3345095981206159e-01  -1.1226591185227768e-04  -1.0692064282093448e+01  -1.0558265123094126e+01  -1.0424579153546851e+01  -1.0290942704344980e+01  -1.0157311820503319e+01  -1.0023673199128394e+01  -9.8900257205253368e+00  -9.7563718913798319e+00  -9.6227144041332959e+00  -9.4890555819031253e+00  -9.3553962130274897e+00  -9.2217374360298425e+00  -9.0880810956172731e+00  -8.9544279789738717e+00  -8.8207774968198152e+00  -8.6871286356043882e+00  -8.5534805918738392e+00  -8.4198329069850804e+00  -8.2861853629701017e+00  -8.1525378721154809e+00  -8.0188904014644606e+00  -7.8852429398466652e+00  -7.7515954827504396e+00  -7.6179480284445074e+00  -7.4843005759145242e+00  -7.3506531247293427e+00  -7.2170056745903732e+00  -7.0833582253843836e+00  -6.9497107770237783e+00  -6.8160633294811239e+00  -6.6824158827310667e+00  -6.5487684367671939e+00  -6.4151209915823886e+00  -6.2814735471749534e+00  -6.1478261035430624e+00  -6.0141786606860670e+00  -5.8805312186036014e+00  -5.7468837772953423e+00  -5.6132363367612701e+00  -5.4795888970012072e+00  -5.3459414580152140e+00  -5.2122940198031777e+00  -5.0786465823651410e+00  -4.9449991457010647e+00  -4.8113517098109435e+00  -4.6777042746947561e+00  -4.5440568403525203e+00  -4.4104094067842290e+00  -4.2767619739898670e+00  -4.1431145419694246e+00  -4.0094671107228956e+00  -3.8758196802502427e+00  -3.7421722505514317e+00  -3.6085248216264278e+00  -3.4748773934750949e+00  -3.3412299660973170e+00  -3.2075825394927717e+00  -3.0739351136610393e+00  -2.9402876886009883e+00  -2.8066402643115875e+00  -2.6729928407874972e+00  -2.5393454180289079e+00  -2.4056979960035307e+00  -2.2720505747486430e+00  -2.1384031540307489e+00  -2.0047557343087958e+00  -1.8711083137812650e+00  -1.7374608966806260e+00  -1.6038134694338195e+00  -1.4701660650474007e+00  -1.3365185894115519e+00  -1.2028712625024010e+00  -1.0692235060551645e+00  -9.3557655642903137e-01  -8.0192730279884539e-01  -6.6828155580937976e-01  -5.3462410225018286e-01  -4.0098050318821377e-01  -2.6728789736206338e-01  -1.3365169225295109e-01  3.3802894819610640e-05  -1.0692068995611660e+01  -1.0558299115075506e+01  -1.0424603947087826e+01  -1.0290958188008300e+01  -1.0157324051850035e+01  -1.0023684896486328e+01  -9.8900378886202311e+00  -9.7563845864901850e+00  -9.6227275906645886e+00  -9.4890689652342441e+00  -9.3554098415796947e+00  -9.2217514054571890e+00  -9.0880952143618892e+00  -8.9544419814903460e+00  -8.8207912965169299e+00  -8.6871422673007874e+00  -8.5534941255264414e+00  -8.4198463923781937e+00  -8.2861988289298711e+00  -8.1525513305729831e+00  -8.0189038575996161e+00  -7.8852563950379082e+00  -7.7516089376983244e+00  -7.6179614832212028e+00  -7.4843140306664404e+00  -7.3506665794428088e+00  -7.2170191293116401e+00  -7.0833716801001136e+00  -6.9497242317486236e+00  -6.8160767842072580e+00  -6.6824293374626302e+00  -6.5487818915005853e+00  -6.4151344463183602e+00  -6.2814870019121631e+00  -6.1478395582813219e+00  -6.0141921154249633e+00  -5.8805446733428530e+00  -5.7468972320348435e+00  -5.6132497915008246e+00  -5.4796023517408159e+00  -5.3459549127547366e+00  -5.2123074745426470e+00  -5.0786600371044743e+00  -4.9450126004402497e+00  -4.8113651645499811e+00  -4.6777177294336738e+00  -4.5440702950912879e+00  -4.4104228615228562e+00  -4.2767754287283788e+00  -4.1431279967078449e+00  -4.0094805654612484e+00  -3.8758331349885968e+00  -3.7421857052898724e+00  -3.6085382763650631e+00  -3.4748908482141219e+00  -3.3412434208369595e+00  -3.2075959942334284e+00  -3.0739485684031278e+00  -2.9403011433454549e+00  -2.8066537190586183e+00  -2.6730062955406768e+00  -2.5393588727824983e+00  -2.4057114507813888e+00  -2.2720640294841021e+00  -2.1384166089261134e+00  -2.0047691887603212e+00  -1.8711217694920756e+00  -1.7374743487456183e+00  -1.6038269310229607e+00  -1.4701795002965696e+00  -1.3365320888156536e+00  -1.2028845942644013e+00  -1.0692372099688923e+00  -9.3558932644270509e-01  -8.0194190428163115e-01  -6.6829153431657828e-01  -5.3464237324149344e-01  -4.0097935145292246e-01  -2.6732292778980693e-01  -1.3364257266978385e-01  -2.2295347958287549e-05  -1.0692064270901291e+01  -1.0558265038590008e+01  -1.0424579082203282e+01  -1.0290942665391196e+01  -1.0157311804895025e+01  -1.0023673196035768e+01  -9.8900257219122540e+00  -9.7563718934087902e+00  -9.6227144046667057e+00  -9.4890555794667861e+00  -9.3553962097802437e+00  -9.2217374334729367e+00  -9.0880810925001576e+00  -8.9544279739700094e+00  -8.8207774901711957e+00  -8.6871286284485656e+00  -8.5534805851781162e+00  -8.4198329011607935e+00  -8.2861853580089395e+00  -8.1525378678355782e+00  -8.0188903976682582e+00  -7.8852429363795435e+00  -7.7515954795058137e+00  -7.6179480253517573e+00  -7.4843005729267018e+00  -7.3506531218145765e+00  -7.2170056717265618e+00  -7.0833582225560408e+00  -6.9497107742200708e+00  -6.8160633266944082e+00  -6.6824158799560722e+00  -6.5487684340002561e+00  -6.4151209888209539e+00  -6.2814735444173273e+00  -6.1478261007880057e+00  -6.0141786579327716e+00  -5.8805312158515148e+00  -5.7468837745440711e+00  -5.6132363340105673e+00  -5.4795888942508899e+00  -5.3459414552651801e+00  -5.2122940170533214e+00  -5.0786465796154294e+00  -4.9449991429514109e+00  -4.8113517070613812e+00  -4.6777042719452870e+00  -4.5440568376031329e+00  -4.4104094040349127e+00  -4.2767619712406875e+00  -4.1431145392204263e+00  -4.0094671079741397e+00  -3.8758196775018461e+00  -3.7421722478035861e+00  -3.6085248188793586e+00  -3.4748773907291790e+00  -3.3412299633530753e+00  -3.2075825367509871e+00  -3.0739351109228350e+00  -2.9402876858679989e+00  -2.8066402615861765e+00  -2.6729928380731303e+00  -2.5393454153305406e+00  -2.4056979933283018e+00  -2.2720505721068109e+00  -2.1384031514367883e+00  -2.0047557317834235e+00  -1.8711083113525973e+00  -1.7374608943899235e+00  -1.6038134673301829e+00  -1.4701660632148938e+00  -1.3365185879109676e+00  -1.2028712615271109e+00  -1.0692235055701702e+00  -9.3557655697154263e-01  -8.0192730375948618e-01  -6.6828155877117545e-01  -5.3462410430356999e-01  -4.0098050670427671e-01  -2.6728789064711644e-01  -1.3365166870126047e-01  3.3813266565312185e-05  -1.0692020150134299e+01  -1.0558161885736940e+01  -1.0424517339657958e+01  -1.0290910494523445e+01  -1.0157288778288097e+01  -1.0023651834494732e+01  -9.8900039753917799e+00  -9.7563493720228571e+00  -9.6226913265307843e+00  -9.4890322175751436e+00  -9.3553726290159123e+00  -9.2217137792656363e+00  -9.0880576249782301e+00  -8.9544048096942710e+00  -8.8207545829710661e+00  -8.6871058739795171e+00  -8.5534579015721253e+00  -8.4198102429663315e+00  -8.2861627066778816e+00  -8.1525152173667745e+00  -8.0188677469927292e+00  -7.8852202854907985e+00  -7.7515728285887349e+00  -7.6179253744593458e+00  -7.4842779220812199e+00  -7.3506304710033028e+00  -7.2169830209404235e+00  -7.0833355717863924e+00  -6.9496881234607137e+00  -6.8160406759425980e+00  -6.6823932292086701e+00  -6.5487457832566607e+00  -6.4150983380795559e+00  -6.2814508936780591e+00  -6.1478034500500502e+00  -6.0141560071962106e+00  -5.8805085651159281e+00  -5.7468611238095564e+00  -5.6132136832769035e+00  -5.4795662435180965e+00  -5.3459188045331594e+00  -5.2122713663221116e+00  -5.0786239288849400e+00  -4.9449764922217394e+00  -4.8113290563324069e+00  -4.6776816212170544e+00  -4.5440341868756464e+00  -4.4103867533082166e+00  -4.2767393205147295e+00  -4.1430918884952304e+00  -4.0094444572497308e+00  -3.8757970267782547e+00  -3.7421495970808212e+00  -3.6085021681574712e+00  -3.4748547400082406e+00  -3.3412073126331547e+00  -3.2075598860322314e+00  -3.0739124602051837e+00  -2.9402650351521138e+00  -2.8066176108701582e+00  -2.6729701873627105e+00  -2.5393227646052439e+00  -2.4056753426467514e+00  -2.2720279212714538e+00  -2.1383805010228043e+00  -2.0047330799878091e+00  -1.8710856633914130e+00  -1.7374382349454143e+00  -1.6037908392396618e+00  -1.4701433493165472e+00  -1.3364960972874269e+00  -1.2028482219390551e+00  -1.0692017959105256e+00  -9.3555202214102162e-01  -8.0190917308451981e-01  -6.6825240971329558e-01  -5.3462116209558663e-01  -4.0093695191714473e-01  -2.6735077415660380e-01  -1.3345086822253860e-01  -1.1230390448907092e-04  -1.0691957952318507e+01  -1.0557910681959399e+01  -1.0424493834820566e+01  -1.0290932092268529e+01  -1.0157321435508941e+01  -1.0023687197516573e+01  -9.8900402071128628e+00  -9.7563862725008121e+00  -9.6227288008968888e+00  -9.4890699726125494e+00  -9.3554111036093257e+00  -9.2217535139855187e+00  -9.0880983308885845e+00  -8.9544458356076024e+00  -8.8207955068582429e+00  -8.6871465817315823e+00  -8.5534984323968626e+00  -8.4198506671746358e+00  -8.2862030770736528e+00  -8.1525555636604743e+00  -8.0189080832832733e+00  -7.8852606177335476e+00  -7.7516131591834005e+00  -7.6179657043348037e+00  -7.4843182516388485e+00  -7.3506708004021268e+00  -7.2170233502690220e+00  -7.0833759010753559e+00  -6.9497284527348961e+00  -6.8160810052066525e+00  -6.6824335584707288e+00  -6.5487861125163880e+00  -6.4151386673398809e+00  -6.2814912229381914e+00  -6.1478437793111302e+00  -6.0141963364576725e+00  -5.8805488943782578e+00  -5.7469014530724563e+00  -5.6132540125405699e+00  -5.4796065727824308e+00  -5.3459591337981820e+00  -5.2123116955878057e+00  -5.0786642581513251e+00  -4.9450168214887240e+00  -4.8113693856001207e+00  -4.6777219504854122e+00  -4.5440745161446623e+00  -4.4104270825778702e+00  -4.2767796497850323e+00  -4.1431322177661674e+00  -4.0094847865212868e+00  -3.8758373560503885e+00  -3.7421899263535026e+00  -3.6085424974306255e+00  -3.4748950692817249e+00  -3.3412476419067674e+00  -3.2076002153054679e+00  -3.0739527894776031e+00  -2.9403053644210848e+00  -2.8066579401367036e+00  -2.6730105166087319e+00  -2.5393630938607856e+00  -2.4057156717598862e+00  -2.2720682506162579e+00  -2.1384208292181821e+00  -2.0047734108907802e+00  -1.8711259845441219e+00  -1.7374785818641074e+00  -1.6038311065420807e+00  -1.4701838280224597e+00  -1.3365359929661722e+00  -1.2028895784900742e+00  -1.0692396115891698e+00  -9.3559777548213063e-01  -8.0193905359397399e-01  -6.6831271342334408e-01  -5.3463999259342154e-01  -4.0103919589342890e-01  -2.6747216262915952e-01  -1.3343942699731604e-01  3.7508333264538797e-04  -1.0689396539736988e+01  -1.0557928139667970e+01  -1.0424532096603965e+01  -1.0290985132811231e+01  -1.0157374928086663e+01  -1.0023738759978855e+01  -9.8900898521906768e+00  -9.7564346836213556e+00  -9.6227765251743964e+00  -9.4891172837703142e+00  -9.3554583801366444e+00  -9.2218012701685925e+00  -9.0881467667446252e+00  -8.9544948188334370e+00  -8.8208448012149088e+00  -8.6871960136018362e+00  -8.5535479108460759e+00  -8.4199001574141459e+00  -8.2862525685832082e+00  -8.1526050548655249e+00  -8.0189575742156975e+00  -7.8853101086987163e+00  -7.7516626502151702e+00  -7.6180151954516200e+00  -7.4843677428013899e+00  -7.3507202915957812e+00  -7.2170728414782905e+00  -7.0834253922927974e+00  -6.9497779439576508e+00  -6.8161304964311045e+00  -6.6824830496973320e+00  -6.5488356037431714e+00  -6.4151881585676822e+00  -6.2815407141659376e+00  -6.1478932705394191e+00  -6.0142458276859534e+00  -5.8805983856068531e+00  -5.7469509443011022e+00  -5.6133035037694112e+00  -5.4796560640113565e+00  -5.3460086250272729e+00  -5.2123611868169828e+00  -5.0787137493806274e+00  -4.9450663127181356e+00  -4.8114188768296540e+00  -4.6777714417150591e+00  -4.5441240073744034e+00  -4.4104765738077258e+00  -4.2768291410149706e+00  -4.1431817089961909e+00  -4.0095342777513761e+00  -3.8758868472805266e+00  -3.7422394175836358e+00  -3.6085919886607103e+00  -3.4749445605116578e+00  -3.3412971331363490e+00  -3.2076497065345810e+00  -3.0740022807052818e+00  -2.9403548556480046e+00  -2.8067074313562674e+00  -2.6730600078344837e+00  -2.5394125850328595e+00  -2.4057651630446526e+00  -2.2721177414179854e+00  -2.1384703213437577e+00  -2.0048228983840590e+00  -1.8711754857123557e+00  -1.7375280392885832e+00  -1.6038806933555421e+00  -1.4702330260997434e+00  -1.3365863021450111e+00  -1.2029367632669434e+00  -1.0692951842142693e+00  -9.3563170778557780e-01  -8.0202590111869232e-01  -6.6827815199290630e-01  -5.3486878944927641e-01  -4.0074703695331521e-01  -2.6828225657860705e-01  -1.3244238927739244e-01  -1.3300926481463748e-03  -1.0624131019382018e+01  -1.0491117100451646e+01  -1.0357637205797907e+01  -1.0224054864451331e+01  -1.0090432499355186e+01  -9.9567916258749580e+00  -9.8231410418804064e+00  -9.6894853912344168e+00  -9.5558272866054832e+00  -9.4221685665665884e+00  -9.2885106628943763e+00  -9.1548546726544213e+00  -9.0212011009400825e+00  -8.8875497862683517e+00  -8.7539001530713350e+00  -8.6202515790661831e+00  -8.4866035893336758e+00  -8.3529558918438891e+00  -8.2193083298255107e+00  -8.0856608281616076e+00  -7.9520133529781765e+00  -7.8183658898673487e+00  -7.6847184325917928e+00  -7.5510709784869423e+00  -7.4174235263081529e+00  -7.2837760754856768e+00  -7.1501286257287102e+00  -7.0164811768976385e+00  -6.8828337289183734e+00  -6.7491862817541302e+00  -6.6155388353855828e+00  -6.4818913898024446e+00  -6.3482439449997301e+00  -6.2145965009743138e+00  -6.0809490577249621e+00  -5.9473016152505940e+00  -5.8136541735509457e+00  -5.6800067326255945e+00  -5.5463592924744844e+00  -5.4127118530974574e+00  -5.2790644144945045e+00  -5.1454169766655538e+00  -5.0117695396106043e+00  -4.8781221033296127e+00  -4.7444746678225878e+00  -4.6108272330895081e+00  -4.4771797991303863e+00  -4.3435323659451983e+00  -4.2098849335339388e+00  -4.0762375018965864e+00  -3.9425900710331296e+00  -3.8089426409435192e+00  -3.6752952116276991e+00  -3.5416477830855566e+00  -3.4080003553168776e+00  -3.2743529283212824e+00  -3.1407055020980401e+00  -3.0070580766458006e+00  -2.8734106519616951e+00  -2.7397632280409501e+00  -2.6061158048712638e+00  -2.4724683824376839e+00  -2.3388209606806645e+00  -2.2051735395780518e+00  -2.0715261187912311e+00  -1.9378786985666194e+00  -1.8042312766886597e+00  -1.67058385677321