<?xml version="1.0"?>
<VTKFile type="UnstructuredGrid"  version="0.1"  >
<UnstructuredGrid>
<Piece  NumberOfPoints="1369" NumberOfCells="2560">
<Points>
<DataArray  type="Float64"  NumberOfComponents="3"  format="ascii">0 0 0  0.75 0 0  1.5 0 0  2.25 0 0  3 0 0  3.75 0 0  4.5 0 0  5.25 0 0  6 0 0  6.75 0 0  7.5 0 0  8.25 0 0  9 0 0  9.75 0 0  10.5 0 0  11.25 0 0  12 0 0  12.75 0 0  13.5 0 0  14.25 0 0  15 0 0  15.75 0 0  16.5 0 0  17.25 0 0  18 0 0  18.75 0 0  19.5 0 0  20.25 0 0  21 0 0  21.75 0 0  22.5 0 0  23.25 0 0  24 0 0  24.75 0 0  25.5 0 0  26.25 0 0  27 0 0  27.75 0 0  28.5 0 0  29.25 0 0  30 0 0  30.75 0 0  31.5 0 0  32.25 0 0  33 0 0  33.75 0 0  34.5 0 0  35.25 0 0  36 0 0  36.75 0 0  37.5 0 0  38.25 0 0  39 0 0  39.75 0 0  40.5 0 0  41.25 0 0  42 0 0  42.75 0 0  43.5 0 0  44.25 0 0  45 0 0  45.75 0 0  46.5 0 0  47.25 0 0  48 0 0  48.75 0 0  49.5 0 0  50.25 0 0  51 0 0  51.75 0 0  52.5 0 0  53.25 0 0  54 0 0  54.75 0 0  55.5 0 0  56.25 0 0  57 0 0  57.75 0 0  58.5 0 0  59.25 0 0  60 0 0  0 0.5 0  0.75 0.5 0  1.5 0.5 0  2.25 0.5 0  3 0.5 0  3.75 0.5 0  4.5 0.5 0  5.25 0.5 0  6 0.5 0  6.75 0.5 0  7.5 0.5 0  8.25 0.5 0  9 0.5 0  9.75 0.5 0  10.5 0.5 0  11.25 0.5 0  12 0.5 0  12.75 0.5 0  13.5 0.5 0  14.25 0.5 0  15 0.5 0  15.75 0.5 0  16.5 0.5 0  17.25 0.5 0  18 0.5 0  18.75 0.5 0  19.5 0.5 0  20.25 0.5 0  21 0.5 0  21.75 0.5 0  22.5 0.5 0  23.25 0.5 0  24 0.5 0  24.75 0.5 0  25.5 0.5 0  26.25 0.5 0  27 0.5 0  27.75 0.5 0  28.5 0.5 0  29.25 0.5 0  30 0.5 0  30.75 0.5 0  31.5 0.5 0  32.25 0.5 0  33 0.5 0  33.75 0.5 0  34.5 0.5 0  35.25 0.5 0  36 0.5 0  36.75 0.5 0  37.5 0.5 0  38.25 0.5 0  39 0.5 0  39.75 0.5 0  40.5 0.5 0  41.25 0.5 0  42 0.5 0  42.75 0.5 0  43.5 0.5 0  44.25 0.5 0  45 0.5 0  45.75 0.5 0  46.5 0.5 0  47.25 0.5 0  48 0.5 0  48.75 0.5 0  49.5 0.5 0  50.25 0.5 0  51 0.5 0  51.75 0.5 0  52.5 0.5 0  53.25 0.5 0  54 0.5 0  54.75 0.5 0  55.5 0.5 0  56.25 0.5 0  57 0.5 0  57.75 0.5 0  58.5 0.5 0  59.25 0.5 0  60 0.5 0  0 1 0  0.75 1 0  1.5 1 0  2.25 1 0  3 1 0  3.75 1 0  4.5 1 0  5.25 1 0  6 1 0  6.75 1 0  7.5 1 0  8.25 1 0  9 1 0  9.75 1 0  10.5 1 0  11.25 1 0  12 1 0  12.75 1 0  13.5 1 0  14.25 1 0  15 1 0  15.75 1 0  16.5 1 0  17.25 1 0  18 1 0  18.75 1 0  19.5 1 0  20.25 1 0  21 1 0  21.75 1 0  22.5 1 0  23.25 1 0  24 1 0  24.75 1 0  25.5 1 0  26.25 1 0  27 1 0  27.75 1 0  28.5 1 0  29.25 1 0  30 1 0  30.75 1 0  31.5 1 0  32.25 1 0  33 1 0  33.75 1 0  34.5 1 0  35.25 1 0  36 1 0  36.75 1 0  37.5 1 0  38.25 1 0  39 1 0  39.75 1 0  40.5 1 0  41.25 1 0  42 1 0  42.75 1 0  43.5 1 0  44.25 1 0  45 1 0  45.75 1 0  46.5 1 0  47.25 1 0  48 1 0  48.75 1 0  49.5 1 0  50.25 1 0  51 1 0  51.75 1 0  52.5 1 0  53.25 1 0  54 1 0  54.75 1 0  55.5 1 0  56.25 1 0  57 1 0  57.75 1 0  58.5 1 0  59.25 1 0  60 1 0  0 1.5 0  0.75 1.5 0  1.5 1.5 0  2.25 1.5 0  3 1.5 0  3.75 1.5 0  4.5 1.5 0  5.25 1.5 0  6 1.5 0  6.75 1.5 0  7.5 1.5 0  8.25 1.5 0  9 1.5 0  9.75 1.5 0  10.5 1.5 0  11.25 1.5 0  12 1.5 0  12.75 1.5 0  13.5 1.5 0  14.25 1.5 0  15 1.5 0  15.75 1.5 0  16.5 1.5 0  17.25 1.5 0  18 1.5 0  18.75 1.5 0  19.5 1.5 0  20.25 1.5 0  21 1.5 0  21.75 1.5 0  22.5 1.5 0  23.25 1.5 0  24 1.5 0  24.75 1.5 0  25.5 1.5 0  26.25 1.5 0  27 1.5 0  27.75 1.5 0  28.5 1.5 0  29.25 1.5 0  30 1.5 0  30.75 1.5 0  31.5 1.5 0  32.25 1.5 0  33 1.5 0  33.75 1.5 0  34.5 1.5 0  35.25 1.5 0  36 1.5 0  36.75 1.5 0  37.5 1.5 0  38.25 1.5 0  39 1.5 0  39.75 1.5 0  40.5 1.5 0  41.25 1.5 0  42 1.5 0  42.75 1.5 0  43.5 1.5 0  44.25 1.5 0  45 1.5 0  45.75 1.5 0  46.5 1.5 0  47.25 1.5 0  48 1.5 0  48.75 1.5 0  49.5 1.5 0  50.25 1.5 0  51 1.5 0  51.75 1.5 0  52.5 1.5 0  53.25 1.5 0  54 1.5 0  54.75 1.5 0  55.5 1.5 0  56.25 1.5 0  57 1.5 0  57.75 1.5 0  58.5 1.5 0  59.25 1.5 0  60 1.5 0  0 2 0  0.75 2 0  1.5 2 0  2.25 2 0  3 2 0  3.75 2 0  4.5 2 0  5.25 2 0  6 2 0  6.75 2 0  7.5 2 0  8.25 2 0  9 2 0  9.75 2 0  10.5 2 0  11.25 2 0  12 2 0  12.75 2 0  13.5 2 0  14.25 2 0  15 2 0  15.75 2 0  16.5 2 0  17.25 2 0  18 2 0  18.75 2 0  19.5 2 0  20.25 2 0  21 2 0  21.75 2 0  22.5 2 0  23.25 2 0  24 2 0  24.75 2 0  25.5 2 0  26.25 2 0  27 2 0  27.75 2 0  28.5 2 0  29.25 2 0  30 2 0  30.75 2 0  31.5 2 0  32.25 2 0  33 2 0  33.75 2 0  34.5 2 0  35.25 2 0  36 2 0  36.75 2 0  37.5 2 0  38.25 2 0  39 2 0  39.75 2 0  40.5 2 0  41.25 2 0  42 2 0  42.75 2 0  43.5 2 0  44.25 2 0  45 2 0  45.75 2 0  46.5 2 0  47.25 2 0  48 2 0  48.75 2 0  49.5 2 0  50.25 2 0  51 2 0  51.75 2 0  52.5 2 0  53.25 2 0  54 2 0  54.75 2 0  55.5 2 0  56.25 2 0  57 2 0  57.75 2 0  58.5 2 0  59.25 2 0  60 2 0  0 2.5 0  0.75 2.5 0  1.5 2.5 0  2.25 2.5 0  3 2.5 0  3.75 2.5 0  4.5 2.5 0  5.25 2.5 0  6 2.5 0  6.75 2.5 0  7.5 2.5 0  8.25 2.5 0  9 2.5 0  9.75 2.5 0  10.5 2.5 0  11.25 2.5 0  12 2.5 0  12.75 2.5 0  13.5 2.5 0  14.25 2.5 0  15 2.5 0  15.75 2.5 0  16.5 2.5 0  17.25 2.5 0  18 2.5 0  18.75 2.5 0  19.5 2.5 0  20.25 2.5 0  21 2.5 0  21.75 2.5 0  22.5 2.5 0  23.25 2.5 0  24 2.5 0  24.75 2.5 0  25.5 2.5 0  26.25 2.5 0  27 2.5 0  27.75 2.5 0  28.5 2.5 0  29.25 2.5 0  30 2.5 0  30.75 2.5 0  31.5 2.5 0  32.25 2.5 0  33 2.5 0  33.75 2.5 0  34.5 2.5 0  35.25 2.5 0  36 2.5 0  36.75 2.5 0  37.5 2.5 0  38.25 2.5 0  39 2.5 0  39.75 2.5 0  40.5 2.5 0  41.25 2.5 0  42 2.5 0  42.75 2.5 0  43.5 2.5 0  44.25 2.5 0  45 2.5 0  45.75 2.5 0  46.5 2.5 0  47.25 2.5 0  48 2.5 0  48.75 2.5 0  49.5 2.5 0  50.25 2.5 0  51 2.5 0  51.75 2.5 0  52.5 2.5 0  53.25 2.5 0  54 2.5 0  54.75 2.5 0  55.5 2.5 0  56.25 2.5 0  57 2.5 0  57.75 2.5 0  58.5 2.5 0  59.25 2.5 0  60 2.5 0  0 3 0  0.75 3 0  1.5 3 0  2.25 3 0  3 3 0  3.75 3 0  4.5 3 0  5.25 3 0  6 3 0  6.75 3 0  7.5 3 0  8.25 3 0  9 3 0  9.75 3 0  10.5 3 0  11.25 3 0  12 3 0  12.75 3 0  13.5 3 0  14.25 3 0  15 3 0  15.75 3 0  16.5 3 0  17.25 3 0  18 3 0  18.75 3 0  19.5 3 0  20.25 3 0  21 3 0  21.75 3 0  22.5 3 0  23.25 3 0  24 3 0  24.75 3 0  25.5 3 0  26.25 3 0  27 3 0  27.75 3 0  28.5 3 0  29.25 3 0  30 3 0  30.75 3 0  31.5 3 0  32.25 3 0  33 3 0  33.75 3 0  34.5 3 0  35.25 3 0  36 3 0  36.75 3 0  37.5 3 0  38.25 3 0  39 3 0  39.75 3 0  40.5 3 0  41.25 3 0  42 3 0  42.75 3 0  43.5 3 0  44.25 3 0  45 3 0  45.75 3 0  46.5 3 0  47.25 3 0  48 3 0  48.75 3 0  49.5 3 0  50.25 3 0  51 3 0  51.75 3 0  52.5 3 0  53.25 3 0  54 3 0  54.75 3 0  55.5 3 0  56.25 3 0  57 3 0  57.75 3 0  58.5 3 0  59.25 3 0  60 3 0  0 3.5 0  0.75 3.5 0  1.5 3.5 0  2.25 3.5 0  3 3.5 0  3.75 3.5 0  4.5 3.5 0  5.25 3.5 0  6 3.5 0  6.75 3.5 0  7.5 3.5 0  8.25 3.5 0  9 3.5 0  9.75 3.5 0  10.5 3.5 0  11.25 3.5 0  12 3.5 0  12.75 3.5 0  13.5 3.5 0  14.25 3.5 0  15 3.5 0  15.75 3.5 0  16.5 3.5 0  17.25 3.5 0  18 3.5 0  18.75 3.5 0  19.5 3.5 0  20.25 3.5 0  21 3.5 0  21.75 3.5 0  22.5 3.5 0  23.25 3.5 0  24 3.5 0  24.75 3.5 0  25.5 3.5 0  26.25 3.5 0  27 3.5 0  27.75 3.5 0  28.5 3.5 0  29.25 3.5 0  30 3.5 0  30.75 3.5 0  31.5 3.5 0  32.25 3.5 0  33 3.5 0  33.75 3.5 0  34.5 3.5 0  35.25 3.5 0  36 3.5 0  36.75 3.5 0  37.5 3.5 0  38.25 3.5 0  39 3.5 0  39.75 3.5 0  40.5 3.5 0  41.25 3.5 0  42 3.5 0  42.75 3.5 0  43.5 3.5 0  44.25 3.5 0  45 3.5 0  45.75 3.5 0  46.5 3.5 0  47.25 3.5 0  48 3.5 0  48.75 3.5 0  49.5 3.5 0  50.25 3.5 0  51 3.5 0  51.75 3.5 0  52.5 3.5 0  53.25 3.5 0  54 3.5 0  54.75 3.5 0  55.5 3.5 0  56.25 3.5 0  57 3.5 0  57.75 3.5 0  58.5 3.5 0  59.25 3.5 0  60 3.5 0  0 4 0  0.75 4 0  1.5 4 0  2.25 4 0  3 4 0  3.75 4 0  4.5 4 0  5.25 4 0  6 4 0  6.75 4 0  7.5 4 0  8.25 4 0  9 4 0  9.75 4 0  10.5 4 0  11.25 4 0  12 4 0  12.75 4 0  13.5 4 0  14.25 4 0  15 4 0  15.75 4 0  16.5 4 0  17.25 4 0  18 4 0  18.75 4 0  19.5 4 0  20.25 4 0  21 4 0  21.75 4 0  22.5 4 0  23.25 4 0  24 4 0  24.75 4 0  25.5 4 0  26.25 4 0  27 4 0  27.75 4 0  28.5 4 0  29.25 4 0  30 4 0  30.75 4 0  31.5 4 0  32.25 4 0  33 4 0  33.75 4 0  34.5 4 0  35.25 4 0  36 4 0  36.75 4 0  37.5 4 0  38.25 4 0  39 4 0  39.75 4 0  40.5 4 0  41.25 4 0  42 4 0  42.75 4 0  43.5 4 0  44.25 4 0  45 4 0  45.75 4 0  46.5 4 0  47.25 4 0  48 4 0  48.75 4 0  49.5 4 0  50.25 4 0  51 4 0  51.75 4 0  52.5 4 0  53.25 4 0  54 4 0  54.75 4 0  55.5 4 0  56.25 4 0  57 4 0  57.75 4 0  58.5 4 0  59.25 4 0  60 4 0  0.375 0.25 0  1.125 0.25 0  1.875 0.25 0  2.625 0.25 0  3.375 0.25 0  4.125 0.25 0  4.875 0.25 0  5.625 0.25 0  6.375 0.25 0  7.125 0.25 0  7.875 0.25 0  8.625 0.25 0  9.375 0.25 0  10.125 0.25 0  10.875 0.25 0  11.625 0.25 0  12.375 0.25 0  13.125 0.25 0  13.875 0.25 0  14.625 0.25 0  15.375 0.25 0  16.125 0.25 0  16.875 0.25 0  17.625 0.25 0  18.375 0.25 0  19.125 0.25 0  19.875 0.25 0  20.625 0.25 0  21.375 0.25 0  22.125 0.25 0  22.875 0.25 0  23.625 0.25 0  24.375 0.25 0  25.125 0.25 0  25.875 0.25 0  26.625 0.25 0  27.375 0.25 0  28.125 0.25 0  28.875 0.25 0  29.625 0.25 0  30.375 0.25 0  31.125 0.25 0  31.875 0.25 0  32.625 0.25 0  33.375 0.25 0  34.125 0.25 0  34.875 0.25 0  35.625 0.25 0  36.375 0.25 0  37.125 0.25 0  37.875 0.25 0  38.625 0.25 0  39.375 0.25 0  40.125 0.25 0  40.875 0.25 0  41.625 0.25 0  42.375 0.25 0  43.125 0.25 0  43.875 0.25 0  44.625 0.25 0  45.375 0.25 0  46.125 0.25 0  46.875 0.25 0  47.625 0.25 0  48.375 0.25 0  49.125 0.25 0  49.875 0.25 0  50.625 0.25 0  51.375 0.25 0  52.125 0.25 0  52.875 0.25 0  53.625 0.25 0  54.375 0.25 0  55.125 0.25 0  55.875 0.25 0  56.625 0.25 0  57.375 0.25 0  58.125 0.25 0  58.875 0.25 0  59.625 0.25 0  0.375 0.75 0  1.125 0.75 0  1.875 0.75 0  2.625 0.75 0  3.375 0.75 0  4.125 0.75 0  4.875 0.75 0  5.625 0.75 0  6.375 0.75 0  7.125 0.75 0  7.875 0.75 0  8.625 0.75 0  9.375 0.75 0  10.125 0.75 0  10.875 0.75 0  11.625 0.75 0  12.375 0.75 0  13.125 0.75 0  13.875 0.75 0  14.625 0.75 0  15.375 0.75 0  16.125 0.75 0  16.875 0.75 0  17.625 0.75 0  18.375 0.75 0  19.125 0.75 0  19.875 0.75 0  20.625 0.75 0  21.375 0.75 0  22.125 0.75 0  22.875 0.75 0  23.625 0.75 0  24.375 0.75 0  25.125 0.75 0  25.875 0.75 0  26.625 0.75 0  27.375 0.75 0  28.125 0.75 0  28.875 0.75 0  29.625 0.75 0  30.375 0.75 0  31.125 0.75 0  31.875 0.75 0  32.625 0.75 0  33.375 0.75 0  34.125 0.75 0  34.875 0.75 0  35.625 0.75 0  36.375 0.75 0  37.125 0.75 0  37.875 0.75 0  38.625 0.75 0  39.375 0.75 0  40.125 0.75 0  40
[...]
<PointData  Scalars="f_8-1"> 
<DataArray  type="Float64"  Name="f_8-1"  format="ascii">-1.8754641249179356e+00  -1.8549871934361601e+00  -1.8296791224162627e+00  -1.8069636688447464e+00  -1.7832610331678327e+00  -1.7599190926317607e+00  -1.7363641881822509e+00  -1.7128910413910319e+00  -1.6893888283236540e+00  -1.6659142869090759e+00  -1.6424496120422196e+00  -1.6189876696164263e+00  -1.5955319945163047e+00  -1.5720719961700562e+00  -1.5486157882192926e+00  -1.5251565250758596e+00  -1.5016995008210925e+00  -1.4782409361557498e+00  -1.4547834757820610e+00  -1.4313253161029875e+00  -1.4078676407099584e+00  -1.3844096688285672e+00  -1.3609518957363635e+00  -1.3374940034945624e+00  -1.3140361894189434e+00  -1.2905783295783397e+00  -1.2671204994773424e+00  -1.2436626525496459e+00  -1.2202048166586652e+00  -1.1967469748904846e+00  -1.1732891371814571e+00  -1.1498312975818314e+00  -1.1263734595209980e+00  -1.1029156209678281e+00  -1.0794577830695555e+00  -1.0559999451516053e+00  -1.0325421075866279e+00  -1.0090842701560294e+00  -9.8562643297741936e-01  -9.6216859598130700e-01  -9.3871075920367530e-01  -9.1525292262271407e-01  -8.9179508624900328e-01  -8.6833725007569595e-01  -8.4487941410567313e-01  -8.2142157833657736e-01  -7.9796374276886195e-01  -7.7450590740148573e-01  -7.5104807223424574e-01  -7.2759023726652217e-01  -7.0413240249791220e-01  -6.8067456792784076e-01  -6.5721673355576560e-01  -6.3375889938134644e-01  -6.1030106540402107e-01  -5.8684323162380458e-01  -5.6338539803965704e-01  -5.3992756465187541e-01  -5.1646973145767794e-01  -4.9301189845774124e-01  -4.6955406564410102e-01  -4.4609623301362172e-01  -4.2263840053354584e-01  -3.9918056815793157e-01  -3.7572273571094267e-01  -3.5226490284275780e-01  -3.2880706856475034e-01  -3.0534923074072057e-01  -2.8189138418105869e-01  -2.5843351793664049e-01  -2.3497560839021192e-01  -2.1151761001452338e-01  -1.8805944194549376e-01  -1.6460099960864286e-01  -1.4114223048318109e-01  -1.1768340141175231e-01  -9.4226177123654484e-02  -7.0776855481626183e-02  -4.7356556729043840e-02  -2.3975231101724122e-02  -2.2465600371231855e-03  -1.8775875808317584e+00  -1.8540138825656518e+00  -1.8301681295868950e+00  -1.8067610980865614e+00  -1.7833821335327888e+00  -1.7598814680780184e+00  -1.7364106867997282e+00  -1.7129005559716644e+00  -1.6894161420813423e+00  -1.6659348380244012e+00  -1.6424699152265652e+00  -1.6190091947681351e+00  -1.5955509160900900e+00  -1.5720932116386177e+00  -1.5486349302930769e+00  -1.5251772623246607e+00  -1.5017190172201016e+00  -1.4782613223498791e+00  -1.4548032415853205e+00  -1.4313455051039448e+00  -1.4078875389279613e+00  -1.3844297605395945e+00  -1.3609718575866987e+00  -1.3375140502315137e+00  -1.3140561802754545e+00  -1.2905983563308416e+00  -1.2671405030494900e+00  -1.2436826707302704e+00  -1.2202248255900199e+00  -1.1967669895329491e+00  -1.1733091482776414e+00  -1.1498513108224773e+00  -1.1263934714538955e+00  -1.1029356336750771e+00  -1.0794777953116634e+00  -1.0560199576628797e+00  -1.0325621199373836e+00  -1.0091042825965753e+00  -9.8564644536342239e-01  -9.6218860839543585e-01  -9.3873077159878104e-01  -9.1527293502528373e-01  -8.9181509864399233e-01  -8.6835726247135026e-01  -8.4489942649731342e-01  -8.2144159072675205e-01  -7.9798375515621889e-01  -7.7452591978686192e-01  -7.5106808461736063e-01  -7.2761024964776333e-01  -7.0415241487733571e-01  -6.8069458030577323e-01  -6.5723674593231185e-01  -6.3377891175682177e-01  -6.1032107777842826e-01  -5.8686324399753542e-01  -5.6340541041246939e-01  -5.3994757702443896e-01  -5.1648974382957336e-01  -4.9303191083044823e-01  -4.6957407801835743e-01  -4.4611624539511435e-01  -4.2265841293395834e-01  -3.9920058060785141e-01  -3.7574274828701759e-01  -3.5228491571678922e-01  -3.2882708215277556e-01  -3.0536924593813575e-01  -2.8191140300115564e-01  -2.5845354446673902e-01  -2.3499565111098764e-01  -2.1153768409900695e-01  -1.8807957138045148e-01  -1.6462121168602850e-01  -1.4116253751413729e-01  -1.1770370077629487e-01  -9.4245883897163693e-02  -7.0794217138369336e-02  -4.7361928002958166e-02  -2.4026639483888432e-02  -2.3302052679752340e-05  -1.8770434356351386e+00  -1.8539883755199118e+00  -1.8302021316797619e+00  -1.8068186264085586e+00  -1.7833324883422614e+00  -1.7598886581428128e+00  -1.7363865832847833e+00  -1.7129038599397810e+00  -1.6894121618220497e+00  -1.6659379600403899e+00  -1.6424686768983128e+00  -1.6190070579751843e+00  -1.5955476996910278e+00  -1.5720888205739529e+00  -1.5486311570184617e+00  -1.5251725232221498e+00  -1.5017150521326190e+00  -1.4782566448897356e+00  -1.4547991176380979e+00  -1.4313409297986401e+00  -1.4078832983742349e+00  -1.3844252631366423e+00  -1.3609675443197293e+00  -1.3375096020325565e+00  -1.3140518258731126e+00  -1.2905939359099758e+00  -1.2671361271095491e+00  -1.2436782646024416e+00  -1.2202204391808609e+00  -1.1967625901712489e+00  -1.1733047571304245e+00  -1.1498469144327010e+00  -1.1263890782995123e+00  -1.1029312385071517e+00  -1.0794734013561413e+00  -1.0560155629692773e+00  -1.0325577256785570e+00  -1.0090998880779933e+00  -9.8564205099458413e-01  -9.6218421393804499e-01  -9.3872637719066676e-01  -9.1526854058719831e-01  -8.9181070422071962e-01  -8.6835286803711953e-01  -8.4489503206610184e-01  -8.2143719629025114e-01  -7.9797936071860009e-01  -7.7452152534549956e-01  -7.5106369017345609e-01  -7.2760585520054677e-01  -7.0414802042726554e-01  -6.8069018585277119e-01  -6.5723235147683368e-01  -6.3377451729905443e-01  -6.1031668331893141e-01  -5.8685884953635037e-01  -5.6340101595006098e-01  -5.3994318255967222e-01  -5.1648534936128021e-01  -4.9302751635161501e-01  -4.6956968351635958e-01  -4.4611185083408150e-01  -4.2265401824143917e-01  -3.9919618561493486e-01  -3.7573835264873839e-01  -3.5228051870033283e-01  -3.2882268231168027e-01  -3.0536484043131251e-01  -2.8190698660558688e-01  -2.5844910793606674e-01  -2.3499117912767356e-01  -2.1153315292066935e-01  -1.8807494605701511e-01  -1.6461643060957257e-01  -1.4115744386055010e-01  -1.1769779672629212e-01  -9.4237345639625214e-02  -7.0776233981922440e-02  -4.7313076502904478e-02  -2.3798014424416505e-02  -1.9621869806267970e-05  -1.8773643982492534e+00  -1.8536887337778489e+00  -1.8303414886326914e+00  -1.8067197058378048e+00  -1.7833433677811770e+00  -1.7598196117267459e+00  -1.7363684235047507e+00  -1.7128661787417803e+00  -1.6893913787486357e+00  -1.6659106899811722e+00  -1.6424421964290639e+00  -1.6189783443793997e+00  -1.5955166846408706e+00  -1.5720586416342428e+00  -1.5485989576661017e+00  -1.5251418676658675e+00  -1.5016828599513472e+00  -1.4782256803059031e+00  -1.4547671268566229e+00  -1.4313097219903259e+00  -1.4078514810455809e+00  -1.3843938923339312e+00  -1.3609358420983728e+00  -1.3374781346486191e+00  -1.3140201909957498e+00  -1.2905624160668909e+00  -1.2671045281148956e+00  -1.2436467183314017e+00  -1.2201888578040898e+00  -1.1967310315001880e+00  -1.1732731837841941e+00  -1.1498153503201900e+00  -1.1263575083763653e+00  -1.1028996721495739e+00  -1.0794418328081352e+00  -1.0559839957362132e+00  -1.0325261576556017e+00  -1.0090683205207549e+00  -9.8561048316356892e-01  -9.6215264626605135e-01  -9.3869480942678996e-01  -9.1523697287544170e-01  -8.9177913647836848e-01  -8.6832130031040700e-01  -8.4486346432823323e-01  -8.2140562855541577e-01  -7.9794779297816154e-01  -7.7448995760360251e-01  -7.5103212242734496e-01  -7.2757428745139430e-01  -7.0411645267428591e-01  -6.8065861809645112e-01  -6.5720078371728985e-01  -6.3374294953677834e-01  -6.1028511555451626e-01  -5.8682728177013144e-01  -5.6336944818269841e-01  -5.3991161479040595e-01  -5.1645378158914235e-01  -4.9299594856983336e-01  -4.6953811571183596e-01  -4.4608028296885016e-01  -4.2262245023700284e-01  -3.9916461728618829e-01  -3.7570678361386906e-01  -3.5224894814041346e-01  -3.2879110859847610e-01  -3.0533326034043456e-01  -2.8187539414544571e-01  -2.5841749232464889e-01  -2.3495952211831225e-01  -2.1150142505455038e-01  -1.8804310202624228e-01  -1.6458439060990612e-01  -1.4112500718493834e-01  -1.1766437770414789e-01  -9.4201103349053836e-02  -7.0730804093314822e-02  -4.7238342128173287e-02  -2.3678701575745444e-02  -1.6040361337608037e-05  -1.8770922118821762e+00  -1.8538532969357062e+00  -1.8301917070428804e+00  -1.8068209161622504e+00  -1.7832692711815137e+00  -1.7598491252585502e+00  -1.7363384781522502e+00  -1.7128710591474865e+00  -1.6893807063182382e+00  -1.6659072087318341e+00  -1.6424364625313439e+00  -1.6189711533702607e+00  -1.5955112227417501e+00  -1.5720503478955330e+00  -1.5485931762786975e+00  -1.5251336492568317e+00  -1.5016766842921010e+00  -1.4782177996695554e+00  -1.4547605899537264e+00  -1.4313021410801468e+00  -1.4078446828191644e+00  -1.3843865142567340e+00  -1.3609288821206018e+00  -1.3374708763981831e+00  -1.3140131407933340e+00  -1.2905552222940777e+00  -1.2670974314667849e+00  -1.2436395566881870e+00  -1.2201817388757283e+00  -1.1967238847967803e+00  -1.1732660548455409e+00  -1.1498082101341134e+00  -1.1263503752067043e+00  -1.1028925346457468e+00  -1.0794346979484950e+00  -1.0559768592803995e+00  -1.0325190221552609e+00  -1.0090611844562476e+00  -9.8560334743156897e-01  -9.6214551034170692e-01  -9.3868767361403360e-01  -9.1522983699871219e-01  -8.9177200063724593e-01  -8.6831416444764353e-01  -8.4485632847531078e-01  -8.2139849269397891e-01  -7.9794065711776796e-01  -7.7448282173843086e-01  -7.5102498656020056e-01  -7.2756715158050800e-01  -7.0410931680058109e-01  -6.8065148221959226e-01  -6.5719364783786538e-01  -6.3373581365507314e-01  -6.1027797967116426e-01  -5.8682014588570675e-01  -5.6336231229792688e-01  -5.3990447890589854e-01  -5.1644664570524179e-01  -4.9298881268566946e-01  -4.6953097982377900e-01  -4.4607314706618112e-01  -4.2261531429374166e-01  -3.9915748124249456e-01  -3.7569964733995337e-01  -3.5224181136315885e-01  -3.2878397076491639e-01  -3.0532612037480639e-01  -2.8186825004874916e-01  -2.5841034053998257e-01  -2.3495235663676259e-01  -2.1149423638000414e-01  -1.8803587496974228e-01  -1.6457709497649661e-01  -1.4111756567046005e-01  -1.1765656301930467e-01  -9.4192138736008471e-02  -7.0718139733082011e-02  -4.7216255710016017e-02  -2.3650136649648896e-02  -8.1350059504756393e-06  -1.8773644305761452e+00  -1.8536886780843320e+00  -1.8303414710320582e+00  -1.8067196659998279e+00  -1.7833433788116126e+00  -1.7598196152523486e+00  -1.7363684422719128e+00  -1.7128661850321207e+00  -1.6893913839235297e+00  -1.6659106862863911e+00  -1.6424421922935408e+00  -1.6189783381998524e+00  -1.5955166800960496e+00  -1.5720586375009282e+00  -1.5485989549783792e+00  -1.5251418655876241e+00  -1.5016828587004021e+00  -1.4782256794468371e+00  -1.4547671264104829e+00  -1.4313097217577135e+00  -1.4078514810129126e+00  -1.3843938924146708e+00  -1.3609358422759459e+00  -1.3374781348868110e+00  -1.3140201912816689e+00  -1.2905624163863276e+00  -1.2671045284596594e+00  -1.2436467186961306e+00  -1.2201888581840927e+00  -1.1967310318932796e+00  -1.1732731841878237e+00  -1.1498153507333029e+00  -1.1263575087975761e+00  -1.1028996725782303e+00  -1.0794418332433791e+00  -1.0559839961774022e+00  -1.0325261581019183e+00  -1.0090683209713722e+00  -9.8561048361752379e-01  -9.6215264672235667e-01  -9.3869480988439680e-01  -9.1523697333328347e-01  -8.9177913693535726e-01  -8.6832130076545111e-01  -8.4486346478027041e-01  -8.2140562900348590e-01  -7.9794779342141609e-01  -7.7448995804139653e-01  -7.5103212285919418e-01  -7.2757428787707479e-01  -7.0411645309380633e-01  -6.8065861851014087e-01  -6.5720078412578087e-01  -6.3374294994097491e-01  -6.1028511595558088e-01  -5.8682728216951496e-01  -5.6336944858221760e-01  -5.3991161519240005e-01  -5.1645378199662328e-01  -4.9299594898670918e-01  -4.6953811614316676e-01  -4.4608028342114409e-01  -4.2262245071869564e-01  -3.9916461780821461e-01  -3.7570678419040604e-01  -3.5224894878972079e-01  -3.2879110934393058e-01  -3.0533326121184995e-01  -2.8187539518105709e-01  -2.5841749357415389e-01  -2.3495952364866735e-01  -2.1150142696639720e-01  -1.8804310451120013e-01  -1.6458439413443182e-01  -1.4112501297025581e-01  -1.1766438863087068e-01  -9.4201124945268194e-02  -7.0730844882680124e-02  -4.7238409041758363e-02  -2.3678772237513405e-02  -1.6047691121352839e-05  -1.8770433561301374e+00  -1.8539883586632555e+00  -1.8302020016910339e+00  -1.8068186089997522e+00  -1.7833324800170343e+00  -1.7598886990849227e+00  -1.7363866120614229e+00  -1.7129038918462214e+00  -1.6894121686178576e+00  -1.6659379597509272e+00  -1.6424686667620514e+00  -1.6190070497594620e+00  -1.5955476915780835e+00  -1.5720888160305968e+00  -1.5486311541061621e+00  -1.5251725226445765e+00  -1.5017150527142595e+00  -1.4782566466799243e+00  -1.4547991200606225e+00  -1.4313409328067179e+00  -1.4078833017154289e+00  -1.3844252667622088e+00  -1.3609675481214576e+00  -1.3375096059729845e+00  -1.3140518299073249e+00  -1.2905939400148809e+00  -1.2671361312674150e+00  -1.2436782688006045e+00  -1.2202204434120174e+00  -1.1967625944286622e+00  -1.1733047614106937e+00  -1.1498469187323048e+00  -1.1263890826166247e+00  -1.1029312428398268e+00  -1.0794734057031614e+00  -1.0560155673291916e+00  -1.0325577300499538e+00  -1.0090998924591257e+00  -9.8564205538354288e-01  -9.6218421833275658e-01  -9.3872638158895993e-01  -9.1526854498685095e-01  -8.9181070861947087e-01  -8.6835287243266079e-01  -8.4489503645613806e-01  -8.2143720067262205e-01  -7.9797936509143730e-01  -7.7452152970729649e-01  -7.5106369452312383e-01  -7.2760585953745027e-01  -7.0414802475126625e-01  -6.8069019016439725e-01  -6.5723235577731121e-01  -6.3377452159026570e-01  -6.1031668760330082e-01  -5.8685885381687497e-01  -5.6340102023046135e-01  -5.3994318684471465e-01  -5.1648535365718951e-01  -4.9302752066656569e-01  -4.6956968786097097e-01  -4.4611185522207886e-01  -4.2265402269058694e-01  -3.9919619014830388e-01  -3.7573835729634508e-01  -3.5228052350098799e-01  -3.2882268731519637e-01  -3.0536484570102584e-01  -2.8190699222189075e-01  -2.5844911400198406e-01  -2.3499118578031017e-01  -2.1153316036151845e-01  -1.8807495464323884e-01  -1.6461644112655668e-01  -1.4115745825548692e-01  -1.1769781976268125e-01  -9.4237387697720068e-02  -7.0776313910849556e-02  -4.7313220792293838e-02  -2.3798201001856808e-02  -1.9648736899524679e-05  -1.8775877369534304e+00  -1.8540137401591088e+00  -1.8301680142976424e+00  -1.8067610517263624e+00  -1.7833821908017118e+00  -1.7598815388263522e+00  -1.7364107737613987e+00  -1.7129006208865267e+00  -1.6894161846793250e+00  -1.6659348617276413e+00  -1.6424699321903804e+00  -1.6190092115274402e+00  -1.5955509358428395e+00  -1.5720932349452248e+00  -1.5486349568546482e+00  -1.5251772914571786e+00  -1.5017190482912217e+00  -1.4782613548074588e+00  -1.4548032750273490e+00  -1.4313455392428354e+00  -1.4078875735596801e+00  -1.3844297955240970e+00  -1.3609718928198531e+00  -1.3375140856441621e+00  -1.3140562158155829e+00  -1.2905983919662343e+00  -1.2671405387554695e+00  -1.2436827064921274e+00  -1.2202248613958309e+00  -1.1967670253755081e+00  -1.1733091841509238e+00  -1.1498513467227056e+00  -1.1263935073778146e+00  -1.1029356696204378e+00  -1.0794778312763909e+00  -1.0560199936450723e+00  -1.0325621559348279e+00  -1.0091043186068032e+00  -9.8564648138364175e-01  -9.6218864442271579e-01  -9.3873080763003169e-01  -9.1527297105740035e-01  -8.9181513467380757e-01  -8.6835729849567000e-01  -8.4489946251297821e-01  -8.2144162673081444e-01  -7.9798379114618578e-01  -7.7452595576076000e-01  -7.5106812057377537e-01  -7.2761028558594076e-01  -7.0415245079719835e-01  -6.8069461620817395e-01  -6.5723678181904466e-01  -6.3377894763054354e-01  -6.1032111364248887e-01  -5.8686327985602316e-01  -5.6340544627037215e-01  -5.3994761288812587e-01  -5.1648977970733745e-01  -4.9303194673310302e-01  -4.6957411395985732e-01  -4.4611628139340848e-01  -4.2265844901219513e-01  -3.9920061679601604e-01  -3.7574278462402549e-01  -3.5228495225291290e-01  -3.2882711895229766e-01  -3.0536928308250261e-01  -2.8191144059299145e-01  -2.5845358263597840e-01  -2.3499569002608234e-01  -2.1153772399748982e-01  -1.8807961267176132e-01  -1.6462125529509197e-01  -1.4116258586863123e-01  -1.1770376011271910e-01  -9.4245968283298981e-02  -7.0794353952051192e-02  -4.7362168162902236e-02  -2.4027117496334332e-02  -2.3305225710079046e-05  -1.8754643552728811e+00  -1.8549871034695156e+00  -1.8296789907076749e+00  -1.8069636475596071e+00  -1.7832611217676468e+00  -1.7599191872531539e+00  -1.7363643005271461e+00  -1.7128911244783509e+00  -1.6893888905050145e+00  -1.6659143296717660e+00  -1.6424496494484830e+00  -1.6189877071412873e+00  -1.5955320356633842e+00  -1.5720720411387696e+00  -1.5486158368017116e+00  -1.5251565763441508e+00  -1.5016995542261529e+00  -1.4782409910022976e+00  -1.4547835317118902e+00  -1.4313253727637389e+00  -1.4078676979101987e+00  -1.3844097264021882e+00  -1.3609519535820367e+00  -1.3374940615319764e+00  -1.3140362475972818e+00  -1.2905783878596770e+00  -1.2671205578377593e+00  -1.2436627109712119e+00  -1.2202048751297871e+00  -1.1967470334021166e+00  -1.1732891957275249e+00  -1.1498313561574254e+00  -1.1263735181225416e+00  -1.1029156795922657e+00  -1.0794578417142984e+00  -1.0560000038139987e+00  -1.0325421662638568e+00  -1.0090843288449471e+00  -9.8562649167463745e-01  -9.6216865468331303e-01  -9.3871081790687183e-01  -9.1525298132353383e-01  -8.9179514494389367e-01  -8.6833730876114179e-01  -8.4487947277832487e-01  -8.2142163699340542e-01  -7.9796380140740963e-01  -7.7450596601988286e-01  -7.5104813083132271e-01  -7.2759029584179857e-01  -7.0413246105170624e-01  -6.8067462646141974e-01  -6.5721679207133954e-01  -6.3375895788193604e-01  -6.1030112389329882e-01  -5.8684329010610681e-01  -5.6338545652011840e-01  -5.3992762313693377e-01  -5.1646978995547810e-01  -4.9301195697866812e-01  -4.6955412420128800e-01  -4.4609629162367187e-01  -4.2263845921758042e-01  -3.9918062694297596e-01  -3.7572279463167052e-01  -3.5226496194344575e-01  -3.2880712790134969e-01  -3.0534929038332026e-01  -2.8189144421716705e-01  -2.5843357847694887e-01  -2.3497566958105523e-01  -2.1151767207576846e-01  -1.8805950530066295e-01  -1.6460106530680710e-01  -1.4114230133602007e-01  -1.1768348442352022e-01  -9.4226287451874294e-02  -7.0777021794257169e-02  -4.7356835549909111e-02  -2.3975718423903308e-02  -2.2488052397733314e-03  -1.8664893691025235e+00  -1.8419671667299624e+00  -1.8184732256482758e+00  -1.7950703442383826e+00  -1.7716198135165286e+00  -1.7481445041313406e+00  -1.7246448942330057e+00  -1.7011509604151782e+00  -1.6776655874142026e+00  -1.6541936512376569e+00  -1.6307310009106155e+00  -1.6072715973826972e+00  -1.5838139090895318e+00  -1.5603557249593369e+00  -1.5368979868268486e+00  -1.5134398577356967e+00  -1.4899820397520320e+00  -1.4665240418568948e+00  -1.4430662200600739e+00  -1.4196083071788270e+00  -1.3961504810157621e+00  -1.3726926082300075e+00  -1.3492347763186014e+00  -1.3257769217822857e+00  -1.3023190859664235e+00  -1.2788612399207899e+00  -1.2554034021702403e+00  -1.2319455601572105e+00  -1.2084877217222079e+00  -1.1850298816963682e+00  -1.1615720432181424e+00  -1.1381142042647054e+00  -1.1146563660284050e+00  -1.0911985277531064e+00  -1.0677406898706048e+00  -1.0442828521095300e+00  -1.0208250146195963e+00  -9.9736717730666369e-01  -9.7390934022051900e-01  -9.5045150332930350e-01  -9.2699366664882721e-01  -9.0353583016846661e-01  -8.8007799389295172e-01  -8.5662015781870149e-01  -8.3316232194690776e-01  -8.0970448627616665e-01  -7.8624665080644462e-01  -7.6278881553700761e-01  -7.3933098046755263e-01  -7.1587314559747417e-01  -6.9241531092639375e-01  -6.6895747645365566e-01  -6.4549964217889211e-01  -6.2204180810152188e-01  -5.9858397422145715e-01  -5.7512614053786149e-01  -5.5166830705083703e-01  -5.2821047375888619e-01  -5.0475264066193537e-01  -4.8129480775717159e-01  -4.5783697504236370e-01  -4.3437914250767085e-01  -4.1092131012842170e-01  -3.8746347783788410e-01  -3.6400564544732344e-01  -3.4054781249121557e-01  -3.1708997775848374e-01  -2.9363213842