<?xml version="1.0"?>
<VTKFile type="UnstructuredGrid"  version="0.1"  >
<UnstructuredGrid>
<Piece  NumberOfPoints="1369" NumberOfCells="2560">
<Points>
<DataArray  type="Float64"  NumberOfComponents="3"  format="ascii">0 0 0  0.75 0 0  1.5 0 0  2.25 0 0  3 0 0  3.75 0 0  4.5 0 0  5.25 0 0  6 0 0  6.75 0 0  7.5 0 0  8.25 0 0  9 0 0  9.75 0 0  10.5 0 0  11.25 0 0  12 0 0  12.75 0 0  13.5 0 0  14.25 0 0  15 0 0  15.75 0 0  16.5 0 0  17.25 0 0  18 0 0  18.75 0 0  19.5 0 0  20.25 0 0  21 0 0  21.75 0 0  22.5 0 0  23.25 0 0  24 0 0  24.75 0 0  25.5 0 0  26.25 0 0  27 0 0  27.75 0 0  28.5 0 0  29.25 0 0  30 0 0  30.75 0 0  31.5 0 0  32.25 0 0  33 0 0  33.75 0 0  34.5 0 0  35.25 0 0  36 0 0  36.75 0 0  37.5 0 0  38.25 0 0  39 0 0  39.75 0 0  40.5 0 0  41.25 0 0  42 0 0  42.75 0 0  43.5 0 0  44.25 0 0  45 0 0  45.75 0 0  46.5 0 0  47.25 0 0  48 0 0  48.75 0 0  49.5 0 0  50.25 0 0  51 0 0  51.75 0 0  52.5 0 0  53.25 0 0  54 0 0  54.75 0 0  55.5 0 0  56.25 0 0  57 0 0  57.75 0 0  58.5 0 0  59.25 0 0  60 0 0  0 0.5 0  0.75 0.5 0  1.5 0.5 0  2.25 0.5 0  3 0.5 0  3.75 0.5 0  4.5 0.5 0  5.25 0.5 0  6 0.5 0  6.75 0.5 0  7.5 0.5 0  8.25 0.5 0  9 0.5 0  9.75 0.5 0  10.5 0.5 0  11.25 0.5 0  12 0.5 0  12.75 0.5 0  13.5 0.5 0  14.25 0.5 0  15 0.5 0  15.75 0.5 0  16.5 0.5 0  17.25 0.5 0  18 0.5 0  18.75 0.5 0  19.5 0.5 0  20.25 0.5 0  21 0.5 0  21.75 0.5 0  22.5 0.5 0  23.25 0.5 0  24 0.5 0  24.75 0.5 0  25.5 0.5 0  26.25 0.5 0  27 0.5 0  27.75 0.5 0  28.5 0.5 0  29.25 0.5 0  30 0.5 0  30.75 0.5 0  31.5 0.5 0  32.25 0.5 0  33 0.5 0  33.75 0.5 0  34.5 0.5 0  35.25 0.5 0  36 0.5 0  36.75 0.5 0  37.5 0.5 0  38.25 0.5 0  39 0.5 0  39.75 0.5 0  40.5 0.5 0  41.25 0.5 0  42 0.5 0  42.75 0.5 0  43.5 0.5 0  44.25 0.5 0  45 0.5 0  45.75 0.5 0  46.5 0.5 0  47.25 0.5 0  48 0.5 0  48.75 0.5 0  49.5 0.5 0  50.25 0.5 0  51 0.5 0  51.75 0.5 0  52.5 0.5 0  53.25 0.5 0  54 0.5 0  54.75 0.5 0  55.5 0.5 0  56.25 0.5 0  57 0.5 0  57.75 0.5 0  58.5 0.5 0  59.25 0.5 0  60 0.5 0  0 1 0  0.75 1 0  1.5 1 0  2.25 1 0  3 1 0  3.75 1 0  4.5 1 0  5.25 1 0  6 1 0  6.75 1 0  7.5 1 0  8.25 1 0  9 1 0  9.75 1 0  10.5 1 0  11.25 1 0  12 1 0  12.75 1 0  13.5 1 0  14.25 1 0  15 1 0  15.75 1 0  16.5 1 0  17.25 1 0  18 1 0  18.75 1 0  19.5 1 0  20.25 1 0  21 1 0  21.75 1 0  22.5 1 0  23.25 1 0  24 1 0  24.75 1 0  25.5 1 0  26.25 1 0  27 1 0  27.75 1 0  28.5 1 0  29.25 1 0  30 1 0  30.75 1 0  31.5 1 0  32.25 1 0  33 1 0  33.75 1 0  34.5 1 0  35.25 1 0  36 1 0  36.75 1 0  37.5 1 0  38.25 1 0  39 1 0  39.75 1 0  40.5 1 0  41.25 1 0  42 1 0  42.75 1 0  43.5 1 0  44.25 1 0  45 1 0  45.75 1 0  46.5 1 0  47.25 1 0  48 1 0  48.75 1 0  49.5 1 0  50.25 1 0  51 1 0  51.75 1 0  52.5 1 0  53.25 1 0  54 1 0  54.75 1 0  55.5 1 0  56.25 1 0  57 1 0  57.75 1 0  58.5 1 0  59.25 1 0  60 1 0  0 1.5 0  0.75 1.5 0  1.5 1.5 0  2.25 1.5 0  3 1.5 0  3.75 1.5 0  4.5 1.5 0  5.25 1.5 0  6 1.5 0  6.75 1.5 0  7.5 1.5 0  8.25 1.5 0  9 1.5 0  9.75 1.5 0  10.5 1.5 0  11.25 1.5 0  12 1.5 0  12.75 1.5 0  13.5 1.5 0  14.25 1.5 0  15 1.5 0  15.75 1.5 0  16.5 1.5 0  17.25 1.5 0  18 1.5 0  18.75 1.5 0  19.5 1.5 0  20.25 1.5 0  21 1.5 0  21.75 1.5 0  22.5 1.5 0  23.25 1.5 0  24 1.5 0  24.75 1.5 0  25.5 1.5 0  26.25 1.5 0  27 1.5 0  27.75 1.5 0  28.5 1.5 0  29.25 1.5 0  30 1.5 0  30.75 1.5 0  31.5 1.5 0  32.25 1.5 0  33 1.5 0  33.75 1.5 0  34.5 1.5 0  35.25 1.5 0  36 1.5 0  36.75 1.5 0  37.5 1.5 0  38.25 1.5 0  39 1.5 0  39.75 1.5 0  40.5 1.5 0  41.25 1.5 0  42 1.5 0  42.75 1.5 0  43.5 1.5 0  44.25 1.5 0  45 1.5 0  45.75 1.5 0  46.5 1.5 0  47.25 1.5 0  48 1.5 0  48.75 1.5 0  49.5 1.5 0  50.25 1.5 0  51 1.5 0  51.75 1.5 0  52.5 1.5 0  53.25 1.5 0  54 1.5 0  54.75 1.5 0  55.5 1.5 0  56.25 1.5 0  57 1.5 0  57.75 1.5 0  58.5 1.5 0  59.25 1.5 0  60 1.5 0  0 2 0  0.75 2 0  1.5 2 0  2.25 2 0  3 2 0  3.75 2 0  4.5 2 0  5.25 2 0  6 2 0  6.75 2 0  7.5 2 0  8.25 2 0  9 2 0  9.75 2 0  10.5 2 0  11.25 2 0  12 2 0  12.75 2 0  13.5 2 0  14.25 2 0  15 2 0  15.75 2 0  16.5 2 0  17.25 2 0  18 2 0  18.75 2 0  19.5 2 0  20.25 2 0  21 2 0  21.75 2 0  22.5 2 0  23.25 2 0  24 2 0  24.75 2 0  25.5 2 0  26.25 2 0  27 2 0  27.75 2 0  28.5 2 0  29.25 2 0  30 2 0  30.75 2 0  31.5 2 0  32.25 2 0  33 2 0  33.75 2 0  34.5 2 0  35.25 2 0  36 2 0  36.75 2 0  37.5 2 0  38.25 2 0  39 2 0  39.75 2 0  40.5 2 0  41.25 2 0  42 2 0  42.75 2 0  43.5 2 0  44.25 2 0  45 2 0  45.75 2 0  46.5 2 0  47.25 2 0  48 2 0  48.75 2 0  49.5 2 0  50.25 2 0  51 2 0  51.75 2 0  52.5 2 0  53.25 2 0  54 2 0  54.75 2 0  55.5 2 0  56.25 2 0  57 2 0  57.75 2 0  58.5 2 0  59.25 2 0  60 2 0  0 2.5 0  0.75 2.5 0  1.5 2.5 0  2.25 2.5 0  3 2.5 0  3.75 2.5 0  4.5 2.5 0  5.25 2.5 0  6 2.5 0  6.75 2.5 0  7.5 2.5 0  8.25 2.5 0  9 2.5 0  9.75 2.5 0  10.5 2.5 0  11.25 2.5 0  12 2.5 0  12.75 2.5 0  13.5 2.5 0  14.25 2.5 0  15 2.5 0  15.75 2.5 0  16.5 2.5 0  17.25 2.5 0  18 2.5 0  18.75 2.5 0  19.5 2.5 0  20.25 2.5 0  21 2.5 0  21.75 2.5 0  22.5 2.5 0  23.25 2.5 0  24 2.5 0  24.75 2.5 0  25.5 2.5 0  26.25 2.5 0  27 2.5 0  27.75 2.5 0  28.5 2.5 0  29.25 2.5 0  30 2.5 0  30.75 2.5 0  31.5 2.5 0  32.25 2.5 0  33 2.5 0  33.75 2.5 0  34.5 2.5 0  35.25 2.5 0  36 2.5 0  36.75 2.5 0  37.5 2.5 0  38.25 2.5 0  39 2.5 0  39.75 2.5 0  40.5 2.5 0  41.25 2.5 0  42 2.5 0  42.75 2.5 0  43.5 2.5 0  44.25 2.5 0  45 2.5 0  45.75 2.5 0  46.5 2.5 0  47.25 2.5 0  48 2.5 0  48.75 2.5 0  49.5 2.5 0  50.25 2.5 0  51 2.5 0  51.75 2.5 0  52.5 2.5 0  53.25 2.5 0  54 2.5 0  54.75 2.5 0  55.5 2.5 0  56.25 2.5 0  57 2.5 0  57.75 2.5 0  58.5 2.5 0  59.25 2.5 0  60 2.5 0  0 3 0  0.75 3 0  1.5 3 0  2.25 3 0  3 3 0  3.75 3 0  4.5 3 0  5.25 3 0  6 3 0  6.75 3 0  7.5 3 0  8.25 3 0  9 3 0  9.75 3 0  10.5 3 0  11.25 3 0  12 3 0  12.75 3 0  13.5 3 0  14.25 3 0  15 3 0  15.75 3 0  16.5 3 0  17.25 3 0  18 3 0  18.75 3 0  19.5 3 0  20.25 3 0  21 3 0  21.75 3 0  22.5 3 0  23.25 3 0  24 3 0  24.75 3 0  25.5 3 0  26.25 3 0  27 3 0  27.75 3 0  28.5 3 0  29.25 3 0  30 3 0  30.75 3 0  31.5 3 0  32.25 3 0  33 3 0  33.75 3 0  34.5 3 0  35.25 3 0  36 3 0  36.75 3 0  37.5 3 0  38.25 3 0  39 3 0  39.75 3 0  40.5 3 0  41.25 3 0  42 3 0  42.75 3 0  43.5 3 0  44.25 3 0  45 3 0  45.75 3 0  46.5 3 0  47.25 3 0  48 3 0  48.75 3 0  49.5 3 0  50.25 3 0  51 3 0  51.75 3 0  52.5 3 0  53.25 3 0  54 3 0  54.75 3 0  55.5 3 0  56.25 3 0  57 3 0  57.75 3 0  58.5 3 0  59.25 3 0  60 3 0  0 3.5 0  0.75 3.5 0  1.5 3.5 0  2.25 3.5 0  3 3.5 0  3.75 3.5 0  4.5 3.5 0  5.25 3.5 0  6 3.5 0  6.75 3.5 0  7.5 3.5 0  8.25 3.5 0  9 3.5 0  9.75 3.5 0  10.5 3.5 0  11.25 3.5 0  12 3.5 0  12.75 3.5 0  13.5 3.5 0  14.25 3.5 0  15 3.5 0  15.75 3.5 0  16.5 3.5 0  17.25 3.5 0  18 3.5 0  18.75 3.5 0  19.5 3.5 0  20.25 3.5 0  21 3.5 0  21.75 3.5 0  22.5 3.5 0  23.25 3.5 0  24 3.5 0  24.75 3.5 0  25.5 3.5 0  26.25 3.5 0  27 3.5 0  27.75 3.5 0  28.5 3.5 0  29.25 3.5 0  30 3.5 0  30.75 3.5 0  31.5 3.5 0  32.25 3.5 0  33 3.5 0  33.75 3.5 0  34.5 3.5 0  35.25 3.5 0  36 3.5 0  36.75 3.5 0  37.5 3.5 0  38.25 3.5 0  39 3.5 0  39.75 3.5 0  40.5 3.5 0  41.25 3.5 0  42 3.5 0  42.75 3.5 0  43.5 3.5 0  44.25 3.5 0  45 3.5 0  45.75 3.5 0  46.5 3.5 0  47.25 3.5 0  48 3.5 0  48.75 3.5 0  49.5 3.5 0  50.25 3.5 0  51 3.5 0  51.75 3.5 0  52.5 3.5 0  53.25 3.5 0  54 3.5 0  54.75 3.5 0  55.5 3.5 0  56.25 3.5 0  57 3.5 0  57.75 3.5 0  58.5 3.5 0  59.25 3.5 0  60 3.5 0  0 4 0  0.75 4 0  1.5 4 0  2.25 4 0  3 4 0  3.75 4 0  4.5 4 0  5.25 4 0  6 4 0  6.75 4 0  7.5 4 0  8.25 4 0  9 4 0  9.75 4 0  10.5 4 0  11.25 4 0  12 4 0  12.75 4 0  13.5 4 0  14.25 4 0  15 4 0  15.75 4 0  16.5 4 0  17.25 4 0  18 4 0  18.75 4 0  19.5 4 0  20.25 4 0  21 4 0  21.75 4 0  22.5 4 0  23.25 4 0  24 4 0  24.75 4 0  25.5 4 0  26.25 4 0  27 4 0  27.75 4 0  28.5 4 0  29.25 4 0  30 4 0  30.75 4 0  31.5 4 0  32.25 4 0  33 4 0  33.75 4 0  34.5 4 0  35.25 4 0  36 4 0  36.75 4 0  37.5 4 0  38.25 4 0  39 4 0  39.75 4 0  40.5 4 0  41.25 4 0  42 4 0  42.75 4 0  43.5 4 0  44.25 4 0  45 4 0  45.75 4 0  46.5 4 0  47.25 4 0  48 4 0  48.75 4 0  49.5 4 0  50.25 4 0  51 4 0  51.75 4 0  52.5 4 0  53.25 4 0  54 4 0  54.75 4 0  55.5 4 0  56.25 4 0  57 4 0  57.75 4 0  58.5 4 0  59.25 4 0  60 4 0  0.375 0.25 0  1.125 0.25 0  1.875 0.25 0  2.625 0.25 0  3.375 0.25 0  4.125 0.25 0  4.875 0.25 0  5.625 0.25 0  6.375 0.25 0  7.125 0.25 0  7.875 0.25 0  8.625 0.25 0  9.375 0.25 0  10.125 0.25 0  10.875 0.25 0  11.625 0.25 0  12.375 0.25 0  13.125 0.25 0  13.875 0.25 0  14.625 0.25 0  15.375 0.25 0  16.125 0.25 0  16.875 0.25 0  17.625 0.25 0  18.375 0.25 0  19.125 0.25 0  19.875 0.25 0  20.625 0.25 0  21.375 0.25 0  22.125 0.25 0  22.875 0.25 0  23.625 0.25 0  24.375 0.25 0  25.125 0.25 0  25.875 0.25 0  26.625 0.25 0  27.375 0.25 0  28.125 0.25 0  28.875 0.25 0  29.625 0.25 0  30.375 0.25 0  31.125 0.25 0  31.875 0.25 0  32.625 0.25 0  33.375 0.25 0  34.125 0.25 0  34.875 0.25 0  35.625 0.25 0  36.375 0.25 0  37.125 0.25 0  37.875 0.25 0  38.625 0.25 0  39.375 0.25 0  40.125 0.25 0  40.875 0.25 0  41.625 0.25 0  42.375 0.25 0  43.125 0.25 0  43.875 0.25 0  44.625 0.25 0  45.375 0.25 0  46.125 0.25 0  46.875 0.25 0  47.625 0.25 0  48.375 0.25 0  49.125 0.25 0  49.875 0.25 0  50.625 0.25 0  51.375 0.25 0  52.125 0.25 0  52.875 0.25 0  53.625 0.25 0  54.375 0.25 0  55.125 0.25 0  55.875 0.25 0  56.625 0.25 0  57.375 0.25 0  58.125 0.25 0  58.875 0.25 0  59.625 0.25 0  0.375 0.75 0  1.125 0.75 0  1.875 0.75 0  2.625 0.75 0  3.375 0.75 0  4.125 0.75 0  4.875 0.75 0  5.625 0.75 0  6.375 0.75 0  7.125 0.75 0  7.875 0.75 0  8.625 0.75 0  9.375 0.75 0  10.125 0.75 0  10.875 0.75 0  11.625 0.75 0  12.375 0.75 0  13.125 0.75 0  13.875 0.75 0  14.625 0.75 0  15.375 0.75 0  16.125 0.75 0  16.875 0.75 0  17.625 0.75 0  18.375 0.75 0  19.125 0.75 0  19.875 0.75 0  20.625 0.75 0  21.375 0.75 0  22.125 0.75 0  22.875 0.75 0  23.625 0.75 0  24.375 0.75 0  25.125 0.75 0  25.875 0.75 0  26.625 0.75 0  27.375 0.75 0  28.125 0.75 0  28.875 0.75 0  29.625 0.75 0  30.375 0.75 0  31.125 0.75 0  31.875 0.75 0  32.625 0.75 0  33.375 0.75 0  34.125 0.75 0  34.875 0.75 0  35.625 0.75 0  36.375 0.75 0  37.125 0.75 0  37.875 0.75 0  38.625 0.75 0  39.375 0.75 0  40.125 0.75 0  40
[...]
<PointData  Scalars="f_8-1"> 
<DataArray  type="Float64"  Name="f_8-1"  format="ascii">-8.4830030441519853e+00  -8.3795259284484676e+00  -8.2718387131242412e+00  -8.1663342051514114e+00  -8.0602661373692843e+00  -7.9543458718477904e+00  -7.8482830331268740e+00  -7.7422285529113335e+00  -7.6361352775008777e+00  -7.5300490855809876e+00  -7.4239636517684113e+00  -7.3178942990746778e+00  -7.2118336355831634e+00  -7.1057807951111887e+00  -6.9997304228195132e+00  -6.8936815315342397e+00  -6.7876327754757764e+00  -6.6815841616205791e+00  -6.5755355245699247e+00  -6.4694868959355336e+00  -6.3634382767351747e+00  -6.2573896486486138e+00  -6.1513410318078545e+00  -6.0452924036648810e+00  -5.9392437818477983e+00  -5.8331951509492264e+00  -5.7271465224336326e+00  -5.6210978873312127e+00  -5.5150492521430836e+00  -5.4090006120713543e+00  -5.3029519705073564e+00  -5.1969033250437509e+00  -5.0908546773399941e+00  -4.9848060262543141e+00  -4.8787573725544151e+00  -4.7727087157264130e+00  -4.6666600561075207e+00  -4.5606113934775632e+00  -4.4545627279777333e+00  -4.3485140595179068e+00  -4.2424653881546064e+00  -4.1364167138525065e+00  -4.0303680366332975e+00  -3.9243193564836747e+00  -3.8182706734116612e+00  -3.7122219874123998e+00  -3.6061732984887569e+00  -3.5001246066390057e+00  -3.3940759118641215e+00  -3.2880272141634781e+00  -3.1819785135373650e+00  -3.0759298099855261e+00  -2.9698811035078840e+00  -2.8638323941042190e+00  -2.7577836817740193e+00  -2.6517349665167194e+00  -2.5456862483306559e+00  -2.4396375272137223e+00  -2.3335888031601719e+00  -2.2275400761613784e+00  -2.1214913461962430e+00  -2.0154426132282977e+00  -1.9093938771752295e+00  -1.8033451378835594e+00  -1.6972963950235356e+00  -1.5912476479610747e+00  -1.4851988953908299e+00  -1.3791501348172666e+00  -1.2731013613808373e+00  -1.1670525662697979e+00  -1.0610037339979579e+00  -9.5495484021097421e-01  -8.4890585155393827e-01  -7.4285673956098242e-01  -6.3680753750358232e-01  -5.3075850170397909e-01  -4.2471077467944879e-01  -3.1866545552233455e-01  -2.1265185748456306e-01  -1.0646939324185030e-01  -3.2167080164640137e-03  -8.4858639604353634e+00  -8.3788737763844345e+00  -8.2722742669868286e+00  -8.1663146761299785e+00  -8.0603895687933562e+00  -7.9543923049631040e+00  -7.8483690564464554e+00  -7.7422955035204248e+00  -7.6362160553341178e+00  -7.5301213614425002e+00  -7.4240391050898698e+00  -7.3179658725654431e+00  -7.2119063297434485e+00  -7.1058521858530472e+00  -6.9998023831998584e+00  -6.8937531009359487e+00  -6.7877045668061751e+00  -6.6816558255146612e+00  -6.5756072580683007e+00  -6.4695585914070382e+00  -6.3635099897281648e+00  -6.2574613543079494e+00  -6.1514127385779744e+00  -6.0453641120662205e+00  -5.9393154873497611e+00  -5.8332668595725856e+00  -5.7272182281443280e+00  -5.6211695955300902e+00  -5.5151209583264187e+00  -5.4090723198299244e+00  -5.3030236770761254e+00  -5.1969750324951622e+00  -5.0909263841558827e+00  -4.9848777335246393e+00  -4.8788290795105231e+00  -4.7727804229012776e+00  -4.6667317631371885e+00  -4.5606831006068660e+00  -4.4546344350442144e+00  -4.3485857666278935e+00  -4.2425370952393520e+00  -4.1364884209559145e+00  -4.0304397437276425e+00  -3.9243910635862549e+00  -3.8183423805117873e+00  -3.7122936945166134e+00  -3.6062450055930886e+00  -3.5001963137458358e+00  -3.3941476189720268e+00  -3.2880989212733032e+00  -3.1820502206485934e+00  -3.0760015170984838e+00  -2.9699528106223689e+00  -2.8639041012204132e+00  -2.7578553888918473e+00  -2.6518066736364743e+00  -2.5457579554525225e+00  -2.4397092343386055e+00  -2.3336605102894503e+00  -2.2276117832984563e+00  -2.1215630533479226e+00  -2.0155143204084376e+00  -1.9094655844135719e+00  -1.8034168452377386e+00  -1.6973681026160388e+00  -1.5913193560265828e+00  -1.4852706044096320e+00  -1.3792218456907239e+00  -1.2731730758581215e+00  -1.1671242874400609e+00  -1.0610754673352312e+00  -9.5502659460561146e-01  -8.4897764137135390e-01  -7.4292858450865884e-01  -6.3687945854817274e-01  -5.3083053898522647e-01  -4.2478271669844880e-01  -3.1873990566712840e-01  -2.1269840071128637e-01  -1.0683721164785555e-01  2.5318422371259830e-04  -8.4850137410356279e+00  -8.3792088196523551e+00  -8.2724399200452314e+00  -8.1665269015270603e+00  -8.0604267054818202e+00  -7.9544766097979540e+00  -7.8484008864376174e+00  -7.7423611817843900e+00  -7.6362655580274055e+00  -7.5301871312233919e+00  -7.4240963372737312e+00  -7.3180287985643204e+00  -7.2119641985163296e+00  -7.1059118106002046e+00  -6.9998596061108227e+00  -6.8938111387793972e+00  -6.7877617318864072e+00  -6.6817134038422354e+00  -6.5756645254749362e+00  -6.4696160348772054e+00  -6.3635673202240000e+00  -6.2575187485749293e+00  -6.1514700962712467e+00  -6.0454214877573440e+00  -5.9393728550612401e+00  -5.8333242291945844e+00  -5.7272755987388386e+00  -5.6212269638051806e+00  -5.5151783292580898e+00  -5.4091296882316842e+00  -5.3030810476636114e+00  -5.1970324013085882e+00  -5.0909837543557126e+00  -4.9849351026825390e+00  -4.8788864494367594e+00  -4.7728377922796126e+00  -4.6667891329034727e+00  -4.5607404701084047e+00  -4.4546918047278892e+00  -4.3486431361926234e+00  -4.2425944648847622e+00  -4.1365457905514624e+00  -4.0304971133574936e+00  -3.9244484331968073e+00  -3.8183997501367384e+00  -3.7123510641350119e+00  -3.6063023752178123e+00  -3.5002536833690554e+00  -3.3942049885984775e+00  -3.2881562909001705e+00  -3.1821075902775715e+00  -3.0760588867285810e+00  -2.9700101802542180e+00  -2.8639614708536314e+00  -2.7579127585266980e+00  -2.6518640432725973e+00  -2.5458153250898916e+00  -2.4397666039761190e+00  -2.3337178799258891e+00  -2.2276691529294257e+00  -2.1216204229665738e+00  -2.0155716899971288e+00  -1.9095229539415663e+00  -1.8034742146364400e+00  -1.6974254717626098e+00  -1.5913767246700947e+00  -1.4853279721015367e+00  -1.3792792115578745e+00  -1.2732304382907949e+00  -1.1671816431754098e+00  -1.0611328095722039e+00  -9.5508390745364136e-01  -8.4903488470181110e-01  -7.4298564757407592e-01  -6.3693602535568405e-01  -5.3088567665975106e-01  -4.2483382539172837e-01  -3.1877788526561746e-01  -2.1271301165598736e-01  -1.0655795413003831e-01  -2.2292530226619764e-05  -8.4854367972382150e+00  -8.3788516971548983e+00  -8.2727607095602611e+00  -8.1664225610279537e+00  -8.0605055434828010e+00  -7.9543847995624501e+00  -7.8484032922093911e+00  -7.7423017696699938e+00  -7.6362534332253356e+00  -7.5301527726835689e+00  -7.4240841332268355e+00  -7.3180042934567853e+00  -7.2119465091603505e+00  -7.1058869636181203e+00  -6.9998370940571935e+00  -6.8937856103354029e+00  -6.7877373710465356e+00  -6.6816879596349130e+00  -6.5756396386775036e+00  -6.4695907525413627e+00  -6.3635422651205200e+00  -6.2574935509133569e+00  -6.1514449776825204e+00  -6.0453963252004908e+00  -5.9393477130380683e+00  -5.8332990791007697e+00  -5.7272504494352940e+00  -5.6212018170219995e+00  -5.5151531785740024e+00  -5.4091045416216534e+00  -5.3030558973422517e+00  -5.1970072541076204e+00  -5.0909586046663033e+00  -4.9849099549060574e+00  -4.8788613002367631e+00  -4.7728126441143681e+00  -4.6667639840040094e+00  -4.5607153217204779e+00  -4.4546666559903141e+00  -4.3486179876901057e+00  -4.2425693162264464e+00  -4.1365206419945535e+00  -4.0304719647349998e+00  -3.9244232846156528e+00  -3.8183746015292699e+00  -3.7123259155434982e+00  -3.6062772266161351e+00  -3.5002285347731958e+00  -3.3941798399987784e+00  -3.2881311423024546e+00  -3.1820824416784435e+00  -3.0760337381300844e+00  -2.9699850316552365e+00  -2.8639363222548386e+00  -2.7578876099277396e+00  -2.6518388946734510e+00  -2.5457901764899704e+00  -2.4397414553739920e+00  -2.3336927313184295e+00  -2.2276440043094294e+00  -2.1215952743188251e+00  -2.0155465412900089e+00  -1.9094978051093416e+00  -1.8034490655489195e+00  -1.6974003221572047e+00  -1.5913515740424635e+00  -1.4853028194705262e+00  -1.3792540550875600e+00  -1.2732052744974920e+00  -1.1671564655577371e+00  -1.0611076053588644e+00  -9.5505865001098278e-01  -8.4900951222134702e-01  -7.4296000516834682e-01  -6.3690969264867581e-01  -5.3085746476039919e-01  -4.2480030195163965e-01  -3.1872977366184752e-01  -2.1262124101435215e-01  -1.0640639033579602e-01  -1.4880772472942389e-05  -8.4851968765195434e+00  -8.3790247711785444e+00  -8.2726157024129332e+00  -8.1665703647109158e+00  -8.0603996574848651e+00  -7.9544434107915798e+00  -7.8483395763577031e+00  -7.7423211252797906e+00  -7.6362185726614875e+00  -7.5301573906481343e+00  -7.4240652453529838e+00  -7.3180021454647184e+00  -7.2119328939935974e+00  -7.1058799342021199e+00  -6.9998248606061138e+00  -6.8937761591602209e+00  -6.7877258095802064e+00  -6.6816776042627346e+00  -6.5756284602061923e+00  -6.4695800703120678e+00  -6.3635312688143610e+00  -6.2574827411827396e+00  -6.1514340585842131e+00  -6.0453854654694421e+00  -5.9393368236263688e+00  -5.8332882016775898e+00  -5.7272395696414726e+00  -5.6211909347404774e+00  -5.5151423007946647e+00  -5.4090936589057241e+00  -5.3030450192241370e+00  -5.1969963720821193e+00  -5.0909477257910138e+00  -4.9848990736005234e+00  -4.8788504207531327e+00  -4.7728017633044608e+00  -4.6667531041405272e+00  -4.5607044411969371e+00  -4.4546557759198642e+00  -4.3486071073145309e+00  -4.2425584360535522e+00  -4.1365097616891893e+00  -4.0304610845150997e+00  -3.9244124043413087e+00  -3.8183637212891179e+00  -3.7123150352820211e+00  -3.6062663463677085e+00  -3.5002176545167747e+00  -3.3941689597471476e+00  -3.2881202620479857e+00  -3.1820715614257415e+00  -3.0760228578765232e+00  -2.9699741514024818e+00  -2.8639254420020892e+00  -2.7578767296756848e+00  -2.6518280144219366e+00  -2.5457792962393184e+00  -2.4397305751240510e+00  -2.3336818510687762e+00  -2.2276331240583587e+00  -2.1215843940621144e+00  -2.0155356610178257e+00  -1.9094869248001092e+00  -1.8034381851576931e+00  -1.6973894415917292e+00  -1.5913406931210465e+00  -1.4852919378381297e+00  -1.3792431720709606e+00  -1.2731943888185351e+00  -1.1671455747922845e+00  -1.0610967046734940e+00  -9.5504772908986457e-01  -8.4899854680214670e-01  -7.4294893326112366e-01  -6.3689834457283523e-01  -5.3084535832863311e-01  -4.2478606978539929e-01  -3.1870958202590177e-01  -2.1258677188453923e-01  -1.0636114113156196e-01  -1.3042013165344987e-05  -8.4854368059969261e+00  -8.3788516796547192e+00  -8.2727606882004849e+00  -8.1664225370304315e+00  -8.0605055505753000e+00  -7.9543848185163606e+00  -7.8484033247767639e+00  -7.7423018004099742e+00  -7.6362534623531007e+00  -7.5301527967912962e+00  -7.4240841517535454e+00  -7.3180043048512005e+00  -7.2119465156872122e+00  -7.1058869675958043e+00  -6.9998370979240629e+00  -6.8937856151034440e+00  -6.7877373771792069e+00  -6.6816879669872566e+00  -6.5756396470616663e+00  -6.4695907616795472e+00  -6.3635422748253747e+00  -6.2574935610108646e+00  -6.1514449880653306e+00  -6.0453963357780998e+00  -5.9393477237551986e+00  -5.8332990899126003e+00  -5.7272504603143064e+00  -5.6212018279463916e+00  -5.5151531895303849e+00  -5.4091045525995485e+00  -5.3030559083352511e+00  -5.1970072651107495e+00  -5.0909586156765139e+00  -4.9849099659210268e+00  -4.8788613112550356e+00  -4.7728126551348691e+00  -4.6667639950260513e+00  -4.5607153327435661e+00  -4.4546666670141128e+00  -4.3486179987144018e+00  -4.2425693272510872e+00  -4.1365206530194287e+00  -4.0304719757600482e+00  -3.9244232956408345e+00  -3.8183746125545550e+00  -3.7123259265688815e+00  -3.6062772376416192e+00  -3.5002285457988038e+00  -3.3941798510245542e+00  -3.2881311533284698e+00  -3.1820824527048037e+00  -3.0760337491569389e+00  -2.9699850426828105e+00  -2.8639363332834620e+00  -2.7578876209579031e+00  -2.6518389057058691e+00  -2.5457901875256921e+00  -2.4397414664145587e+00  -2.3336927423660980e+00  -2.2276440153675350e+00  -2.1215952853922690e+00  -2.0155465523860716e+00  -1.9094978162388283e+00  -1.8034490767279781e+00  -1.6974003334100891e+00  -1.5913515854058513e+00  -1.4853028310002343e+00  -1.3792540668691928e+00  -1.2732052866634691e+00  -1.1671564783150252e+00  -1.0611076190345328e+00  -9.5505866512656756e-01  -8.4900952961192822e-01  -7.4296002616735024e-01  -6.3690971936765350e-01  -5.3085750052834035e-01  -4.2480035202703631e-01  -3.1872984594696790e-01  -2.1262134178018705e-01  -1.0640649158506663e-01  -1.4886389946308826e-05  -8.4850137198645932e+00  -8.3792088259850104e+00  -8.2724398432486961e+00  -8.1665268720039492e+00  -8.0604267163817944e+00  -7.9544766620422074e+00  -7.8484009555367820e+00  -7.7423612509578561e+00  -7.6362656192301426e+00  -7.5301871849723065e+00  -7.4240963776425204e+00  -7.3180288253307371e+00  -7.2119642149244969e+00  -7.1059118228988583e+00  -6.9998596183113442e+00  -6.8938111532508115e+00  -6.7877617490134838e+00  -6.6817134234756503e+00  -6.5756645470459922e+00  -6.4696160579360233e+00  -6.3635673443334815e+00  -6.2575187734492559e+00  -6.1514701216730590e+00  -6.0454215135363940e+00  -5.9393728810983522e+00  -5.8333242554143743e+00  -5.7272756250829593e+00  -5.6212269902366403e+00  -5.5151783557487315e+00  -5.4091297147636608e+00  -5.3030810742235390e+00  -5.1970324278879456e+00  -5.0909837809481937e+00  -4.9849351292841124e+00  -4.8788864760444852e+00  -4.7728378188915714e+00  -4.6667891595183191e+00  -4.5607404967252272e+00  -4.4546918313460528e+00  -4.3486431628117206e+00  -4.2425944915045033e+00  -4.1365458171716529e+00  -4.0304971399780047e+00  -3.9244484598175768e+00  -3.8183997767577060e+00  -3.7123510907561581e+00  -3.6063024018391525e+00  -3.5002537099906328e+00  -3.3942050152203702e+00  -3.2881563175225206e+00  -3.1821076169005815e+00  -3.0760589133525382e+00  -2.9700102068795426e+00  -2.8639614974809562e+00  -2.7579127851569605e+00  -2.6518640699071754e+00  -2.5458153517307722e+00  -2.4397666306262389e+00  -2.3337179065895626e+00  -2.2276691796130024e+00  -2.1216204496793964e+00  -2.0155717167530529e+00  -1.9095229807611693e+00  -1.8034742415504144e+00  -1.6974254988170296e+00  -1.5913767519345638e+00  -1.4853279996818807e+00  -1.3792792396161953e+00  -1.2732304670775278e+00  -1.1671816730814220e+00  -1.0611328412145140e+00  -9.5508394181550871e-01  -8.4903492335747466e-01  -7.4298569303884221e-01  -6.3693608161698678e-01  -5.3088575000754457e-01  -4.2483392592119690e-01  -3.1877802904873742e-01  -2.1271322425804196e-01  -1.0655821236608840e-01  -2.2313458389532059e-05  -8.4858640174626654e+00  -8.3788738034945833e+00  -8.2722741719763633e+00  -8.1663146581014612e+00  -8.0603896195573785e+00  -7.9543924061561704e+00  -7.8483691817921803e+00  -7.7422956251825132e+00  -7.6362161675769880e+00  -7.5301214600201485e+00  -7.4240391864006883e+00  -7.3179659365774166e+00  -7.2119063824132983e+00  -7.1058522340522714e+00  -6.9998024320084111e+00  -6.8937531526479052e+00  -6.7877046219679338e+00  -6.6816558837387570e+00  -6.5756073187283155e+00  -6.4695586538784084e+00  -6.3635100535122948e+00  -6.2574614190227411e+00  -6.1514128039496043e+00  -6.0453641778966221e+00  -5.9393155535005588e+00  -5.8332669259454670e+00  -5.7272182946712453e+00  -5.6211696621631670e+00  -5.5151210250327090e+00  -5.4090723865864545e+00  -5.3030237438672074e+00  -5.1969750993098565e+00  -5.0909264509867835e+00  -4.9848778003666014e+00  -4.8788291463600704e+00  -4.7727804897559913e+00  -4.6667318299954443e+00  -4.5606831674675403e+00  -4.4546345019065381e+00  -4.3485858334913656e+00  -4.2425371621036136e+00  -4.1364884878207198e+00  -4.0304398105928536e+00  -3.9243911304517711e+00  -3.8183424473775487e+00  -3.7122937613825937e+00  -3.6062450724593029e+00  -3.5001963806123442e+00  -3.3941476858389237e+00  -3.2880989881407672e+00  -3.1820502875168666e+00  -3.0760015839679067e+00  -2.9699528774934723e+00  -2.8639041680939652e+00  -2.7578554557690071e+00  -2.6518067405189165e+00  -2.5457580223426883e+00  -2.4397093012400903e+00  -2.3336605772075423e+00  -2.2276118502409399e+00  -2.1215631203262553e+00  -2.0155143874396551e+00  -1.9094656515229389e+00  -1.8034169124630286e+00  -1.6973681700140162e+00  -1.5913194236831589e+00  -1.4852706724557074e+00  -1.3792219143274187e+00  -1.2731731453971742e+00  -1.1671243583695015e+00  -1.0610755404267100e+00  -9.5502667108830941e-01  -8.4897772320820974e-01  -7.4292867482732283e-01  -6.3687956231755205e-01  -5.3083066416066815e-01  -4.2478287631336381e-01  -3.1874012271712793e-01  -2.1269870299083748e-01  -1.0683779885317730e-01  2.5317256248197221e-04  -8.4830023028751178e+00  -8.3795262456896378e+00  -8.2718385531191991e+00  -8.1663342642323915e+00  -8.0602662208044240e+00  -7.9543460242098156e+00  -7.8482831986042774e+00  -7.7422287166949628e+00  -7.6361354278186875e+00  -7.5300492205421810e+00  -7.4239637681506796e+00  -7.3178943990398535e+00  -7.2118337249536495e+00  -7.1057808808507641e+00  -6.9997305095207993e+00  -6.8936816214882723e+00  -6.7876328690409533e+00  -6.6815842584302620e+00  -6.5755356239121010e+00  -6.4694869971868094e+00  -6.3634383793515550e+00  -6.2573897522444915e+00  -6.1513411360864598e+00  -6.0452925084256854e+00  -5.9392438869413677e+00  -5.8331952562759719e+00  -5.7271466279202716e+00  -5.6210979929292169e+00  -5.5150493578170661e+00  -5.4090007177980066e+00  -5.3029520762698699e+00  -5.1969034308309983e+00  -5.0908547831440787e+00  -4.9848061320699637e+00  -4.8787574783779579e+00  -4.7727088215553568e+00  -4.6666601619401460e+00  -4.5606114993127163e+00  -4.4545628338146122e+00  -4.3485141653559758e+00  -4.2424654939934960e+00  -4.1364168196919699e+00  -4.0303681424731757e+00  -3.9243194623238615e+00  -3.8182707792520967e+00  -3.7122220932530605e+00  -3.6061734043296418e+00  -3.5001247124801727e+00  -3.3940760177056637e+00  -3.2880273200055603e+00  -3.1819786193802062e+00  -3.0759299158294580e+00  -2.9698812093534017e+00  -2.8638324999520548e+00  -2.7577837876252569e+00  -2.6517350723729445e+00  -2.5456863541941694e+00  -2.4396376330879241e+00  -2.3335889090500572e+00  -2.2275401820743128e+00  -2.1214914521430779e+00  -2.0154427192251965e+00  -1.9093939832462290e+00  -1.8033452440646693e+00  -1.6972965013690657e+00  -1.5912477545534798e+00  -1.4851990023562303e+00  -1.3791502423502153e+00  -1.2731014697841732e+00  -1.1670526760195312e+00  -1.0610038458493638e+00  -9.5495495537055253e-01  -8.4890597195227169e-01  -7.4285686827733965e-01  -6.3680767943848382e-01  -5.3075866472811939e-01  -4.2471097184460405e-01  -3.1866570701667107e-01  -2.1265221190108544e-01  -1.0646970969978516e-01  -3.2195293721748570e-03  -8.4332781603984728e+00  -8.3256532059339889e+00  -8.2195302749941224e+00  -8.1135709769089779e+00  -8.0076150879940577e+00  -7.9016099517600402e+00  -7.7955569139190226e+00  -7.6894828346530346e+00  -7.5833932911896946e+00  -7.4773066166839524e+00  -7.3712286263400140e+00  -7.2651632705158571e+00  -7.1591063031358679e+00  -7.0530546562146910e+00  -6.9470049822707871e+00  -6.8409561685940838e+00  -6.7349074729193905e+00  -6.6288588543507183e+00  -6.5228102167871080e+00  -6.4167615958169302e+00  -6.3107129702777423e+00  -6.2046643487437469e+00  -6.0986157258056322e+00  -5.9925671009034858e+00  -5.8865184746373007e+00  -5.7804698447637488e+00  -5.6744212131513656e+00  -5.5683725778354303e+00  -5.4623239403661410e+00  -5.3562752994332312e+00  -5.2502266560233153e+00  -5.1441780093762741e+00  -5.0381293600423103e+00  -4.9320807076204707e+00  -4.8260320523910289e+00  -4.7199833941579747e+00  -4.6139347330540010e+00  -4.5078860689894080e+00  -4.4018374020231681e+00  -4.2957887321165487e+00  -4.1897400592943361e+00  -4.0836913835406659e+00  -3.9776427048654202e+00  -3.8715940232624115e+00  -3.7655453387354130e+00  -3.6594966512821037e+00  -3.5534479609038443e+00  -3.4473992675997813e+00  -3.3413505713703859e+00  -3.2353018722152980e+00  -3.1292531701346662e+00  -3.0232044651282370e+00  -2.9171557571959399e+00  -2.8111070463373649e+00  -2.7050583325520909e+00  -2.5990096158390550e+00  -2.4929608961966130e+00  -2.3869121736213681e+00  -2.2808634481069134e+00  -2.1748147196408736e+00  -2.0687659881977032e+00  -1.9627172537282762e+00  -1.8566685161288436e+00  -1.7506197751976751e+00  -1.6445710305128833e+00  -1.5385222812513082e+00  -1.4324735257445933e+00  -1.326424760814