<?xml version="1.0"?>
<VTKFile type="UnstructuredGrid"  version="0.1"  >
<UnstructuredGrid>
<Piece  NumberOfPoints="1369" NumberOfCells="2560">
<Points>
<DataArray  type="Float64"  NumberOfComponents="3"  format="ascii">0 0 0  0.75 0 0  1.5 0 0  2.25 0 0  3 0 0  3.75 0 0  4.5 0 0  5.25 0 0  6 0 0  6.75 0 0  7.5 0 0  8.25 0 0  9 0 0  9.75 0 0  10.5 0 0  11.25 0 0  12 0 0  12.75 0 0  13.5 0 0  14.25 0 0  15 0 0  15.75 0 0  16.5 0 0  17.25 0 0  18 0 0  18.75 0 0  19.5 0 0  20.25 0 0  21 0 0  21.75 0 0  22.5 0 0  23.25 0 0  24 0 0  24.75 0 0  25.5 0 0  26.25 0 0  27 0 0  27.75 0 0  28.5 0 0  29.25 0 0  30 0 0  30.75 0 0  31.5 0 0  32.25 0 0  33 0 0  33.75 0 0  34.5 0 0  35.25 0 0  36 0 0  36.75 0 0  37.5 0 0  38.25 0 0  39 0 0  39.75 0 0  40.5 0 0  41.25 0 0  42 0 0  42.75 0 0  43.5 0 0  44.25 0 0  45 0 0  45.75 0 0  46.5 0 0  47.25 0 0  48 0 0  48.75 0 0  49.5 0 0  50.25 0 0  51 0 0  51.75 0 0  52.5 0 0  53.25 0 0  54 0 0  54.75 0 0  55.5 0 0  56.25 0 0  57 0 0  57.75 0 0  58.5 0 0  59.25 0 0  60 0 0  0 0.5 0  0.75 0.5 0  1.5 0.5 0  2.25 0.5 0  3 0.5 0  3.75 0.5 0  4.5 0.5 0  5.25 0.5 0  6 0.5 0  6.75 0.5 0  7.5 0.5 0  8.25 0.5 0  9 0.5 0  9.75 0.5 0  10.5 0.5 0  11.25 0.5 0  12 0.5 0  12.75 0.5 0  13.5 0.5 0  14.25 0.5 0  15 0.5 0  15.75 0.5 0  16.5 0.5 0  17.25 0.5 0  18 0.5 0  18.75 0.5 0  19.5 0.5 0  20.25 0.5 0  21 0.5 0  21.75 0.5 0  22.5 0.5 0  23.25 0.5 0  24 0.5 0  24.75 0.5 0  25.5 0.5 0  26.25 0.5 0  27 0.5 0  27.75 0.5 0  28.5 0.5 0  29.25 0.5 0  30 0.5 0  30.75 0.5 0  31.5 0.5 0  32.25 0.5 0  33 0.5 0  33.75 0.5 0  34.5 0.5 0  35.25 0.5 0  36 0.5 0  36.75 0.5 0  37.5 0.5 0  38.25 0.5 0  39 0.5 0  39.75 0.5 0  40.5 0.5 0  41.25 0.5 0  42 0.5 0  42.75 0.5 0  43.5 0.5 0  44.25 0.5 0  45 0.5 0  45.75 0.5 0  46.5 0.5 0  47.25 0.5 0  48 0.5 0  48.75 0.5 0  49.5 0.5 0  50.25 0.5 0  51 0.5 0  51.75 0.5 0  52.5 0.5 0  53.25 0.5 0  54 0.5 0  54.75 0.5 0  55.5 0.5 0  56.25 0.5 0  57 0.5 0  57.75 0.5 0  58.5 0.5 0  59.25 0.5 0  60 0.5 0  0 1 0  0.75 1 0  1.5 1 0  2.25 1 0  3 1 0  3.75 1 0  4.5 1 0  5.25 1 0  6 1 0  6.75 1 0  7.5 1 0  8.25 1 0  9 1 0  9.75 1 0  10.5 1 0  11.25 1 0  12 1 0  12.75 1 0  13.5 1 0  14.25 1 0  15 1 0  15.75 1 0  16.5 1 0  17.25 1 0  18 1 0  18.75 1 0  19.5 1 0  20.25 1 0  21 1 0  21.75 1 0  22.5 1 0  23.25 1 0  24 1 0  24.75 1 0  25.5 1 0  26.25 1 0  27 1 0  27.75 1 0  28.5 1 0  29.25 1 0  30 1 0  30.75 1 0  31.5 1 0  32.25 1 0  33 1 0  33.75 1 0  34.5 1 0  35.25 1 0  36 1 0  36.75 1 0  37.5 1 0  38.25 1 0  39 1 0  39.75 1 0  40.5 1 0  41.25 1 0  42 1 0  42.75 1 0  43.5 1 0  44.25 1 0  45 1 0  45.75 1 0  46.5 1 0  47.25 1 0  48 1 0  48.75 1 0  49.5 1 0  50.25 1 0  51 1 0  51.75 1 0  52.5 1 0  53.25 1 0  54 1 0  54.75 1 0  55.5 1 0  56.25 1 0  57 1 0  57.75 1 0  58.5 1 0  59.25 1 0  60 1 0  0 1.5 0  0.75 1.5 0  1.5 1.5 0  2.25 1.5 0  3 1.5 0  3.75 1.5 0  4.5 1.5 0  5.25 1.5 0  6 1.5 0  6.75 1.5 0  7.5 1.5 0  8.25 1.5 0  9 1.5 0  9.75 1.5 0  10.5 1.5 0  11.25 1.5 0  12 1.5 0  12.75 1.5 0  13.5 1.5 0  14.25 1.5 0  15 1.5 0  15.75 1.5 0  16.5 1.5 0  17.25 1.5 0  18 1.5 0  18.75 1.5 0  19.5 1.5 0  20.25 1.5 0  21 1.5 0  21.75 1.5 0  22.5 1.5 0  23.25 1.5 0  24 1.5 0  24.75 1.5 0  25.5 1.5 0  26.25 1.5 0  27 1.5 0  27.75 1.5 0  28.5 1.5 0  29.25 1.5 0  30 1.5 0  30.75 1.5 0  31.5 1.5 0  32.25 1.5 0  33 1.5 0  33.75 1.5 0  34.5 1.5 0  35.25 1.5 0  36 1.5 0  36.75 1.5 0  37.5 1.5 0  38.25 1.5 0  39 1.5 0  39.75 1.5 0  40.5 1.5 0  41.25 1.5 0  42 1.5 0  42.75 1.5 0  43.5 1.5 0  44.25 1.5 0  45 1.5 0  45.75 1.5 0  46.5 1.5 0  47.25 1.5 0  48 1.5 0  48.75 1.5 0  49.5 1.5 0  50.25 1.5 0  51 1.5 0  51.75 1.5 0  52.5 1.5 0  53.25 1.5 0  54 1.5 0  54.75 1.5 0  55.5 1.5 0  56.25 1.5 0  57 1.5 0  57.75 1.5 0  58.5 1.5 0  59.25 1.5 0  60 1.5 0  0 2 0  0.75 2 0  1.5 2 0  2.25 2 0  3 2 0  3.75 2 0  4.5 2 0  5.25 2 0  6 2 0  6.75 2 0  7.5 2 0  8.25 2 0  9 2 0  9.75 2 0  10.5 2 0  11.25 2 0  12 2 0  12.75 2 0  13.5 2 0  14.25 2 0  15 2 0  15.75 2 0  16.5 2 0  17.25 2 0  18 2 0  18.75 2 0  19.5 2 0  20.25 2 0  21 2 0  21.75 2 0  22.5 2 0  23.25 2 0  24 2 0  24.75 2 0  25.5 2 0  26.25 2 0  27 2 0  27.75 2 0  28.5 2 0  29.25 2 0  30 2 0  30.75 2 0  31.5 2 0  32.25 2 0  33 2 0  33.75 2 0  34.5 2 0  35.25 2 0  36 2 0  36.75 2 0  37.5 2 0  38.25 2 0  39 2 0  39.75 2 0  40.5 2 0  41.25 2 0  42 2 0  42.75 2 0  43.5 2 0  44.25 2 0  45 2 0  45.75 2 0  46.5 2 0  47.25 2 0  48 2 0  48.75 2 0  49.5 2 0  50.25 2 0  51 2 0  51.75 2 0  52.5 2 0  53.25 2 0  54 2 0  54.75 2 0  55.5 2 0  56.25 2 0  57 2 0  57.75 2 0  58.5 2 0  59.25 2 0  60 2 0  0 2.5 0  0.75 2.5 0  1.5 2.5 0  2.25 2.5 0  3 2.5 0  3.75 2.5 0  4.5 2.5 0  5.25 2.5 0  6 2.5 0  6.75 2.5 0  7.5 2.5 0  8.25 2.5 0  9 2.5 0  9.75 2.5 0  10.5 2.5 0  11.25 2.5 0  12 2.5 0  12.75 2.5 0  13.5 2.5 0  14.25 2.5 0  15 2.5 0  15.75 2.5 0  16.5 2.5 0  17.25 2.5 0  18 2.5 0  18.75 2.5 0  19.5 2.5 0  20.25 2.5 0  21 2.5 0  21.75 2.5 0  22.5 2.5 0  23.25 2.5 0  24 2.5 0  24.75 2.5 0  25.5 2.5 0  26.25 2.5 0  27 2.5 0  27.75 2.5 0  28.5 2.5 0  29.25 2.5 0  30 2.5 0  30.75 2.5 0  31.5 2.5 0  32.25 2.5 0  33 2.5 0  33.75 2.5 0  34.5 2.5 0  35.25 2.5 0  36 2.5 0  36.75 2.5 0  37.5 2.5 0  38.25 2.5 0  39 2.5 0  39.75 2.5 0  40.5 2.5 0  41.25 2.5 0  42 2.5 0  42.75 2.5 0  43.5 2.5 0  44.25 2.5 0  45 2.5 0  45.75 2.5 0  46.5 2.5 0  47.25 2.5 0  48 2.5 0  48.75 2.5 0  49.5 2.5 0  50.25 2.5 0  51 2.5 0  51.75 2.5 0  52.5 2.5 0  53.25 2.5 0  54 2.5 0  54.75 2.5 0  55.5 2.5 0  56.25 2.5 0  57 2.5 0  57.75 2.5 0  58.5 2.5 0  59.25 2.5 0  60 2.5 0  0 3 0  0.75 3 0  1.5 3 0  2.25 3 0  3 3 0  3.75 3 0  4.5 3 0  5.25 3 0  6 3 0  6.75 3 0  7.5 3 0  8.25 3 0  9 3 0  9.75 3 0  10.5 3 0  11.25 3 0  12 3 0  12.75 3 0  13.5 3 0  14.25 3 0  15 3 0  15.75 3 0  16.5 3 0  17.25 3 0  18 3 0  18.75 3 0  19.5 3 0  20.25 3 0  21 3 0  21.75 3 0  22.5 3 0  23.25 3 0  24 3 0  24.75 3 0  25.5 3 0  26.25 3 0  27 3 0  27.75 3 0  28.5 3 0  29.25 3 0  30 3 0  30.75 3 0  31.5 3 0  32.25 3 0  33 3 0  33.75 3 0  34.5 3 0  35.25 3 0  36 3 0  36.75 3 0  37.5 3 0  38.25 3 0  39 3 0  39.75 3 0  40.5 3 0  41.25 3 0  42 3 0  42.75 3 0  43.5 3 0  44.25 3 0  45 3 0  45.75 3 0  46.5 3 0  47.25 3 0  48 3 0  48.75 3 0  49.5 3 0  50.25 3 0  51 3 0  51.75 3 0  52.5 3 0  53.25 3 0  54 3 0  54.75 3 0  55.5 3 0  56.25 3 0  57 3 0  57.75 3 0  58.5 3 0  59.25 3 0  60 3 0  0 3.5 0  0.75 3.5 0  1.5 3.5 0  2.25 3.5 0  3 3.5 0  3.75 3.5 0  4.5 3.5 0  5.25 3.5 0  6 3.5 0  6.75 3.5 0  7.5 3.5 0  8.25 3.5 0  9 3.5 0  9.75 3.5 0  10.5 3.5 0  11.25 3.5 0  12 3.5 0  12.75 3.5 0  13.5 3.5 0  14.25 3.5 0  15 3.5 0  15.75 3.5 0  16.5 3.5 0  17.25 3.5 0  18 3.5 0  18.75 3.5 0  19.5 3.5 0  20.25 3.5 0  21 3.5 0  21.75 3.5 0  22.5 3.5 0  23.25 3.5 0  24 3.5 0  24.75 3.5 0  25.5 3.5 0  26.25 3.5 0  27 3.5 0  27.75 3.5 0  28.5 3.5 0  29.25 3.5 0  30 3.5 0  30.75 3.5 0  31.5 3.5 0  32.25 3.5 0  33 3.5 0  33.75 3.5 0  34.5 3.5 0  35.25 3.5 0  36 3.5 0  36.75 3.5 0  37.5 3.5 0  38.25 3.5 0  39 3.5 0  39.75 3.5 0  40.5 3.5 0  41.25 3.5 0  42 3.5 0  42.75 3.5 0  43.5 3.5 0  44.25 3.5 0  45 3.5 0  45.75 3.5 0  46.5 3.5 0  47.25 3.5 0  48 3.5 0  48.75 3.5 0  49.5 3.5 0  50.25 3.5 0  51 3.5 0  51.75 3.5 0  52.5 3.5 0  53.25 3.5 0  54 3.5 0  54.75 3.5 0  55.5 3.5 0  56.25 3.5 0  57 3.5 0  57.75 3.5 0  58.5 3.5 0  59.25 3.5 0  60 3.5 0  0 4 0  0.75 4 0  1.5 4 0  2.25 4 0  3 4 0  3.75 4 0  4.5 4 0  5.25 4 0  6 4 0  6.75 4 0  7.5 4 0  8.25 4 0  9 4 0  9.75 4 0  10.5 4 0  11.25 4 0  12 4 0  12.75 4 0  13.5 4 0  14.25 4 0  15 4 0  15.75 4 0  16.5 4 0  17.25 4 0  18 4 0  18.75 4 0  19.5 4 0  20.25 4 0  21 4 0  21.75 4 0  22.5 4 0  23.25 4 0  24 4 0  24.75 4 0  25.5 4 0  26.25 4 0  27 4 0  27.75 4 0  28.5 4 0  29.25 4 0  30 4 0  30.75 4 0  31.5 4 0  32.25 4 0  33 4 0  33.75 4 0  34.5 4 0  35.25 4 0  36 4 0  36.75 4 0  37.5 4 0  38.25 4 0  39 4 0  39.75 4 0  40.5 4 0  41.25 4 0  42 4 0  42.75 4 0  43.5 4 0  44.25 4 0  45 4 0  45.75 4 0  46.5 4 0  47.25 4 0  48 4 0  48.75 4 0  49.5 4 0  50.25 4 0  51 4 0  51.75 4 0  52.5 4 0  53.25 4 0  54 4 0  54.75 4 0  55.5 4 0  56.25 4 0  57 4 0  57.75 4 0  58.5 4 0  59.25 4 0  60 4 0  0.375 0.25 0  1.125 0.25 0  1.875 0.25 0  2.625 0.25 0  3.375 0.25 0  4.125 0.25 0  4.875 0.25 0  5.625 0.25 0  6.375 0.25 0  7.125 0.25 0  7.875 0.25 0  8.625 0.25 0  9.375 0.25 0  10.125 0.25 0  10.875 0.25 0  11.625 0.25 0  12.375 0.25 0  13.125 0.25 0  13.875 0.25 0  14.625 0.25 0  15.375 0.25 0  16.125 0.25 0  16.875 0.25 0  17.625 0.25 0  18.375 0.25 0  19.125 0.25 0  19.875 0.25 0  20.625 0.25 0  21.375 0.25 0  22.125 0.25 0  22.875 0.25 0  23.625 0.25 0  24.375 0.25 0  25.125 0.25 0  25.875 0.25 0  26.625 0.25 0  27.375 0.25 0  28.125 0.25 0  28.875 0.25 0  29.625 0.25 0  30.375 0.25 0  31.125 0.25 0  31.875 0.25 0  32.625 0.25 0  33.375 0.25 0  34.125 0.25 0  34.875 0.25 0  35.625 0.25 0  36.375 0.25 0  37.125 0.25 0  37.875 0.25 0  38.625 0.25 0  39.375 0.25 0  40.125 0.25 0  40.875 0.25 0  41.625 0.25 0  42.375 0.25 0  43.125 0.25 0  43.875 0.25 0  44.625 0.25 0  45.375 0.25 0  46.125 0.25 0  46.875 0.25 0  47.625 0.25 0  48.375 0.25 0  49.125 0.25 0  49.875 0.25 0  50.625 0.25 0  51.375 0.25 0  52.125 0.25 0  52.875 0.25 0  53.625 0.25 0  54.375 0.25 0  55.125 0.25 0  55.875 0.25 0  56.625 0.25 0  57.375 0.25 0  58.125 0.25 0  58.875 0.25 0  59.625 0.25 0  0.375 0.75 0  1.125 0.75 0  1.875 0.75 0  2.625 0.75 0  3.375 0.75 0  4.125 0.75 0  4.875 0.75 0  5.625 0.75 0  6.375 0.75 0  7.125 0.75 0  7.875 0.75 0  8.625 0.75 0  9.375 0.75 0  10.125 0.75 0  10.875 0.75 0  11.625 0.75 0  12.375 0.75 0  13.125 0.75 0  13.875 0.75 0  14.625 0.75 0  15.375 0.75 0  16.125 0.75 0  16.875 0.75 0  17.625 0.75 0  18.375 0.75 0  19.125 0.75 0  19.875 0.75 0  20.625 0.75 0  21.375 0.75 0  22.125 0.75 0  22.875 0.75 0  23.625 0.75 0  24.375 0.75 0  25.125 0.75 0  25.875 0.75 0  26.625 0.75 0  27.375 0.75 0  28.125 0.75 0  28.875 0.75 0  29.625 0.75 0  30.375 0.75 0  31.125 0.75 0  31.875 0.75 0  32.625 0.75 0  33.375 0.75 0  34.125 0.75 0  34.875 0.75 0  35.625 0.75 0  36.375 0.75 0  37.125 0.75 0  37.875 0.75 0  38.625 0.75 0  39.375 0.75 0  40.125 0.75 0  40
[...]
<PointData  Scalars="f_8-1"> 
<DataArray  type="Float64"  Name="f_8-1"  format="ascii">-1.1410045695526444e+01  -1.1269802402243412e+01  -1.1127427109247108e+01  -1.0984989627389066e+01  -1.0842501101870166e+01  -1.0699952612515741e+01  -1.0557344105527548e+01  -1.0414688919653493e+01  -1.0272002734967900e+01  -1.0129300882369510e+01  -9.9865930991615190e+00  -9.8438855272844297e+00  -9.7011802835442076e+00  -9.5584783121906494e+00  -9.4157794672310420e+00  -9.2730835257453403e+00  -9.1303901649360490e+00  -8.9876997316056144e+00  -8.8450128910624866e+00  -8.7023302907776827e+00  -8.5596519950245895e+00  -8.4169775360100569e+00  -8.2743060796031109e+00  -8.1316367699381562e+00  -7.9889688839415385e+00  -7.8463019203507613e+00  -7.7036355500210956e+00  -7.5609695752990698e+00  -7.4183038739366403e+00  -7.2756383733481176e+00  -7.1329730187040017e+00  -6.9903077644678335e+00  -6.8476425750176695e+00  -6.7049774345235651e+00  -6.5623123437495767e+00  -6.4196473104694141e+00  -6.2769823404238245e+00  -6.1343174393424169e+00  -5.9916526196118989e+00  -5.8489879036176857e+00  -5.7063233177951043e+00  -5.5636588815940788e+00  -5.4209945982601013e+00  -5.2783304529283539e+00  -5.1356664176254521e+00  -4.9930024593904365e+00  -4.8503385470584144e+00  -4.7076746545961257e+00  -4.5650107612951683e+00  -4.4223468505693369e+00  -4.2796829089341397e+00  -4.1370189258419456e+00  -3.9943548941309763e+00  -3.8516908104703900e+00  -3.7090266753178773e+00  -3.5663624922749575e+00  -3.4236982670471243e+00  -3.2810340063321761e+00  -3.1383697169066154e+00  -2.9957054050309075e+00  -2.8530410761648066e+00  -2.7103767349043122e+00  -2.5677123850420727e+00  -2.4250480296672672e+00  -2.2823836712817531e+00  -2.1397193118278048e+00  -1.9970549530081765e+00  -1.8543905952170552e+00  -1.7117262423234469e+00  -1.5690618812223658e+00  -1.4263975664426505e+00  -1.2837330707462031e+00  -1.1410692742972166e+00  -9.9840274971657983e-01  -8.5574598424585735e-01  -7.1305479606608035e-01  -5.7047400340444365e-01  -4.2755774166805044e-01  -2.8556004303939375e-01  -1.4128397828041001e-01  -1.7447204401753497e-03  -1.1412561902469911e+01  -1.1269743569112544e+01  -1.1127367240653152e+01  -1.0984914914046588e+01  -1.0842429787674188e+01  -1.0699888576174491e+01  -1.0557286677711831e+01  -1.0414635700611180e+01  -1.0271951787995967e+01  -1.0129250723738076e+01  -9.9865430874494248e+00  -9.8438353843242261e+00  -9.7011299986263211e+00  -9.5584278025390965e+00  -9.4157288067355651e+00  -9.2730327339139773e+00  -9.1303391681107158e+00  -8.9876483393874871e+00  -8.8449609947671739e+00  -8.7022778996407730e+00  -8.5595992303546726e+00  -8.4169245332021561e+00  -8.2742529532468634e+00  -8.1315835850143348e+00  -7.9889156730800197e+00  -7.8462486937580875e+00  -7.7035823134055708e+00  -7.5609163299297206e+00  -7.4182506208663881e+00  -7.2755851137308181e+00  -7.1329197565179090e+00  -6.9902545028617329e+00  -6.8475893144153046e+00  -6.7049241723563346e+00  -6.5622590776837235e+00  -6.4195940396096312e+00  -6.2769290644839630e+00  -6.1342641563816285e+00  -5.9915993255869653e+00  -5.8489345938037749e+00  -5.7062699891995639e+00  -5.5636055343148012e+00  -5.4209412352826343e+00  -5.2782770786797109e+00  -5.1356130364428987e+00  -4.9929490745949341e+00  -4.8502851608623425e+00  -4.7076212684825238e+00  -4.5649573764641902e+00  -4.4222934681533088e+00  -4.2796295299669378e+00  -4.1369655510981680e+00  -3.9943015239933399e+00  -3.8516374449033144e+00  -3.7089733139499903e+00  -3.5663091345366253e+00  -3.4236449123060062e+00  -3.2809806539895825e+00  -3.1383163664461677e+00  -2.9956520560296953e+00  -2.8529877282836376e+00  -2.7103233878716306e+00  -2.5676590386382330e+00  -2.4249946837174106e+00  -2.2823303256325702e+00  -2.1396659664132747e+00  -1.9970016075365207e+00  -1.8543372505018596e+00  -1.7116728945997404e+00  -1.5690085459615393e+00  -1.4263441804264001e+00  -1.2836798854233873e+00  -1.1410153176278182e+00  -9.9835163534854510e-01  -8.5568482703336779e-01  -7.1302685167620083e-01  -5.7034310166344160e-01  -4.2771475753541588e-01  -2.8496935307201832e-01  -1.4231837510118286e-01  4.9897105602042416e-04  -1.1412700277169648e+01  -1.1269874604853367e+01  -1.1127357127947736e+01  -1.0984886165777700e+01  -1.0842402711105946e+01  -1.0699864852222769e+01  -1.0557265837386227e+01  -1.0414615556131999e+01  -1.0271931569015434e+01  -1.0129229970737262e+01  -9.9865219025557153e+00  -9.8438140292591605e+00  -9.7011086745027644e+00  -9.5584063691864110e+00  -9.4157073246327769e+00  -9.2730112547854766e+00  -9.1303175259191338e+00  -8.9876262081093632e+00  -8.8449382266809984e+00  -8.7022545942285827e+00  -8.5595756336723827e+00  -8.4169008645611747e+00  -8.2742293441964030e+00  -8.1315600737345459e+00  -7.9888922463967287e+00  -7.8462253223163785e+00  -7.7035589759080318e+00  -7.5608930115166642e+00  -7.4182273115391251e+00  -7.2755618094360273e+00  -7.1328964598354956e+00  -6.9902312159233420e+00  -6.8475660337668947e+00  -6.7049008908576786e+00  -6.5622357906280708e+00  -6.4195707467288115e+00  -6.2769057665907164e+00  -6.1342408510667070e+00  -5.9915760067686819e+00  -5.8489112551145048e+00  -5.7062466279646227e+00  -5.5635821530709872e+00  -5.4209178403231535e+00  -5.2782536771873678e+00  -5.1355896341380767e+00  -4.9929256748817208e+00  -4.8502617652639817e+00  -4.7075978775714811e+00  -4.5649339905697532e+00  -4.4222700875893821e+00  -4.2796061549071025e+00  -4.1369421813807605e+00  -3.9942781590516319e+00  -3.8516140838658437e+00  -3.7089499558331687e+00  -3.5662857784303545e+00  -3.4236215574846089e+00  -3.2809572999391690e+00  -3.1382930128328352e+00  -2.9956287026459529e+00  -2.8529643749988853e+00  -2.7103000345990345e+00  -2.5676356853177733e+00  -2.4249713303076454e+00  -2.2823069721152591e+00  -2.1396426127641854e+00  -1.9969782538520151e+00  -1.8543138964812329e+00  -1.7116495417750512e+00  -1.5689851888559641e+00  -1.4263208424508020e+00  -1.2836564825331016e+00  -1.1409921717055285e+00  -9.9832766795695860e-01  -8.5566368442012852e-01  -7.1299791202332963e-01  -5.7033628125141633e-01  -4.2766381396950981e-01  -2.8500635936535651e-01  -1.4238019916894676e-01  -6.0653648275286087e-06  -1.1412674794565492e+01  -1.1269975397496479e+01  -1.1127415758284759e+01  -1.0984919184435032e+01  -1.0842418885613224e+01  -1.0699876737636759e+01  -1.0557280039684404e+01  -1.0414634830892055e+01  -1.0271956161434003e+01  -1.0129258447887768e+01  -9.9865529554025585e+00  -9.8438462736695858e+00  -9.7011415651235602e+00  -9.5584394413906537e+00  -9.4157403737295038e+00  -9.2730442262957933e+00  -9.1303505716955335e+00  -8.9876593394453739e+00  -8.8449713343704861e+00  -8.7022874899337044e+00  -8.5596082115714545e+00  -8.4169331046301501e+00  -8.2742613068074160e+00  -8.1315918383877452e+00  -7.9889238887662692e+00  -7.8462568914033390e+00  -7.7035905040558710e+00  -7.5609245175349677e+00  -7.4182588068665059e+00  -7.2755932975299897e+00  -7.1329279424576288e+00  -6.9902626963129890e+00  -6.8475975170331198e+00  -6.7049323793982696e+00  -6.5622672824282304e+00  -6.4196022373701966e+00  -6.2769372536223305e+00  -6.1342723355083395e+00  -5.9916074909580654e+00  -5.8489427387914850e+00  -5.7062781063849890e+00  -5.5636136184692555e+00  -5.4209492856691952e+00  -5.2782850995486603e+00  -5.1356210357919734e+00  -4.9929570619036951e+00  -4.8502931448220075e+00  -4.7076292554719865e+00  -4.5649653700685198e+00  -4.4223014695592049e+00  -4.2796375388183394e+00  -4.1369735663822036e+00  -3.9943095446707955e+00  -3.8516454702006131e+00  -3.7089813433769443e+00  -3.5663171677654084e+00  -3.4236529490319811e+00  -3.2809886938468322e+00  -3.1383244089919033e+00  -2.9956601007783203e+00  -2.8529957747580657e+00  -2.7103314356474706e+00  -2.5676670873687795e+00  -2.4250027331384150e+00  -2.2823383755608919e+00  -2.1396740167134869e+00  -1.9970096582127199e+00  -1.8543453012856972e+00  -1.7116809467476914e+00  -1.5690165952521671e+00  -1.4263522463613558e+00  -1.2836879020582319e+00  -1.1410235556232804e+00  -9.9835923984236907e-01  -8.5569491836852285e-01  -7.1303104201581990e-01  -5.7036781515397916e-01  -4.2771041690318773e-01  -2.8507172491477678e-01  -1.4251649165690675e-01  1.5837951315747729e-05  -1.1412668270826209e+01  -1.1270000624979819e+01  -1.1127431184974771e+01  -1.0984920378282251e+01  -1.0842412477184324e+01  -1.0699867456522879e+01  -1.0557271706972452e+01  -1.0414629541811758e+01  -1.0271953615951425e+01  -1.0129258289637214e+01  -9.9865540624620923e+00  -9.8438481091877250e+00  -9.7011435190834696e+00  -9.5584415390892197e+00  -9.4157424095972786e+00  -9.2730462149115009e+00  -9.1303525563709833e+00  -8.9876614958988359e+00  -8.8449736433597632e+00  -8.7022898559769022e+00  -8.5596104755130202e+00  -8.4169351930933036e+00  -8.2742631955549175e+00  -8.1315935652440547e+00  -7.9889255008875288e+00  -7.8462584377969016e+00  -7.7035920104016427e+00  -7.5609260048321962e+00  -7.4182602904441231e+00  -7.2755947865048540e+00  -7.1329294334436284e+00  -6.9902641866042821e+00  -6.8475990114673140e+00  -6.7049338867327162e+00  -6.5622688027660185e+00  -6.4196037606486032e+00  -6.2769387685490754e+00  -6.1342738401253163e+00  -5.9916089926583576e+00  -5.8489442457060035e+00  -5.7062796181413615e+00  -5.5636151245812684e+00  -5.4209507715576013e+00  -5.2782865551871581e+00  -5.1356224608166059e+00  -4.9929584649178871e+00  -4.8502945384099130e+00  -4.7076306505674435e+00  -4.5649667725368648e+00  -4.4223028799300987e+00  -4.2796389542377451e+00  -4.1369749831736202e+00  -3.9943109601942517e+00  -3.8516468835277085e+00  -3.7089827549938987e+00  -3.5663185788419556e+00  -3.4236543607346217e+00  -3.2809901069455130e+00  -3.1383258237759035e+00  -2.9956615171701895e+00  -2.8529971924915380e+00  -2.7103328544176302e+00  -2.5676685069189102e+00  -2.4250041532890600e+00  -2.2823397962044156e+00  -2.1396754377953271e+00  -1.9970110797187119e+00  -1.8543467232185806e+00  -1.7116823691798322e+00  -1.5690180181148892e+00  -1.4263536703333908e+00  -1.2836893258465962e+00  -1.1410249882978127e+00  -9.9836067055275890e-01  -8.5569646328966831e-01  -7.1303267729429376e-01  -5.7037083592336135e-01  -4.2771639588881416e-01  -2.8509118819524071e-01  -1.4252121894971395e-01  -6.1152411360480560e-06  -1.1412674795860502e+01  -1.1269975333551061e+01  -1.1127415696840220e+01  -1.0984919142352826e+01  -1.0842418868617239e+01  -1.0699876743924504e+01  -1.0557280055217742e+01  -1.0414634851014670e+01  -1.0271956165845799e+01  -1.0129258446557136e+01  -9.9865529328727014e+00  -9.8438462334391872e+00  -9.7011415267100762e+00  -9.5584393873113900e+00  -9.4157403000538160e+00  -9.2730441583007917e+00  -9.1303505158412079e+00  -8.9876592758320619e+00  -8.8449712518949397e+00  -8.7022873966976864e+00  -8.5596081253441394e+00  -8.4169330392626058e+00  -8.2742612584797186e+00  -8.1315917965341846e+00  -7.9889238540233949e+00  -7.8462568672434578e+00  -7.7035904876510362e+00  -7.5609245127971771e+00  -7.4182588290573150e+00  -7.2755933540330657e+00  -7.1329280226465039e+00  -6.9902627889072750e+00  -6.8475976270702770e+00  -6.7049325186306552e+00  -6.5622674472797939e+00  -6.4196024045225739e+00  -6.2769373986600625e+00  -6.1342724528730592e+00  -5.9916075947380403e+00  -5.8489428455751300e+00  -5.7062782175104552e+00  -5.5636137165060537e+00  -5.4209493459919367e+00  -5.2782851065690695e+00  -5.1356209923515141e+00  -4.9929569872395989e+00  -4.8502930644724174e+00  -4.7076291902001692e+00  -4.5649653294862675e+00  -4.4223014520891315e+00  -4.2796375360593260e+00  -4.1369735685550513e+00  -3.9943095445286789e+00  -3.8516454644422349e+00  -3.7089813320320317e+00  -3.5663171526567208e+00  -3.4236529323067346e+00  -3.2809886770933425e+00  -3.1383243929876090e+00  -2.9956600856506208e+00  -2.8529957602913130e+00  -2.7103314215502103e+00  -2.5676670734271267e+00  -2.4250027192635608e+00  -2.2823383617737369e+00  -2.1396740031094139e+00  -1.9970096449333863e+00  -1.8543452885074521e+00  -1.7116809346845663e+00  -1.5690165841666082e+00  -1.4263522365731203e+00  -1.2836878939440723e+00  -1.1410235495848038e+00  -9.9835923625362311e-01  -8.5569491736706949e-01  -7.1303104339573364e-01  -5.7036781737918807e-01  -4.2771041707278068e-01  -2.8507171866016595e-01  -1.4251649002728817e-01  1.5856232729277146e-05  -1.1412700262494514e+01  -1.1269874466445753e+01  -1.1127357010016228e+01  -1.0984886086735795e+01  -1.0842402677823706e+01  -1.0699864856424721e+01  -1.0557265860626295e+01  -1.0414615580014280e+01  -1.0271931574499142e+01  -1.0129229960100574e+01  -9.9865218576328623e+00  -9.8438139640725204e+00  -9.7011086024270377e+00  -9.5584062712221609e+00  -9.4157072063018123e+00  -9.2730111458244284e+00  -9.1303174279410584e+00  -8.9876260973596587e+00  -8.8449380932084605e+00  -8.7022544516893294e+00  -8.5595755070376196e+00  -8.4169007691425950e+00  -8.2742292729208806e+00  -8.1315600153315106e+00  -7.9888922022858653e+00  -7.8462252949631512e+00  -7.7035589636415107e+00  -7.5608930240202632e+00  -7.4182273684992923e+00  -7.2755619161809912e+00  -7.1328966010856947e+00  -6.9902313797145501e+00  -6.8475662278111162e+00  -6.7049011261271980e+00  -6.5622360555410344e+00  -6.4195710069953851e+00  -6.2769059915775562e+00  -6.1342410369760207e+00  -5.9915761733351935e+00  -5.8489114212580029e+00  -5.7062467901247009e+00  -5.5635822839721367e+00  -5.4209179068349922e+00  -5.2782536621382281e+00  -5.1355895471129376e+00  -4.9929255471531908e+00  -4.8502616345678593e+00  -4.7075977727540961e+00  -4.5649339235611235e+00  -4.4222700543610545e+00  -4.2796061422771352e+00  -4.1369421748947133e+00  -3.9942781483822194e+00  -3.8516140645655303e+00  -3.7089499282464971e+00  -3.5662857453875509e+00  -3.4236215221779664e+00  -3.2809572646813998e+00  -3.1382929787307274e+00  -2.9956286698587711e+00  -2.8529643431950569e+00  -2.7103000033463749e+00  -2.5676356543047500e+00  -2.4249712994104304e+00  -2.2823069413740118e+00  -2.1396425823313354e+00  -1.9969782239512281e+00  -1.8543138673908053e+00  -1.7116495138322412e+00  -1.5689851624705038e+00  -1.4263208181179887e+00  -1.2836564608090293e+00  -1.1409921532071010e+00  -9.9832765303234838e-01  -8.5566367353114114e-01  -7.1299790335501845e-01  -5.7033627475510451e-01  -4.2766379945498972e-01  -2.8500632616758664e-01  -1.4238016271690129e-01  -6.0599232531363856e-06  -1.1412561847162365e+01  -1.1269743195149053e+01  -1.1127367049905075e+01  -1.0984914784088275e+01  -1.0842429711252786e+01  -1.0699888538727645e+01  -1.0557286659986968e+01  -1.0414635680557501e+01  -1.0271951752284904e+01  -1.0129250664433048e+01  -9.9865429986702843e+00  -9.8438352760272050e+00  -9.7011298751498245e+00  -9.5584276584813583e+00  -9.4157286518464769e+00  -9.2730325855304105e+00  -9.1303390254494641e+00  -8.9876481887131945e+00  -8.8449608318245421e+00  -8.7022777369059199e+00  -8.5595990873193504e+00  -8.4169244201075042e+00  -8.2742528658978376e+00  -8.1315835170297444e+00  -7.9889156240963093e+00  -7.8462486645048530e+00  -7.7035823058458996e+00  -7.5609163540954549e+00  -7.4182506894828109e+00  -7.2755852276677189e+00  -7.1329199045146296e+00  -6.9902546772762468e+00  -6.8475895187457025e+00  -6.7049244085064865e+00  -6.5622593304755430e+00  -6.4195942800159171e+00  -6.2769292693631487e+00  -6.1342643235261827e+00  -5.9915994690873271e+00  -5.8489347252104382e+00  -5.7062701022418603e+00  -5.5636056057130476e+00  -5.4209412397457424e+00  -5.2782770060024840e+00  -5.1356128991456886e+00  -4.9929489026669316e+00  -4.8502849885284522e+00  -4.7076211212576444e+00  -4.5649572645780472e+00  -4.4222933876380344e+00  -4.2796294687208611e+00  -4.1369654958626869e+00  -3.9943014651797109e+00  -3.8516373782266911e+00  -3.7089732395304713e+00  -3.5663090548636776e+00  -3.4236448303096862e+00  -3.2809805718678948e+00  -3.1383162853133375e+00  -2.9956519761120659e+00  -2.8529876493212374e+00  -2.7103233094798771e+00  -2.5676589605251294e+00  -2.4249946057595921e+00  -2.2823302478632175e+00  -2.1396658889784868e+00  -1.9970015306572357e+00  -1.8543371744558919e+00  -1.7116728197212734e+00  -1.5690084726504985e+00  -1.4263441091361433e+00  -1.2836798166879435e+00  -1.1410152517475101e+00  -9.9835157314391454e-01  -8.5568476617663181e-01  -7.1302679688192183e-01  -5.7034303356428762e-01  -4.2771470146896778e-01  -2.8496925154637004e-01  -1.4231823138546570e-01  4.9910956291788968e-04  -1.1410042594705894e+01  -1.1269802080457467e+01  -1.1127426867165944e+01  -1.0984989460030157e+01  -1.0842500990573862e+01  -1.0699952539545032e+01  -1.0557344048418214e+01  -1.0414688858569818e+01  -1.0272002656381956e+01  -1.0129300777558297e+01  -9.9865929682613181e+00  -9.8438853778943081e+00  -9.7011801176469508e+00  -9.5584781302068080e+00  -9.4157792811093159e+00  -9.2730833479671801e+00  -9.1303899931912049e+00  -8.9876995557093444e+00  -8.8450127098968689e+00  -8.7023301172107494e+00  -8.5596518457399515e+00  -8.4169774181123671e+00  -8.2743059895600233e+00  -8.1316367032390673e+00  -7.9889688393908687e+00  -7.8463018977532393e+00  -7.7036355525766682e+00  -7.5609696127177184e+00  -7.4183039549493452e+00  -7.2756384953787476e+00  -7.1329731710718765e+00  -6.9903079412294664e+00  -6.8476427780192832e+00  -6.7049776612940333e+00  -6.5623125766334169e+00  -6.4196475223931113e+00  -6.2769825123411458e+00  -6.1343175711687472e+00  -5.9916527239778690e+00  -5.8489879890546241e+00  -5.7063233767968189e+00  -5.5636588931624562e+00  -5.4209945419562873e+00  -5.2783303234246945e+00  -5.1356662300920863e+00  -4.9930022435179362e+00  -4.8503383346565698e+00  -4.7076744681988201e+00  -4.5650106089031652e+00  -4.4223467273013162e+00  -4.2796828029194645e+00  -4.1370188246432837e+00  -3.9943547890180153e+00  -3.8516906977272534e+00  -3.7090265552756536e+00  -3.5663623673742744e+00  -3.4236981400568398e+00  -3.2810338792921252e+00  -3.1383695908306959e+00  -2.9957052801074977e+00  -2.8530409521372575e+00  -2.7103766114075372e+00  -2.5677122618021486e+00  -2.4250479065695330e+00  -2.2823835483575925e+00  -2.1397191892126948e+00  -1.9970548309049743e+00  -1.8543904738778643e+00  -1.7117261220466657e+00  -1.5690617623548437e+00  -1.4263974493809772e+00  -1.2837329558376733e+00  -1.1410691621097564e+00  -9.9840263906029159e-01  -8.5574587986831574e-01  -7.1305467531947075e-01  -5.7047393568468963e-01  -4.2755749167352758e-01  -2.8556021421243716e-01  -1.4128318247045743e-01  -1.7456306776695786e-03  -1.1340632029572312e+01  -1.1198510121671658e+01  -1.1056089983929603e+01  -1.0913622804139713e+01  -1.0771106533865687e+01  -1.0628532534431104e+01  -1.0485904334392711e+01  -1.0343236374909353e+01  -1.0200543702810249e+01  -1.0057839560926642e+01  -9.9151320110227203e+00  -9.7724256553804612e+00  -9.6297219266192471e+00  -9.4870214079911790e+00  -9.3443239158421392e+00  -9.2016292072761665e+00  -9.0589371592071437e+00  -8.9162482762407738e+00  -8.7735632452434285e+00  -8.6308825157473361e+00  -8.4882059220963484e+00  -8.3455328288222148e+00  -8.2028623679397015e+00  -8.0601937302223146e+00  -7.9175262822328403e+00  -7.7748596016462983e+00  -7.6321934196004193e+00  -7.4895275744871590e+00  -7.3468619670500184e+00  -7.2041965350266581e+00  -7.0615312289336041e+00  -6.9188660075008794e+00  -6.7762008426685432e+00  -6.6335357257552028e+00  -6.4908706614237959e+00  -6.3482056574151464e+00  -6.2055407193660441e+00  -6.0628758551324422e+00  -5.9202110808355251e+00  -5.7775464207311957e+00  -5.6348818989186347e+00  -5.4922175285455452e+00  -5.3495533053235498e+00  -5.2068892085291356e+00  -5.0642252075922602e+00  -4.9215612699265678e+00  -4.7788973664037515e+00  -4.6362334733272066e+00  -4.4935695719249509e+00  -4.3509056471088927e+00  -4.2082416867669004e+00  -4.0655776818571638e+00  -3.9229136268866882e+00  -3.7802495201729855e+00  -3.6375853635563589e+00  -3.4949211615802507e+00  -3.3522569204109005e+00  -3.2095926468012683e+00  -3.0669283473121545e+00  -2.9242640278526264e+00  -2.7815996934960152e+00  -2.6389353484743463e+00  -2.4962709962600833e+00  -2.3536066396708124e+00  -2.2109422809637049e+00  -2.0682779219173617e+00  -1.9256135638600751e+00  -1.78294920778412