<?xml version="1.0"?>
<VTKFile type="UnstructuredGrid"  version="0.1"  >
<UnstructuredGrid>
<Piece  NumberOfPoints="1369" NumberOfCells="2560">
<Points>
<DataArray  type="Float64"  NumberOfComponents="3"  format="ascii">0 0 0  0.75 0 0  1.5 0 0  2.25 0 0  3 0 0  3.75 0 0  4.5 0 0  5.25 0 0  6 0 0  6.75 0 0  7.5 0 0  8.25 0 0  9 0 0  9.75 0 0  10.5 0 0  11.25 0 0  12 0 0  12.75 0 0  13.5 0 0  14.25 0 0  15 0 0  15.75 0 0  16.5 0 0  17.25 0 0  18 0 0  18.75 0 0  19.5 0 0  20.25 0 0  21 0 0  21.75 0 0  22.5 0 0  23.25 0 0  24 0 0  24.75 0 0  25.5 0 0  26.25 0 0  27 0 0  27.75 0 0  28.5 0 0  29.25 0 0  30 0 0  30.75 0 0  31.5 0 0  32.25 0 0  33 0 0  33.75 0 0  34.5 0 0  35.25 0 0  36 0 0  36.75 0 0  37.5 0 0  38.25 0 0  39 0 0  39.75 0 0  40.5 0 0  41.25 0 0  42 0 0  42.75 0 0  43.5 0 0  44.25 0 0  45 0 0  45.75 0 0  46.5 0 0  47.25 0 0  48 0 0  48.75 0 0  49.5 0 0  50.25 0 0  51 0 0  51.75 0 0  52.5 0 0  53.25 0 0  54 0 0  54.75 0 0  55.5 0 0  56.25 0 0  57 0 0  57.75 0 0  58.5 0 0  59.25 0 0  60 0 0  0 0.5 0  0.75 0.5 0  1.5 0.5 0  2.25 0.5 0  3 0.5 0  3.75 0.5 0  4.5 0.5 0  5.25 0.5 0  6 0.5 0  6.75 0.5 0  7.5 0.5 0  8.25 0.5 0  9 0.5 0  9.75 0.5 0  10.5 0.5 0  11.25 0.5 0  12 0.5 0  12.75 0.5 0  13.5 0.5 0  14.25 0.5 0  15 0.5 0  15.75 0.5 0  16.5 0.5 0  17.25 0.5 0  18 0.5 0  18.75 0.5 0  19.5 0.5 0  20.25 0.5 0  21 0.5 0  21.75 0.5 0  22.5 0.5 0  23.25 0.5 0  24 0.5 0  24.75 0.5 0  25.5 0.5 0  26.25 0.5 0  27 0.5 0  27.75 0.5 0  28.5 0.5 0  29.25 0.5 0  30 0.5 0  30.75 0.5 0  31.5 0.5 0  32.25 0.5 0  33 0.5 0  33.75 0.5 0  34.5 0.5 0  35.25 0.5 0  36 0.5 0  36.75 0.5 0  37.5 0.5 0  38.25 0.5 0  39 0.5 0  39.75 0.5 0  40.5 0.5 0  41.25 0.5 0  42 0.5 0  42.75 0.5 0  43.5 0.5 0  44.25 0.5 0  45 0.5 0  45.75 0.5 0  46.5 0.5 0  47.25 0.5 0  48 0.5 0  48.75 0.5 0  49.5 0.5 0  50.25 0.5 0  51 0.5 0  51.75 0.5 0  52.5 0.5 0  53.25 0.5 0  54 0.5 0  54.75 0.5 0  55.5 0.5 0  56.25 0.5 0  57 0.5 0  57.75 0.5 0  58.5 0.5 0  59.25 0.5 0  60 0.5 0  0 1 0  0.75 1 0  1.5 1 0  2.25 1 0  3 1 0  3.75 1 0  4.5 1 0  5.25 1 0  6 1 0  6.75 1 0  7.5 1 0  8.25 1 0  9 1 0  9.75 1 0  10.5 1 0  11.25 1 0  12 1 0  12.75 1 0  13.5 1 0  14.25 1 0  15 1 0  15.75 1 0  16.5 1 0  17.25 1 0  18 1 0  18.75 1 0  19.5 1 0  20.25 1 0  21 1 0  21.75 1 0  22.5 1 0  23.25 1 0  24 1 0  24.75 1 0  25.5 1 0  26.25 1 0  27 1 0  27.75 1 0  28.5 1 0  29.25 1 0  30 1 0  30.75 1 0  31.5 1 0  32.25 1 0  33 1 0  33.75 1 0  34.5 1 0  35.25 1 0  36 1 0  36.75 1 0  37.5 1 0  38.25 1 0  39 1 0  39.75 1 0  40.5 1 0  41.25 1 0  42 1 0  42.75 1 0  43.5 1 0  44.25 1 0  45 1 0  45.75 1 0  46.5 1 0  47.25 1 0  48 1 0  48.75 1 0  49.5 1 0  50.25 1 0  51 1 0  51.75 1 0  52.5 1 0  53.25 1 0  54 1 0  54.75 1 0  55.5 1 0  56.25 1 0  57 1 0  57.75 1 0  58.5 1 0  59.25 1 0  60 1 0  0 1.5 0  0.75 1.5 0  1.5 1.5 0  2.25 1.5 0  3 1.5 0  3.75 1.5 0  4.5 1.5 0  5.25 1.5 0  6 1.5 0  6.75 1.5 0  7.5 1.5 0  8.25 1.5 0  9 1.5 0  9.75 1.5 0  10.5 1.5 0  11.25 1.5 0  12 1.5 0  12.75 1.5 0  13.5 1.5 0  14.25 1.5 0  15 1.5 0  15.75 1.5 0  16.5 1.5 0  17.25 1.5 0  18 1.5 0  18.75 1.5 0  19.5 1.5 0  20.25 1.5 0  21 1.5 0  21.75 1.5 0  22.5 1.5 0  23.25 1.5 0  24 1.5 0  24.75 1.5 0  25.5 1.5 0  26.25 1.5 0  27 1.5 0  27.75 1.5 0  28.5 1.5 0  29.25 1.5 0  30 1.5 0  30.75 1.5 0  31.5 1.5 0  32.25 1.5 0  33 1.5 0  33.75 1.5 0  34.5 1.5 0  35.25 1.5 0  36 1.5 0  36.75 1.5 0  37.5 1.5 0  38.25 1.5 0  39 1.5 0  39.75 1.5 0  40.5 1.5 0  41.25 1.5 0  42 1.5 0  42.75 1.5 0  43.5 1.5 0  44.25 1.5 0  45 1.5 0  45.75 1.5 0  46.5 1.5 0  47.25 1.5 0  48 1.5 0  48.75 1.5 0  49.5 1.5 0  50.25 1.5 0  51 1.5 0  51.75 1.5 0  52.5 1.5 0  53.25 1.5 0  54 1.5 0  54.75 1.5 0  55.5 1.5 0  56.25 1.5 0  57 1.5 0  57.75 1.5 0  58.5 1.5 0  59.25 1.5 0  60 1.5 0  0 2 0  0.75 2 0  1.5 2 0  2.25 2 0  3 2 0  3.75 2 0  4.5 2 0  5.25 2 0  6 2 0  6.75 2 0  7.5 2 0  8.25 2 0  9 2 0  9.75 2 0  10.5 2 0  11.25 2 0  12 2 0  12.75 2 0  13.5 2 0  14.25 2 0  15 2 0  15.75 2 0  16.5 2 0  17.25 2 0  18 2 0  18.75 2 0  19.5 2 0  20.25 2 0  21 2 0  21.75 2 0  22.5 2 0  23.25 2 0  24 2 0  24.75 2 0  25.5 2 0  26.25 2 0  27 2 0  27.75 2 0  28.5 2 0  29.25 2 0  30 2 0  30.75 2 0  31.5 2 0  32.25 2 0  33 2 0  33.75 2 0  34.5 2 0  35.25 2 0  36 2 0  36.75 2 0  37.5 2 0  38.25 2 0  39 2 0  39.75 2 0  40.5 2 0  41.25 2 0  42 2 0  42.75 2 0  43.5 2 0  44.25 2 0  45 2 0  45.75 2 0  46.5 2 0  47.25 2 0  48 2 0  48.75 2 0  49.5 2 0  50.25 2 0  51 2 0  51.75 2 0  52.5 2 0  53.25 2 0  54 2 0  54.75 2 0  55.5 2 0  56.25 2 0  57 2 0  57.75 2 0  58.5 2 0  59.25 2 0  60 2 0  0 2.5 0  0.75 2.5 0  1.5 2.5 0  2.25 2.5 0  3 2.5 0  3.75 2.5 0  4.5 2.5 0  5.25 2.5 0  6 2.5 0  6.75 2.5 0  7.5 2.5 0  8.25 2.5 0  9 2.5 0  9.75 2.5 0  10.5 2.5 0  11.25 2.5 0  12 2.5 0  12.75 2.5 0  13.5 2.5 0  14.25 2.5 0  15 2.5 0  15.75 2.5 0  16.5 2.5 0  17.25 2.5 0  18 2.5 0  18.75 2.5 0  19.5 2.5 0  20.25 2.5 0  21 2.5 0  21.75 2.5 0  22.5 2.5 0  23.25 2.5 0  24 2.5 0  24.75 2.5 0  25.5 2.5 0  26.25 2.5 0  27 2.5 0  27.75 2.5 0  28.5 2.5 0  29.25 2.5 0  30 2.5 0  30.75 2.5 0  31.5 2.5 0  32.25 2.5 0  33 2.5 0  33.75 2.5 0  34.5 2.5 0  35.25 2.5 0  36 2.5 0  36.75 2.5 0  37.5 2.5 0  38.25 2.5 0  39 2.5 0  39.75 2.5 0  40.5 2.5 0  41.25 2.5 0  42 2.5 0  42.75 2.5 0  43.5 2.5 0  44.25 2.5 0  45 2.5 0  45.75 2.5 0  46.5 2.5 0  47.25 2.5 0  48 2.5 0  48.75 2.5 0  49.5 2.5 0  50.25 2.5 0  51 2.5 0  51.75 2.5 0  52.5 2.5 0  53.25 2.5 0  54 2.5 0  54.75 2.5 0  55.5 2.5 0  56.25 2.5 0  57 2.5 0  57.75 2.5 0  58.5 2.5 0  59.25 2.5 0  60 2.5 0  0 3 0  0.75 3 0  1.5 3 0  2.25 3 0  3 3 0  3.75 3 0  4.5 3 0  5.25 3 0  6 3 0  6.75 3 0  7.5 3 0  8.25 3 0  9 3 0  9.75 3 0  10.5 3 0  11.25 3 0  12 3 0  12.75 3 0  13.5 3 0  14.25 3 0  15 3 0  15.75 3 0  16.5 3 0  17.25 3 0  18 3 0  18.75 3 0  19.5 3 0  20.25 3 0  21 3 0  21.75 3 0  22.5 3 0  23.25 3 0  24 3 0  24.75 3 0  25.5 3 0  26.25 3 0  27 3 0  27.75 3 0  28.5 3 0  29.25 3 0  30 3 0  30.75 3 0  31.5 3 0  32.25 3 0  33 3 0  33.75 3 0  34.5 3 0  35.25 3 0  36 3 0  36.75 3 0  37.5 3 0  38.25 3 0  39 3 0  39.75 3 0  40.5 3 0  41.25 3 0  42 3 0  42.75 3 0  43.5 3 0  44.25 3 0  45 3 0  45.75 3 0  46.5 3 0  47.25 3 0  48 3 0  48.75 3 0  49.5 3 0  50.25 3 0  51 3 0  51.75 3 0  52.5 3 0  53.25 3 0  54 3 0  54.75 3 0  55.5 3 0  56.25 3 0  57 3 0  57.75 3 0  58.5 3 0  59.25 3 0  60 3 0  0 3.5 0  0.75 3.5 0  1.5 3.5 0  2.25 3.5 0  3 3.5 0  3.75 3.5 0  4.5 3.5 0  5.25 3.5 0  6 3.5 0  6.75 3.5 0  7.5 3.5 0  8.25 3.5 0  9 3.5 0  9.75 3.5 0  10.5 3.5 0  11.25 3.5 0  12 3.5 0  12.75 3.5 0  13.5 3.5 0  14.25 3.5 0  15 3.5 0  15.75 3.5 0  16.5 3.5 0  17.25 3.5 0  18 3.5 0  18.75 3.5 0  19.5 3.5 0  20.25 3.5 0  21 3.5 0  21.75 3.5 0  22.5 3.5 0  23.25 3.5 0  24 3.5 0  24.75 3.5 0  25.5 3.5 0  26.25 3.5 0  27 3.5 0  27.75 3.5 0  28.5 3.5 0  29.25 3.5 0  30 3.5 0  30.75 3.5 0  31.5 3.5 0  32.25 3.5 0  33 3.5 0  33.75 3.5 0  34.5 3.5 0  35.25 3.5 0  36 3.5 0  36.75 3.5 0  37.5 3.5 0  38.25 3.5 0  39 3.5 0  39.75 3.5 0  40.5 3.5 0  41.25 3.5 0  42 3.5 0  42.75 3.5 0  43.5 3.5 0  44.25 3.5 0  45 3.5 0  45.75 3.5 0  46.5 3.5 0  47.25 3.5 0  48 3.5 0  48.75 3.5 0  49.5 3.5 0  50.25 3.5 0  51 3.5 0  51.75 3.5 0  52.5 3.5 0  53.25 3.5 0  54 3.5 0  54.75 3.5 0  55.5 3.5 0  56.25 3.5 0  57 3.5 0  57.75 3.5 0  58.5 3.5 0  59.25 3.5 0  60 3.5 0  0 4 0  0.75 4 0  1.5 4 0  2.25 4 0  3 4 0  3.75 4 0  4.5 4 0  5.25 4 0  6 4 0  6.75 4 0  7.5 4 0  8.25 4 0  9 4 0  9.75 4 0  10.5 4 0  11.25 4 0  12 4 0  12.75 4 0  13.5 4 0  14.25 4 0  15 4 0  15.75 4 0  16.5 4 0  17.25 4 0  18 4 0  18.75 4 0  19.5 4 0  20.25 4 0  21 4 0  21.75 4 0  22.5 4 0  23.25 4 0  24 4 0  24.75 4 0  25.5 4 0  26.25 4 0  27 4 0  27.75 4 0  28.5 4 0  29.25 4 0  30 4 0  30.75 4 0  31.5 4 0  32.25 4 0  33 4 0  33.75 4 0  34.5 4 0  35.25 4 0  36 4 0  36.75 4 0  37.5 4 0  38.25 4 0  39 4 0  39.75 4 0  40.5 4 0  41.25 4 0  42 4 0  42.75 4 0  43.5 4 0  44.25 4 0  45 4 0  45.75 4 0  46.5 4 0  47.25 4 0  48 4 0  48.75 4 0  49.5 4 0  50.25 4 0  51 4 0  51.75 4 0  52.5 4 0  53.25 4 0  54 4 0  54.75 4 0  55.5 4 0  56.25 4 0  57 4 0  57.75 4 0  58.5 4 0  59.25 4 0  60 4 0  0.375 0.25 0  1.125 0.25 0  1.875 0.25 0  2.625 0.25 0  3.375 0.25 0  4.125 0.25 0  4.875 0.25 0  5.625 0.25 0  6.375 0.25 0  7.125 0.25 0  7.875 0.25 0  8.625 0.25 0  9.375 0.25 0  10.125 0.25 0  10.875 0.25 0  11.625 0.25 0  12.375 0.25 0  13.125 0.25 0  13.875 0.25 0  14.625 0.25 0  15.375 0.25 0  16.125 0.25 0  16.875 0.25 0  17.625 0.25 0  18.375 0.25 0  19.125 0.25 0  19.875 0.25 0  20.625 0.25 0  21.375 0.25 0  22.125 0.25 0  22.875 0.25 0  23.625 0.25 0  24.375 0.25 0  25.125 0.25 0  25.875 0.25 0  26.625 0.25 0  27.375 0.25 0  28.125 0.25 0  28.875 0.25 0  29.625 0.25 0  30.375 0.25 0  31.125 0.25 0  31.875 0.25 0  32.625 0.25 0  33.375 0.25 0  34.125 0.25 0  34.875 0.25 0  35.625 0.25 0  36.375 0.25 0  37.125 0.25 0  37.875 0.25 0  38.625 0.25 0  39.375 0.25 0  40.125 0.25 0  40.875 0.25 0  41.625 0.25 0  42.375 0.25 0  43.125 0.25 0  43.875 0.25 0  44.625 0.25 0  45.375 0.25 0  46.125 0.25 0  46.875 0.25 0  47.625 0.25 0  48.375 0.25 0  49.125 0.25 0  49.875 0.25 0  50.625 0.25 0  51.375 0.25 0  52.125 0.25 0  52.875 0.25 0  53.625 0.25 0  54.375 0.25 0  55.125 0.25 0  55.875 0.25 0  56.625 0.25 0  57.375 0.25 0  58.125 0.25 0  58.875 0.25 0  59.625 0.25 0  0.375 0.75 0  1.125 0.75 0  1.875 0.75 0  2.625 0.75 0  3.375 0.75 0  4.125 0.75 0  4.875 0.75 0  5.625 0.75 0  6.375 0.75 0  7.125 0.75 0  7.875 0.75 0  8.625 0.75 0  9.375 0.75 0  10.125 0.75 0  10.875 0.75 0  11.625 0.75 0  12.375 0.75 0  13.125 0.75 0  13.875 0.75 0  14.625 0.75 0  15.375 0.75 0  16.125 0.75 0  16.875 0.75 0  17.625 0.75 0  18.375 0.75 0  19.125 0.75 0  19.875 0.75 0  20.625 0.75 0  21.375 0.75 0  22.125 0.75 0  22.875 0.75 0  23.625 0.75 0  24.375 0.75 0  25.125 0.75 0  25.875 0.75 0  26.625 0.75 0  27.375 0.75 0  28.125 0.75 0  28.875 0.75 0  29.625 0.75 0  30.375 0.75 0  31.125 0.75 0  31.875 0.75 0  32.625 0.75 0  33.375 0.75 0  34.125 0.75 0  34.875 0.75 0  35.625 0.75 0  36.375 0.75 0  37.125 0.75 0  37.875 0.75 0  38.625 0.75 0  39.375 0.75 0  40.125 0.75 0  40
[...]
<PointData  Scalars="f_8-1"> 
<DataArray  type="Float64"  Name="f_8-1"  format="ascii">-3.7062424384605333e+00  -3.6630194381513137e+00  -3.6144899622059010e+00  -3.5689427271024123e+00  -3.5223536502108450e+00  -3.4761637870997317e+00  -3.4297245765250262e+00  -3.3833745837549523e+00  -3.3369790658659437e+00  -3.2906199133129448e+00  -3.2442639261227750e+00  -3.1979204945618731e+00  -3.1515804707982076e+00  -3.1052405917736809e+00  -3.0589022135244974e+00  -3.0125624194170801e+00  -2.9662237579235682e+00  -2.9198841954953649e+00  -2.8735453197915648e+00  -2.8272059780078966e+00  -2.7808669785053879e+00  -2.7345277575941696e+00  -2.6881886917267499e+00  -2.6418495269756268e+00  -2.5955104288117821e+00  -2.5491712884819342e+00  -2.5028321755785310e+00  -2.4564930453380804e+00  -2.4101539259096958e+00  -2.3638147995404455e+00  -2.3174756771964091e+00  -2.2711365520900344e+00  -2.2247974283389920e+00  -2.1784583034395553e+00  -2.1321191788838809e+00  -2.0857800537794322e+00  -2.0394409286490403e+00  -1.9931018031845862e+00  -1.9467626775636291e+00  -1.9004235516828376e+00  -1.8540844256008526e+00  -1.8077452992838707e+00  -1.7614061727507409e+00  -1.7150670459906820e+00  -1.6687279190095798e+00  -1.6223887918041031e+00  -1.5760496643759523e+00  -1.5297105367240791e+00  -1.4833714088489909e+00  -1.4370322807502942e+00  -1.3906931524280446e+00  -1.3443540238820599e+00  -1.2980148951121508e+00  -1.2516757661183042e+00  -1.2053366368999470e+00  -1.1589975074570038e+00  -1.1126583777885184e+00  -1.0663192478939048e+00  -1.0199801177707557e+00  -9.7364098741559024e-01  -9.2730185682024002e-01  -8.8096272596511938e-01  -8.3462359480994086e-01  -7.8828446324882806e-01  -7.4194533105950411e-01  -6.9560619768394716e-01  -6.4926706193250161e-01  -6.0292792103369519e-01  -5.5658876925181522e-01  -5.1024959445652796e-01  -4.6391037374164124e-01  -4.1757106535787580e-01  -3.7123160612460060e-01  -3.2489192805811329e-01  -2.7855206286093914e-01  -2.3221244618301085e-01  -1.8587497862963423e-01  -1.3954612796558494e-01  -9.3249204369989777e-02  -4.6974418941320741e-02  -2.7299440002208106e-03  -3.7086465497324639e+00  -3.6620105720868166e+00  -3.6150461810977141e+00  -3.5687685925292247e+00  -3.5224941888535874e+00  -3.4761416122779853e+00  -3.4297907043895752e+00  -3.3833951281025758e+00  -3.3370240597059349e+00  -3.2906523184012033e+00  -3.2443008962850439e+00  -3.1979548388442369e+00  -3.1516149233101767e+00  -3.1052753122587284e+00  -3.0589362614138751e+00  -3.0125971099155398e+00  -2.9662578562103046e+00  -2.9199187633091723e+00  -2.8735795195563303e+00  -2.8272404477344875e+00  -2.7809012506461683e+00  -2.7345621689714497e+00  -2.6882230049163787e+00  -2.6418839077113669e+00  -2.5955447630890780e+00  -2.5492056541104242e+00  -2.5028665201060596e+00  -2.4565274038301848e+00  -2.4101882752055097e+00  -2.3638491547969620e+00  -2.3175100286138650e+00  -2.2711709059429932e+00  -2.2248317806575191e+00  -2.1784926567111693e+00  -2.1321535315675013e+00  -2.0858144068209743e+00  -2.0394752814740005e+00  -1.9931361561388554e+00  -1.9467970304409166e+00  -1.9004579046051595e+00  -1.8541187784965849e+00  -1.8077796521946821e+00  -1.7614405256525378e+00  -1.7151013988972361e+00  -1.6687622719130168e+00  -1.6224231447088371e+00  -1.5760840172794799e+00  -1.5297448896278156e+00  -1.4834057617521368e+00  -1.4370666336532956e+00  -1.3907275053306498e+00  -1.3443883767844260e+00  -1.2980492480142549e+00  -1.2517101190200952e+00  -1.2053709898015843e+00  -1.1590318603582921e+00  -1.1126927306899039e+00  -1.0663536007949339e+00  -1.0200144706729761e+00  -9.7367534031884173e-01  -9.2733620973017528e-01  -8.8099707888639833e-01  -8.3465794776733782e-01  -7.8831881627843026e-01  -7.4197968427690697e-01  -6.9564055129660829e-01  -6.4930141647184714e-01  -6.0296227751335729e-01  -5.5662312991826846e-01  -5.1028396346314053e-01  -4.6394475904385157e-01  -4.1760547994337710e-01  -3.7126607042072429e-01  -3.2492646156092975e-01  -2.7858665781653269e-01  -2.3224698464174656e-01  -1.8590890721583994e-01  -1.3957786501607747e-01  -9.3267117116254461e-02  -4.7074610257264053e-02  -5.9149324684922883e-06  -3.7079559782798097e+00  -3.6620512940489851e+00  -3.6151425915884690e+00  -3.5688903627440101e+00  -3.5224714734328431e+00  -3.4761744894193312e+00  -3.4297776190126323e+00  -3.3834187897064170e+00  -3.3370303654440492e+00  -3.2906731818617518e+00  -3.2443134325922403e+00  -3.1979700560418256e+00  -3.1516262949288056e+00  -3.1052871708141931e+00  -3.0589472007816116e+00  -3.0126080711951491e+00  -2.9662688379766728e+00  -2.9199295459757866e+00  -2.8735905081579065e+00  -2.8272512194818922e+00  -2.7809122062603362e+00  -2.7345729666403749e+00  -2.6882339257906613e+00  -2.6418947317135415e+00  -2.5955556590865982e+00  -2.5492164965716144e+00  -2.5028774008788655e+00  -2.4565382573192660e+00  -2.4101991475613915e+00  -2.3638600142070607e+00  -2.3175208966937877e+00  -2.2711817682676201e+00  -2.2248426467239968e+00  -2.1785035203662004e+00  -2.1321643967486801e+00  -2.0858252710442904e+00  -2.0394861462890446e+00  -1.9931470205911659e+00  -1.9468078951124974e+00  -1.9004687691450688e+00  -1.8541296431144796e+00  -1.8077905167664743e+00  -1.7614513902509887e+00  -1.7151122634799372e+00  -1.6687731365043916e+00  -1.6224340092948080e+00  -1.5760948818679901e+00  -1.5297557542143210e+00  -1.4834166263391451e+00  -1.4370774982393735e+00  -1.3907383699166158e+00  -1.3443992413698369e+00  -1.2980601125994440e+00  -1.2517209836049290e+00  -1.2053818543862249e+00  -1.1590427249425994e+00  -1.1127035952735664e+00  -1.0663644653768394e+00  -1.0200253352501654e+00  -9.7368620488461399e-01  -9.2734707426797724e-01  -8.8100794336181065e-01  -8.3466881210082755e-01  -7.8832968031067507e-01  -7.4199054766287176e-01  -6.9565141337078418e-01  -6.4931227589562668e-01  -6.0297313184110668e-01  -5.5663397459110697e-01  -5.1029479060338800e-01  -4.6395555480514883e-01  -4.1761622085284017e-01  -3.7127671157227915e-01  -3.2493690234143691e-01  -2.7859661826722315e-01  -2.3225561194473304e-01  -1.8591346623026964e-01  -1.3956926712691087e-01  -9.3219174097839475e-02  -4.6795781913302914e-02  -2.4339127864701386e-05  -3.7084067127130154e+00  -3.6616476140947181e+00  -3.6153931746825148e+00  -3.5687608660432475e+00  -3.5225308491570306e+00  -3.4760819897223820e+00  -3.4297741227229350e+00  -3.3833655158584959e+00  -3.3370170079278205e+00  -3.2906392676515028e+00  -3.2442914759964032e+00  -3.1979383709078317e+00  -3.1515971856975393e+00  -3.1052547476532979e+00  -3.0589152994949989e+00  -3.0125756596875579e+00  -2.9662362430425047e+00  -2.9198972173908615e+00  -2.8735577962207799e+00  -2.8272188661052264e+00  -2.7808795202466858e+00  -2.7345405530152398e+00  -2.6882012896112983e+00  -2.6418622659496731e+00  -2.5955230633076787e+00  -2.5491839959802962e+00  -2.5028448310734013e+00  -2.4565057363544751e+00  -2.4101665924467195e+00  -2.3638274824026047e+00  -2.3174883491400777e+00  -2.2711492311399035e+00  -2.2248101027654541e+00  -2.1784709808045037e+00  -2.1321318543849843e+00  -2.0857927304388872e+00  -2.0394536045907352e+00  -1.9931144795632507e+00  -1.9467753536771684e+00  -1.9004362279546458e+00  -1.8540971017781847e+00  -1.8077579755162456e+00  -1.7614188489502829e+00  -1.7150797222083527e+00  -1.6687405952157539e+00  -1.6224014680155230e+00  -1.5760623405828995e+00  -1.5297232129319107e+00  -1.4833840850545614e+00  -1.4370449569552879e+00  -1.3907058286315310e+00  -1.3443667000846340e+00  -1.2980275713137224e+00  -1.2516884423190711e+00  -1.2053493131001558e+00  -1.1590101836565567e+00  -1.1126710539870555e+00  -1.0663319240892248e+00  -1.0199927939577418e+00  -9.7365366358077321e-01  -9.2731453293257904e-01  -8.8097540195621238e-01  -8.3463627052856881e-01  -7.8829713838347582e-01  -7.4195800495826858e-01  -6.9561886907583692e-01  -6.4927972833321290e-01  -6.0294057791457201e-01  -5.5660140843108552e-01  -5.1026220202245742e-01  -4.6392292576766131e-01  -4.1758352055791115e-01  -3.7124388175250883e-01  -3.2490381941823615e-01  -2.7856295547027715e-01  -2.3222040839183236e-01  -1.8587384843922686e-01  -1.3951649149002093e-01  -9.3127044743236242e-02  -4.6645283026698299e-02  -1.9601917088131572e-05  -3.7080585479932449e+00  -3.6618711788748097e+00  -3.6151915901826852e+00  -3.5689202242431373e+00  -3.5224176058279095e+00  -3.4761423780675220e+00  -3.4297183721056075e+00  -3.3833851030620541e+00  -3.3369922979233437e+00  -3.2906427338032094e+00  -3.2442782338748608e+00  -3.1979339053052667e+00  -3.1515870474434244e+00  -3.1052468243869629e+00  -3.0589061419439911e+00  -3.0125666289921886e+00  -2.9662274324939535e+00  -2.9198879377715548e+00  -2.8735490285629854e+00  -2.8272095998180236e+00  -2.7808706875157001e+00  -2.7345313589608158e+00  -2.6881923814657678e+00  -2.6418531370041238e+00  -2.5955140995063029e+00  -2.5491749108794899e+00  -2.5028358330100793e+00  -2.4564966768162808e+00  -2.4101575755068390e+00  -2.3638184363749977e+00  -2.3174793226475092e+00  -2.2711401917084060e+00  -2.2248010717785962e+00  -2.1784619443778270e+00  -2.1321228214172225e+00  -2.0857836952988755e+00  -2.0394445707998092e+00  -1.9931054449445327e+00  -1.9467663195618941e+00  -1.9004271935369750e+00  -1.8540880675410674e+00  -1.8077489411727419e+00  -1.7614098146692019e+00  -1.7150706878910309e+00  -1.6687315609192190e+00  -1.6223924337068762e+00  -1.5760533062808155e+00  -1.5297141786257062e+00  -1.4833750507501986e+00  -1.4370359226493876e+00  -1.3906967943259900e+00  -1.3443576657784577e+00  -1.2980185370075981e+00  -1.2516794080128300e+00  -1.2053402787941978e+00  -1.1590011493510668e+00  -1.1126620196823664e+00  -1.0663228897854857e+00  -1.0199837596545993e+00  -9.7364462927656159e-01  -9.2730549862216194e-01  -8.8096636762696112e-01  -8.3462723615064038e-01  -7.8828810389182724e-01  -7.4194897021363349e-01  -6.9560983379529651e-01  -6.4927069195532094e-01  -6.0293153937544819e-01  -5.5659236577047821e-01  -5.1025315178436115e-01  -4.6391386192989814e-01  -4.1757443239420400e-01  -3.7123474842440596e-01  -3.2489459366714668e-01  -2.7855350802554069e-01  -2.3221036123575367e-01  -1.8586205630803432e-01  -1.3949952275617583e-01  -9.3097451187697550e-02  -4.6606675410006529e-02  -1.2427470057987981e-05  -3.7084067421267011e+00  -3.6616475618971660e+00  -3.6153931515683362e+00  -3.5687608233686761e+00  -3.5225308570227170e+00  -3.4760819950978044e+00  -3.4297741454073458e+00  -3.3833655289980196e+00  -3.3370170198507463e+00  -3.2906392694961899e+00  -3.2442914749586076e+00  -3.1979383663201437e+00  -3.1515971818350281e+00  -3.1052547440635712e+00  -3.0589152974469500e+00  -3.0125756584672758e+00  -2.9662362428682418e+00  -2.9198972177778209e+00  -2.8735577971615487e+00  -2.8272188673503735e+00  -2.7808795217641182e+00  -2.7345405546877108e+00  -2.6882012914154396e+00  -2.6418622678319656e+00  -2.5955230652534702e+00  -2.5491839979656459e+00  -2.5028448330893678e+00  -2.4565057383906090e+00  -2.4101665944977806e+00  -2.3638274844641458e+00  -2.3174883512091946e+00  -2.2711492332146705e+00  -2.2248101048443378e+00  -2.1784709828866329e+00  -2.1321318564695622e+00  -2.0857927325254648e+00  -2.0394536066789009e+00  -1.9931144816527324e+00  -1.9467753557677052e+00  -1.9004362300460458e+00  -1.8540971038702441e+00  -1.8077579776087600e+00  -1.7614188510430904e+00  -1.7150797243012856e+00  -1.6687405973086382e+00  -1.6224014701082210e+00  -1.5760623426752645e+00  -1.5297232150238405e+00  -1.4833840871459776e+00  -1.4370449590461656e+00  -1.3907058307219060e+00  -1.3443667021746240e+00  -1.2980275734035509e+00  -1.2516884444090988e+00  -1.2053493151909500e+00  -1.1590101857489326e+00  -1.1126710560822060e+00  -1.0663319261888309e+00  -1.0199927960641895e+00  -9.7365366569742795e-01  -9.2731453506420269e-01  -8.8097540410948161e-01  -8.3463627271287799e-01  -7.8829714061201839e-01  -7.4195800724961958e-01  -6.9561887145635148e-01  -6.4927973084071333e-01  -6.0294058060431466e-01  -5.5660141138562513e-01  -5.1026220536849332e-01  -4.6392292970501253e-01  -4.1758352541052945e-01  -3.7124388806721725e-01  -3.2490382818510255e-01  -2.7856296862592317e-01  -2.3222042980491162e-01  -1.8587388523856208e-01  -1.3951655451590905e-01  -9.3127141985509365e-02  -4.6645383295040511e-02  -1.9611875563441054e-05  -3.7079559090771173e+00  -3.6620512789887032e+00  -3.6151424574706152e+00  -3.5688903318246084e+00  -3.5224714642766255e+00  -3.4761745321271649e+00  -3.4297776565681328e+00  -3.3834188342268940e+00  -3.3370303890562916e+00  -3.2906731939444298e+00  -3.2443134303068533e+00  -3.1979700513874421e+00  -3.1516262889530768e+00  -3.1052871679247254e+00  -3.0589471998949613e+00  -3.0126080730589666e+00  -2.9662688414456952e+00  -2.9199295510002323e+00  -2.8735905140795048e+00  -2.8272512261822973e+00  -2.7809122134191906e+00  -2.7345729741771247e+00  -2.6882339335576479e+00  -2.6418947396632673e+00  -2.5955556671522233e+00  -2.5492165047256545e+00  -2.5028774090913606e+00  -2.4565382655747614e+00  -2.4101991558466156e+00  -2.3638600225137667e+00  -2.3175209050160896e+00  -2.2711817766012392e+00  -2.2248426550662534e+00  -2.1785035287149452e+00  -2.1321644051025825e+00  -2.0858252794022478e+00  -2.0394861546503593e+00  -1.9931470289552145e+00  -1.9468079034788226e+00  -1.9004687775132172e+00  -1.8541296514840797e+00  -1.8077905251371107e+00  -1.7614513986223030e+00  -1.7151122718516008e+00  -1.6687731448760563e+00  -1.6224340176661562e+00  -1.5760948902387395e+00  -1.5297557625842322e+00  -1.4834166347080415e+00  -1.4370775066071937e+00  -1.3907383782834097e+00  -1.3443992497358312e+00  -1.2980601209650557e+00  -1.2517209919708843e+00  -1.2053818627536306e+00  -1.1590427333131039e+00  -1.1127036036495526e+00  -1.0663644737616860e+00  -1.0200253436486579e+00  -9.7368621330353544e-01  -9.2734708271689392e-01  -8.8100795185420100e-01  -8.3466882065563630e-01  -7.8832968895449618e-01  -7.4199055643313316e-01  -6.9565142232035782e-01  -6.4931228509997574e-01  -6.0297314140943714e-01  -5.5663398468482261e-01  -5.1029480146754036e-01  -4.6395556682361805e-01  -4.1761623464666320e-01  -3.7127672818271146e-01  -3.2493692360497911e-01  -2.7859664764831049e-01  -2.3225565632384665e-01  -1.8591353908570557e-01  -1.3956939210540831e-01  -9.3219383667024758e-02  -4.6796045148152859e-02  -2.4371044405261251e-05  -3.7086466916248058e+00  -3.6620104761009578e+00  -3.6150460392433033e+00  -3.5687685424931486e+00  -3.5224942395679166e+00  -3.4761416933479903e+00  -3.4297908045165628e+00  -3.3833952161233718e+00  -3.3370241289907425e+00  -3.2906523636209175e+00  -3.2443009279016204e+00  -3.1979548650843266e+00  -3.1516149505563864e+00  -3.1052753426370399e+00  -3.0589362954752333e+00  -3.0125971470931292e+00  -2.9662578958832801e+00  -2.9199188047899125e+00  -2.8735795623605345e+00  -2.8272404914604734e+00  -2.7809012950293903e+00  -2.7345622138098209e+00  -2.6882230500773976e+00  -2.6418839530968317e+00  -2.5955448086332500e+00  -2.5492056997656203e+00  -2.5028665658394864e+00  -2.4565274496188536e+00  -2.4101883210332766e+00  -2.3638492006528802e+00  -2.3175100744900932e+00  -2.2711709518342555e+00  -2.2248318265600240e+00  -2.1784927026223389e+00  -2.1321535774854024e+00  -2.0858144527442688e+00  -2.0394753274016804e+00  -1.9931362020701207e+00  -1.9467970763751021e+00  -1.9004579505416725e+00  -1.8541188244348703e+00  -1.8077796981342125e+00  -1.7614405715927934e+00  -1.7151014448377619e+00  -1.6687623178533493e+00  -1.6224231906485351e+00  -1.5760840632181634e+00  -1.5297449355651758e+00  -1.4834058076879302e+00  -1.4370666795874485e+00  -1.3907275512632391e+00  -1.3443884227157457e+00  -1.2980492939448760e+00  -1.2517101649509494e+00  -1.2053710357341398e+00  -1.1590319062946968e+00  -1.1126927766332435e+00  -1.0663536467495698e+00  -1.0200145166450905e+00  -9.7367538631715833e-01  -9.2733625576699263e-01  -8.8099712497901672e-01  -8.3465799394004370e-01  -7.8831886256526340e-01  -7.4197973072573520e-01  -6.9564059797498146e-01  -6.4930146347614848e-01  -6.0296232498314062e-01  -5.5662317805992045e-01  -5.1028401258980960e-01  -4.6394480964432960e-01  -4.1760553280354440e-01  -3.7126612685182109e-01  -3.2492652388575283e-01  -2.7858673049774574e-01  -2.3224707675946171e-01  -1.8590903698297864e-01  -1.3957806666405664e-01  -9.3267450983125638e-02  -4.7075243398790684e-02  -5.9463056103660241e-06  -3.7062424834531735e+00  -3.6630194724657272e+00  -3.6144897705287686e+00  -3.5689427272649596e+00  -3.5223537273223480e+00  -3.4761639037851308e+00  -3.4297247065713243e+00  -3.3833746991364277e+00  -3.3369791594824818e+00  -3.2906199838380590e+00  -3.2442639831490778e+00  -3.1979205474534993e+00  -3.1515805248559459e+00  -3.1052406496399105e+00  -3.0589022751927284e+00  -3.0125624845359829e+00  -2.9662238256302240e+00  -2.9198842651647321e+00  -2.8735453908418229e+00  -2.8272060500524350e+00  -2.7808670512378537e+00  -2.7345278308166479e+00  -2.6881887652877379e+00  -2.6418496007777406e+00  -2.5955105027810834e+00  -2.5491713625701431e+00  -2.5028322497497069e+00  -2.4564931195683055e+00  -2.4101540001817741e+00  -2.3638148738426055e+00  -2.3174757515204392e+00  -2.2711366264301769e+00  -2.2247975026912865e+00  -2.1784583778011055e+00  -2.1321192532526347e+00  -2.0857801281538708e+00  -2.0394410030280361e+00  -1.9931018775672149e+00  -1.9467627519491026e+00  -1.9004236260704950e+00  -1.8540844999899873e+00  -1.8077453736739255e+00  -1.7614062471411038e+00  -1.7150671203808403e+00  -1.6687279933990165e+00  -1.6223888661923167e+00  -1.5760497387625476e+00  -1.5297106111087522e+00  -1.4833714832314744e+00  -1.4370323551305360e+00  -1.3906932268061061e+00  -1.3443540982582871e+00  -1.2980149694871239e+00  -1.2516758404929444e+00  -1.2053367112757247e+00  -1.1589975818360430e+00  -1.1126584521737737e+00  -1.0663193222895637e+00  -1.0199801921827223e+00  -9.7364106185213806e-01  -9.2730193129291238e-01  -8.8096280049019304e-01  -8.3462366941011301e-01  -7.8828453795586495e-01  -7.4194540591804359e-01  -6.9560627275707909e-01  -6.4926713731058450e-01  -6.0292799684852716e-01  -5.5658884570016010e-01  -5.1024967184058512e-01  -4.6391045253926289e-01  -4.1757114635032383e-01  -3.7123169064674977e-01  -3.2489201854655869e-01  -2.7855216410120182e-01  -2.3221256791757375e-01  -1.8587514005391392e-01  -1.3954636413216784e-01  -9.3249582207072162e-02  -4.6975015409387193e-02  -2.7327108950737037e-03  -3.6862231757252992e+00  -3.6384148973551396e+00  -3.5919706207182758e+00  -3.5456732004629017e+00  -3.4993619069839799e+00  -3.4530175004176686e+00  -3.4066367487030607e+00  -3.3602581732992332e+00  -3.3138834983956160e+00  -3.2675238130327835e+00  -3.2211746005907620e+00  -3.1748322380517462e+00  -3.1284924376131729e+00  -3.0821531827504289e+00  -3.0358141280079307e+00  -2.9894748888562876e+00  -2.9431357734933474e+00  -2.8967965581026762e+00  -2.8504574448502100e+00  -2.8041182757845973e+00  -2.7577791647430607e+00  -2.7114400207062492e+00  -2.6651009062878463e+00  -2.6187617736134410e+00  -2.5724226554411631e+00  -2.5260835278521641e+00  -2.4797444070304553e+00  -2.4334052816097804e+00  -2.3870661591288793e+00  -2.3407270344710907e+00  -2.2943879109486431e+00  -2.2480487863813758e+00  -2.2017096621452255e+00  -2.1553705373587797e+00  -2.1090314125648018e+00  -2.0626922874237938e+00  -2.0163531621399096e+00  -1.9700140365880163e+00  -1.9236749108417697e+00  -1.8773357848566612e+00  -1.8309966586584039e+00  -1.7846575322317173e+00  -1.7383184055851180e+00  -1.6919792787135777e+00  -1.6456401516198542e+00  -1.5993010243022989e+00  -1.5529618967617602e+00  -1.5066227689976335e+00  -1.4602836410101547e+00  -1.4139445127990418e+00  -1.3676053843643357e+00  -1.3212662557058328e+00  -1.2749271268233102e+00  -1.2285879977166843e+00  -1.1822488683854075e+00  -1.1359097388293711e+00  -1.0895706090472301e+00  -1.0432314790389239e+00  -9.9689234880064148e-01  -9.5055321833046935e-01  -9.0421408761513966e-01  -8.5787495663852542e-01  -8.1153582533946322e-01  -7.6519669360803333e-01  -7.1885756112729104e-01  -6.7251842723895705e-01  -6.2617929030377339e-01  -5.7984014686