<?xml version="1.0"?>
<VTKFile type="UnstructuredGrid"  version="0.1"  >
<UnstructuredGrid>
<Piece  NumberOfPoints="1369" NumberOfCells="2560">
<Points>
<DataArray  type="Float64"  NumberOfComponents="3"  format="ascii">0 0 0  0.75 0 0  1.5 0 0  2.25 0 0  3 0 0  3.75 0 0  4.5 0 0  5.25 0 0  6 0 0  6.75 0 0  7.5 0 0  8.25 0 0  9 0 0  9.75 0 0  10.5 0 0  11.25 0 0  12 0 0  12.75 0 0  13.5 0 0  14.25 0 0  15 0 0  15.75 0 0  16.5 0 0  17.25 0 0  18 0 0  18.75 0 0  19.5 0 0  20.25 0 0  21 0 0  21.75 0 0  22.5 0 0  23.25 0 0  24 0 0  24.75 0 0  25.5 0 0  26.25 0 0  27 0 0  27.75 0 0  28.5 0 0  29.25 0 0  30 0 0  30.75 0 0  31.5 0 0  32.25 0 0  33 0 0  33.75 0 0  34.5 0 0  35.25 0 0  36 0 0  36.75 0 0  37.5 0 0  38.25 0 0  39 0 0  39.75 0 0  40.5 0 0  41.25 0 0  42 0 0  42.75 0 0  43.5 0 0  44.25 0 0  45 0 0  45.75 0 0  46.5 0 0  47.25 0 0  48 0 0  48.75 0 0  49.5 0 0  50.25 0 0  51 0 0  51.75 0 0  52.5 0 0  53.25 0 0  54 0 0  54.75 0 0  55.5 0 0  56.25 0 0  57 0 0  57.75 0 0  58.5 0 0  59.25 0 0  60 0 0  0 0.5 0  0.75 0.5 0  1.5 0.5 0  2.25 0.5 0  3 0.5 0  3.75 0.5 0  4.5 0.5 0  5.25 0.5 0  6 0.5 0  6.75 0.5 0  7.5 0.5 0  8.25 0.5 0  9 0.5 0  9.75 0.5 0  10.5 0.5 0  11.25 0.5 0  12 0.5 0  12.75 0.5 0  13.5 0.5 0  14.25 0.5 0  15 0.5 0  15.75 0.5 0  16.5 0.5 0  17.25 0.5 0  18 0.5 0  18.75 0.5 0  19.5 0.5 0  20.25 0.5 0  21 0.5 0  21.75 0.5 0  22.5 0.5 0  23.25 0.5 0  24 0.5 0  24.75 0.5 0  25.5 0.5 0  26.25 0.5 0  27 0.5 0  27.75 0.5 0  28.5 0.5 0  29.25 0.5 0  30 0.5 0  30.75 0.5 0  31.5 0.5 0  32.25 0.5 0  33 0.5 0  33.75 0.5 0  34.5 0.5 0  35.25 0.5 0  36 0.5 0  36.75 0.5 0  37.5 0.5 0  38.25 0.5 0  39 0.5 0  39.75 0.5 0  40.5 0.5 0  41.25 0.5 0  42 0.5 0  42.75 0.5 0  43.5 0.5 0  44.25 0.5 0  45 0.5 0  45.75 0.5 0  46.5 0.5 0  47.25 0.5 0  48 0.5 0  48.75 0.5 0  49.5 0.5 0  50.25 0.5 0  51 0.5 0  51.75 0.5 0  52.5 0.5 0  53.25 0.5 0  54 0.5 0  54.75 0.5 0  55.5 0.5 0  56.25 0.5 0  57 0.5 0  57.75 0.5 0  58.5 0.5 0  59.25 0.5 0  60 0.5 0  0 1 0  0.75 1 0  1.5 1 0  2.25 1 0  3 1 0  3.75 1 0  4.5 1 0  5.25 1 0  6 1 0  6.75 1 0  7.5 1 0  8.25 1 0  9 1 0  9.75 1 0  10.5 1 0  11.25 1 0  12 1 0  12.75 1 0  13.5 1 0  14.25 1 0  15 1 0  15.75 1 0  16.5 1 0  17.25 1 0  18 1 0  18.75 1 0  19.5 1 0  20.25 1 0  21 1 0  21.75 1 0  22.5 1 0  23.25 1 0  24 1 0  24.75 1 0  25.5 1 0  26.25 1 0  27 1 0  27.75 1 0  28.5 1 0  29.25 1 0  30 1 0  30.75 1 0  31.5 1 0  32.25 1 0  33 1 0  33.75 1 0  34.5 1 0  35.25 1 0  36 1 0  36.75 1 0  37.5 1 0  38.25 1 0  39 1 0  39.75 1 0  40.5 1 0  41.25 1 0  42 1 0  42.75 1 0  43.5 1 0  44.25 1 0  45 1 0  45.75 1 0  46.5 1 0  47.25 1 0  48 1 0  48.75 1 0  49.5 1 0  50.25 1 0  51 1 0  51.75 1 0  52.5 1 0  53.25 1 0  54 1 0  54.75 1 0  55.5 1 0  56.25 1 0  57 1 0  57.75 1 0  58.5 1 0  59.25 1 0  60 1 0  0 1.5 0  0.75 1.5 0  1.5 1.5 0  2.25 1.5 0  3 1.5 0  3.75 1.5 0  4.5 1.5 0  5.25 1.5 0  6 1.5 0  6.75 1.5 0  7.5 1.5 0  8.25 1.5 0  9 1.5 0  9.75 1.5 0  10.5 1.5 0  11.25 1.5 0  12 1.5 0  12.75 1.5 0  13.5 1.5 0  14.25 1.5 0  15 1.5 0  15.75 1.5 0  16.5 1.5 0  17.25 1.5 0  18 1.5 0  18.75 1.5 0  19.5 1.5 0  20.25 1.5 0  21 1.5 0  21.75 1.5 0  22.5 1.5 0  23.25 1.5 0  24 1.5 0  24.75 1.5 0  25.5 1.5 0  26.25 1.5 0  27 1.5 0  27.75 1.5 0  28.5 1.5 0  29.25 1.5 0  30 1.5 0  30.75 1.5 0  31.5 1.5 0  32.25 1.5 0  33 1.5 0  33.75 1.5 0  34.5 1.5 0  35.25 1.5 0  36 1.5 0  36.75 1.5 0  37.5 1.5 0  38.25 1.5 0  39 1.5 0  39.75 1.5 0  40.5 1.5 0  41.25 1.5 0  42 1.5 0  42.75 1.5 0  43.5 1.5 0  44.25 1.5 0  45 1.5 0  45.75 1.5 0  46.5 1.5 0  47.25 1.5 0  48 1.5 0  48.75 1.5 0  49.5 1.5 0  50.25 1.5 0  51 1.5 0  51.75 1.5 0  52.5 1.5 0  53.25 1.5 0  54 1.5 0  54.75 1.5 0  55.5 1.5 0  56.25 1.5 0  57 1.5 0  57.75 1.5 0  58.5 1.5 0  59.25 1.5 0  60 1.5 0  0 2 0  0.75 2 0  1.5 2 0  2.25 2 0  3 2 0  3.75 2 0  4.5 2 0  5.25 2 0  6 2 0  6.75 2 0  7.5 2 0  8.25 2 0  9 2 0  9.75 2 0  10.5 2 0  11.25 2 0  12 2 0  12.75 2 0  13.5 2 0  14.25 2 0  15 2 0  15.75 2 0  16.5 2 0  17.25 2 0  18 2 0  18.75 2 0  19.5 2 0  20.25 2 0  21 2 0  21.75 2 0  22.5 2 0  23.25 2 0  24 2 0  24.75 2 0  25.5 2 0  26.25 2 0  27 2 0  27.75 2 0  28.5 2 0  29.25 2 0  30 2 0  30.75 2 0  31.5 2 0  32.25 2 0  33 2 0  33.75 2 0  34.5 2 0  35.25 2 0  36 2 0  36.75 2 0  37.5 2 0  38.25 2 0  39 2 0  39.75 2 0  40.5 2 0  41.25 2 0  42 2 0  42.75 2 0  43.5 2 0  44.25 2 0  45 2 0  45.75 2 0  46.5 2 0  47.25 2 0  48 2 0  48.75 2 0  49.5 2 0  50.25 2 0  51 2 0  51.75 2 0  52.5 2 0  53.25 2 0  54 2 0  54.75 2 0  55.5 2 0  56.25 2 0  57 2 0  57.75 2 0  58.5 2 0  59.25 2 0  60 2 0  0 2.5 0  0.75 2.5 0  1.5 2.5 0  2.25 2.5 0  3 2.5 0  3.75 2.5 0  4.5 2.5 0  5.25 2.5 0  6 2.5 0  6.75 2.5 0  7.5 2.5 0  8.25 2.5 0  9 2.5 0  9.75 2.5 0  10.5 2.5 0  11.25 2.5 0  12 2.5 0  12.75 2.5 0  13.5 2.5 0  14.25 2.5 0  15 2.5 0  15.75 2.5 0  16.5 2.5 0  17.25 2.5 0  18 2.5 0  18.75 2.5 0  19.5 2.5 0  20.25 2.5 0  21 2.5 0  21.75 2.5 0  22.5 2.5 0  23.25 2.5 0  24 2.5 0  24.75 2.5 0  25.5 2.5 0  26.25 2.5 0  27 2.5 0  27.75 2.5 0  28.5 2.5 0  29.25 2.5 0  30 2.5 0  30.75 2.5 0  31.5 2.5 0  32.25 2.5 0  33 2.5 0  33.75 2.5 0  34.5 2.5 0  35.25 2.5 0  36 2.5 0  36.75 2.5 0  37.5 2.5 0  38.25 2.5 0  39 2.5 0  39.75 2.5 0  40.5 2.5 0  41.25 2.5 0  42 2.5 0  42.75 2.5 0  43.5 2.5 0  44.25 2.5 0  45 2.5 0  45.75 2.5 0  46.5 2.5 0  47.25 2.5 0  48 2.5 0  48.75 2.5 0  49.5 2.5 0  50.25 2.5 0  51 2.5 0  51.75 2.5 0  52.5 2.5 0  53.25 2.5 0  54 2.5 0  54.75 2.5 0  55.5 2.5 0  56.25 2.5 0  57 2.5 0  57.75 2.5 0  58.5 2.5 0  59.25 2.5 0  60 2.5 0  0 3 0  0.75 3 0  1.5 3 0  2.25 3 0  3 3 0  3.75 3 0  4.5 3 0  5.25 3 0  6 3 0  6.75 3 0  7.5 3 0  8.25 3 0  9 3 0  9.75 3 0  10.5 3 0  11.25 3 0  12 3 0  12.75 3 0  13.5 3 0  14.25 3 0  15 3 0  15.75 3 0  16.5 3 0  17.25 3 0  18 3 0  18.75 3 0  19.5 3 0  20.25 3 0  21 3 0  21.75 3 0  22.5 3 0  23.25 3 0  24 3 0  24.75 3 0  25.5 3 0  26.25 3 0  27 3 0  27.75 3 0  28.5 3 0  29.25 3 0  30 3 0  30.75 3 0  31.5 3 0  32.25 3 0  33 3 0  33.75 3 0  34.5 3 0  35.25 3 0  36 3 0  36.75 3 0  37.5 3 0  38.25 3 0  39 3 0  39.75 3 0  40.5 3 0  41.25 3 0  42 3 0  42.75 3 0  43.5 3 0  44.25 3 0  45 3 0  45.75 3 0  46.5 3 0  47.25 3 0  48 3 0  48.75 3 0  49.5 3 0  50.25 3 0  51 3 0  51.75 3 0  52.5 3 0  53.25 3 0  54 3 0  54.75 3 0  55.5 3 0  56.25 3 0  57 3 0  57.75 3 0  58.5 3 0  59.25 3 0  60 3 0  0 3.5 0  0.75 3.5 0  1.5 3.5 0  2.25 3.5 0  3 3.5 0  3.75 3.5 0  4.5 3.5 0  5.25 3.5 0  6 3.5 0  6.75 3.5 0  7.5 3.5 0  8.25 3.5 0  9 3.5 0  9.75 3.5 0  10.5 3.5 0  11.25 3.5 0  12 3.5 0  12.75 3.5 0  13.5 3.5 0  14.25 3.5 0  15 3.5 0  15.75 3.5 0  16.5 3.5 0  17.25 3.5 0  18 3.5 0  18.75 3.5 0  19.5 3.5 0  20.25 3.5 0  21 3.5 0  21.75 3.5 0  22.5 3.5 0  23.25 3.5 0  24 3.5 0  24.75 3.5 0  25.5 3.5 0  26.25 3.5 0  27 3.5 0  27.75 3.5 0  28.5 3.5 0  29.25 3.5 0  30 3.5 0  30.75 3.5 0  31.5 3.5 0  32.25 3.5 0  33 3.5 0  33.75 3.5 0  34.5 3.5 0  35.25 3.5 0  36 3.5 0  36.75 3.5 0  37.5 3.5 0  38.25 3.5 0  39 3.5 0  39.75 3.5 0  40.5 3.5 0  41.25 3.5 0  42 3.5 0  42.75 3.5 0  43.5 3.5 0  44.25 3.5 0  45 3.5 0  45.75 3.5 0  46.5 3.5 0  47.25 3.5 0  48 3.5 0  48.75 3.5 0  49.5 3.5 0  50.25 3.5 0  51 3.5 0  51.75 3.5 0  52.5 3.5 0  53.25 3.5 0  54 3.5 0  54.75 3.5 0  55.5 3.5 0  56.25 3.5 0  57 3.5 0  57.75 3.5 0  58.5 3.5 0  59.25 3.5 0  60 3.5 0  0 4 0  0.75 4 0  1.5 4 0  2.25 4 0  3 4 0  3.75 4 0  4.5 4 0  5.25 4 0  6 4 0  6.75 4 0  7.5 4 0  8.25 4 0  9 4 0  9.75 4 0  10.5 4 0  11.25 4 0  12 4 0  12.75 4 0  13.5 4 0  14.25 4 0  15 4 0  15.75 4 0  16.5 4 0  17.25 4 0  18 4 0  18.75 4 0  19.5 4 0  20.25 4 0  21 4 0  21.75 4 0  22.5 4 0  23.25 4 0  24 4 0  24.75 4 0  25.5 4 0  26.25 4 0  27 4 0  27.75 4 0  28.5 4 0  29.25 4 0  30 4 0  30.75 4 0  31.5 4 0  32.25 4 0  33 4 0  33.75 4 0  34.5 4 0  35.25 4 0  36 4 0  36.75 4 0  37.5 4 0  38.25 4 0  39 4 0  39.75 4 0  40.5 4 0  41.25 4 0  42 4 0  42.75 4 0  43.5 4 0  44.25 4 0  45 4 0  45.75 4 0  46.5 4 0  47.25 4 0  48 4 0  48.75 4 0  49.5 4 0  50.25 4 0  51 4 0  51.75 4 0  52.5 4 0  53.25 4 0  54 4 0  54.75 4 0  55.5 4 0  56.25 4 0  57 4 0  57.75 4 0  58.5 4 0  59.25 4 0  60 4 0  0.375 0.25 0  1.125 0.25 0  1.875 0.25 0  2.625 0.25 0  3.375 0.25 0  4.125 0.25 0  4.875 0.25 0  5.625 0.25 0  6.375 0.25 0  7.125 0.25 0  7.875 0.25 0  8.625 0.25 0  9.375 0.25 0  10.125 0.25 0  10.875 0.25 0  11.625 0.25 0  12.375 0.25 0  13.125 0.25 0  13.875 0.25 0  14.625 0.25 0  15.375 0.25 0  16.125 0.25 0  16.875 0.25 0  17.625 0.25 0  18.375 0.25 0  19.125 0.25 0  19.875 0.25 0  20.625 0.25 0  21.375 0.25 0  22.125 0.25 0  22.875 0.25 0  23.625 0.25 0  24.375 0.25 0  25.125 0.25 0  25.875 0.25 0  26.625 0.25 0  27.375 0.25 0  28.125 0.25 0  28.875 0.25 0  29.625 0.25 0  30.375 0.25 0  31.125 0.25 0  31.875 0.25 0  32.625 0.25 0  33.375 0.25 0  34.125 0.25 0  34.875 0.25 0  35.625 0.25 0  36.375 0.25 0  37.125 0.25 0  37.875 0.25 0  38.625 0.25 0  39.375 0.25 0  40.125 0.25 0  40.875 0.25 0  41.625 0.25 0  42.375 0.25 0  43.125 0.25 0  43.875 0.25 0  44.625 0.25 0  45.375 0.25 0  46.125 0.25 0  46.875 0.25 0  47.625 0.25 0  48.375 0.25 0  49.125 0.25 0  49.875 0.25 0  50.625 0.25 0  51.375 0.25 0  52.125 0.25 0  52.875 0.25 0  53.625 0.25 0  54.375 0.25 0  55.125 0.25 0  55.875 0.25 0  56.625 0.25 0  57.375 0.25 0  58.125 0.25 0  58.875 0.25 0  59.625 0.25 0  0.375 0.75 0  1.125 0.75 0  1.875 0.75 0  2.625 0.75 0  3.375 0.75 0  4.125 0.75 0  4.875 0.75 0  5.625 0.75 0  6.375 0.75 0  7.125 0.75 0  7.875 0.75 0  8.625 0.75 0  9.375 0.75 0  10.125 0.75 0  10.875 0.75 0  11.625 0.75 0  12.375 0.75 0  13.125 0.75 0  13.875 0.75 0  14.625 0.75 0  15.375 0.75 0  16.125 0.75 0  16.875 0.75 0  17.625 0.75 0  18.375 0.75 0  19.125 0.75 0  19.875 0.75 0  20.625 0.75 0  21.375 0.75 0  22.125 0.75 0  22.875 0.75 0  23.625 0.75 0  24.375 0.75 0  25.125 0.75 0  25.875 0.75 0  26.625 0.75 0  27.375 0.75 0  28.125 0.75 0  28.875 0.75 0  29.625 0.75 0  30.375 0.75 0  31.125 0.75 0  31.875 0.75 0  32.625 0.75 0  33.375 0.75 0  34.125 0.75 0  34.875 0.75 0  35.625 0.75 0  36.375 0.75 0  37.125 0.75 0  37.875 0.75 0  38.625 0.75 0  39.375 0.75 0  40.125 0.75 0  40
[...]
<PointData  Scalars="f_8-1"> 
<DataArray  type="Float64"  Name="f_8-1"  format="ascii">-1.1849319058069131e+01  -1.1703800928624181e+01  -1.1555868305450854e+01  -1.1407832144509243e+01  -1.1259745108577569e+01  -1.1111624294396014e+01  -1.0963480070509965e+01  -1.0815320386184387e+01  -1.0667151904033409e+01  -1.0518978995632013e+01  -1.0370804152458017e+01  -1.0222629950345723e+01  -1.0074458923217918e+01  -9.9262923581076876e+00  -9.7781298374659436e+00  -9.6299701376900195e+00  -9.4818120514885731e+00  -9.3336547738018414e+00  -9.1854978576364292e+00  -9.0373410971202279e+00  -8.8891844014814385e+00  -8.7410277365020868e+00  -8.5928710870334797e+00  -8.4447144477823333e+00  -8.2965578156145945e+00  -8.1484011895383563e+00  -8.0002445686896309e+00  -7.8520879528762269e+00  -7.7039313418302058e+00  -7.5557747355253451e+00  -7.4076181338747329e+00  -7.2594615368799476e+00  -7.1113049445125096e+00  -6.9631483567751102e+00  -6.8149917736588312e+00  -6.6668351951645350e+00  -6.5186786212897854e+00  -6.3705220520344445e+00  -6.2223654873981182e+00  -6.0742089273804121e+00  -5.9260523719814451e+00  -5.7778958212008913e+00  -5.6297392750388990e+00  -5.4815827334952703e+00  -5.3334261965701009e+00  -5.1852696642632736e+00  -5.0371131365748560e+00  -4.8889566135047735e+00  -4.7408000950530500e+00  -4.5926435812196367e+00  -4.4444870720045309e+00  -4.2963305674076677e+00  -4.1481740674289993e+00  -4.0000175720684110e+00  -3.8518610813257457e+00  -3.7037045952006706e+00  -3.5555481136926597e+00  -3.4073916368006856e+00  -3.2592351645229498e+00  -3.1110786968557718e+00  -2.9629222337924603e+00  -2.8147657753191364e+00  -2.6666093214102182e+00  -2.5184528720104589e+00  -2.3702964270270610e+00  -2.2221399862133207e+00  -2.0739835493504919e+00  -1.9258271148899104e+00  -1.7776706845495531e+00  -1.6295142418522055e+00  -1.4813578365921150e+00  -1.3332012329866667e+00  -1.1850452916317209e+00  -1.0368865764144566e+00  -8.8873748291265242e-01  -7.4055355290229941e-01  -5.9248160881453638e-01  -4.4406047468265381e-01  -2.9661316945769622e-01  -1.4664309022281646e-01  -2.0118253861862610e-03  -1.1852167444355542e+01  -1.1703741565920071e+01  -1.1555817381876047e+01  -1.1407768852876243e+01  -1.1259682912248451e+01  -1.1111565922407465e+01  -1.0963424833837388e+01  -1.0815267340166203e+01  -1.0667099863320630e+01  -1.0518927620331338e+01  -1.0370753099876183e+01  -1.0222578415202827e+01  -1.0074406450946627e+01  -9.9262390941735354e+00  -9.7780761386201185e+00  -9.6299162680989365e+00  -9.4817581388847127e+00  -9.3336008588767019e+00  -9.1854439481890804e+00  -9.0372871908590753e+00  -8.8891304967083933e+00  -8.7409738319125605e+00  -8.5928171825289041e+00  -8.4446605431537751e+00  -8.2965039109960248e+00  -8.1483472848622291e+00  -8.0001906640301179e+00  -7.8520340481945885e+00  -7.7038774371606031e+00  -7.5557208308473562e+00  -7.4075642292036523e+00  -7.2594076322061083e+00  -7.1112510398424806e+00  -6.9630944521046976e+00  -6.8149378689906683e+00  -6.6667812904969832e+00  -6.5186247166237754e+00  -6.3704681473694258e+00  -6.2223115827343749e+00  -6.0741550227177861e+00  -5.9259984673199968e+00  -5.7778419165405959e+00  -5.6296853703797547e+00  -5.4815288288372814e+00  -5.3333722919132507e+00  -5.1852157596075763e+00  -5.0370592319202947e+00  -4.8889027088513544e+00  -4.7407461904007597e+00  -4.5925896765684815e+00  -4.4444331673544939e+00  -4.2962766627587374e+00  -4.1481201627811606e+00  -3.9999636674216448e+00  -3.8518071766800346e+00  -3.7036506905560138e+00  -3.5554942090490607e+00  -3.4073377321582679e+00  -3.2591812598819550e+00  -3.1110247922170147e+00  -2.9628683291574052e+00  -2.8147118706917622e+00  -2.6665554167971748e+00  -2.5183989674311138e+00  -2.3702425225011585e+00  -2.2220860818610486e+00  -2.0739296450783065e+00  -1.9257732119113840e+00  -1.7776167794093607e+00  -1.6294603518466593e+00  -1.4813038977558848e+00  -1.3331475088241012e+00  -1.1849907899616483e+00  -1.0368350160544790e+00  -8.8867567815567738e-01  -7.4052611137998636e-01  -5.9234729556802290e-01  -4.4423070801175635e-01  -2.9598149099997506e-01  -1.4780938661987686e-01  5.6643057676562596e-04  -1.1852265859253698e+01  -1.1703920886496038e+01  -1.1555815397364805e+01  -1.1407742560874132e+01  -1.1259652921877722e+01  -1.1111536494907547e+01  -1.0963396682187037e+01  -1.0815240067244135e+01  -1.0667072863085540e+01  -1.0518900815091614e+01  -1.0370726432826194e+01  -1.0222550903663072e+01  -1.0074377757134924e+01  -9.9262096941266442e+00  -9.7780465890199686e+00  -9.6298868111569131e+00  -9.4817288129468000e+00  -9.3335716210876427e+00  -9.1854147585275889e+00  -9.0372580217899099e+00  -8.8891013364781468e+00  -8.7409446746558253e+00  -8.5927880266776011e+00  -8.4446313877217225e+00  -8.2964747558772789e+00  -8.1483181298215772e+00  -8.0001615090833340e+00  -7.8520048932644722e+00  -7.7038482822611192e+00  -7.5556916759521640e+00  -7.4075350743186084e+00  -7.2593784773230210e+00  -7.1112218849627453e+00  -6.9630652972264091e+00  -6.8149087141135576e+00  -6.6667521356210058e+00  -6.5185955617483504e+00  -6.3704389924949343e+00  -6.2222824278603008e+00  -6.0741258678444696e+00  -5.9259693124471182e+00  -5.7778127616683523e+00  -5.6296562155079739e+00  -5.4814996739660700e+00  -5.3333431370425295e+00  -5.1851866047373827e+00  -5.0370300770505922e+00  -4.8888735539821759e+00  -4.7407170355320849e+00  -4.5925605217003227e+00  -4.4444040124868405e+00  -4.2962475078916045e+00  -4.1480910079145499e+00  -3.9999345125555887e+00  -3.8517780218145452e+00  -3.7036215356911995e+00  -3.5554650541850665e+00  -3.4073085772954537e+00  -3.2591521050209415e+00  -3.1109956373592311e+00  -2.9628391743055347e+00  -2.8146827158514709e+00  -2.6665262619798571e+00  -2.5183698126583516e+00  -2.3702133678234079e+00  -2.2220569273440982e+00  -2.0739004910002392e+00  -1.9257440581957466e+00  -1.7775876284651297e+00  -1.6294311981188114e+00  -1.4812747708457099e+00  -1.3331183128824751e+00  -1.1849619067708816e+00  -1.0368051951612365e+00  -8.8864917964867862e-01  -7.4049050854618059e-01  -5.9233773431332393e-01  -4.4416771209815542e-01  -2.9602706099706622e-01  -1.4783417025880327e-01  -4.1004997696920619e-05  -1.1852254445834582e+01  -1.1704009586244208e+01  -1.1555870098434246e+01  -1.1407772271854215e+01  -1.1259673369646057e+01  -1.1111556306268691e+01  -1.0963418387917431e+01  -1.0815264454603126e+01  -1.0667099443488919e+01  -1.0518928720768630e+01  -1.0370755244910479e+01  -1.0222580719284988e+01  -1.0074407987945573e+01  -9.9262396755937043e+00  -9.7780760121564292e+00  -9.6299157509042388e+00  -9.4817574400571178e+00  -9.3336000920092062e+00  -9.1854431587529959e+00  -9.0372863962926999e+00  -8.8891297006700292e+00  -8.7409730358277926e+00  -8.5928163861602744e+00  -8.4446597467814559e+00  -8.2965031144951649e+00  -8.1483464883760348e+00  -8.0001898675058829e+00  -7.8520332516919629e+00  -7.7038766406503223e+00  -7.5557200343521549e+00  -7.4075634327081170e+00  -7.2594068357187247e+00  -7.1112502433560323e+00  -6.9630936556221661e+00  -6.8149370725090064e+00  -6.6667804940170425e+00  -6.5186239201444538e+00  -6.3704673508908467e+00  -6.2223107862561893e+00  -6.0741542262399237e+00  -5.9259976708423876e+00  -5.7778411200631341e+00  -5.6296845739024386e+00  -5.4815280323600470e+00  -5.3333714954361247e+00  -5.1852149631305116e+00  -5.0370584354433054e+00  -4.8889019123744397e+00  -4.7407453939239392e+00  -4.5925888800917543e+00  -4.4444323708778963e+00  -4.2962758662823175e+00  -4.1481193663049822e+00  -3.9999628709458173e+00  -3.8518063802046987e+00  -3.7036498940814271e+00  -3.5554934125756210e+00  -3.4073369356866139e+00  -3.2591804634131396e+00  -3.1110239957528432e+00  -2.9628675327010918e+00  -2.8147110742489492e+00  -2.6665546203786983e+00  -2.5183981710555949e+00  -2.3702417262103816e+00  -2.2220852857087516e+00  -2.0739288492789805e+00  -1.9257724164252861e+00  -1.7776159860624658e+00  -1.6294595566255430e+00  -1.4813031233244107e+00  -1.3331466842484931e+00  -1.1849902129772052e+00  -1.0368337464046262e+00  -8.8867711211077938e-01  -7.4052088069418731e-01  -5.9236412982358910e-01  -4.4421288514791962e-01  -2.9606847468458591e-01  -1.4800351497714265e-01  1.7671918106411504e-05  -1.1852247010260943e+01  -1.1704033214644607e+01  -1.1555882729149669e+01  -1.1407776309656594e+01  -1.1259673469442786e+01  -1.1111555506342569e+01  -1.0963418631612264e+01  -1.0815265643028384e+01  -1.0667101832591387e+01  -1.0518931728381972e+01  -1.0370758697721840e+01  -1.0222584757881034e+01  -1.0074412577629319e+01  -9.9262442989820165e+00  -9.7780803747925322e+00  -9.6299197938411556e+00  -9.4817612671046376e+00  -9.3336037938716139e+00  -9.1854468060915782e+00  -9.0372900188873615e+00  -8.8891333155401870e+00  -8.7409766468713048e+00  -8.5928199964551197e+00  -8.4446633563056306e+00  -8.2965067239973642e+00  -8.1483500976650731e+00  -8.0001934768381631e+00  -7.8520368609623263e+00  -7.7038802499535066e+00  -7.5557236436385491e+00  -7.4075670420120323e+00  -7.2594104450192578e+00  -7.1112538526644924e+00  -6.9630972649309477e+00  -6.8149406818209872e+00  -6.6667841033300856e+00  -6.5186275294586755e+00  -6.3704709602060374e+00  -6.2223143955718037e+00  -6.0741578355562442e+00  -5.9260012801589141e+00  -5.7778447293801403e+00  -5.6296881832196028e+00  -5.4815316416775586e+00  -5.3333751047537898e+00  -5.1852185724484583e+00  -5.0370620447614431e+00  -4.8889055216928279e+00  -4.7407490032425503e+00  -4.5925924894106505e+00  -4.4444359801970883e+00  -4.2962794756018878e+00  -4.1481229756250144e+00  -3.9999664802664410e+00  -3.8518099895261066e+00  -3.7036535034038796e+00  -3.5554970218994923e+00  -3.4073405450124215e+00  -3.2591840727415771e+00  -3.1110276050847818e+00  -2.9628711420375424e+00  -2.8147146835908510e+00  -2.6665582297263914e+00  -2.5184017804074088e+00  -2.3702453355603139e+00  -2.2220888950386066e+00  -2.0739324585557100e+00  -1.9257760255440624e+00  -1.7776195949472084e+00  -1.6294631646304487e+00  -1.4813067311521746e+00  -1.3331502867627807e+00  -1.1849938250444283e+00  -1.0368373227869310e+00  -8.8868083599963987e-01  -7.4052441559878412e-01  -5.9236930173485491e-01  -4.4421825924656805e-01  -2.9609081477981603e-01  -1.4801101794119562e-01  -1.3610212229785544e-05  -1.1852254445251804e+01  -1.1704009527316012e+01  -1.1555870044745511e+01  -1.1407772236005423e+01  -1.1259673350086567e+01  -1.1111556297690921e+01  -1.0963418384450872e+01  -1.0815264451242555e+01  -1.0667099438298228e+01  -1.0518928710977482e+01  -1.0370755231301318e+01  -1.0222580705011348e+01  -1.0074407973100534e+01  -9.9262396584454535e+00  -9.7780759922720808e+00  -9.6299157294547584e+00  -9.4817574185286375e+00  -9.3336000713240459e+00  -9.1854431391841977e+00  -9.0372863777327108e+00  -8.8891296828861837e+00  -8.7409730185971739e+00  -8.5928163693118638e+00  -8.4446597301953279e+00  -8.2965030980896834e+00  -8.1483464720956427e+00  -8.0001898513123155e+00  -7.8520332355586824e+00  -7.7038766245588590e+00  -7.5557200182895761e+00  -7.4075634166654742e+00  -7.2594068196897990e+00  -7.1112502273365292e+00  -6.9630936396091014e+00  -6.8149370565003666e+00  -6.6667804780114173e+00  -6.5186239041408980e+00  -6.3704673348887004e+00  -6.2223107702550102e+00  -6.0741542102394206e+00  -5.9259976548423365e+00  -5.7778411040633966e+00  -5.6296845579029302e+00  -5.4815280163607003e+00  -5.3333714794369076e+00  -5.1852149471314020e+00  -5.0370584194443042e+00  -4.8889018963755611e+00  -4.7407453779252098e+00  -4.5925888640932246e+00  -4.4444323548796545e+00  -4.2962758502844807e+00  -4.1481193503077476e+00  -3.9999628549494566e+00  -3.8518063642096161e+00  -3.7036498780881928e+00  -3.5554933965851072e+00  -3.4073369197000614e+00  -3.2591804474323856e+00  -3.1110239797805392e+00  -2.9628675167410812e+00  -2.8147110583068295e+00  -2.6665546044625161e+00  -2.5183981551769263e+00  -2.3702417103857520e+00  -2.2220852699615654e+00  -2.0739288336420385e+00  -1.9257724009439252e+00  -1.7776159707980723e+00  -1.6294595416592135e+00  -1.4813031087581683e+00  -1.3331466702063945e+00  -1.1849901995830072e+00  -1.0368337337898792e+00  -8.8867710023588353e-01  -7.4052086953039886e-01  -5.9236411820611168e-01  -4.4421287194047360e-01  -2.9606845425491707e-01  -1.4800349478530309e-01  1.7681800382411300e-05  -1.1852265827338165e+01  -1.1703920747194671e+01  -1.1555815282410547e+01  -1.1407742487407354e+01  -1.1259652879527016e+01  -1.1111536472248554e+01  -1.0963396668115005e+01  -1.0815240053390761e+01  -1.0667072845333085e+01  -1.0518900789363274e+01  -1.0370726401123047e+01  -1.0222550870156438e+01  -1.0074377721727691e+01  -9.9262096547964980e+00  -9.7780465457005423e+00  -9.6298867658202987e+00  -9.4817287678030553e+00  -9.3335715774475823e+00  -9.1854147167432636e+00  -9.0372579816596144e+00  -8.8891012976203196e+00  -8.7409446367081767e+00  -8.5927879893605947e+00  -8.4446313508379660e+00  -8.2964747192917390e+00  -8.1483180934422119e+00  -8.0001614728468677e+00  -7.8520048571271239e+00  -7.7038482461924227e+00  -7.5556916399309149e+00  -7.4075350383300718e+00  -7.2593784413569979e+00  -7.1112218490121606e+00  -6.9630652612864177e+00  -6.8149086781807959e+00  -6.6667520996932046e+00  -6.5185955258239403e+00  -6.3704389565728405e+00  -6.2222823919397987e+00  -6.0741258319250706e+00  -5.9259692765284591e+00  -5.7778127257502261e+00  -5.6296561795902234e+00  -5.4814996380485850e+00  -5.3333431011252559e+00  -5.1851865688203036e+00  -5.0370300411336846e+00  -4.8888735180654592e+00  -4.7407169996156231e+00  -4.5925604857841815e+00  -4.4444039765711798e+00  -4.2962474719766277e+00  -4.1480909720005590e+00  -3.9999344766430371e+00  -3.8517779859041061e+00  -3.7036214997838162e+00  -3.5554650182821605e+00  -3.4073085413990958e+00  -3.2591520691341338e+00  -3.1109956014863327e+00  -2.9628391384528823e+00  -2.8146826800282367e+00  -2.6665262261992346e+00  -2.5183697769392652e+00  -2.3702133321928018e+00  -2.2220568918399990e+00  -2.0739004556757026e+00  -1.9257440231235896e+00  -1.7775875937433827e+00  -1.6294311638742809e+00  -1.4812747372399808e+00  -1.3331182800867403e+00  -1.1849618750143591e+00  -1.0368051644151057e+00  -8.8864915034236269e-01  -7.4049047884608998e-01  -5.9233770585691703e-01  -4.4416767531666340e-01  -2.9602701474707471e-01  -1.4783409261472585e-01  -4.1018434492174965e-05  -1.1852167390264800e+01  -1.1703741139824299e+01  -1.1555817178346651e+01  -1.1407768716181250e+01  -1.1259682815067533e+01  -1.1111565847470199e+01  -1.0963424767857239e+01  -1.0815267274206981e+01  -1.0667099792082464e+01  -1.0518927541258186e+01  -1.0370753014797724e+01  -1.0222578326858233e+01  -1.0074406359637713e+01  -9.9262389991642532e+00  -9.7780760403937617e+00  -9.6299161684312313e+00  -9.4817580396629619e+00  -9.3336007612590741e+00  -9.1854438525142648e+00  -9.0372870969485746e+00  -8.8891304041881991e+00  -8.7409737404070587e+00  -8.5928170917358884e+00  -8.4446604528533911e+00  -8.2965038210351896e+00  -8.1483471951358570e+00  -8.0001905744660213e+00  -7.8520339587428793e+00  -7.7038773477866762e+00  -7.5557207415271792e+00  -7.4075641399205354e+00  -7.2594075429484732e+00  -7.1112509506023507e+00  -6.9630943628765722e+00  -6.8149377797707569e+00  -6.6667812012826886e+00  -6.5186246274133230e+00  -6.3704680581616131e+00  -6.2223114935283741e+00  -6.0741549335130420e+00  -5.9259983781161134e+00  -5.7778418273373129e+00  -5.6296852811768989e+00  -5.4815287396347276e+00  -5.3333722027109483e+00  -5.1852156704054746e+00  -5.0370591427183840e+00  -4.8889026196496399e+00  -4.7407461011993064e+00  -4.5925895873673719e+00  -4.4444330781538559e+00  -4.2962765735587940e+00  -4.1481200735822119e+00  -3.9999635782241501e+00  -3.8518070874846351e+00  -3.7036506013636941e+00  -3.5554941198612191e+00  -3.4073376429769793e+00  -3.2591811707101868e+00  -3.1110247030590967e+00  -2.9628682400196062e+00  -2.8147117815831084e+00  -2.6665553277306153e+00  -2.5183988784250877e+00  -2.3702424335817054e+00  -2.2220859930645265e+00  -2.0739295564547193e+00  -1.9257731235281168e+00  -1.7776166913540286e+00  -1.6294602642309124e+00  -1.4813038106988823e+00  -1.3331474224938196e+00  -1.1849907042916816e+00  -1.0368349316180070e+00  -8.8867559252979367e-01  -7.4052602996458905e-01  -5.9234719961969307e-01  -4.4423062515840306e-01  -2.9598137623256471e-01  -1.4780919714061902e-01  5.6657825737734153e-04  -1.1849315646160679e+01  -1.1703800549166699e+01  -1.1555868042585493e+01  -1.1407831959779163e+01  -1.1259744965400156e+01  -1.1111624172478223e+01  -1.0963479955798819e+01  -1.0815320269767117e+01  -1.0667151780572720e+01  -1.0518978863940132e+01  -1.0370804014824250e+01  -1.0222629808951064e+01  -1.0074458778457780e+01  -9.9262922098952053e+00  -9.7781296867101144e+00  -9.6299699861405088e+00  -9.4818119008140425e+00  -9.3336546249603582e+00  -9.1854977108539853e+00  -9.0373409521663390e+00  -8.8891842579608831e+00  -8.7410275940274929e+00  -8.5928709452947274e+00  -8.4447143065529175e+00  -8.2965576747365759e+00  -8.1484010489028158e+00  -8.0002444282218814e+00  -7.8520878125245783e+00  -7.7039312015588557e+00  -7.5557745953094830e+00  -7.4076179936971247e+00  -7.2594613967286010e+00  -7.1113048043792313e+00  -6.9631482166542042e+00  -6.8149916335464287e+00  -6.6668350550579198e+00  -6.5186784811871403e+00  -6.3705219119345351e+00  -6.2223653473000491e+00  -6.0742087872836521e+00  -5.9260522318855848e+00  -5.7778956811056483e+00  -5.6297391349440904e+00  -5.4815825934007902e+00  -5.3334260564758642e+00  -5.1852695241692333e+00  -5.0371129964809942e+00  -4.8889564734110982e+00  -4.7407999549596145e+00  -4.5926434411264729e+00  -4.4444869319118316e+00  -4.2963304273155440e+00  -4.1481739273377416e+00  -4.0000174319783941e+00  -3.8518609412375397e+00  -3.7037044551150955e+00  -3.5555479736109183e+00  -3.4073914967245380e+00  -3.2592350244549171e+00  -3.1110785567995065e+00  -2.9629220937532796e+00  -2.8147656353046075e+00  -2.6666091814311796e+00  -2.5184527320822339e+00  -2.3702962871710960e+00  -2.2221398464592208e+00  -2.0739834097382754e+00  -1.9258269754723152e+00  -1.7776705453927735e+00  -1.6295141030339877e+00  -1.4813576981994896e+00  -1.3332010950422530e+00  -1.1850451543491356e+00  -1.0368864385579126e+00  -8.8873734865671117e-01  -7.4055340209245790e-01  -5.9248150700429048e-01  -4.4406019691929949e-01  -2.9661332541765806e-01  -1.4664222943522914e-01  -2.0127398910181472e-03  -1.1777328482707334e+01  -1.1629711673113222e+01  -1.1481714348565035e+01  -1.1333649610102897e+01  -1.1185546821776537e+01  -1.1037416651494333e+01  -1.0889266599848137e+01  -1.0741103807061982e+01  -1.0592933741056877e+01  -1.0444760393197313e+01  -1.0296586020869833e+01  -1.0148413078698249e+01  -1.0000243754474718e+01  -9.8520787989603900e+00  -9.7039174509761086e+00  -9.5557584550672576e+00  -9.4076007349932791e+00  -9.2594436281371078e+00  -9.1112867870227952e+00  -8.9631300586795106e+00  -8.8149733779498440e+00  -8.6668167206281765e+00  -8.5186600760570723e+00  -8.3705034403003555e+00  -8.2223468111073679e+00  -8.0741901876369759e+00  -7.9260335692891601e+00  -7.7778769558613563e+00  -7.6297203471853967e+00  -7.4815637432110744e+00  -7.3334071438922237e+00  -7.1852505492147571e+00  -7.0370939591671409e+00  -6.8889373737441266e+00  -6.7407807929436503e+00  -6.5926242167631441e+00  -6.4444676452027876e+00  -6.2963110782611160e+00  -6.1481545159386535e+00  -5.9999979582345890e+00  -5.8518414051492931e+00  -5.7036848566823455e+00  -5.5555283128339621e+00  -5.4073717736039102e+00  -5.2592152389923168e+00  -5.1110587089990558e+00  -4.9629021836241893e+00  -4.8147456628676508e+00  -4.6665891467294580e+00  -4.5184326352095647e+00  -4.3702761283079505e+00  -4.2221196260245355e+00  -4.0739631283592557e+00  -3.9258066353119521e+00  -3.7776501468823946e+00  -3.6294936630701566e+00  -3.4813371838744711e+00  -3.3331807092939409e+00  -3.1850242393259482e+00  -3.0368677739654597e+00  -2.8887113132027471e+00  -2.7405548570187936e+00  -2.5923984053761253e+00  -2.4442419582013732e+00  -2.2960855153483872e+00  -2.1479290765373360e+00  -1.9997726411919652e+00  -1.85161620830151