<?xml version="1.0"?>
<VTKFile type="UnstructuredGrid"  version="0.1"  >
<UnstructuredGrid>
<Piece  NumberOfPoints="1369" NumberOfCells="2560">
<Points>
<DataArray  type="Float64"  NumberOfComponents="3"  format="ascii">0 0 0  0.75 0 0  1.5 0 0  2.25 0 0  3 0 0  3.75 0 0  4.5 0 0  5.25 0 0  6 0 0  6.75 0 0  7.5 0 0  8.25 0 0  9 0 0  9.75 0 0  10.5 0 0  11.25 0 0  12 0 0  12.75 0 0  13.5 0 0  14.25 0 0  15 0 0  15.75 0 0  16.5 0 0  17.25 0 0  18 0 0  18.75 0 0  19.5 0 0  20.25 0 0  21 0 0  21.75 0 0  22.5 0 0  23.25 0 0  24 0 0  24.75 0 0  25.5 0 0  26.25 0 0  27 0 0  27.75 0 0  28.5 0 0  29.25 0 0  30 0 0  30.75 0 0  31.5 0 0  32.25 0 0  33 0 0  33.75 0 0  34.5 0 0  35.25 0 0  36 0 0  36.75 0 0  37.5 0 0  38.25 0 0  39 0 0  39.75 0 0  40.5 0 0  41.25 0 0  42 0 0  42.75 0 0  43.5 0 0  44.25 0 0  45 0 0  45.75 0 0  46.5 0 0  47.25 0 0  48 0 0  48.75 0 0  49.5 0 0  50.25 0 0  51 0 0  51.75 0 0  52.5 0 0  53.25 0 0  54 0 0  54.75 0 0  55.5 0 0  56.25 0 0  57 0 0  57.75 0 0  58.5 0 0  59.25 0 0  60 0 0  0 0.5 0  0.75 0.5 0  1.5 0.5 0  2.25 0.5 0  3 0.5 0  3.75 0.5 0  4.5 0.5 0  5.25 0.5 0  6 0.5 0  6.75 0.5 0  7.5 0.5 0  8.25 0.5 0  9 0.5 0  9.75 0.5 0  10.5 0.5 0  11.25 0.5 0  12 0.5 0  12.75 0.5 0  13.5 0.5 0  14.25 0.5 0  15 0.5 0  15.75 0.5 0  16.5 0.5 0  17.25 0.5 0  18 0.5 0  18.75 0.5 0  19.5 0.5 0  20.25 0.5 0  21 0.5 0  21.75 0.5 0  22.5 0.5 0  23.25 0.5 0  24 0.5 0  24.75 0.5 0  25.5 0.5 0  26.25 0.5 0  27 0.5 0  27.75 0.5 0  28.5 0.5 0  29.25 0.5 0  30 0.5 0  30.75 0.5 0  31.5 0.5 0  32.25 0.5 0  33 0.5 0  33.75 0.5 0  34.5 0.5 0  35.25 0.5 0  36 0.5 0  36.75 0.5 0  37.5 0.5 0  38.25 0.5 0  39 0.5 0  39.75 0.5 0  40.5 0.5 0  41.25 0.5 0  42 0.5 0  42.75 0.5 0  43.5 0.5 0  44.25 0.5 0  45 0.5 0  45.75 0.5 0  46.5 0.5 0  47.25 0.5 0  48 0.5 0  48.75 0.5 0  49.5 0.5 0  50.25 0.5 0  51 0.5 0  51.75 0.5 0  52.5 0.5 0  53.25 0.5 0  54 0.5 0  54.75 0.5 0  55.5 0.5 0  56.25 0.5 0  57 0.5 0  57.75 0.5 0  58.5 0.5 0  59.25 0.5 0  60 0.5 0  0 1 0  0.75 1 0  1.5 1 0  2.25 1 0  3 1 0  3.75 1 0  4.5 1 0  5.25 1 0  6 1 0  6.75 1 0  7.5 1 0  8.25 1 0  9 1 0  9.75 1 0  10.5 1 0  11.25 1 0  12 1 0  12.75 1 0  13.5 1 0  14.25 1 0  15 1 0  15.75 1 0  16.5 1 0  17.25 1 0  18 1 0  18.75 1 0  19.5 1 0  20.25 1 0  21 1 0  21.75 1 0  22.5 1 0  23.25 1 0  24 1 0  24.75 1 0  25.5 1 0  26.25 1 0  27 1 0  27.75 1 0  28.5 1 0  29.25 1 0  30 1 0  30.75 1 0  31.5 1 0  32.25 1 0  33 1 0  33.75 1 0  34.5 1 0  35.25 1 0  36 1 0  36.75 1 0  37.5 1 0  38.25 1 0  39 1 0  39.75 1 0  40.5 1 0  41.25 1 0  42 1 0  42.75 1 0  43.5 1 0  44.25 1 0  45 1 0  45.75 1 0  46.5 1 0  47.25 1 0  48 1 0  48.75 1 0  49.5 1 0  50.25 1 0  51 1 0  51.75 1 0  52.5 1 0  53.25 1 0  54 1 0  54.75 1 0  55.5 1 0  56.25 1 0  57 1 0  57.75 1 0  58.5 1 0  59.25 1 0  60 1 0  0 1.5 0  0.75 1.5 0  1.5 1.5 0  2.25 1.5 0  3 1.5 0  3.75 1.5 0  4.5 1.5 0  5.25 1.5 0  6 1.5 0  6.75 1.5 0  7.5 1.5 0  8.25 1.5 0  9 1.5 0  9.75 1.5 0  10.5 1.5 0  11.25 1.5 0  12 1.5 0  12.75 1.5 0  13.5 1.5 0  14.25 1.5 0  15 1.5 0  15.75 1.5 0  16.5 1.5 0  17.25 1.5 0  18 1.5 0  18.75 1.5 0  19.5 1.5 0  20.25 1.5 0  21 1.5 0  21.75 1.5 0  22.5 1.5 0  23.25 1.5 0  24 1.5 0  24.75 1.5 0  25.5 1.5 0  26.25 1.5 0  27 1.5 0  27.75 1.5 0  28.5 1.5 0  29.25 1.5 0  30 1.5 0  30.75 1.5 0  31.5 1.5 0  32.25 1.5 0  33 1.5 0  33.75 1.5 0  34.5 1.5 0  35.25 1.5 0  36 1.5 0  36.75 1.5 0  37.5 1.5 0  38.25 1.5 0  39 1.5 0  39.75 1.5 0  40.5 1.5 0  41.25 1.5 0  42 1.5 0  42.75 1.5 0  43.5 1.5 0  44.25 1.5 0  45 1.5 0  45.75 1.5 0  46.5 1.5 0  47.25 1.5 0  48 1.5 0  48.75 1.5 0  49.5 1.5 0  50.25 1.5 0  51 1.5 0  51.75 1.5 0  52.5 1.5 0  53.25 1.5 0  54 1.5 0  54.75 1.5 0  55.5 1.5 0  56.25 1.5 0  57 1.5 0  57.75 1.5 0  58.5 1.5 0  59.25 1.5 0  60 1.5 0  0 2 0  0.75 2 0  1.5 2 0  2.25 2 0  3 2 0  3.75 2 0  4.5 2 0  5.25 2 0  6 2 0  6.75 2 0  7.5 2 0  8.25 2 0  9 2 0  9.75 2 0  10.5 2 0  11.25 2 0  12 2 0  12.75 2 0  13.5 2 0  14.25 2 0  15 2 0  15.75 2 0  16.5 2 0  17.25 2 0  18 2 0  18.75 2 0  19.5 2 0  20.25 2 0  21 2 0  21.75 2 0  22.5 2 0  23.25 2 0  24 2 0  24.75 2 0  25.5 2 0  26.25 2 0  27 2 0  27.75 2 0  28.5 2 0  29.25 2 0  30 2 0  30.75 2 0  31.5 2 0  32.25 2 0  33 2 0  33.75 2 0  34.5 2 0  35.25 2 0  36 2 0  36.75 2 0  37.5 2 0  38.25 2 0  39 2 0  39.75 2 0  40.5 2 0  41.25 2 0  42 2 0  42.75 2 0  43.5 2 0  44.25 2 0  45 2 0  45.75 2 0  46.5 2 0  47.25 2 0  48 2 0  48.75 2 0  49.5 2 0  50.25 2 0  51 2 0  51.75 2 0  52.5 2 0  53.25 2 0  54 2 0  54.75 2 0  55.5 2 0  56.25 2 0  57 2 0  57.75 2 0  58.5 2 0  59.25 2 0  60 2 0  0 2.5 0  0.75 2.5 0  1.5 2.5 0  2.25 2.5 0  3 2.5 0  3.75 2.5 0  4.5 2.5 0  5.25 2.5 0  6 2.5 0  6.75 2.5 0  7.5 2.5 0  8.25 2.5 0  9 2.5 0  9.75 2.5 0  10.5 2.5 0  11.25 2.5 0  12 2.5 0  12.75 2.5 0  13.5 2.5 0  14.25 2.5 0  15 2.5 0  15.75 2.5 0  16.5 2.5 0  17.25 2.5 0  18 2.5 0  18.75 2.5 0  19.5 2.5 0  20.25 2.5 0  21 2.5 0  21.75 2.5 0  22.5 2.5 0  23.25 2.5 0  24 2.5 0  24.75 2.5 0  25.5 2.5 0  26.25 2.5 0  27 2.5 0  27.75 2.5 0  28.5 2.5 0  29.25 2.5 0  30 2.5 0  30.75 2.5 0  31.5 2.5 0  32.25 2.5 0  33 2.5 0  33.75 2.5 0  34.5 2.5 0  35.25 2.5 0  36 2.5 0  36.75 2.5 0  37.5 2.5 0  38.25 2.5 0  39 2.5 0  39.75 2.5 0  40.5 2.5 0  41.25 2.5 0  42 2.5 0  42.75 2.5 0  43.5 2.5 0  44.25 2.5 0  45 2.5 0  45.75 2.5 0  46.5 2.5 0  47.25 2.5 0  48 2.5 0  48.75 2.5 0  49.5 2.5 0  50.25 2.5 0  51 2.5 0  51.75 2.5 0  52.5 2.5 0  53.25 2.5 0  54 2.5 0  54.75 2.5 0  55.5 2.5 0  56.25 2.5 0  57 2.5 0  57.75 2.5 0  58.5 2.5 0  59.25 2.5 0  60 2.5 0  0 3 0  0.75 3 0  1.5 3 0  2.25 3 0  3 3 0  3.75 3 0  4.5 3 0  5.25 3 0  6 3 0  6.75 3 0  7.5 3 0  8.25 3 0  9 3 0  9.75 3 0  10.5 3 0  11.25 3 0  12 3 0  12.75 3 0  13.5 3 0  14.25 3 0  15 3 0  15.75 3 0  16.5 3 0  17.25 3 0  18 3 0  18.75 3 0  19.5 3 0  20.25 3 0  21 3 0  21.75 3 0  22.5 3 0  23.25 3 0  24 3 0  24.75 3 0  25.5 3 0  26.25 3 0  27 3 0  27.75 3 0  28.5 3 0  29.25 3 0  30 3 0  30.75 3 0  31.5 3 0  32.25 3 0  33 3 0  33.75 3 0  34.5 3 0  35.25 3 0  36 3 0  36.75 3 0  37.5 3 0  38.25 3 0  39 3 0  39.75 3 0  40.5 3 0  41.25 3 0  42 3 0  42.75 3 0  43.5 3 0  44.25 3 0  45 3 0  45.75 3 0  46.5 3 0  47.25 3 0  48 3 0  48.75 3 0  49.5 3 0  50.25 3 0  51 3 0  51.75 3 0  52.5 3 0  53.25 3 0  54 3 0  54.75 3 0  55.5 3 0  56.25 3 0  57 3 0  57.75 3 0  58.5 3 0  59.25 3 0  60 3 0  0 3.5 0  0.75 3.5 0  1.5 3.5 0  2.25 3.5 0  3 3.5 0  3.75 3.5 0  4.5 3.5 0  5.25 3.5 0  6 3.5 0  6.75 3.5 0  7.5 3.5 0  8.25 3.5 0  9 3.5 0  9.75 3.5 0  10.5 3.5 0  11.25 3.5 0  12 3.5 0  12.75 3.5 0  13.5 3.5 0  14.25 3.5 0  15 3.5 0  15.75 3.5 0  16.5 3.5 0  17.25 3.5 0  18 3.5 0  18.75 3.5 0  19.5 3.5 0  20.25 3.5 0  21 3.5 0  21.75 3.5 0  22.5 3.5 0  23.25 3.5 0  24 3.5 0  24.75 3.5 0  25.5 3.5 0  26.25 3.5 0  27 3.5 0  27.75 3.5 0  28.5 3.5 0  29.25 3.5 0  30 3.5 0  30.75 3.5 0  31.5 3.5 0  32.25 3.5 0  33 3.5 0  33.75 3.5 0  34.5 3.5 0  35.25 3.5 0  36 3.5 0  36.75 3.5 0  37.5 3.5 0  38.25 3.5 0  39 3.5 0  39.75 3.5 0  40.5 3.5 0  41.25 3.5 0  42 3.5 0  42.75 3.5 0  43.5 3.5 0  44.25 3.5 0  45 3.5 0  45.75 3.5 0  46.5 3.5 0  47.25 3.5 0  48 3.5 0  48.75 3.5 0  49.5 3.5 0  50.25 3.5 0  51 3.5 0  51.75 3.5 0  52.5 3.5 0  53.25 3.5 0  54 3.5 0  54.75 3.5 0  55.5 3.5 0  56.25 3.5 0  57 3.5 0  57.75 3.5 0  58.5 3.5 0  59.25 3.5 0  60 3.5 0  0 4 0  0.75 4 0  1.5 4 0  2.25 4 0  3 4 0  3.75 4 0  4.5 4 0  5.25 4 0  6 4 0  6.75 4 0  7.5 4 0  8.25 4 0  9 4 0  9.75 4 0  10.5 4 0  11.25 4 0  12 4 0  12.75 4 0  13.5 4 0  14.25 4 0  15 4 0  15.75 4 0  16.5 4 0  17.25 4 0  18 4 0  18.75 4 0  19.5 4 0  20.25 4 0  21 4 0  21.75 4 0  22.5 4 0  23.25 4 0  24 4 0  24.75 4 0  25.5 4 0  26.25 4 0  27 4 0  27.75 4 0  28.5 4 0  29.25 4 0  30 4 0  30.75 4 0  31.5 4 0  32.25 4 0  33 4 0  33.75 4 0  34.5 4 0  35.25 4 0  36 4 0  36.75 4 0  37.5 4 0  38.25 4 0  39 4 0  39.75 4 0  40.5 4 0  41.25 4 0  42 4 0  42.75 4 0  43.5 4 0  44.25 4 0  45 4 0  45.75 4 0  46.5 4 0  47.25 4 0  48 4 0  48.75 4 0  49.5 4 0  50.25 4 0  51 4 0  51.75 4 0  52.5 4 0  53.25 4 0  54 4 0  54.75 4 0  55.5 4 0  56.25 4 0  57 4 0  57.75 4 0  58.5 4 0  59.25 4 0  60 4 0  0.375 0.25 0  1.125 0.25 0  1.875 0.25 0  2.625 0.25 0  3.375 0.25 0  4.125 0.25 0  4.875 0.25 0  5.625 0.25 0  6.375 0.25 0  7.125 0.25 0  7.875 0.25 0  8.625 0.25 0  9.375 0.25 0  10.125 0.25 0  10.875 0.25 0  11.625 0.25 0  12.375 0.25 0  13.125 0.25 0  13.875 0.25 0  14.625 0.25 0  15.375 0.25 0  16.125 0.25 0  16.875 0.25 0  17.625 0.25 0  18.375 0.25 0  19.125 0.25 0  19.875 0.25 0  20.625 0.25 0  21.375 0.25 0  22.125 0.25 0  22.875 0.25 0  23.625 0.25 0  24.375 0.25 0  25.125 0.25 0  25.875 0.25 0  26.625 0.25 0  27.375 0.25 0  28.125 0.25 0  28.875 0.25 0  29.625 0.25 0  30.375 0.25 0  31.125 0.25 0  31.875 0.25 0  32.625 0.25 0  33.375 0.25 0  34.125 0.25 0  34.875 0.25 0  35.625 0.25 0  36.375 0.25 0  37.125 0.25 0  37.875 0.25 0  38.625 0.25 0  39.375 0.25 0  40.125 0.25 0  40.875 0.25 0  41.625 0.25 0  42.375 0.25 0  43.125 0.25 0  43.875 0.25 0  44.625 0.25 0  45.375 0.25 0  46.125 0.25 0  46.875 0.25 0  47.625 0.25 0  48.375 0.25 0  49.125 0.25 0  49.875 0.25 0  50.625 0.25 0  51.375 0.25 0  52.125 0.25 0  52.875 0.25 0  53.625 0.25 0  54.375 0.25 0  55.125 0.25 0  55.875 0.25 0  56.625 0.25 0  57.375 0.25 0  58.125 0.25 0  58.875 0.25 0  59.625 0.25 0  0.375 0.75 0  1.125 0.75 0  1.875 0.75 0  2.625 0.75 0  3.375 0.75 0  4.125 0.75 0  4.875 0.75 0  5.625 0.75 0  6.375 0.75 0  7.125 0.75 0  7.875 0.75 0  8.625 0.75 0  9.375 0.75 0  10.125 0.75 0  10.875 0.75 0  11.625 0.75 0  12.375 0.75 0  13.125 0.75 0  13.875 0.75 0  14.625 0.75 0  15.375 0.75 0  16.125 0.75 0  16.875 0.75 0  17.625 0.75 0  18.375 0.75 0  19.125 0.75 0  19.875 0.75 0  20.625 0.75 0  21.375 0.75 0  22.125 0.75 0  22.875 0.75 0  23.625 0.75 0  24.375 0.75 0  25.125 0.75 0  25.875 0.75 0  26.625 0.75 0  27.375 0.75 0  28.125 0.75 0  28.875 0.75 0  29.625 0.75 0  30.375 0.75 0  31.125 0.75 0  31.875 0.75 0  32.625 0.75 0  33.375 0.75 0  34.125 0.75 0  34.875 0.75 0  35.625 0.75 0  36.375 0.75 0  37.125 0.75 0  37.875 0.75 0  38.625 0.75 0  39.375 0.75 0  40.125 0.75 0  40
[...]
<PointData  Scalars="f_8-1"> 
<DataArray  type="Float64"  Name="f_8-1"  format="ascii">-1.1849688952434079e+01  -1.1703797062852530e+01  -1.1555633451826827e+01  -1.1407699298573265e+01  -1.1259722282988699e+01  -1.1111688103696968e+01  -1.0963593973507907e+01  -1.0815456227939498e+01  -1.0667289999591086e+01  -1.0519108774335216e+01  -1.0370920683340310e+01  -1.0222730703430940e+01  -1.0074540572406203e+01  -9.9263529014326579e+00  -9.7781706986166661e+00  -9.6299961027784242e+00  -9.4818289482831286e+00  -9.3336676558061740e+00  -9.1855101862657360e+00  -9.0373549348570013e+00  -8.8892008399451843e+00  -8.7410473442714629e+00  -8.5928941682595585e+00  -8.4447411966070369e+00  -8.2965883707656776e+00  -8.1484356617806757e+00  -8.0002830442799233e+00  -7.8521304985531160e+00  -7.7039780058467935e+00  -7.5558255517610515e+00  -7.4076731245581522e+00  -7.2595207161108091e+00  -7.1113683205757310e+00  -6.9632159342333768e+00  -6.8150635546257856e+00  -6.6669111802471344e+00  -6.5187588101080918e+00  -6.3706064435321785e+00  -6.2224540800074504e+00  -6.0743017191055788e+00  -5.9261493604660274e+00  -5.7779970037704516e+00  -5.6298446487650642e+00  -5.4816922952420057e+00  -5.3335399430397459e+00  -5.1853875920153980e+00  -5.0372352420515707e+00  -4.8890828930565595e+00  -4.7409305449720591e+00  -4.5927781977556155e+00  -4.4446258513660410e+00  -4.2964735057555030e+00  -4.1483211608830537e+00  -4.0001688167287393e+00  -3.8520164732968696e+00  -3.7038641306007456e+00  -3.5557117886431948e+00  -3.4075594474068041e+00  -3.2594071068613379e+00  -3.1112547669805597e+00  -2.9631024277559455e+00  -2.8149500891979211e+00  -2.6667977513248600e+00  -2.5186454141474113e+00  -2.3704930776555373e+00  -2.2223407418118142e+00  -2.0741884065436831e+00  -1.9260360717146765e+00  -1.7778837370406100e+00  -1.6297314017115887e+00  -1.4815790640442132e+00  -1.3334267156657373e+00  -1.1852743533631300e+00  -1.0371218407817182e+00  -8.8896950589663837e-01  -7.4081419911195012e-01  -5.9266878656460398e-01  -4.4445715148068954e-01  -2.9649835017115134e-01  -1.4736865881590558e-01  -2.5484561697462025e-03  -1.1852395076829136e+01  -1.1703708347986350e+01  -1.1555663692779648e+01  -1.1407695919808269e+01  -1.1259719290008034e+01  -1.1111688302939946e+01  -1.0963599803646844e+01  -1.0815464354241596e+01  -1.0667300862334105e+01  -1.0519119950293778e+01  -1.0370932514747018e+01  -1.0222742614568302e+01  -1.0074552595738796e+01  -9.9263639714476408e+00  -9.7781807327262396e+00  -9.6300051467570942e+00  -9.4818375143596239e+00  -9.3336759722562856e+00  -9.1855184715099174e+00  -9.0373632048389663e+00  -8.8892091303162335e+00  -8.7410556286985450e+00  -8.5929024539457082e+00  -8.4447494708685671e+00  -8.2965966399419742e+00  -8.1484439225366714e+00  -8.0002913013860280e+00  -7.8521387514340120e+00  -7.7039862571384292e+00  -7.5558338013239483e+00  -7.4076813735699369e+00  -7.2595289644432137e+00  -7.1113765686833865e+00  -6.9632241820090748e+00  -6.8150718022268713e+00  -6.6669194276152304e+00  -6.5187670573037817e+00  -6.3706146905448104e+00  -6.2224623268680039e+00  -6.0743099658253907e+00  -5.9261576070618789e+00  -5.7780052502550641e+00  -5.6298528951427329e+00  -5.4817005415216862e+00  -5.3335481892259997e+00  -5.1853958381198781e+00  -5.0372434880790200e+00  -4.8890911390137548e+00  -4.7409387908627751e+00  -4.5927864435900894e+00  -4.4446340971554461e+00  -4.2964817515117621e+00  -4.1483294066125405e+00  -4.0001770624347026e+00  -3.8520247189814181e+00  -3.7038723762692345e+00  -3.5557200343036888e+00  -3.4075676930676222e+00  -3.2594153525269975e+00  -3.1112630126502077e+00  -2.9631106734244042e+00  -2.8149583348587255e+00  -2.6668059969735043e+00  -2.5186536597825153e+00  -2.3705013232797665e+00  -2.2223489874305749e+00  -2.0741966521704529e+00  -1.9260443173834396e+00  -1.7778919828398059e+00  -1.6297396480023927e+00  -1.4815873112217495e+00  -1.3334349689731699e+00  -1.1852826032827313e+00  -1.0371302047808508e+00  -8.8897749202350340e-01  -7.4082499814137848e-01  -5.9266702886327505e-01  -4.4452260793172116e-01  -2.9627944938852402e-01  -1.4831930469141519e-01  7.0213891633418696e-04  -1.1852296778435214e+01  -1.1703932187318777e+01  -1.1555728102427979e+01  -1.1407737842394164e+01  -1.1259732204746831e+01  -1.1111701619192964e+01  -1.0963609248524534e+01  -1.0815479224243221e+01  -1.0667315924112867e+01  -1.0519138536292699e+01  -1.0370950607142687e+01  -1.0222762427341587e+01  -1.0074572270961976e+01  -9.9263835981381483e+00  -9.7781990074139014e+00  -9.6300227368128866e+00  -9.4818544443520523e+00  -9.3336928284128771e+00  -9.1855352314088172e+00  -9.0373800455614219e+00  -8.8892259610908955e+00  -8.7410724981126009e+00  -8.5929193078473904e+00  -8.4447663334549343e+00  -8.2966134889606558e+00  -8.1484607725372857e+00  -8.0003081439056523e+00  -7.8521555942087948e+00  -7.7040030967051614e+00  -7.5558506412725892e+00  -7.4076982123110451e+00  -7.2595458034824132e+00  -7.1113934072633906e+00  -6.9632410207162971e+00  -6.8150886407140616e+00  -6.6669362660961990e+00  -6.5187838956466013e+00  -6.3706315288276754e+00  -6.2224791650594984e+00  -6.0743268039498224e+00  -5.9261744451238423e+00  -5.7780220882527349e+00  -5.6298697330811276e+00  -5.4817173793868150e+00  -5.3335650270248829e+00  -5.1854126758439030e+00  -5.0372603257328734e+00  -4.8891079765859633e+00  -4.7409556283538317e+00  -4.5928032809986741e+00  -4.4446509344934126e+00  -4.2964985887876832e+00  -4.1483462438350749e+00  -4.0001938996058257e+00  -3.8520415561049912e+00  -3.7038892133522214e+00  -3.5557368713593474e+00  -3.4075845301107326e+00  -3.2594321895702620e+00  -3.1112798497003422e+00  -2.9631275104826940e+00  -2.8149751719230292e+00  -2.6668228340418851e+00  -2.5186704968549032e+00  -2.3705181603597421e+00  -2.2223658245239748e+00  -2.0742134892876014e+00  -1.9260611545383350e+00  -1.7779088200715532e+00  -1.6297564853874602e+00  -1.4816041492509691e+00  -1.3334518080329558e+00  -1.1852994529941290e+00  -1.0371470526243156e+00  -8.8899455589164766e-01  -7.4084162509692930e-01  -5.9268827787080913e-01  -4.4453029047632842e-01  -2.9637421227310601e-01  -1.4820180432414237e-01  -1.2265640164003826e-05  -1.1852248789296340e+01  -1.1703973121707470e+01  -1.1555816927527003e+01  -1.1407742831050523e+01  -1.1259733803023838e+01  -1.1111676221573115e+01  -1.0963596814749332e+01  -1.0815463805542331e+01  -1.0667311912775473e+01  -1.0519134829085768e+01  -1.0370952727274373e+01  -1.0222763809525445e+01  -1.0074576388886689e+01  -9.9263879601316187e+00  -9.7782047170109099e+00  -9.6300276634233892e+00  -9.4818589220241183e+00  -9.3336961840488115e+00  -9.1855380903467783e+00  -9.0373823646045146e+00  -8.8892281401097062e+00  -8.7410745114843458e+00  -8.5929213134673574e+00  -8.4447682876766113e+00  -8.2966154485821519e+00  -8.1484627080201388e+00  -8.0003100792312232e+00  -7.8521575155471579e+00  -7.7040050159288560e+00  -7.5558525529775711e+00  -7.4077001225074541e+00  -7.2595477101691452e+00  -7.1113953132928787e+00  -6.9632429253133941e+00  -6.8150905451149892e+00  -6.6669381699726165e+00  -6.5187857994671576e+00  -6.3706334324486242e+00  -6.2224810686300778e+00  -6.0743287074240184e+00  -5.9261763485387862e+00  -5.7780239916128231e+00  -5.6298716363846104e+00  -5.4817192826410386e+00  -5.3335669302007016e+00  -5.1854145789388113e+00  -5.0372622287200857e+00  -4.8891098794656518e+00  -4.7409575311025867e+00  -4.5928051836073891e+00  -4.4446528369442007e+00  -4.2965004910863174e+00  -4.1483481459935909e+00  -4.0001958016480375e+00  -3.8520434580461536e+00  -3.7038911152027887e+00  -3.5557387731250087e+00  -3.4075864318054965e+00  -3.2594340912189894e+00  -3.1112817513374811e+00  -2.9631294121416354e+00  -2.8149770736273863e+00  -2.6668247358002568e+00  -2.5186723986642479e+00  -2.3705200622108586e+00  -2.2223677264082768e+00  -2.0742153911902341e+00  -1.9260630564141585e+00  -1.7779107217544261e+00  -1.6297583863790641e+00  -1.4816060480993223e+00  -1.3334537011177010e+00  -1.1853013300779742e+00  -1.0371488957940853e+00  -8.8899629559586324e-01  -7.4084329853773390e-01  -5.9268930783158869e-01  -4.4453345130375299e-01  -2.9637373417585600e-01  -1.4820911223295918e-01  4.7303341442420257e-06  -1.1852258047476436e+01  -1.1703990637714842e+01  -1.1555822352742132e+01  -1.1407757808151256e+01  -1.1259711516193015e+01  -1.1111670830764844e+01  -1.0963575002330007e+01  -1.0815456121143773e+01  -1.0667297709005465e+01  -1.0519128592204646e+01  -1.0370943486478117e+01  -1.0222758214443710e+01  -1.0074569062981970e+01  -9.9263828547060466e+00  -9.7781991415477840e+00  -9.6300229499131582e+00  -9.4818533920152834e+00  -9.3336905789474631e+00  -9.1855318438144327e+00  -9.0373760345665772e+00  -8.8892215385766651e+00  -8.7410679230103145e+00  -8.5929146318511069e+00  -8.4447616329443065e+00  -8.2966087569634421e+00  -8.1484560307994336e+00  -8.0003033836102357e+00  -7.8521508251955341e+00  -7.7039983158844949e+00  -7.5558458546179308e+00  -7.4076934194018413e+00  -7.2595410077203564e+00  -7.1113886087556839e+00  -6.9632362211571879e+00  -6.8150838401749319e+00  -6.6669314653185516e+00  -6.5187790945963933e+00  -6.3706267277677364e+00  -6.2224743639249382e+00  -6.0743220028208507e+00  -5.9261696439623126e+00  -5.7780172870880087e+00  -5.6298649318995651e+00  -5.4817125781727460e+00  -5.3335602257298422e+00  -5.1854078744104282e+00  -5.0372555241172750e+00  -4.8891031747511544e+00  -4.7409508262654310e+00  -4.5927984786066798e+00  -4.4446461317572838e+00  -4.2964937856929541e+00  -4.1483414404105812e+00  -4.0001890959013062e+00  -3.8520367521666583e+00  -3.7038844092030421e+00  -3.5557320670101213e+00  -3.4075797255827402e+00  -3.2594273849152589e+00  -3.1112750449978992e+00  -2.9631227058193859e+00  -2.8149703673657065e+00  -2.6668180296217661e+00  -2.5186656925704431e+00  -2.3705133561916281e+00  -2.2223610204547910e+00  -2.0742086853008619e+00  -1.9260563505869148e+00  -1.7779040159414303e+00  -1.6297516803637568e+00  -1.4815993411692601e+00  -1.3334469912048943e+00  -1.1852946117538570e+00  -1.0371421548034370e+00  -8.8898950186472736e-01  -7.4083637543584147e-01  -5.9268218648366922e-01  -4.4452588694667305e-01  -2.9636572248989518e-01  -1.4819462892715238e-01  -5.9999695196468911e-06  -1.1852248791440184e+01  -1.1703973097773634e+01  -1.1555816894675399e+01  -1.1407742802519234e+01  -1.1259733793740713e+01  -1.1111676230280226e+01  -1.0963596835649694e+01  -1.0815463831769812e+01  -1.0667311935613027e+01  -1.0519134846078355e+01  -1.0370952737794115e+01  -1.0222763811559931e+01  -1.0074576385157167e+01  -9.9263879550049943e+00  -9.7782047114970645e+00  -9.6300276562700358e+00  -9.4818589126402273e+00  -9.3336961732853254e+00  -9.1855380795855837e+00  -9.0373823548672476e+00  -8.8892281317604152e+00  -8.7410745043719409e+00  -8.5929213072096040e+00  -8.4447682819148895e+00  -8.2966154431107313e+00  -8.1484627027763796e+00  -8.0003100742153705e+00  -7.8521575107670927e+00  -7.7040050113935390e+00  -7.5558525487011625e+00  -7.4077001184983855e+00  -7.2595477064215181e+00  -7.1113953098010096e+00  -6.9632429220955725e+00  -6.8150905422135670e+00  -6.6669381674267383e+00  -6.5187857972894667e+00  -6.3706334306248458e+00  -6.2224810671294168e+00  -6.0743287062071065e+00  -5.9261763475662423e+00  -5.7780239908526143e+00  -5.6298716358049719e+00  -5.4817192821894221e+00  -5.3335669297943546e+00  -5.1854145784835932e+00  -5.0372622281379869e+00  -4.8891098787001441e+00  -4.7409575300988420e+00  -4.5928051822975746e+00  -4.4446528352621151e+00  -4.2965004890008469e+00  -4.1483481435267109e+00  -4.0001957988576908e+00  -3.8520434549888005e+00  -3.7038911119076330e+00  -3.5557387696004690e+00  -3.4075864280690698e+00  -3.2594340873243342e+00  -3.1112817473767409e+00  -2.9631294082214237e+00  -2.8149770698350678e+00  -2.6668247321814382e+00  -2.5186723952230725e+00  -2.3705200589309170e+00  -2.2223677232824759e+00  -2.0742153882476142e+00  -1.9260630537376426e+00  -1.7779107194906012e+00  -1.6297583847457915e+00  -1.4816060473971164e+00  -1.3334537017469670e+00  -1.1853013325579491e+00  -1.0371489007709727e+00  -8.8899630381029249e-01  -7.4084331071330700e-01  -5.9268932433509569e-01  -4.4453347168644974e-01  -2.9637375757425544e-01  -1.4820913853703527e-01  4.7393849473717395e-06  -1.1852296766620325e+01  -1.1703932148108720e+01  -1.1555728025290598e+01  -1.1407737791380784e+01  -1.1259732186147026e+01  -1.1111701636310691e+01  -1.0963609287185553e+01  -1.0815479271507195e+01  -1.0667315964711186e+01  -1.0519138566054089e+01  -1.0370950623907923e+01  -1.0222762429131137e+01  -1.0074572263172211e+01  -9.9263835873457964e+00  -9.7781989950856545e+00  -9.6300227214589427e+00  -9.4818544256497557e+00  -9.3336928079913619e+00  -9.1855352114602304e+00  -9.0373800275769156e+00  -8.8892259455125213e+00  -8.7410724846025740e+00  -8.5929192957547738e+00  -8.4447663222042149e+00  -8.2966134782323433e+00  -8.1484607622329008e+00  -8.0003081340217133e+00  -7.8521555847565159e+00  -7.7040030876999293e+00  -7.5558506327350754e+00  -7.4076982042499768e+00  -7.2595457958871519e+00  -7.1113934001302335e+00  -6.9632410140806815e+00  -6.8150886346426454e+00  -6.6669362606431459e+00  -6.5187838908214770e+00  -6.3706315245978473e+00  -6.2224791613664738e+00  -6.0743268007225737e+00  -5.9261744422926999e+00  -5.7780220857578195e+00  -5.6298697308568499e+00  -5.4817173773308037e+00  -5.3335650249905200e+00  -5.1854126736735067e+00  -5.0372603232972288e+00  -4.8891079737868406e+00  -4.7409556250937728e+00  -4.5928032771654719e+00  -4.4446509299891206e+00  -4.2964985835784892e+00  -4.1483462379708378e+00  -4.0001938931859584e+00  -3.8520415492202185e+00  -3.7038892060512167e+00  -3.5557368636655284e+00  -3.4075845220703176e+00  -3.2594321812893599e+00  -3.1112798413408016e+00  -2.9631275022192285e+00  -2.8149751638901952e+00  -2.6668228263031941e+00  -2.5186704894094039e+00  -2.3705181531796153e+00  -2.2223658176038246e+00  -2.0742134826868694e+00  -1.9260611484085790e+00  -1.7779088146718613e+00  -1.6297564810977503e+00  -1.4816041465921574e+00  -1.3334518076963289e+00  -1.1852994558719541e+00  -1.0371470598130166e+00  -8.8899456864617188e-01  -7.4084164448742729e-01  -5.9268830475110124e-01  -4.4453032196571590e-01  -2.9637424671572504e-01  -1.4820185346262144e-01  -1.2252376939809265e-05  -1.1852395117385502e+01  -1.1703708165712062e+01  -1.1555663581654454e+01  -1.1407695836812589e+01  -1.1259719250476728e+01  -1.1111688303807780e+01  -1.0963599828850088e+01  -1.0815464386885363e+01  -1.0667300887379389e+01  -1.0519119961774537e+01  -1.0370932509852089e+01  -1.0222742593585918e+01  -1.0074552564229826e+01  -9.9263639352869628e+00  -9.7781806938601097e+00  -9.6300051048141846e+00  -9.4818374696379983e+00  -9.3336759264333420e+00  -9.1855184266135339e+00  -9.0373631622243362e+00  -8.8892090903538072e+00  -8.7410555910252103e+00  -8.5929024179062630e+00  -8.4447494358836934e+00  -8.2965966056729954e+00  -8.1484438888563595e+00  -8.0002912682704306e+00  -7.8521387188880682e+00  -7.7039862251748907e+00  -7.5558337699562541e+00  -7.4076813427991324e+00  -7.2595289342580864e+00  -7.1113765390840920e+00  -6.9632241530282757e+00  -6.8150717739168396e+00  -6.6669194000103520e+00  -6.5187670303951410e+00  -6.3706146642820043e+00  -6.2224623011737092e+00  -6.0743099406100507e+00  -5.9261575822369590e+00  -5.7780052257364112e+00  -5.6298528708343794e+00  -5.4817005172928424e+00  -5.3335481649116900e+00  -5.1853958135518159e+00  -5.0372434631163632e+00  -4.8890911135429151e+00  -4.7409387647757812e+00  -4.5927864167787096e+00  -4.4446340695402569e+00  -4.2964817230812749e+00  -4.1483293774323222e+00  -4.0001770326119024e+00  -3.8520246886142586e+00  -3.7038723454223397e+00  -3.5557200030265448e+00  -3.4075676614362300e+00  -3.2594153206714775e+00  -3.1112629807445273e+00  -2.9631106416435911e+00  -2.8149583033310064e+00  -2.6668059657559260e+00  -2.5186536288722512e+00  -2.3705012926536440e+00  -2.2223489570941899e+00  -2.0741966222000445e+00  -1.9260442879530859e+00  -1.7778919542378544e+00  -1.6297396206459571e+00  -1.4815872856768313e+00  -1.3334349459805650e+00  -1.1852825837751522e+00  -1.0371301898746372e+00  -8.8897748280244415e-01  -7.4082499593379414e-01  -5.9266703082261707e-01  -4.4452262414779259e-01  -2.9627941199122232e-01  -1.4831937997301473e-01  7.0226036894981212e-04  -1.1849686645501656e+01  -1.1703797096454984e+01  -1.1555633306705618e+01  -1.1407699217516830e+01  -1.1259722245272748e+01  -1.1111688104783781e+01  -1.0963593996439219e+01  -1.0815456254721500e+01  -1.0667290017070531e+01  -1.0519108776195907e+01  -1.0370920667669276e+01  -1.0222730671990655e+01  -1.0074540530785765e+01  -9.9263528548324160e+00  -9.7781706491508906e+00  -9.6299960506209015e+00  -9.4818288940504800e+00  -9.3336676010863293e+00  -9.1855101328676572e+00  -9.0373548839371018e+00  -8.8892007917774372e+00  -8.7410472984671568e+00  -8.5928941241871044e+00  -8.4447411537136894e+00  -8.2965883287245639e+00  -8.1484356204565831e+00  -8.0002830036382981e+00  -7.8521304585912350e+00  -7.7039779665709283e+00  -7.5558255131744172e+00  -7.4076730866515259e+00  -7.2595206788661830e+00  -7.1113682839876073e+00  -6.9632158983221242e+00  -6.8150635194225586e+00  -6.6669111457618113e+00  -6.5187587763095456e+00  -6.3706064103504287e+00  -6.2224540473471706e+00  -6.0743016868610251e+00  -5.9261493285333362e+00  -5.7779969720480882e+00  -5.6298446171382013e+00  -5.4816922635657983e+00  -5.3335399111451629e+00  -5.1853875597378503e+00  -5.0372352092549697e+00  -4.8890828596308227e+00  -4.7409305108165922e+00  -4.5927781627788971e+00  -4.4446258155130343e+00  -4.2964734690382862e+00  -4.1483211233826722e+00  -4.0001687785598428e+00  -3.8520164345639034e+00  -3.7038640913796192e+00  -3.5557117489999457e+00  -3.4075594074332183e+00  -3.2594070666951440e+00  -3.1112547267917221e+00  -2.9631023877063245e+00  -2.8149500493997044e+00  -2.6667977118223880e+00  -2.5186453749313609e+00  -2.3704930387014955e+00  -2.2223407031256053e+00  -2.0741883681988789e+00  -1.9260360338759348e+00  -1.7778836999770009e+00  -1.6297313658076713e+00  -1.4815790298146347e+00  -1.3334266837722271e+00  -1.1852743246181145e+00  -1.0371218160876479e+00  -8.8896948625987482e-01  -7.4081418389947828e-01  -5.9266878173516069e-01  -4.4445711421601364e-01  -2.9649845719726614e-01  -1.4736814502876441e-01  -2.5500211359102166e-03  -1.1777939228103559e+01  -1.1629697205592723e+01  -1.1481706231279878e+01  -1.1333732958595846e+01  -1.1185727299239883e+01  -1.1037665507563016e+01  -1.0889550885095572e+01  -1.0741400820242076e+01  -1.0593227572801796e+01  -1.0445043498387454e+01  -1.0296854651125219e+01  -1.0148664915110254e+01  -1.0000475688511424e+01  -9.8522902424392136e+00  -9.7041112563445182e+00  -9.5559400579703073e+00  -9.4077756581102943e+00  -9.2596162432310880e+00  -9.1114598730860603e+00  -8.9633052131870219e+00  -8.8151514186528583e+00  -8.6669980853370312e+00  -8.5188450070616479e+00  -8.3706921057973585e+00  -8.2225393343077879e+00  -8.0743866688883976e+00  -7.9262340851380078e+00  -7.7780815648996064e+00  -7.6299290906713875e+00  -7.4817766496636269e+00  -7.3336242315646345e+00  -7.1854718294418767e+00  -7.0373194384001208e+00  -6.8891670553412290e+00  -6.7410146782760165e+00  -6.5928623059367366e+00  -6.4447099375145438e+00  -6.2965575723930671e+00  -6.1484052101253015e+00  -6.0002528502971462e+00  -5.8521004925840368e+00  -5.7039481366837661e+00  -5.5557957823751858e+00  -5.4076434294660594e+00  -5.2594910778118908e+00  -5.1113387272771709e+00  -4.9631863777594507e+00  -4.8150340291807341e+00  -4.6668816814944671e+00  -4.5187293346599127e+00  -4.3705769886340970e+00  -4.2224246433700516e+00  -4.0742722988352869e+00  -3.9261199550207682e+00  -3.7779676119368846e+00  -3.6298152695937778e+00  -3.4816629279852371e+00  -3.3335105870861192e+00  -3.1853582468653840e+00  -3.0372059073028610e+00  -2.8890535683981331e+00  -2.7409012301661684e+00  -2.5927488926230056e+00  -2.4445965557711289e+00  -2.2964442195880896e+00  -2.1482918840217016e+00  -2.0001395489732987e+00  -1.85198721424995