<?xml version="1.0"?>
<VTKFile type="UnstructuredGrid"  version="0.1"  >
<UnstructuredGrid>
<Piece  NumberOfPoints="1369" NumberOfCells="2560">
<Points>
<DataArray  type="Float64"  NumberOfComponents="3"  format="ascii">0 0 0  0.75 0 0  1.5 0 0  2.25 0 0  3 0 0  3.75 0 0  4.5 0 0  5.25 0 0  6 0 0  6.75 0 0  7.5 0 0  8.25 0 0  9 0 0  9.75 0 0  10.5 0 0  11.25 0 0  12 0 0  12.75 0 0  13.5 0 0  14.25 0 0  15 0 0  15.75 0 0  16.5 0 0  17.25 0 0  18 0 0  18.75 0 0  19.5 0 0  20.25 0 0  21 0 0  21.75 0 0  22.5 0 0  23.25 0 0  24 0 0  24.75 0 0  25.5 0 0  26.25 0 0  27 0 0  27.75 0 0  28.5 0 0  29.25 0 0  30 0 0  30.75 0 0  31.5 0 0  32.25 0 0  33 0 0  33.75 0 0  34.5 0 0  35.25 0 0  36 0 0  36.75 0 0  37.5 0 0  38.25 0 0  39 0 0  39.75 0 0  40.5 0 0  41.25 0 0  42 0 0  42.75 0 0  43.5 0 0  44.25 0 0  45 0 0  45.75 0 0  46.5 0 0  47.25 0 0  48 0 0  48.75 0 0  49.5 0 0  50.25 0 0  51 0 0  51.75 0 0  52.5 0 0  53.25 0 0  54 0 0  54.75 0 0  55.5 0 0  56.25 0 0  57 0 0  57.75 0 0  58.5 0 0  59.25 0 0  60 0 0  0 0.5 0  0.75 0.5 0  1.5 0.5 0  2.25 0.5 0  3 0.5 0  3.75 0.5 0  4.5 0.5 0  5.25 0.5 0  6 0.5 0  6.75 0.5 0  7.5 0.5 0  8.25 0.5 0  9 0.5 0  9.75 0.5 0  10.5 0.5 0  11.25 0.5 0  12 0.5 0  12.75 0.5 0  13.5 0.5 0  14.25 0.5 0  15 0.5 0  15.75 0.5 0  16.5 0.5 0  17.25 0.5 0  18 0.5 0  18.75 0.5 0  19.5 0.5 0  20.25 0.5 0  21 0.5 0  21.75 0.5 0  22.5 0.5 0  23.25 0.5 0  24 0.5 0  24.75 0.5 0  25.5 0.5 0  26.25 0.5 0  27 0.5 0  27.75 0.5 0  28.5 0.5 0  29.25 0.5 0  30 0.5 0  30.75 0.5 0  31.5 0.5 0  32.25 0.5 0  33 0.5 0  33.75 0.5 0  34.5 0.5 0  35.25 0.5 0  36 0.5 0  36.75 0.5 0  37.5 0.5 0  38.25 0.5 0  39 0.5 0  39.75 0.5 0  40.5 0.5 0  41.25 0.5 0  42 0.5 0  42.75 0.5 0  43.5 0.5 0  44.25 0.5 0  45 0.5 0  45.75 0.5 0  46.5 0.5 0  47.25 0.5 0  48 0.5 0  48.75 0.5 0  49.5 0.5 0  50.25 0.5 0  51 0.5 0  51.75 0.5 0  52.5 0.5 0  53.25 0.5 0  54 0.5 0  54.75 0.5 0  55.5 0.5 0  56.25 0.5 0  57 0.5 0  57.75 0.5 0  58.5 0.5 0  59.25 0.5 0  60 0.5 0  0 1 0  0.75 1 0  1.5 1 0  2.25 1 0  3 1 0  3.75 1 0  4.5 1 0  5.25 1 0  6 1 0  6.75 1 0  7.5 1 0  8.25 1 0  9 1 0  9.75 1 0  10.5 1 0  11.25 1 0  12 1 0  12.75 1 0  13.5 1 0  14.25 1 0  15 1 0  15.75 1 0  16.5 1 0  17.25 1 0  18 1 0  18.75 1 0  19.5 1 0  20.25 1 0  21 1 0  21.75 1 0  22.5 1 0  23.25 1 0  24 1 0  24.75 1 0  25.5 1 0  26.25 1 0  27 1 0  27.75 1 0  28.5 1 0  29.25 1 0  30 1 0  30.75 1 0  31.5 1 0  32.25 1 0  33 1 0  33.75 1 0  34.5 1 0  35.25 1 0  36 1 0  36.75 1 0  37.5 1 0  38.25 1 0  39 1 0  39.75 1 0  40.5 1 0  41.25 1 0  42 1 0  42.75 1 0  43.5 1 0  44.25 1 0  45 1 0  45.75 1 0  46.5 1 0  47.25 1 0  48 1 0  48.75 1 0  49.5 1 0  50.25 1 0  51 1 0  51.75 1 0  52.5 1 0  53.25 1 0  54 1 0  54.75 1 0  55.5 1 0  56.25 1 0  57 1 0  57.75 1 0  58.5 1 0  59.25 1 0  60 1 0  0 1.5 0  0.75 1.5 0  1.5 1.5 0  2.25 1.5 0  3 1.5 0  3.75 1.5 0  4.5 1.5 0  5.25 1.5 0  6 1.5 0  6.75 1.5 0  7.5 1.5 0  8.25 1.5 0  9 1.5 0  9.75 1.5 0  10.5 1.5 0  11.25 1.5 0  12 1.5 0  12.75 1.5 0  13.5 1.5 0  14.25 1.5 0  15 1.5 0  15.75 1.5 0  16.5 1.5 0  17.25 1.5 0  18 1.5 0  18.75 1.5 0  19.5 1.5 0  20.25 1.5 0  21 1.5 0  21.75 1.5 0  22.5 1.5 0  23.25 1.5 0  24 1.5 0  24.75 1.5 0  25.5 1.5 0  26.25 1.5 0  27 1.5 0  27.75 1.5 0  28.5 1.5 0  29.25 1.5 0  30 1.5 0  30.75 1.5 0  31.5 1.5 0  32.25 1.5 0  33 1.5 0  33.75 1.5 0  34.5 1.5 0  35.25 1.5 0  36 1.5 0  36.75 1.5 0  37.5 1.5 0  38.25 1.5 0  39 1.5 0  39.75 1.5 0  40.5 1.5 0  41.25 1.5 0  42 1.5 0  42.75 1.5 0  43.5 1.5 0  44.25 1.5 0  45 1.5 0  45.75 1.5 0  46.5 1.5 0  47.25 1.5 0  48 1.5 0  48.75 1.5 0  49.5 1.5 0  50.25 1.5 0  51 1.5 0  51.75 1.5 0  52.5 1.5 0  53.25 1.5 0  54 1.5 0  54.75 1.5 0  55.5 1.5 0  56.25 1.5 0  57 1.5 0  57.75 1.5 0  58.5 1.5 0  59.25 1.5 0  60 1.5 0  0 2 0  0.75 2 0  1.5 2 0  2.25 2 0  3 2 0  3.75 2 0  4.5 2 0  5.25 2 0  6 2 0  6.75 2 0  7.5 2 0  8.25 2 0  9 2 0  9.75 2 0  10.5 2 0  11.25 2 0  12 2 0  12.75 2 0  13.5 2 0  14.25 2 0  15 2 0  15.75 2 0  16.5 2 0  17.25 2 0  18 2 0  18.75 2 0  19.5 2 0  20.25 2 0  21 2 0  21.75 2 0  22.5 2 0  23.25 2 0  24 2 0  24.75 2 0  25.5 2 0  26.25 2 0  27 2 0  27.75 2 0  28.5 2 0  29.25 2 0  30 2 0  30.75 2 0  31.5 2 0  32.25 2 0  33 2 0  33.75 2 0  34.5 2 0  35.25 2 0  36 2 0  36.75 2 0  37.5 2 0  38.25 2 0  39 2 0  39.75 2 0  40.5 2 0  41.25 2 0  42 2 0  42.75 2 0  43.5 2 0  44.25 2 0  45 2 0  45.75 2 0  46.5 2 0  47.25 2 0  48 2 0  48.75 2 0  49.5 2 0  50.25 2 0  51 2 0  51.75 2 0  52.5 2 0  53.25 2 0  54 2 0  54.75 2 0  55.5 2 0  56.25 2 0  57 2 0  57.75 2 0  58.5 2 0  59.25 2 0  60 2 0  0 2.5 0  0.75 2.5 0  1.5 2.5 0  2.25 2.5 0  3 2.5 0  3.75 2.5 0  4.5 2.5 0  5.25 2.5 0  6 2.5 0  6.75 2.5 0  7.5 2.5 0  8.25 2.5 0  9 2.5 0  9.75 2.5 0  10.5 2.5 0  11.25 2.5 0  12 2.5 0  12.75 2.5 0  13.5 2.5 0  14.25 2.5 0  15 2.5 0  15.75 2.5 0  16.5 2.5 0  17.25 2.5 0  18 2.5 0  18.75 2.5 0  19.5 2.5 0  20.25 2.5 0  21 2.5 0  21.75 2.5 0  22.5 2.5 0  23.25 2.5 0  24 2.5 0  24.75 2.5 0  25.5 2.5 0  26.25 2.5 0  27 2.5 0  27.75 2.5 0  28.5 2.5 0  29.25 2.5 0  30 2.5 0  30.75 2.5 0  31.5 2.5 0  32.25 2.5 0  33 2.5 0  33.75 2.5 0  34.5 2.5 0  35.25 2.5 0  36 2.5 0  36.75 2.5 0  37.5 2.5 0  38.25 2.5 0  39 2.5 0  39.75 2.5 0  40.5 2.5 0  41.25 2.5 0  42 2.5 0  42.75 2.5 0  43.5 2.5 0  44.25 2.5 0  45 2.5 0  45.75 2.5 0  46.5 2.5 0  47.25 2.5 0  48 2.5 0  48.75 2.5 0  49.5 2.5 0  50.25 2.5 0  51 2.5 0  51.75 2.5 0  52.5 2.5 0  53.25 2.5 0  54 2.5 0  54.75 2.5 0  55.5 2.5 0  56.25 2.5 0  57 2.5 0  57.75 2.5 0  58.5 2.5 0  59.25 2.5 0  60 2.5 0  0 3 0  0.75 3 0  1.5 3 0  2.25 3 0  3 3 0  3.75 3 0  4.5 3 0  5.25 3 0  6 3 0  6.75 3 0  7.5 3 0  8.25 3 0  9 3 0  9.75 3 0  10.5 3 0  11.25 3 0  12 3 0  12.75 3 0  13.5 3 0  14.25 3 0  15 3 0  15.75 3 0  16.5 3 0  17.25 3 0  18 3 0  18.75 3 0  19.5 3 0  20.25 3 0  21 3 0  21.75 3 0  22.5 3 0  23.25 3 0  24 3 0  24.75 3 0  25.5 3 0  26.25 3 0  27 3 0  27.75 3 0  28.5 3 0  29.25 3 0  30 3 0  30.75 3 0  31.5 3 0  32.25 3 0  33 3 0  33.75 3 0  34.5 3 0  35.25 3 0  36 3 0  36.75 3 0  37.5 3 0  38.25 3 0  39 3 0  39.75 3 0  40.5 3 0  41.25 3 0  42 3 0  42.75 3 0  43.5 3 0  44.25 3 0  45 3 0  45.75 3 0  46.5 3 0  47.25 3 0  48 3 0  48.75 3 0  49.5 3 0  50.25 3 0  51 3 0  51.75 3 0  52.5 3 0  53.25 3 0  54 3 0  54.75 3 0  55.5 3 0  56.25 3 0  57 3 0  57.75 3 0  58.5 3 0  59.25 3 0  60 3 0  0 3.5 0  0.75 3.5 0  1.5 3.5 0  2.25 3.5 0  3 3.5 0  3.75 3.5 0  4.5 3.5 0  5.25 3.5 0  6 3.5 0  6.75 3.5 0  7.5 3.5 0  8.25 3.5 0  9 3.5 0  9.75 3.5 0  10.5 3.5 0  11.25 3.5 0  12 3.5 0  12.75 3.5 0  13.5 3.5 0  14.25 3.5 0  15 3.5 0  15.75 3.5 0  16.5 3.5 0  17.25 3.5 0  18 3.5 0  18.75 3.5 0  19.5 3.5 0  20.25 3.5 0  21 3.5 0  21.75 3.5 0  22.5 3.5 0  23.25 3.5 0  24 3.5 0  24.75 3.5 0  25.5 3.5 0  26.25 3.5 0  27 3.5 0  27.75 3.5 0  28.5 3.5 0  29.25 3.5 0  30 3.5 0  30.75 3.5 0  31.5 3.5 0  32.25 3.5 0  33 3.5 0  33.75 3.5 0  34.5 3.5 0  35.25 3.5 0  36 3.5 0  36.75 3.5 0  37.5 3.5 0  38.25 3.5 0  39 3.5 0  39.75 3.5 0  40.5 3.5 0  41.25 3.5 0  42 3.5 0  42.75 3.5 0  43.5 3.5 0  44.25 3.5 0  45 3.5 0  45.75 3.5 0  46.5 3.5 0  47.25 3.5 0  48 3.5 0  48.75 3.5 0  49.5 3.5 0  50.25 3.5 0  51 3.5 0  51.75 3.5 0  52.5 3.5 0  53.25 3.5 0  54 3.5 0  54.75 3.5 0  55.5 3.5 0  56.25 3.5 0  57 3.5 0  57.75 3.5 0  58.5 3.5 0  59.25 3.5 0  60 3.5 0  0 4 0  0.75 4 0  1.5 4 0  2.25 4 0  3 4 0  3.75 4 0  4.5 4 0  5.25 4 0  6 4 0  6.75 4 0  7.5 4 0  8.25 4 0  9 4 0  9.75 4 0  10.5 4 0  11.25 4 0  12 4 0  12.75 4 0  13.5 4 0  14.25 4 0  15 4 0  15.75 4 0  16.5 4 0  17.25 4 0  18 4 0  18.75 4 0  19.5 4 0  20.25 4 0  21 4 0  21.75 4 0  22.5 4 0  23.25 4 0  24 4 0  24.75 4 0  25.5 4 0  26.25 4 0  27 4 0  27.75 4 0  28.5 4 0  29.25 4 0  30 4 0  30.75 4 0  31.5 4 0  32.25 4 0  33 4 0  33.75 4 0  34.5 4 0  35.25 4 0  36 4 0  36.75 4 0  37.5 4 0  38.25 4 0  39 4 0  39.75 4 0  40.5 4 0  41.25 4 0  42 4 0  42.75 4 0  43.5 4 0  44.25 4 0  45 4 0  45.75 4 0  46.5 4 0  47.25 4 0  48 4 0  48.75 4 0  49.5 4 0  50.25 4 0  51 4 0  51.75 4 0  52.5 4 0  53.25 4 0  54 4 0  54.75 4 0  55.5 4 0  56.25 4 0  57 4 0  57.75 4 0  58.5 4 0  59.25 4 0  60 4 0  0.375 0.25 0  1.125 0.25 0  1.875 0.25 0  2.625 0.25 0  3.375 0.25 0  4.125 0.25 0  4.875 0.25 0  5.625 0.25 0  6.375 0.25 0  7.125 0.25 0  7.875 0.25 0  8.625 0.25 0  9.375 0.25 0  10.125 0.25 0  10.875 0.25 0  11.625 0.25 0  12.375 0.25 0  13.125 0.25 0  13.875 0.25 0  14.625 0.25 0  15.375 0.25 0  16.125 0.25 0  16.875 0.25 0  17.625 0.25 0  18.375 0.25 0  19.125 0.25 0  19.875 0.25 0  20.625 0.25 0  21.375 0.25 0  22.125 0.25 0  22.875 0.25 0  23.625 0.25 0  24.375 0.25 0  25.125 0.25 0  25.875 0.25 0  26.625 0.25 0  27.375 0.25 0  28.125 0.25 0  28.875 0.25 0  29.625 0.25 0  30.375 0.25 0  31.125 0.25 0  31.875 0.25 0  32.625 0.25 0  33.375 0.25 0  34.125 0.25 0  34.875 0.25 0  35.625 0.25 0  36.375 0.25 0  37.125 0.25 0  37.875 0.25 0  38.625 0.25 0  39.375 0.25 0  40.125 0.25 0  40.875 0.25 0  41.625 0.25 0  42.375 0.25 0  43.125 0.25 0  43.875 0.25 0  44.625 0.25 0  45.375 0.25 0  46.125 0.25 0  46.875 0.25 0  47.625 0.25 0  48.375 0.25 0  49.125 0.25 0  49.875 0.25 0  50.625 0.25 0  51.375 0.25 0  52.125 0.25 0  52.875 0.25 0  53.625 0.25 0  54.375 0.25 0  55.125 0.25 0  55.875 0.25 0  56.625 0.25 0  57.375 0.25 0  58.125 0.25 0  58.875 0.25 0  59.625 0.25 0  0.375 0.75 0  1.125 0.75 0  1.875 0.75 0  2.625 0.75 0  3.375 0.75 0  4.125 0.75 0  4.875 0.75 0  5.625 0.75 0  6.375 0.75 0  7.125 0.75 0  7.875 0.75 0  8.625 0.75 0  9.375 0.75 0  10.125 0.75 0  10.875 0.75 0  11.625 0.75 0  12.375 0.75 0  13.125 0.75 0  13.875 0.75 0  14.625 0.75 0  15.375 0.75 0  16.125 0.75 0  16.875 0.75 0  17.625 0.75 0  18.375 0.75 0  19.125 0.75 0  19.875 0.75 0  20.625 0.75 0  21.375 0.75 0  22.125 0.75 0  22.875 0.75 0  23.625 0.75 0  24.375 0.75 0  25.125 0.75 0  25.875 0.75 0  26.625 0.75 0  27.375 0.75 0  28.125 0.75 0  28.875 0.75 0  29.625 0.75 0  30.375 0.75 0  31.125 0.75 0  31.875 0.75 0  32.625 0.75 0  33.375 0.75 0  34.125 0.75 0  34.875 0.75 0  35.625 0.75 0  36.375 0.75 0  37.125 0.75 0  37.875 0.75 0  38.625 0.75 0  39.375 0.75 0  40.125 0.75 0  40
[...]
<PointData  Scalars="f_8-1"> 
<DataArray  type="Float64"  Name="f_8-1"  format="ascii">1.1997723568556776e+01  1.1851347945508708e+01  1.1699836653603986e+01  1.1550285274122087e+01  1.1400128669025676e+01  1.1250161766119350e+01  1.1100147468640159e+01  1.0950146365466518e+01  1.0800142610969695e+01  1.0650139653576568e+01  1.0500136601984130e+01  1.0350133605525931e+01  1.0200130611410790e+01  1.0050127620742868e+01  9.9001246283463420e+00  9.7501216327786970e+00  9.6001186330517303e+00  9.4501156287141406e+00  9.3001126195240253e+00  9.1501096053621946e+00  9.0001065861647405e+00  8.8501035619005570e+00  8.7001005325528045e+00  8.5500974981151696e+00  8.4000944585816324e+00  8.2500914139508961e+00  8.1000883642203174e+00  7.9500853093910662e+00  7.8000822494623252e+00  7.6500791844335208e+00  7.5000761143052506e+00  7.3500730390759568e+00  7.2000699587471697e+00  7.0500668733175518e+00  6.9000637827877584e+00  6.7500606871587063e+00  6.6000575864274058e+00  6.4500544805976192e+00  6.3000513696659546e+00  6.1500482536342673e+00  6.0000451325021364e+00  5.8500420062695504e+00  5.7000388749361655e+00  5.5500357385026033e+00  5.4000325969676437e+00  5.2500294503320264e+00  5.1000262985943259e+00  4.9500231417525047e+00  4.8000199798080390e+00  4.6500168127505308e+00  4.5000136405855580e+00  4.3500104632807766e+00  4.2000072808450826e+00  4.0500040931791208e+00  3.9000009002794100e+00  3.7499977018435917e+00  3.5999944977348335e+00  3.4499912870059073e+00  3.2999880688243328e+00  3.1499848399950121e+00  2.9999815959620579e+00  2.8499783221052302e+00  2.6999749858066693e+00  2.5499714920504699e+00  2.3999676144118931e+00  2.2499628290928415e+00  2.0999561522956012e+00  1.9499460484908595e+00  1.7999309272503499e+00  1.6499102567233683e+00  1.4998858239738369e+00  1.3498610183810378e+00  1.1998391556913797e+00  1.0498235876159703e+00  8.9982035236343605e-01  7.4983811123588384e-01  5.9988588754527805e-01  4.4997272621568385e-01  3.0009588733718351e-01  1.5026188574198490e-01  2.8605187619597386e-03  1.2000655851313130e+01  1.1850210363506363e+01  1.1700301685599332e+01  1.1550181859594080e+01  1.1400204760882241e+01  1.1250187977633843e+01  1.1100186990274270e+01  1.0950182769066307e+01  1.0800179804442111e+01  1.0650176698504335e+01  1.0500173693356984e+01  1.0350170693950998e+01  1.0200167703944896e+01  1.0050164714190400e+01  9.9001617224962910e+00  9.7501587272302359e+00  9.6001557276636742e+00  9.4501527234016258e+00  9.3001497142485512e+00  9.1501467001033401e+00  9.0001436809133342e+00  8.8501406566516678e+00  8.7001376273043967e+00  8.5501345928661969e+00  8.4001315533316330e+00  8.2501285086997616e+00  8.1001254589679128e+00  7.9501224041373364e+00  7.8001193442074825e+00  7.6501162791772828e+00  7.5001132090478491e+00  7.3501101338172701e+00  7.2001070534873293e+00  7.0501039680564270e+00  6.9001008775254116e+00  6.7500977818951968e+00  6.6000946811626386e+00  6.4500915753316441e+00  6.3000884643988817e+00  6.1500853483658409e+00  6.0000822272326602e+00  5.8500791009988182e+00  5.7000759696641863e+00  5.5500728332296223e+00  5.4000696916931377e+00  5.2500665450571562e+00  5.1000633933169164e+00  4.9500602364764159e+00  4.8000570745269160e+00  4.6500539074748506e+00  4.5000507352988670e+00  4.3500475580084821e+00  4.2000443755485053e+00  4.0500411879147791e+00  3.9000379949621142e+00  3.7500347965901399e+00  3.6000315923648007e+00  3.4500283817471633e+00  3.3000251633177125e+00  3.1500219347618530e+00  3.0000186906324799e+00  2.8500154187763194e+00  2.7000120859618315e+00  2.5500086018065278e+00  2.4000047300726304e+00  2.2499999226753258e+00  2.0999931007194355e+00  1.9499825771527137e+00  1.7999666003357726e+00  1.6499448300594852e+00  1.4999197486892606e+00  1.3498953189799852e+00  1.1998742648301699e+00  1.0498598340130845e+00  8.9985909620656857e-01  7.4988036234063893e-01  5.9993261868396430e-01  4.5001923651222497e-01  3.0013343976829282e-01  1.5032752641552280e-01  4.4531946660022613e-05  1.1999972911807081e+01  1.1850228438153964e+01  1.1700219018180409e+01  1.1550220499023210e+01  1.1400209363642780e+01  1.1250206961153346e+01  1.1100202884220385e+01  1.0950199804161130e+01  1.0800196668802361e+01  1.0650193644555680e+01  1.0500190637799747e+01  1.0350187646217726e+01  1.0200184658045703e+01  1.0050181669620018e+01  9.9001786785058492e+00  9.7501756835515767e+00  9.6001726841387303e+00  9.4501696799548824e+00  9.3001666708413886e+00  9.1501636567161988e+00  9.0001606375357550e+00  8.8501576132789914e+00  8.7001545839336387e+00  8.5501515494967215e+00  8.4001485099620119e+00  8.2501454653300161e+00  8.1001424155976451e+00  7.9501393607667881e+00  7.8001363008363871e+00  7.6501332358055638e+00  7.5001301656755981e+00  7.3501270904443263e+00  7.2001240101140258e+00  7.0501209246823144e+00  6.9001178341507607e+00  6.7501147385200362e+00  6.6001116377864806e+00  6.4501085319553502e+00  6.3001054210216569e+00  6.1501023049881045e+00  6.0000991838545330e+00  5.8500960576198189e+00  5.7000929262850066e+00  5.5500897898496406e+00  5.4000866483133043e+00  5.2500835016762739e+00  5.1000803499370893e+00  4.9500771930946712e+00  4.8000740311486556e+00  4.6500708640933972e+00  4.5000676919254641e+00  4.3500645146311099e+00  4.2000613321879090e+00  4.0500581445519543e+00  3.9000549516373075e+00  3.7500517532773143e+00  3.6000485491496468e+00  3.4500453386137124e+00  3.3000421205096395e+00  3.1500388925097753e+00  3.0000356501994956e+00  2.8500323829445833e+00  2.7000290625771939e+00  2.5500256061604163e+00  2.4000217868584217e+00  2.2500170480663328e+00  2.1000102469430408e+00  1.9499995077136734e+00  1.7999828098240818e+00  1.6499598795189128e+00  1.4999341553279741e+00  1.3499102789696764e+00  1.1998899020062550e+00  1.0498763067267942e+00  8.9987720886826528e-01  7.4990012250140081e-01  5.9995217706083581e-01  4.5003425754927456e-01  3.0012634699423429e-01  1.5017020428889619e-01  -4.6762039572894085e-05  1.2000012080613683e+01  1.1850114305885482e+01  1.1700180545889308e+01  1.1550189576721722e+01  1.1400189958772643e+01  1.1250186969281884e+01  1.1100183876165653e+01  1.0950180707057777e+01  1.0800177628469502e+01  1.0650174591995915e+01  1.0500171584736156e+01  1.0350168590408089e+01  1.0200165601062588e+01  1.0050162611904275e+01  9.9001596204281981e+00  9.7501566252899057e+00  9.6001536257914957e+00  9.4501506215701863e+00  9.3001476124411884e+00  9.1501445983101721e+00  9.0001415791295258e+00  8.8501385548742419e+00  8.7001355255320210e+00  8.5501324910959671e+00  8.4001294515637674e+00  8.2501264069329512e+00  8.1001233572032536e+00  7.9501203023733833e+00  7.8001172424437293e+00  7.6501141774141210e+00  7.5001111072843374e+00  7.3501080320545977e+00  7.2001049517242288e+00  7.0501018662938764e+00  6.9000987757631984e+00  6.7500956801321124e+00  6.6000925794012559e+00  6.4500894735692240e+00  6.3000863626376189e+00  6.1500832466049626e+00  6.0000801254722393e+00  5.8500769992389463e+00  5.7000738679052407e+00  5.5500707314710027e+00  5.4000675899357997e+00  5.2500644433003005e+00  5.1000612915617358e+00  4.9500581347239736e+00  4.8000549727756887e+00  4.6500518057300662e+00  4.5000486335528835e+00  4.3500454562746365e+00  4.2000422738015404e+00  4.0500390861873141e+00  3.9000358931728725e+00  3.7500326948055029e+00  3.6000294903389594e+00  3.4500262795956815e+00  3.3000230602968004e+00  3.1500198308124778e+00  3.0000165827349061e+00  2.8500133027003081e+00  2.7000099425766710e+00  2.5500063913514803e+00  2.4000023490092777e+00  2.2499971944396582e+00  2.0999897330191004e+00  1.9499782953309968e+00  1.7999613061271522e+00  1.6499391279052047e+00  1.4999148704519942e+00  1.3498924914619665e+00  1.1998739005063401e+00  1.0498636126645937e+00  8.9986766225403314e-01  7.4989297171581326e-01  5.9994243221624899e-01  4.5001261313453050e-01  3.0007711214927624e-01  1.5008897977754226e-01  1.1437564362995409e-05  1.1999990612596914e+01  1.1850109760917725e+01  1.1700168948988065e+01  1.1550188348325872e+01  1.1400190127597993e+01  1.1250187976993855e+01  1.1100184928017473e+01  1.0950181802735402e+01  1.0800178716866393e+01  1.0650175678176490e+01  1.0500172667773912e+01  1.0350169671901901e+01  1.0200166681657331e+01  1.0050163692055762e+01  9.9001607003627363e+00  9.7501577051270090e+00  9.6001547055888423e+00  9.4501517013552512e+00  9.3001486922253171e+00  9.1501456780975641e+00  9.0001426589209927e+00  8.8501396346696506e+00  8.7001366053307159e+00  8.5501335708973514e+00  8.4001305313670649e+00  8.2501274867378207e+00  8.1001244370091374e+00  7.9501213821802654e+00  7.8001183222513397e+00  7.6501152572222288e+00  7.5001121870928031e+00  7.3501091118634214e+00  7.2001060315333998e+00  7.0501029461033848e+00  6.9000998555729574e+00  6.7500967599422292e+00  6.6000936592114003e+00  6.4500905533800124e+00  6.3000874424484312e+00  6.1500843264164846e+00  6.0000812052839043e+00  5.8500780790513200e+00  5.7000749477181731e+00  5.5500718112845568e+00  5.4000686697509179e+00  5.2500655231153264e+00  5.1000623713814122e+00  4.9500592145405902e+00  4.8000560526049245e+00  4.6500528855479502e+00  4.5000497134006610e+00  4.3500465360895291e+00  4.2000433536812212e+00  4.0500401659777854e+00  3.9000369730908182e+00  3.7500337744780410e+00  3.6000305702287814e+00  3.4500273587731511e+00  3.3000241396534928e+00  3.1500209077059398e+00  3.0000176575723509e+00  2.8500143648492648e+00  2.7000109808702955e+00  2.5500073572283495e+00  2.4000031786976415e+00  2.2499977510171951e+00  2.0999899358035061e+00  1.9499781428063989e+00  1.7999612461831895e+00  1.6499396705249296e+00  1.4999163219013676e+00  1.3498943450074250e+00  1.1998768576997132e+00  1.0498676678938326e+00  8.9987340863427256e-01  7.4989878895190187e-01  5.9994784340084073e-01  4.5001126521263990e-01  3.0006746555194641e-01  1.5007238709272222e-01  1.3015382502973951e-05  1.2000012089012996e+01  1.1850114318143026e+01  1.1700180562649248e+01  1.1550189588919963e+01  1.1400189970211876e+01  1.1250186981292233e+01  1.1100183889361535e+01  1.0950180721401725e+01  1.0800177643815903e+01  1.0650174608142743e+01  1.0500171601497465e+01  1.0350168607626809e+01  1.0200165618613271e+01  1.0050162629693515e+01  9.9001596383856878e+00  9.7501566433655373e+00  9.6001536439489161e+00  9.4501506397849262e+00  9.3001476306953865e+00  9.1501446165914739e+00  9.0001415974292041e+00  8.8501385731865518e+00  8.7001355438528716e+00  8.5501325094231007e+00  8.4001294698948659e+00  8.2501264252670232e+00  8.1001233755390700e+00  7.9501203207107283e+00  7.8001172607820566e+00  7.6501141957529804e+00  7.5001111256235733e+00  7.3501080503938869e+00  7.2001049700639070e+00  7.0501018846335839e+00  6.9000987941030472e+00  6.7500956984721174e+00  6.6000925977410612e+00  6.4500894919094351e+00  6.3000863809777652e+00  6.1500832649455131e+00  6.0000801438131441e+00  5.8500770175803627e+00  5.7000738862474458e+00  5.5500707498143216e+00  5.4000676082806791e+00  5.2500644616475993e+00  5.1000613099122933e+00  4.9500581530794685e+00  4.8000549911385360e+00  4.6500518241034436e+00  4.5000486519418015e+00  4.3500454746861061e+00  4.2000422922457084e+00  4.0500391046788602e+00  3.9000359117329797e+00  3.7500327134645981e+00  3.6000295091404722e+00  3.4500262986028738e+00  3.3000230796009227e+00  3.1500198505457631e+00  3.0000166030818862e+00  2.8500133238967353e+00  2.7000099648653846e+00  2.5500064148431996e+00  2.4000023734167648e+00  2.2499972187800199e+00  2.0999897556499905e+00  1.9499783148103547e+00  1.7999613226281295e+00  1.6499391431630936e+00  1.4999148845869368e+00  1.3498925012030503e+00  1.1998739050148874e+00  1.0498636154385825e+00  8.9986766555026232e-01  7.4989298093111578e-01  5.9994245225016418e-01  4.5001264731504170e-01  3.0007715712216382e-01  1.5008902429189933e-01  1.1436424511390216e-05  1.1999972913493014e+01  1.1850228485721036e+01  1.1700219060706329e+01  1.1550220532109499e+01  1.1400209392027703e+01  1.1250206991254137e+01  1.1100202915690979e+01  1.0950199837578056e+01  1.0800196703832421e+01  1.0650193680923760e+01  1.0500190675197645e+01  1.0350187684385919e+01  1.0200184696778477e+01  1.0050181708757071e+01  9.9001787179304124e+00  9.7501757231763300e+00  9.6001727239050449e+00  9.4501697198197157e+00  9.3001667107740129e+00  9.1501636966941451e+00  9.0001606775454093e+00  8.8501576533102106e+00  8.7001546239807261e+00  8.5501515895531792e+00  8.4001485500260458e+00  8.2501455053985957e+00  8.1001424556705945e+00  7.9501394008419632e+00  7.8001363409128190e+00  7.6501332758831655e+00  7.5001302057531154e+00  7.3501271305226767e+00  7.2001240501919064e+00  7.0501209647608025e+00  6.9001178742293927e+00  6.7501147785977622e+00  6.6001116778657636e+00  6.4501085720334848e+00  6.3001054611008964e+00  6.1501023450679977e+00  6.0000992239348658e+00  5.8500960977014644e+00  5.7000929663679862e+00  5.5500898299342856e+00  5.4000866884007310e+00  5.2500835417669798e+00  5.1000803900336438e+00  4.9500772331996572e+00  4.8000740712655867e+00  4.6500709042285058e+00  4.5000677320862108e+00  4.3500645548292107e+00  4.2000613724410796e+00  4.0500581848849810e+00  3.9000549920859329e+00  3.7500517938920961e+00  3.6000485900044827e+00  3.4500453798147395e+00  3.3000421622122746e+00  3.1500389349369491e+00  3.0000356936619985e+00  2.8500324278411004e+00  2.7000291093259037e+00  2.5500256549876585e+00  2.4000218373885085e+00  2.2500170988414476e+00  2.1000102953924360e+00  1.9499995513120620e+00  1.7999828481908866e+00  1.6499599147393205e+00  1.4999341877963774e+00  1.3499103041652680e+00  1.1998899177328983e+00  1.0498763183094402e+00  8.9987722127552583e-01  7.4990014495155122e-01  5.9995221968707857e-01  4.5003432666216481e-01  3.0012644587202508e-01  1.5017030468291812e-01  -4.6742603874955819e-05  1.2000655992328801e+01  1.1850210492814046e+01  1.1700301819835751e+01  1.1550181935294475e+01  1.1400204851536271e+01  1.1250188060335701e+01  1.1100187075827332e+01  1.0950182855553777e+01  1.0800179892474789e+01  1.0650176787759230e+01  1.0500173783613659e+01  1.0350170784970700e+01  1.0200167795533384e+01  1.0050164806191823e+01  9.9001618147935542e+00  9.7501588197356863e+00  9.6001558203162372e+00  9.4501528161570523e+00  9.3001498070751740e+00  9.1501467929780755e+00  9.0001437738212182e+00  8.8501407495825504e+00  8.7001377202516821e+00  8.5501346858238900e+00  8.4001316462969715e+00  8.2501286016700526e+00  8.1001255519425932e+00  7.9501224971145756e+00  7.8001194371860709e+00  7.6501163721570125e+00  7.5001133020276214e+00  7.3501102267977636e+00  7.2001071464676594e+00  7.0501040610371462e+00  6.9001009705063012e+00  6.7500978748753591e+00  6.6000947741439058e+00  6.4500916683123064e+00  6.3000885573803309e+00  6.1500854413481028e+00  6.0000823202155615e+00  5.8500791939829790e+00  5.7000760626499503e+00  5.5500729262173758e+00  5.4000697846840033e+00  5.2500666380520524e+00  5.1000634863183096e+00  4.9500603294874681e+00  4.8000571675517651e+00  4.6500540005203188e+00  4.5000508283739356e+00  4.3500476511264461e+00  4.2000444687293879e+00  4.0500412811870934e+00  3.9000380883669217e+00  3.7500348901857454e+00  3.6000316862362465e+00  3.4500284760169939e+00  3.3000252581639149e+00  3.1500220304374751e+00  3.0000187874829374e+00  2.8500155172308337e+00  2.7000121864525153e+00  2.5500087045514506e+00  2.4000048346979628e+00  2.2500000278168528e+00  2.0999932040375020e+00  1.9499826762473778e+00  1.7999666942527823e+00  1.6499449194905436e+00  1.4999198334082955e+00  1.3498953958653470e+00  1.1998743318908942e+00  1.0498598948551094e+00  8.9985915741441524e-01  7.4988043370975199e-01  5.9993271252814406e-01  4.5001936380176960e-01  3.0013360856080157e-01  1.5032786192616515e-01  4.4532361499961042e-05  1.1997722423968122e+01  1.1851348736381855e+01  1.1699836575753674e+01  1.1550285490149792e+01  1.1400128784530517e+01  1.1250161902899825e+01  1.1100147599992368e+01  1.0950146498629513e+01  1.0800142744931026e+01  1.0650139788502941e+01  1.0500136737698369e+01  1.0350133741864875e+01  1.0200130748224801e+01  1.0050127757906921e+01  9.9001247657637688e+00  9.7501217703758130e+00  9.6001187707766054e+00  9.4501157665288407e+00  9.3001127574009210e+00  9.1501097432811935e+00  9.0001067241128858e+00  8.8501036998689315e+00  8.7001006705355977e+00  8.5500976361071324e+00  8.4000945965802796e+00  8.2500915519540978e+00  8.1000885022274129e+00  7.9500854474003599e+00  7.8000823874729823e+00  7.6500793224449435e+00  7.5000762523167710e+00  7.3500731770880039e+00  7.2000700967591618e+00  7.0500670113297872e+00  6.9000639208000312e+00  6.7500608251704861e+00  6.6000577244400329e+00  6.4500546186097960e+00  6.3000515076789441e+00  6.1500483916479860e+00  6.0000452705166341e+00  5.8500421442852701e+00  5.7000390129535123e+00  5.5500358765220188e+00  5.4000327349902273e+00  5.2500295883588137e+00  5.1000264366278074e+00  4.9500232797958565e+00  4.8000201178656949e+00  4.6500169508294098e+00  4.5000137786949015e+00  4.3500106014343976e+00  4.2000074190636250e+00  4.0500042314920046e+00  3.9000010387290147e+00  3.7499978404903263e+00  3.5999946366665370e+00  3.4499914263496145e+00  3.2999882087636840e+00  3.1499849807909603e+00  2.9999817379691307e+00  2.8499784657649596e+00  2.6999751315696794e+00  2.5499716401790904e+00  2.3999677646340127e+00  2.2499629802474366e+00  2.0999563023053942e+00  1.9499461950673518e+00  1.7999310690394965e+00  1.6499103935943467e+00  1.4998859553632362e+00  1.3498611418134951e+00  1.1998392688998047e+00  1.0498236925108151e+00  8.9982045543076516e-01  7.4983822240311004e-01  5.9988601954881793e-01  4.4997289370024746e-01  3.0009610964939204e-01  1.5026211297212047e-01  2.8635354005340768e-03  1.1926193803447690e+01  1.1775297613441451e+01  1.1625312914148441e+01  1.1475272827460557e+01  1.1325266379342068e+01  1.1175260696288330e+01  1.1025256830060236e+01  1.0875253506621522e+01  1.0725250368011666e+01  1.0575247322767229e+01  1.0425244311419229e+01  1.0275241315517210e+01  1.0125238324312440e+01  9.9752353330773502e+00  9.8252323393082239e+00  9.6752293417541395e+00  9.5252263397709758e+00  9.3752233330310748e+00  9.2252203213676793e+00  9.0752173046943359e+00  8.9252142829670831e+00  8.7752112561630398e+00  8.6252082242723578e+00  8.4752051872879957e+00  8.3252021452073119e+00  8.1751990980275586e+00  8.0251960457490856e+00  7.8751929883714062e+00  7.7251899258938348e+00  7.5751868583168216e+00  7.4251837856391099e+00  7.2751807078616428e+00  7.1251776249835501e+00  6.9751745370051204e+00  6.8251714439274078e+00  6.6751683457479460e+00  6.5251652424692423e+00  6.3751621340893756e+00  6.2251590206091203e+00  6.0751559020284480e+00  5.9251527783474947e+00  5.7751496495655648e+00  5.6251465156838245e+00  5.4751433767003093e+00  5.3251402326172199e+00  5.1751370834309682e+00  5.0251339291434585e+00  4.8751307697507151e+00  4.7251276052518918e+00  4.5751244356414889e+00  4.4251212609075194e+00  4.2751180810405289e+00  4.1251148959837893e+00  3.9751117057121581e+00  3.8251085100176372e+00  3.6751053087748708e+00  3.5251021012679096e+00  3.3750988868805796e+00  3.2250956631393333e+00  3.0750924269526911e+00  2.9250891677244089e+00  2.7750858640555478e+00  2.6250824494236960e+00  2.4750787654049069e+00  2.3250744192090274e+00  2.1750686350795769e+00  2.0250600703206465e+00  1.8750470972972169e+00  1.7250286114710178e+00  1.5750055627172188e+00  1.4249809353247367e+00  1.2749582144012805e+00  1.1249400999484536e+00  9.7493192905804138e-01  8.2494096080859558e-01  6.7497611216345288e-01  5.2504402128852212e-01  3.7514636727173983e-01  2.2528895774002636e-01  7.5650171232674021e-02  1.1924927323881093e+01  1.1775222786653353e+01  1.1625113986569378e+01  1.1475124653770949e+01  1.1325111454922716e+01  1.1175108484353313e+01  1.1025104635412580e+01  1.0875101490892389e+01  1.0725098399837266e+01  1.0575095379435490e+01  1.0425092379511938e+01  1.0275089389194495e+01  1.0125086400802962e+01  9.9750834109876187e+00  9.8250804179357019e+00  9.6750774207457670e+00  9.5250744189438112e+00  9.3750714122941137e+00  9.2250684006733863e+00  9.0750653840209257e+00  8.9250623623031