<?xml version="1.0"?>
<VTKFile type="UnstructuredGrid"  version="0.1"  >
<UnstructuredGrid>
<Piece  NumberOfPoints="1369" NumberOfCells="2560">
<Points>
<DataArray  type="Float64"  NumberOfComponents="3"  format="ascii">0 0 0  0.75 0 0  1.5 0 0  2.25 0 0  3 0 0  3.75 0 0  4.5 0 0  5.25 0 0  6 0 0  6.75 0 0  7.5 0 0  8.25 0 0  9 0 0  9.75 0 0  10.5 0 0  11.25 0 0  12 0 0  12.75 0 0  13.5 0 0  14.25 0 0  15 0 0  15.75 0 0  16.5 0 0  17.25 0 0  18 0 0  18.75 0 0  19.5 0 0  20.25 0 0  21 0 0  21.75 0 0  22.5 0 0  23.25 0 0  24 0 0  24.75 0 0  25.5 0 0  26.25 0 0  27 0 0  27.75 0 0  28.5 0 0  29.25 0 0  30 0 0  30.75 0 0  31.5 0 0  32.25 0 0  33 0 0  33.75 0 0  34.5 0 0  35.25 0 0  36 0 0  36.75 0 0  37.5 0 0  38.25 0 0  39 0 0  39.75 0 0  40.5 0 0  41.25 0 0  42 0 0  42.75 0 0  43.5 0 0  44.25 0 0  45 0 0  45.75 0 0  46.5 0 0  47.25 0 0  48 0 0  48.75 0 0  49.5 0 0  50.25 0 0  51 0 0  51.75 0 0  52.5 0 0  53.25 0 0  54 0 0  54.75 0 0  55.5 0 0  56.25 0 0  57 0 0  57.75 0 0  58.5 0 0  59.25 0 0  60 0 0  0 0.5 0  0.75 0.5 0  1.5 0.5 0  2.25 0.5 0  3 0.5 0  3.75 0.5 0  4.5 0.5 0  5.25 0.5 0  6 0.5 0  6.75 0.5 0  7.5 0.5 0  8.25 0.5 0  9 0.5 0  9.75 0.5 0  10.5 0.5 0  11.25 0.5 0  12 0.5 0  12.75 0.5 0  13.5 0.5 0  14.25 0.5 0  15 0.5 0  15.75 0.5 0  16.5 0.5 0  17.25 0.5 0  18 0.5 0  18.75 0.5 0  19.5 0.5 0  20.25 0.5 0  21 0.5 0  21.75 0.5 0  22.5 0.5 0  23.25 0.5 0  24 0.5 0  24.75 0.5 0  25.5 0.5 0  26.25 0.5 0  27 0.5 0  27.75 0.5 0  28.5 0.5 0  29.25 0.5 0  30 0.5 0  30.75 0.5 0  31.5 0.5 0  32.25 0.5 0  33 0.5 0  33.75 0.5 0  34.5 0.5 0  35.25 0.5 0  36 0.5 0  36.75 0.5 0  37.5 0.5 0  38.25 0.5 0  39 0.5 0  39.75 0.5 0  40.5 0.5 0  41.25 0.5 0  42 0.5 0  42.75 0.5 0  43.5 0.5 0  44.25 0.5 0  45 0.5 0  45.75 0.5 0  46.5 0.5 0  47.25 0.5 0  48 0.5 0  48.75 0.5 0  49.5 0.5 0  50.25 0.5 0  51 0.5 0  51.75 0.5 0  52.5 0.5 0  53.25 0.5 0  54 0.5 0  54.75 0.5 0  55.5 0.5 0  56.25 0.5 0  57 0.5 0  57.75 0.5 0  58.5 0.5 0  59.25 0.5 0  60 0.5 0  0 1 0  0.75 1 0  1.5 1 0  2.25 1 0  3 1 0  3.75 1 0  4.5 1 0  5.25 1 0  6 1 0  6.75 1 0  7.5 1 0  8.25 1 0  9 1 0  9.75 1 0  10.5 1 0  11.25 1 0  12 1 0  12.75 1 0  13.5 1 0  14.25 1 0  15 1 0  15.75 1 0  16.5 1 0  17.25 1 0  18 1 0  18.75 1 0  19.5 1 0  20.25 1 0  21 1 0  21.75 1 0  22.5 1 0  23.25 1 0  24 1 0  24.75 1 0  25.5 1 0  26.25 1 0  27 1 0  27.75 1 0  28.5 1 0  29.25 1 0  30 1 0  30.75 1 0  31.5 1 0  32.25 1 0  33 1 0  33.75 1 0  34.5 1 0  35.25 1 0  36 1 0  36.75 1 0  37.5 1 0  38.25 1 0  39 1 0  39.75 1 0  40.5 1 0  41.25 1 0  42 1 0  42.75 1 0  43.5 1 0  44.25 1 0  45 1 0  45.75 1 0  46.5 1 0  47.25 1 0  48 1 0  48.75 1 0  49.5 1 0  50.25 1 0  51 1 0  51.75 1 0  52.5 1 0  53.25 1 0  54 1 0  54.75 1 0  55.5 1 0  56.25 1 0  57 1 0  57.75 1 0  58.5 1 0  59.25 1 0  60 1 0  0 1.5 0  0.75 1.5 0  1.5 1.5 0  2.25 1.5 0  3 1.5 0  3.75 1.5 0  4.5 1.5 0  5.25 1.5 0  6 1.5 0  6.75 1.5 0  7.5 1.5 0  8.25 1.5 0  9 1.5 0  9.75 1.5 0  10.5 1.5 0  11.25 1.5 0  12 1.5 0  12.75 1.5 0  13.5 1.5 0  14.25 1.5 0  15 1.5 0  15.75 1.5 0  16.5 1.5 0  17.25 1.5 0  18 1.5 0  18.75 1.5 0  19.5 1.5 0  20.25 1.5 0  21 1.5 0  21.75 1.5 0  22.5 1.5 0  23.25 1.5 0  24 1.5 0  24.75 1.5 0  25.5 1.5 0  26.25 1.5 0  27 1.5 0  27.75 1.5 0  28.5 1.5 0  29.25 1.5 0  30 1.5 0  30.75 1.5 0  31.5 1.5 0  32.25 1.5 0  33 1.5 0  33.75 1.5 0  34.5 1.5 0  35.25 1.5 0  36 1.5 0  36.75 1.5 0  37.5 1.5 0  38.25 1.5 0  39 1.5 0  39.75 1.5 0  40.5 1.5 0  41.25 1.5 0  42 1.5 0  42.75 1.5 0  43.5 1.5 0  44.25 1.5 0  45 1.5 0  45.75 1.5 0  46.5 1.5 0  47.25 1.5 0  48 1.5 0  48.75 1.5 0  49.5 1.5 0  50.25 1.5 0  51 1.5 0  51.75 1.5 0  52.5 1.5 0  53.25 1.5 0  54 1.5 0  54.75 1.5 0  55.5 1.5 0  56.25 1.5 0  57 1.5 0  57.75 1.5 0  58.5 1.5 0  59.25 1.5 0  60 1.5 0  0 2 0  0.75 2 0  1.5 2 0  2.25 2 0  3 2 0  3.75 2 0  4.5 2 0  5.25 2 0  6 2 0  6.75 2 0  7.5 2 0  8.25 2 0  9 2 0  9.75 2 0  10.5 2 0  11.25 2 0  12 2 0  12.75 2 0  13.5 2 0  14.25 2 0  15 2 0  15.75 2 0  16.5 2 0  17.25 2 0  18 2 0  18.75 2 0  19.5 2 0  20.25 2 0  21 2 0  21.75 2 0  22.5 2 0  23.25 2 0  24 2 0  24.75 2 0  25.5 2 0  26.25 2 0  27 2 0  27.75 2 0  28.5 2 0  29.25 2 0  30 2 0  30.75 2 0  31.5 2 0  32.25 2 0  33 2 0  33.75 2 0  34.5 2 0  35.25 2 0  36 2 0  36.75 2 0  37.5 2 0  38.25 2 0  39 2 0  39.75 2 0  40.5 2 0  41.25 2 0  42 2 0  42.75 2 0  43.5 2 0  44.25 2 0  45 2 0  45.75 2 0  46.5 2 0  47.25 2 0  48 2 0  48.75 2 0  49.5 2 0  50.25 2 0  51 2 0  51.75 2 0  52.5 2 0  53.25 2 0  54 2 0  54.75 2 0  55.5 2 0  56.25 2 0  57 2 0  57.75 2 0  58.5 2 0  59.25 2 0  60 2 0  0 2.5 0  0.75 2.5 0  1.5 2.5 0  2.25 2.5 0  3 2.5 0  3.75 2.5 0  4.5 2.5 0  5.25 2.5 0  6 2.5 0  6.75 2.5 0  7.5 2.5 0  8.25 2.5 0  9 2.5 0  9.75 2.5 0  10.5 2.5 0  11.25 2.5 0  12 2.5 0  12.75 2.5 0  13.5 2.5 0  14.25 2.5 0  15 2.5 0  15.75 2.5 0  16.5 2.5 0  17.25 2.5 0  18 2.5 0  18.75 2.5 0  19.5 2.5 0  20.25 2.5 0  21 2.5 0  21.75 2.5 0  22.5 2.5 0  23.25 2.5 0  24 2.5 0  24.75 2.5 0  25.5 2.5 0  26.25 2.5 0  27 2.5 0  27.75 2.5 0  28.5 2.5 0  29.25 2.5 0  30 2.5 0  30.75 2.5 0  31.5 2.5 0  32.25 2.5 0  33 2.5 0  33.75 2.5 0  34.5 2.5 0  35.25 2.5 0  36 2.5 0  36.75 2.5 0  37.5 2.5 0  38.25 2.5 0  39 2.5 0  39.75 2.5 0  40.5 2.5 0  41.25 2.5 0  42 2.5 0  42.75 2.5 0  43.5 2.5 0  44.25 2.5 0  45 2.5 0  45.75 2.5 0  46.5 2.5 0  47.25 2.5 0  48 2.5 0  48.75 2.5 0  49.5 2.5 0  50.25 2.5 0  51 2.5 0  51.75 2.5 0  52.5 2.5 0  53.25 2.5 0  54 2.5 0  54.75 2.5 0  55.5 2.5 0  56.25 2.5 0  57 2.5 0  57.75 2.5 0  58.5 2.5 0  59.25 2.5 0  60 2.5 0  0 3 0  0.75 3 0  1.5 3 0  2.25 3 0  3 3 0  3.75 3 0  4.5 3 0  5.25 3 0  6 3 0  6.75 3 0  7.5 3 0  8.25 3 0  9 3 0  9.75 3 0  10.5 3 0  11.25 3 0  12 3 0  12.75 3 0  13.5 3 0  14.25 3 0  15 3 0  15.75 3 0  16.5 3 0  17.25 3 0  18 3 0  18.75 3 0  19.5 3 0  20.25 3 0  21 3 0  21.75 3 0  22.5 3 0  23.25 3 0  24 3 0  24.75 3 0  25.5 3 0  26.25 3 0  27 3 0  27.75 3 0  28.5 3 0  29.25 3 0  30 3 0  30.75 3 0  31.5 3 0  32.25 3 0  33 3 0  33.75 3 0  34.5 3 0  35.25 3 0  36 3 0  36.75 3 0  37.5 3 0  38.25 3 0  39 3 0  39.75 3 0  40.5 3 0  41.25 3 0  42 3 0  42.75 3 0  43.5 3 0  44.25 3 0  45 3 0  45.75 3 0  46.5 3 0  47.25 3 0  48 3 0  48.75 3 0  49.5 3 0  50.25 3 0  51 3 0  51.75 3 0  52.5 3 0  53.25 3 0  54 3 0  54.75 3 0  55.5 3 0  56.25 3 0  57 3 0  57.75 3 0  58.5 3 0  59.25 3 0  60 3 0  0 3.5 0  0.75 3.5 0  1.5 3.5 0  2.25 3.5 0  3 3.5 0  3.75 3.5 0  4.5 3.5 0  5.25 3.5 0  6 3.5 0  6.75 3.5 0  7.5 3.5 0  8.25 3.5 0  9 3.5 0  9.75 3.5 0  10.5 3.5 0  11.25 3.5 0  12 3.5 0  12.75 3.5 0  13.5 3.5 0  14.25 3.5 0  15 3.5 0  15.75 3.5 0  16.5 3.5 0  17.25 3.5 0  18 3.5 0  18.75 3.5 0  19.5 3.5 0  20.25 3.5 0  21 3.5 0  21.75 3.5 0  22.5 3.5 0  23.25 3.5 0  24 3.5 0  24.75 3.5 0  25.5 3.5 0  26.25 3.5 0  27 3.5 0  27.75 3.5 0  28.5 3.5 0  29.25 3.5 0  30 3.5 0  30.75 3.5 0  31.5 3.5 0  32.25 3.5 0  33 3.5 0  33.75 3.5 0  34.5 3.5 0  35.25 3.5 0  36 3.5 0  36.75 3.5 0  37.5 3.5 0  38.25 3.5 0  39 3.5 0  39.75 3.5 0  40.5 3.5 0  41.25 3.5 0  42 3.5 0  42.75 3.5 0  43.5 3.5 0  44.25 3.5 0  45 3.5 0  45.75 3.5 0  46.5 3.5 0  47.25 3.5 0  48 3.5 0  48.75 3.5 0  49.5 3.5 0  50.25 3.5 0  51 3.5 0  51.75 3.5 0  52.5 3.5 0  53.25 3.5 0  54 3.5 0  54.75 3.5 0  55.5 3.5 0  56.25 3.5 0  57 3.5 0  57.75 3.5 0  58.5 3.5 0  59.25 3.5 0  60 3.5 0  0 4 0  0.75 4 0  1.5 4 0  2.25 4 0  3 4 0  3.75 4 0  4.5 4 0  5.25 4 0  6 4 0  6.75 4 0  7.5 4 0  8.25 4 0  9 4 0  9.75 4 0  10.5 4 0  11.25 4 0  12 4 0  12.75 4 0  13.5 4 0  14.25 4 0  15 4 0  15.75 4 0  16.5 4 0  17.25 4 0  18 4 0  18.75 4 0  19.5 4 0  20.25 4 0  21 4 0  21.75 4 0  22.5 4 0  23.25 4 0  24 4 0  24.75 4 0  25.5 4 0  26.25 4 0  27 4 0  27.75 4 0  28.5 4 0  29.25 4 0  30 4 0  30.75 4 0  31.5 4 0  32.25 4 0  33 4 0  33.75 4 0  34.5 4 0  35.25 4 0  36 4 0  36.75 4 0  37.5 4 0  38.25 4 0  39 4 0  39.75 4 0  40.5 4 0  41.25 4 0  42 4 0  42.75 4 0  43.5 4 0  44.25 4 0  45 4 0  45.75 4 0  46.5 4 0  47.25 4 0  48 4 0  48.75 4 0  49.5 4 0  50.25 4 0  51 4 0  51.75 4 0  52.5 4 0  53.25 4 0  54 4 0  54.75 4 0  55.5 4 0  56.25 4 0  57 4 0  57.75 4 0  58.5 4 0  59.25 4 0  60 4 0  0.375 0.25 0  1.125 0.25 0  1.875 0.25 0  2.625 0.25 0  3.375 0.25 0  4.125 0.25 0  4.875 0.25 0  5.625 0.25 0  6.375 0.25 0  7.125 0.25 0  7.875 0.25 0  8.625 0.25 0  9.375 0.25 0  10.125 0.25 0  10.875 0.25 0  11.625 0.25 0  12.375 0.25 0  13.125 0.25 0  13.875 0.25 0  14.625 0.25 0  15.375 0.25 0  16.125 0.25 0  16.875 0.25 0  17.625 0.25 0  18.375 0.25 0  19.125 0.25 0  19.875 0.25 0  20.625 0.25 0  21.375 0.25 0  22.125 0.25 0  22.875 0.25 0  23.625 0.25 0  24.375 0.25 0  25.125 0.25 0  25.875 0.25 0  26.625 0.25 0  27.375 0.25 0  28.125 0.25 0  28.875 0.25 0  29.625 0.25 0  30.375 0.25 0  31.125 0.25 0  31.875 0.25 0  32.625 0.25 0  33.375 0.25 0  34.125 0.25 0  34.875 0.25 0  35.625 0.25 0  36.375 0.25 0  37.125 0.25 0  37.875 0.25 0  38.625 0.25 0  39.375 0.25 0  40.125 0.25 0  40.875 0.25 0  41.625 0.25 0  42.375 0.25 0  43.125 0.25 0  43.875 0.25 0  44.625 0.25 0  45.375 0.25 0  46.125 0.25 0  46.875 0.25 0  47.625 0.25 0  48.375 0.25 0  49.125 0.25 0  49.875 0.25 0  50.625 0.25 0  51.375 0.25 0  52.125 0.25 0  52.875 0.25 0  53.625 0.25 0  54.375 0.25 0  55.125 0.25 0  55.875 0.25 0  56.625 0.25 0  57.375 0.25 0  58.125 0.25 0  58.875 0.25 0  59.625 0.25 0  0.375 0.75 0  1.125 0.75 0  1.875 0.75 0  2.625 0.75 0  3.375 0.75 0  4.125 0.75 0  4.875 0.75 0  5.625 0.75 0  6.375 0.75 0  7.125 0.75 0  7.875 0.75 0  8.625 0.75 0  9.375 0.75 0  10.125 0.75 0  10.875 0.75 0  11.625 0.75 0  12.375 0.75 0  13.125 0.75 0  13.875 0.75 0  14.625 0.75 0  15.375 0.75 0  16.125 0.75 0  16.875 0.75 0  17.625 0.75 0  18.375 0.75 0  19.125 0.75 0  19.875 0.75 0  20.625 0.75 0  21.375 0.75 0  22.125 0.75 0  22.875 0.75 0  23.625 0.75 0  24.375 0.75 0  25.125 0.75 0  25.875 0.75 0  26.625 0.75 0  27.375 0.75 0  28.125 0.75 0  28.875 0.75 0  29.625 0.75 0  30.375 0.75 0  31.125 0.75 0  31.875 0.75 0  32.625 0.75 0  33.375 0.75 0  34.125 0.75 0  34.875 0.75 0  35.625 0.75 0  36.375 0.75 0  37.125 0.75 0  37.875 0.75 0  38.625 0.75 0  39.375 0.75 0  40.125 0.75 0  40
[...]
<PointData  Scalars="f_8-1"> 
<DataArray  type="Float64"  Name="f_8-1"  format="ascii">8.4826458131496665e+00  8.3798169735629262e+00  8.2735019086304824e+00  8.1674900647386313e+00  8.0613042249709626e+00  7.9550609998579223e+00  7.8487898247591463e+00  7.7425202607150938e+00  7.6362687531108131e+00  7.5300433179114545e+00  7.4238462720997296e+00  7.3176766092618584e+00  7.2115316120385549e+00  7.1054079072555636e+00  6.9993020599368929e+00  6.8932108776763172e+00  6.7871315293467029e+00  6.6810615825364223e+00  6.5749989896163958e+00  6.4689420550568268e+00  6.3628893942422602e+00  6.2568398971925197e+00  6.1507926897676137e+00  6.0447470925514644e+00  5.9387025786567440e+00  5.8326587399229890e+00  5.7266152639459555e+00  5.6205719210031333e+00  5.5145285544895435e+00  5.4084850708678367e+00  5.3024414268676043e+00  5.1963976152889799e+00  5.0903536511902825e+00  4.9843095605358281e+00  4.8782653720193547e+00  4.7722211121669744e+00  4.6661768029851709e+00  4.5601324614056002e+00  4.4540880997023153e+00  4.3480437263617553e+00  4.2419993470137394e+00  4.1359549652675263e+00  4.0299105833642397e+00  3.9238662026595277e+00  3.8178218239520296e+00  3.7117774477027834e+00  3.6057330741717917e+00  3.4996887035035438e+00  3.3936443357765174e+00  3.2875999710330279e+00  3.1815556092953243e+00  3.0755112505752336e+00  2.9694668948787024e+00  2.8634225422092561e+00  2.7573781925679151e+00  2.6513338459572036e+00  2.5452895023738491e+00  2.4392451618263200e+00  2.3332008242957030e+00  2.2271564898205352e+00  2.1211121583169787e+00  2.0150678299440932e+00  1.9090235043878487e+00  1.8029791821892329e+00  1.6969348624200262e+00  1.5908905463511858e+00  1.4848462322984757e+00  1.3788019202887898e+00  1.2727576123547366e+00  1.1667132887423812e+00  1.0606690101042286e+00  9.5462473299509654e-01  8.4858122406704362e-01  7.4253744864883942e-01  6.3649129447800146e-01  5.3043235425315782e-01  4.2439911350761839e-01  3.1835280823063350e-01  2.1248710256102418e-01  1.0592243757561100e-01  2.3111456417770448e-03  8.4857095493238752e+00  8.3792393515964694e+00  8.2734548074639154e+00  8.1673757945222416e+00  8.0612251883228687e+00  7.9550074159814192e+00  7.8487584467223304e+00  7.7425031998078468e+00  7.6362589357174162e+00  7.5300355110976103e+00  7.4238372064498064e+00  7.3176645661233550e+00  7.2115159280770031e+00  7.1053885507168744e+00  6.9992793296426772e+00  6.8931852091268855e+00  6.7871033878726346e+00  6.6810314070250643e+00  6.5749671691683842e+00  6.4689089222190095e+00  6.3628552286984750e+00  6.2568049304833515e+00  6.1507571102600718e+00  6.0447110503852004e+00  5.9386661928755213e+00  5.8326221059226970e+00  5.7265784597211002e+00  5.6205350104293004e+00  5.5144915884172301e+00  5.4084480871610223e+00  5.3024044509417809e+00  5.1963606615869766e+00  5.0903167255822979e+00  4.9842726630161476e+00  4.8782284992273359e+00  4.7721842593306176e+00  4.6661399652249171e+00  4.5600956344367845e+00  4.4540512801159631e+00  4.3480069116293789e+00  4.2419625353643413e+00  4.1359181555156539e+00  4.0298737747483369e+00  3.9238293947062850e+00  3.8177850163767566e+00  3.7117406403384945e+00  3.6056962669233044e+00  3.4996518963176055e+00  3.3936075286241745e+00  3.2875631638987741e+00  3.1815188021712122e+00  3.0754744434572663e+00  2.9694300877653017e+00  2.8633857350997651e+00  2.7573413854632967e+00  2.6512970388573160e+00  2.5452526952831169e+00  2.4392083547414489e+00  2.3331640172322992e+00  2.2271196827586652e+00  2.1210753513112710e+00  2.0150310229117445e+00  1.9089866975032603e+00  1.8029423751906404e+00  1.6968980557437687e+00  1.5908537395001592e+00  1.4848094256508224e+00  1.3787651148865874e+00  1.2727208036951128e+00  1.1666764948681174e+00  1.0606321879418121e+00  9.5458800065671734e-01  8.4854422289059583e-01  7.4250066016599858e-01  6.3645232211591618e-01  5.3039977667368188e-01  4.2436063587366357e-01  3.1834492835297490e-01  2.1231649082610957e-01  1.0628430117848413e-01  -4.6614194553875400e-04  8.4852325918653442e+00  8.3793282821281281e+00  8.2733868040653942e+00  8.1673665963859392e+00  8.0612348510151008e+00  7.9550249295250870e+00  7.8487728176194693e+00  7.7425099316373451e+00  7.6362573542009011e+00  7.5300267825861535e+00  7.4238230269221450e+00  7.3176465030995699e+00  7.2114952099184384e+00  7.1053660527128573e+00  6.9992556495161766e+00  6.8931607499522416e+00  6.7870784229232966e+00  6.6810061195614106e+00  6.5749416835965420e+00  6.4688833258818690e+00  6.3628295830883825e+00  6.2567792749600324e+00  6.1507314674137330e+00  6.0446854343651646e+00  5.9386406169364854e+00  5.8325965845643992e+00  5.7265530059941039e+00  5.6205096315971534e+00  5.5144662835356284e+00  5.4084228476166389e+00  5.3023792632755233e+00  5.1963355109102221e+00  5.0902915983645620e+00  4.9842475486207469e+00  4.8782033903082036e+00  4.7721591514429633e+00  4.6661148561026087e+00  4.5600705232308751e+00  4.4540261667775702e+00  4.3479817964762431e+00  4.2419374188225509e+00  4.1358930379854497e+00  4.0298486565526730e+00  3.9238042760819494e+00  3.8177598974866318e+00  3.7117155212888333e+00  3.6056711477808148e+00  3.4996267771226486e+00  3.3935824094006239e+00  3.2875380446604030e+00  3.1814936829259657e+00  3.0754493242098335e+00  2.9694049685186266e+00  2.8633606158562870e+00  2.7573162662248381e+00  2.6512719196271042e+00  2.5452275760629277e+00  2.4391832355382230e+00  2.3331388980471970e+00  2.2270945636064745e+00  2.1210502321933933e+00  2.0150059038479187e+00  1.9089615785204177e+00  1.8029172562518696e+00  1.6968729370662934e+00  1.5908286206620128e+00  1.4847843079847842e+00  1.3787399962251319e+00  1.2726956921651205e+00  1.1666513798725073e+00  1.0606071006646567e+00  9.5456277793300881e-01  8.4851862034750736e-01  7.4247418075223981e-01  6.3643055991376107e-01  5.3038231550997317e-01  4.2433644734006298e-01  3.1829048470645827e-01  2.1227056918942466e-01  1.0609203421575165e-01  6.0869078770933714e-05  8.4852397472419376e+00  8.3793165740105238e+00  8.2733982550232152e+00  8.1673885623617615e+00  8.0612683310443050e+00  7.9550611821498931e+00  7.8488066427748828e+00  7.7425390875263416e+00  7.6362816828919557e+00  7.5300470321040347e+00  7.4238401546053314e+00  7.3176613622402700e+00  7.2115084746872720e+00  7.1053782264692433e+00  6.9992671003511511e+00  6.8931717418380725e+00  6.7870891404576890e+00  6.6810166848080046e+00  6.5749521746110879e+00  6.4688937919193270e+00  6.3628400545680774e+00  6.2567897681846025e+00  6.1507419896781075e+00  6.0446959894719292e+00  5.9386512095197652e+00  5.8326072206982520e+00  5.7265636911543734e+00  5.6205203678805740e+00  5.5144770683185458e+00  5.4084336740063428e+00  5.3023901219085223e+00  5.1963463919909669e+00  5.0903024932782541e+00  4.9842584507519128e+00  4.8782142951892915e+00  4.7721700564417802e+00  4.6661257599389776e+00  4.5600814254852615e+00  4.4540370675049710e+00  4.3479926959373003e+00  4.2419483173278003e+00  4.1359039358152714e+00  4.0298595539295041e+00  3.9238151731672364e+00  3.8177707943910151e+00  3.7117264180842113e+00  3.6056820445123501e+00  3.4996376738175785e+00  3.3935933060750272e+00  3.2875489413234220e+00  3.1815045795827634e+00  3.0754602208631705e+00  2.9694158651701210e+00  2.8633715125065682e+00  2.7573271628748985e+00  2.6512828162763946e+00  2.5452384727140802e+00  2.4391941321878772e+00  2.3331497947046280e+00  2.2271054602595752e+00  2.1210611288685319e+00  2.0150168005169027e+00  1.9089724752269639e+00  1.8029281529973051e+00  1.6968838337759251e+00  1.5908395178014798e+00  1.4847952045157615e+00  1.3787508956192953e+00  1.2727065880492714e+00  1.1666622886922287e+00  1.0606179699719476e+00  9.5457362384277000e-01  8.4852912386510315e-01  7.4248529571673294e-01  6.3644297258689897e-01  5.3039729191641671e-01  4.2434035953711385e-01  3.1829781699622661e-01  2.1222841057294625e-01  1.0614413412228711e-01  1.1986255301633565e-05  8.4852804117677056e+00  8.3793211331913646e+00  8.2733829983344993e+00  8.1673658638111295e+00  8.0612469245501295e+00  7.9550467384058985e+00  7.8488002537945887e+00  7.7425393670118154e+00  7.6362862578140831e+00  7.5300535737478622e+00  7.4238468989875654e+00  7.3176672809359085e+00  7.2115131641847237e+00  7.1053816925882352e+00  6.9992695381368453e+00  6.8931733874995995e+00  6.7870901969144359e+00  6.6810173042006973e+00  6.5749524625841387e+00  6.4688938211675469e+00  6.3628398776285167e+00  6.2567894272515554e+00  6.1507415201442743e+00  6.0446954206198589e+00  5.9386505644871352e+00  5.8326065178490252e+00  5.7265629456943392e+00  5.6205195931259873e+00  5.5144762758692494e+00  5.4084328734183131e+00  5.3023893202315264e+00  5.1963455937108884e+00  5.0903017006128231e+00  4.9842576642466421e+00  4.8782135143415637e+00  4.7721692802547935e+00  4.6661249872960378e+00  4.5600806553754794e+00  4.4540362991128513e+00  4.3479919286601447e+00  4.2419475507460076e+00  4.1359031696528588e+00  4.0298587880117847e+00  3.9238144073884875e+00  3.8177700286887819e+00  3.7117256524230346e+00  3.6056812788722370e+00  3.4996369081876035e+00  3.3935925404489740e+00  3.2875481756976499e+00  3.1815038139546608e+00  3.0754594552305226e+00  2.9694150995303987e+00  2.8633707468568694e+00  2.7573263972109729e+00  2.6512820505936641e+00  2.5452377070043597e+00  2.4391933664449605e+00  2.3331490289119370e+00  2.2271046944121502e+00  2.1210603629332900e+00  2.0150160344956212e+00  1.9089717090698526e+00  1.8029273866911089e+00  1.6968830673525697e+00  1.5908387510096085e+00  1.4847944380920448e+00  1.3787501278312704e+00  1.2727058228814569e+00  1.1666615147055521e+00  1.0606172010185797e+00  9.5457280950386336e-01  8.4852848455054330e-01  7.4248477497289711e-01  6.3644199907788102e-01  5.3039412956947218e-01  4.2434221211474860e-01  3.1828923829736872e-01  2.1222828932027463e-01  1.0612204758045574e-01  1.6498353158985654e-05  8.4852461507385772e+00  8.3793245177095592e+00  8.2733965846328097e+00  8.1673770207167777e+00  8.0612510830843984e+00  7.9550439909566082e+00  7.8487938754916486e+00  7.7425323399517865e+00  7.6362801055805756e+00  7.5300485705083151e+00  7.4238427739384223e+00  7.3176637220154790e+00  7.2115100233100042e+00  7.1053789636544806e+00  6.9992672732874226e+00  6.8931716254595141e+00  6.7870889345860936e+00  6.6810164965878647e+00  6.5749520415531855e+00  6.4688937130976560e+00  6.3628400145876096e+00  6.2567897506179424e+00  6.1507419823560339e+00  6.0446959851824982e+00  5.9386512048465647e+00  5.8326072145262984e+00  5.7265636834853986e+00  5.6205203590989417e+00  5.5144770588308525e+00  5.4084336641165409e+00  5.3023901118086023e+00  5.1963463817903532e+00  5.0903024830352139e+00  4.9842584404956138e+00  4.8782142849330477e+00  4.7721700461903849e+00  4.6661257496929744e+00  4.5600814152433955e+00  4.4540370572655936e+00  4.3479926856990101e+00  4.2419483070896664e+00  4.1359039255767547e+00  4.0298595436903035e+00  3.9238151629271742e+00  3.8177707841498676e+00  3.7117264078416681e+00  3.6056820342679177e+00  3.4996376635705064e+00  3.3935932958242185e+00  3.2875489310673025e+00  3.1815045693191433e+00  3.0754602105889886e+00  2.9694158548811713e+00  2.8633715021971056e+00  2.7573271525371794e+00  2.6512828059000686e+00  2.5452384622854836e+00  2.4391941216892228e+00  2.3331497841131301e+00  2.2271054495466194e+00  2.1210611179990009e+00  2.0150167894489717e+00  1.9089724639127457e+00  1.8029281413849141e+00  1.6968838218139060e+00  1.5908395054465350e+00  1.4847951917453261e+00  1.3787508824504735e+00  1.2727065745653430e+00  1.1666622750794402e+00  1.0606179565617107e+00  9.5457361115790773e-01  8.4852911261698416e-01  7.4248528700198602e-01  6.3644296825516244e-01  5.3039729266729763e-01  4.2434036599618324e-01  3.1829783144121560e-01  2.1222842331323818e-01  1.0614413751729541e-01  1.1984696068986230e-05  8.4852353060120347e+00  8.3793307774646486e+00  8.2733798191068182e+00  8.1673501283542365e+00  8.0612135642937819e+00  7.9550046887450305e+00  7.8487578733002961e+00  7.7425017493415291e+00  7.6362549874167218e+00  7.5300280626750720e+00  7.4238257554559439e+00  7.3176491531536589e+00  7.2114970725349581e+00  7.1053670332099399e+00  6.9992559647415922e+00  6.8931606875920437e+00  6.7870782132345475e+00  6.6810058995063191e+00  6.5749415115118621e+00  6.4688832117144051e+00  6.3628295149882295e+00  6.2567792360221315e+00  6.1507314435050127e+00  6.0446854162604025e+00  5.9386405997273410e+00  5.8325965662377266e+00  5.7265529861130489e+00  5.6205096103937029e+00  5.5144662614096918e+00  5.4084228249207964e+00  5.3023792402582561e+00  5.1963354877263628e+00  5.0902915751029720e+00  4.9842475253290184e+00  4.8782033670096938e+00  4.7721591281474431e+00  4.6661148328127648e+00  4.5600704999461321e+00  4.4540261434962618e+00  4.3479817731967376e+00  4.2419373955436166e+00  4.1358930147063289e+00  4.0298486332729198e+00  3.9238042528012795e+00  3.8177598742047785e+00  3.7117154980054461e+00  3.6056711244953807e+00  3.4996267538343893e+00  3.3935823861083989e+00  3.2875380213625833e+00  3.1814936596203136e+00  3.0754493008932609e+00  2.9694049451869242e+00  2.8633605925037937e+00  2.7573162428440257e+00  2.6512718962080881e+00  2.5452275525929182e+00  2.4391832120009820e+00  2.3331388744225223e+00  2.2270945398699205e+00  2.1210502083163596e+00  2.0150058797985828e+00  1.9089615542657479e+00  1.8029172317618545e+00  1.6968729123205066e+00  1.5908285956608801e+00  1.4847842827650577e+00  1.3787399708827279e+00  1.2726956668856719e+00  1.1666513549645834e+00  1.0606070766148743e+00  9.5456275541984226e-01  8.4851860034045179e-01  7.4247416432060676e-01  6.3643054861207338e-01  5.3038230920336626e-01  4.2433644782677804e-01  3.1829049114281355e-01  2.1227058200620444e-01  1.0609203087715693e-01  6.0874222504306545e-05  8.4857099792891955e+00  8.3792334675058644e+00  8.2734402978199153e+00  8.1673547959683255e+00  8.0612026853356866e+00  7.9549881534449405e+00  7.8487452025219309e+00  7.7424963756328884e+00  7.6362571955480592e+00  7.5300368062641327e+00  7.4238396509305939e+00  7.3176668990398612e+00  7.2115175719457207e+00  7.1053894290272162e+00  6.9992796220993938e+00  6.8931851582982828e+00  6.7871031931250823e+00  6.6810311917399803e+00  6.5749669898402674e+00  6.4689087921331234e+00  6.3628551401380467e+00  6.2568048695758920e+00  6.1507570644975180e+00  6.0447110111273394e+00  5.9386661552275450e+00  5.8326220676651772e+00  5.7265784201888676e+00  5.6205349696865214e+00  5.5144915467693796e+00  5.4084480449220109e+00  5.3024044083529729e+00  5.1963606188090026e+00  5.0903166827121638e+00  4.9842726201078289e+00  4.8782284563081397e+00  4.7721842164125174e+00  4.6661399223117117e+00  4.5600955915284551e+00  4.4540512372111261e+00  4.3480068687265074e+00  4.2419624924622523e+00  4.1359181126135889e+00  4.0298737318458411e+00  3.9238293518030822e+00  3.8177849734726439e+00  3.7117405974332298e+00  3.6056962240165102e+00  3.4996518534087531e+00  3.3936074857124967e+00  3.2875631209831826e+00  3.1815187592502330e+00  3.0754744005288974e+00  2.9694300448269071e+00  2.8633856921479235e+00  2.7573413424936151e+00  2.6512969958642914e+00  2.5452526522600656e+00  2.4392083116805239e+00  2.3331639741247643e+00  2.2271196395955339e+00  2.1210753080846021e+00  2.0150309796169155e+00  1.9089866541425704e+00  1.8029423317791211e+00  1.6968980123172377e+00  1.5908536961275501e+00  1.4848093824493902e+00  1.3787650720435636e+00  1.2727207614909088e+00  1.1666764537062504e+00  1.0606321483658947e+00  9.5458796339935148e-01  8.4854418894624906e-01  7.4250063081454765e-01  6.3645229700909112e-01  5.3039975476591184e-01  4.2436061686523380e-01  3.1834491687371319e-01  2.1231648579957835e-01  1.0628432141594919e-01  -4.6615598931994048e-04  8.4826455845350939e+00  8.3798098079739454e+00  8.2734829593772456e+00  8.1674634274903504e+00  8.0612761478735404e+00  7.9550375407647076e+00  7.8487742762099746e+00  7.7425128226229125e+00  7.6362674858759680e+00  7.5300455242293154e+00  7.4238495980585348e+00  7.3176795681430864e+00  7.2115335915180143e+00  7.1054088975217420e+00  6.9993023334115501e+00  6.8932107531945217e+00  6.7871312529389058e+00  6.6810612983936677e+00  6.5749987586942344e+00  6.4689418874772704e+00  6.3628892771521182e+00  6.2568398123190256e+00  6.1507926217237507e+00  6.0447470311828209e+00  5.9387025184702820e+00  5.8326586785943348e+00  5.7266152009080624e+00  5.6205718564622780e+00  5.5145284888705577e+00  5.4084850045655557e+00  5.3024413601716986e+00  5.1963975483863214e+00  5.0903535841910275e+00  4.9843094934998176e+00  4.8782653049759519e+00  4.7722210451282834e+00  4.6661767359543251e+00  4.5601323943816974e+00  4.4540880326832024e+00  4.3480436593453273e+00  4.2419992799984554e+00  4.1359548982524332e+00  4.0299105163488198e+00  3.9238661356435034e+00  3.8178217569352344e+00  3.7117773806850463e+00  3.6057330071528622e+00  3.4996886364830502e+00  3.3936442687539112e+00  3.2875999040075650e+00  3.1815555422660027e+00  3.0755111835407294e+00  2.9694668278373624e+00  2.8634224751590058e+00  2.7573781255062895e+00  2.6513337788813991e+00  2.5452894352809023e+00  2.4392450947135100e+00  2.3332007571612809e+00  2.2271564226650056e+00  2.1211120911450023e+00  2.0150677627679019e+00  1.9090234372314037e+00  1.8029791150960992e+00  1.6969347954609351e+00  1.5908904796403527e+00  1.4848461660047476e+00  1.3788018546644787e+00  1.2727575477481115e+00  1.1667132256335642e+00  1.0606689491145660e+00  9.5462467489297642e-01  8.4858116994014177e-01  7.4253739962716692e-01  6.3649125129573836e-01  5.3043231241525324e-01  4.2439907780717295e-01  3.1835275922826756e-01  2.1248713212056669e-01  1.0592218428458250e-01  2.3124343309730857e-03  8.4322963661958408e+00  8.3263561574582745e+00  8.2203412510437683e+00  8.1142292633307758e+00  8.0080321292294343e+00  7.9017889104356032e+00  7.7955296686750053e+00  7.6892758553305862e+00  7.5830403153150003e+00  7.4768293111169291e+00  7.3706445798587872e+00  7.2644850851947504e+00  7.1583483312628937e+00  7.0522312319969913e+00  6.9461306335549056e+00  6.8400435817201402e+00  6.7339674481378102e+00  6.6278999676449120e+00  6.5218392338085183e+00  6.4157836693559416e+00  6.3097319930081097e+00  6.2036831818851663e+00  6.0976364323963637e+00  5.9915911183043900e+00  5.8855467537135038e+00  5.7795029641328108e+00  5.6734594676529140e+00  5.5674160619679380e+00  5.4613726136819674e+00  5.3553290464403833e+00  5.2492853278042269e+00  5.1432414556509132e+00  5.0371974459902766e+00  4.9311533232108591e+00  4.8251091133689190e+00  4.7190648401866584e+00  4.6130205232428017e+00  4.5069761775731365e+00  4.4009318141024645e+00  4.2948874404044988e+00  4.1888430615303287e+00  4.0827986807317007e+00  3.9767543000410632e+00  3.8707099206927720e+00  3.7646655434192202e+00  3.6586211686443129e+00  3.5525767966090283e+00  3.4465324274472415e+00  3.3404880612324108e+00  3.2344436980039495e+00  3.1283993377829522e+00  3.0223549805804284e+00  2.9163106264022756e+00  2.8102662752515846e+00  2.7042219271301557e+00  2.5981775820389417e+00  2.4921332399785268e+00  2.3860889009493271e+00  2.2800445649501824e+00  2.1740002319827934e+00  2.0679559020384772e+00  1.9619115751276435e+00  1.8558672512176053e+00  1.7498229303310096e+00  1.6437786124041491e+00  1.5377342972835200e+00  1.4316899848929083e+00  1.3256456735993594e+00  1.2196013634574971e+00  1.1135570570489501e+00  1.0075128095968506e+00  9.0146880164744236e-01  7.9542512407543819e-01  6.8937981666276726e-01  5.8332912860171349e-01  4.7728013616071963e-01  3.7125384410345241e-01  2.6523467392190098e-01  1.5921737346612233e-01  5.2663449302557098e-02  8.4322741047332670e+00  8.3263719513752399e+00  8.2203881342698217e+00  8.1142950997787402e+00  8.0081182600197867e+00  7.9018881187501657e+00  7.7956353676609105e+00  7.6893831825298555e+00  7.5831464005459592e+00  7.4769327797598946e+00  7.3707450050897085e+00  7.2645825536412874e+00  7.1584431657842682e+00  7.0523238310583984e+00  6.9462213911134185e+00  6.8401328529074350e+00  6.7340555368322699e+00  6.6279871256076461e+00  6.5219256666488237e+00  6.4158695444329883e+00  6.3098174449179