<?xml version="1.0"?>
<VTKFile type="UnstructuredGrid"  version="0.1"  >
<UnstructuredGrid>
<Piece  NumberOfPoints="1369" NumberOfCells="2560">
<Points>
<DataArray  type="Float64"  NumberOfComponents="3"  format="ascii">0 0 0  0.75 0 0  1.5 0 0  2.25 0 0  3 0 0  3.75 0 0  4.5 0 0  5.25 0 0  6 0 0  6.75 0 0  7.5 0 0  8.25 0 0  9 0 0  9.75 0 0  10.5 0 0  11.25 0 0  12 0 0  12.75 0 0  13.5 0 0  14.25 0 0  15 0 0  15.75 0 0  16.5 0 0  17.25 0 0  18 0 0  18.75 0 0  19.5 0 0  20.25 0 0  21 0 0  21.75 0 0  22.5 0 0  23.25 0 0  24 0 0  24.75 0 0  25.5 0 0  26.25 0 0  27 0 0  27.75 0 0  28.5 0 0  29.25 0 0  30 0 0  30.75 0 0  31.5 0 0  32.25 0 0  33 0 0  33.75 0 0  34.5 0 0  35.25 0 0  36 0 0  36.75 0 0  37.5 0 0  38.25 0 0  39 0 0  39.75 0 0  40.5 0 0  41.25 0 0  42 0 0  42.75 0 0  43.5 0 0  44.25 0 0  45 0 0  45.75 0 0  46.5 0 0  47.25 0 0  48 0 0  48.75 0 0  49.5 0 0  50.25 0 0  51 0 0  51.75 0 0  52.5 0 0  53.25 0 0  54 0 0  54.75 0 0  55.5 0 0  56.25 0 0  57 0 0  57.75 0 0  58.5 0 0  59.25 0 0  60 0 0  0 0.5 0  0.75 0.5 0  1.5 0.5 0  2.25 0.5 0  3 0.5 0  3.75 0.5 0  4.5 0.5 0  5.25 0.5 0  6 0.5 0  6.75 0.5 0  7.5 0.5 0  8.25 0.5 0  9 0.5 0  9.75 0.5 0  10.5 0.5 0  11.25 0.5 0  12 0.5 0  12.75 0.5 0  13.5 0.5 0  14.25 0.5 0  15 0.5 0  15.75 0.5 0  16.5 0.5 0  17.25 0.5 0  18 0.5 0  18.75 0.5 0  19.5 0.5 0  20.25 0.5 0  21 0.5 0  21.75 0.5 0  22.5 0.5 0  23.25 0.5 0  24 0.5 0  24.75 0.5 0  25.5 0.5 0  26.25 0.5 0  27 0.5 0  27.75 0.5 0  28.5 0.5 0  29.25 0.5 0  30 0.5 0  30.75 0.5 0  31.5 0.5 0  32.25 0.5 0  33 0.5 0  33.75 0.5 0  34.5 0.5 0  35.25 0.5 0  36 0.5 0  36.75 0.5 0  37.5 0.5 0  38.25 0.5 0  39 0.5 0  39.75 0.5 0  40.5 0.5 0  41.25 0.5 0  42 0.5 0  42.75 0.5 0  43.5 0.5 0  44.25 0.5 0  45 0.5 0  45.75 0.5 0  46.5 0.5 0  47.25 0.5 0  48 0.5 0  48.75 0.5 0  49.5 0.5 0  50.25 0.5 0  51 0.5 0  51.75 0.5 0  52.5 0.5 0  53.25 0.5 0  54 0.5 0  54.75 0.5 0  55.5 0.5 0  56.25 0.5 0  57 0.5 0  57.75 0.5 0  58.5 0.5 0  59.25 0.5 0  60 0.5 0  0 1 0  0.75 1 0  1.5 1 0  2.25 1 0  3 1 0  3.75 1 0  4.5 1 0  5.25 1 0  6 1 0  6.75 1 0  7.5 1 0  8.25 1 0  9 1 0  9.75 1 0  10.5 1 0  11.25 1 0  12 1 0  12.75 1 0  13.5 1 0  14.25 1 0  15 1 0  15.75 1 0  16.5 1 0  17.25 1 0  18 1 0  18.75 1 0  19.5 1 0  20.25 1 0  21 1 0  21.75 1 0  22.5 1 0  23.25 1 0  24 1 0  24.75 1 0  25.5 1 0  26.25 1 0  27 1 0  27.75 1 0  28.5 1 0  29.25 1 0  30 1 0  30.75 1 0  31.5 1 0  32.25 1 0  33 1 0  33.75 1 0  34.5 1 0  35.25 1 0  36 1 0  36.75 1 0  37.5 1 0  38.25 1 0  39 1 0  39.75 1 0  40.5 1 0  41.25 1 0  42 1 0  42.75 1 0  43.5 1 0  44.25 1 0  45 1 0  45.75 1 0  46.5 1 0  47.25 1 0  48 1 0  48.75 1 0  49.5 1 0  50.25 1 0  51 1 0  51.75 1 0  52.5 1 0  53.25 1 0  54 1 0  54.75 1 0  55.5 1 0  56.25 1 0  57 1 0  57.75 1 0  58.5 1 0  59.25 1 0  60 1 0  0 1.5 0  0.75 1.5 0  1.5 1.5 0  2.25 1.5 0  3 1.5 0  3.75 1.5 0  4.5 1.5 0  5.25 1.5 0  6 1.5 0  6.75 1.5 0  7.5 1.5 0  8.25 1.5 0  9 1.5 0  9.75 1.5 0  10.5 1.5 0  11.25 1.5 0  12 1.5 0  12.75 1.5 0  13.5 1.5 0  14.25 1.5 0  15 1.5 0  15.75 1.5 0  16.5 1.5 0  17.25 1.5 0  18 1.5 0  18.75 1.5 0  19.5 1.5 0  20.25 1.5 0  21 1.5 0  21.75 1.5 0  22.5 1.5 0  23.25 1.5 0  24 1.5 0  24.75 1.5 0  25.5 1.5 0  26.25 1.5 0  27 1.5 0  27.75 1.5 0  28.5 1.5 0  29.25 1.5 0  30 1.5 0  30.75 1.5 0  31.5 1.5 0  32.25 1.5 0  33 1.5 0  33.75 1.5 0  34.5 1.5 0  35.25 1.5 0  36 1.5 0  36.75 1.5 0  37.5 1.5 0  38.25 1.5 0  39 1.5 0  39.75 1.5 0  40.5 1.5 0  41.25 1.5 0  42 1.5 0  42.75 1.5 0  43.5 1.5 0  44.25 1.5 0  45 1.5 0  45.75 1.5 0  46.5 1.5 0  47.25 1.5 0  48 1.5 0  48.75 1.5 0  49.5 1.5 0  50.25 1.5 0  51 1.5 0  51.75 1.5 0  52.5 1.5 0  53.25 1.5 0  54 1.5 0  54.75 1.5 0  55.5 1.5 0  56.25 1.5 0  57 1.5 0  57.75 1.5 0  58.5 1.5 0  59.25 1.5 0  60 1.5 0  0 2 0  0.75 2 0  1.5 2 0  2.25 2 0  3 2 0  3.75 2 0  4.5 2 0  5.25 2 0  6 2 0  6.75 2 0  7.5 2 0  8.25 2 0  9 2 0  9.75 2 0  10.5 2 0  11.25 2 0  12 2 0  12.75 2 0  13.5 2 0  14.25 2 0  15 2 0  15.75 2 0  16.5 2 0  17.25 2 0  18 2 0  18.75 2 0  19.5 2 0  20.25 2 0  21 2 0  21.75 2 0  22.5 2 0  23.25 2 0  24 2 0  24.75 2 0  25.5 2 0  26.25 2 0  27 2 0  27.75 2 0  28.5 2 0  29.25 2 0  30 2 0  30.75 2 0  31.5 2 0  32.25 2 0  33 2 0  33.75 2 0  34.5 2 0  35.25 2 0  36 2 0  36.75 2 0  37.5 2 0  38.25 2 0  39 2 0  39.75 2 0  40.5 2 0  41.25 2 0  42 2 0  42.75 2 0  43.5 2 0  44.25 2 0  45 2 0  45.75 2 0  46.5 2 0  47.25 2 0  48 2 0  48.75 2 0  49.5 2 0  50.25 2 0  51 2 0  51.75 2 0  52.5 2 0  53.25 2 0  54 2 0  54.75 2 0  55.5 2 0  56.25 2 0  57 2 0  57.75 2 0  58.5 2 0  59.25 2 0  60 2 0  0 2.5 0  0.75 2.5 0  1.5 2.5 0  2.25 2.5 0  3 2.5 0  3.75 2.5 0  4.5 2.5 0  5.25 2.5 0  6 2.5 0  6.75 2.5 0  7.5 2.5 0  8.25 2.5 0  9 2.5 0  9.75 2.5 0  10.5 2.5 0  11.25 2.5 0  12 2.5 0  12.75 2.5 0  13.5 2.5 0  14.25 2.5 0  15 2.5 0  15.75 2.5 0  16.5 2.5 0  17.25 2.5 0  18 2.5 0  18.75 2.5 0  19.5 2.5 0  20.25 2.5 0  21 2.5 0  21.75 2.5 0  22.5 2.5 0  23.25 2.5 0  24 2.5 0  24.75 2.5 0  25.5 2.5 0  26.25 2.5 0  27 2.5 0  27.75 2.5 0  28.5 2.5 0  29.25 2.5 0  30 2.5 0  30.75 2.5 0  31.5 2.5 0  32.25 2.5 0  33 2.5 0  33.75 2.5 0  34.5 2.5 0  35.25 2.5 0  36 2.5 0  36.75 2.5 0  37.5 2.5 0  38.25 2.5 0  39 2.5 0  39.75 2.5 0  40.5 2.5 0  41.25 2.5 0  42 2.5 0  42.75 2.5 0  43.5 2.5 0  44.25 2.5 0  45 2.5 0  45.75 2.5 0  46.5 2.5 0  47.25 2.5 0  48 2.5 0  48.75 2.5 0  49.5 2.5 0  50.25 2.5 0  51 2.5 0  51.75 2.5 0  52.5 2.5 0  53.25 2.5 0  54 2.5 0  54.75 2.5 0  55.5 2.5 0  56.25 2.5 0  57 2.5 0  57.75 2.5 0  58.5 2.5 0  59.25 2.5 0  60 2.5 0  0 3 0  0.75 3 0  1.5 3 0  2.25 3 0  3 3 0  3.75 3 0  4.5 3 0  5.25 3 0  6 3 0  6.75 3 0  7.5 3 0  8.25 3 0  9 3 0  9.75 3 0  10.5 3 0  11.25 3 0  12 3 0  12.75 3 0  13.5 3 0  14.25 3 0  15 3 0  15.75 3 0  16.5 3 0  17.25 3 0  18 3 0  18.75 3 0  19.5 3 0  20.25 3 0  21 3 0  21.75 3 0  22.5 3 0  23.25 3 0  24 3 0  24.75 3 0  25.5 3 0  26.25 3 0  27 3 0  27.75 3 0  28.5 3 0  29.25 3 0  30 3 0  30.75 3 0  31.5 3 0  32.25 3 0  33 3 0  33.75 3 0  34.5 3 0  35.25 3 0  36 3 0  36.75 3 0  37.5 3 0  38.25 3 0  39 3 0  39.75 3 0  40.5 3 0  41.25 3 0  42 3 0  42.75 3 0  43.5 3 0  44.25 3 0  45 3 0  45.75 3 0  46.5 3 0  47.25 3 0  48 3 0  48.75 3 0  49.5 3 0  50.25 3 0  51 3 0  51.75 3 0  52.5 3 0  53.25 3 0  54 3 0  54.75 3 0  55.5 3 0  56.25 3 0  57 3 0  57.75 3 0  58.5 3 0  59.25 3 0  60 3 0  0 3.5 0  0.75 3.5 0  1.5 3.5 0  2.25 3.5 0  3 3.5 0  3.75 3.5 0  4.5 3.5 0  5.25 3.5 0  6 3.5 0  6.75 3.5 0  7.5 3.5 0  8.25 3.5 0  9 3.5 0  9.75 3.5 0  10.5 3.5 0  11.25 3.5 0  12 3.5 0  12.75 3.5 0  13.5 3.5 0  14.25 3.5 0  15 3.5 0  15.75 3.5 0  16.5 3.5 0  17.25 3.5 0  18 3.5 0  18.75 3.5 0  19.5 3.5 0  20.25 3.5 0  21 3.5 0  21.75 3.5 0  22.5 3.5 0  23.25 3.5 0  24 3.5 0  24.75 3.5 0  25.5 3.5 0  26.25 3.5 0  27 3.5 0  27.75 3.5 0  28.5 3.5 0  29.25 3.5 0  30 3.5 0  30.75 3.5 0  31.5 3.5 0  32.25 3.5 0  33 3.5 0  33.75 3.5 0  34.5 3.5 0  35.25 3.5 0  36 3.5 0  36.75 3.5 0  37.5 3.5 0  38.25 3.5 0  39 3.5 0  39.75 3.5 0  40.5 3.5 0  41.25 3.5 0  42 3.5 0  42.75 3.5 0  43.5 3.5 0  44.25 3.5 0  45 3.5 0  45.75 3.5 0  46.5 3.5 0  47.25 3.5 0  48 3.5 0  48.75 3.5 0  49.5 3.5 0  50.25 3.5 0  51 3.5 0  51.75 3.5 0  52.5 3.5 0  53.25 3.5 0  54 3.5 0  54.75 3.5 0  55.5 3.5 0  56.25 3.5 0  57 3.5 0  57.75 3.5 0  58.5 3.5 0  59.25 3.5 0  60 3.5 0  0 4 0  0.75 4 0  1.5 4 0  2.25 4 0  3 4 0  3.75 4 0  4.5 4 0  5.25 4 0  6 4 0  6.75 4 0  7.5 4 0  8.25 4 0  9 4 0  9.75 4 0  10.5 4 0  11.25 4 0  12 4 0  12.75 4 0  13.5 4 0  14.25 4 0  15 4 0  15.75 4 0  16.5 4 0  17.25 4 0  18 4 0  18.75 4 0  19.5 4 0  20.25 4 0  21 4 0  21.75 4 0  22.5 4 0  23.25 4 0  24 4 0  24.75 4 0  25.5 4 0  26.25 4 0  27 4 0  27.75 4 0  28.5 4 0  29.25 4 0  30 4 0  30.75 4 0  31.5 4 0  32.25 4 0  33 4 0  33.75 4 0  34.5 4 0  35.25 4 0  36 4 0  36.75 4 0  37.5 4 0  38.25 4 0  39 4 0  39.75 4 0  40.5 4 0  41.25 4 0  42 4 0  42.75 4 0  43.5 4 0  44.25 4 0  45 4 0  45.75 4 0  46.5 4 0  47.25 4 0  48 4 0  48.75 4 0  49.5 4 0  50.25 4 0  51 4 0  51.75 4 0  52.5 4 0  53.25 4 0  54 4 0  54.75 4 0  55.5 4 0  56.25 4 0  57 4 0  57.75 4 0  58.5 4 0  59.25 4 0  60 4 0  0.375 0.25 0  1.125 0.25 0  1.875 0.25 0  2.625 0.25 0  3.375 0.25 0  4.125 0.25 0  4.875 0.25 0  5.625 0.25 0  6.375 0.25 0  7.125 0.25 0  7.875 0.25 0  8.625 0.25 0  9.375 0.25 0  10.125 0.25 0  10.875 0.25 0  11.625 0.25 0  12.375 0.25 0  13.125 0.25 0  13.875 0.25 0  14.625 0.25 0  15.375 0.25 0  16.125 0.25 0  16.875 0.25 0  17.625 0.25 0  18.375 0.25 0  19.125 0.25 0  19.875 0.25 0  20.625 0.25 0  21.375 0.25 0  22.125 0.25 0  22.875 0.25 0  23.625 0.25 0  24.375 0.25 0  25.125 0.25 0  25.875 0.25 0  26.625 0.25 0  27.375 0.25 0  28.125 0.25 0  28.875 0.25 0  29.625 0.25 0  30.375 0.25 0  31.125 0.25 0  31.875 0.25 0  32.625 0.25 0  33.375 0.25 0  34.125 0.25 0  34.875 0.25 0  35.625 0.25 0  36.375 0.25 0  37.125 0.25 0  37.875 0.25 0  38.625 0.25 0  39.375 0.25 0  40.125 0.25 0  40.875 0.25 0  41.625 0.25 0  42.375 0.25 0  43.125 0.25 0  43.875 0.25 0  44.625 0.25 0  45.375 0.25 0  46.125 0.25 0  46.875 0.25 0  47.625 0.25 0  48.375 0.25 0  49.125 0.25 0  49.875 0.25 0  50.625 0.25 0  51.375 0.25 0  52.125 0.25 0  52.875 0.25 0  53.625 0.25 0  54.375 0.25 0  55.125 0.25 0  55.875 0.25 0  56.625 0.25 0  57.375 0.25 0  58.125 0.25 0  58.875 0.25 0  59.625 0.25 0  0.375 0.75 0  1.125 0.75 0  1.875 0.75 0  2.625 0.75 0  3.375 0.75 0  4.125 0.75 0  4.875 0.75 0  5.625 0.75 0  6.375 0.75 0  7.125 0.75 0  7.875 0.75 0  8.625 0.75 0  9.375 0.75 0  10.125 0.75 0  10.875 0.75 0  11.625 0.75 0  12.375 0.75 0  13.125 0.75 0  13.875 0.75 0  14.625 0.75 0  15.375 0.75 0  16.125 0.75 0  16.875 0.75 0  17.625 0.75 0  18.375 0.75 0  19.125 0.75 0  19.875 0.75 0  20.625 0.75 0  21.375 0.75 0  22.125 0.75 0  22.875 0.75 0  23.625 0.75 0  24.375 0.75 0  25.125 0.75 0  25.875 0.75 0  26.625 0.75 0  27.375 0.75 0  28.125 0.75 0  28.875 0.75 0  29.625 0.75 0  30.375 0.75 0  31.125 0.75 0  31.875 0.75 0  32.625 0.75 0  33.375 0.75 0  34.125 0.75 0  34.875 0.75 0  35.625 0.75 0  36.375 0.75 0  37.125 0.75 0  37.875 0.75 0  38.625 0.75 0  39.375 0.75 0  40.125 0.75 0  40
[...]
<PointData  Scalars="f_8-1"> 
<DataArray  type="Float64"  Name="f_8-1"  format="ascii">1.0690748951927521e+01  1.0559635263192508e+01  1.0423793797523970e+01  1.0291329819181458e+01  1.0157207882687750e+01  1.0023798832492497e+01  9.8900509592932639e+00  9.7564452788904745e+00  9.6227817918371858e+00  9.4891402681666133e+00  9.3554907562420961e+00  9.2218440715815859e+00  9.0881964392216048e+00  8.9545491301294042e+00  8.8209017200282265e+00  8.6872543439819339e+00  8.5536069576186691e+00  8.4199595741991367e+00  8.2863121892392559e+00  8.1526648039351155e+00  8.0190174178266940e+00  7.8853700310059747e+00  7.7517226434210533e+00  7.6180752550754498e+00  7.4844278659618801e+00  7.3507804760794579e+00  7.2171330854268563e+00  7.0834856940036310e+00  6.9498383018095327e+00  6.8161909088443533e+00  6.6825435151080219e+00  6.5488961206005190e+00  6.4152487253218258e+00  6.2816013292719237e+00  6.1479539324507506e+00  6.0143065348583828e+00  5.8806591364947005e+00  5.7470117373597622e+00  5.6133643374535875e+00  5.4797169367761622e+00  5.3460695353273859e+00  5.2124221331073519e+00  5.0787747301158541e+00  4.9451273263530888e+00  4.8114799218185329e+00  4.6778325165126162e+00  4.5441851104341060e+00  4.4105377035837998e+00  4.2768902959589177e+00  4.1432428875600920e+00  4.0095954783811409e+00  3.8759480684195462e+00  3.7423006576599089e+00  3.6086532460837368e+00  3.4750058336456746e+00  3.3413584202607427e+00  3.2077110057690801e+00  3.0740635898135724e+00  2.9404161717305373e+00  2.8067687499395819e+00  2.6731213212032641e+00  2.5394738776378616e+00  2.4058264018417863e+00  2.2721788530127234e+00  2.1385311442229127e+00  2.0048830954231596e+00  1.8712343781180616e+00  1.7375844550407786e+00  1.6039326294384717e+00  1.4702782678111475e+00  1.3366212971975566e+00  1.2029625093991017e+00  1.0693033581099327e+00  9.3564526964008587e-01  8.0199013662053442e-01  6.6834120481809178e-01  5.3470492871479247e-01  4.0109450621965914e-01  2.6754719674300642e-01  1.3415066900621841e-01  2.6789191328065384e-03  1.0692453263351908e+01  1.0558638379592404e+01  1.0424604229691251e+01  1.0291037560345462e+01  1.0157436859816299e+01  1.0023764178944539e+01  9.8901379050498601e+00  9.7564791944021927e+00  9.6228374089431536e+00  9.4891874679746202e+00  9.3555410935131658e+00  9.2218932922504759e+00  9.0882460507476512e+00  8.9545986114044176e+00  8.8209512453165608e+00  8.6873038554614119e+00  8.5536564737484326e+00  8.4200090889776060e+00  8.2863617044945599e+00  8.1527143190687390e+00  8.0190669330091513e+00  7.8854195461783334e+00  7.7517721585982553e+00  7.6181247702515851e+00  7.4844773811382010e+00  7.3508299912554236e+00  7.2171826006025670e+00  7.0835352091791028e+00  6.9498878169847629e+00  6.8162404240193846e+00  6.6825930302828720e+00  6.5489456357752305e+00  6.4152982404963828e+00  6.2816508444463279e+00  6.1480034476250429e+00  6.0143560500325233e+00  5.8807086516687272e+00  5.7470612525336673e+00  5.6134138526273798e+00  5.4797664519498088e+00  5.3461190505009357e+00  5.2124716482807703e+00  5.0788242452891943e+00  4.9451768415262647e+00  4.8115294369917114e+00  4.6778820316855532e+00  4.5442346256071602e+00  4.4105872187564836e+00  4.2769398111319115e+00  4.1432924027324258e+00  4.0096449935538772e+00  3.8759975835909684e+00  3.7423501728309447e+00  3.6087027612513962e+00  3.4750553488082461e+00  3.3414079354123900e+00  3.2077605208969726e+00  3.0741131049067931e+00  2.9404656867552657e+00  2.8068182649205791e+00  2.6731708361835627e+00  2.5395233929387251e+00  2.4058759175489466e+00  2.2722283677267141e+00  2.1385806479254041e+00  2.0049325544536387e+00  1.8712837034790759e+00  1.7376334751162190e+00  1.6039811075377004e+00  1.4703260657464838e+00  1.3366686066112379e+00  1.2030098443653312e+00  1.0693511048557134e+00  9.3569370068407443e-01  8.0203979387212920e-01  6.6839277151537702e-01  5.3475841528352885e-01  4.0114753441500822e-01  2.6758545537543160e-01  1.3416807022473184e-01  1.2029635113824968e-04  1.0691965487048295e+01  1.0558627223904107e+01  1.0424726005489767e+01  1.0291140013192953e+01  1.0157455742812184e+01  1.0023824579809943e+01  9.8901678211172275e+00  9.7565250249766660e+00  9.6228752749603856e+00  9.4892288897172659e+00  9.3555810471170116e+00  9.2219338322320255e+00  9.0882863779124641e+00  8.9546390187441069e+00  8.8209916266559674e+00  8.6873442466173358e+00  8.5536968621541902e+00  8.4200494785323521e+00  8.2864020938059184e+00  8.1527547085175502e+00  8.0191073224435776e+00  7.8854599356302071e+00  7.7518125480502844e+00  7.6181651597054829e+00  7.4845177705918502e+00  7.3508703807086793e+00  7.2172229900551770e+00  7.0835755986310343e+00  6.9499282064359527e+00  6.8162808134698762e+00  6.6826334197326389e+00  6.5489860252243206e+00  6.4153386299447872e+00  6.2816912338940325e+00  6.1480438370720938e+00  6.0143964394788743e+00  5.8807490411144281e+00  5.7471016419787144e+00  5.6134542420717608e+00  5.4798068413935406e+00  5.3461594399440262e+00  5.2125120377231910e+00  5.0788646347310387e+00  4.9452172309674678e+00  4.8115698264324411e+00  4.6779224211256540e+00  4.5442750150471296e+00  4.4106276081959557e+00  4.2769802005721811e+00  4.1433327921729832e+00  4.0096853829979473e+00  3.8760379730387458e+00  3.7423905622911038e+00  3.6087431507293881e+00  3.4750957383298728e+00  3.3414483250093547e+00  3.2078009106588032e+00  3.0741534949925340e+00  2.9405060775611185e+00  2.8068586573547738e+00  2.6732112325805346e+00  2.5395637990890756e+00  2.4059163472015976e+00  2.2722688500161201e+00  2.1386212350486029e+00  2.0049733169138078e+00  1.8713246831503474e+00  1.7376745644875777e+00  1.6040218920662537e+00  1.4703658913114936e+00  1.3367071642616004e+00  1.2030476634425662e+00  1.0693886429846551e+00  9.3573066974829044e-01  8.0207608887386517e-01  6.6842819553695532e-01  5.3479112268013973e-01  4.0116916428451482e-01  2.6756195844489072e-01  1.3391695250582086e-01  5.8008499491545968e-05  1.0692112180997601e+01  1.0558426097417131e+01  1.0424789426669506e+01  1.0291096442127285e+01  1.0157452912260140e+01  1.0023795427508364e+01  9.8901497329954591e+00  9.7565005024273805e+00  9.6228535934413646e+00  9.4892058703979707e+00  9.3555585808439670e+00  9.2219111411217565e+00  9.0882637734709739e+00  8.9546163827397205e+00  8.8209690023136673e+00  8.6873216184410431e+00  8.5536742354059463e+00  8.4200268513783172e+00  8.2863794668222841e+00  8.1527320814996216e+00  8.0190846954477184e+00  7.8854373086334961e+00  7.7517899210569707e+00  7.6181425327126648e+00  7.4844951435994993e+00  7.3508477537161800e+00  7.2172003630624291e+00  7.0835529716377925e+00  6.9499055794422286e+00  6.8162581864754967e+00  6.6826107927376608e+00  6.5489633982286390e+00  6.4153160029484235e+00  6.2816686068969911e+00  6.1480212100743206e+00  6.0143738124804145e+00  5.8807264141152453e+00  5.7470790149788238e+00  5.6134316150711738e+00  5.4797842143922910e+00  5.3461368129420590e+00  5.2124894107206190e+00  5.0788420077278200e+00  4.9451946039637109e+00  4.8115471994281318e+00  4.6778997941210507e+00  4.5442523880421444e+00  4.4106049811911259e+00  4.2769575735673948e+00  4.1433101651691837e+00  4.0096627559950280e+00  3.8760153460382218e+00  3.7423679352929122e+00  3.6087205237353253e+00  3.4750731113402167e+00  3.3414256980249886e+00  3.2077782836842008e+00  3.0741308680349344e+00  2.9404834506713171e+00  2.8068360306289968e+00  2.6731886062692589e+00  2.5395411732974975e+00  2.4058937210602029e+00  2.2722462179006313e+00  2.1385985790585620e+00  2.0049505925219511e+00  1.8713018092110114e+00  1.7376514359354527e+00  1.6039984591056746e+00  1.4703422655324390e+00  1.3366836054357534e+00  1.2030243219041266e+00  1.0693655813526801e+00  9.3570815625893045e-01  8.0205434453187840e-01  6.6840683068852547e-01  5.3476809288532778e-01  4.0113699647065620e-01  2.6750022162925846e-01  1.3381376235959935e-01  1.4033143872587381e-05  1.0692055948986924e+01  1.0558435257221017e+01  1.0424754350848980e+01  1.0291097699795229e+01  1.0157434584355389e+01  1.0023785457241726e+01  9.8901351008970675e+00  9.7564877183805230e+00  9.6228398670431190e+00  9.4891925199134981e+00  9.3555450609729380e+00  9.2218976861381261e+00  9.0882502918272223e+00  8.9546029107407747e+00  8.8209555266164994e+00  8.6873081440198465e+00  8.5536607605329245e+00  8.4200133766669758e+00  8.2863659920672905e+00  8.1527186067689783e+00  8.0190712207172794e+00  7.8854238339091332e+00  7.7517764463351515e+00  7.6181290579932037e+00  7.4844816688814282e+00  7.3508342789991392e+00  7.2171868883459718e+00  7.0835394969217296e+00  6.9498921047263327e+00  6.8162447117597234e+00  6.6825973180218794e+00  6.5489499235127964e+00  6.4153025282324734e+00  6.2816551321809149e+00  6.1480077353581253e+00  6.0143603377640593e+00  5.8807129393987498e+00  5.7470655402621817e+00  5.6134181403544199e+00  5.4797707396753808e+00  5.3461233382251212e+00  5.2124759360035657e+00  5.0788285330108263e+00  4.9451811292467580e+00  4.8115337247114294e+00  4.6778863194046947e+00  4.5442389133264376e+00  4.4105915064764716e+00  4.2769440988539627e+00  4.1432966904583637e+00  4.0096492812860953e+00  3.8760018713347679e+00  3.7423544605910686e+00  3.6087070490429238e+00  3.4750596366433313e+00  3.3414122233373074e+00  3.2077648089615067e+00  3.0741173932923433e+00  2.9404699757686839e+00  2.8068225555023480e+00  2.6731751302481470e+00  2.5395276950682186e+00  2.4058802356202413e+00  2.2722327136691094e+00  2.1385850278417609e+00  2.0049369452234251e+00  1.8712879959317081e+00  1.7376374196921989e+00  1.6039843220196510e+00  1.4703282708571523e+00  1.3366699511091027e+00  1.2030109170792989e+00  1.0693523703834931e+00  9.3569543189056148e-01  8.0204214507511429e-01  6.6839509599736247e-01  5.3475582126722465e-01  4.0112146783161390e-01  2.6747537421999923e-01  1.3377973081936981e-01  9.2987995744912522e-06  1.0692112191369198e+01  1.0558426120912390e+01  1.0424789433401097e+01  1.0291096438586026e+01  1.0157452910211209e+01  1.0023795424548510e+01  9.8901497320453320e+00  9.7565005018926740e+00  9.6228535939335469e+00  9.4892058713766989e+00  9.3555585823456280e+00  9.2219111429528677e+00  9.0882637755715745e+00  8.9546163850261049e+00  8.8209690047370835e+00  8.6873216209605477e+00  8.5536742379936204e+00  8.4200268540135710e+00  8.2863794694906989e+00  8.1527320841910296e+00  8.0190846981550568e+00  7.8854373113518017e+00  7.7517899237828471e+00  7.6181425354437486e+00  7.4844951463340950e+00  7.3508477564532591e+00  7.2172003658011379e+00  7.0835529743776675e+00  6.9499055821828506e+00  6.8162581892166845e+00  6.6826107954792260e+00  6.5489634009704485e+00  6.4153160056903795e+00  6.2816686096390812e+00  6.1480212128165137e+00  6.0143738152226769e+00  5.8807264168575788e+00  5.7470790177212550e+00  5.6134316178137009e+00  5.4797842171349318e+00  5.3461368156849201e+00  5.2124894134637332e+00  5.0788420104713285e+00  4.9451946067077666e+00  4.8115472021729833e+00  4.6778997968671066e+00  4.5442523907899517e+00  4.4106049839414867e+00  4.2769575763215029e+00  4.1433101679287754e+00  4.0096627587626026e+00  3.8760153488174005e+00  3.7423679380889698e+00  3.6087205265558073e+00  3.4750731141959292e+00  3.3414257009313544e+00  3.2077782866631930e+00  3.0741308711182822e+00  2.9404834539056020e+00  2.8068360340841494e+00  2.6731886100506488e+00  2.5395411775579309e+00  2.4058937259957882e+00  2.2722462236946681e+00  2.1385985857269878e+00  2.0049505996681027e+00  1.8713018158798218e+00  1.7376514409787829e+00  1.6039984622397003e+00  1.4703422680534373e+00  1.3366836086424880e+00  1.2030243243720666e+00  1.0693655808835156e+00  9.3570815427828324e-01  8.0205434322915026e-01  6.6840683386671396e-01  5.3476810858715074e-01  4.0113703553991242e-01  2.6750029313407669e-01  1.3381384701404733e-01  1.4044353796788517e-05  1.0691965448994155e+01  1.0558627315449328e+01  1.0424725999659339e+01  1.0291140021780501e+01  1.0157455740659385e+01  1.0023824584061028e+01  9.8901678235153110e+00  9.7565250305065003e+00  9.6228752804053723e+00  9.4892288965039402e+00  9.3555810542894786e+00  9.2219338399801529e+00  9.0882863859786198e+00  8.9546390270844594e+00  8.8209916351800857e+00  8.6873442552777114e+00  8.5536968709094747e+00  8.4200494873548646e+00  8.2864021026752024e+00  8.1527547174194073e+00  8.0191073313680352e+00  7.8854599445702833e+00  7.7518125570011049e+00  7.6181651686637055e+00  7.4845177795551399e+00  7.3508703896754604e+00  7.2172229990243224e+00  7.0835756076018157e+00  6.9499282154078692e+00  6.8162808224425389e+00  6.6826334287058957e+00  6.5489860341978856e+00  6.4153386389185583e+00  6.2816912428680363e+00  6.1480438460462157e+00  6.0143964484531161e+00  5.8807490500887623e+00  5.7471016509531934e+00  5.6134542510464058e+00  5.4798068503683712e+00  5.3461594489191633e+00  5.2125120466987562e+00  5.0788646437072371e+00  4.9452172399445002e+00  4.8115698354107446e+00  4.6779224301058528e+00  4.5442750240300782e+00  4.4106276171829260e+00  4.2769802095650649e+00  4.1433328011745019e+00  4.0096853920120452e+00  3.8760379820711401e+00  3.7423905713500529e+00  3.6087431598268225e+00  3.4750957474828201e+00  3.3414483342421768e+00  3.2078009200063837e+00  3.0741535045053205e+00  2.9405060873130671e+00  2.8068586674559310e+00  2.6732112431938249e+00  2.5395638104453471e+00  2.4059163595904978e+00  2.2722688637063184e+00  2.1386212500823754e+00  2.0049733327916970e+00  1.8713246986434859e+00  1.7376745780654159e+00  1.6040219031487701e+00  1.4703659011744559e+00  1.3367071743895569e+00  1.2030476724029830e+00  1.0693886481265142e+00  9.3573067259393261e-01  8.0207609342210440e-01  6.6842820871613740e-01  5.3479115904031960e-01  4.0116924630468687e-01  2.6756211750634007e-01  1.3391717114271867e-01  5.8068696118464684e-05  1.0692453391847243e+01  1.0558638556122443e+01  1.0424604217526792e+01  1.0291037598868202e+01  1.0157436901123612e+01  1.0023764212086052e+01  9.8901379479899223e+00  9.7564792316468196e+00  9.6228374500473972e+00  9.4891875080355756e+00  9.3555411345681385e+00  9.2218933333826740e+00  9.0882460921959094e+00  8.9545986530045774e+00  8.8209512870574720e+00  8.6873038972961130e+00  8.5536565156533566e+00  8.4200091309316445e+00  8.2863617464835428e+00  8.1527143610821025e+00  8.0190669750395340e+00  7.8854195882206497e+00  7.7517722006487109e+00  7.6181248123076797e+00  7.4844774231982445e+00  7.3508300333181182e+00  7.2171826426670904e+00  7.0835352512448990e+00  6.9498878590514268e+00  6.8162404660866232e+00  6.6825930723505991e+00  6.5489456778431512e+00  6.4152982825644846e+00  6.2816508865145941e+00  6.1480034896934388e+00  6.0143560921009618e+00  5.8807086937372830e+00  5.7470612946023731e+00  5.6134138946962517e+00  5.4797664940189081e+00  5.3461190925703574e+00  5.2124716903506521e+00  5.0788242873597840e+00  4.9451768835978012e+00  4.8115294790646317e+00  4.6778820737605971e+00  4.5442346676852727e+00  4.4105872608390362e+00  4.2769398532210579e+00  4.1432924448311530e+00  4.0096450356665718e+00  3.8759976257239437e+00  3.7423502149933503e+00  3.6087028034564468e+00  3.4750553910748203e+00  3.3414079777676147e+00  3.2077605633798236e+00  3.0741131475737040e+00  2.9404657296882717e+00  2.8068183082389853e+00  2.6731708800566127e+00  2.5395234375923135e+00  2.4058759632459061e+00  2.2722284146902205e+00  2.1385806961785634e+00  2.0049326036148365e+00  1.8712837526759059e+00  1.7376335232838931e+00  1.6039811541150601e+00  1.4703261111220312e+00  1.3366686513452999e+00  1.2030098878494868e+00  1.0693511459415117e+00  9.3569374033696373e-01  8.0203983631365972e-01  6.6839282570401504e-01  5.3475849907179795e-01  4.0114768166428716e-01  2.6758573467876340e-01  1.3416868758262721e-01  1.2043803199550545e-04  1.0690748320654031e+01  1.0559636032824613e+01  1.0423793445020847e+01  1.0291330088758135e+01  1.0157207860036200e+01  1.0023798951884855e+01  9.8900510171317517e+00  9.7564453604987200e+00  9.6227818651556856e+00  9.4891403444141122e+00  9.3554908317835519e+00  9.2218441475242781e+00  9.0881965152138307e+00  8.9545492062405483e+00  8.8209017962110803e+00  8.6872544202241748e+00  8.5536070339036829e+00  8.4199596505152954e+00  8.2863122655778430e+00  8.1526648802895085e+00  8.0190174941922070e+00  7.8853701073794680e+00  7.7517227197999112e+00  7.6180753314580310e+00  7.4844279423471765e+00  7.3507805524665004e+00  7.2171331618151502e+00  7.0834857703927900e+00  6.9498383781992805e+00  6.8161909852344689e+00  6.6825435914985372e+00  6.5488961969910759e+00  6.4152488017125346e+00  6.2816014056627569e+00  6.1479540088417099e+00  6.0143066112492942e+00  5.8806592128857496e+00  5.7470118137509649e+00  5.6133644138449430e+00  5.4797170131677451e+00  5.3460696117192947e+00  5.2124222094997492e+00  5.0787748065089753e+00  4.9451274027471861e+00  4.8114799982140397e+00  4.6778325929103648e+00  4.5441851868349987e+00  4.4105377799893004e+00  4.2768903723712723e+00  4.1432429639823800e+00  4.0095955548179276e+00  3.8759481448773694e+00  3.7423007341482730e+00  3.6086533226164246e+00  3.4750059102423489e+00  3.3413584969496837e+00  3.2077110825909383e+00  3.0740636668271963e+00  2.9404162490212178e+00  2.8067688276311413e+00  2.6731213994710741e+00  2.5394739567180924e+00  2.4058264820172015e+00  2.2721789345506709e+00  2.1385312272343557e+00  2.0048831796729050e+00  1.8712344628966908e+00  1.7375845393385776e+00  1.6039327124774729e+00  1.4702783495761125e+00  1.3366213780727045e+00  1.2029625890477207e+00  1.0693034353389284e+00  9.3564534474121241e-01  8.0199021350308286e-01  6.6834129262568354e-01  5.3470504597987067e-01  4.0109468983051816e-01  2.6754752573253926e-01  1.3415131804823024e-01  2.6826234117759864e-03  1.0626746806038705e+01  1.0491413769049252e+01  1.0357918096443198e+01  1.0224288577833752e+01  1.0090671930288721e+01  9.9570234437263974e+00  9.8233778510811707e+00  9.6897304493044913e+00  9.5560829320101579e+00  9.4224355855144832e+00  9.2887881370467564e+00  9.1551407581192610e+00  9.0214933615777291e+00  8.8878459782144859e+00  8.7541985929315516e+00  8.6205512093562415e+00  8.4869038252399012e+00  8.3532564408242962e+00  8.2196090557633052e+00  8.0859616700321677e+00  7.9523142835694749e+00  7.8186668963594981e+00  7.6850195083893631e+00  7.5513721196540935e+00  7.4177247301506677e+00  7.2840773398776593e+00  7.1504299488343213e+00  7.0167825570202451e+00  6.8831351644351821e+00  6.7494877710790417e+00  6.6158403769517458e+00  6.4821929820532551e+00  6.3485455863835858e+00  6.2148981899426765e+00  6.0812507927305441e+00  5.9476033947471425e+00  5.8139559959924823e+00  5.6803085964665687e+00  5.5466611961693877e+00  5.4130137951009329e+00  5.2793663932611770e+00  5.1457189906500389e+00  5.0120715872675499e+00  4.8784241831135260e+00  4.7447767781879318e+00  4.6111293724903160e+00  4.4774819660205081e+00  4.3438345587774307e+00  4.2101871507599560e+00  4.0765397419651261e+00  3.9428923323883192e+00  3.8092449220198543e+00  3.6755975108416217e+00  3.5419500988190062e+00  3.4083026858820276e+00  3.2746552718985469e+00  3.1410078565918615e+00  3.0073604394183251e+00  2.8737130191848541e+00  2.7400655933299389e+00  2.6064181558363910e+00  2.4727706927672832e+00  2.3391231712531626e+00  2.2054755181831371e+00  2.0718275804334199e+00  1.9381790716109895e+00  1.8045295235236873e+00  1.6708783180892670e+00  1.5372248757464788e+00  1.4035690202156621e+00  1.2699112386051852e+00  1.1362526181852757e+00  1.0025945893488004e+00  8.6893898716559148e-01  7.3528841109957366e-01  6.0164748700379611e-01  4.6802500566435340e-01  3.3444249423531303e-01  2.0096243959697133e-01  6.7948505543740004e-02  1.0624834554705151e+01  1.0491658440307086e+01  1.0357812271366930e+01  1.0224208229219144e+01  1.0090529846676498e+01  9.9569034428200993e+00  9.8232469081378717e+00  9.6896034935345803e+00  9.5559545227442548e+00  9.4223076788149349e+00  9.2886600822902885e+00  9.1550127575521039e+00  9.0213653496118749e+00  8.8877179721422461e+00  8.7540705865191324e+00  8.6204232037237141e+00  8.4867758197381225e+00  8.3531284354597126e+00  8.2194810504478255e+00  8.0858336647465965e+00  7.952186278298025