<?xml version="1.0"?>
<VTKFile type="UnstructuredGrid"  version="0.1"  >
<UnstructuredGrid>
<Piece  NumberOfPoints="1369" NumberOfCells="2560">
<Points>
<DataArray  type="Float64"  NumberOfComponents="3"  format="ascii">0 0 0  0.75 0 0  1.5 0 0  2.25 0 0  3 0 0  3.75 0 0  4.5 0 0  5.25 0 0  6 0 0  6.75 0 0  7.5 0 0  8.25 0 0  9 0 0  9.75 0 0  10.5 0 0  11.25 0 0  12 0 0  12.75 0 0  13.5 0 0  14.25 0 0  15 0 0  15.75 0 0  16.5 0 0  17.25 0 0  18 0 0  18.75 0 0  19.5 0 0  20.25 0 0  21 0 0  21.75 0 0  22.5 0 0  23.25 0 0  24 0 0  24.75 0 0  25.5 0 0  26.25 0 0  27 0 0  27.75 0 0  28.5 0 0  29.25 0 0  30 0 0  30.75 0 0  31.5 0 0  32.25 0 0  33 0 0  33.75 0 0  34.5 0 0  35.25 0 0  36 0 0  36.75 0 0  37.5 0 0  38.25 0 0  39 0 0  39.75 0 0  40.5 0 0  41.25 0 0  42 0 0  42.75 0 0  43.5 0 0  44.25 0 0  45 0 0  45.75 0 0  46.5 0 0  47.25 0 0  48 0 0  48.75 0 0  49.5 0 0  50.25 0 0  51 0 0  51.75 0 0  52.5 0 0  53.25 0 0  54 0 0  54.75 0 0  55.5 0 0  56.25 0 0  57 0 0  57.75 0 0  58.5 0 0  59.25 0 0  60 0 0  0 0.5 0  0.75 0.5 0  1.5 0.5 0  2.25 0.5 0  3 0.5 0  3.75 0.5 0  4.5 0.5 0  5.25 0.5 0  6 0.5 0  6.75 0.5 0  7.5 0.5 0  8.25 0.5 0  9 0.5 0  9.75 0.5 0  10.5 0.5 0  11.25 0.5 0  12 0.5 0  12.75 0.5 0  13.5 0.5 0  14.25 0.5 0  15 0.5 0  15.75 0.5 0  16.5 0.5 0  17.25 0.5 0  18 0.5 0  18.75 0.5 0  19.5 0.5 0  20.25 0.5 0  21 0.5 0  21.75 0.5 0  22.5 0.5 0  23.25 0.5 0  24 0.5 0  24.75 0.5 0  25.5 0.5 0  26.25 0.5 0  27 0.5 0  27.75 0.5 0  28.5 0.5 0  29.25 0.5 0  30 0.5 0  30.75 0.5 0  31.5 0.5 0  32.25 0.5 0  33 0.5 0  33.75 0.5 0  34.5 0.5 0  35.25 0.5 0  36 0.5 0  36.75 0.5 0  37.5 0.5 0  38.25 0.5 0  39 0.5 0  39.75 0.5 0  40.5 0.5 0  41.25 0.5 0  42 0.5 0  42.75 0.5 0  43.5 0.5 0  44.25 0.5 0  45 0.5 0  45.75 0.5 0  46.5 0.5 0  47.25 0.5 0  48 0.5 0  48.75 0.5 0  49.5 0.5 0  50.25 0.5 0  51 0.5 0  51.75 0.5 0  52.5 0.5 0  53.25 0.5 0  54 0.5 0  54.75 0.5 0  55.5 0.5 0  56.25 0.5 0  57 0.5 0  57.75 0.5 0  58.5 0.5 0  59.25 0.5 0  60 0.5 0  0 1 0  0.75 1 0  1.5 1 0  2.25 1 0  3 1 0  3.75 1 0  4.5 1 0  5.25 1 0  6 1 0  6.75 1 0  7.5 1 0  8.25 1 0  9 1 0  9.75 1 0  10.5 1 0  11.25 1 0  12 1 0  12.75 1 0  13.5 1 0  14.25 1 0  15 1 0  15.75 1 0  16.5 1 0  17.25 1 0  18 1 0  18.75 1 0  19.5 1 0  20.25 1 0  21 1 0  21.75 1 0  22.5 1 0  23.25 1 0  24 1 0  24.75 1 0  25.5 1 0  26.25 1 0  27 1 0  27.75 1 0  28.5 1 0  29.25 1 0  30 1 0  30.75 1 0  31.5 1 0  32.25 1 0  33 1 0  33.75 1 0  34.5 1 0  35.25 1 0  36 1 0  36.75 1 0  37.5 1 0  38.25 1 0  39 1 0  39.75 1 0  40.5 1 0  41.25 1 0  42 1 0  42.75 1 0  43.5 1 0  44.25 1 0  45 1 0  45.75 1 0  46.5 1 0  47.25 1 0  48 1 0  48.75 1 0  49.5 1 0  50.25 1 0  51 1 0  51.75 1 0  52.5 1 0  53.25 1 0  54 1 0  54.75 1 0  55.5 1 0  56.25 1 0  57 1 0  57.75 1 0  58.5 1 0  59.25 1 0  60 1 0  0 1.5 0  0.75 1.5 0  1.5 1.5 0  2.25 1.5 0  3 1.5 0  3.75 1.5 0  4.5 1.5 0  5.25 1.5 0  6 1.5 0  6.75 1.5 0  7.5 1.5 0  8.25 1.5 0  9 1.5 0  9.75 1.5 0  10.5 1.5 0  11.25 1.5 0  12 1.5 0  12.75 1.5 0  13.5 1.5 0  14.25 1.5 0  15 1.5 0  15.75 1.5 0  16.5 1.5 0  17.25 1.5 0  18 1.5 0  18.75 1.5 0  19.5 1.5 0  20.25 1.5 0  21 1.5 0  21.75 1.5 0  22.5 1.5 0  23.25 1.5 0  24 1.5 0  24.75 1.5 0  25.5 1.5 0  26.25 1.5 0  27 1.5 0  27.75 1.5 0  28.5 1.5 0  29.25 1.5 0  30 1.5 0  30.75 1.5 0  31.5 1.5 0  32.25 1.5 0  33 1.5 0  33.75 1.5 0  34.5 1.5 0  35.25 1.5 0  36 1.5 0  36.75 1.5 0  37.5 1.5 0  38.25 1.5 0  39 1.5 0  39.75 1.5 0  40.5 1.5 0  41.25 1.5 0  42 1.5 0  42.75 1.5 0  43.5 1.5 0  44.25 1.5 0  45 1.5 0  45.75 1.5 0  46.5 1.5 0  47.25 1.5 0  48 1.5 0  48.75 1.5 0  49.5 1.5 0  50.25 1.5 0  51 1.5 0  51.75 1.5 0  52.5 1.5 0  53.25 1.5 0  54 1.5 0  54.75 1.5 0  55.5 1.5 0  56.25 1.5 0  57 1.5 0  57.75 1.5 0  58.5 1.5 0  59.25 1.5 0  60 1.5 0  0 2 0  0.75 2 0  1.5 2 0  2.25 2 0  3 2 0  3.75 2 0  4.5 2 0  5.25 2 0  6 2 0  6.75 2 0  7.5 2 0  8.25 2 0  9 2 0  9.75 2 0  10.5 2 0  11.25 2 0  12 2 0  12.75 2 0  13.5 2 0  14.25 2 0  15 2 0  15.75 2 0  16.5 2 0  17.25 2 0  18 2 0  18.75 2 0  19.5 2 0  20.25 2 0  21 2 0  21.75 2 0  22.5 2 0  23.25 2 0  24 2 0  24.75 2 0  25.5 2 0  26.25 2 0  27 2 0  27.75 2 0  28.5 2 0  29.25 2 0  30 2 0  30.75 2 0  31.5 2 0  32.25 2 0  33 2 0  33.75 2 0  34.5 2 0  35.25 2 0  36 2 0  36.75 2 0  37.5 2 0  38.25 2 0  39 2 0  39.75 2 0  40.5 2 0  41.25 2 0  42 2 0  42.75 2 0  43.5 2 0  44.25 2 0  45 2 0  45.75 2 0  46.5 2 0  47.25 2 0  48 2 0  48.75 2 0  49.5 2 0  50.25 2 0  51 2 0  51.75 2 0  52.5 2 0  53.25 2 0  54 2 0  54.75 2 0  55.5 2 0  56.25 2 0  57 2 0  57.75 2 0  58.5 2 0  59.25 2 0  60 2 0  0 2.5 0  0.75 2.5 0  1.5 2.5 0  2.25 2.5 0  3 2.5 0  3.75 2.5 0  4.5 2.5 0  5.25 2.5 0  6 2.5 0  6.75 2.5 0  7.5 2.5 0  8.25 2.5 0  9 2.5 0  9.75 2.5 0  10.5 2.5 0  11.25 2.5 0  12 2.5 0  12.75 2.5 0  13.5 2.5 0  14.25 2.5 0  15 2.5 0  15.75 2.5 0  16.5 2.5 0  17.25 2.5 0  18 2.5 0  18.75 2.5 0  19.5 2.5 0  20.25 2.5 0  21 2.5 0  21.75 2.5 0  22.5 2.5 0  23.25 2.5 0  24 2.5 0  24.75 2.5 0  25.5 2.5 0  26.25 2.5 0  27 2.5 0  27.75 2.5 0  28.5 2.5 0  29.25 2.5 0  30 2.5 0  30.75 2.5 0  31.5 2.5 0  32.25 2.5 0  33 2.5 0  33.75 2.5 0  34.5 2.5 0  35.25 2.5 0  36 2.5 0  36.75 2.5 0  37.5 2.5 0  38.25 2.5 0  39 2.5 0  39.75 2.5 0  40.5 2.5 0  41.25 2.5 0  42 2.5 0  42.75 2.5 0  43.5 2.5 0  44.25 2.5 0  45 2.5 0  45.75 2.5 0  46.5 2.5 0  47.25 2.5 0  48 2.5 0  48.75 2.5 0  49.5 2.5 0  50.25 2.5 0  51 2.5 0  51.75 2.5 0  52.5 2.5 0  53.25 2.5 0  54 2.5 0  54.75 2.5 0  55.5 2.5 0  56.25 2.5 0  57 2.5 0  57.75 2.5 0  58.5 2.5 0  59.25 2.5 0  60 2.5 0  0 3 0  0.75 3 0  1.5 3 0  2.25 3 0  3 3 0  3.75 3 0  4.5 3 0  5.25 3 0  6 3 0  6.75 3 0  7.5 3 0  8.25 3 0  9 3 0  9.75 3 0  10.5 3 0  11.25 3 0  12 3 0  12.75 3 0  13.5 3 0  14.25 3 0  15 3 0  15.75 3 0  16.5 3 0  17.25 3 0  18 3 0  18.75 3 0  19.5 3 0  20.25 3 0  21 3 0  21.75 3 0  22.5 3 0  23.25 3 0  24 3 0  24.75 3 0  25.5 3 0  26.25 3 0  27 3 0  27.75 3 0  28.5 3 0  29.25 3 0  30 3 0  30.75 3 0  31.5 3 0  32.25 3 0  33 3 0  33.75 3 0  34.5 3 0  35.25 3 0  36 3 0  36.75 3 0  37.5 3 0  38.25 3 0  39 3 0  39.75 3 0  40.5 3 0  41.25 3 0  42 3 0  42.75 3 0  43.5 3 0  44.25 3 0  45 3 0  45.75 3 0  46.5 3 0  47.25 3 0  48 3 0  48.75 3 0  49.5 3 0  50.25 3 0  51 3 0  51.75 3 0  52.5 3 0  53.25 3 0  54 3 0  54.75 3 0  55.5 3 0  56.25 3 0  57 3 0  57.75 3 0  58.5 3 0  59.25 3 0  60 3 0  0 3.5 0  0.75 3.5 0  1.5 3.5 0  2.25 3.5 0  3 3.5 0  3.75 3.5 0  4.5 3.5 0  5.25 3.5 0  6 3.5 0  6.75 3.5 0  7.5 3.5 0  8.25 3.5 0  9 3.5 0  9.75 3.5 0  10.5 3.5 0  11.25 3.5 0  12 3.5 0  12.75 3.5 0  13.5 3.5 0  14.25 3.5 0  15 3.5 0  15.75 3.5 0  16.5 3.5 0  17.25 3.5 0  18 3.5 0  18.75 3.5 0  19.5 3.5 0  20.25 3.5 0  21 3.5 0  21.75 3.5 0  22.5 3.5 0  23.25 3.5 0  24 3.5 0  24.75 3.5 0  25.5 3.5 0  26.25 3.5 0  27 3.5 0  27.75 3.5 0  28.5 3.5 0  29.25 3.5 0  30 3.5 0  30.75 3.5 0  31.5 3.5 0  32.25 3.5 0  33 3.5 0  33.75 3.5 0  34.5 3.5 0  35.25 3.5 0  36 3.5 0  36.75 3.5 0  37.5 3.5 0  38.25 3.5 0  39 3.5 0  39.75 3.5 0  40.5 3.5 0  41.25 3.5 0  42 3.5 0  42.75 3.5 0  43.5 3.5 0  44.25 3.5 0  45 3.5 0  45.75 3.5 0  46.5 3.5 0  47.25 3.5 0  48 3.5 0  48.75 3.5 0  49.5 3.5 0  50.25 3.5 0  51 3.5 0  51.75 3.5 0  52.5 3.5 0  53.25 3.5 0  54 3.5 0  54.75 3.5 0  55.5 3.5 0  56.25 3.5 0  57 3.5 0  57.75 3.5 0  58.5 3.5 0  59.25 3.5 0  60 3.5 0  0 4 0  0.75 4 0  1.5 4 0  2.25 4 0  3 4 0  3.75 4 0  4.5 4 0  5.25 4 0  6 4 0  6.75 4 0  7.5 4 0  8.25 4 0  9 4 0  9.75 4 0  10.5 4 0  11.25 4 0  12 4 0  12.75 4 0  13.5 4 0  14.25 4 0  15 4 0  15.75 4 0  16.5 4 0  17.25 4 0  18 4 0  18.75 4 0  19.5 4 0  20.25 4 0  21 4 0  21.75 4 0  22.5 4 0  23.25 4 0  24 4 0  24.75 4 0  25.5 4 0  26.25 4 0  27 4 0  27.75 4 0  28.5 4 0  29.25 4 0  30 4 0  30.75 4 0  31.5 4 0  32.25 4 0  33 4 0  33.75 4 0  34.5 4 0  35.25 4 0  36 4 0  36.75 4 0  37.5 4 0  38.25 4 0  39 4 0  39.75 4 0  40.5 4 0  41.25 4 0  42 4 0  42.75 4 0  43.5 4 0  44.25 4 0  45 4 0  45.75 4 0  46.5 4 0  47.25 4 0  48 4 0  48.75 4 0  49.5 4 0  50.25 4 0  51 4 0  51.75 4 0  52.5 4 0  53.25 4 0  54 4 0  54.75 4 0  55.5 4 0  56.25 4 0  57 4 0  57.75 4 0  58.5 4 0  59.25 4 0  60 4 0  0.375 0.25 0  1.125 0.25 0  1.875 0.25 0  2.625 0.25 0  3.375 0.25 0  4.125 0.25 0  4.875 0.25 0  5.625 0.25 0  6.375 0.25 0  7.125 0.25 0  7.875 0.25 0  8.625 0.25 0  9.375 0.25 0  10.125 0.25 0  10.875 0.25 0  11.625 0.25 0  12.375 0.25 0  13.125 0.25 0  13.875 0.25 0  14.625 0.25 0  15.375 0.25 0  16.125 0.25 0  16.875 0.25 0  17.625 0.25 0  18.375 0.25 0  19.125 0.25 0  19.875 0.25 0  20.625 0.25 0  21.375 0.25 0  22.125 0.25 0  22.875 0.25 0  23.625 0.25 0  24.375 0.25 0  25.125 0.25 0  25.875 0.25 0  26.625 0.25 0  27.375 0.25 0  28.125 0.25 0  28.875 0.25 0  29.625 0.25 0  30.375 0.25 0  31.125 0.25 0  31.875 0.25 0  32.625 0.25 0  33.375 0.25 0  34.125 0.25 0  34.875 0.25 0  35.625 0.25 0  36.375 0.25 0  37.125 0.25 0  37.875 0.25 0  38.625 0.25 0  39.375 0.25 0  40.125 0.25 0  40.875 0.25 0  41.625 0.25 0  42.375 0.25 0  43.125 0.25 0  43.875 0.25 0  44.625 0.25 0  45.375 0.25 0  46.125 0.25 0  46.875 0.25 0  47.625 0.25 0  48.375 0.25 0  49.125 0.25 0  49.875 0.25 0  50.625 0.25 0  51.375 0.25 0  52.125 0.25 0  52.875 0.25 0  53.625 0.25 0  54.375 0.25 0  55.125 0.25 0  55.875 0.25 0  56.625 0.25 0  57.375 0.25 0  58.125 0.25 0  58.875 0.25 0  59.625 0.25 0  0.375 0.75 0  1.125 0.75 0  1.875 0.75 0  2.625 0.75 0  3.375 0.75 0  4.125 0.75 0  4.875 0.75 0  5.625 0.75 0  6.375 0.75 0  7.125 0.75 0  7.875 0.75 0  8.625 0.75 0  9.375 0.75 0  10.125 0.75 0  10.875 0.75 0  11.625 0.75 0  12.375 0.75 0  13.125 0.75 0  13.875 0.75 0  14.625 0.75 0  15.375 0.75 0  16.125 0.75 0  16.875 0.75 0  17.625 0.75 0  18.375 0.75 0  19.125 0.75 0  19.875 0.75 0  20.625 0.75 0  21.375 0.75 0  22.125 0.75 0  22.875 0.75 0  23.625 0.75 0  24.375 0.75 0  25.125 0.75 0  25.875 0.75 0  26.625 0.75 0  27.375 0.75 0  28.125 0.75 0  28.875 0.75 0  29.625 0.75 0  30.375 0.75 0  31.125 0.75 0  31.875 0.75 0  32.625 0.75 0  33.375 0.75 0  34.125 0.75 0  34.875 0.75 0  35.625 0.75 0  36.375 0.75 0  37.125 0.75 0  37.875 0.75 0  38.625 0.75 0  39.375 0.75 0  40.125 0.75 0  40
[...]
<PointData  Scalars="f_8-1"> 
<DataArray  type="Float64"  Name="f_8-1"  format="ascii">1.0689418380030563e+01  1.0559165674627774e+01  1.0424762284076840e+01  1.0291261933247160e+01  1.0157586598951934e+01  1.0023946719642819e+01  9.8902997674318129e+00  9.7566530157195928e+00  9.6230055073066243e+00  9.4893576845893186e+00  9.3557096449382389e+00  9.2220614511592096e+00  9.0884131155655670e+00  8.9547645775100122e+00  8.8211157117374093e+00  8.6874664117932117e+00  8.5538166472239308e+00  8.4201664261960261e+00  8.2865157261726630e+00  8.1528644842102622e+00  8.0192126571298363e+00  7.8855602902400337e+00  7.7519075376254323e+00  7.6182546253650258e+00  7.4846017878675370e+00  7.3509492135778967e+00  7.2172970195992914e+00  7.0836452543813317e+00  6.9499939161469664e+00  6.8163429739094328e+00  6.6826923833432508e+00  6.5490420958616724e+00  6.4153920628534555e+00  6.2817422377102474e+00  6.1480925772994057e+00  6.0144430433221592e+00  5.8807936033311350e+00  5.7471442311165273e+00  5.6134949064089330e+00  5.4798456140833602e+00  5.3461963431450457e+00  5.2125470857390797e+00  5.0788978363249440e+00  4.9452485910574211e+00  4.8115993473497802e+00  4.6779501035680804e+00  4.5443008588059879e+00  4.4106516127038544e+00  4.2770023652928115e+00  4.1433531168583153e+00  4.0097038678245376e+00  3.8760546186635807e+00  3.7424053698303754e+00  3.6087561217239905e+00  3.4751068746677176e+00  3.3414576289089419e+00  3.2078083846219041e+00  3.0741591419268297e+00  2.9405099008924633e+00  2.8068606615643272e+00  2.6732114239545655e+00  2.5395621880733676e+00  2.4059129539082464e+00  2.2722637213681076e+00  2.1386144902067770e+00  2.0049652593583942e+00  1.8713160281639585e+00  1.7376668005236726e+00  1.6040176129509098e+00  1.4703685464715293e+00  1.3367196038236382e+00  1.2030701544635261e+00  1.0694191596232325e+00  9.3576771247059565e-01  8.0211951870242348e-01  6.6847356331436769e-01  5.3483341852500066e-01  4.0120715435050003e-01  2.6764187108083159e-01  1.3381169768191992e-01  2.5785120334785696e-03  1.0692682995697096e+01  1.0558365361553648e+01  1.0424906002875735e+01  1.0291210089713100e+01  1.0157574943403361e+01  1.0023928114524749e+01  9.8902824957092950e+00  9.7566357216028301e+00  9.6229884837991477e+00  9.4893408878599299e+00  9.3556930344913596e+00  9.2220449744922455e+00  9.0883967190828443e+00  8.9547481961129893e+00  8.8210992920434634e+00  8.6874499411760802e+00  8.5538001447003058e+00  8.4201499083247011e+00  8.2864991923601465e+00  8.1528479345011444e+00  8.0191961178512514e+00  7.8855438201023729e+00  7.7518912095923920e+00  7.6182384988611203e+00  7.4845858887424432e+00  7.3509335300181338e+00  7.2172815116071591e+00  7.0836298689548327e+00  6.9499786007975679e+00  6.8163276847721495e+00  6.6826770878462574e+00  6.5490267719110653e+00  6.4153766967031647e+00  6.2817268218800413e+00  6.1480771090007638e+00  6.0144275233017135e+00  5.8807780349133303e+00  5.7471286193167090e+00  5.6134792571175556e+00  5.4798299333824163e+00  5.3461806368115301e+00  5.2125313589472979e+00  5.0788820935195442e+00  4.9452328359465083e+00  4.8115835829661409e+00  4.6779343323570943e+00  4.5442850827148673e+00  4.4106358332602840e+00  4.2769865836712349e+00  4.1433373339361417e+00  4.0096880842322689e+00  3.8760388348306942e+00  3.7423895860287364e+00  3.6087403381068612e+00  3.4750910913047339e+00  3.3414418458151878e+00  3.2077926017790452e+00  3.0741433593042973e+00  2.9404941184479130e+00  2.8068448792734677e+00  2.6731956417692051e+00  2.5395464060116484e+00  2.4058971718833804e+00  2.2722479395187731e+00  2.1385987082659104e+00  2.0049494778659320e+00  1.8713002462892019e+00  1.7376510209523250e+00  1.6040018376818959e+00  1.4703527938260419e+00  1.3367038329041359e+00  1.2030541058212969e+00  1.0694026157548127e+00  9.3575237297101455e-01  8.0210615003188113e-01  6.6845934866349188e-01  5.3481908582562054e-01  4.0119457931764529e-01  2.6757947729655529e-01  1.3398144005333704e-01  -2.7847125169250681e-04  1.0692049929131212e+01  1.0558492719768502e+01  1.0424837092859264e+01  1.0291202731572925e+01  1.0157557585684984e+01  1.0023913298011093e+01  9.8902675254115113e+00  9.7566210130148914e+00  9.6229739117176400e+00  9.4893264088134188e+00  9.3556786023468774e+00  9.2220305469279023e+00  9.0883822522124174e+00  8.9547336734824174e+00  8.8210847334906521e+00  8.6874353727097482e+00  8.5537855726410914e+00  8.4201353296375210e+00  8.2864846224366939e+00  8.1528334191355345e+00  8.0191817188832122e+00  7.8855295887576622e+00  7.7518771664562429e+00  7.6182246299091849e+00  7.4845721550563997e+00  7.3509198829440505e+00  7.2172679056559641e+00  7.0836162687982753e+00  6.9499649826424372e+00  6.8163140344543756e+00  6.6826633980191650e+00  6.5490130397227073e+00  6.4153629223041637e+00  6.2817130075304251e+00  6.1480632584337087e+00  6.0144136411495577e+00  5.8807641261632879e+00  5.7471146888498765e+00  5.6134653093836331e+00  5.4798159722254898e+00  5.3461666654236719e+00  5.2125173799078999e+00  5.0788681088771623e+00  4.9452188473105485e+00  4.8115695915895227e+00  4.6779203392029221e+00  4.5442710885078768e+00  4.4106218385277103e+00  4.2769725887772756e+00  4.1433233391139099e+00  4.0096740896130507e+00  3.8760248404723581e+00  3.7423755919387269e+00  3.6087263442640891e+00  3.4750770976727408e+00  3.3414278523548249e+00  3.2077786084553321e+00  3.0741293660842159e+00  2.9404801253210446e+00  2.8068308862054177e+00  2.6731816488006306e+00  2.5395324130520636e+00  2.4058831791183062e+00  2.2722339466305073e+00  2.1385847161593960e+00  2.0049354859203272e+00  1.8712862590265003e+00  1.7376370339183773e+00  1.6039878444873106e+00  1.4703387063739437e+00  1.3366895843320517e+00  1.2030398310558044e+00  1.0693892480010474e+00  9.3573978244546574e-01  8.0209387633643647e-01  6.6844740869147634e-01  5.3480660493018273e-01  4.0116460734062187e-01  2.6753298745438853e-01  1.3377778636767226e-01  -7.7772213457819542e-06  1.0692076803369728e+01  1.0558464527402267e+01  1.0424842444408673e+01  1.0291203009120540e+01  1.0157560749631573e+01  1.0023916394557414e+01  9.8902709239721087e+00  9.7566245435876411e+00  9.6229774996761908e+00  9.4893299790186099e+00  9.3556821292677910e+00  9.2220340022068168e+00  9.0883856006274737e+00  8.9547369339931642e+00  8.8210879724926325e+00  8.6874386310603491e+00  8.5537888394153772e+00  8.4201385889617395e+00  8.2864879028855096e+00  8.1528367923857985e+00  8.0191852582988776e+00  7.8855333285025528e+00  7.7518810878808155e+00  7.6182286756402817e+00  7.4845762553610378e+00  7.3509239784199227e+00  7.2172719581983378e+00  7.0836202613889139e+00  6.9499689130424347e+00  6.8163179080640894e+00  6.6826672228456783e+00  6.5490168239507769e+00  6.4153666735886077e+00  6.2817167329494481e+00  6.1480669644633679e+00  6.0144173335042845e+00  5.8807678095971507e+00  5.7471183670480093e+00  5.6134689849953663e+00  5.4798196470157992e+00  5.3461703404810672e+00  5.2125210558514956e+00  5.0788717860258101e+00  4.9452225258018379e+00  4.8115732714524251e+00  4.6779240203971657e+00  4.5442747709440399e+00  4.4106255220793136e+00  4.2769762732920187e+00  4.1433270244253961e+00  4.0096777755546240e+00  3.8760285268873602e+00  3.7423792786920571e+00  3.6087300312434132e+00  3.4750807847958893e+00  3.3414315395606469e+00  3.2077822957089954e+00  3.0741330533668387e+00  2.9404838126222246e+00  2.8068345735485067e+00  2.6731853361525273e+00  2.5395361005305133e+00  2.4058868665212008e+00  2.2722376344948194e+00  2.1385884037516782e+00  2.0049391763439273e+00  1.8712899502218121e+00  1.7376407338825273e+00  1.6039915091238874e+00  1.4703422694543227e+00  1.3366929013133269e+00  1.2030435096016896e+00  1.0693939352727744e+00  9.3574464544847502e-01  8.0209734322929871e-01  6.6845509879633092e-01  5.3480929369964991e-01  4.0116317750024744e-01  2.6748507601675220e-01  1.3377697311643488e-01  1.6077208909047947e-05  1.0692065393074930e+01  1.0558465406725549e+01  1.0424840582574626e+01  1.0291204234475737e+01  1.0157562169452707e+01  1.0023918041795783e+01  9.8902726262367846e+00  9.7566262930519603e+00  9.6229792747541296e+00  9.4893317697851867e+00  9.3556839095909936e+00  9.2220357594046831e+00  9.0883873461968037e+00  8.9547386641676425e+00  8.8210896707880000e+00  8.6874403069582584e+00  8.5537905266596841e+00  8.4201403077584054e+00  8.2864896441008700e+00  8.1528385391669147e+00  8.0191870130279526e+00  7.8855351166846361e+00  7.7518829403207494e+00  7.6182306076053532e+00  7.4845782579012523e+00  7.3509260242771450e+00  7.2172740152720873e+00  7.0836223048268971e+00  6.9499709307310455e+00  6.8163198993427310e+00  6.6826691935215585e+00  6.5490187811641967e+00  6.4153686226722781e+00  6.2817186766105007e+00  6.1480689034671805e+00  6.0144192677965922e+00  5.8807697391538492e+00  5.7471202922292433e+00  5.6134709065139994e+00  5.4798215657372316e+00  5.3461722572278143e+00  5.2125229712905403e+00  5.0788737006416698e+00  4.9452244399225922e+00  4.8115751852936306e+00  4.6779259341013972e+00  4.5442766846076417e+00  4.4106274357675517e+00  4.2769781870464625e+00  4.1433289382689411e+00  4.0096796894943134e+00  3.8760304409201507e+00  3.7423811928061137e+00  3.6087319454262965e+00  3.4750826990309589e+00  3.3414334538377868e+00  3.2077842100157268e+00  3.0741349676968754e+00  2.9404857269768891e+00  2.8068364879091017e+00  2.6731872505670937e+00  2.5395380148977003e+00  2.4058887810846068e+00  2.2722395487850826e+00  2.1385903189493263e+00  2.0049410904676956e+00  1.8712918680377710e+00  1.7376426443247217e+00  1.6039934216165626e+00  1.4703441351563513e+00  1.3366948092776223e+00  1.2030454034303466e+00  1.0693960667345392e+00  9.3574667381367627e-01  8.0210033370888723e-01  6.6845605739515179e-01  5.3481203048250925e-01  4.0115584538440952e-01  2.6748360947297328e-01  1.3376018957652769e-01  1.5795728926352709e-05  1.0692076872922780e+01  1.0558464505087567e+01  1.0424842397948984e+01  1.0291202953445829e+01  1.0157560694155867e+01  1.0023916334186239e+01  9.8902708569355333e+00  9.7566244573633281e+00  9.6229773880605336e+00  9.4893298558014827e+00  9.3556819743824438e+00  9.2220338103038273e+00  9.0883854078286532e+00  8.9547367401353402e+00  8.8210877420301230e+00  8.6874383731687299e+00  8.5537886115915107e+00  8.4201384235387877e+00  8.2864877713460974e+00  8.1528366449723855e+00  8.0191850796347648e+00  7.8855331516553013e+00  7.7518809651691836e+00  7.6182286399789225e+00  7.4845763015803488e+00  7.3509240709168191e+00  7.2172720530434153e+00  7.0836203267199744e+00  6.9499689379652336e+00  6.8163178995951235e+00  6.6826671965250473e+00  6.5490167946638254e+00  6.4153666504487417e+00  6.2817167186564635e+00  6.1480669574003697e+00  6.0144173304515318e+00  5.8807678076901366e+00  5.7471183645964095e+00  5.6134689814381424e+00  5.4798196424896188e+00  5.3461703353761223e+00  5.2125210505277604e+00  5.0788717807041728e+00  4.9452225205689810e+00  4.8115732663109840e+00  4.6779240153158339e+00  4.5442747658894849e+00  4.4106255170293203e+00  4.2769762682366492e+00  4.1433270193630580e+00  4.0096777704876798e+00  3.8760285218190917e+00  3.7423792736252963e+00  3.6087300261803232e+00  3.4750807797383119e+00  3.3414315345106247e+00  3.2077822906692641e+00  3.0741330483413272e+00  2.9404838076164959e+00  2.8068345685703218e+00  2.6731853312125291e+00  2.5395360956431547e+00  2.4058868617058100e+00  2.2722376297770985e+00  2.1385883991651284e+00  2.0049391719319445e+00  1.8712899460390280e+00  1.7376407299971779e+00  1.6039915056161462e+00  1.4703422664099832e+00  1.3366928987930307e+00  1.2030435076132433e+00  1.0693939336626854e+00  9.3574464402093693e-01  8.0209734245682907e-01  6.6845509796905400e-01  5.3480929119463838e-01  4.0116317897576848e-01  2.6748508309778468e-01  1.3377698278836045e-01  1.6075795244754249e-05  1.0692049904578857e+01  1.0558492716030557e+01  1.0424837020138108e+01  1.0291202627503743e+01  1.0157557452976810e+01  1.0023913136125177e+01  9.8902673265016539e+00  9.7566207723893754e+00  9.6229736276000235e+00  9.4893260796919954e+00  9.3556782337519309e+00  9.2220301525090118e+00  9.0883818370442189e+00  8.9547332363501191e+00  8.8210842933251730e+00  8.6874349679749834e+00  8.5537852244905430e+00  8.4201350217785400e+00  8.2864843270659669e+00  8.1528331369015916e+00  8.0191814885803314e+00  7.8855294599247436e+00  7.7518771624601852e+00  7.6182247306841671e+00  7.4845723076816659e+00  7.3509200281225269e+00  7.2172680019990478e+00  7.0836163032996105e+00  6.9499649664372765e+00  6.8163139904494336e+00  6.6826633484801672e+00  6.5490129989353800e+00  6.4153628952130113e+00  6.2817129923547474e+00  6.1480632504849426e+00  6.0144136358470144e+00  5.8807641205107242e+00  5.7471146815987249e+00  5.6134653005012707e+00  5.4798159622301714e+00  5.3461666548979148e+00  5.2125173692653162e+00  5.0788680983220571e+00  4.9452188368935603e+00  4.8115695812832691e+00  4.6779203289591837e+00  4.5442710782872826e+00  4.4106218283082148e+00  4.2769725785514439e+00  4.1433233288829507e+00  4.0096740793817309e+00  3.8760248302462283e+00  3.7423755817232109e+00  3.6087263340648583e+00  3.4750770874966239e+00  3.3414278422109103e+00  3.2077785983561600e+00  3.0741293560470804e+00  2.9404801153694984e+00  2.8068308763709990e+00  2.6731816391249432e+00  2.5395324035889724e+00  2.4058831699362466e+00  2.2722339378141450e+00  2.1385847078106530e+00  2.0049354781564985e+00  1.8712862519762103e+00  1.7376370277102871e+00  1.6039878392385785e+00  1.4703387021625789e+00  1.3366895811195594e+00  1.2030398283669856e+00  1.0693892445951652e+00  9.3573977657865193e-01  8.0209386655617010e-01  6.6844739639284767e-01  5.3480659687472554e-01  4.0116460974836632e-01  2.6753301222581655e-01  1.3377780317216423e-01  -7.7668258150562473e-06  1.0692683067162125e+01  1.0558365291729794e+01  1.0424905915449779e+01  1.0291209907535453e+01  1.0157574730803420e+01  1.0023927854950646e+01  9.8902821804380654e+00  9.7566353457541961e+00  9.6229880462279667e+00  9.4893403824712923e+00  9.3556924752409962e+00  9.2220443860529056e+00  9.0883960993903230e+00  8.9547475413874409e+00  8.8210986437298171e+00  8.6874493606945951e+00  8.5537996484052830e+00  8.4201494575255911e+00  8.2864987501994865e+00  8.1528475198744861e+00  8.0191958015472942e+00  7.8855436733455351e+00  7.7518912527751143e+00  7.6182386869006891e+00  7.4845861355580725e+00  7.3509337497503440e+00  7.2172816509018674e+00  7.0836299170167667e+00  6.9499785792861974e+00  6.8163276285687990e+00  6.6826770279833188e+00  6.5490267267318512e+00  6.4153766713654798e+00  6.2817268127884400e+00  6.1480771092542197e+00  6.0144275266444041e+00  5.8807780374681364e+00  5.7471286195946769e+00  5.6134792552002839e+00  5.4798299300136639e+00  5.3461806327709409e+00  5.2125313547696228e+00  5.0788820894608664e+00  4.9452328320657877e+00  4.8115835792255028e+00  4.6779343286946791e+00  4.5442850790813685e+00  4.4106358296286565e+00  4.2769865800327933e+00  4.1433373302928889e+00  4.0096880805906512e+00  3.8760388311982541e+00  3.7423895824131961e+00  3.6087403345167224e+00  3.4750910877506045e+00  3.3414418423113594e+00  3.2077925983452724e+00  3.0741433559677569e+00  2.9404941152454982e+00  2.8068448762545439e+00  2.6731956389986902e+00  2.5395464035734676e+00  2.4058971698836249e+00  2.2722479380883489e+00  2.1385987075608690e+00  2.0049494780647672e+00  1.8713002475833163e+00  1.7376510235293434e+00  1.6040018417011705e+00  1.4703527993889258e+00  1.3367038399448399e+00  1.2030541136498294e+00  1.0694026223884281e+00  9.3575237542353051e-01  8.0210614534551972e-01  6.6845933903900256e-01  5.3481908176093529e-01  4.0119459416514552e-01  2.6757951454992307e-01  1.3398156350783147e-01  -2.7849576583791974e-04  1.0689416908429727e+01  1.0559166054170310e+01  1.0424761941320869e+01  1.0291261682674371e+01  1.0157586281994913e+01  1.0023946364341567e+01  9.8902993515583351e+00  9.7566525281527099e+00  9.6230049425704891e+00  9.4893570377870144e+00  9.3557089223867074e+00  9.2220606768452811e+00  9.0884123018070682e+00  8.9547637224255876e+00  8.8211148443066900e+00  8.6874655980135476e+00  8.5538159306655448e+00  8.4201657878744083e+00  8.2865151212086836e+00  8.1528639099356823e+00  8.0192121768044178e+00  7.8855599926357378e+00  7.7519074732971269e+00  7.6182547704347234e+00  7.4846020550677164e+00  7.3509494950665912e+00  7.2172972314551824e+00  7.0836453602788065e+00  6.9499939251482639e+00  6.8163429214689364e+00  6.6826923092451676e+00  6.5490420291455784e+00  6.4153920168668392e+00  6.2817422129070772e+00  6.1480925672792406e+00  6.0144430403539646e+00  5.8807936015821118e+00  5.7471442275633509e+00  5.6134949003019310e+00  5.4798456059246154e+00  5.3461963338082450e+00  5.2125470759629593e+00  5.0788978265463207e+00  4.9452485814457052e+00  4.8115993379125834e+00  4.6779500942485299e+00  4.5443008495428483e+00  4.4106516034561070e+00  4.2770023560420674e+00  4.1433531076020786e+00  4.0097038585684492e+00  3.8760546094163111e+00  3.7424053606014724e+00  3.6087561125239489e+00  3.4751068655092663e+00  3.3414576198089172e+00  3.2078083756033928e+00  3.0741591330215980e+00  2.9405098921437873e+00  2.8068606530303448e+00  2.6732114157121045e+00  2.5395621802222612e+00  2.4059129465755169e+00  2.2722637147117117e+00  2.1386144844169301e+00  2.0049652546557470e+00  1.8713160247900436e+00  1.7376667987233212e+00  1.6040176129423429e+00  1.4703685484076265e+00  1.3367196076899905e+00  1.2030701597039402e+00  1.0694191643321083e+00  9.3576771313640483e-01  8.0211951195012587e-01  6.6847354905343803e-01  5.3483340689720649e-01  4.0120715381472449e-01  2.6764193553360438e-01  1.3381157107664962e-01  2.5805275290736208e-03  1.0625668828272305e+01  1.0491679792969585e+01  1.0358020476875526e+01  1.0224373202500853e+01  1.0090727530838540e+01  9.9570821150154902e+00  9.8234357204952243e+00  9.6897886755288898e+00  9.5561411780324672e+00  9.4224933878217154e+00  9.2888453808950810e+00  9.1551971935158161e+00  9.0215488023311785e+00  8.8879001130159274e+00  8.7542510205403286e+00  8.6206014775677797e+00  8.4869514855366059e+00  8.3533010340314515e+00  8.2196500735879940e+00  8.0859985548820479e+00  7.9523464930849475e+00  7.8186940010088586e+00  7.6850412702434108e+00  7.5513885189732823e+00  7.4177359389737640e+00  7.2840836642329867e+00  7.1504317655578982e+00  7.0167802627106148e+00  6.8831291422738969e+00  6.7494783729069301e+00  6.6158279150650179e+00  6.4821777261060065e+00  6.3485277629763193e+00  6.2148779841255735e+00  6.0812283512395728e+00  5.9475788306622528e+00  5.8139293942160171e+00  5.6802800193085989e+00  5.5466306884543197e+00  5.4129813884647158e+00  5.2793321095602082e+00  5.1456828445715850e+00  5.0120335883042824e+00  4.8783843370665982e+00  4.7447350883265820e+00  4.6110858404543755e+00  4.4774365925155628e+00  4.3437873440946406e+00  4.2101380951410690e+00  4.0764888458369981e+00  3.9428395964902103e+00  3.8091903474527888e+00  3.6755410990671651e+00  3.5418918516326205e+00  3.4082426053934021e+00  3.2745933605335389e+00  3.1409441171876527e+00  3.0072948754428332e+00  2.8736456353588054e+00  2.7399963969631909e+00  2.6063471602767887e+00  2.4726979252959396e+00  2.3390486919726472e+00  2.2053994601704270e+00  2.0717502292239605e+00  1.9381009986887889e+00  1.8044517701809353e+00  1.6708025642794144e+00  1.5371534336461687e+00  1.4035044176869822e+00  1.2698551837497274e+00  1.1362048763554038e+00  1.0025535992422410e+00  8.6890463740676538e-01  7.3525858062741822e-01  6.0161427500855880e-01  4.6798188627487680e-01  3.3436237265534452e-01  2.0075319221136598e-01  6.6914841965730248e-02  1.0625199238663907e+01  1.0491674140368719e+01  1.0358007381172428e+01  1.0224364793671011e+01  1.0090720278433880e+01  9.9570749293971819e+00  9.8234286781759277e+00  9.6897817744424710e+00  9.5561344352513586e+00  9.4224867776301888e+00  9.2888388624468838e+00  9.1551907255227292e+00  9.0215423417276277e+00  8.8878936194014546e+00  8.7542444727675495e+00  8.6205948797548100e+00  8.4869448523947728e+00  8.3532943756673870e+00  8.2196433977747709e+00  8.0859918815493934e+00  7.95233986285