<?xml version="1.0"?>
<VTKFile type="UnstructuredGrid"  version="0.1"  >
<UnstructuredGrid>
<Piece  NumberOfPoints="1369" NumberOfCells="2560">
<Points>
<DataArray  type="Float64"  NumberOfComponents="3"  format="ascii">0 0 0  0.75 0 0  1.5 0 0  2.25 0 0  3 0 0  3.75 0 0  4.5 0 0  5.25 0 0  6 0 0  6.75 0 0  7.5 0 0  8.25 0 0  9 0 0  9.75 0 0  10.5 0 0  11.25 0 0  12 0 0  12.75 0 0  13.5 0 0  14.25 0 0  15 0 0  15.75 0 0  16.5 0 0  17.25 0 0  18 0 0  18.75 0 0  19.5 0 0  20.25 0 0  21 0 0  21.75 0 0  22.5 0 0  23.25 0 0  24 0 0  24.75 0 0  25.5 0 0  26.25 0 0  27 0 0  27.75 0 0  28.5 0 0  29.25 0 0  30 0 0  30.75 0 0  31.5 0 0  32.25 0 0  33 0 0  33.75 0 0  34.5 0 0  35.25 0 0  36 0 0  36.75 0 0  37.5 0 0  38.25 0 0  39 0 0  39.75 0 0  40.5 0 0  41.25 0 0  42 0 0  42.75 0 0  43.5 0 0  44.25 0 0  45 0 0  45.75 0 0  46.5 0 0  47.25 0 0  48 0 0  48.75 0 0  49.5 0 0  50.25 0 0  51 0 0  51.75 0 0  52.5 0 0  53.25 0 0  54 0 0  54.75 0 0  55.5 0 0  56.25 0 0  57 0 0  57.75 0 0  58.5 0 0  59.25 0 0  60 0 0  0 0.5 0  0.75 0.5 0  1.5 0.5 0  2.25 0.5 0  3 0.5 0  3.75 0.5 0  4.5 0.5 0  5.25 0.5 0  6 0.5 0  6.75 0.5 0  7.5 0.5 0  8.25 0.5 0  9 0.5 0  9.75 0.5 0  10.5 0.5 0  11.25 0.5 0  12 0.5 0  12.75 0.5 0  13.5 0.5 0  14.25 0.5 0  15 0.5 0  15.75 0.5 0  16.5 0.5 0  17.25 0.5 0  18 0.5 0  18.75 0.5 0  19.5 0.5 0  20.25 0.5 0  21 0.5 0  21.75 0.5 0  22.5 0.5 0  23.25 0.5 0  24 0.5 0  24.75 0.5 0  25.5 0.5 0  26.25 0.5 0  27 0.5 0  27.75 0.5 0  28.5 0.5 0  29.25 0.5 0  30 0.5 0  30.75 0.5 0  31.5 0.5 0  32.25 0.5 0  33 0.5 0  33.75 0.5 0  34.5 0.5 0  35.25 0.5 0  36 0.5 0  36.75 0.5 0  37.5 0.5 0  38.25 0.5 0  39 0.5 0  39.75 0.5 0  40.5 0.5 0  41.25 0.5 0  42 0.5 0  42.75 0.5 0  43.5 0.5 0  44.25 0.5 0  45 0.5 0  45.75 0.5 0  46.5 0.5 0  47.25 0.5 0  48 0.5 0  48.75 0.5 0  49.5 0.5 0  50.25 0.5 0  51 0.5 0  51.75 0.5 0  52.5 0.5 0  53.25 0.5 0  54 0.5 0  54.75 0.5 0  55.5 0.5 0  56.25 0.5 0  57 0.5 0  57.75 0.5 0  58.5 0.5 0  59.25 0.5 0  60 0.5 0  0 1 0  0.75 1 0  1.5 1 0  2.25 1 0  3 1 0  3.75 1 0  4.5 1 0  5.25 1 0  6 1 0  6.75 1 0  7.5 1 0  8.25 1 0  9 1 0  9.75 1 0  10.5 1 0  11.25 1 0  12 1 0  12.75 1 0  13.5 1 0  14.25 1 0  15 1 0  15.75 1 0  16.5 1 0  17.25 1 0  18 1 0  18.75 1 0  19.5 1 0  20.25 1 0  21 1 0  21.75 1 0  22.5 1 0  23.25 1 0  24 1 0  24.75 1 0  25.5 1 0  26.25 1 0  27 1 0  27.75 1 0  28.5 1 0  29.25 1 0  30 1 0  30.75 1 0  31.5 1 0  32.25 1 0  33 1 0  33.75 1 0  34.5 1 0  35.25 1 0  36 1 0  36.75 1 0  37.5 1 0  38.25 1 0  39 1 0  39.75 1 0  40.5 1 0  41.25 1 0  42 1 0  42.75 1 0  43.5 1 0  44.25 1 0  45 1 0  45.75 1 0  46.5 1 0  47.25 1 0  48 1 0  48.75 1 0  49.5 1 0  50.25 1 0  51 1 0  51.75 1 0  52.5 1 0  53.25 1 0  54 1 0  54.75 1 0  55.5 1 0  56.25 1 0  57 1 0  57.75 1 0  58.5 1 0  59.25 1 0  60 1 0  0 1.5 0  0.75 1.5 0  1.5 1.5 0  2.25 1.5 0  3 1.5 0  3.75 1.5 0  4.5 1.5 0  5.25 1.5 0  6 1.5 0  6.75 1.5 0  7.5 1.5 0  8.25 1.5 0  9 1.5 0  9.75 1.5 0  10.5 1.5 0  11.25 1.5 0  12 1.5 0  12.75 1.5 0  13.5 1.5 0  14.25 1.5 0  15 1.5 0  15.75 1.5 0  16.5 1.5 0  17.25 1.5 0  18 1.5 0  18.75 1.5 0  19.5 1.5 0  20.25 1.5 0  21 1.5 0  21.75 1.5 0  22.5 1.5 0  23.25 1.5 0  24 1.5 0  24.75 1.5 0  25.5 1.5 0  26.25 1.5 0  27 1.5 0  27.75 1.5 0  28.5 1.5 0  29.25 1.5 0  30 1.5 0  30.75 1.5 0  31.5 1.5 0  32.25 1.5 0  33 1.5 0  33.75 1.5 0  34.5 1.5 0  35.25 1.5 0  36 1.5 0  36.75 1.5 0  37.5 1.5 0  38.25 1.5 0  39 1.5 0  39.75 1.5 0  40.5 1.5 0  41.25 1.5 0  42 1.5 0  42.75 1.5 0  43.5 1.5 0  44.25 1.5 0  45 1.5 0  45.75 1.5 0  46.5 1.5 0  47.25 1.5 0  48 1.5 0  48.75 1.5 0  49.5 1.5 0  50.25 1.5 0  51 1.5 0  51.75 1.5 0  52.5 1.5 0  53.25 1.5 0  54 1.5 0  54.75 1.5 0  55.5 1.5 0  56.25 1.5 0  57 1.5 0  57.75 1.5 0  58.5 1.5 0  59.25 1.5 0  60 1.5 0  0 2 0  0.75 2 0  1.5 2 0  2.25 2 0  3 2 0  3.75 2 0  4.5 2 0  5.25 2 0  6 2 0  6.75 2 0  7.5 2 0  8.25 2 0  9 2 0  9.75 2 0  10.5 2 0  11.25 2 0  12 2 0  12.75 2 0  13.5 2 0  14.25 2 0  15 2 0  15.75 2 0  16.5 2 0  17.25 2 0  18 2 0  18.75 2 0  19.5 2 0  20.25 2 0  21 2 0  21.75 2 0  22.5 2 0  23.25 2 0  24 2 0  24.75 2 0  25.5 2 0  26.25 2 0  27 2 0  27.75 2 0  28.5 2 0  29.25 2 0  30 2 0  30.75 2 0  31.5 2 0  32.25 2 0  33 2 0  33.75 2 0  34.5 2 0  35.25 2 0  36 2 0  36.75 2 0  37.5 2 0  38.25 2 0  39 2 0  39.75 2 0  40.5 2 0  41.25 2 0  42 2 0  42.75 2 0  43.5 2 0  44.25 2 0  45 2 0  45.75 2 0  46.5 2 0  47.25 2 0  48 2 0  48.75 2 0  49.5 2 0  50.25 2 0  51 2 0  51.75 2 0  52.5 2 0  53.25 2 0  54 2 0  54.75 2 0  55.5 2 0  56.25 2 0  57 2 0  57.75 2 0  58.5 2 0  59.25 2 0  60 2 0  0 2.5 0  0.75 2.5 0  1.5 2.5 0  2.25 2.5 0  3 2.5 0  3.75 2.5 0  4.5 2.5 0  5.25 2.5 0  6 2.5 0  6.75 2.5 0  7.5 2.5 0  8.25 2.5 0  9 2.5 0  9.75 2.5 0  10.5 2.5 0  11.25 2.5 0  12 2.5 0  12.75 2.5 0  13.5 2.5 0  14.25 2.5 0  15 2.5 0  15.75 2.5 0  16.5 2.5 0  17.25 2.5 0  18 2.5 0  18.75 2.5 0  19.5 2.5 0  20.25 2.5 0  21 2.5 0  21.75 2.5 0  22.5 2.5 0  23.25 2.5 0  24 2.5 0  24.75 2.5 0  25.5 2.5 0  26.25 2.5 0  27 2.5 0  27.75 2.5 0  28.5 2.5 0  29.25 2.5 0  30 2.5 0  30.75 2.5 0  31.5 2.5 0  32.25 2.5 0  33 2.5 0  33.75 2.5 0  34.5 2.5 0  35.25 2.5 0  36 2.5 0  36.75 2.5 0  37.5 2.5 0  38.25 2.5 0  39 2.5 0  39.75 2.5 0  40.5 2.5 0  41.25 2.5 0  42 2.5 0  42.75 2.5 0  43.5 2.5 0  44.25 2.5 0  45 2.5 0  45.75 2.5 0  46.5 2.5 0  47.25 2.5 0  48 2.5 0  48.75 2.5 0  49.5 2.5 0  50.25 2.5 0  51 2.5 0  51.75 2.5 0  52.5 2.5 0  53.25 2.5 0  54 2.5 0  54.75 2.5 0  55.5 2.5 0  56.25 2.5 0  57 2.5 0  57.75 2.5 0  58.5 2.5 0  59.25 2.5 0  60 2.5 0  0 3 0  0.75 3 0  1.5 3 0  2.25 3 0  3 3 0  3.75 3 0  4.5 3 0  5.25 3 0  6 3 0  6.75 3 0  7.5 3 0  8.25 3 0  9 3 0  9.75 3 0  10.5 3 0  11.25 3 0  12 3 0  12.75 3 0  13.5 3 0  14.25 3 0  15 3 0  15.75 3 0  16.5 3 0  17.25 3 0  18 3 0  18.75 3 0  19.5 3 0  20.25 3 0  21 3 0  21.75 3 0  22.5 3 0  23.25 3 0  24 3 0  24.75 3 0  25.5 3 0  26.25 3 0  27 3 0  27.75 3 0  28.5 3 0  29.25 3 0  30 3 0  30.75 3 0  31.5 3 0  32.25 3 0  33 3 0  33.75 3 0  34.5 3 0  35.25 3 0  36 3 0  36.75 3 0  37.5 3 0  38.25 3 0  39 3 0  39.75 3 0  40.5 3 0  41.25 3 0  42 3 0  42.75 3 0  43.5 3 0  44.25 3 0  45 3 0  45.75 3 0  46.5 3 0  47.25 3 0  48 3 0  48.75 3 0  49.5 3 0  50.25 3 0  51 3 0  51.75 3 0  52.5 3 0  53.25 3 0  54 3 0  54.75 3 0  55.5 3 0  56.25 3 0  57 3 0  57.75 3 0  58.5 3 0  59.25 3 0  60 3 0  0 3.5 0  0.75 3.5 0  1.5 3.5 0  2.25 3.5 0  3 3.5 0  3.75 3.5 0  4.5 3.5 0  5.25 3.5 0  6 3.5 0  6.75 3.5 0  7.5 3.5 0  8.25 3.5 0  9 3.5 0  9.75 3.5 0  10.5 3.5 0  11.25 3.5 0  12 3.5 0  12.75 3.5 0  13.5 3.5 0  14.25 3.5 0  15 3.5 0  15.75 3.5 0  16.5 3.5 0  17.25 3.5 0  18 3.5 0  18.75 3.5 0  19.5 3.5 0  20.25 3.5 0  21 3.5 0  21.75 3.5 0  22.5 3.5 0  23.25 3.5 0  24 3.5 0  24.75 3.5 0  25.5 3.5 0  26.25 3.5 0  27 3.5 0  27.75 3.5 0  28.5 3.5 0  29.25 3.5 0  30 3.5 0  30.75 3.5 0  31.5 3.5 0  32.25 3.5 0  33 3.5 0  33.75 3.5 0  34.5 3.5 0  35.25 3.5 0  36 3.5 0  36.75 3.5 0  37.5 3.5 0  38.25 3.5 0  39 3.5 0  39.75 3.5 0  40.5 3.5 0  41.25 3.5 0  42 3.5 0  42.75 3.5 0  43.5 3.5 0  44.25 3.5 0  45 3.5 0  45.75 3.5 0  46.5 3.5 0  47.25 3.5 0  48 3.5 0  48.75 3.5 0  49.5 3.5 0  50.25 3.5 0  51 3.5 0  51.75 3.5 0  52.5 3.5 0  53.25 3.5 0  54 3.5 0  54.75 3.5 0  55.5 3.5 0  56.25 3.5 0  57 3.5 0  57.75 3.5 0  58.5 3.5 0  59.25 3.5 0  60 3.5 0  0 4 0  0.75 4 0  1.5 4 0  2.25 4 0  3 4 0  3.75 4 0  4.5 4 0  5.25 4 0  6 4 0  6.75 4 0  7.5 4 0  8.25 4 0  9 4 0  9.75 4 0  10.5 4 0  11.25 4 0  12 4 0  12.75 4 0  13.5 4 0  14.25 4 0  15 4 0  15.75 4 0  16.5 4 0  17.25 4 0  18 4 0  18.75 4 0  19.5 4 0  20.25 4 0  21 4 0  21.75 4 0  22.5 4 0  23.25 4 0  24 4 0  24.75 4 0  25.5 4 0  26.25 4 0  27 4 0  27.75 4 0  28.5 4 0  29.25 4 0  30 4 0  30.75 4 0  31.5 4 0  32.25 4 0  33 4 0  33.75 4 0  34.5 4 0  35.25 4 0  36 4 0  36.75 4 0  37.5 4 0  38.25 4 0  39 4 0  39.75 4 0  40.5 4 0  41.25 4 0  42 4 0  42.75 4 0  43.5 4 0  44.25 4 0  45 4 0  45.75 4 0  46.5 4 0  47.25 4 0  48 4 0  48.75 4 0  49.5 4 0  50.25 4 0  51 4 0  51.75 4 0  52.5 4 0  53.25 4 0  54 4 0  54.75 4 0  55.5 4 0  56.25 4 0  57 4 0  57.75 4 0  58.5 4 0  59.25 4 0  60 4 0  0.375 0.25 0  1.125 0.25 0  1.875 0.25 0  2.625 0.25 0  3.375 0.25 0  4.125 0.25 0  4.875 0.25 0  5.625 0.25 0  6.375 0.25 0  7.125 0.25 0  7.875 0.25 0  8.625 0.25 0  9.375 0.25 0  10.125 0.25 0  10.875 0.25 0  11.625 0.25 0  12.375 0.25 0  13.125 0.25 0  13.875 0.25 0  14.625 0.25 0  15.375 0.25 0  16.125 0.25 0  16.875 0.25 0  17.625 0.25 0  18.375 0.25 0  19.125 0.25 0  19.875 0.25 0  20.625 0.25 0  21.375 0.25 0  22.125 0.25 0  22.875 0.25 0  23.625 0.25 0  24.375 0.25 0  25.125 0.25 0  25.875 0.25 0  26.625 0.25 0  27.375 0.25 0  28.125 0.25 0  28.875 0.25 0  29.625 0.25 0  30.375 0.25 0  31.125 0.25 0  31.875 0.25 0  32.625 0.25 0  33.375 0.25 0  34.125 0.25 0  34.875 0.25 0  35.625 0.25 0  36.375 0.25 0  37.125 0.25 0  37.875 0.25 0  38.625 0.25 0  39.375 0.25 0  40.125 0.25 0  40.875 0.25 0  41.625 0.25 0  42.375 0.25 0  43.125 0.25 0  43.875 0.25 0  44.625 0.25 0  45.375 0.25 0  46.125 0.25 0  46.875 0.25 0  47.625 0.25 0  48.375 0.25 0  49.125 0.25 0  49.875 0.25 0  50.625 0.25 0  51.375 0.25 0  52.125 0.25 0  52.875 0.25 0  53.625 0.25 0  54.375 0.25 0  55.125 0.25 0  55.875 0.25 0  56.625 0.25 0  57.375 0.25 0  58.125 0.25 0  58.875 0.25 0  59.625 0.25 0  0.375 0.75 0  1.125 0.75 0  1.875 0.75 0  2.625 0.75 0  3.375 0.75 0  4.125 0.75 0  4.875 0.75 0  5.625 0.75 0  6.375 0.75 0  7.125 0.75 0  7.875 0.75 0  8.625 0.75 0  9.375 0.75 0  10.125 0.75 0  10.875 0.75 0  11.625 0.75 0  12.375 0.75 0  13.125 0.75 0  13.875 0.75 0  14.625 0.75 0  15.375 0.75 0  16.125 0.75 0  16.875 0.75 0  17.625 0.75 0  18.375 0.75 0  19.125 0.75 0  19.875 0.75 0  20.625 0.75 0  21.375 0.75 0  22.125 0.75 0  22.875 0.75 0  23.625 0.75 0  24.375 0.75 0  25.125 0.75 0  25.875 0.75 0  26.625 0.75 0  27.375 0.75 0  28.125 0.75 0  28.875 0.75 0  29.625 0.75 0  30.375 0.75 0  31.125 0.75 0  31.875 0.75 0  32.625 0.75 0  33.375 0.75 0  34.125 0.75 0  34.875 0.75 0  35.625 0.75 0  36.375 0.75 0  37.125 0.75 0  37.875 0.75 0  38.625 0.75 0  39.375 0.75 0  40.125 0.75 0  40
[...]
<PointData  Scalars="f_8-1"> 
<DataArray  type="Float64"  Name="f_8-1"  format="ascii">5.4482424778369198e+00  5.3796370560365041e+00  5.3103973760941692e+00  5.2426521396061823e+00  5.1743272928599868e+00  5.1064992172732344e+00  5.0383202010013655e+00  4.9703243147011626e+00  4.9021892096592472e+00  4.8341384262627738e+00  4.7660364939269426e+00  4.6979651203525696e+00  4.6298768064723692e+00  4.5617977715639801e+00  4.4937139064734311e+00  4.4256325130118856e+00  4.3575498958031025e+00  4.2894678757981000e+00  4.2213855711554604e+00  4.1533034007648428e+00  4.0852211681010413e+00  4.0171389640043653e+00  3.9490567468305677e+00  3.8809745354422454e+00  3.8128923213384209e+00  3.7448101083119800e+00  3.6767278946753139e+00  3.6086456811730949e+00  3.5405634674773325e+00  3.4724812537317242e+00  3.4043990398735771e+00  3.3363168259302292e+00  3.2682346118898682e+00  3.2001523977576833e+00  3.1320701835314977e+00  3.0639879692122807e+00  2.9959057547996499e+00  2.9278235402937742e+00  2.8597413256945750e+00  2.7916591110021201e+00  2.7235768962163602e+00  2.6554946813373350e+00  2.5874124663650204e+00  2.5193302512994453e+00  2.4512480361405551e+00  2.3831658208884257e+00  2.3150836055428798e+00  2.2470013901041779e+00  2.1789191745718761e+00  2.1108369589464071e+00  2.0427547432269573e+00  1.9746725274143664e+00  1.9065903115066820e+00  1.8385080955051134e+00  1.7704258794052268e+00  1.7023436632067752e+00  1.6342614468970391e+00  1.5661792304624629e+00  1.4980970138542506e+00  1.4300147969832617e+00  1.3619325796339241e+00  1.2938503613878329e+00  1.2257681414750781e+00  1.1576859188425201e+00  1.0896036930494823e+00  1.0215214675442279e+00  9.5343925808597696e-01  8.8535710687680547e-01  8.1727509604960624e-01  7.4919332755899348e-01  6.8111181745663962e-01  6.1303028107498658e-01  5.4494802002234422e-01  4.7686429880422615e-01  4.0877911928458999e-01  3.4069331752268872e-01  2.7260841627693905e-01  2.0452820612200459e-01  1.3646283429368503e-01  6.8436803402806681e-02  5.7543520069503753e-04  5.4478727734465417e+00  5.3796225920414678e+00  5.3107243552347887e+00  5.2426182853642205e+00  5.1744666555793346e+00  5.1064465151258416e+00  5.0383903403000048e+00  4.9703082251009487e+00  4.9022315478358642e+00  4.8341440886545568e+00  4.7660649778584068e+00  4.6979801440277971e+00  4.6298995926111841e+00  4.5618162364385828e+00  4.4937347226279387e+00  4.4256520836813928e+00  4.3575701135879061e+00  4.2894877646247469e+00  4.2214056246316973e+00  4.1533233733022357e+00  4.0852411799429458e+00  4.0171589570395305e+00  3.9490767487777818e+00  3.8809945332158202e+00  3.8129123210507836e+00  3.7448301071315071e+00  3.6767478939027747e+00  3.6086656802150712e+00  3.5405834666028619e+00  3.4725012528196304e+00  3.4044190389782458e+00  3.3363368250274639e+00  3.2682546109904509e+00  3.2001723968568783e+00  3.1320901826314116e+00  3.0640079683120023e+00  2.9959257538995807e+00  2.9278435393937601e+00  2.8597613247946789e+00  2.7916791101023248e+00  2.7235968953166787e+00  2.6555146804377614e+00  2.5874324654655556e+00  2.5193502504000946e+00  2.4512680352413136e+00  2.3831858199893059e+00  2.3151036046438689e+00  2.2470213892052753e+00  2.1789391736730743e+00  2.1108569580476608e+00  2.0427747423282407e+00  1.9746925265154389e+00  1.9066103106073611e+00  1.8385280946045057e+00  1.7704458785023709e+00  1.7023636622984530e+00  1.6342814459790598e+00  1.5661992295235097e+00  1.4981170128776837e+00  1.4300347959278641e+00  1.3619525784287412e+00  1.2938703598480790e+00  1.2257881391794796e+00  1.1577059145905135e+00  1.0896236836842159e+00  1.0215414447225410e+00  9.5345920220803393e-01  8.8537697642606894e-01  8.1729481718046959e-01  7.4921279486393977e-01  6.8113093484300946e-01  6.1304904827387663e-01  5.4496660526863339e-01  4.7688295227489225e-01  4.0879801323164722e-01  3.4071254695765973e-01  2.7262800841352663e-01  2.0454767949179856e-01  1.3648006895679982e-01  6.8436727558782579e-02  7.9805382503489683e-05  5.4477057292601030e+00  5.3796702860581815e+00  5.3109166882485486e+00  5.2427998997860703e+00  5.1745500380990563e+00  5.1065176162769461e+00  5.0384126397207041e+00  4.9703513659187282e+00  4.9022598600037766e+00  4.8341842205089032e+00  4.7660978381465586e+00  4.6980183952879502e+00  4.6299343003309739e+00  4.5618533283808684e+00  4.4937703134612228e+00  4.4256885992177244e+00  4.3576060875104670e+00  4.2895240479070296e+00  4.2214417381566500e+00  4.1533595781018509e+00  4.0852773372023314e+00  4.0171951386832010e+00  3.9491129182244569e+00  3.8810307086927480e+00  3.8129484936036064e+00  3.7448662810884970e+00  3.6767840671947001e+00  3.6087018538188875e+00  3.5406196400615895e+00  3.4725374263451609e+00  3.4044552124732492e+00  3.3363729985364712e+00  3.2682907844933586e+00  3.2002085703628329e+00  3.1321263561363524e+00  3.0640441418177931e+00  2.9959619274054030e+00  2.9278797128999869e+00  2.8597974983011669e+00  2.7917152836091312e+00  2.7236330688238053e+00  2.6555508539452091e+00  2.5874686389733252e+00  2.5193864239081840e+00  2.4513042087497516e+00  2.3832219934980494e+00  2.3151397781530507e+00  2.2470575627147937e+00  2.1789753471832465e+00  2.1108931315584778e+00  2.0428109158405832e+00  1.9747287000297682e+00  1.9066464841265298e+00  1.8385642681317353e+00  1.7704820520476698e+00  1.7023998358780852e+00  1.6343176196324103e+00  1.5662354033276802e+00  1.4981531870045759e+00  1.4300709707452486e+00  1.3619887547440537e+00  1.2939065394344971e+00  1.2258243258596877e+00  1.1577421164316177e+00  1.0896599166572078e+00  1.0215777379620823e+00  9.5349560132470768e-01  8.8541353700815473e-01  8.1733156942820728e-01  7.4924966564027140e-01  6.8116764164917676e-01  6.1308509955681934e-01  5.4500157039451524e-01  4.7691679747798338e-01  4.0883066855554151e-01  3.4074293916852155e-01  2.7265319180554959e-01  2.0456017359917439e-01  1.3645859876749103e-01  6.8315374446690738e-02  1.8023035278181696e-05  5.4479103766786023e+00  5.3794953632856970e+00  5.3111459843758428e+00  5.2427878347096657e+00  5.1746609553377620e+00  5.1065034651446872e+00  5.0384481116843132e+00  4.9703450184083140e+00  4.9022776688952057e+00  4.8341873125274821e+00  4.7661107094066608e+00  4.6980252703620575e+00  4.6299451040850226e+00  4.5618616835865504e+00  4.4937802023541051e+00  4.4256975650223840e+00  4.3576155991724193e+00  4.2895332482232167e+00  4.2214511123926020e+00  4.1533688581671022e+00  4.0852866673297727e+00  4.0172044428757827e+00  3.9491222356520819e+00  3.8810400195052894e+00  3.8129578076815327e+00  3.7448755935800966e+00  3.6767933804482715e+00  3.6087111667103899e+00  3.5406289531230750e+00  3.4725467393272509e+00  3.4044645254919272e+00  3.3363823115383235e+00  3.2683000975029159e+00  3.2002178833690018e+00  3.1321356691441893e+00  3.0640534548250447e+00  2.9959712404131040e+00  2.9278890259076760e+00  2.8598068113090691e+00  2.7917245966171507e+00  2.7236423818319864e+00  2.6555601669535522e+00  2.5874779519818234e+00  2.5193957369168500e+00  2.4513135217585988e+00  2.3832313065070738e+00  2.3151490911623056e+00  2.2470668757243155e+00  2.1789846601931409e+00  2.1109024445689442e+00  2.0428202288520541e+00  1.9747380130429790e+00  1.9066557971431159e+00  1.8385735811548274e+00  1.7704913650838161e+00  1.7024091489405442e+00  1.6343269327490899e+00  1.5662447165575768e+00  1.4981625004743342e+00  1.4300802847298284e+00  1.3619980698412604e+00  1.2939158569401812e+00  1.2258336485210095e+00  1.1577514498640880e+00  1.0896692716055325e+00  1.0215871330675323e+00  9.5350506411030644e-01  8.8542309756788951e-01  8.1734123741578857e-01  7.4925938482797549e-01  6.8117723776210048e-01  6.1309428772515306e-01  5.4501010157526208e-01  4.7692460298939510e-01  4.0883757527984166e-01  3.4074808063791429e-01  2.7265427706437828e-01  2.0455155284014340e-01  1.3642793621666610e-01  6.8256181761155638e-02  1.1162382930723947e-05  5.4478589999662894e+00  5.3795271140533414e+00  5.3111105974175290e+00  5.2428549986179087e+00  5.1746267908294419e+00  5.1065349395205839e+00  5.0384197487598730e+00  4.9703537829441125e+00  4.9022606590906701e+00  4.8341867001314140e+00  4.7660998865446045e+00  4.6980207914314089e+00  4.6299367927395050e+00  4.5618556825546861e+00  4.4937728371630739e+00  4.4256909959363835e+00  4.3576085748212749e+00  4.2895264798475665e+00  4.2214442030586570e+00  4.1533620250687813e+00  4.0852797938103418e+00  4.0171975904303041e+00  3.9491153724127188e+00  3.8810331617131100e+00  3.8129509471818830e+00  3.7448687344090459e+00  3.6767865206333474e+00  3.6087043072039653e+00  3.5406220934701937e+00  3.4725398797430751e+00  3.4044576658756092e+00  3.3363754519367546e+00  3.2682932378944836e+00  3.2002110237635999e+00  3.1321288095373236e+00  3.0640465952187435e+00  2.9959643808064604e+00  2.9278821663011003e+00  2.8597999517023869e+00  2.7917177370104440e+00  2.7236355222252238e+00  2.6555533073467377e+00  2.5874710923749822e+00  2.5193888773099742e+00  2.4513066621517128e+00  2.3832244469001984e+00  2.3151422315554688e+00  2.2470600161175618e+00  2.1789778005865719e+00  2.1108955849626878e+00  2.0428133692462977e+00  1.9747311534381233e+00  1.9066489375397255e+00  1.8385667215541410e+00  1.7704845054877276e+00  1.7024022893533595e+00  1.6343200731784056e+00  1.5662378570204840e+00  1.4981556410048695e+00  1.4300734254041718e+00  1.3619912108202297e+00  1.2939089985731316e+00  1.2258267915177248e+00  1.1577445955883234e+00  1.0896624223216775e+00  1.0215802917611010e+00  9.5349823267561928e-01  8.8541627189041816e-01  8.1733439867330293e-01  7.4925249327221777e-01  6.8117024746475130e-01  6.1308719277082435e-01  5.4500294158644569e-01  4.7691734745700021e-01  4.0883008397715970e-01  3.4074010311775110e-01  2.7264510137398484e-01  2.0453944933441356e-01  1.3640999893766004e-01  6.8234264411201562e-02  1.4408904755631304e-05  5.4479103741854811e+00  5.3794953779409642e+00  5.3111459832716790e+00  5.2427878284453300e+00  5.1746609471943845e+00  5.1065034569646368e+00  5.0384481090175690e+00  4.9703450166897802e+00  4.9022776691468373e+00  4.8341873126901929e+00  4.7661107102075135e+00  4.6980252708834946e+00  4.6299451048716094e+00  4.5618616841814994e+00  4.4937802030653735e+00  4.4256975656374831e+00  4.3576155998326893e+00  4.2895332488438171e+00  4.2214511130273413e+00  4.1533688587875215e+00  4.0852866679534250e+00  4.0172044434945908e+00  3.9491222362711920e+00  3.8810400201227480e+00  3.8129578082987519e+00  3.7448755941967069e+00  3.6767933810646793e+00  3.6087111673265611e+00  3.5406289537391200e+00  3.4725467399431955e+00  3.4044645261077968e+00  3.3363823121541523e+00  3.2683000981187336e+00  3.2002178839847901e+00  3.1321356697599754e+00  3.0640534554408076e+00  2.9959712410288639e+00  2.9278890265234359e+00  2.8598068119248414e+00  2.7917245972329376e+00  2.7236423824477969e+00  2.6555601675693716e+00  2.5874779525977014e+00  2.5193957375327742e+00  2.4513135223746088e+00  2.3832313071232090e+00  2.3151490917786113e+00  2.2470668763408650e+00  2.1789846608100878e+00  2.1109024451864395e+00  2.0428202294703435e+00  1.9747380136624251e+00  1.9066557977642613e+00  1.8385735817784317e+00  1.7704913657109813e+00  1.7024091495728337e+00  1.6343269333887132e+00  1.5662447172075473e+00  1.4981625011386408e+00  1.4300802854136767e+00  1.3619980705516066e+00  1.2939158576876226e+00  1.2258336493250410e+00  1.1577514507648980e+00  1.0896692726831128e+00  1.0215871344585918e+00  9.5350506599103768e-01  8.8542310005523261e-01  8.1734124039220868e-01  7.4925938787732704e-01  6.8117724057097062e-01  6.1309429090348433e-01  5.4501010672865902e-01  4.7692461125411850e-01  4.0883758723659908e-01  3.4074809911045162e-01  2.7265430719148642e-01  2.0455160190537844e-01  1.3642800952879275e-01  6.8256258019721350e-02  1.1177495344294497e-05  5.4477057456664264e+00  5.3796703283518594e+00  5.3109166801916450e+00  5.2427998673675731e+00  5.1745500174031411e+00  5.1065176028658339e+00  5.0384126411601935e+00  4.9703513683038842e+00  4.9022598647829065e+00  4.8341842248316178e+00  4.7660978421719360e+00  4.6980183991127111e+00  4.6299343035483682e+00  4.5618533315891705e+00  4.4937703162450644e+00  4.4256886020062778e+00  4.3576060900859659e+00  4.2895240504685761e+00  4.2214417406267071e+00  4.1533595805543762e+00  4.0852773396174822e+00  4.0171951410857440e+00  3.9491129206115421e+00  3.8810307110725626e+00  3.8129484959767712e+00  3.7448662834578914e+00  3.6767840695611347e+00  3.6087018561834734e+00  3.5406196424248333e+00  3.4725374287075299e+00  3.4044552148349814e+00  3.3363730008977774e+00  3.2682907868543962e+00  3.2002085727236738e+00  3.1321263584970729e+00  3.0640441441784110e+00  2.9959619297659663e+00  2.9278797152605036e+00  2.8597975006616791e+00  2.7917152859696381e+00  2.7236330711843184e+00  2.6555508563057506e+00  2.5874686413339156e+00  2.5193864262688348e+00  2.4513042111105028e+00  2.3832219958589405e+00  2.3151397805141505e+00  2.2470575650761835e+00  2.1789753495450790e+00  2.1108931339209582e+00  2.0428109182039869e+00  1.9747287023945019e+00  1.9066464864931938e+00  1.8385642705011893e+00  1.7704820544211270e+00  1.7023998382572381e+00  1.6343176220196198e+00  1.5662354057260928e+00  1.4981531894182136e+00  1.4300709731790482e+00  1.3619887572041327e+00  1.2939065419297060e+00  1.2258243284068298e+00  1.1577421190685200e+00  1.0896599194665513e+00  1.0215777410999047e+00  9.5349560502621256e-01  8.8541354152370833e-01  8.1733157487782315e-01  7.4924967192410707e-01  6.8116764871331892e-01  6.1308510807301431e-01  5.4500158212704486e-01  4.7691681472701414e-01  4.0883069430039004e-01  3.4074297932014364e-01  2.7265325709659755e-01  2.0456028167205495e-01  1.3645877235701845e-01  6.8315592174888279e-02  1.8054397017075506e-05  5.4478727057631007e+00  5.3796227898657731e+00  5.3107242592482393e+00  5.2426182407190112e+00  5.1744666006813729e+00  5.1064465060513182e+00  5.0383903487959474e+00  4.9703082342908775e+00  4.9022315596360642e+00  4.8341440972947387e+00  4.7660649867733680e+00  4.6979801507438079e+00  4.6298995992983336e+00  4.5618162419338901e+00  4.4937347279932354e+00  4.4256520885011348e+00  4.3575701182794306e+00  4.2894877690825375e+00  4.2214056290026223e+00  4.1533233775730709e+00  4.0852411841645129e+00  4.0171589612171550e+00  3.9490767529299600e+00  3.8809945373482040e+00  3.8129123251706858e+00  3.7448301112423144e+00  3.6767478980075921e+00  3.6086656843156848e+00  3.5405834707006720e+00  3.4725012569154963e+00  3.4044190430727714e+00  3.3363368291210609e+00  3.2682546150834404e+00  3.2001724009494565e+00  3.1320901867237114e+00  3.0640079724041063e+00  2.9959257579915546e+00  2.9278435434856309e+00  2.8597613288865120e+00  2.7916791141941144e+00  2.7235968994084629e+00  2.6555146845295727e+00  2.5874324695573940e+00  2.5193502544919903e+00  2.4512680393332813e+00  2.3831858240813890e+00  2.3151036087361465e+00  2.2470213932977758e+00  2.1789391777659337e+00  2.1108569621410695e+00  2.0427747464223995e+00  1.9746925306106506e+00  1.9066103147041078e+00  1.8385280987034331e+00  1.7704458826043823e+00  1.7023636664047725e+00  1.6342814500913521e+00  1.5661992336439015e+00  1.4981170170086930e+00  1.4300348000719976e+00  1.3619525825879053e+00  1.2938703640230991e+00  1.2257881433718256e+00  1.1577059188108954e+00  1.0896236879756320e+00  1.0215414492043604e+00  9.5345920713353061e-01  8.8537698221401251e-01  8.1729482435391454e-01  7.4921280387878664e-01  6.8113094597843771e-01  6.1304906195293207e-01  5.4496662294122966e-01  4.7688297727273188e-01  4.0879805104965261e-01  3.4071260621345367e-01  2.7262810455611231e-01  2.0454784128535133e-01  1.3648034912000009e-01  6.8437219803802088e-02  7.9965615246242147e-05  5.4482419544880925e+00  5.3796375463041759e+00  5.3103970620720080e+00  5.2426522119633043e+00  5.1743271601955820e+00  5.1064992673013903e+00  5.0383201870856018e+00  4.9703243507042441e+00  4.9021892163395169e+00  4.8341384483749748e+00  4.7660365043901107e+00  4.6979651348780997e+00  4.6298768171152007e+00  4.5617977827831027e+00  4.4937139164456488e+00  4.4256325228673692e+00  4.3575499052192672e+00  4.2894678850674088e+00  4.2213855802493772e+00  4.1533034097697783e+00  4.0852211770296165e+00  4.0171389728869347e+00  3.9490567556784524e+00  3.8809745442676737e+00  3.8128923301478355e+00  3.7448101171106707e+00  3.6767279034665457e+00  3.6086456899592809e+00  3.5405634762600622e+00  3.4724812625121051e+00  3.4043990486523024e+00  3.3363168347078558e+00  3.2682346206667354e+00  3.2001524065340563e+00  3.1320701923075309e+00  3.0639879779880763e+00  2.9959057635752746e+00  2.9278235490692892e+00  2.8597413344700340e+00  2.7916591197775289e+00  2.7235769049917709e+00  2.6554946901127732e+00  2.5874124751404857e+00  2.5193302600749758e+00  2.4512480449161735e+00  2.3831658296641862e+00  2.3150836143188638e+00  2.2470013988804309e+00  2.1789191833485524e+00  2.1108369677237429e+00  2.0427547520051990e+00  1.9746725361938837e+00  1.9065903202880707e+00  1.8385081042891891e+00  1.7704258881931281e+00  1.7023436720001002e+00  1.6342614556979684e+00  1.5661792392738951e+00  1.4980970226797541e+00  1.4300148058267934e+00  1.3619325884994569e+00  1.2938503702795299e+00  1.2257681504008271e+00  1.1576859278268377e+00  1.0896037021645746e+00  1.0215214769649972e+00  9.5343926815394420e-01  8.8535711811727125e-01  8.1727510905818079e-01  7.4919334275522997e-01  6.8111183495514982e-01  6.1303030113372492e-01  5.4494804411250564e-01  4.7686433040720017e-01  4.0877916385831981e-01  3.4069338350211903e-01  2.7260851922580498e-01  2.0452837561399365e-01  1.3646312710031891e-01  6.8437323231659949e-02  5.7693521860556496e-04  5.4142532183348306e+00  5.3450749178243093e+00  5.2767222982623103e+00  5.2085643445082717e+00  5.1405225357738704e+00  5.0724904472597894e+00  5.0044199757536907e+00  4.9363440440745983e+00  4.8682589520792279e+00  4.8001774981840599e+00  4.7320941547572071e+00  4.6640123428575526e+00  4.5959297733786562e+00  4.5278477360237170e+00  4.4597654054278459e+00  4.3916832539404655e+00  4.3236010047655400e+00  4.2555188103923367e+00  4.1874365873791719e+00  4.1193543794347631e+00  4.0512721638563018e+00  3.9831899520209526e+00  3.9151077382504429e+00  3.8470255252920880e+00  3.7789433118164175e+00  3.7108610984496280e+00  3.6427788848960474e+00  3.5746966712922417e+00  3.5066144575750946e+00  3.4385322437734449e+00  3.3704500298742714e+00  3.3023678158834753e+00  3.2342856017984771e+00  3.1662033876204858e+00  3.0981211733490173e+00  3.0300389589843122e+00  2.9619567445262942e+00  2.8938745299749891e+00  2.8257923153303914e+00  2.7577101005925093e+00  2.6896278857613569e+00  2.6215456708369156e+00  2.5534634558192053e+00  2.4853812407082043e+00  2.4172990255039339e+00  2.3492168102063169e+00  2.2811345948154140e+00  2.2130523793310952e+00  2.1449701637533529e+00  2.0768879480819384e+00  2.0088057323166919e+00  1.9407235164569387e+00  1.8726413005015852e+00  1.8045590844484793e+00  1.7364768682925198e+00  1.6683946520244997e+00  1.6003124356208869e+00  1.5322302190368386e+00  1.4641480021606339e+00  1.3960657847687932e+00  1.3279835663445934e+00  1.2599013458950903e+00  1.1918191214824641e+00  1.1237368901998239e+00  1.0556546487422307e+00  9.8757239784484974e-01  9.1949015158453495e-01  8.5140795440944284e-01  7.8332588805134329e-01  7.1524403576818107e-01  6.4716234064878975e-01  5.7908041757974638e-01  5.1099758169925569e-01  4.4291343131904959e-01  3.7482843656987186e-01  3.0674394928044535e-01  2.3866282458386995e-01  1.7059254593058651e-01  1.0255226182225367e-01  3.4620431416480489e-02  5.4134584914256250e+00  5.3452419651078040e+00  5.2768299230104834e+00  5.2085751013594477e+00  5.1405183166020354e+00  5.0724299449296097e+00  5.0043697173100634e+00  4.9362859622027582e+00  4.8682052243876255e+00  4.8001226951246352e+00  4.7320401636040579e+00  4.6639580729282617e+00  4.5958757339124103e+00  4.5277935562138287e+00  4.4597113322839430e+00  4.3916291124134386e+00  4.3235469084150946e+00  4.2554646873980371e+00  4.1873824801761312e+00  4.1193002636015752e+00  4.051218052755703