<?xml version="1.0"?>
<VTKFile type="UnstructuredGrid"  version="0.1"  >
<UnstructuredGrid>
<Piece  NumberOfPoints="1369" NumberOfCells="2560">
<Points>
<DataArray  type="Float64"  NumberOfComponents="3"  format="ascii">0 0 0  0.75 0 0  1.5 0 0  2.25 0 0  3 0 0  3.75 0 0  4.5 0 0  5.25 0 0  6 0 0  6.75 0 0  7.5 0 0  8.25 0 0  9 0 0  9.75 0 0  10.5 0 0  11.25 0 0  12 0 0  12.75 0 0  13.5 0 0  14.25 0 0  15 0 0  15.75 0 0  16.5 0 0  17.25 0 0  18 0 0  18.75 0 0  19.5 0 0  20.25 0 0  21 0 0  21.75 0 0  22.5 0 0  23.25 0 0  24 0 0  24.75 0 0  25.5 0 0  26.25 0 0  27 0 0  27.75 0 0  28.5 0 0  29.25 0 0  30 0 0  30.75 0 0  31.5 0 0  32.25 0 0  33 0 0  33.75 0 0  34.5 0 0  35.25 0 0  36 0 0  36.75 0 0  37.5 0 0  38.25 0 0  39 0 0  39.75 0 0  40.5 0 0  41.25 0 0  42 0 0  42.75 0 0  43.5 0 0  44.25 0 0  45 0 0  45.75 0 0  46.5 0 0  47.25 0 0  48 0 0  48.75 0 0  49.5 0 0  50.25 0 0  51 0 0  51.75 0 0  52.5 0 0  53.25 0 0  54 0 0  54.75 0 0  55.5 0 0  56.25 0 0  57 0 0  57.75 0 0  58.5 0 0  59.25 0 0  60 0 0  0 0.5 0  0.75 0.5 0  1.5 0.5 0  2.25 0.5 0  3 0.5 0  3.75 0.5 0  4.5 0.5 0  5.25 0.5 0  6 0.5 0  6.75 0.5 0  7.5 0.5 0  8.25 0.5 0  9 0.5 0  9.75 0.5 0  10.5 0.5 0  11.25 0.5 0  12 0.5 0  12.75 0.5 0  13.5 0.5 0  14.25 0.5 0  15 0.5 0  15.75 0.5 0  16.5 0.5 0  17.25 0.5 0  18 0.5 0  18.75 0.5 0  19.5 0.5 0  20.25 0.5 0  21 0.5 0  21.75 0.5 0  22.5 0.5 0  23.25 0.5 0  24 0.5 0  24.75 0.5 0  25.5 0.5 0  26.25 0.5 0  27 0.5 0  27.75 0.5 0  28.5 0.5 0  29.25 0.5 0  30 0.5 0  30.75 0.5 0  31.5 0.5 0  32.25 0.5 0  33 0.5 0  33.75 0.5 0  34.5 0.5 0  35.25 0.5 0  36 0.5 0  36.75 0.5 0  37.5 0.5 0  38.25 0.5 0  39 0.5 0  39.75 0.5 0  40.5 0.5 0  41.25 0.5 0  42 0.5 0  42.75 0.5 0  43.5 0.5 0  44.25 0.5 0  45 0.5 0  45.75 0.5 0  46.5 0.5 0  47.25 0.5 0  48 0.5 0  48.75 0.5 0  49.5 0.5 0  50.25 0.5 0  51 0.5 0  51.75 0.5 0  52.5 0.5 0  53.25 0.5 0  54 0.5 0  54.75 0.5 0  55.5 0.5 0  56.25 0.5 0  57 0.5 0  57.75 0.5 0  58.5 0.5 0  59.25 0.5 0  60 0.5 0  0 1 0  0.75 1 0  1.5 1 0  2.25 1 0  3 1 0  3.75 1 0  4.5 1 0  5.25 1 0  6 1 0  6.75 1 0  7.5 1 0  8.25 1 0  9 1 0  9.75 1 0  10.5 1 0  11.25 1 0  12 1 0  12.75 1 0  13.5 1 0  14.25 1 0  15 1 0  15.75 1 0  16.5 1 0  17.25 1 0  18 1 0  18.75 1 0  19.5 1 0  20.25 1 0  21 1 0  21.75 1 0  22.5 1 0  23.25 1 0  24 1 0  24.75 1 0  25.5 1 0  26.25 1 0  27 1 0  27.75 1 0  28.5 1 0  29.25 1 0  30 1 0  30.75 1 0  31.5 1 0  32.25 1 0  33 1 0  33.75 1 0  34.5 1 0  35.25 1 0  36 1 0  36.75 1 0  37.5 1 0  38.25 1 0  39 1 0  39.75 1 0  40.5 1 0  41.25 1 0  42 1 0  42.75 1 0  43.5 1 0  44.25 1 0  45 1 0  45.75 1 0  46.5 1 0  47.25 1 0  48 1 0  48.75 1 0  49.5 1 0  50.25 1 0  51 1 0  51.75 1 0  52.5 1 0  53.25 1 0  54 1 0  54.75 1 0  55.5 1 0  56.25 1 0  57 1 0  57.75 1 0  58.5 1 0  59.25 1 0  60 1 0  0 1.5 0  0.75 1.5 0  1.5 1.5 0  2.25 1.5 0  3 1.5 0  3.75 1.5 0  4.5 1.5 0  5.25 1.5 0  6 1.5 0  6.75 1.5 0  7.5 1.5 0  8.25 1.5 0  9 1.5 0  9.75 1.5 0  10.5 1.5 0  11.25 1.5 0  12 1.5 0  12.75 1.5 0  13.5 1.5 0  14.25 1.5 0  15 1.5 0  15.75 1.5 0  16.5 1.5 0  17.25 1.5 0  18 1.5 0  18.75 1.5 0  19.5 1.5 0  20.25 1.5 0  21 1.5 0  21.75 1.5 0  22.5 1.5 0  23.25 1.5 0  24 1.5 0  24.75 1.5 0  25.5 1.5 0  26.25 1.5 0  27 1.5 0  27.75 1.5 0  28.5 1.5 0  29.25 1.5 0  30 1.5 0  30.75 1.5 0  31.5 1.5 0  32.25 1.5 0  33 1.5 0  33.75 1.5 0  34.5 1.5 0  35.25 1.5 0  36 1.5 0  36.75 1.5 0  37.5 1.5 0  38.25 1.5 0  39 1.5 0  39.75 1.5 0  40.5 1.5 0  41.25 1.5 0  42 1.5 0  42.75 1.5 0  43.5 1.5 0  44.25 1.5 0  45 1.5 0  45.75 1.5 0  46.5 1.5 0  47.25 1.5 0  48 1.5 0  48.75 1.5 0  49.5 1.5 0  50.25 1.5 0  51 1.5 0  51.75 1.5 0  52.5 1.5 0  53.25 1.5 0  54 1.5 0  54.75 1.5 0  55.5 1.5 0  56.25 1.5 0  57 1.5 0  57.75 1.5 0  58.5 1.5 0  59.25 1.5 0  60 1.5 0  0 2 0  0.75 2 0  1.5 2 0  2.25 2 0  3 2 0  3.75 2 0  4.5 2 0  5.25 2 0  6 2 0  6.75 2 0  7.5 2 0  8.25 2 0  9 2 0  9.75 2 0  10.5 2 0  11.25 2 0  12 2 0  12.75 2 0  13.5 2 0  14.25 2 0  15 2 0  15.75 2 0  16.5 2 0  17.25 2 0  18 2 0  18.75 2 0  19.5 2 0  20.25 2 0  21 2 0  21.75 2 0  22.5 2 0  23.25 2 0  24 2 0  24.75 2 0  25.5 2 0  26.25 2 0  27 2 0  27.75 2 0  28.5 2 0  29.25 2 0  30 2 0  30.75 2 0  31.5 2 0  32.25 2 0  33 2 0  33.75 2 0  34.5 2 0  35.25 2 0  36 2 0  36.75 2 0  37.5 2 0  38.25 2 0  39 2 0  39.75 2 0  40.5 2 0  41.25 2 0  42 2 0  42.75 2 0  43.5 2 0  44.25 2 0  45 2 0  45.75 2 0  46.5 2 0  47.25 2 0  48 2 0  48.75 2 0  49.5 2 0  50.25 2 0  51 2 0  51.75 2 0  52.5 2 0  53.25 2 0  54 2 0  54.75 2 0  55.5 2 0  56.25 2 0  57 2 0  57.75 2 0  58.5 2 0  59.25 2 0  60 2 0  0 2.5 0  0.75 2.5 0  1.5 2.5 0  2.25 2.5 0  3 2.5 0  3.75 2.5 0  4.5 2.5 0  5.25 2.5 0  6 2.5 0  6.75 2.5 0  7.5 2.5 0  8.25 2.5 0  9 2.5 0  9.75 2.5 0  10.5 2.5 0  11.25 2.5 0  12 2.5 0  12.75 2.5 0  13.5 2.5 0  14.25 2.5 0  15 2.5 0  15.75 2.5 0  16.5 2.5 0  17.25 2.5 0  18 2.5 0  18.75 2.5 0  19.5 2.5 0  20.25 2.5 0  21 2.5 0  21.75 2.5 0  22.5 2.5 0  23.25 2.5 0  24 2.5 0  24.75 2.5 0  25.5 2.5 0  26.25 2.5 0  27 2.5 0  27.75 2.5 0  28.5 2.5 0  29.25 2.5 0  30 2.5 0  30.75 2.5 0  31.5 2.5 0  32.25 2.5 0  33 2.5 0  33.75 2.5 0  34.5 2.5 0  35.25 2.5 0  36 2.5 0  36.75 2.5 0  37.5 2.5 0  38.25 2.5 0  39 2.5 0  39.75 2.5 0  40.5 2.5 0  41.25 2.5 0  42 2.5 0  42.75 2.5 0  43.5 2.5 0  44.25 2.5 0  45 2.5 0  45.75 2.5 0  46.5 2.5 0  47.25 2.5 0  48 2.5 0  48.75 2.5 0  49.5 2.5 0  50.25 2.5 0  51 2.5 0  51.75 2.5 0  52.5 2.5 0  53.25 2.5 0  54 2.5 0  54.75 2.5 0  55.5 2.5 0  56.25 2.5 0  57 2.5 0  57.75 2.5 0  58.5 2.5 0  59.25 2.5 0  60 2.5 0  0 3 0  0.75 3 0  1.5 3 0  2.25 3 0  3 3 0  3.75 3 0  4.5 3 0  5.25 3 0  6 3 0  6.75 3 0  7.5 3 0  8.25 3 0  9 3 0  9.75 3 0  10.5 3 0  11.25 3 0  12 3 0  12.75 3 0  13.5 3 0  14.25 3 0  15 3 0  15.75 3 0  16.5 3 0  17.25 3 0  18 3 0  18.75 3 0  19.5 3 0  20.25 3 0  21 3 0  21.75 3 0  22.5 3 0  23.25 3 0  24 3 0  24.75 3 0  25.5 3 0  26.25 3 0  27 3 0  27.75 3 0  28.5 3 0  29.25 3 0  30 3 0  30.75 3 0  31.5 3 0  32.25 3 0  33 3 0  33.75 3 0  34.5 3 0  35.25 3 0  36 3 0  36.75 3 0  37.5 3 0  38.25 3 0  39 3 0  39.75 3 0  40.5 3 0  41.25 3 0  42 3 0  42.75 3 0  43.5 3 0  44.25 3 0  45 3 0  45.75 3 0  46.5 3 0  47.25 3 0  48 3 0  48.75 3 0  49.5 3 0  50.25 3 0  51 3 0  51.75 3 0  52.5 3 0  53.25 3 0  54 3 0  54.75 3 0  55.5 3 0  56.25 3 0  57 3 0  57.75 3 0  58.5 3 0  59.25 3 0  60 3 0  0 3.5 0  0.75 3.5 0  1.5 3.5 0  2.25 3.5 0  3 3.5 0  3.75 3.5 0  4.5 3.5 0  5.25 3.5 0  6 3.5 0  6.75 3.5 0  7.5 3.5 0  8.25 3.5 0  9 3.5 0  9.75 3.5 0  10.5 3.5 0  11.25 3.5 0  12 3.5 0  12.75 3.5 0  13.5 3.5 0  14.25 3.5 0  15 3.5 0  15.75 3.5 0  16.5 3.5 0  17.25 3.5 0  18 3.5 0  18.75 3.5 0  19.5 3.5 0  20.25 3.5 0  21 3.5 0  21.75 3.5 0  22.5 3.5 0  23.25 3.5 0  24 3.5 0  24.75 3.5 0  25.5 3.5 0  26.25 3.5 0  27 3.5 0  27.75 3.5 0  28.5 3.5 0  29.25 3.5 0  30 3.5 0  30.75 3.5 0  31.5 3.5 0  32.25 3.5 0  33 3.5 0  33.75 3.5 0  34.5 3.5 0  35.25 3.5 0  36 3.5 0  36.75 3.5 0  37.5 3.5 0  38.25 3.5 0  39 3.5 0  39.75 3.5 0  40.5 3.5 0  41.25 3.5 0  42 3.5 0  42.75 3.5 0  43.5 3.5 0  44.25 3.5 0  45 3.5 0  45.75 3.5 0  46.5 3.5 0  47.25 3.5 0  48 3.5 0  48.75 3.5 0  49.5 3.5 0  50.25 3.5 0  51 3.5 0  51.75 3.5 0  52.5 3.5 0  53.25 3.5 0  54 3.5 0  54.75 3.5 0  55.5 3.5 0  56.25 3.5 0  57 3.5 0  57.75 3.5 0  58.5 3.5 0  59.25 3.5 0  60 3.5 0  0 4 0  0.75 4 0  1.5 4 0  2.25 4 0  3 4 0  3.75 4 0  4.5 4 0  5.25 4 0  6 4 0  6.75 4 0  7.5 4 0  8.25 4 0  9 4 0  9.75 4 0  10.5 4 0  11.25 4 0  12 4 0  12.75 4 0  13.5 4 0  14.25 4 0  15 4 0  15.75 4 0  16.5 4 0  17.25 4 0  18 4 0  18.75 4 0  19.5 4 0  20.25 4 0  21 4 0  21.75 4 0  22.5 4 0  23.25 4 0  24 4 0  24.75 4 0  25.5 4 0  26.25 4 0  27 4 0  27.75 4 0  28.5 4 0  29.25 4 0  30 4 0  30.75 4 0  31.5 4 0  32.25 4 0  33 4 0  33.75 4 0  34.5 4 0  35.25 4 0  36 4 0  36.75 4 0  37.5 4 0  38.25 4 0  39 4 0  39.75 4 0  40.5 4 0  41.25 4 0  42 4 0  42.75 4 0  43.5 4 0  44.25 4 0  45 4 0  45.75 4 0  46.5 4 0  47.25 4 0  48 4 0  48.75 4 0  49.5 4 0  50.25 4 0  51 4 0  51.75 4 0  52.5 4 0  53.25 4 0  54 4 0  54.75 4 0  55.5 4 0  56.25 4 0  57 4 0  57.75 4 0  58.5 4 0  59.25 4 0  60 4 0  0.375 0.25 0  1.125 0.25 0  1.875 0.25 0  2.625 0.25 0  3.375 0.25 0  4.125 0.25 0  4.875 0.25 0  5.625 0.25 0  6.375 0.25 0  7.125 0.25 0  7.875 0.25 0  8.625 0.25 0  9.375 0.25 0  10.125 0.25 0  10.875 0.25 0  11.625 0.25 0  12.375 0.25 0  13.125 0.25 0  13.875 0.25 0  14.625 0.25 0  15.375 0.25 0  16.125 0.25 0  16.875 0.25 0  17.625 0.25 0  18.375 0.25 0  19.125 0.25 0  19.875 0.25 0  20.625 0.25 0  21.375 0.25 0  22.125 0.25 0  22.875 0.25 0  23.625 0.25 0  24.375 0.25 0  25.125 0.25 0  25.875 0.25 0  26.625 0.25 0  27.375 0.25 0  28.125 0.25 0  28.875 0.25 0  29.625 0.25 0  30.375 0.25 0  31.125 0.25 0  31.875 0.25 0  32.625 0.25 0  33.375 0.25 0  34.125 0.25 0  34.875 0.25 0  35.625 0.25 0  36.375 0.25 0  37.125 0.25 0  37.875 0.25 0  38.625 0.25 0  39.375 0.25 0  40.125 0.25 0  40.875 0.25 0  41.625 0.25 0  42.375 0.25 0  43.125 0.25 0  43.875 0.25 0  44.625 0.25 0  45.375 0.25 0  46.125 0.25 0  46.875 0.25 0  47.625 0.25 0  48.375 0.25 0  49.125 0.25 0  49.875 0.25 0  50.625 0.25 0  51.375 0.25 0  52.125 0.25 0  52.875 0.25 0  53.625 0.25 0  54.375 0.25 0  55.125 0.25 0  55.875 0.25 0  56.625 0.25 0  57.375 0.25 0  58.125 0.25 0  58.875 0.25 0  59.625 0.25 0  0.375 0.75 0  1.125 0.75 0  1.875 0.75 0  2.625 0.75 0  3.375 0.75 0  4.125 0.75 0  4.875 0.75 0  5.625 0.75 0  6.375 0.75 0  7.125 0.75 0  7.875 0.75 0  8.625 0.75 0  9.375 0.75 0  10.125 0.75 0  10.875 0.75 0  11.625 0.75 0  12.375 0.75 0  13.125 0.75 0  13.875 0.75 0  14.625 0.75 0  15.375 0.75 0  16.125 0.75 0  16.875 0.75 0  17.625 0.75 0  18.375 0.75 0  19.125 0.75 0  19.875 0.75 0  20.625 0.75 0  21.375 0.75 0  22.125 0.75 0  22.875 0.75 0  23.625 0.75 0  24.375 0.75 0  25.125 0.75 0  25.875 0.75 0  26.625 0.75 0  27.375 0.75 0  28.125 0.75 0  28.875 0.75 0  29.625 0.75 0  30.375 0.75 0  31.125 0.75 0  31.875 0.75 0  32.625 0.75 0  33.375 0.75 0  34.125 0.75 0  34.875 0.75 0  35.625 0.75 0  36.375 0.75 0  37.125 0.75 0  37.875 0.75 0  38.625 0.75 0  39.375 0.75 0  40.125 0.75 0  40
[...]
<PointData  Scalars="f_8-1"> 
<DataArray  type="Float64"  Name="f_8-1"  format="ascii">7.0502493923646261e+00  6.9647301527277019e+00  6.8765392261200047e+00  6.7884278219824949e+00  6.7002847835157366e+00  6.6121351208841892e+00  6.5239833469368191e+00  6.4358313468745010e+00  6.3476796206418085e+00  6.2595282259453509e+00  6.1713770923286768e+00  6.0832261332099975e+00  5.9950752809652279e+00  5.9069244908202201e+00  5.8187737358760643e+00  5.7306230008181425e+00  5.6424722772597304e+00  5.5543215606905925e+00  5.4661708487110570e+00  5.3780201400463179e+00  5.2898694340125463e+00  5.2017187302425816e+00  5.1135680285335416e+00  5.0254173287750268e+00  4.9372666309035580e+00  4.8491159348845736e+00  4.7609652406972529e+00  4.6728145483305923e+00  4.5846638577773593e+00  4.4965131690339613e+00  4.4083624820978766e+00  4.3202117969679277e+00  4.2320611136431436e+00  4.1439104321231905e+00  4.0557597524075124e+00  3.9676090744963819e+00  3.8794583983889344e+00  3.7913077240863733e+00  3.7031570515864587e+00  3.6150063808930732e+00  3.5268557119992856e+00  3.4387050449170355e+00  3.3505543796257631e+00  3.2624037161603776e+00  3.1742530544617011e+00  3.0861023946283828e+00  2.9979517364969128e+00  2.9098010803343213e+00  2.8216504257072321e+00  2.7334997733085413e+00  2.6453491220389194e+00  2.5571984736167743e+00  2.4690478253782864e+00  2.3808971813915880e+00  2.2927465354973942e+00  2.2045958968794741e+00  2.1164452519624048e+00  2.0282946204669909e+00  1.9401439739924560e+00  1.8519933524028200e+00  1.7638427002862138e+00  1.6756920912836046e+00  1.5875414310835110e+00  1.4993908363720667e+00  1.4112402015708354e+00  1.3230896454705243e+00  1.2349392058909394e+00  1.1467885084112404e+00  1.0586377012610886e+00  9.7048313178817025e-01  8.8232506954343470e-01  7.9415215212884172e-01  7.0597677315114604e-01  6.1777786936090451e-01  5.2962008477216027e-01  4.4142639726586536e-01  3.5341288256701719e-01  2.6515511384110652e-01  1.7764974038568296e-01  8.7537423944651832e-02  2.2155049852904162e-03  7.0535661290991731e+00  6.9644663268427065e+00  6.8764957562948643e+00  6.7883648386358200e+00  6.7002217706230267e+00  6.6120717238466282e+00  6.5239199755406228e+00  6.4357680828811059e+00  6.3476164668032373e+00  6.2594651565145512e+00  6.1713140806708697e+00  6.0831631575568803e+00  5.9950123267261564e+00  5.9068615486190961e+00  5.8187108003879526e+00  5.7305600689426992e+00  5.6424093473625359e+00  5.5542586318422913e+00  5.4661079204423588e+00  5.3779572120853363e+00  5.2898065062260118e+00  5.2016558025495820e+00  5.1135051008952965e+00  5.0253544011666387e+00  4.9372037033133438e+00  4.8490530073046001e+00  4.7609023131238990e+00  4.6727516207612565e+00  4.5846009302109074e+00  4.4964502414695184e+00  4.4082995545351107e+00  4.3201488694064745e+00  4.2319981860830378e+00  4.1438475045640581e+00  4.0556968248498366e+00  3.9675461469392155e+00  3.8793954708339236e+00  3.7912447965306320e+00  3.7030941240349882e+00  3.6149434533373039e+00  3.5267927844537978e+00  3.4386421173573356e+00  3.3504914520926410e+00  3.2623407885866742e+00  3.1741901269568316e+00  3.0860394670162727e+00  2.9978888090575815e+00  2.9097381526281305e+00  2.8215874984157083e+00  2.7334368453896358e+00  2.6452861950644171e+00  2.5571355452501701e+00  2.4689848990427845e+00  2.3808342521500010e+00  2.2926836103561361e+00  2.2045329660742219e+00  2.1163823288268615e+00  2.0282316872347570e+00  1.9400810535981159e+00  1.8519304164785784e+00  1.7637797816508816e+00  1.6756291559614600e+00  1.5874785059141017e+00  1.4993279175206200e+00  1.4111772375471294e+00  1.3230267984958719e+00  1.2348760934268526e+00  1.1467258856354208e+00  1.0585739908786231e+00  9.7042089614136173e-01  8.8225905928951598e-01  7.9409093092371275e-01  7.0590514180676867e-01  6.1772227826115511e-01  5.2953585575441009e-01  4.4140020317299294e-01  3.5327472823492900e-01  2.6522516243692507e-01  1.7714121944960745e-01  8.8348581303596810e-02  -5.6619696783650152e-04  7.0533986437496452e+00  6.9647584284338757e+00  6.8765061365764515e+00  6.7883412276010535e+00  6.7001838308140940e+00  6.6120293202727556e+00  6.5238761198666113e+00  6.4357237518436099e+00  6.3475719635433228e+00  6.2594205767898901e+00  6.1712694581241179e+00  6.0831185079818013e+00  5.9949676596894843e+00  5.9068168706245956e+00  5.8186661157524480e+00  5.7305153804378897e+00  5.6423646566647179e+00  5.5542139399316346e+00  5.4660632278697365e+00  5.3779125191552239e+00  5.2897618131038557e+00  5.2016111093242845e+00  5.1134604076150492e+00  5.0253097078568336e+00  4.9371590099880773e+00  4.8490083139711189e+00  4.7608576197864565e+00  4.6727069274219133e+00  4.5845562368709665e+00  4.4964055481296663e+00  4.4082548611956174e+00  4.3201041760678081e+00  4.2319534927447924e+00  4.1438028112272827e+00  4.0556521315128506e+00  3.9675014536050868e+00  3.8793507774973577e+00  3.7912001032008416e+00  3.7030494306962747e+00  3.6148987600161666e+00  3.5267480911060232e+00  3.4385974240559807e+00  3.3504467587184692e+00  3.2622960953319406e+00  3.1741454335158124e+00  3.0859947738686553e+00  2.9978441154621680e+00  2.9096934597129214e+00  2.8215428044933875e+00  2.7333921529407581e+00  2.6452415005137699e+00  2.5570908536454726e+00  2.4689402034273695e+00  2.3807895618553578e+00  2.2926389132819516e+00  2.2044882772376502e+00  2.1163376307301496e+00  2.0281869982011398e+00  1.9400363582453712e+00  1.8518857195065321e+00  1.7637351026470258e+00  1.6755844270666544e+00  1.5874338802811214e+00  1.4992830922474447e+00  1.4111327379822600e+00  1.3229816660086633e+00  1.2348317286080086e+00  1.1466795772839404e+00  1.0585293074507687e+00  9.7037123354331201e-01  8.8221461808310975e-01  7.9403739861888478e-01  7.0586737877085848e-01  6.1766638768996707e-01  5.2951699654570072e-01  4.4132680806755870e-01  3.5325454208850876e-01  2.6502345763230190e-01  1.7699014391727308e-01  8.8099438053449788e-02  2.9302064624977912e-04  7.0534057977025757e+00  6.9649181759206060e+00  6.8766028937347210e+00  6.7883932347342348e+00  6.7002208189100587e+00  6.6120611362029251e+00  6.5239061614360017e+00  6.4357531438392845e+00  6.3476010813431873e+00  6.2594495549124831e+00  6.1712983528098242e+00  6.0831473502324860e+00  5.9949964689478161e+00  5.9068456599076749e+00  5.8186948932157252e+00  5.7305441511746480e+00  5.6423934236147995e+00  5.5542427048144294e+00  5.4660919916169863e+00  5.3779412822950539e+00  5.2897905759111161e+00  5.2016398719545363e+00  5.1134891701473908e+00  5.0253384703368251e+00  4.9371877724386710e+00  4.8490370764058648e+00  4.7608863822121403e+00  4.6727356898425922e+00  4.5845849992888015e+00  4.4964343105457765e+00  4.4082836236109637e+00  4.3201329384821472e+00  4.2319822551594939e+00  4.1438315736404689e+00  4.0556808939280877e+00  3.9675302160163377e+00  3.8793795399151603e+00  3.7912288656071755e+00  3.7030781931218173e+00  3.6149275224093271e+00  3.5267768535526516e+00  3.4386261864148633e+00  3.3504755212192823e+00  3.2623248576059720e+00  3.1741741961473986e+00  3.0860235359452335e+00  2.9978728783884927e+00  2.9097222213617591e+00  2.8215715680336704e+00  2.7334209137392449e+00  2.6452702652157178e+00  2.5571196129303049e+00  2.4689689700540454e+00  2.3808183188697121e+00  2.2926676824091579e+00  2.2045170319834524e+00  2.1163664010821495e+00  2.0282157543520052e+00  1.9400651215850975e+00  1.8519144924021942e+00  1.7637638307909318e+00  1.6756132618717114e+00  1.5874624950649914e+00  1.4993120931538626e+00  1.4111610151067748e+00  1.3230109689431739e+00  1.2348588518174934e+00  1.1467089946636226e+00  1.0585526957655256e+00  9.7040049780128868e-01  8.8223072512747491e-01  7.9407214155164063e-01  7.0587789196078310e-01  6.1772674707059427e-01  5.2951474402218712e-01  4.4142139078254705e-01  3.5317279564733056e-01  2.6514336544354239e-01  1.7666592910529971e-01  8.8509235012635717e-02  -1.8470627811762385e-04  7.0534099746432437e+00  6.9649629308494792e+00  6.8766369614334417e+00  6.7884129705350933e+00  6.7002346108352162e+00  6.6120728833231572e+00  6.5239172061568906e+00  6.4357639351132114e+00  6.3476117693528398e+00  6.2594601924563085e+00  6.1713089613450425e+00  6.0831579407676495e+00  5.9950070482161122e+00  5.9068562323177201e+00  5.8187054615807829e+00  5.7305547172277134e+00  5.6424039883745483e+00  5.5542532688657076e+00  5.4661025552841123e+00  5.3779518457566393e+00  5.2898011392628863e+00  5.2016504352481450e+00  5.1134997334101131e+00  5.0253490335832742e+00  4.9371983356765057e+00  4.8490476396392346e+00  4.7608969454431813e+00  4.6727462530724866e+00  4.5845955625180768e+00  4.4964448737749345e+00  4.4082941868397638e+00  4.3201435017115015e+00  4.2319928183879769e+00  4.1438421368706608e+00  4.0556914571555653e+00  3.9675407792488517e+00  3.8793901031393219e+00  3.7912394288459521e+00  3.7030887563362214e+00  3.6149380856649116e+00  3.5267874167404165e+00  3.4386367497140626e+00  3.3504860843386655e+00  3.2623354210130593e+00  3.1741847591018355e+00  3.0860340996037392e+00  2.9978834409710697e+00  2.9097327855662511e+00  2.8215821298404045e+00  2.7334314790339818e+00  2.6452808255498375e+00  2.5571301801786008e+00  2.4689795279377145e+00  2.3808288890760498e+00  2.2926782370910992e+00  2.2045276051996789e+00  2.1163769541419009e+00  2.0282263259006137e+00  1.9400756832923984e+00  1.8519250425156022e+00  1.7637744359633218e+00  1.6756237314651283e+00  1.5874732368419495e+00  1.4993223280432937e+00  1.4111721058124664e+00  1.3230205552307017e+00  1.2348707041749027e+00  1.1467167526177875e+00  1.0585661529258603e+00  9.7040371292516114e-01  8.8224868905643805e-01  7.9406676190641745e-01  7.0591002487612819e-01  6.1770571238914063e-01  5.2957815843615841e-01  4.4135795948283663e-01  3.5328487705691147e-01  2.6498390347899536e-01  1.7683606772087757e-01  8.8313240645008700e-02  1.0204903434914438e-04  7.0534057892714461e+00  6.9649180701996016e+00  6.8766027896164541e+00  6.7883931629724659e+00  6.7002207726066292e+00  6.6120611057589205e+00  6.5239061401932261e+00  6.4357531278328342e+00  6.3476010684057611e+00  6.2594495438658999e+00  6.1712983429746240e+00  6.0831473411896662e+00  5.9949964604281574e+00  5.9068456517350070e+00  5.8186948852740139e+00  5.7305441433873261e+00  5.6423934159313021e+00  5.5542426972011762e+00  5.4660919840515145e+00  5.3779412747622777e+00  5.2897905684008037e+00  5.2016398644596951e+00  5.1134891626632122e+00  5.0253384628600433e+00  4.9371877649669882e+00  4.8490370689377560e+00  4.7608863747465699e+00  4.6727356823788035e+00  4.5845849918263406e+00  4.4964343030842961e+00  4.4082836161502659e+00  4.3201329310221377e+00  4.2319822477000342e+00  4.1438315661815555e+00  4.0556808864696521e+00  3.9675302085583861e+00  3.8793795324576692e+00  3.7912288581501721e+00  3.7030781856652566e+00  3.6149275149532571e+00  3.5267768460970412e+00  3.4386261789597676e+00  3.3504755137647373e+00  3.2623248501520812e+00  3.1741741886943378e+00  3.0860235284932349e+00  2.9978728709379845e+00  2.9097222139133532e+00  2.8215715605882834e+00  2.7334209062983095e+00  2.6452702577812000e+00  2.5571196055054450e+00  2.4689689626429541e+00  2.3808183114795316e+00  2.2926676750483166e+00  2.2045170246672701e+00  2.1163663938277129e+00  2.0282157471913109e+00  1.9400651145518077e+00  1.8519144855612453e+00  1.7637638242049867e+00  1.6756132556677512e+00  1.5874624893471529e+00  1.4993120881501194e+00  1.4111610109401884e+00  1.3230109659235363e+00  1.2348588498338036e+00  1.1467089937099282e+00  1.0585526944472647e+00  9.7040049478775869e-01  8.8223071672213593e-01  7.9407212722848364e-01  7.0587786957111565e-01  6.1772672343982038e-01  5.2951471740075085e-01  4.4142137745048932e-01  3.5317278900934163e-01  2.6514339438312884e-01  1.7666595035514771e-01  8.8509261413617132e-02  -1.8472058851410516e-04  7.0533986164515294e+00  6.9647581538047545e+00  6.8765059130600124e+00  6.7883410834865288e+00  6.7001837375604429e+00  6.6120292573048989e+00  6.5238760740477053e+00  6.4357237157946319e+00  6.3475719333154030e+00  6.2594205501991560e+00  6.1712694338776970e+00  6.0831184852716733e+00  5.9949676379947965e+00  5.9068168496043549e+00  5.8186660951820794e+00  5.7305153601690479e+00  5.6423646365991100e+00  5.5542139200037211e+00  5.4660632080356955e+00  5.3779124993854559e+00  5.2897617933783136e+00  5.2016110896292282e+00  5.1134603879410543e+00  5.0253096881974013e+00  4.9371589903387303e+00  4.8490082943288417e+00  4.7608576001491629e+00  4.6727069077881591e+00  4.5845562172398298e+00  4.4964055285005236e+00  4.4082548415680662e+00  4.3201041564415723e+00  4.2319534731197201e+00  4.1438027916032825e+00  4.0556521118898532e+00  3.9675014339830601e+00  3.8793507578762862e+00  3.7912000835807240e+00  3.7030494110770884e+00  3.6148987403979178e+00  3.5267480714887114e+00  3.4385974044397014e+00  3.3504467391032828e+00  3.2622960757180532e+00  3.1741454139035512e+00  3.0859947542585178e+00  2.9978440958549615e+00  2.9096934401098427e+00  2.8215427848963266e+00  2.7333921333524094e+00  2.6452414809383393e+00  2.5570908340887764e+00  2.4689401838987264e+00  2.3807895423669536e+00  2.2926388938539137e+00  2.2044882578950724e+00  2.1163376115156689e+00  2.0281869791653242e+00  1.9400363394761073e+00  1.8518857011022376e+00  1.7637350847829856e+00  1.6755844099227069e+00  1.5874338641886816e+00  1.4992830774937886e+00  1.4111327251149484e+00  1.3229816552917146e+00  1.2348317205429760e+00  1.1466795710591724e+00  1.0585293017688346e+00  9.7037122326412495e-01  8.8221459829274940e-01  7.9403736221685395e-01  7.0586732977832733e-01  6.1766632951569744e-01  5.2951694298160401e-01  4.4132676027427087e-01  3.5325453836944254e-01  2.6502348773473011e-01  1.7699023531376401e-01  8.8099437005904543e-02  2.9305486608719507e-04  7.0535660997049918e+00  6.9644656870253412e+00  6.8764954207250213e+00  6.7883646137953484e+00  6.7002216143331781e+00  6.6120716070079357e+00  6.5239198809115564e+00  6.4357680007644351e+00  6.3476163920365645e+00  6.2594650863008470e+00  6.1713140133886766e+00  6.0831630922013051e+00  5.9950122626475890e+00  5.9068614853896344e+00  5.8187107377243779e+00  5.7305600066577123e+00  5.6424092853320484e+00  5.5542585699839142e+00  5.4661078587010472e+00  5.3779571504240957e+00  5.2898064446198187e+00  5.2016557409812991e+00  5.1135050393531909e+00  5.0253543396426261e+00  4.9372036418018324e+00  4.8490529458018248e+00  4.7609022516272912e+00  4.6727515592690025e+00  4.5846008687218776e+00  4.4964501799829550e+00  4.4082994930505164e+00  4.3201488079235268e+00  4.2319981246015486e+00  4.1438474430839234e+00  4.0556967633710093e+00  3.9675460854616489e+00  3.8793954093576364e+00  3.7912447350556207e+00  3.7030940625612265e+00  3.6149433918648062e+00  3.5267927229826062e+00  3.4386420558875286e+00  3.3504913906243283e+00  3.2623407271201126e+00  3.1741900654924291e+00  3.0860394055546601e+00  2.9978887475997582e+00  2.9097380911756203e+00  2.8215874369708458e+00  2.7334367839558946e+00  2.6452861336469309e+00  2.5571354838566260e+00  2.4689848376843120e+00  2.3808341908431054e+00  2.2926835491243751e+00  2.2045329049525049e+00  2.1163822678641790e+00  2.0282316265031270e+00  1.9400809931968916e+00  1.8519303565520187e+00  1.7637797223928089e+00  1.6756290976478263e+00  1.5874784488987499e+00  1.4993278622849489e+00  1.4111771846378642e+00  1.3230267485343421e+00  1.2348760467492170e+00  1.1467258419460427e+00  1.0585739478968650e+00  9.7042084897787451e-01  8.8225899945584463e-01  7.9409085155454151e-01  7.0590504148150912e-01  6.1772216727128171e-01  5.2953574272396509e-01  4.4140010602388796e-01  3.5327467798348872e-01  2.6522518602042644e-01  1.7714132883606856e-01  8.8348576529163961e-02  -5.6628109170356691e-04  7.0502464466057377e+00  6.9647297024029324e+00  6.8765388432315637e+00  6.7884275610972233e+00  6.7002845901300585e+00  6.6121349674680596e+00  6.5239832161517164e+00  6.4358312287743020e+00  6.3476795098628678e+00  6.2595281196128152e+00  6.1713769888187242e+00  6.0832260315405309e+00  5.9950751805107245e+00  5.9069243911716542e+00  5.8187736367634733e+00  5.7306229020631676e+00  5.6424721787443612e+00  5.5543214623366888e+00  5.4661707504665618e+00  5.3780200418764190e+00  5.2898693358937328e+00  5.2017186321588715e+00  5.1135679304739794e+00  5.0254172307321090e+00  4.9372665328720817e+00  4.8491158368610785e+00  4.7609651426793507e+00  4.6728144503166131e+00  4.5846637597662934e+00  4.4965130710251584e+00  4.4083623840908768e+00  4.3202116989624741e+00  4.2320610156390899e+00  4.1439103341204753e+00  4.0557596544061383e+00  3.9676089764963320e+00  3.8794583003902692e+00  3.7913076260891194e+00  3.7031569535906113e+00  3.6150062828986673e+00  3.5268556140063985e+00  3.4387049469257729e+00  3.3505542816362355e+00  3.2624036181728724e+00  3.1742529564766655e+00  3.0861022966464637e+00  2.9979516385191611e+00  2.9098009823623245e+00  2.8216503277434626e+00  2.7334996753565806e+00  2.6453490241042239e+00  2.5571983757072716e+00  2.4690477275058869e+00  2.3808970835732004e+00  2.2927464377585172e+00  2.2045957992555612e+00  2.1164451545070229e+00  2.0282945232528062e+00  1.9401438771291653e+00  1.8519932560350230e+00  1.7638426046305036e+00  1.6756919966140313e+00  1.5875413378034775e+00  1.4993907449504318e+00  1.4112401126600878e+00  1.3230895596394536e+00  1.2349391236953760e+00  1.1467884293942829e+00  1.0586376236399897e+00  9.7048305034068127e-01  8.8232497680324828e-01  7.9415203960635117e-01  7.0597663972095281e-01  6.1777771980443441e-01  5.2961993443103783e-01  4.4142625193708257e-01  3.5341280479027115e-01  2.6515506070631650e-01  1.7764992273034294e-01  8.7537162680510705e-02  2.2159723312233171e-03  7.0081912820358649e+00  6.9203515228342400e+00  6.8322425324935256e+00  6.7441111536286913e+00  6.6559649536022691e+00  6.5678142530009955e+00  6.4796624547496267e+00  6.3915106797845942e+00  6.3033591922953258e+00  6.2152079804382359e+00  6.1270569687376444e+00  6.0389060844155189e+00  5.9507552759217592e+00  5.8626045105466522e+00  5.7744537695549685e+00  5.6863030424121179e+00  5.5981523235385051e+00  5.5100016098988140e+00  5.4218508999300266e+00  5.3337001927706220e+00  5.2455494879783595e+00  5.1573987852995558e+00  5.0692480846031787e+00  4.9810973858104797e+00  4.8929466888805466e+00  4.8047959937878808e+00  4.7166453005193274e+00  4.6284946090661094e+00  4.5403439194238908e+00  4.4521932315897352e+00  4.3640425455620955e+00  4.2758918613399235e+00  4.1877411789226846e+00  4.0995904983099196e+00  4.0114398195016170e+00  3.9232891424973082e+00  3.8351384672974231e+00  3.7469877939010465e+00  3.6588371223097913e+00  3.5706864525206563e+00  3.4825357845386566e+00  3.3943851183553218e+00  3.3062344539847377e+00  3.2180837914033802e+00  3.1299331306494085e+00  3.0417824716611785e+00  2.9536318145360427e+00  2.8654811591207858e+00  2.7773305056507920e+00  2.6891798537668423e+00  2.6010292040039027e+00  2.5128785555714974e+00  2.4247279096071841e+00  2.3365772644887883e+00  2.2484266224604927e+00  2.1602759804486587e+00  2.0721253424923383e+00  1.9839747033357433e+00  1.8958240693006556e+00  1.8076734328114383e+00  1.7195228013182333e+00  1.6313721685597933e+00  1.5432215385940895e+00  1.4550709278002301e+00  1.3669203301838628e+00  1.2787698326559933e+00  1.1906192645554257e+00  1.1024684612968076e+00  1.0143157317439708e+00  9.2615909924979223e-01  8.3799351084909246e-01  7.4981839499709768e-01  6.6163217859322943e-01  5.7345063157933196e-01  4.8528360000002063e-01  3.9716112681746063e-01  3.0907723584732644e-01  2.2099196003506802e-01  1.3273143840086263e-01  4.2905606510931255e-02  7.0090546291582925e+00  6.9205834330241869e+00  6.8324646872955279e+00  6.7443181457218895e+00  6.6561676022909779e+00  6.5680154706484037e+00  6.4798632822982336e+00  6.3917114318658097e+00  6.3035599519895333e+00  6.2154087606227915e+00  6.1272577645249280e+00  6.0391068894447111e+00  5.9509560858956290e+00  5.8628053230100461e+00  5.7746545832276723e+00  5.6865038566545003e+00  5.5983531380556286e+00  5.5102024245487859e+00  5.4220517146502010e+00  5.3339010075268272e+00  5.24575030275