<?xml version="1.0"?>
<VTKFile type="UnstructuredGrid"  version="0.1"  >
<UnstructuredGrid>
<Piece  NumberOfPoints="1369" NumberOfCells="2560">
<Points>
<DataArray  type="Float64"  NumberOfComponents="3"  format="ascii">0 0 0  0.75 0 0  1.5 0 0  2.25 0 0  3 0 0  3.75 0 0  4.5 0 0  5.25 0 0  6 0 0  6.75 0 0  7.5 0 0  8.25 0 0  9 0 0  9.75 0 0  10.5 0 0  11.25 0 0  12 0 0  12.75 0 0  13.5 0 0  14.25 0 0  15 0 0  15.75 0 0  16.5 0 0  17.25 0 0  18 0 0  18.75 0 0  19.5 0 0  20.25 0 0  21 0 0  21.75 0 0  22.5 0 0  23.25 0 0  24 0 0  24.75 0 0  25.5 0 0  26.25 0 0  27 0 0  27.75 0 0  28.5 0 0  29.25 0 0  30 0 0  30.75 0 0  31.5 0 0  32.25 0 0  33 0 0  33.75 0 0  34.5 0 0  35.25 0 0  36 0 0  36.75 0 0  37.5 0 0  38.25 0 0  39 0 0  39.75 0 0  40.5 0 0  41.25 0 0  42 0 0  42.75 0 0  43.5 0 0  44.25 0 0  45 0 0  45.75 0 0  46.5 0 0  47.25 0 0  48 0 0  48.75 0 0  49.5 0 0  50.25 0 0  51 0 0  51.75 0 0  52.5 0 0  53.25 0 0  54 0 0  54.75 0 0  55.5 0 0  56.25 0 0  57 0 0  57.75 0 0  58.5 0 0  59.25 0 0  60 0 0  0 0.5 0  0.75 0.5 0  1.5 0.5 0  2.25 0.5 0  3 0.5 0  3.75 0.5 0  4.5 0.5 0  5.25 0.5 0  6 0.5 0  6.75 0.5 0  7.5 0.5 0  8.25 0.5 0  9 0.5 0  9.75 0.5 0  10.5 0.5 0  11.25 0.5 0  12 0.5 0  12.75 0.5 0  13.5 0.5 0  14.25 0.5 0  15 0.5 0  15.75 0.5 0  16.5 0.5 0  17.25 0.5 0  18 0.5 0  18.75 0.5 0  19.5 0.5 0  20.25 0.5 0  21 0.5 0  21.75 0.5 0  22.5 0.5 0  23.25 0.5 0  24 0.5 0  24.75 0.5 0  25.5 0.5 0  26.25 0.5 0  27 0.5 0  27.75 0.5 0  28.5 0.5 0  29.25 0.5 0  30 0.5 0  30.75 0.5 0  31.5 0.5 0  32.25 0.5 0  33 0.5 0  33.75 0.5 0  34.5 0.5 0  35.25 0.5 0  36 0.5 0  36.75 0.5 0  37.5 0.5 0  38.25 0.5 0  39 0.5 0  39.75 0.5 0  40.5 0.5 0  41.25 0.5 0  42 0.5 0  42.75 0.5 0  43.5 0.5 0  44.25 0.5 0  45 0.5 0  45.75 0.5 0  46.5 0.5 0  47.25 0.5 0  48 0.5 0  48.75 0.5 0  49.5 0.5 0  50.25 0.5 0  51 0.5 0  51.75 0.5 0  52.5 0.5 0  53.25 0.5 0  54 0.5 0  54.75 0.5 0  55.5 0.5 0  56.25 0.5 0  57 0.5 0  57.75 0.5 0  58.5 0.5 0  59.25 0.5 0  60 0.5 0  0 1 0  0.75 1 0  1.5 1 0  2.25 1 0  3 1 0  3.75 1 0  4.5 1 0  5.25 1 0  6 1 0  6.75 1 0  7.5 1 0  8.25 1 0  9 1 0  9.75 1 0  10.5 1 0  11.25 1 0  12 1 0  12.75 1 0  13.5 1 0  14.25 1 0  15 1 0  15.75 1 0  16.5 1 0  17.25 1 0  18 1 0  18.75 1 0  19.5 1 0  20.25 1 0  21 1 0  21.75 1 0  22.5 1 0  23.25 1 0  24 1 0  24.75 1 0  25.5 1 0  26.25 1 0  27 1 0  27.75 1 0  28.5 1 0  29.25 1 0  30 1 0  30.75 1 0  31.5 1 0  32.25 1 0  33 1 0  33.75 1 0  34.5 1 0  35.25 1 0  36 1 0  36.75 1 0  37.5 1 0  38.25 1 0  39 1 0  39.75 1 0  40.5 1 0  41.25 1 0  42 1 0  42.75 1 0  43.5 1 0  44.25 1 0  45 1 0  45.75 1 0  46.5 1 0  47.25 1 0  48 1 0  48.75 1 0  49.5 1 0  50.25 1 0  51 1 0  51.75 1 0  52.5 1 0  53.25 1 0  54 1 0  54.75 1 0  55.5 1 0  56.25 1 0  57 1 0  57.75 1 0  58.5 1 0  59.25 1 0  60 1 0  0 1.5 0  0.75 1.5 0  1.5 1.5 0  2.25 1.5 0  3 1.5 0  3.75 1.5 0  4.5 1.5 0  5.25 1.5 0  6 1.5 0  6.75 1.5 0  7.5 1.5 0  8.25 1.5 0  9 1.5 0  9.75 1.5 0  10.5 1.5 0  11.25 1.5 0  12 1.5 0  12.75 1.5 0  13.5 1.5 0  14.25 1.5 0  15 1.5 0  15.75 1.5 0  16.5 1.5 0  17.25 1.5 0  18 1.5 0  18.75 1.5 0  19.5 1.5 0  20.25 1.5 0  21 1.5 0  21.75 1.5 0  22.5 1.5 0  23.25 1.5 0  24 1.5 0  24.75 1.5 0  25.5 1.5 0  26.25 1.5 0  27 1.5 0  27.75 1.5 0  28.5 1.5 0  29.25 1.5 0  30 1.5 0  30.75 1.5 0  31.5 1.5 0  32.25 1.5 0  33 1.5 0  33.75 1.5 0  34.5 1.5 0  35.25 1.5 0  36 1.5 0  36.75 1.5 0  37.5 1.5 0  38.25 1.5 0  39 1.5 0  39.75 1.5 0  40.5 1.5 0  41.25 1.5 0  42 1.5 0  42.75 1.5 0  43.5 1.5 0  44.25 1.5 0  45 1.5 0  45.75 1.5 0  46.5 1.5 0  47.25 1.5 0  48 1.5 0  48.75 1.5 0  49.5 1.5 0  50.25 1.5 0  51 1.5 0  51.75 1.5 0  52.5 1.5 0  53.25 1.5 0  54 1.5 0  54.75 1.5 0  55.5 1.5 0  56.25 1.5 0  57 1.5 0  57.75 1.5 0  58.5 1.5 0  59.25 1.5 0  60 1.5 0  0 2 0  0.75 2 0  1.5 2 0  2.25 2 0  3 2 0  3.75 2 0  4.5 2 0  5.25 2 0  6 2 0  6.75 2 0  7.5 2 0  8.25 2 0  9 2 0  9.75 2 0  10.5 2 0  11.25 2 0  12 2 0  12.75 2 0  13.5 2 0  14.25 2 0  15 2 0  15.75 2 0  16.5 2 0  17.25 2 0  18 2 0  18.75 2 0  19.5 2 0  20.25 2 0  21 2 0  21.75 2 0  22.5 2 0  23.25 2 0  24 2 0  24.75 2 0  25.5 2 0  26.25 2 0  27 2 0  27.75 2 0  28.5 2 0  29.25 2 0  30 2 0  30.75 2 0  31.5 2 0  32.25 2 0  33 2 0  33.75 2 0  34.5 2 0  35.25 2 0  36 2 0  36.75 2 0  37.5 2 0  38.25 2 0  39 2 0  39.75 2 0  40.5 2 0  41.25 2 0  42 2 0  42.75 2 0  43.5 2 0  44.25 2 0  45 2 0  45.75 2 0  46.5 2 0  47.25 2 0  48 2 0  48.75 2 0  49.5 2 0  50.25 2 0  51 2 0  51.75 2 0  52.5 2 0  53.25 2 0  54 2 0  54.75 2 0  55.5 2 0  56.25 2 0  57 2 0  57.75 2 0  58.5 2 0  59.25 2 0  60 2 0  0 2.5 0  0.75 2.5 0  1.5 2.5 0  2.25 2.5 0  3 2.5 0  3.75 2.5 0  4.5 2.5 0  5.25 2.5 0  6 2.5 0  6.75 2.5 0  7.5 2.5 0  8.25 2.5 0  9 2.5 0  9.75 2.5 0  10.5 2.5 0  11.25 2.5 0  12 2.5 0  12.75 2.5 0  13.5 2.5 0  14.25 2.5 0  15 2.5 0  15.75 2.5 0  16.5 2.5 0  17.25 2.5 0  18 2.5 0  18.75 2.5 0  19.5 2.5 0  20.25 2.5 0  21 2.5 0  21.75 2.5 0  22.5 2.5 0  23.25 2.5 0  24 2.5 0  24.75 2.5 0  25.5 2.5 0  26.25 2.5 0  27 2.5 0  27.75 2.5 0  28.5 2.5 0  29.25 2.5 0  30 2.5 0  30.75 2.5 0  31.5 2.5 0  32.25 2.5 0  33 2.5 0  33.75 2.5 0  34.5 2.5 0  35.25 2.5 0  36 2.5 0  36.75 2.5 0  37.5 2.5 0  38.25 2.5 0  39 2.5 0  39.75 2.5 0  40.5 2.5 0  41.25 2.5 0  42 2.5 0  42.75 2.5 0  43.5 2.5 0  44.25 2.5 0  45 2.5 0  45.75 2.5 0  46.5 2.5 0  47.25 2.5 0  48 2.5 0  48.75 2.5 0  49.5 2.5 0  50.25 2.5 0  51 2.5 0  51.75 2.5 0  52.5 2.5 0  53.25 2.5 0  54 2.5 0  54.75 2.5 0  55.5 2.5 0  56.25 2.5 0  57 2.5 0  57.75 2.5 0  58.5 2.5 0  59.25 2.5 0  60 2.5 0  0 3 0  0.75 3 0  1.5 3 0  2.25 3 0  3 3 0  3.75 3 0  4.5 3 0  5.25 3 0  6 3 0  6.75 3 0  7.5 3 0  8.25 3 0  9 3 0  9.75 3 0  10.5 3 0  11.25 3 0  12 3 0  12.75 3 0  13.5 3 0  14.25 3 0  15 3 0  15.75 3 0  16.5 3 0  17.25 3 0  18 3 0  18.75 3 0  19.5 3 0  20.25 3 0  21 3 0  21.75 3 0  22.5 3 0  23.25 3 0  24 3 0  24.75 3 0  25.5 3 0  26.25 3 0  27 3 0  27.75 3 0  28.5 3 0  29.25 3 0  30 3 0  30.75 3 0  31.5 3 0  32.25 3 0  33 3 0  33.75 3 0  34.5 3 0  35.25 3 0  36 3 0  36.75 3 0  37.5 3 0  38.25 3 0  39 3 0  39.75 3 0  40.5 3 0  41.25 3 0  42 3 0  42.75 3 0  43.5 3 0  44.25 3 0  45 3 0  45.75 3 0  46.5 3 0  47.25 3 0  48 3 0  48.75 3 0  49.5 3 0  50.25 3 0  51 3 0  51.75 3 0  52.5 3 0  53.25 3 0  54 3 0  54.75 3 0  55.5 3 0  56.25 3 0  57 3 0  57.75 3 0  58.5 3 0  59.25 3 0  60 3 0  0 3.5 0  0.75 3.5 0  1.5 3.5 0  2.25 3.5 0  3 3.5 0  3.75 3.5 0  4.5 3.5 0  5.25 3.5 0  6 3.5 0  6.75 3.5 0  7.5 3.5 0  8.25 3.5 0  9 3.5 0  9.75 3.5 0  10.5 3.5 0  11.25 3.5 0  12 3.5 0  12.75 3.5 0  13.5 3.5 0  14.25 3.5 0  15 3.5 0  15.75 3.5 0  16.5 3.5 0  17.25 3.5 0  18 3.5 0  18.75 3.5 0  19.5 3.5 0  20.25 3.5 0  21 3.5 0  21.75 3.5 0  22.5 3.5 0  23.25 3.5 0  24 3.5 0  24.75 3.5 0  25.5 3.5 0  26.25 3.5 0  27 3.5 0  27.75 3.5 0  28.5 3.5 0  29.25 3.5 0  30 3.5 0  30.75 3.5 0  31.5 3.5 0  32.25 3.5 0  33 3.5 0  33.75 3.5 0  34.5 3.5 0  35.25 3.5 0  36 3.5 0  36.75 3.5 0  37.5 3.5 0  38.25 3.5 0  39 3.5 0  39.75 3.5 0  40.5 3.5 0  41.25 3.5 0  42 3.5 0  42.75 3.5 0  43.5 3.5 0  44.25 3.5 0  45 3.5 0  45.75 3.5 0  46.5 3.5 0  47.25 3.5 0  48 3.5 0  48.75 3.5 0  49.5 3.5 0  50.25 3.5 0  51 3.5 0  51.75 3.5 0  52.5 3.5 0  53.25 3.5 0  54 3.5 0  54.75 3.5 0  55.5 3.5 0  56.25 3.5 0  57 3.5 0  57.75 3.5 0  58.5 3.5 0  59.25 3.5 0  60 3.5 0  0 4 0  0.75 4 0  1.5 4 0  2.25 4 0  3 4 0  3.75 4 0  4.5 4 0  5.25 4 0  6 4 0  6.75 4 0  7.5 4 0  8.25 4 0  9 4 0  9.75 4 0  10.5 4 0  11.25 4 0  12 4 0  12.75 4 0  13.5 4 0  14.25 4 0  15 4 0  15.75 4 0  16.5 4 0  17.25 4 0  18 4 0  18.75 4 0  19.5 4 0  20.25 4 0  21 4 0  21.75 4 0  22.5 4 0  23.25 4 0  24 4 0  24.75 4 0  25.5 4 0  26.25 4 0  27 4 0  27.75 4 0  28.5 4 0  29.25 4 0  30 4 0  30.75 4 0  31.5 4 0  32.25 4 0  33 4 0  33.75 4 0  34.5 4 0  35.25 4 0  36 4 0  36.75 4 0  37.5 4 0  38.25 4 0  39 4 0  39.75 4 0  40.5 4 0  41.25 4 0  42 4 0  42.75 4 0  43.5 4 0  44.25 4 0  45 4 0  45.75 4 0  46.5 4 0  47.25 4 0  48 4 0  48.75 4 0  49.5 4 0  50.25 4 0  51 4 0  51.75 4 0  52.5 4 0  53.25 4 0  54 4 0  54.75 4 0  55.5 4 0  56.25 4 0  57 4 0  57.75 4 0  58.5 4 0  59.25 4 0  60 4 0  0.375 0.25 0  1.125 0.25 0  1.875 0.25 0  2.625 0.25 0  3.375 0.25 0  4.125 0.25 0  4.875 0.25 0  5.625 0.25 0  6.375 0.25 0  7.125 0.25 0  7.875 0.25 0  8.625 0.25 0  9.375 0.25 0  10.125 0.25 0  10.875 0.25 0  11.625 0.25 0  12.375 0.25 0  13.125 0.25 0  13.875 0.25 0  14.625 0.25 0  15.375 0.25 0  16.125 0.25 0  16.875 0.25 0  17.625 0.25 0  18.375 0.25 0  19.125 0.25 0  19.875 0.25 0  20.625 0.25 0  21.375 0.25 0  22.125 0.25 0  22.875 0.25 0  23.625 0.25 0  24.375 0.25 0  25.125 0.25 0  25.875 0.25 0  26.625 0.25 0  27.375 0.25 0  28.125 0.25 0  28.875 0.25 0  29.625 0.25 0  30.375 0.25 0  31.125 0.25 0  31.875 0.25 0  32.625 0.25 0  33.375 0.25 0  34.125 0.25 0  34.875 0.25 0  35.625 0.25 0  36.375 0.25 0  37.125 0.25 0  37.875 0.25 0  38.625 0.25 0  39.375 0.25 0  40.125 0.25 0  40.875 0.25 0  41.625 0.25 0  42.375 0.25 0  43.125 0.25 0  43.875 0.25 0  44.625 0.25 0  45.375 0.25 0  46.125 0.25 0  46.875 0.25 0  47.625 0.25 0  48.375 0.25 0  49.125 0.25 0  49.875 0.25 0  50.625 0.25 0  51.375 0.25 0  52.125 0.25 0  52.875 0.25 0  53.625 0.25 0  54.375 0.25 0  55.125 0.25 0  55.875 0.25 0  56.625 0.25 0  57.375 0.25 0  58.125 0.25 0  58.875 0.25 0  59.625 0.25 0  0.375 0.75 0  1.125 0.75 0  1.875 0.75 0  2.625 0.75 0  3.375 0.75 0  4.125 0.75 0  4.875 0.75 0  5.625 0.75 0  6.375 0.75 0  7.125 0.75 0  7.875 0.75 0  8.625 0.75 0  9.375 0.75 0  10.125 0.75 0  10.875 0.75 0  11.625 0.75 0  12.375 0.75 0  13.125 0.75 0  13.875 0.75 0  14.625 0.75 0  15.375 0.75 0  16.125 0.75 0  16.875 0.75 0  17.625 0.75 0  18.375 0.75 0  19.125 0.75 0  19.875 0.75 0  20.625 0.75 0  21.375 0.75 0  22.125 0.75 0  22.875 0.75 0  23.625 0.75 0  24.375 0.75 0  25.125 0.75 0  25.875 0.75 0  26.625 0.75 0  27.375 0.75 0  28.125 0.75 0  28.875 0.75 0  29.625 0.75 0  30.375 0.75 0  31.125 0.75 0  31.875 0.75 0  32.625 0.75 0  33.375 0.75 0  34.125 0.75 0  34.875 0.75 0  35.625 0.75 0  36.375 0.75 0  37.125 0.75 0  37.875 0.75 0  38.625 0.75 0  39.375 0.75 0  40.125 0.75 0  40
[...]
<PointData  Scalars="f_8-1"> 
<DataArray  type="Float64"  Name="f_8-1"  format="ascii">9.7072891550320204e+00  9.5878466773335873e+00  9.4638341135898632e+00  9.3438744830892624e+00  9.2220035466680876e+00  9.1010144931534764e+00  8.9795087164618668e+00  8.8582543107156209e+00  8.7368744148530801e+00  8.6155523847261435e+00  8.4942046020712620e+00  8.3728677942177949e+00  8.2515264785229814e+00  8.1301869913872036e+00  8.0088468057193190e+00  7.8875069032672194e+00  7.7661669033978216e+00  7.6448269462672975e+00  7.5234869770356987e+00  7.4021470143785555e+00  7.2808070505582547e+00  7.1594670879207936e+00  7.0381271253797353e+00  6.9167871632017546e+00  6.7954472012168834e+00  6.6741072394335079e+00  6.5527672778079884e+00  6.4314273163248545e+00  6.3100873549683349e+00  6.1887473937319042e+00  6.0674074326130443e+00  5.9460674716127242e+00  5.8247275107335872e+00  5.7033875499791877e+00  5.5820475893532970e+00  5.4607076288597662e+00  5.3393676685026099e+00  5.2180277082856499e+00  5.0966877482120063e+00  4.9753477882842354e+00  4.8540078285044821e+00  4.7326678688751409e+00  4.6113279093984216e+00  4.4899879500756352e+00  4.3686479909069602e+00  4.2473080318918361e+00  4.1259680730297807e+00  4.0046281143209983e+00  3.8832881557658259e+00  3.7619481973644002e+00  3.6406082391154411e+00  3.5192682810170997e+00  3.3979283230665840e+00  3.2765883652619152e+00  3.1552484076011291e+00  3.0339084500829601e+00  2.9125684927048048e+00  2.7912285354610633e+00  2.6698885783401005e+00  2.5485486213124000e+00  2.4272086643122672e+00  2.3058687071411437e+00  2.1845287492738019e+00  2.0631887891975893e+00  1.9418488233806115e+00  1.8205088441453323e+00  1.6991688384583843e+00  1.5778287866379683e+00  1.4564886647623736e+00  1.3351484377008451e+00  1.2138080306369150e+00  1.0924672006974050e+00  9.7112536223733514e-01  8.4978182639063948e-01  7.2843705364284383e-01  6.0709318240322552e-01  4.8575435274988304e-01  3.6443174275144968e-01  2.4315967911306202e-01  1.2202389970029319e-01  2.4131568412366104e-03  9.7084862198820741e+00  9.5869692394512800e+00  9.4647121132880621e+00  9.3435620280982352e+00  9.2222696797277735e+00  9.1009321686341043e+00  8.9796168790114663e+00  8.8582617404783264e+00  8.7369326825697886e+00  8.6155864010786551e+00  8.4942498341567809e+00  8.3729081326743984e+00  8.2515689517531712e+00  8.1302286067634455e+00  8.0088887884646933e+00  7.8875487524363415e+00  7.7662088126648809e+00  7.6448688374574667e+00  7.5235288783820975e+00  7.4021889140941681e+00  7.2808489523771751e+00  7.1595089900013580e+00  7.0381690280926055e+00  6.9168290661934906e+00  6.7954891044619945e+00  6.6741491428320883e+00  6.5528091813205940e+00  6.4314692199149599e+00  6.3101292586161355e+00  6.1887892974237309e+00  6.0674493363408892e+00  5.9461093753716217e+00  5.8247694145205768e+00  5.7034294537926131e+00  5.5820894931923535e+00  5.4607495327242148e+00  5.3394095723922650e+00  5.2180696122001056e+00  5.0967296521505805e+00  4.9753896922460328e+00  4.8540497324884582e+00  4.7327097728798257e+00  4.6113698134217023e+00  4.4900298541148995e+00  4.3686898949594779e+00  4.2473499359551976e+00  4.1260099771020196e+00  4.0046700184002413e+00  3.8833300598502003e+00  3.7619901014516306e+00  3.6406501432036404e+00  3.5193101851045192e+00  3.3979702271528889e+00  3.2766302693469864e+00  3.1552903116864073e+00  3.0339503541690105e+00  2.9126103967936872e+00  2.7912704395532204e+00  2.6699304824376942e+00  2.5485905254171008e+00  2.4272505684279437e+00  2.3059106112958152e+00  2.1845706535526510e+00  2.0632306939232334e+00  1.9418907291355303e+00  1.8205507515031365e+00  1.6992107447176181e+00  1.5778706774817854e+00  1.4565304941224713e+00  1.3351901003414202e+00  1.2138493392849841e+00  1.0925079597532177e+00  9.7116561431271997e-01  8.4982205955585555e-01  7.2847778841484256e-01  6.0713462568345955e-01  4.8579624152329970e-01  3.6447185698181794e-01  2.4318640723613308e-01  1.2202205487684981e-01  1.4067326766911733e-04  9.7079682063100421e+00  9.5869659146025992e+00  9.4649655495157869e+00  9.3437170684968986e+00  9.2223048292250276e+00  9.1010002391784930e+00  8.9796431339639593e+00  8.8583148362127258e+00  8.7369683334091572e+00  8.6156323974778477e+00  8.4942903221398307e+00  8.3729515139403734e+00  8.2516110126549727e+00  8.1302713233426420e+00  8.0089312503044923e+00  7.8875913457787874e+00  7.7662513659406187e+00  7.6449114162206513e+00  7.5235714528260544e+00  7.4022314939973386e+00  7.2808915326657679e+00  7.1595515718437950e+00  7.0382116105289683e+00  6.9168716492353735e+00  6.7955316878577783e+00  6.6741917264981403e+00  6.5528517651614804e+00  6.4315118038779513e+00  6.3101718426619353e+00  6.1888318815290200e+00  6.0674919204907205e+00  5.9461519595569863e+00  5.8248119987360107e+00  5.7034720380348203e+00  5.5821320774596677e+00  5.4607921170163642e+00  5.3394521567098403e+00  5.2181121965435713e+00  5.0967722365198096e+00  4.9754322766405661e+00  4.8540923169081047e+00  4.7327523573245021e+00  4.6114123978906214e+00  4.4900724386058002e+00  4.3687324794689797e+00  4.2473925204798428e+00  4.1260525616393622e+00  4.0047126029487652e+00  3.8833726444085603e+00  3.7620326860177049e+00  3.6406927277743248e+00  3.5193527696765479e+00  3.3980128117235076e+00  3.2766728539155685e+00  3.1553328962530971e+00  3.0339929387372289e+00  2.9126529813655972e+00  2.7913130241389044e+00  2.6699730670479718e+00  2.5486331100938520e+00  2.4272931532448676e+00  2.3059531964835482e+00  2.1846132397056022e+00  2.0632732829685039e+00  1.9419333265800862e+00  1.8205933720625556e+00  1.6992534206557999e+00  1.5779134671985642e+00  1.4565734746969878e+00  1.3352333160124970e+00  1.2138926339156930e+00  1.0925507164512789e+00  9.7120690189439562e-01  8.4986166599041590e-01  7.2851607635930149e-01  6.0717056463984531e-01  4.8582616359004976e-01  3.6448419318937447e-01  2.4314153898267749e-01  1.2173809342959864e-01  4.0710487086875908e-05  9.7082610256233561e+00  9.5866741352972067e+00  9.4651860225415216e+00  9.3436720416131998e+00  9.2223459956603175e+00  9.1009694006963411e+00  8.9796414109274920e+00  8.8582935221124117e+00  8.7369576327963561e+00  8.6156156641236592e+00  8.4942768574856924e+00  8.3729364085100961e+00  8.2515967443517919e+00  8.1302566832876462e+00  8.0089167949234881e+00  7.8875768195512599e+00  7.7662368768146584e+00  7.6448969159119518e+00  7.5235569598721996e+00  7.4022169998862557e+00  7.2808770402092131e+00  7.1595370795509723e+00  7.0381971187318264e+00  6.9168571576373417e+00  6.7955171964553749e+00  6.6741772352112010e+00  6.5528372739638874e+00  6.4314973127415822e+00  6.3101573515725686e+00  6.1888173904763919e+00  6.0674774294691822e+00  5.9461374685632116e+00  5.8247975077683245e+00  5.7034575470924631e+00  5.5821175865423411e+00  5.4607776261238872e+00  5.3394376658418254e+00  5.2180977056992539e+00  5.0967577456980555e+00  4.9754177858399338e+00  4.8540778261268978e+00  4.7327378665606448e+00  4.6113979071416908e+00  4.4900579478691993e+00  4.3687179887422305e+00  4.2473780297608421e+00  4.1260380709262297e+00  4.0046981122398604e+00  3.8833581537022135e+00  3.7620181953125069e+00  3.6406782370692832e+00  3.5193382789714232e+00  3.3979983210188367e+00  3.2766583632125053e+00  3.1553184055535874e+00  3.0339784480432530e+00  2.9126384906814478e+00  2.7912985334691935e+00  2.6699585764069771e+00  2.5486186195027698e+00  2.4272786627719007e+00  2.3059387062823018e+00  2.1845987502576931e+00  2.0632587954969455e+00  1.9419188441725213e+00  1.8205789008960527e+00  1.6992389710497366e+00  1.5778990499088605e+00  1.4565590885195017e+00  1.3352189149315745e+00  1.2138780845124415e+00  1.0925358081132743e+00  9.7119151376683077e-01  8.4984582956356969e-01  7.2849965900892910e-01  6.0715274556175547e-01  4.8580409616445369e-01  3.6444884017642143e-01  2.4306840279684558e-01  1.2161043347174262e-01  1.7333213655296215e-05  9.7081718435828570e+00  9.5867014666162333e+00  9.4651432998035556e+00  9.3437116939444866e+00  9.2223109963011787e+00  9.1009711329162570e+00  8.9796185610598620e+00  8.8582828649907235e+00  8.7369401726129592e+00  8.6156016775488755e+00  8.4942610928310120e+00  8.3729215300601378e+00  8.2515814405811305e+00  8.1302415827060432e+00  8.0089016029191065e+00  7.8875616696818085e+00  7.7662217093100416e+00  7.6448817564783136e+00  7.5235417974000685e+00  7.4022018389016253e+00  7.2808618787779791e+00  7.1595219184044456e+00  7.0381819575443485e+00  6.9168419965148464e+00  6.7955020353426541e+00  6.6741620741225463e+00  6.5528221128916853e+00  6.4314821516891012e+00  6.3101421905395876e+00  6.1888022294639997e+00  6.0674622684781596e+00  5.9461223075947469e+00  5.8247823468237536e+00  5.7034423861730348e+00  5.5821024256486727e+00  5.4607624652553319e+00  5.3394225049965405e+00  5.2180825448749033e+00  5.0967425848923966e+00  4.9754026250504459e+00  4.8540626653501429e+00  4.7327227057923285e+00  4.6113827463777071e+00  4.4900427871068747e+00  4.3687028279804156e+00  4.2473628689989189e+00  4.1260229101629857e+00  4.0046829514732405e+00  3.8833429929303094e+00  3.7620030345348092e+00  3.6406630762873560e+00  3.5193231181884848e+00  3.3979831602387320e+00  3.2766432024384931e+00  3.1553032447883091e+00  3.0339632872886830e+00  2.9126233299409074e+00  2.7912833727472282e+00  2.6699434157131190e+00  2.5486034588506961e+00  2.4272635021918783e+00  2.3059235458381311e+00  2.1845835901184651e+00  2.0632436360229001e+00  1.9419036859577261e+00  1.8205637441903146e+00  1.6992238137903544e+00  1.5778838827617587e+00  1.4565438856321802e+00  1.3352036218969796e+00  1.2138626373260368e+00  1.0925202453734468e+00  9.7117603978062383e-01  8.4983048918128568e-01  7.2848424274289181e-01  6.0713701756285399e-01  4.8578702870087803e-01  3.6442724724861686e-01  2.4303587835379009e-01  1.2156919999226587e-01  1.3940983620332657e-05  9.7082610377462899e+00  9.5866741397154325e+00  9.4651860244344999e+00  9.3436720209222806e+00  9.2223459883836263e+00  9.1009693926522548e+00  8.9796414084759775e+00  8.8582935194651231e+00  8.7369576317978570e+00  8.6156156629324734e+00  8.4942768568547411e+00  8.3729364078728263e+00  8.2515967439027200e+00  8.1302566828354585e+00  8.0089167944951569e+00  7.8875768190955178e+00  7.7662368763390202e+00  7.6448969154114090e+00  7.5235569593513620e+00  7.4022169993455424e+00  7.2808770396507496e+00  7.1595370789772366e+00  7.0381971181459031e+00  6.9168571570425126e+00  6.7955171958563483e+00  6.6741772346151125e+00  6.5528372733793816e+00  6.4314973121767718e+00  6.3101573510337214e+00  6.1888173899683681e+00  6.0674774289961926e+00  5.9461374681293959e+00  5.8247975073777889e+00  5.7034575467488082e+00  5.5821175862476791e+00  5.4607776258776308e+00  5.3394376656408262e+00  5.2180977055392974e+00  5.0967577455749531e+00  4.9754177857489053e+00  4.8540778260612329e+00  4.7327378665118696e+00  4.6113979071016820e+00  4.4900579478326508e+00  4.3687179887068535e+00  4.2473780297254162e+00  4.1260380708883124e+00  4.0046981121953618e+00  3.8833581536473063e+00  3.7620181952461933e+00  3.6406782369946971e+00  3.5193382788950602e+00  3.3979983209483273e+00  3.2766583631545201e+00  3.1553184055130905e+00  3.0339784480244174e+00  2.9126384906896323e+00  2.7912985335133227e+00  2.6699585765015144e+00  2.5486186196694520e+00  2.4272786630413776e+00  2.3059387066963177e+00  2.1845987508722193e+00  2.0632587963865836e+00  1.9419188454349141e+00  1.8205789026501948e+00  1.6992389734091140e+00  1.5778990528946353e+00  1.4565590918947864e+00  1.3352189180675373e+00  1.2138780866485612e+00  1.0925358093350028e+00  9.7119151585820995e-01  8.4984583465778529e-01  7.2849966805723287e-01  6.0715276230967841e-01  4.8580412959411989e-01  3.6444890373785943e-01  2.4306850816309458e-01  1.2161055018375611e-01  1.7350037949191761e-05  9.7079681679437595e+00  9.5869659841123518e+00  9.4649655068307510e+00  9.3437170468840396e+00  9.2223048122231450e+00  9.1010002353261807e+00  8.9796431317164238e+00  8.8583148385619044e+00  8.7369683349010607e+00  8.6156324007440350e+00  8.4942903247681993e+00  8.3729515171707849e+00  8.2516110156656755e+00  8.1302713264623048e+00  8.0089312533148451e+00  7.8875913487444294e+00  7.7662513688229549e+00  7.6449114190391283e+00  7.5235714555810427e+00  7.4022314966966789e+00  7.2808915353139749e+00  7.1595515744472937e+00  7.0382116130942007e+00  6.9168716517693927e+00  6.7955316903691871e+00  6.6741917289983865e+00  6.5528517676642339e+00  6.4315118063970003e+00  6.3101718452095588e+00  6.1888318841159284e+00  6.0674919231267257e+00  5.9461519622514922e+00  5.8248120014980707e+00  5.7034720408726267e+00  5.5821320803793784e+00  5.4607921200206695e+00  5.3394521597977675e+00  5.2181121997117632e+00  5.0967722397637276e+00  4.9754322799541004e+00  4.8540923202823416e+00  4.7327523607477273e+00  4.6114124013505355e+00  4.4900724420923774e+00  4.3687324829753047e+00  4.2473925240006372e+00  4.1260525651685755e+00  4.0047126064789857e+00  3.8833726479326831e+00  3.7620326895318383e+00  3.6406927312796462e+00  3.5193527731790208e+00  3.3980128152317977e+00  3.2766728574386939e+00  3.1553328997992569e+00  3.0339929423144061e+00  2.9126529849836471e+00  2.7913130278123863e+00  2.6699730707989842e+00  2.5486331139547524e+00  2.4272931572611358e+00  2.3059532007172003e+00  2.1846132442397264e+00  2.0632732879129749e+00  1.9419333320767871e+00  1.8205933782829082e+00  1.6992534277700237e+00  1.5779134752810733e+00  1.4565734835508775e+00  1.3352333250307822e+00  1.2138926423520731e+00  1.0925507244492452e+00  9.7120691153700733e-01  8.4986168047838195e-01  7.2851609891955849e-01  6.0717060286229563e-01  4.8582623426333726e-01  3.6448432542666098e-01  2.4314177472031953e-01  1.2173840675375627e-01  4.0770727017325835e-05  9.7084863054578197e+00  9.5869694173468112e+00  9.4647119990773021e+00  9.3435620156855066e+00  9.2222696884706696e+00  9.1009321874965501e+00  8.9796169087040756e+00  8.8582617656695000e+00  8.7369327137233128e+00  8.6155864290834039e+00  8.4942498639220876e+00  8.3729081613489615e+00  8.2515689806724897e+00  8.1302286353182751e+00  8.0088888169283035e+00  7.8875487807100928e+00  7.7662088408043575e+00  7.6448688654586947e+00  7.5235289062645156e+00  7.4021889418671831e+00  7.2808489800523937e+00  7.1595090175886815e+00  7.0381690556025180e+00  6.9168290936368377e+00  6.7954891318505304e+00  6.6741491701790325e+00  6.5528092086411807e+00  6.4314692472260013e+00  6.3101292859350613e+00  6.1887893247676287e+00  6.0674493637261619e+00  5.9461094028138648e+00  5.8247694420346043e+00  5.7034294813920408e+00  5.5820895208890855e+00  5.4607495605275895e+00  5.3394096003082927e+00  5.2180696402311648e+00  5.0967296802958320e+00  4.9753897205016493e+00  4.8540497608476922e+00  4.7327098013327937e+00  4.6113698419560052e+00  4.4900298827170761e+00  4.3686899236165804e+00  4.2473499646555011e+00  4.1260100058347788e+00  4.0046700471551073e+00  3.8833300886173348e+00  3.7619901302227934e+00  3.6406501719737316e+00  3.5193102138726893e+00  3.3979702559225244e+00  3.2766302981249642e+00  3.1552903404819497e+00  3.0339503829932459e+00  2.9126104256601004e+00  2.7912704684792771e+00  2.6699305114472081e+00  2.5485905545431655e+00  2.4272505977163172e+00  2.3059106408086056e+00  2.1845706833722218e+00  2.0632307241560075e+00  1.9418907599138833e+00  1.8205507829823346e+00  1.6992107770609111e+00  1.5778707108268397e+00  1.4565305285302013e+00  1.3351901357674016e+00  1.2138493756781101e+00  1.0925079974307150e+00  9.7116565460923943e-01  8.4982210555795845e-01  7.2847784596634924e-01  6.0713470586304874e-01  4.8579636644911328e-01  3.6447207126505060e-01  2.4318680184110977e-01  1.2202284850604785e-01  1.4086249812742316e-04  9.7072886051934653e+00  9.5878473831242417e+00  9.4638336404386774e+00  9.3438746961670400e+00  9.2220034673083280e+00  9.1010146069109066e+00  8.9795087384174099e+00  8.8582543814545733e+00  8.7368744648709118e+00  8.6155524434486086e+00  8.4942046569979919e+00  8.3728678500834786e+00  8.2515265335816892e+00  8.1301870463258350e+00  8.0088468603428105e+00  7.8875069576827990e+00  7.7661669575989993e+00  7.6448270002836214e+00  7.5234870308822330e+00  7.4021470680730657e+00  7.2808071041150813e+00  7.1594671413538533e+00  7.0381271787028012e+00  6.9167872164290110e+00  6.7954472543630775e+00  6.6741072925151093e+00  6.5527673308440999e+00  6.4314273693373316e+00  6.3100874079804088e+00  6.1887474467667856e+00  6.0674074856930984e+00  5.9460675247593437e+00  5.8247275639671185e+00  5.7033876033186912e+00  5.5820476428160113e+00  5.4607076824601206e+00  5.3393677222507856e+00  5.2180277621868862e+00  5.0966878022670228e+00  4.9753478424896960e+00  4.8540078828532742e+00  4.7326679233556979e+00  4.6113279639950226e+00  4.4899880047701437e+00  4.3686480456813319e+00  4.2473080867297019e+00  4.1259681279164768e+00  4.0046281692425234e+00  3.8832882107084137e+00  3.7619482523154657e+00  3.6406082940657982e+00  3.5192683359629156e+00  3.3979283780100897e+00  3.2765884202107034e+00  3.1552484625664139e+00  3.0339085050784163e+00  2.9125685477463721e+00  2.7912285905685073e+00  2.6698886335396521e+00  2.5485486766404901e+00  2.4272087198197538e+00  2.3058687628981986e+00  2.1845288053751037e+00  2.0631888457685146e+00  1.9418488805827792e+00  1.8205089021811767e+00  1.6991688975676611e+00  1.5778288470768720e+00  1.4564887267426514e+00  1.3351485012919651e+00  1.2138080957114759e+00  1.0924672672027973e+00  9.7112543105140103e-01  8.4978190057004277e-01  7.2843713936488974e-01  6.0709329085264763e-01  4.8575450671080916e-01  3.6443198975143876e-01  2.4316012087357874e-01  1.2202476777436828e-01  2.4168482827783269e-03  9.6489248763526323e+00  9.5255670388408706e+00  9.4042164075778452e+00  9.2829443767339086e+00  9.1616662050288653e+00  9.0403387813354019e+00  8.9190018748740094e+00  8.7976630907719020e+00  8.6763226303389516e+00  8.5549830374108069e+00  8.4336427932183504e+00  8.3123029072726098e+00  8.1909628506912036e+00  8.0696228896934556e+00  7.9482828994000982e+00  7.8269429319702084e+00  7.7056029619815662e+00  7.5842629973086613e+00  7.4629230329973346e+00  7.3415830699242557e+00  7.2202431071642614e+00  7.0989031447796433e+00  6.9775631826076996e+00  6.8562232206403690e+00  6.7348832588400738e+00  6.6135432971914074e+00  6.4922033356769209e+00  6.3708633742858938e+00  6.2495234130116444e+00  6.1281834518520313e+00  6.0068434908080013e+00  5.8855035298823051e+00  5.7641635690787547e+00  5.6428236084014314e+00  5.5214836478543612e+00  5.4001436874414930e+00  5.2788037271666282e+00  5.1574637670331311e+00  5.0361238070437331e+00  4.9147838472006669e+00  4.7934438875059184e+00  4.6721039279614649e+00  4.5507639685688828e+00  4.4294240093289359e+00  4.3080840502416118e+00  4.1867440913065925e+00  4.0654041325236792e+00  3.9440641738931492e+00  3.8227242154150236e+00  3.7013842570891287e+00  3.5800442989138994e+00  3.4587043408879898e+00  3.3373643830087674e+00  3.2160244252754184e+00  3.0946844676851240e+00  2.9733445102372995e+00  2.8520045529255782e+00  2.7306645957422031e+00  2.6093246386627089e+00  2.4879846816347313e+00  2.3666447245235482e+00  2.2453047669406958e+00  2.1239648078338536e+00  2.0026248442789565e+00  1.8812848693337760e+00  1.7599448678199410e+00  1.6386048119716310e+00  1.5172646561336289e+00  1.3959243371335106e+00  1.2745837722690525e+00  1.1532428491708273e+00  1.0319013351349933e+00  9.1055882362300256e-01  7.8921518489913545e-01  6.6787167436952466e-01  5.4653141267572591e-01  4.2520168792691987e-01  3.0390306543632645e-01  1.8269759643699660e-01  6.1912015662235760e-02  9.6470007964787055e+00  9.5258848046783200e+00  9.4042298773119128e+00  9.2828883244756266e+00  9.1615518422510487e+00  9.0402347325616681e+00  8.9188852230846098e+00  8.7975527748347186e+00  8.6762093932913444e+00  8.5548711583743078e+00  8.4335304836375933e+00  8.3121908211950988e+00  8.1908507425990074e+00  8.0695108221368965e+00  7.9481708441012469e+00  7.8268308876377146e+00  7.7054909244899843e+00  7.5841509638842890e+00  7.4628110024677410e+00  7.3414710411835387e+00  7.220131079719927