<?xml version="1.0"?>
<VTKFile type="UnstructuredGrid"  version="0.1"  >
<UnstructuredGrid>
<Piece  NumberOfPoints="1369" NumberOfCells="2560">
<Points>
<DataArray  type="Float64"  NumberOfComponents="3"  format="ascii">0 0 0  0.75 0 0  1.5 0 0  2.25 0 0  3 0 0  3.75 0 0  4.5 0 0  5.25 0 0  6 0 0  6.75 0 0  7.5 0 0  8.25 0 0  9 0 0  9.75 0 0  10.5 0 0  11.25 0 0  12 0 0  12.75 0 0  13.5 0 0  14.25 0 0  15 0 0  15.75 0 0  16.5 0 0  17.25 0 0  18 0 0  18.75 0 0  19.5 0 0  20.25 0 0  21 0 0  21.75 0 0  22.5 0 0  23.25 0 0  24 0 0  24.75 0 0  25.5 0 0  26.25 0 0  27 0 0  27.75 0 0  28.5 0 0  29.25 0 0  30 0 0  30.75 0 0  31.5 0 0  32.25 0 0  33 0 0  33.75 0 0  34.5 0 0  35.25 0 0  36 0 0  36.75 0 0  37.5 0 0  38.25 0 0  39 0 0  39.75 0 0  40.5 0 0  41.25 0 0  42 0 0  42.75 0 0  43.5 0 0  44.25 0 0  45 0 0  45.75 0 0  46.5 0 0  47.25 0 0  48 0 0  48.75 0 0  49.5 0 0  50.25 0 0  51 0 0  51.75 0 0  52.5 0 0  53.25 0 0  54 0 0  54.75 0 0  55.5 0 0  56.25 0 0  57 0 0  57.75 0 0  58.5 0 0  59.25 0 0  60 0 0  0 0.5 0  0.75 0.5 0  1.5 0.5 0  2.25 0.5 0  3 0.5 0  3.75 0.5 0  4.5 0.5 0  5.25 0.5 0  6 0.5 0  6.75 0.5 0  7.5 0.5 0  8.25 0.5 0  9 0.5 0  9.75 0.5 0  10.5 0.5 0  11.25 0.5 0  12 0.5 0  12.75 0.5 0  13.5 0.5 0  14.25 0.5 0  15 0.5 0  15.75 0.5 0  16.5 0.5 0  17.25 0.5 0  18 0.5 0  18.75 0.5 0  19.5 0.5 0  20.25 0.5 0  21 0.5 0  21.75 0.5 0  22.5 0.5 0  23.25 0.5 0  24 0.5 0  24.75 0.5 0  25.5 0.5 0  26.25 0.5 0  27 0.5 0  27.75 0.5 0  28.5 0.5 0  29.25 0.5 0  30 0.5 0  30.75 0.5 0  31.5 0.5 0  32.25 0.5 0  33 0.5 0  33.75 0.5 0  34.5 0.5 0  35.25 0.5 0  36 0.5 0  36.75 0.5 0  37.5 0.5 0  38.25 0.5 0  39 0.5 0  39.75 0.5 0  40.5 0.5 0  41.25 0.5 0  42 0.5 0  42.75 0.5 0  43.5 0.5 0  44.25 0.5 0  45 0.5 0  45.75 0.5 0  46.5 0.5 0  47.25 0.5 0  48 0.5 0  48.75 0.5 0  49.5 0.5 0  50.25 0.5 0  51 0.5 0  51.75 0.5 0  52.5 0.5 0  53.25 0.5 0  54 0.5 0  54.75 0.5 0  55.5 0.5 0  56.25 0.5 0  57 0.5 0  57.75 0.5 0  58.5 0.5 0  59.25 0.5 0  60 0.5 0  0 1 0  0.75 1 0  1.5 1 0  2.25 1 0  3 1 0  3.75 1 0  4.5 1 0  5.25 1 0  6 1 0  6.75 1 0  7.5 1 0  8.25 1 0  9 1 0  9.75 1 0  10.5 1 0  11.25 1 0  12 1 0  12.75 1 0  13.5 1 0  14.25 1 0  15 1 0  15.75 1 0  16.5 1 0  17.25 1 0  18 1 0  18.75 1 0  19.5 1 0  20.25 1 0  21 1 0  21.75 1 0  22.5 1 0  23.25 1 0  24 1 0  24.75 1 0  25.5 1 0  26.25 1 0  27 1 0  27.75 1 0  28.5 1 0  29.25 1 0  30 1 0  30.75 1 0  31.5 1 0  32.25 1 0  33 1 0  33.75 1 0  34.5 1 0  35.25 1 0  36 1 0  36.75 1 0  37.5 1 0  38.25 1 0  39 1 0  39.75 1 0  40.5 1 0  41.25 1 0  42 1 0  42.75 1 0  43.5 1 0  44.25 1 0  45 1 0  45.75 1 0  46.5 1 0  47.25 1 0  48 1 0  48.75 1 0  49.5 1 0  50.25 1 0  51 1 0  51.75 1 0  52.5 1 0  53.25 1 0  54 1 0  54.75 1 0  55.5 1 0  56.25 1 0  57 1 0  57.75 1 0  58.5 1 0  59.25 1 0  60 1 0  0 1.5 0  0.75 1.5 0  1.5 1.5 0  2.25 1.5 0  3 1.5 0  3.75 1.5 0  4.5 1.5 0  5.25 1.5 0  6 1.5 0  6.75 1.5 0  7.5 1.5 0  8.25 1.5 0  9 1.5 0  9.75 1.5 0  10.5 1.5 0  11.25 1.5 0  12 1.5 0  12.75 1.5 0  13.5 1.5 0  14.25 1.5 0  15 1.5 0  15.75 1.5 0  16.5 1.5 0  17.25 1.5 0  18 1.5 0  18.75 1.5 0  19.5 1.5 0  20.25 1.5 0  21 1.5 0  21.75 1.5 0  22.5 1.5 0  23.25 1.5 0  24 1.5 0  24.75 1.5 0  25.5 1.5 0  26.25 1.5 0  27 1.5 0  27.75 1.5 0  28.5 1.5 0  29.25 1.5 0  30 1.5 0  30.75 1.5 0  31.5 1.5 0  32.25 1.5 0  33 1.5 0  33.75 1.5 0  34.5 1.5 0  35.25 1.5 0  36 1.5 0  36.75 1.5 0  37.5 1.5 0  38.25 1.5 0  39 1.5 0  39.75 1.5 0  40.5 1.5 0  41.25 1.5 0  42 1.5 0  42.75 1.5 0  43.5 1.5 0  44.25 1.5 0  45 1.5 0  45.75 1.5 0  46.5 1.5 0  47.25 1.5 0  48 1.5 0  48.75 1.5 0  49.5 1.5 0  50.25 1.5 0  51 1.5 0  51.75 1.5 0  52.5 1.5 0  53.25 1.5 0  54 1.5 0  54.75 1.5 0  55.5 1.5 0  56.25 1.5 0  57 1.5 0  57.75 1.5 0  58.5 1.5 0  59.25 1.5 0  60 1.5 0  0 2 0  0.75 2 0  1.5 2 0  2.25 2 0  3 2 0  3.75 2 0  4.5 2 0  5.25 2 0  6 2 0  6.75 2 0  7.5 2 0  8.25 2 0  9 2 0  9.75 2 0  10.5 2 0  11.25 2 0  12 2 0  12.75 2 0  13.5 2 0  14.25 2 0  15 2 0  15.75 2 0  16.5 2 0  17.25 2 0  18 2 0  18.75 2 0  19.5 2 0  20.25 2 0  21 2 0  21.75 2 0  22.5 2 0  23.25 2 0  24 2 0  24.75 2 0  25.5 2 0  26.25 2 0  27 2 0  27.75 2 0  28.5 2 0  29.25 2 0  30 2 0  30.75 2 0  31.5 2 0  32.25 2 0  33 2 0  33.75 2 0  34.5 2 0  35.25 2 0  36 2 0  36.75 2 0  37.5 2 0  38.25 2 0  39 2 0  39.75 2 0  40.5 2 0  41.25 2 0  42 2 0  42.75 2 0  43.5 2 0  44.25 2 0  45 2 0  45.75 2 0  46.5 2 0  47.25 2 0  48 2 0  48.75 2 0  49.5 2 0  50.25 2 0  51 2 0  51.75 2 0  52.5 2 0  53.25 2 0  54 2 0  54.75 2 0  55.5 2 0  56.25 2 0  57 2 0  57.75 2 0  58.5 2 0  59.25 2 0  60 2 0  0 2.5 0  0.75 2.5 0  1.5 2.5 0  2.25 2.5 0  3 2.5 0  3.75 2.5 0  4.5 2.5 0  5.25 2.5 0  6 2.5 0  6.75 2.5 0  7.5 2.5 0  8.25 2.5 0  9 2.5 0  9.75 2.5 0  10.5 2.5 0  11.25 2.5 0  12 2.5 0  12.75 2.5 0  13.5 2.5 0  14.25 2.5 0  15 2.5 0  15.75 2.5 0  16.5 2.5 0  17.25 2.5 0  18 2.5 0  18.75 2.5 0  19.5 2.5 0  20.25 2.5 0  21 2.5 0  21.75 2.5 0  22.5 2.5 0  23.25 2.5 0  24 2.5 0  24.75 2.5 0  25.5 2.5 0  26.25 2.5 0  27 2.5 0  27.75 2.5 0  28.5 2.5 0  29.25 2.5 0  30 2.5 0  30.75 2.5 0  31.5 2.5 0  32.25 2.5 0  33 2.5 0  33.75 2.5 0  34.5 2.5 0  35.25 2.5 0  36 2.5 0  36.75 2.5 0  37.5 2.5 0  38.25 2.5 0  39 2.5 0  39.75 2.5 0  40.5 2.5 0  41.25 2.5 0  42 2.5 0  42.75 2.5 0  43.5 2.5 0  44.25 2.5 0  45 2.5 0  45.75 2.5 0  46.5 2.5 0  47.25 2.5 0  48 2.5 0  48.75 2.5 0  49.5 2.5 0  50.25 2.5 0  51 2.5 0  51.75 2.5 0  52.5 2.5 0  53.25 2.5 0  54 2.5 0  54.75 2.5 0  55.5 2.5 0  56.25 2.5 0  57 2.5 0  57.75 2.5 0  58.5 2.5 0  59.25 2.5 0  60 2.5 0  0 3 0  0.75 3 0  1.5 3 0  2.25 3 0  3 3 0  3.75 3 0  4.5 3 0  5.25 3 0  6 3 0  6.75 3 0  7.5 3 0  8.25 3 0  9 3 0  9.75 3 0  10.5 3 0  11.25 3 0  12 3 0  12.75 3 0  13.5 3 0  14.25 3 0  15 3 0  15.75 3 0  16.5 3 0  17.25 3 0  18 3 0  18.75 3 0  19.5 3 0  20.25 3 0  21 3 0  21.75 3 0  22.5 3 0  23.25 3 0  24 3 0  24.75 3 0  25.5 3 0  26.25 3 0  27 3 0  27.75 3 0  28.5 3 0  29.25 3 0  30 3 0  30.75 3 0  31.5 3 0  32.25 3 0  33 3 0  33.75 3 0  34.5 3 0  35.25 3 0  36 3 0  36.75 3 0  37.5 3 0  38.25 3 0  39 3 0  39.75 3 0  40.5 3 0  41.25 3 0  42 3 0  42.75 3 0  43.5 3 0  44.25 3 0  45 3 0  45.75 3 0  46.5 3 0  47.25 3 0  48 3 0  48.75 3 0  49.5 3 0  50.25 3 0  51 3 0  51.75 3 0  52.5 3 0  53.25 3 0  54 3 0  54.75 3 0  55.5 3 0  56.25 3 0  57 3 0  57.75 3 0  58.5 3 0  59.25 3 0  60 3 0  0 3.5 0  0.75 3.5 0  1.5 3.5 0  2.25 3.5 0  3 3.5 0  3.75 3.5 0  4.5 3.5 0  5.25 3.5 0  6 3.5 0  6.75 3.5 0  7.5 3.5 0  8.25 3.5 0  9 3.5 0  9.75 3.5 0  10.5 3.5 0  11.25 3.5 0  12 3.5 0  12.75 3.5 0  13.5 3.5 0  14.25 3.5 0  15 3.5 0  15.75 3.5 0  16.5 3.5 0  17.25 3.5 0  18 3.5 0  18.75 3.5 0  19.5 3.5 0  20.25 3.5 0  21 3.5 0  21.75 3.5 0  22.5 3.5 0  23.25 3.5 0  24 3.5 0  24.75 3.5 0  25.5 3.5 0  26.25 3.5 0  27 3.5 0  27.75 3.5 0  28.5 3.5 0  29.25 3.5 0  30 3.5 0  30.75 3.5 0  31.5 3.5 0  32.25 3.5 0  33 3.5 0  33.75 3.5 0  34.5 3.5 0  35.25 3.5 0  36 3.5 0  36.75 3.5 0  37.5 3.5 0  38.25 3.5 0  39 3.5 0  39.75 3.5 0  40.5 3.5 0  41.25 3.5 0  42 3.5 0  42.75 3.5 0  43.5 3.5 0  44.25 3.5 0  45 3.5 0  45.75 3.5 0  46.5 3.5 0  47.25 3.5 0  48 3.5 0  48.75 3.5 0  49.5 3.5 0  50.25 3.5 0  51 3.5 0  51.75 3.5 0  52.5 3.5 0  53.25 3.5 0  54 3.5 0  54.75 3.5 0  55.5 3.5 0  56.25 3.5 0  57 3.5 0  57.75 3.5 0  58.5 3.5 0  59.25 3.5 0  60 3.5 0  0 4 0  0.75 4 0  1.5 4 0  2.25 4 0  3 4 0  3.75 4 0  4.5 4 0  5.25 4 0  6 4 0  6.75 4 0  7.5 4 0  8.25 4 0  9 4 0  9.75 4 0  10.5 4 0  11.25 4 0  12 4 0  12.75 4 0  13.5 4 0  14.25 4 0  15 4 0  15.75 4 0  16.5 4 0  17.25 4 0  18 4 0  18.75 4 0  19.5 4 0  20.25 4 0  21 4 0  21.75 4 0  22.5 4 0  23.25 4 0  24 4 0  24.75 4 0  25.5 4 0  26.25 4 0  27 4 0  27.75 4 0  28.5 4 0  29.25 4 0  30 4 0  30.75 4 0  31.5 4 0  32.25 4 0  33 4 0  33.75 4 0  34.5 4 0  35.25 4 0  36 4 0  36.75 4 0  37.5 4 0  38.25 4 0  39 4 0  39.75 4 0  40.5 4 0  41.25 4 0  42 4 0  42.75 4 0  43.5 4 0  44.25 4 0  45 4 0  45.75 4 0  46.5 4 0  47.25 4 0  48 4 0  48.75 4 0  49.5 4 0  50.25 4 0  51 4 0  51.75 4 0  52.5 4 0  53.25 4 0  54 4 0  54.75 4 0  55.5 4 0  56.25 4 0  57 4 0  57.75 4 0  58.5 4 0  59.25 4 0  60 4 0  0.375 0.25 0  1.125 0.25 0  1.875 0.25 0  2.625 0.25 0  3.375 0.25 0  4.125 0.25 0  4.875 0.25 0  5.625 0.25 0  6.375 0.25 0  7.125 0.25 0  7.875 0.25 0  8.625 0.25 0  9.375 0.25 0  10.125 0.25 0  10.875 0.25 0  11.625 0.25 0  12.375 0.25 0  13.125 0.25 0  13.875 0.25 0  14.625 0.25 0  15.375 0.25 0  16.125 0.25 0  16.875 0.25 0  17.625 0.25 0  18.375 0.25 0  19.125 0.25 0  19.875 0.25 0  20.625 0.25 0  21.375 0.25 0  22.125 0.25 0  22.875 0.25 0  23.625 0.25 0  24.375 0.25 0  25.125 0.25 0  25.875 0.25 0  26.625 0.25 0  27.375 0.25 0  28.125 0.25 0  28.875 0.25 0  29.625 0.25 0  30.375 0.25 0  31.125 0.25 0  31.875 0.25 0  32.625 0.25 0  33.375 0.25 0  34.125 0.25 0  34.875 0.25 0  35.625 0.25 0  36.375 0.25 0  37.125 0.25 0  37.875 0.25 0  38.625 0.25 0  39.375 0.25 0  40.125 0.25 0  40.875 0.25 0  41.625 0.25 0  42.375 0.25 0  43.125 0.25 0  43.875 0.25 0  44.625 0.25 0  45.375 0.25 0  46.125 0.25 0  46.875 0.25 0  47.625 0.25 0  48.375 0.25 0  49.125 0.25 0  49.875 0.25 0  50.625 0.25 0  51.375 0.25 0  52.125 0.25 0  52.875 0.25 0  53.625 0.25 0  54.375 0.25 0  55.125 0.25 0  55.875 0.25 0  56.625 0.25 0  57.375 0.25 0  58.125 0.25 0  58.875 0.25 0  59.625 0.25 0  0.375 0.75 0  1.125 0.75 0  1.875 0.75 0  2.625 0.75 0  3.375 0.75 0  4.125 0.75 0  4.875 0.75 0  5.625 0.75 0  6.375 0.75 0  7.125 0.75 0  7.875 0.75 0  8.625 0.75 0  9.375 0.75 0  10.125 0.75 0  10.875 0.75 0  11.625 0.75 0  12.375 0.75 0  13.125 0.75 0  13.875 0.75 0  14.625 0.75 0  15.375 0.75 0  16.125 0.75 0  16.875 0.75 0  17.625 0.75 0  18.375 0.75 0  19.125 0.75 0  19.875 0.75 0  20.625 0.75 0  21.375 0.75 0  22.125 0.75 0  22.875 0.75 0  23.625 0.75 0  24.375 0.75 0  25.125 0.75 0  25.875 0.75 0  26.625 0.75 0  27.375 0.75 0  28.125 0.75 0  28.875 0.75 0  29.625 0.75 0  30.375 0.75 0  31.125 0.75 0  31.875 0.75 0  32.625 0.75 0  33.375 0.75 0  34.125 0.75 0  34.875 0.75 0  35.625 0.75 0  36.375 0.75 0  37.125 0.75 0  37.875 0.75 0  38.625 0.75 0  39.375 0.75 0  40.125 0.75 0  40
[...]
<PointData  Scalars="f_8-1"> 
<DataArray  type="Float64"  Name="f_8-1"  format="ascii">5.4448580608792332e+00  5.3791731614371141e+00  5.3111171237584553e+00  5.2430774678206129e+00  5.1750052655092462e+00  5.1069243268973210e+00  5.0388409077957341e+00  4.9707572234535498e+00  4.9026738356551238e+00  4.8345907954009864e+00  4.7665080156221862e+00  4.6984254019643563e+00  4.6303428843813821e+00  4.5622604197864600e+00  4.4941779832005890e+00  4.4260955613780189e+00  4.3580131472983634e+00  4.2899307375282980e+00  4.2218483303011585e+00  4.1537659247958967e+00  4.0856835205801154e+00  4.0176011174606652e+00  3.9495187153284839e+00  3.8814363141372485e+00  3.8133539138578563e+00  3.7452715144789295e+00  3.6771891159921353e+00  3.6091067183945960e+00  3.5410243216838517e+00  3.4729419258591316e+00  3.4048595309196483e+00  3.3367771368652153e+00  3.2686947436955425e+00  3.2006123514106268e+00  3.1325299600102068e+00  3.0644475694946358e+00  2.9963651798631559e+00  2.9282827911171014e+00  2.8602004032539856e+00  2.7921180162781987e+00  2.7240356301818909e+00  2.6559532449788956e+00  2.5878708606448799e+00  2.5197884772221033e+00  2.4517060946373497e+00  2.3836237130158850e+00  2.3155413321444187e+00  2.2474589523818156e+00  2.1793765731283590e+00  2.1112941953743505e+00  2.0432118174968807e+00  1.9751294421235428e+00  1.9070470650350451e+00  1.8389646929237340e+00  1.7708823152630149e+00  1.7027999484037459e+00  1.6347175671488345e+00  1.5666352098072895e+00  1.4985528185477972e+00  1.4304704792049174e+00  1.3623880652157836e+00  1.2943057584815980e+00  1.2262233008595087e+00  1.1581410474344489e+00  1.0900585413504704e+00  1.0219763808078361e+00  9.5389398103392453e-01  8.8581189258842441e-01  8.1772968389983802e-01  7.4964514547843697e-01  6.8155849671549651e-01  6.1345736602598389e-01  5.4535546565846582e-01  4.7722109510731203e-01  4.0913162861951258e-01  3.4097504218469926e-01  2.7304486690626206e-01  2.0477184017638134e-01  1.3743322943750108e-01  6.7159731821448243e-02  2.1135638345685130e-03  5.4479378711660917e+00  5.3790008206767412e+00  5.3110848800919515e+00  5.2430295544572347e+00  5.1749558240984497e+00  5.1068742850725712e+00  5.0387908234870693e+00  4.9707072372730545e+00  4.9026239575139252e+00  4.8345410006130134e+00  4.7664582758655802e+00  4.6983756950264990e+00  4.6302931959213351e+00  4.5622107413181094e+00  4.4941283099784828e+00  4.4260458908460043e+00  4.3579634781193448e+00  4.2898810690272704e+00  4.2217986621342281e+00  4.1537162567967947e+00  4.0856338526629132e+00  4.0175514495857554e+00  3.9494690474738139e+00  3.8813866462937727e+00  3.8133042460194977e+00  3.7452218466438461e+00  3.6771394481584854e+00  3.6090570505621500e+00  3.5409746538519968e+00  3.4728922580278949e+00  3.4048098630888517e+00  3.3367274690348347e+00  3.2686450758656562e+00  3.2005626835809688e+00  3.1324802921813029e+00  3.0643979016654979e+00  2.9963155120355687e+00  2.9282331232878924e+00  2.8601507354287423e+00  2.7920683484471640e+00  2.7239859623619913e+00  2.6559035771410446e+00  2.5878211928386357e+00  2.5197388093638353e+00  2.4516564268668724e+00  2.3835740451018825e+00  2.3154916644657035e+00  2.2474092843249531e+00  2.1793269056757079e+00  2.1112445269713240e+00  2.0431621505746964e+00  1.9750797729266538e+00  1.9069973992940561e+00  1.8389150220027513e+00  1.7708326520153193e+00  1.7027502739353799e+00  1.6346679088793281e+00  1.5665855284560035e+00  1.4985031695567685e+00  1.4304207855598174e+00  1.3623384316055733e+00  1.2942560461720900e+00  1.2261736864236470e+00  1.1580913176178584e+00  1.0900089283879533e+00  1.0219266734609356e+00  9.5384426159187552e-01  8.8576237031128136e-01  8.1767937335168062e-01  7.4959617764820441e-01  6.8150563302951139e-01  6.1341019287633225e-01  5.4529583688718120e-01  4.7718298732358461e-01  4.0905404476972101e-01  3.4097274764303054e-01  2.7290057570622028e-01  2.0489673011747683e-01  1.3687688239563836e-01  6.8102073052786566e-02  -5.1303297482643514e-04  5.4478605196753618e+00  5.3792969736666372e+00  5.3111180597219070e+00  5.2430227467475961e+00  5.1749344059640325e+00  5.1068483279170644e+00  5.0387634313317236e+00  4.9706793674865315e+00  4.9025959010303657e+00  4.8345128503264982e+00  4.7664300690276393e+00  4.6983474519077104e+00  4.6302649300259047e+00  4.5621824615860893e+00  4.4941000222315139e+00  4.4260175985836563e+00  4.3579351834128639e+00  4.2898527730135161e+00  4.2217703654473331e+00  4.1536879597614691e+00  4.0856055554549107e+00  4.0175231522896508e+00  3.9494407501355897e+00  3.8813583489340511e+00  3.8132759486500771e+00  3.7451935492694273e+00  3.6771111507821344e+00  3.6090287531848646e+00  3.5409463564745223e+00  3.4728639606504759e+00  3.4047815657115352e+00  3.3366991716579180e+00  3.2686167784886324e+00  3.2005343862048519e+00  3.1324519948042764e+00  3.0643696042907917e+00  2.9962872146574622e+00  2.9282048259163989e+00  2.8601224380464720e+00  2.7920400510840913e+00  2.7239576649669819e+00  2.6558752798005472e+00  2.5877928954080587e+00  2.5197105120825136e+00  2.4516281293433662e+00  2.3835457479689901e+00  2.3154633667139057e+00  2.2473809875436759e+00  2.1792986073988101e+00  2.1112162309687657e+00  2.0431338511761403e+00  1.9750514785188324e+00  1.9069690976949796e+00  1.8388867305690884e+00  1.7708043465256846e+00  1.7027219874011028e+00  1.6346395974665255e+00  1.5665572484282773e+00  1.4984748515598905e+00  1.4303925097041397e+00  1.3623101137595159e+00  1.2942277572013807e+00  1.2261453988710360e+00  1.1580629549784500e+00  1.0899807485755353e+00  1.0218980387943908e+00  9.5381624750376881e-01  8.8573266859083877e-01  8.1765110438349764e-01  7.4956297427989405e-01  6.8147713438947144e-01  6.1337197864490267e-01  5.4527431751484601e-01  4.7714125950997638e-01  4.0905124827345513e-01  3.4091718767073109e-01  2.7289972021318859e-01  2.0472380761372502e-01  1.3674486697860053e-01  6.7958889979487708e-02  2.9123547108140992e-04  5.4478666893210210e+00  5.3794590498891290e+00  5.3112163563147492e+00  5.2430769662692409e+00  5.1749737627675003e+00  5.1068827191332504e+00  5.0387961366210110e+00  4.9707114462626043e+00  4.9026277058636074e+00  4.8345445075585696e+00  4.7664616365722390e+00  4.6983789634690618e+00  4.6302964073894213e+00  4.5622139186695190e+00  4.4941314677555919e+00  4.4260490376987045e+00  4.3579666190974331e+00  4.2898842068880558e+00  4.2218017983966485e+00  4.1537193922368196e+00  4.0856369876958327e+00  4.0175545844118785e+00  3.9494721822009056e+00  3.8813897809703968e+00  3.8133073806731761e+00  3.7452249812855629e+00  3.6771425827953608e+00  3.6090601851963706e+00  3.5409777884854527e+00  3.4728953926608082e+00  3.4048129977218644e+00  3.3367306036676205e+00  3.2686482104988546e+00  3.2005658182136036e+00  3.1324834268150750e+00  3.0644010362973888e+00  2.9963186466708409e+00  2.9282362579173657e+00  2.8601538700682858e+00  2.7920714830696478e+00  2.7239890970134764e+00  2.6559067117442670e+00  2.5878243275220956e+00  2.5197419439164661e+00  2.4516595616319177e+00  2.3835771795287490e+00  2.3154947994274586e+00  2.2474124184574089e+00  2.1793300410823466e+00  2.1112476604598940e+00  2.0431652869169561e+00  1.9750829051129304e+00  1.9070005374406942e+00  1.8389181517927993e+00  1.7708357932656693e+00  1.7027533998568165e+00  1.6346710545415388e+00  1.5665886494577255e+00  1.4985063189043792e+00  1.4304239039893134e+00  1.3623415754608552e+00  1.2942591757523878e+00  1.2261767899606664e+00  1.1580944943098730e+00  1.0900118636937572e+00  1.0219298750408423e+00  9.5384637918793469e-01  8.8576477855032165e-01  8.1767786287169486e-01  7.4959500092266262e-01  6.8149619520179672e-01  6.1340836898636131e-01  5.4528456946117787e-01  4.7720112715130120e-01  4.0904888851212351e-01  3.4101609125439614e-01  2.7281873521668110e-01  2.0485752896561507e-01  1.3643432159786409e-01  6.8396102033971284e-02  -2.1013642795161540e-04  5.4478726369141022e+00  5.3795024539440472e+00  5.3112494250961682e+00  5.2430959578739413e+00  5.1749869262608321e+00  5.1068939129834936e+00  5.0388066683551074e+00  4.9707217382274118e+00  4.9026378973552029e+00  4.8345546478457395e+00  4.7664717466368058e+00  4.6983890548493514e+00  4.6303064873695012e+00  4.5622239918872207e+00  4.4941415370940758e+00  4.4260591048819009e+00  4.3579766851215238e+00  4.2898942723046556e+00  4.2218118635034338e+00  4.1537294571884829e+00  4.0856470525718915e+00  4.0175646492515904e+00  3.9494822470238562e+00  3.8813998457857837e+00  3.8133174454854526e+00  3.7452350460966728e+00  3.6771526476061549e+00  3.6090702500072251e+00  3.5409878532963539e+00  3.4729054574719846e+00  3.4048230625328664e+00  3.3367406684791696e+00  3.2686582753095497e+00  3.2005758830258819e+00  3.1324934916245075e+00  3.0644111011117841e+00  2.9963287114764445e+00  2.9282463227381537e+00  2.8601639348627503e+00  2.7920815479090546e+00  2.7239991617766557e+00  2.6559167766353355e+00  2.5878343922008464e+00  2.5197520089441063e+00  2.4516696260934516e+00  2.3835872448987976e+00  2.3155048633599589e+00  2.2474224846368602e+00  2.1793401038036948e+00  2.1112577284304703e+00  2.0431753470537992e+00  1.9750929767588230e+00  1.9070105924965959e+00  1.8389282303252539e+00  1.7708458393156996e+00  1.7027634897876986e+00  1.6346810869508999e+00  1.5665987545154267e+00  1.4985163367375454e+00  1.4304340186021431e+00  1.3623515961292472e+00  1.2942692603699053e+00  1.2261868864181060e+00  1.1581044153128606e+00  1.0900222379103122e+00  1.0219392517617703e+00  9.5385746702603025e-01  8.8577252742721724e-01  8.1769055166896332e-01  7.4959839523327187e-01  6.8151329559711216e-01  6.1340254293109142e-01  5.4531548034185140e-01  4.7717745022628094e-01  4.0911339026773508e-01  3.4094745458282655e-01  2.7293960050207006e-01  2.0468543488151905e-01  1.3663327828245397e-01  6.8172379005542239e-02  1.2813490936665984e-04  5.4478666792745987e+00  5.3794589408613476e+00  5.3112162496588953e+00  5.2430768948711881e+00  5.1749737189274372e+00  5.1068826921467450e+00  5.0387961191257080e+00  4.9707114339223164e+00  4.9026276964002236e+00  4.8345444998183211e+00  4.7664616299330236e+00  4.6983789575572814e+00  4.6302964019630108e+00  4.5622139135677271e+00  4.4941314628716960e+00  4.4260490329620339e+00  4.3579666144609988e+00  4.2898842023203185e+00  4.2218017938762467e+00  4.1537193877491436e+00  4.0856369832308133e+00  4.0175545799625416e+00  3.9494721777624284e+00  3.8813897765394230e+00  3.8133073762473844e+00  3.7452249768633430e+00  3.6771425783755767e+00  3.6090601807782878e+00  3.5409777840685162e+00  3.4728953882446723e+00  3.4048129933062774e+00  3.3367305992524079e+00  3.2686482060839079e+00  3.2005658137988320e+00  3.1324834224004410e+00  3.0644010318828507e+00  2.9963186422563881e+00  2.9282362535029782e+00  2.8601538656539800e+00  2.7920714786554375e+00  2.7239890925993890e+00  2.6559067073303479e+00  2.5878243231084275e+00  2.5197419395031386e+00  2.4516595572191080e+00  2.3835771751166930e+00  2.3154947950165217e+00  2.2474124140480809e+00  2.1793300366754109e+00  2.1112476560564462e+00  2.0431652825185957e+00  1.9750829007221382e+00  1.9070005330606519e+00  1.8389181474291136e+00  1.7708357889245319e+00  1.7027533955507519e+00  1.6346710502824244e+00  1.5665886452727706e+00  1.4985063148160320e+00  1.4304239000550081e+00  1.3623415717211391e+00  1.2942591723254180e+00  1.2261767869107887e+00  1.1580944918702420e+00  1.0900118619287762e+00  1.0219298743518346e+00  9.5384637944693951e-01  8.8576478016495253e-01  8.1767786464424452e-01  7.4959500247112454e-01  6.8149619254747473e-01  6.1340836184363123e-01  5.4528455289478495e-01  4.7720110894193946e-01  4.0904886424224302e-01  3.4101608251224635e-01  2.7281872899705006e-01  2.0485756561738561e-01  1.3643434471304353e-01  6.8396141530998558e-02  -2.1015829883643092e-04  5.4478604882587183e+00  5.3792966885608253e+00  5.3111178298373032e+00  5.2430226037730723e+00  5.1749343183255236e+00  5.1068482722754229e+00  5.0387633931176552e+00  4.9706793387525163e+00  4.9025958777348828e+00  4.8345128303744458e+00  4.7664300512351891e+00  4.6983474355430817e+00  4.6302649146133472e+00  4.5621824468114047e+00  4.4941000078866793e+00  4.4260175845305474e+00  4.3579351695590995e+00  4.2898527592967639e+00  4.2217703518251293e+00  4.1536879462046663e+00  4.0856055419434005e+00  4.0175231388094881e+00  3.9494407366771149e+00  3.8813583354905590e+00  3.8132759352169279e+00  3.7451935358433914e+00  3.6771111373609942e+00  3.6090287397670808e+00  3.5409463430590562e+00  3.4728639472365894e+00  3.4047815522987483e+00  3.3366991582458776e+00  3.2686167650771130e+00  3.2005343727937006e+00  3.1324519813933818e+00  3.0643695908800979e+00  2.9962872012469264e+00  2.9282048125060092e+00  2.8601224246362378e+00  2.7920400376740520e+00  2.7239576515571882e+00  2.6558752663911118e+00  2.5877928819990998e+00  2.5197104986742769e+00  2.4516281159361690e+00  2.3835457345633313e+00  2.3154633533104834e+00  2.2473809741435695e+00  2.1792985940035101e+00  2.1112162175805573e+00  2.0431338377983286e+00  1.9750514651561335e+00  1.9069690843547131e+00  1.8388867172607892e+00  1.7708043332655994e+00  1.7027219742081401e+00  1.6346395843761699e+00  1.5665572354774364e+00  1.4984748388243063e+00  1.4303924972540216e+00  1.3623101017522592e+00  1.2942277457636255e+00  1.2261453883192392e+00  1.1580629455128284e+00  1.0899807407889157e+00  1.0218980328701941e+00  9.5381624430376988e-01  8.8573266751803437e-01  8.1765110549936637e-01  7.4956297310352149e-01  6.8147712758913581e-01  6.1337195601200778e-01  5.4527428136521150e-01  4.7714120785083669e-01  4.0905120358372071e-01  3.4091714346896090e-01  2.7289972443002147e-01  2.0472384034380275e-01  1.3674498167836119e-01  6.7958897456563291e-02  2.9128704029084200e-04  5.4479378326926930e+00  5.3790001489343808e+00  5.3110845234189679e+00  5.2430293279761955e+00  5.1749556731832600e+00  5.1068741763006518e+00  5.0387907374355976e+00  4.9707071634146960e+00  4.9026238905469590e+00  4.8345409378542010e+00  4.7664582158315723e+00  4.6983756368042204e+00  4.6302931389120685e+00  4.5622106851225652e+00  4.4941282543308052e+00  4.4260458355694716e+00  4.3579634230960416e+00  4.2898810141778725e+00  4.2217986074048151e+00  4.1537162021504033e+00  4.0856337980740438e+00  4.0175513950367039e+00  3.9494689929523186e+00  3.8813865917913417e+00  3.8133041915302059e+00  3.7452217921635973e+00  3.6771393936844547e+00  3.6090569960924159e+00  3.5409745993852000e+00  3.4728922035631089e+00  3.4048098086254717e+00  3.3367274145723931e+00  3.2686450214038811e+00  3.2005626291196654e+00  3.1324802377203258e+00  3.0643978472047793e+00  2.9963154575750535e+00  2.9282330688275526e+00  2.8601506809686175e+00  2.7920682939872838e+00  2.7239859079024447e+00  2.6559035226819372e+00  2.5878211383801513e+00  2.5197387549062658e+00  2.4516563724106408e+00  2.3835739906476183e+00  2.3154916100143472e+00  2.2474092298778148e+00  2.1793268512347774e+00  2.1112444725394823e+00  2.0431620961561974e+00  1.9750797185276789e+00  1.9069973449236217e+00  1.8389149676740826e+00  1.7708325977473534e+00  1.7027502197561601e+00  1.6346678548280809e+00  1.5665854745912950e+00  1.4985031159585156e+00  1.4304207323474325e+00  1.3623383789376926e+00  1.2942559942843490e+00  1.2261736356166213e+00  1.1580912683293869e+00  1.0900088811279369e+00  1.0219266289094382e+00  9.5384422029289562e-01  8.8576233258740866e-01  8.1767933804283144e-01  7.4959614151858911e-01  6.8150558827809904e-01  6.1341013096065067e-01  5.4529575069989022e-01  4.7718288555765442e-01  4.0905393788549677e-01  3.4097265756565409e-01  2.7290052715838808e-01  2.0489676731148174e-01  1.3687701334640648e-01  6.8102113125826258e-02  -5.1314887186571119e-04  5.4448550950583057e+00  5.3791725974526923e+00  5.3111167213817465e+00  5.2430772050594090e+00  5.1750050793349436e+00  5.1069241841707553e+00  5.0388407886692281e+00  4.9707571169150251e+00  4.9026737360679755e+00  4.8345906999441439e+00  4.7665079227894189e+00  4.6984253108603626e+00  4.6303427944307671e+00  4.5622603306080007e+00  4.4941778945408224e+00  4.4260954730686164e+00  4.3580130592273365e+00  4.2899306496206355e+00  4.2218482425060415e+00  4.1537658370786170e+00  4.0856834329167659e+00  4.0176010298346689e+00  3.9495186277283572e+00  3.8814362265550395e+00  3.8133538262880085e+00  3.7452714269175802e+00  3.6771890284366440e+00  3.6091066308431632e+00  3.5410242341351812e+00  3.4729418383123649e+00  3.4048594433742023e+00  3.3367770493206619e+00  3.2686946561516090e+00  3.2006122638671468e+00  3.1325298724670398e+00  3.0644474819517171e+00  2.9963650923204352e+00  2.9282827035745620e+00  2.8602003157116567e+00  2.7921179287361264e+00  2.7240355426401659e+00  2.6559531574376369e+00  2.5878707731042732e+00  2.5197883896824624e+00  2.4517060070991108e+00  2.3836236254797352e+00  2.3155412446113237e+00  2.2474588648531815e+00  2.1793764856062561e+00  2.1112941078618488e+00  2.0432117299984403e+00  1.9751293546456838e+00  1.9070469775873644e+00  1.8389646055199433e+00  1.7708822279236462e+00  1.7027998611573716e+00  1.6347174800387894e+00  1.5666351228922646e+00  1.4985527319176151e+00  1.4304703929776459e+00  1.3623879795726974e+00  1.2943056736522818e+00  1.2262232171958494e+00  1.1581409653514150e+00  1.0900584614760633e+00  1.0219763037414420e+00  9.5389390758665160e-01  8.8581182284036530e-01  8.1772961728225801e-01  7.4964507819183046e-01  6.8155842226915064e-01  6.1345727424603913e-01  5.4535535062855967e-01  4.7722095969801792e-01  4.0913148796850335e-01  3.4097490836045202e-01  2.7304479365125650e-01  2.0477180892242780e-01  1.3743342951513104e-01  6.7159569131265279e-02  2.1137620406082459e-03  5.4126680812740569e+00  5.3449579054094114e+00  5.2769347993132358e+00  5.2088750808303352e+00  5.1407981432897634e+00  5.0727158838533430e+00  5.0046323954947844e+00  4.9365489458977638e+00  4.8684658051122822e+00  4.8003829474810606e+00  4.7323002848526174e+00  4.6642177395672269e+00  4.5961352600135967e+00  4.5280528156736262e+00  4.4599703897924758e+00  4.3918879735559351e+00  4.3238055625100635e+00  4.2557231544531486e+00  4.1876407483100051e+00  4.1195583435610370e+00  4.0514759399500333e+00  3.9833935373533302e+00  3.9153111357068187e+00  3.8472287349801673e+00  3.7791463351559456e+00  3.7110639362265969e+00  3.6429815381868731e+00  3.5748991410348991e+00  3.5068167447689826e+00  3.4387343493887212e+00  3.3706519548934586e+00  3.3025695612831254e+00  3.2344871685575178e+00  3.1664047767165355e+00  3.0983223857602731e+00  3.0302399956883725e+00  2.9621576065014197e+00  2.8940752181983003e+00  2.8259928307809332e+00  2.7579104442458977e+00  2.6898280585991161e+00  2.6217456738303389e+00  2.5536632899569098e+00  2.4855809069494375e+00  2.4174985248568324e+00  2.3494161435979435e+00  2.2813337633049255e+00  2.2132513837640184e+00  2.1451690053146724e+00  2.0770866274221897e+00  2.0090042509127963e+00  1.9409218745218222e+00  1.8728395001456919e+00  1.8047571249683656e+00  1.7366747530782449e+00  1.6685923785891967e+00  1.6005100097513281e+00  1.5324276350420809e+00  1.4643452699410655e+00  1.3962628934731494e+00  1.3281805321619615e+00  1.2600981518988472e+00  1.1920157934559357e+00  1.1239334174201927e+00  1.0558510832853885e+00  9.8776879746073354e-01  9.1968657382889130e-01  8.5160433859865414e-01  7.8352102745061925e-01  7.1543497610023199e-01  6.4734127293930743e-01  5.7923829992021303e-01  5.1112207483060790e-01  4.4300537739382528e-01  3.7489392245715419e-01  3.0682457306058092e-01  2.3879124959709458e-01  1.7075797354311950e-01  1.0254961853838036e-01  3.2803231788070535e-02  5.4135687809802429e+00  5.3451759273352630e+00  5.2771228250115261e+00  5.2090463327727612e+00  5.1409643783895218e+00  5.0728805519343219e+00  5.0047966475836088e+00  4.9367131142563787e+00  4.8686299718249488e+00  4.8005471240896105e+00  4.7324644685769464e+00  4.6643819265563211e+00  4.5962994481140029e+00  4.5282170038348646e+00  4.4601345777423962e+00  4.3920521612505246e+00  4.3239697500281338e+00  4.2558873418495704e+00  4.1878049356406786e+00  4.1197225308513445e+00  4.05164012722