<?xml version="1.0"?>
<VTKFile type="UnstructuredGrid"  version="0.1"  >
<UnstructuredGrid>
<Piece  NumberOfPoints="1369" NumberOfCells="2560">
<Points>
<DataArray  type="Float64"  NumberOfComponents="3"  format="ascii">0 0 0  0.75 0 0  1.5 0 0  2.25 0 0  3 0 0  3.75 0 0  4.5 0 0  5.25 0 0  6 0 0  6.75 0 0  7.5 0 0  8.25 0 0  9 0 0  9.75 0 0  10.5 0 0  11.25 0 0  12 0 0  12.75 0 0  13.5 0 0  14.25 0 0  15 0 0  15.75 0 0  16.5 0 0  17.25 0 0  18 0 0  18.75 0 0  19.5 0 0  20.25 0 0  21 0 0  21.75 0 0  22.5 0 0  23.25 0 0  24 0 0  24.75 0 0  25.5 0 0  26.25 0 0  27 0 0  27.75 0 0  28.5 0 0  29.25 0 0  30 0 0  30.75 0 0  31.5 0 0  32.25 0 0  33 0 0  33.75 0 0  34.5 0 0  35.25 0 0  36 0 0  36.75 0 0  37.5 0 0  38.25 0 0  39 0 0  39.75 0 0  40.5 0 0  41.25 0 0  42 0 0  42.75 0 0  43.5 0 0  44.25 0 0  45 0 0  45.75 0 0  46.5 0 0  47.25 0 0  48 0 0  48.75 0 0  49.5 0 0  50.25 0 0  51 0 0  51.75 0 0  52.5 0 0  53.25 0 0  54 0 0  54.75 0 0  55.5 0 0  56.25 0 0  57 0 0  57.75 0 0  58.5 0 0  59.25 0 0  60 0 0  0 0.5 0  0.75 0.5 0  1.5 0.5 0  2.25 0.5 0  3 0.5 0  3.75 0.5 0  4.5 0.5 0  5.25 0.5 0  6 0.5 0  6.75 0.5 0  7.5 0.5 0  8.25 0.5 0  9 0.5 0  9.75 0.5 0  10.5 0.5 0  11.25 0.5 0  12 0.5 0  12.75 0.5 0  13.5 0.5 0  14.25 0.5 0  15 0.5 0  15.75 0.5 0  16.5 0.5 0  17.25 0.5 0  18 0.5 0  18.75 0.5 0  19.5 0.5 0  20.25 0.5 0  21 0.5 0  21.75 0.5 0  22.5 0.5 0  23.25 0.5 0  24 0.5 0  24.75 0.5 0  25.5 0.5 0  26.25 0.5 0  27 0.5 0  27.75 0.5 0  28.5 0.5 0  29.25 0.5 0  30 0.5 0  30.75 0.5 0  31.5 0.5 0  32.25 0.5 0  33 0.5 0  33.75 0.5 0  34.5 0.5 0  35.25 0.5 0  36 0.5 0  36.75 0.5 0  37.5 0.5 0  38.25 0.5 0  39 0.5 0  39.75 0.5 0  40.5 0.5 0  41.25 0.5 0  42 0.5 0  42.75 0.5 0  43.5 0.5 0  44.25 0.5 0  45 0.5 0  45.75 0.5 0  46.5 0.5 0  47.25 0.5 0  48 0.5 0  48.75 0.5 0  49.5 0.5 0  50.25 0.5 0  51 0.5 0  51.75 0.5 0  52.5 0.5 0  53.25 0.5 0  54 0.5 0  54.75 0.5 0  55.5 0.5 0  56.25 0.5 0  57 0.5 0  57.75 0.5 0  58.5 0.5 0  59.25 0.5 0  60 0.5 0  0 1 0  0.75 1 0  1.5 1 0  2.25 1 0  3 1 0  3.75 1 0  4.5 1 0  5.25 1 0  6 1 0  6.75 1 0  7.5 1 0  8.25 1 0  9 1 0  9.75 1 0  10.5 1 0  11.25 1 0  12 1 0  12.75 1 0  13.5 1 0  14.25 1 0  15 1 0  15.75 1 0  16.5 1 0  17.25 1 0  18 1 0  18.75 1 0  19.5 1 0  20.25 1 0  21 1 0  21.75 1 0  22.5 1 0  23.25 1 0  24 1 0  24.75 1 0  25.5 1 0  26.25 1 0  27 1 0  27.75 1 0  28.5 1 0  29.25 1 0  30 1 0  30.75 1 0  31.5 1 0  32.25 1 0  33 1 0  33.75 1 0  34.5 1 0  35.25 1 0  36 1 0  36.75 1 0  37.5 1 0  38.25 1 0  39 1 0  39.75 1 0  40.5 1 0  41.25 1 0  42 1 0  42.75 1 0  43.5 1 0  44.25 1 0  45 1 0  45.75 1 0  46.5 1 0  47.25 1 0  48 1 0  48.75 1 0  49.5 1 0  50.25 1 0  51 1 0  51.75 1 0  52.5 1 0  53.25 1 0  54 1 0  54.75 1 0  55.5 1 0  56.25 1 0  57 1 0  57.75 1 0  58.5 1 0  59.25 1 0  60 1 0  0 1.5 0  0.75 1.5 0  1.5 1.5 0  2.25 1.5 0  3 1.5 0  3.75 1.5 0  4.5 1.5 0  5.25 1.5 0  6 1.5 0  6.75 1.5 0  7.5 1.5 0  8.25 1.5 0  9 1.5 0  9.75 1.5 0  10.5 1.5 0  11.25 1.5 0  12 1.5 0  12.75 1.5 0  13.5 1.5 0  14.25 1.5 0  15 1.5 0  15.75 1.5 0  16.5 1.5 0  17.25 1.5 0  18 1.5 0  18.75 1.5 0  19.5 1.5 0  20.25 1.5 0  21 1.5 0  21.75 1.5 0  22.5 1.5 0  23.25 1.5 0  24 1.5 0  24.75 1.5 0  25.5 1.5 0  26.25 1.5 0  27 1.5 0  27.75 1.5 0  28.5 1.5 0  29.25 1.5 0  30 1.5 0  30.75 1.5 0  31.5 1.5 0  32.25 1.5 0  33 1.5 0  33.75 1.5 0  34.5 1.5 0  35.25 1.5 0  36 1.5 0  36.75 1.5 0  37.5 1.5 0  38.25 1.5 0  39 1.5 0  39.75 1.5 0  40.5 1.5 0  41.25 1.5 0  42 1.5 0  42.75 1.5 0  43.5 1.5 0  44.25 1.5 0  45 1.5 0  45.75 1.5 0  46.5 1.5 0  47.25 1.5 0  48 1.5 0  48.75 1.5 0  49.5 1.5 0  50.25 1.5 0  51 1.5 0  51.75 1.5 0  52.5 1.5 0  53.25 1.5 0  54 1.5 0  54.75 1.5 0  55.5 1.5 0  56.25 1.5 0  57 1.5 0  57.75 1.5 0  58.5 1.5 0  59.25 1.5 0  60 1.5 0  0 2 0  0.75 2 0  1.5 2 0  2.25 2 0  3 2 0  3.75 2 0  4.5 2 0  5.25 2 0  6 2 0  6.75 2 0  7.5 2 0  8.25 2 0  9 2 0  9.75 2 0  10.5 2 0  11.25 2 0  12 2 0  12.75 2 0  13.5 2 0  14.25 2 0  15 2 0  15.75 2 0  16.5 2 0  17.25 2 0  18 2 0  18.75 2 0  19.5 2 0  20.25 2 0  21 2 0  21.75 2 0  22.5 2 0  23.25 2 0  24 2 0  24.75 2 0  25.5 2 0  26.25 2 0  27 2 0  27.75 2 0  28.5 2 0  29.25 2 0  30 2 0  30.75 2 0  31.5 2 0  32.25 2 0  33 2 0  33.75 2 0  34.5 2 0  35.25 2 0  36 2 0  36.75 2 0  37.5 2 0  38.25 2 0  39 2 0  39.75 2 0  40.5 2 0  41.25 2 0  42 2 0  42.75 2 0  43.5 2 0  44.25 2 0  45 2 0  45.75 2 0  46.5 2 0  47.25 2 0  48 2 0  48.75 2 0  49.5 2 0  50.25 2 0  51 2 0  51.75 2 0  52.5 2 0  53.25 2 0  54 2 0  54.75 2 0  55.5 2 0  56.25 2 0  57 2 0  57.75 2 0  58.5 2 0  59.25 2 0  60 2 0  0 2.5 0  0.75 2.5 0  1.5 2.5 0  2.25 2.5 0  3 2.5 0  3.75 2.5 0  4.5 2.5 0  5.25 2.5 0  6 2.5 0  6.75 2.5 0  7.5 2.5 0  8.25 2.5 0  9 2.5 0  9.75 2.5 0  10.5 2.5 0  11.25 2.5 0  12 2.5 0  12.75 2.5 0  13.5 2.5 0  14.25 2.5 0  15 2.5 0  15.75 2.5 0  16.5 2.5 0  17.25 2.5 0  18 2.5 0  18.75 2.5 0  19.5 2.5 0  20.25 2.5 0  21 2.5 0  21.75 2.5 0  22.5 2.5 0  23.25 2.5 0  24 2.5 0  24.75 2.5 0  25.5 2.5 0  26.25 2.5 0  27 2.5 0  27.75 2.5 0  28.5 2.5 0  29.25 2.5 0  30 2.5 0  30.75 2.5 0  31.5 2.5 0  32.25 2.5 0  33 2.5 0  33.75 2.5 0  34.5 2.5 0  35.25 2.5 0  36 2.5 0  36.75 2.5 0  37.5 2.5 0  38.25 2.5 0  39 2.5 0  39.75 2.5 0  40.5 2.5 0  41.25 2.5 0  42 2.5 0  42.75 2.5 0  43.5 2.5 0  44.25 2.5 0  45 2.5 0  45.75 2.5 0  46.5 2.5 0  47.25 2.5 0  48 2.5 0  48.75 2.5 0  49.5 2.5 0  50.25 2.5 0  51 2.5 0  51.75 2.5 0  52.5 2.5 0  53.25 2.5 0  54 2.5 0  54.75 2.5 0  55.5 2.5 0  56.25 2.5 0  57 2.5 0  57.75 2.5 0  58.5 2.5 0  59.25 2.5 0  60 2.5 0  0 3 0  0.75 3 0  1.5 3 0  2.25 3 0  3 3 0  3.75 3 0  4.5 3 0  5.25 3 0  6 3 0  6.75 3 0  7.5 3 0  8.25 3 0  9 3 0  9.75 3 0  10.5 3 0  11.25 3 0  12 3 0  12.75 3 0  13.5 3 0  14.25 3 0  15 3 0  15.75 3 0  16.5 3 0  17.25 3 0  18 3 0  18.75 3 0  19.5 3 0  20.25 3 0  21 3 0  21.75 3 0  22.5 3 0  23.25 3 0  24 3 0  24.75 3 0  25.5 3 0  26.25 3 0  27 3 0  27.75 3 0  28.5 3 0  29.25 3 0  30 3 0  30.75 3 0  31.5 3 0  32.25 3 0  33 3 0  33.75 3 0  34.5 3 0  35.25 3 0  36 3 0  36.75 3 0  37.5 3 0  38.25 3 0  39 3 0  39.75 3 0  40.5 3 0  41.25 3 0  42 3 0  42.75 3 0  43.5 3 0  44.25 3 0  45 3 0  45.75 3 0  46.5 3 0  47.25 3 0  48 3 0  48.75 3 0  49.5 3 0  50.25 3 0  51 3 0  51.75 3 0  52.5 3 0  53.25 3 0  54 3 0  54.75 3 0  55.5 3 0  56.25 3 0  57 3 0  57.75 3 0  58.5 3 0  59.25 3 0  60 3 0  0 3.5 0  0.75 3.5 0  1.5 3.5 0  2.25 3.5 0  3 3.5 0  3.75 3.5 0  4.5 3.5 0  5.25 3.5 0  6 3.5 0  6.75 3.5 0  7.5 3.5 0  8.25 3.5 0  9 3.5 0  9.75 3.5 0  10.5 3.5 0  11.25 3.5 0  12 3.5 0  12.75 3.5 0  13.5 3.5 0  14.25 3.5 0  15 3.5 0  15.75 3.5 0  16.5 3.5 0  17.25 3.5 0  18 3.5 0  18.75 3.5 0  19.5 3.5 0  20.25 3.5 0  21 3.5 0  21.75 3.5 0  22.5 3.5 0  23.25 3.5 0  24 3.5 0  24.75 3.5 0  25.5 3.5 0  26.25 3.5 0  27 3.5 0  27.75 3.5 0  28.5 3.5 0  29.25 3.5 0  30 3.5 0  30.75 3.5 0  31.5 3.5 0  32.25 3.5 0  33 3.5 0  33.75 3.5 0  34.5 3.5 0  35.25 3.5 0  36 3.5 0  36.75 3.5 0  37.5 3.5 0  38.25 3.5 0  39 3.5 0  39.75 3.5 0  40.5 3.5 0  41.25 3.5 0  42 3.5 0  42.75 3.5 0  43.5 3.5 0  44.25 3.5 0  45 3.5 0  45.75 3.5 0  46.5 3.5 0  47.25 3.5 0  48 3.5 0  48.75 3.5 0  49.5 3.5 0  50.25 3.5 0  51 3.5 0  51.75 3.5 0  52.5 3.5 0  53.25 3.5 0  54 3.5 0  54.75 3.5 0  55.5 3.5 0  56.25 3.5 0  57 3.5 0  57.75 3.5 0  58.5 3.5 0  59.25 3.5 0  60 3.5 0  0 4 0  0.75 4 0  1.5 4 0  2.25 4 0  3 4 0  3.75 4 0  4.5 4 0  5.25 4 0  6 4 0  6.75 4 0  7.5 4 0  8.25 4 0  9 4 0  9.75 4 0  10.5 4 0  11.25 4 0  12 4 0  12.75 4 0  13.5 4 0  14.25 4 0  15 4 0  15.75 4 0  16.5 4 0  17.25 4 0  18 4 0  18.75 4 0  19.5 4 0  20.25 4 0  21 4 0  21.75 4 0  22.5 4 0  23.25 4 0  24 4 0  24.75 4 0  25.5 4 0  26.25 4 0  27 4 0  27.75 4 0  28.5 4 0  29.25 4 0  30 4 0  30.75 4 0  31.5 4 0  32.25 4 0  33 4 0  33.75 4 0  34.5 4 0  35.25 4 0  36 4 0  36.75 4 0  37.5 4 0  38.25 4 0  39 4 0  39.75 4 0  40.5 4 0  41.25 4 0  42 4 0  42.75 4 0  43.5 4 0  44.25 4 0  45 4 0  45.75 4 0  46.5 4 0  47.25 4 0  48 4 0  48.75 4 0  49.5 4 0  50.25 4 0  51 4 0  51.75 4 0  52.5 4 0  53.25 4 0  54 4 0  54.75 4 0  55.5 4 0  56.25 4 0  57 4 0  57.75 4 0  58.5 4 0  59.25 4 0  60 4 0  0.375 0.25 0  1.125 0.25 0  1.875 0.25 0  2.625 0.25 0  3.375 0.25 0  4.125 0.25 0  4.875 0.25 0  5.625 0.25 0  6.375 0.25 0  7.125 0.25 0  7.875 0.25 0  8.625 0.25 0  9.375 0.25 0  10.125 0.25 0  10.875 0.25 0  11.625 0.25 0  12.375 0.25 0  13.125 0.25 0  13.875 0.25 0  14.625 0.25 0  15.375 0.25 0  16.125 0.25 0  16.875 0.25 0  17.625 0.25 0  18.375 0.25 0  19.125 0.25 0  19.875 0.25 0  20.625 0.25 0  21.375 0.25 0  22.125 0.25 0  22.875 0.25 0  23.625 0.25 0  24.375 0.25 0  25.125 0.25 0  25.875 0.25 0  26.625 0.25 0  27.375 0.25 0  28.125 0.25 0  28.875 0.25 0  29.625 0.25 0  30.375 0.25 0  31.125 0.25 0  31.875 0.25 0  32.625 0.25 0  33.375 0.25 0  34.125 0.25 0  34.875 0.25 0  35.625 0.25 0  36.375 0.25 0  37.125 0.25 0  37.875 0.25 0  38.625 0.25 0  39.375 0.25 0  40.125 0.25 0  40.875 0.25 0  41.625 0.25 0  42.375 0.25 0  43.125 0.25 0  43.875 0.25 0  44.625 0.25 0  45.375 0.25 0  46.125 0.25 0  46.875 0.25 0  47.625 0.25 0  48.375 0.25 0  49.125 0.25 0  49.875 0.25 0  50.625 0.25 0  51.375 0.25 0  52.125 0.25 0  52.875 0.25 0  53.625 0.25 0  54.375 0.25 0  55.125 0.25 0  55.875 0.25 0  56.625 0.25 0  57.375 0.25 0  58.125 0.25 0  58.875 0.25 0  59.625 0.25 0  0.375 0.75 0  1.125 0.75 0  1.875 0.75 0  2.625 0.75 0  3.375 0.75 0  4.125 0.75 0  4.875 0.75 0  5.625 0.75 0  6.375 0.75 0  7.125 0.75 0  7.875 0.75 0  8.625 0.75 0  9.375 0.75 0  10.125 0.75 0  10.875 0.75 0  11.625 0.75 0  12.375 0.75 0  13.125 0.75 0  13.875 0.75 0  14.625 0.75 0  15.375 0.75 0  16.125 0.75 0  16.875 0.75 0  17.625 0.75 0  18.375 0.75 0  19.125 0.75 0  19.875 0.75 0  20.625 0.75 0  21.375 0.75 0  22.125 0.75 0  22.875 0.75 0  23.625 0.75 0  24.375 0.75 0  25.125 0.75 0  25.875 0.75 0  26.625 0.75 0  27.375 0.75 0  28.125 0.75 0  28.875 0.75 0  29.625 0.75 0  30.375 0.75 0  31.125 0.75 0  31.875 0.75 0  32.625 0.75 0  33.375 0.75 0  34.125 0.75 0  34.875 0.75 0  35.625 0.75 0  36.375 0.75 0  37.125 0.75 0  37.875 0.75 0  38.625 0.75 0  39.375 0.75 0  40.125 0.75 0  40
[...]
<PointData  Scalars="f_8-1"> 
<DataArray  type="Float64"  Name="f_8-1"  format="ascii">-7.0512050193669165e+00  -6.9659045529257320e+00  -6.8757228018356829e+00  -6.7882381912965322e+00  -6.6999772506768327e+00  -6.6119707903479430e+00  -6.5237758514847322e+00  -6.4356186578614869e+00  -6.3474144532862260e+00  -6.2592327650399122e+00  -6.1710531723253066e+00  -6.0828913716007751e+00  -5.9947351015622825e+00  -5.9065843580232045e+00  -5.8184344103143388e+00  -5.7302850766618985e+00  -5.6421357056272310e+00  -5.5539862835937459e+00  -5.4658369177324957e+00  -5.3776874806707813e+00  -5.2895381092993352e+00  -5.2013886870089552e+00  -5.1132393051352540e+00  -5.0250898922816107e+00  -4.9369405001786877e+00  -4.8487910908311918e+00  -4.7606416909431699e+00  -4.6724922816646357e+00  -4.5843428759483098e+00  -4.4961934649113573e+00  -4.4080440545256652e+00  -4.3198946407976990e+00  -4.2317452263533770e+00  -4.1435958094778726e+00  -4.0554463912738576e+00  -3.9672969710374346e+00  -3.8791475492114862e+00  -3.7909981255192364e+00  -3.7028487001312667e+00  -3.6146992729430552e+00  -3.5265498440177541e+00  -3.4384004133174022e+00  -3.3502509808644745e+00  -3.2621015466456771e+00  -3.1739521106687762e+00  -3.0858026729292183e+00  -2.9976532334296087e+00  -2.9095037921684130e+00  -2.8213543491464788e+00  -2.7332049043632667e+00  -2.6450554578189971e+00  -2.5569060095134128e+00  -2.4687565594464651e+00  -2.3806071076177622e+00  -2.2924576540269337e+00  -2.2043081986729165e+00  -2.1161587415541718e+00  -2.0280092826672993e+00  -1.9398598220061127e+00  -1.8517103595581030e+00  -1.7635608952977346e+00  -1.6754114291747764e+00  -1.5872619610821399e+00  -1.4991124908080058e+00  -1.4109630179026909e+00  -1.3228135414756730e+00  -1.2346640596904996e+00  -1.1465145689810079e+00  -1.0583650623495418e+00  -9.7021552694455238e-01  -8.8206593989608861e-01  -7.9391626502123025e-01  -7.0576645311184161e-01  -6.1761646592757746e-01  -5.2946636455706320e-01  -4.4131657477203207e-01  -3.5316869548583324e-01  -2.6502689673707869e-01  -1.7691579330476620e-01  -8.8729595193065308e-02  -3.2066128360815115e-03  -7.0539857963632038e+00  -6.9650779707417261e+00  -6.8762428436548584e+00  -6.7881648526793210e+00  -6.7001194503757544e+00  -6.6119953421388065e+00  -6.5238616677115546e+00  -6.4356740290255701e+00  -6.3474878670752659e+00  -6.2592944801533488e+00  -6.1711200886335709e+00  -6.0829538849253195e+00  -5.9947992700706632e+00  -5.9066472102543033e+00  -5.8184978405882690e+00  -5.7303481753769168e+00  -5.6421989514968791e+00  -5.5540494671772240e+00  -5.4659001130447882e+00  -5.3777506846766139e+00  -5.2896012944786426e+00  -5.2014518924746493e+00  -5.1133024914558325e+00  -5.0251530948221586e+00  -4.9370036895571383e+00  -4.8488542904358125e+00  -4.7607048827994625e+00  -4.6725554792511321e+00  -4.5844060693780877e+00  -4.4962566613065649e+00  -4.4081072488423088e+00  -4.3199578365528657e+00  -4.2318084211307925e+00  -4.1436590049139213e+00  -4.0555095862753534e+00  -3.9673601663249176e+00  -3.8792107443160160e+00  -3.7910613207421857e+00  -3.7029118952812032e+00  -3.6147624681401487e+00  -3.5266130391873776e+00  -3.4384636085053955e+00  -3.3503141760429505e+00  -3.2621647418314410e+00  -3.1740153058517917e+00  -3.0858658681154125e+00  -2.9977164286154969e+00  -2.9095669873560306e+00  -2.8214175443346461e+00  -2.7332680995526601e+00  -2.6451186530092201e+00  -2.5569692047047194e+00  -2.4688197546386843e+00  -2.3806703028111174e+00  -2.2925208492212996e+00  -2.2043713938688301e+00  -2.1162219367516348e+00  -2.0280724778680375e+00  -1.9399230172111988e+00  -1.8517735547736573e+00  -1.7636240905306950e+00  -1.6754746244484970e+00  -1.5873251564313327e+00  -1.4991756863248846e+00  -1.4110262137430838e+00  -1.3228767380003699e+00  -1.2347272575426425e+00  -1.1465777695091033e+00  -1.0584282679543942e+00  -9.7027874223254107e-01  -8.8212917247438238e-01  -7.9397952729565158e-01  -7.0582976176084611e-01  -6.1767984030437673e-01  -5.2952980792156168e-01  -4.4138004242617196e-01  -3.5323187217405294e-01  -2.6509006180965788e-01  -1.7695995209101401e-01  -8.8988869995208525e-02  1.3406532467716322e-04  -7.0531206567553912e+00  -6.9653246340263371e+00  -6.8764026681674553e+00  -6.7883734899409873e+00  -6.7001390749918768e+00  -6.6120720986758901e+00  -6.5238785820174874e+00  -6.4357310146673417e+00  -6.3475248673394384e+00  -6.2593493258283255e+00  -6.1711647214595740e+00  -6.0830047254962301e+00  -5.9948443443158155e+00  -5.9066942102786975e+00  -5.8185424497356539e+00  -5.7303936781737885e+00  -5.6422436497307338e+00  -5.5540945619817101e+00  -5.4659449456966902e+00  -5.3777956529727442e+00  -5.2896461907291510e+00  -5.2014968172908489e+00  -5.1133474092632278e+00  -5.0251980073081750e+00  -4.9370486119393151e+00  -4.8488992015289138e+00  -4.7607498044095671e+00  -4.6726003918115717e+00  -4.5844509892537095e+00  -4.4963015754938098e+00  -4.4081521673132213e+00  -4.3200027518848518e+00  -4.2318533387149131e+00  -4.1437039209190196e+00  -4.0555545033708311e+00  -3.9674050826838085e+00  -3.8792556611675857e+00  -3.7911062372719910e+00  -3.7029568120207466e+00  -3.6148073847472375e+00  -3.5266579558793545e+00  -3.4385085251458523e+00  -3.3503590927164626e+00  -3.2622096584861278e+00  -3.1740602225191226e+00  -3.0859107847764768e+00  -2.9977613452815541e+00  -2.9096119040204460e+00  -2.8214624610013059e+00  -2.7333130162193284e+00  -2.6451635696772002e+00  -2.5570141213732933e+00  -2.4688646713082489e+00  -2.3807152194814254e+00  -2.2925657658923222e+00  -2.2044163105402133e+00  -2.1162668534226121e+00  -2.0281173945369200e+00  -1.9399679338742550e+00  -1.8518184714229955e+00  -1.7636690071502217e+00  -1.6755195410045962e+00  -1.5873700728583726e+00  -1.4992206024898318e+00  -1.4110711293940448e+00  -1.3229216526472567e+00  -1.2347721702905334e+00  -1.1466226787068223e+00  -1.0584731707078729e+00  -9.7032363331428617e-01  -8.8217404229149687e-01  -7.9402435606219779e-01  -7.0587450368376614e-01  -6.1772437297901772e-01  -5.2957377876636302e-01  -4.4142239972641412e-01  -3.5326951476674179e-01  -2.6511293488463716e-01  -1.7694717074328509e-01  -8.8689353868797935e-02  -2.4783144175160271e-05  -7.0536227413926493e+00  -6.9648950001131924e+00  -6.8767452061535286e+00  -6.7882451454768118e+00  -6.7002294528151349e+00  -6.6119708507654185e+00  -6.5238848670411373e+00  -6.4356660759912359e+00  -6.3475151295454904e+00  -6.2593124311292554e+00  -6.1711502692853992e+00  -6.0829753170872127e+00  -5.9948220668450523e+00  -5.9066646159576699e+00  -5.8185155581493486e+00  -5.7303640158745397e+00  -5.6422152242267760e+00  -5.5540651900297897e+00  -5.4659160695594746e+00  -5.3777664721046143e+00  -5.2896171627599324e+00  -5.2014677150603186e+00  -5.1133183305080196e+00  -5.0251689294126338e+00  -4.9370195204509315e+00  -4.8488701274931350e+00  -4.7607207127455249e+00  -4.6725713157359081e+00  -4.5844219002404802e+00  -4.4962724966921570e+00  -4.4081230807259697e+00  -4.3199736710656422e+00  -4.2318242537280284e+00  -4.1436748388821831e+00  -4.0555254192882426e+00  -3.9673759999963183e+00  -3.8792265775452819e+00  -3.7910771542668753e+00  -3.7029277286141355e+00  -3.6147783015980677e+00  -3.5266288725668931e+00  -3.4384794419352205e+00  -3.3503300094425073e+00  -3.2621805752505173e+00  -3.1740311392599052e+00  -3.0858817015310178e+00  -2.9977322620275313e+00  -2.9095828207710768e+00  -2.8214333777488672e+00  -2.7332839329683392e+00  -2.6451344864251096e+00  -2.5569850381215873e+00  -2.4688355880561490e+00  -2.3806861362292984e+00  -2.2925366826399065e+00  -2.2043872272869787e+00  -2.1162377701677628e+00  -2.0280883112773833e+00  -1.9399388506053168e+00  -1.8517893881312155e+00  -1.7636399238125238e+00  -1.6754904575652383e+00  -1.5873409892167232e+00  -1.4991915184253821e+00  -1.4110420445037333e+00  -1.3228925661093283e+00  -1.2347430806202382e+00  -1.1465935830621892e+00  -1.0584440640900958e+00  -9.7029450656690397e-01  -8.8214487927643459e-01  -7.9399512576369036e-01  -7.0584514115100427e-01  -6.1769471802835030e-01  -5.2954339834759645e-01  -4.4139004282115663e-01  -3.5323154575510951e-01  -2.6505914764825561e-01  -1.7684690472192913e-01  -8.8523089204262495e-02  -1.8431471058751430e-05  -7.0533057241771306e+00  -6.9651129606291375e+00  -6.8765553664562971e+00  -6.7884224573948586e+00  -6.7001040548983193e+00  -6.6120437284592688e+00  -6.5238138972680391e+00  -6.4356914078320671e+00  -6.3474787376439128e+00  -6.2593199847892480e+00  -6.1711306418097687e+00  -6.0829734334935379e+00  -5.9948078609579785e+00  -5.9066573466035832e+00  -5.8185031848539355e+00  -5.7303544492076659e+00  -5.6422037251358175e+00  -5.5540547933119342e+00  -5.4659049900086112e+00  -5.3777557717045559e+00  -5.2896062577205250e+00  -5.2014569045733019e+00  -5.1133074867924284e+00  -5.0251580851621922e+00  -4.9370086923659784e+00  -4.8488592774837000e+00  -4.7607098848591365e+00  -4.6725604681102340e+00  -4.5844110690118764e+00  -4.4962616525003360e+00  -4.4081122464310134e+00  -4.3199628294417334e+00  -4.2318134174081106e+00  -4.1436639988112418e+00  -4.0555145818232852e+00  -3.9673651607555129e+00  -3.8792157394967028e+00  -3.7910663154313293e+00  -3.7029168902913154e+00  -3.6147674629461677e+00  -3.5266180341237114e+00  -3.4384686033613465e+00  -3.3503191709495042e+00  -3.2621697367079503e+00  -3.1740203007472960e+00  -3.0858708630003600e+00  -2.9977214235075329e+00  -2.9095719822447448e+00  -2.8214225392262113e+00  -2.7332730944435726e+00  -2.6451236479016393e+00  -2.5569741995975481e+00  -2.4688247495327262e+00  -2.3806752977059720e+00  -2.2925258441171419e+00  -2.2043763887646435e+00  -2.1162269316459548e+00  -2.0280774727555513e+00  -1.9399280120823070e+00  -1.8517785496034753e+00  -1.7636290852726726e+00  -1.6754796189960219e+00  -1.5873301505835242e+00  -1.4991806796550455e+00  -1.4110312054542538e+00  -1.3228817264987960e+00  -1.2347322399209704e+00  -1.1465827402816533e+00  -1.0584332174409139e+00  -9.7028365281550888e-01  -8.8213401259143520e-01  -7.9398423473496949e-01  -7.0583420077887926e-01  -6.1768366555840071e-01  -5.2953206086756188e-01  -4.4137792039364598e-01  -3.5321720365682463e-01  -2.6503852426253433e-01  -1.7681126531292565e-01  -8.8476275501110424e-02  -1.4337073631707228e-05  -7.0536227566656891e+00  -6.9648949705609295e+00  -6.8767451816405503e+00  -6.7882451129722119e+00  -6.7002294587423412e+00  -6.6119708646033652e+00  -6.5238848953410074e+00  -6.4356661009370963e+00  -6.3475151539527941e+00  -6.2593124479103546e+00  -6.1711502797734976e+00  -6.0829753210008519e+00  -5.9948220680332707e+00  -5.9066646161680261e+00  -5.8185155592491693e+00  -5.7303640180835496e+00  -5.6422152277478679e+00  -5.5540651945340214e+00  -5.4659160748984892e+00  -5.3777664780096499e+00  -5.2896171691058402e+00  -5.2014677216980427e+00  -5.1133183373654330e+00  -5.0251689364147714e+00  -4.9370195275599738e+00  -4.8488701346724437e+00  -4.7607207199760868e+00  -4.6725713230001045e+00  -4.5844219075289656e+00  -4.4962725039966234e+00  -4.4081230880418323e+00  -4.3199736783890543e+00  -4.2318242610567625e+00  -4.1436748462144770e+00  -4.0555254266229870e+00  -3.9673760073327560e+00  -3.8792265848828507e+00  -3.7910771616052328e+00  -3.7029277359530304e+00  -3.6147783089373391e+00  -3.5266288799064172e+00  -3.4384794492749240e+00  -3.3503300167823409e+00  -3.2621805825904553e+00  -3.1740311465999320e+00  -3.0858817088711330e+00  -2.9977322693677468e+00  -2.9095828281114278e+00  -2.8214333850893825e+00  -2.7332839403091080e+00  -2.6451344937662262e+00  -2.5569850454632226e+00  -2.4688355953985344e+00  -2.3806861435727855e+00  -2.2925366899849871e+00  -2.2043872346344058e+00  -2.1162377775186121e+00  -2.0280883186332388e+00  -1.9399388579684738e+00  -1.8517893955050388e+00  -1.7636399312019313e+00  -1.6754904649774582e+00  -1.5873409966623939e+00  -1.4991915259202533e+00  -1.4110420520712557e+00  -1.3228925737847228e+00  -1.2347430884569206e+00  -1.1465935911421965e+00  -1.0584440725411155e+00  -9.7029451559056001e-01  -8.8214488919538026e-01  -7.9399513709884395e-01  -7.0584515474617093e-01  -6.1769473525827578e-01  -5.2954342150043054e-01  -4.4139007583229101e-01  -3.5323159539031068e-01  -2.6505922420691580e-01  -1.7684701574960066e-01  -8.8523201709003796e-02  -1.8440113848466942e-05  -7.0531206211784578e+00  -6.9653246314487349e+00  -6.8764025680542131e+00  -6.7883734539643648e+00  -6.7001390765974378e+00  -6.6120721476613227e+00  -6.5238786393260098e+00  -6.4357310749463492e+00  -6.3475249192221703e+00  -6.2593493669363589e+00  -6.1711647454406213e+00  -6.0830047378086842e+00  -5.9948443498297097e+00  -5.9066942152074056e+00  -5.8185424561962185e+00  -5.7303936874761847e+00  -5.6422436614695339e+00  -5.5540945758878104e+00  -5.4659449611387538e+00  -5.3777956696118929e+00  -5.2896462081793274e+00  -5.2014968353470792e+00  -5.1133474277257180e+00  -5.0251980260680291e+00  -4.9370486308978103e+00  -4.8488992206307895e+00  -4.7607498236070143e+00  -4.6726004110772443e+00  -4.5844510085648844e+00  -4.4963015948371448e+00  -4.4081521866780715e+00  -4.3200027712647637e+00  -4.2318533581049529e+00  -4.1437039403160751e+00  -4.0555545227726340e+00  -3.9674051020888768e+00  -3.8792556805748770e+00  -3.7911062566808016e+00  -3.7029568314306092e+00  -3.6148074041578222e+00  -3.5266579752904437e+00  -3.4385085445572763e+00  -3.3503591121281482e+00  -3.2622096778980088e+00  -3.1740602419311781e+00  -3.0859108041887113e+00  -2.9977613646939814e+00  -2.9096119234331224e+00  -2.8214624804143185e+00  -2.7333130356328179e+00  -2.6451635890913860e+00  -2.5570141407884690e+00  -2.4688646907248901e+00  -2.3807152389001920e+00  -2.2925657853142032e+00  -2.2044163299666395e+00  -2.1162668728556921e+00  -2.0281174139797180e+00  -1.9399679533312244e+00  -1.8518184909006861e+00  -1.7636690266581596e+00  -1.6755195605567879e+00  -1.5873700924754230e+00  -1.4992206222021807e+00  -1.4110711492469781e+00  -1.3229216727086310e+00  -1.2347721906630191e+00  -1.1466226995475806e+00  -1.0584731922605821e+00  -9.7032365596230763e-01  -8.8217406664682607e-01  -7.9402438311316492e-01  -7.0587453503399000e-01  -6.1772441123465527e-01  -5.2957382822201393e-01  -4.4142246772078303e-01  -3.5326961424754899e-01  -2.6511308756987056e-01  -1.7694740783397728e-01  -8.8689645041227894e-02  -2.4810991340038892e-05  -7.0539858829846551e+00  -6.9650779705442734e+00  -6.8762427210328747e+00  -6.7881648212234342e+00  -6.7001194979898218e+00  -6.6119954411123825e+00  -6.5238617856735175e+00  -6.4356741432223146e+00  -6.3474879719269826e+00  -6.2592945658511763e+00  -6.1711201540178013e+00  -6.0829539348578594e+00  -5.9947993132826136e+00  -5.9066472528207346e+00  -5.8184978858406371e+00  -5.7303482241226433e+00  -5.6421990035439746e+00  -5.5540495218676185e+00  -5.4659001697514746e+00  -5.3777507428434959e+00  -5.2896013536983979e+00  -5.2014519524349572e+00  -5.1133025519398352e+00  -5.0251531556701545e+00  -4.9370037506598994e+00  -4.8488543517143299e+00  -4.7607049442000902e+00  -4.6725555407355586e+00  -4.5844061309204180e+00  -4.4962567228884982e+00  -4.4081073104515198e+00  -4.3199578981807027e+00  -4.2318084827713855e+00  -4.1436590665632194e+00  -4.0555096479306316e+00  -3.9673602279842579e+00  -3.8792108059781381e+00  -3.7910613824062200e+00  -3.7029119569465401e+00  -3.6147625298063919e+00  -3.5266131008542505e+00  -3.4384636701726845e+00  -3.3503142377105717e+00  -3.2621648034993109e+00  -3.1740153675198770e+00  -3.0858659297837172e+00  -2.9977164902840481e+00  -2.9095670490248922e+00  -2.8214176060039291e+00  -2.7332681612225342e+00  -2.6451187146799664e+00  -2.5569692663767039e+00  -2.4688198163124979e+00  -2.3806703644875817e+00  -2.2925209109016476e+00  -2.2043714555548450e+00  -2.1162219984459494e+00  -2.0280725395744730e+00  -1.9399230789353055e+00  -1.8517736165235970e+00  -1.7636241523183327e+00  -1.6754746862913179e+00  -1.5873252183550186e+00  -1.4991757483674426e+00  -1.4110262759611065e+00  -1.3228768004788225e+00  -1.2347273204103897e+00  -1.1465778329640317e+00  -1.0584283323043544e+00  -9.7027880796297905e-01  -8.8212924036014928e-01  -7.9397959858419020e-01  -7.0582983846987679e-01  -6.1767992572111563e-01  -5.2952990753237295e-01  -4.4138016579702888e-01  -3.5323203648855850e-01  -2.6509029793868910e-01  -1.7696030642782382e-01  -8.8989539457148936e-02  1.3403168052147435e-04  -7.0512045736865430e+00  -6.9659048064105757e+00  -6.8757226052127178e+00  -6.7882382367744505e+00  -6.6999773259246886e+00  -6.6119709382977971e+00  -6.5237760067688733e+00  -6.4356188117096496e+00  -6.3474145921507183e+00  -6.2592328842485667e+00  -6.1710532705757331e+00  -6.0828914558231952e+00  -5.9947351794834409e+00  -5.9065844360860202e+00  -5.8184344912462880e+00  -5.7302851614631427e+00  -5.6421357938476069e+00  -5.5539863746547207e+00  -5.4658370108833108e+00  -5.3776875753807092e+00  -5.2895382051017474e+00  -5.2013887835994206e+00  -5.1132394022692669e+00  -5.0250899898020149e+00  -4.9369405979635301e+00  -4.8487911888022319e+00  -4.7606417890410251e+00  -4.6724923798511160e+00  -4.5843429741949944e+00  -4.4961935631997987e+00  -4.4080441528425700e+00  -4.3198947391341758e+00  -4.2317453247031791e+00  -4.1435959078368061e+00  -4.0554464896390510e+00  -3.9672970694068885e+00  -3.8791476475838449e+00  -3.7909982238936117e+00  -3.7028487985069969e+00  -3.6146993713197322e+00  -3.5265499423950919e+00  -3.4384005116951655e+00  -3.3502510792425886e+00  -3.2621016450240514e+00  -3.1739522090473620e+00  -3.0858027713080260e+00  -2.9976533318086469e+00  -2.9095038905477613e+00  -2.8213544475262275e+00  -2.7332050027435764e+00  -2.6450555562001403e+00  -2.5569061078957263e+00  -2.4687566578305140e+00  -2.3806072060043157e+00  -2.2924577524171621e+00  -2.2043082970685077e+00  -2.1161588399576106e+00  -2.0280093810821969e+00  -1.9398599204377174e+00  -1.8517104580141230e+00  -1.7635609937893997e+00  -1.6754115277186401e+00  -1.5872620597025888e+00  -1.4991125895412021e+00  -1.4109631168026904e+00  -1.3228136406239643e+00  -1.2346641592113270e+00  -1.1465146690661747e+00  -1.0583651632992328e+00  -9.7021562923479965e-01  -8.8206604429073809e-01  -7.9391637275505744e-01  -7.0576656619263589e-01  -6.1761658765644334e-01  -5.2946650051493249e-01  -4.4131673476116473e-01  -3.5316889703249671e-01  -2.6502716942114568e-01  -1.7691619512622711e-01  -8.8730078509826907e-02  -3.2096204497192469e-03  -7.0105449177064099e+00  -6.9206672019114883e+00  -6.8323966490309065e+00  -6.7443141720633415e+00  -6.6562337485876624e+00  -6.5681136330032635e+00  -6.4799465414000403e+00  -6.3917629527860287e+00  -6.3035708306388605e+00  -6.2153890518159089e+00  -6.1272181318516665e+00  -6.0390587176401009e+00  -5.9509051237239046e+00  -5.8627547149761101e+00  -5.7746050648835068e+00  -5.6864557119103170e+00  -5.5983063110388986e+00  -5.5101569214981820e+00  -5.4220075166208970e+00  -5.3338581145742765e+00  -5.2457087164827660e+00  -5.1575593148067620e+00  -5.0694099174453608e+00  -4.9812605146880866e+00  -4.8931111143297716e+00  -4.8049617093369204e+00  -4.7168123050968243e+00  -4.6286628973201678e+00  -4.5405134891729251e+00  -4.4523640782951350e+00  -4.3642146663696160e+00  -4.2760652521974825e+00  -4.1879158366062033e+00  -4.0997664190274854e+00  -4.0116169998416806e+00  -3.9234675787957745e+00  -3.8353181560542957e+00  -3.7471687315108597e+00  -3.6590193052327824e+00  -3.5708698771776408e+00  -3.4827204473716500e+00  -3.3945710157986468e+00  -3.3064215824683592e+00  -3.2182721473749121e+00  -3.1301227105217877e+00  -3.0419732719068886e+00  -2.9538238315314174e+00  -2.8656743893946497e+00  -2.7775249454969382e+00  -2.6893754998380133e+00  -2.6012260524179522e+00  -2.5130766032365064e+00  -2.4249271522935953e+00  -2.3367776995886858e+00  -2.2486282451214494e+00  -2.1604787888902570e+00  -2.0723293308936785e+00  -1.9841798711265923e+00  -1.8960304095825988e+00  -1.8078809462435141e+00  -1.7197314810809148e+00  -1.6315820140240553e+00  -1.5434325449466733e+00  -1.4552830735590059e+00  -1.3671335993103721e+00  -1.2789841210133066e+00  -1.1908346363823392e+00  -1.102685140786