<?xml version="1.0"?>
<VTKFile type="UnstructuredGrid"  version="0.1"  >
<UnstructuredGrid>
<Piece  NumberOfPoints="1369" NumberOfCells="2560">
<Points>
<DataArray  type="Float64"  NumberOfComponents="3"  format="ascii">0 0 0  0.75 0 0  1.5 0 0  2.25 0 0  3 0 0  3.75 0 0  4.5 0 0  5.25 0 0  6 0 0  6.75 0 0  7.5 0 0  8.25 0 0  9 0 0  9.75 0 0  10.5 0 0  11.25 0 0  12 0 0  12.75 0 0  13.5 0 0  14.25 0 0  15 0 0  15.75 0 0  16.5 0 0  17.25 0 0  18 0 0  18.75 0 0  19.5 0 0  20.25 0 0  21 0 0  21.75 0 0  22.5 0 0  23.25 0 0  24 0 0  24.75 0 0  25.5 0 0  26.25 0 0  27 0 0  27.75 0 0  28.5 0 0  29.25 0 0  30 0 0  30.75 0 0  31.5 0 0  32.25 0 0  33 0 0  33.75 0 0  34.5 0 0  35.25 0 0  36 0 0  36.75 0 0  37.5 0 0  38.25 0 0  39 0 0  39.75 0 0  40.5 0 0  41.25 0 0  42 0 0  42.75 0 0  43.5 0 0  44.25 0 0  45 0 0  45.75 0 0  46.5 0 0  47.25 0 0  48 0 0  48.75 0 0  49.5 0 0  50.25 0 0  51 0 0  51.75 0 0  52.5 0 0  53.25 0 0  54 0 0  54.75 0 0  55.5 0 0  56.25 0 0  57 0 0  57.75 0 0  58.5 0 0  59.25 0 0  60 0 0  0 0.5 0  0.75 0.5 0  1.5 0.5 0  2.25 0.5 0  3 0.5 0  3.75 0.5 0  4.5 0.5 0  5.25 0.5 0  6 0.5 0  6.75 0.5 0  7.5 0.5 0  8.25 0.5 0  9 0.5 0  9.75 0.5 0  10.5 0.5 0  11.25 0.5 0  12 0.5 0  12.75 0.5 0  13.5 0.5 0  14.25 0.5 0  15 0.5 0  15.75 0.5 0  16.5 0.5 0  17.25 0.5 0  18 0.5 0  18.75 0.5 0  19.5 0.5 0  20.25 0.5 0  21 0.5 0  21.75 0.5 0  22.5 0.5 0  23.25 0.5 0  24 0.5 0  24.75 0.5 0  25.5 0.5 0  26.25 0.5 0  27 0.5 0  27.75 0.5 0  28.5 0.5 0  29.25 0.5 0  30 0.5 0  30.75 0.5 0  31.5 0.5 0  32.25 0.5 0  33 0.5 0  33.75 0.5 0  34.5 0.5 0  35.25 0.5 0  36 0.5 0  36.75 0.5 0  37.5 0.5 0  38.25 0.5 0  39 0.5 0  39.75 0.5 0  40.5 0.5 0  41.25 0.5 0  42 0.5 0  42.75 0.5 0  43.5 0.5 0  44.25 0.5 0  45 0.5 0  45.75 0.5 0  46.5 0.5 0  47.25 0.5 0  48 0.5 0  48.75 0.5 0  49.5 0.5 0  50.25 0.5 0  51 0.5 0  51.75 0.5 0  52.5 0.5 0  53.25 0.5 0  54 0.5 0  54.75 0.5 0  55.5 0.5 0  56.25 0.5 0  57 0.5 0  57.75 0.5 0  58.5 0.5 0  59.25 0.5 0  60 0.5 0  0 1 0  0.75 1 0  1.5 1 0  2.25 1 0  3 1 0  3.75 1 0  4.5 1 0  5.25 1 0  6 1 0  6.75 1 0  7.5 1 0  8.25 1 0  9 1 0  9.75 1 0  10.5 1 0  11.25 1 0  12 1 0  12.75 1 0  13.5 1 0  14.25 1 0  15 1 0  15.75 1 0  16.5 1 0  17.25 1 0  18 1 0  18.75 1 0  19.5 1 0  20.25 1 0  21 1 0  21.75 1 0  22.5 1 0  23.25 1 0  24 1 0  24.75 1 0  25.5 1 0  26.25 1 0  27 1 0  27.75 1 0  28.5 1 0  29.25 1 0  30 1 0  30.75 1 0  31.5 1 0  32.25 1 0  33 1 0  33.75 1 0  34.5 1 0  35.25 1 0  36 1 0  36.75 1 0  37.5 1 0  38.25 1 0  39 1 0  39.75 1 0  40.5 1 0  41.25 1 0  42 1 0  42.75 1 0  43.5 1 0  44.25 1 0  45 1 0  45.75 1 0  46.5 1 0  47.25 1 0  48 1 0  48.75 1 0  49.5 1 0  50.25 1 0  51 1 0  51.75 1 0  52.5 1 0  53.25 1 0  54 1 0  54.75 1 0  55.5 1 0  56.25 1 0  57 1 0  57.75 1 0  58.5 1 0  59.25 1 0  60 1 0  0 1.5 0  0.75 1.5 0  1.5 1.5 0  2.25 1.5 0  3 1.5 0  3.75 1.5 0  4.5 1.5 0  5.25 1.5 0  6 1.5 0  6.75 1.5 0  7.5 1.5 0  8.25 1.5 0  9 1.5 0  9.75 1.5 0  10.5 1.5 0  11.25 1.5 0  12 1.5 0  12.75 1.5 0  13.5 1.5 0  14.25 1.5 0  15 1.5 0  15.75 1.5 0  16.5 1.5 0  17.25 1.5 0  18 1.5 0  18.75 1.5 0  19.5 1.5 0  20.25 1.5 0  21 1.5 0  21.75 1.5 0  22.5 1.5 0  23.25 1.5 0  24 1.5 0  24.75 1.5 0  25.5 1.5 0  26.25 1.5 0  27 1.5 0  27.75 1.5 0  28.5 1.5 0  29.25 1.5 0  30 1.5 0  30.75 1.5 0  31.5 1.5 0  32.25 1.5 0  33 1.5 0  33.75 1.5 0  34.5 1.5 0  35.25 1.5 0  36 1.5 0  36.75 1.5 0  37.5 1.5 0  38.25 1.5 0  39 1.5 0  39.75 1.5 0  40.5 1.5 0  41.25 1.5 0  42 1.5 0  42.75 1.5 0  43.5 1.5 0  44.25 1.5 0  45 1.5 0  45.75 1.5 0  46.5 1.5 0  47.25 1.5 0  48 1.5 0  48.75 1.5 0  49.5 1.5 0  50.25 1.5 0  51 1.5 0  51.75 1.5 0  52.5 1.5 0  53.25 1.5 0  54 1.5 0  54.75 1.5 0  55.5 1.5 0  56.25 1.5 0  57 1.5 0  57.75 1.5 0  58.5 1.5 0  59.25 1.5 0  60 1.5 0  0 2 0  0.75 2 0  1.5 2 0  2.25 2 0  3 2 0  3.75 2 0  4.5 2 0  5.25 2 0  6 2 0  6.75 2 0  7.5 2 0  8.25 2 0  9 2 0  9.75 2 0  10.5 2 0  11.25 2 0  12 2 0  12.75 2 0  13.5 2 0  14.25 2 0  15 2 0  15.75 2 0  16.5 2 0  17.25 2 0  18 2 0  18.75 2 0  19.5 2 0  20.25 2 0  21 2 0  21.75 2 0  22.5 2 0  23.25 2 0  24 2 0  24.75 2 0  25.5 2 0  26.25 2 0  27 2 0  27.75 2 0  28.5 2 0  29.25 2 0  30 2 0  30.75 2 0  31.5 2 0  32.25 2 0  33 2 0  33.75 2 0  34.5 2 0  35.25 2 0  36 2 0  36.75 2 0  37.5 2 0  38.25 2 0  39 2 0  39.75 2 0  40.5 2 0  41.25 2 0  42 2 0  42.75 2 0  43.5 2 0  44.25 2 0  45 2 0  45.75 2 0  46.5 2 0  47.25 2 0  48 2 0  48.75 2 0  49.5 2 0  50.25 2 0  51 2 0  51.75 2 0  52.5 2 0  53.25 2 0  54 2 0  54.75 2 0  55.5 2 0  56.25 2 0  57 2 0  57.75 2 0  58.5 2 0  59.25 2 0  60 2 0  0 2.5 0  0.75 2.5 0  1.5 2.5 0  2.25 2.5 0  3 2.5 0  3.75 2.5 0  4.5 2.5 0  5.25 2.5 0  6 2.5 0  6.75 2.5 0  7.5 2.5 0  8.25 2.5 0  9 2.5 0  9.75 2.5 0  10.5 2.5 0  11.25 2.5 0  12 2.5 0  12.75 2.5 0  13.5 2.5 0  14.25 2.5 0  15 2.5 0  15.75 2.5 0  16.5 2.5 0  17.25 2.5 0  18 2.5 0  18.75 2.5 0  19.5 2.5 0  20.25 2.5 0  21 2.5 0  21.75 2.5 0  22.5 2.5 0  23.25 2.5 0  24 2.5 0  24.75 2.5 0  25.5 2.5 0  26.25 2.5 0  27 2.5 0  27.75 2.5 0  28.5 2.5 0  29.25 2.5 0  30 2.5 0  30.75 2.5 0  31.5 2.5 0  32.25 2.5 0  33 2.5 0  33.75 2.5 0  34.5 2.5 0  35.25 2.5 0  36 2.5 0  36.75 2.5 0  37.5 2.5 0  38.25 2.5 0  39 2.5 0  39.75 2.5 0  40.5 2.5 0  41.25 2.5 0  42 2.5 0  42.75 2.5 0  43.5 2.5 0  44.25 2.5 0  45 2.5 0  45.75 2.5 0  46.5 2.5 0  47.25 2.5 0  48 2.5 0  48.75 2.5 0  49.5 2.5 0  50.25 2.5 0  51 2.5 0  51.75 2.5 0  52.5 2.5 0  53.25 2.5 0  54 2.5 0  54.75 2.5 0  55.5 2.5 0  56.25 2.5 0  57 2.5 0  57.75 2.5 0  58.5 2.5 0  59.25 2.5 0  60 2.5 0  0 3 0  0.75 3 0  1.5 3 0  2.25 3 0  3 3 0  3.75 3 0  4.5 3 0  5.25 3 0  6 3 0  6.75 3 0  7.5 3 0  8.25 3 0  9 3 0  9.75 3 0  10.5 3 0  11.25 3 0  12 3 0  12.75 3 0  13.5 3 0  14.25 3 0  15 3 0  15.75 3 0  16.5 3 0  17.25 3 0  18 3 0  18.75 3 0  19.5 3 0  20.25 3 0  21 3 0  21.75 3 0  22.5 3 0  23.25 3 0  24 3 0  24.75 3 0  25.5 3 0  26.25 3 0  27 3 0  27.75 3 0  28.5 3 0  29.25 3 0  30 3 0  30.75 3 0  31.5 3 0  32.25 3 0  33 3 0  33.75 3 0  34.5 3 0  35.25 3 0  36 3 0  36.75 3 0  37.5 3 0  38.25 3 0  39 3 0  39.75 3 0  40.5 3 0  41.25 3 0  42 3 0  42.75 3 0  43.5 3 0  44.25 3 0  45 3 0  45.75 3 0  46.5 3 0  47.25 3 0  48 3 0  48.75 3 0  49.5 3 0  50.25 3 0  51 3 0  51.75 3 0  52.5 3 0  53.25 3 0  54 3 0  54.75 3 0  55.5 3 0  56.25 3 0  57 3 0  57.75 3 0  58.5 3 0  59.25 3 0  60 3 0  0 3.5 0  0.75 3.5 0  1.5 3.5 0  2.25 3.5 0  3 3.5 0  3.75 3.5 0  4.5 3.5 0  5.25 3.5 0  6 3.5 0  6.75 3.5 0  7.5 3.5 0  8.25 3.5 0  9 3.5 0  9.75 3.5 0  10.5 3.5 0  11.25 3.5 0  12 3.5 0  12.75 3.5 0  13.5 3.5 0  14.25 3.5 0  15 3.5 0  15.75 3.5 0  16.5 3.5 0  17.25 3.5 0  18 3.5 0  18.75 3.5 0  19.5 3.5 0  20.25 3.5 0  21 3.5 0  21.75 3.5 0  22.5 3.5 0  23.25 3.5 0  24 3.5 0  24.75 3.5 0  25.5 3.5 0  26.25 3.5 0  27 3.5 0  27.75 3.5 0  28.5 3.5 0  29.25 3.5 0  30 3.5 0  30.75 3.5 0  31.5 3.5 0  32.25 3.5 0  33 3.5 0  33.75 3.5 0  34.5 3.5 0  35.25 3.5 0  36 3.5 0  36.75 3.5 0  37.5 3.5 0  38.25 3.5 0  39 3.5 0  39.75 3.5 0  40.5 3.5 0  41.25 3.5 0  42 3.5 0  42.75 3.5 0  43.5 3.5 0  44.25 3.5 0  45 3.5 0  45.75 3.5 0  46.5 3.5 0  47.25 3.5 0  48 3.5 0  48.75 3.5 0  49.5 3.5 0  50.25 3.5 0  51 3.5 0  51.75 3.5 0  52.5 3.5 0  53.25 3.5 0  54 3.5 0  54.75 3.5 0  55.5 3.5 0  56.25 3.5 0  57 3.5 0  57.75 3.5 0  58.5 3.5 0  59.25 3.5 0  60 3.5 0  0 4 0  0.75 4 0  1.5 4 0  2.25 4 0  3 4 0  3.75 4 0  4.5 4 0  5.25 4 0  6 4 0  6.75 4 0  7.5 4 0  8.25 4 0  9 4 0  9.75 4 0  10.5 4 0  11.25 4 0  12 4 0  12.75 4 0  13.5 4 0  14.25 4 0  15 4 0  15.75 4 0  16.5 4 0  17.25 4 0  18 4 0  18.75 4 0  19.5 4 0  20.25 4 0  21 4 0  21.75 4 0  22.5 4 0  23.25 4 0  24 4 0  24.75 4 0  25.5 4 0  26.25 4 0  27 4 0  27.75 4 0  28.5 4 0  29.25 4 0  30 4 0  30.75 4 0  31.5 4 0  32.25 4 0  33 4 0  33.75 4 0  34.5 4 0  35.25 4 0  36 4 0  36.75 4 0  37.5 4 0  38.25 4 0  39 4 0  39.75 4 0  40.5 4 0  41.25 4 0  42 4 0  42.75 4 0  43.5 4 0  44.25 4 0  45 4 0  45.75 4 0  46.5 4 0  47.25 4 0  48 4 0  48.75 4 0  49.5 4 0  50.25 4 0  51 4 0  51.75 4 0  52.5 4 0  53.25 4 0  54 4 0  54.75 4 0  55.5 4 0  56.25 4 0  57 4 0  57.75 4 0  58.5 4 0  59.25 4 0  60 4 0  0.375 0.25 0  1.125 0.25 0  1.875 0.25 0  2.625 0.25 0  3.375 0.25 0  4.125 0.25 0  4.875 0.25 0  5.625 0.25 0  6.375 0.25 0  7.125 0.25 0  7.875 0.25 0  8.625 0.25 0  9.375 0.25 0  10.125 0.25 0  10.875 0.25 0  11.625 0.25 0  12.375 0.25 0  13.125 0.25 0  13.875 0.25 0  14.625 0.25 0  15.375 0.25 0  16.125 0.25 0  16.875 0.25 0  17.625 0.25 0  18.375 0.25 0  19.125 0.25 0  19.875 0.25 0  20.625 0.25 0  21.375 0.25 0  22.125 0.25 0  22.875 0.25 0  23.625 0.25 0  24.375 0.25 0  25.125 0.25 0  25.875 0.25 0  26.625 0.25 0  27.375 0.25 0  28.125 0.25 0  28.875 0.25 0  29.625 0.25 0  30.375 0.25 0  31.125 0.25 0  31.875 0.25 0  32.625 0.25 0  33.375 0.25 0  34.125 0.25 0  34.875 0.25 0  35.625 0.25 0  36.375 0.25 0  37.125 0.25 0  37.875 0.25 0  38.625 0.25 0  39.375 0.25 0  40.125 0.25 0  40.875 0.25 0  41.625 0.25 0  42.375 0.25 0  43.125 0.25 0  43.875 0.25 0  44.625 0.25 0  45.375 0.25 0  46.125 0.25 0  46.875 0.25 0  47.625 0.25 0  48.375 0.25 0  49.125 0.25 0  49.875 0.25 0  50.625 0.25 0  51.375 0.25 0  52.125 0.25 0  52.875 0.25 0  53.625 0.25 0  54.375 0.25 0  55.125 0.25 0  55.875 0.25 0  56.625 0.25 0  57.375 0.25 0  58.125 0.25 0  58.875 0.25 0  59.625 0.25 0  0.375 0.75 0  1.125 0.75 0  1.875 0.75 0  2.625 0.75 0  3.375 0.75 0  4.125 0.75 0  4.875 0.75 0  5.625 0.75 0  6.375 0.75 0  7.125 0.75 0  7.875 0.75 0  8.625 0.75 0  9.375 0.75 0  10.125 0.75 0  10.875 0.75 0  11.625 0.75 0  12.375 0.75 0  13.125 0.75 0  13.875 0.75 0  14.625 0.75 0  15.375 0.75 0  16.125 0.75 0  16.875 0.75 0  17.625 0.75 0  18.375 0.75 0  19.125 0.75 0  19.875 0.75 0  20.625 0.75 0  21.375 0.75 0  22.125 0.75 0  22.875 0.75 0  23.625 0.75 0  24.375 0.75 0  25.125 0.75 0  25.875 0.75 0  26.625 0.75 0  27.375 0.75 0  28.125 0.75 0  28.875 0.75 0  29.625 0.75 0  30.375 0.75 0  31.125 0.75 0  31.875 0.75 0  32.625 0.75 0  33.375 0.75 0  34.125 0.75 0  34.875 0.75 0  35.625 0.75 0  36.375 0.75 0  37.125 0.75 0  37.875 0.75 0  38.625 0.75 0  39.375 0.75 0  40.125 0.75 0  40
[...]
<PointData  Scalars="f_8-1"> 
<DataArray  type="Float64"  Name="f_8-1"  format="ascii">1.5937259135121711e-03  -1.4183185511676658e-03  1.2000789021200461e-04  -6.6213623210378738e-04  -2.6387500604279208e-04  -3.4825862271586536e-04  -1.3530569828943713e-04  -5.6555482325795646e-05  6.4569682078607839e-05  1.3920422548048336e-04  1.7674327783200533e-04  2.0481649062532143e-04  2.0342281930512576e-04  2.1225049265820439e-04  2.0474739124055839e-04  2.0731342049145027e-04  2.0019367090190663e-04  1.9887331731209234e-04  1.9204421804528199e-04  1.8813734600125204e-04  1.8135784722814495e-04  1.7606985170630132e-04  1.6951008305147200e-04  1.6376318776397875e-04  1.5741231027745000e-04  1.5136388310204845e-04  1.4497872068439812e-04  1.3870209899109499e-04  1.3220434585780919e-04  1.2554954516546900e-04  1.1843694238710801e-04  1.1080193997361184e-04  1.0253093076953470e-04  9.3700951305851666e-05  8.4406983093579231e-05  7.4811430978594418e-05  6.5046411622160565e-05  5.5232560106285824e-05  4.5452005176473526e-05  3.5769126608686577e-05  2.6227226309514736e-05  1.6857820792290395e-05  7.6777428412249398e-06  -1.3083558303971989e-06  -1.0108128448342532e-05  -1.8737938384598196e-05  -2.7219794305537720e-05  -3.5577529135237398e-05  -4.3834293135954821e-05  -5.2010806615661408e-05  -6.0124755899741938e-05  -6.8190730289664187e-05  -7.6220563922201496e-05  -8.4223742132975526e-05  -9.2207809237552341e-05  -1.0017869468101832e-04  -1.0814098184886125e-04  -1.1609812546203296e-04  -1.2405264298051628e-04  -1.3200628804272828e-04  -1.3996021006200545e-04  -1.4791510036745462e-04  -1.5587131743870054e-04  -1.6382899654653220e-04  -1.7178812981346781e-04  -1.7974863705398083e-04  -1.8771040471625438e-04  -1.9567333942848174e-04  -2.0363743135822461e-04  -2.1160294607336418e-04  -2.1957110599338860e-04  -2.2754607822284893e-04  -2.3554253362172666e-04  -2.4360759276407745e-04  -2.5189943037309733e-04  -2.6089437911586653e-04  -2.7204482850897300e-04  -2.9030633096869093e-04  -3.3230035473574241e-04  -4.2088421606688775e-04  -1.7519847319645927e-03  -3.9766129442449661e-04  -3.6194765439388478e-04  -3.8547068483632535e-04  -3.4336637576335078e-04  -4.1006429141136392e-04  -2.6178302680943084e-04  -1.8658605308695948e-04  -4.9010944790375397e-05  4.8320851824916876e-05  1.2723626267204281e-04  1.7405849220531391e-04  1.9189460145262958e-04  2.0295460686472089e-04  2.0110711553947001e-04  2.0293673841378869e-04  1.9814741974227888e-04  1.9688165898790243e-04  1.9121828925772907e-04  1.8770433381164737e-04  1.8141626618376977e-04  1.7639971343185449e-04  1.6983570070395351e-04  1.6417060740975533e-04  1.5776711530586727e-04  1.5187496367591576e-04  1.4549994616538093e-04  1.3933687751234420e-04  1.3290205483010113e-04  1.2653026769023724e-04  1.1984067756981497e-04  1.1283930120327166e-04  1.0523958954703067e-04  9.7058602790829612e-05  8.8268304780666731e-05  7.9023861613390029e-05  6.9445817730304975e-05  5.9696945074572290e-05  4.9882870904981583e-05  4.0100134904390683e-05  3.0407404475492144e-05  2.0854306103723688e-05  1.1470515698521786e-05  2.2760129541321622e-06  -6.7247545393289884e-06  -1.5537863736300494e-05  -2.4179661375391705e-05  -3.2671635314823454e-05  -4.1037806234563865e-05  -4.9301348475200723e-05  -5.7483257521805040e-05  -6.5601395835511786e-05  -7.3670584946324089e-05  -8.1702824461612504e-05  -8.9707764817119359e-05  -9.7693076761512499e-05  -1.0566480580144705e-04  -1.1362762884744169e-04  -1.2158508236991508e-04  -1.2953974953774073e-04  -1.3749343760295835e-04  -1.4544733667520667e-04  -1.5340216827648329e-04  -1.6135831124301734e-04  -1.6931591426039996e-04  -1.7727497609521553e-04  -1.8523542041369429e-04  -1.9319713223832997e-04  -2.0116001226968953e-04  -2.0912401909036203e-04  -2.1708933293885111e-04  -2.2505691617836249e-04  -2.3303017166504731e-04  -2.4102038520977374e-04  -2.4906463153744019e-04  -2.5728902085944141e-04  -2.6609070438932949e-04  -2.7658145868693547e-04  -2.9272705994252230e-04  -3.2553086501237871e-04  -4.3078725229321553e-04  -3.6433312336282592e-05  7.7395903068129716e-05  -3.3651135747078437e-04  -2.7470655132173360e-04  -3.2914876720704456e-04  -3.1415300021227254e-04  -2.3435288100079508e-04  -1.5461964570201257e-04  -3.0001002825965712e-05  5.1293363678943797e-05  1.4306511897893377e-04  1.7529954040173705e-04  2.1221595394599614e-04  2.1172577662486317e-04  2.2346189803016674e-04  2.1602370840187850e-04  2.1969539100426930e-04  2.1206556893262732e-04  2.1166288485770904e-04  2.0417929394132505e-04  2.0110213638809216e-04  1.9371929781740791e-04  1.8904504583412915e-04  1.8197146964199102e-04  1.7661910466039869e-04  1.6991350331973677e-04  1.6412164821204601e-04  1.5750728610906250e-04  1.5135986061893411e-04  1.4471539203318379e-04  1.3815181610573861e-04  1.3102411901936097e-04  1.2353452874805748e-04  1.1536308161501450e-04  1.0669816679290041e-04  9.7516505314987613e-05  8.8032014580403901e-05  7.8326954341032749e-05  6.8555869189497378e-05  5.8786880838528503e-05  4.9105130298135039e-05  3.9550278217148734e-05  3.0163558459346346e-05  2.0960409582593322e-05  1.1949851756840635e-05  3.1242047126811642e-06  -5.5304691705426885e-06  -1.4035690844718156e-05  -2.2414097615901581e-05  -3.0688696041059142e-05  -3.8879984513267126e-05  -4.7005931804702376e-05  -5.5081387641999917e-05  -6.3118596829703390e-05  -7.1127387072422913e-05  -7.9115645577046089e-05  -8.7089576231576228e-05  -9.5054007080950506e-05  -1.0301259152895509e-04  -1.1096801890309735e-04  -1.1892218357498351e-04  -1.2687635222721907e-04  -1.3483130826789572e-04  -1.4278748191316954e-04  -1.5074505992561258e-04  -1.5870407269086550e-04  -1.6666446652636991e-04  -1.7462615765401473e-04  -1.8258908419664316e-04  -1.9055329107252436e-04  -1.9851905889532395e-04  -2.0648739908155246e-04  -2.1446089704158902e-04  -2.2244611518093267e-04  -2.3045894795586781e-04  -2.3854169122637723e-04  -2.4679950311453980e-04  -2.5534935609066903e-04  -2.6451266169087668e-04  -2.7370240118279533e-04  -2.4451756944969885e-04  -1.5605416817408114e-05  1.0660154486546386e-04  -3.0864360356765548e-04  -1.5019094250333915e-04  -3.3890684723785294e-04  -1.9738308554698991e-04  -2.4009380335710939e-04  -7.4894831615037946e-05  -4.1647893456633448e-05  1.0019154114201649e-04  1.3379490115338603e-04  2.1373213554834407e-04  2.1774759812005998e-04  2.5012854759053196e-04  2.4076673334546837e-04  2.5294491730649309e-04  2.4262463553387082e-04  2.4661148524297415e-04  2.3745572213534303e-04  2.3696084962934247e-04  2.2862279110568879e-04  2.2541885827476689e-04  2.1765855501562352e-04  2.1300321737196596e-04  2.0581816997098436e-04  2.0045036075264254e-04  1.9362346081386813e-04  1.8775556110016517e-04  1.8102643476989360e-04  1.7472175874536471e-04  1.6778701928816855e-04  1.6080048197400875e-04  1.5315205561742081e-04  1.4513059077361263e-04  1.3649269649770572e-04  1.2747511033927718e-04  1.1806537923358761e-04  1.0846335281160110e-04  9.8729416001508695e-05  8.8997951167706611e-05  7.9322849474938942e-05  6.9777345358521721e-05  6.0389354774335215e-05  5.1186513620322815e-05  4.2170447412859363e-05  3.3337858281714630e-05  2.4672319720746640e-05  1.6155164938083154e-05  7.7638320501760779e-06  -5.2287143044616044e-07  -8.7251623064155359e-06  -1.6860384980006463e-05  -2.4943522423095457e-05  -3.2986856456336345e-05  -4.1000497828260874e-05  -4.8992517890589362e-05  -5.6969341412478492e-05  -6.4935944915190012e-05  -7.2896124781958368e-05  -8.0852678499119483e-05  -8.8807602092111606e-05  -9.6762247029138755e-05  -1.0471747286538797e-04  -1.1267377290812095e-04  -1.2063138554997665e-04  -1.2859038281249049e-04  -1.3655074485405410e-04  -1.4451242433781303e-04  -1.5247541372251968e-04  -1.6043985225016531e-04  -1.6840618284524701e-04  -1.7637548972192823e-04  -1.8434970559054570e-04  -1.9233087556727089e-04  -2.0031419139282801e-04  -2.0825729931886862e-04  -2.1595049248279767e-04  -2.2251279241452043e-04  -2.2483654210735744e-04  -2.1178508146967148e-04  -1.4838131084637536e-04  -1.5936961651042374e-05  1.4069855871040121e-04  -2.8420142924831136e-04  -1.7613344935560042e-04  -2.5463345046919785e-04  -2.5907522008028998e-04  -1.5283169313530507e-04  -1.3211521219101333e-04  1.9145216828353514e-05  5.7081696144236797e-05  1.7085005470705953e-04  1.8672349356326607e-04  2.4284592321550290e-04  2.3684712219390012e-04  2.5930518364961037e-04  2.4792167208171522e-04  2.5651322696575179e-04  2.4612326298547216e-04  2.4822244785315098e-04  2.3911351740963993e-04  2.3744041706677053e-04  2.2915260940257706e-04  2.2530176371641071e-04  2.1767807347115536e-04  2.1270920064434819e-04  2.0562594426528469e-04  2.0004717314696719e-04  1.9324937765912207e-04  1.8719999767019820e-04  1.8036604659071246e-04  1.7374109848556743e-04  1.6645769991024785e-04  1.5898578333638325e-04  1.5087941932130853e-04  1.4240509898532801e-04  1.3341280657350332e-04  1.2411525676265389e-04  1.1452994326576458e-04  1.0483165122502165e-04  9.5086732737148779e-05  8.5410658980604971e-05  7.5851199386347753e-05  6.6461708582972367e-05  5.7255409703893688e-05  4.8241114587717205e-05  3.9407611109794181e-05  3.0741074510287706e-05  2.2220334120806100e-05  1.3824852774988498e-05  5.5332409849140496e-06  -2.6735109838438371e-06  -1.0812739426104863e-05  -1.8899074727545315e-05  -2.6944969745430555e-05  -3.4960558838466148e-05  -4.2954085888269440e-05  -5.0932047468652679e-05  -5.8899516904735879e-05  -6.6860335929284275e-05  -7.4817352316667511e-05  -8.2772593874807187e-05  -9.0727446207241851e-05  -9.8682795596025937e-05  -1.0663916085953436e-04  -1.1459680003299364e-04  -1.2255580153554247e-04  -1.3051615792288233e-04  -1.3847783407587892e-04  -1.4644084065993420e-04  -1.5440534491204568e-04  -1.6237183786470811e-04  -1.7034140372900234e-04  -1.7831565364693485e-04  -1.8629457293653669e-04  -1.9426433576092580e-04  -2.0214656184216917e-04  -2.0960036480444146e-04  -2.1532948030170200e-04  -2.1486943519825332e-04  -1.9448814804824241e-04  -1.2723549965032034e-04  -6.7276270103311451e-06  1.0656343402729725e-04  -3.0858362950515446e-04  -1.5017417934707608e-04  -3.3884746091531343e-04  -1.9739033820213303e-04  -2.4005316056577696e-04  -7.4895730622386505e-05  -4.1595852502260947e-05  1.0029348686551947e-04  1.3393680879338491e-04  2.1384615638315787e-04  2.1783086944045907e-04  2.5018298398003471e-04  2.4082141663768275e-04  2.5301015998636505e-04  2.4269951659587518e-04  2.4668759349474168e-04  2.3752875674612882e-04  2.3700906377525821e-04  2.2862722946323695e-04  2.2538297277506175e-04  2.1759089634563694e-04  2.1288834351735066e-04  2.0563460176624082e-04  2.0020857676795567e-04  1.9336768116375467e-04  1.8752188159066260e-04  1.8080765687518647e-04  1.7447683006995666e-04  1.6748408011205075e-04  1.6045247271923512e-04  1.5281671151942387e-04  1.4487874862226621e-04  1.3637033230045096e-04  1.2748310510949637e-04  1.1816479822918368e-04  1.0859781064624070e-04  9.8849441494160134e-05  8.9075757377981250e-05  7.9354144653507542e-05  6.9773852209005415e-05  6.0368426737165300e-05  5.1163007032233450e-05  4.2152984453340928e-05  3.3328948270852178e-05  2.4670529458448234e-05  1.6157578422735285e-05  7.7677745397508808e-06  -5.1908647136667123e-07  -8.7222195347491888e-06  -1.6858301020428226e-05  -2.4942021137399698e-05  -3.2985631326765222e-05  -4.0999333806088888e-05  -4.8991310695112445e-05  -5.6968067408416245e-05  -6.4934621041712508e-05  -7.2894778665659942e-05  -8.0851333046476847e-05  -8.8806271253405699e-05  -9.6760937384132977e-05  -1.0471618675110623e-04  -1.1267251086619664e-04  -1.2063014701603458e-04  -1.2858916535868605e-04  -1.3654954190130334e-04  -1.4451122174529414e-04  -1.5247418534320142e-04  -1.6043855501564553e-04  -1.6840475300009808e-04  -1.7637384402102767e-04  -1.8434775646158081e-04  -1.9232857834980795e-04  -2.0031166067271453e-04  -2.0825506360129753e-04  -2.1595001047148679e-04  -2.2251736027655572e-04  -2.2485235679328203e-04  -2.1181818566400393e-04  -1.4841788591958547e-04  -1.5941271383753705e-05  7.7574089170348622e-05  -3.3656413740290917e-04  -2.7450424701575292e-04  -3.2916012968773424e-04  -3.1408306481720412e-04  -2.3434600589323183e-04  -1.5458654285590832e-04  -2.9933540351732095e-05  5.1523652865723832e-05  1.4332225762677493e-04  1.7552303266669836e-04  2.1235617369909813e-04  2.1182521451916850e-04  2.2355540901303046e-04  2.1614601540764837e-04  2.1983025686702688e-04  2.1220492767142277e-04  2.1179385662908393e-04  2.0426071611608754e-04  2.0109533179726800e-04  1.9363736344038483e-04  1.8890453050335817e-04  1.8173896078677525e-04  1.7625104505575133e-04  1.6943562204563769e-04  1.6362490691301847e-04  1.5706039510173618e-04  1.5094178727232551e-04  1.4424116071147836e-04  1.3756092007391401e-04  1.3034813776032584e-04  1.2289142952338439e-04  1.1489114573695090e-04  1.0648191194726960e-04  9.7550555546468677e-05  8.8235308621991378e-05  7.8588448260150868e-05  6.8781683187824256e-05  5.8927137802724676e-05  4.9155363672048889e-05  3.9535572663673799e-05  3.0118145651725298e-05  2.0912421756746961e-05  1.1914851329284415e-05  3.1060350429923472e-06  -5.5351886504029379e-06  -1.4032796189056324e-05  -2.2408687676018841e-05  -3.0683853878721382e-05  -3.8876867425732370e-05  -4.7004467103994989e-05  -5.5080999402093032e-05  -6.3118691819466122e-05  -7.1127566494819856e-05  -7.9115726253724752e-05  -8.7089524959922638e-05  -9.5053862441849801e-05  -1.0301240795788341e-04  -1.1096783947251362e-04  -1.1892203356649789e-04  -1.2687624303269230e-04  -1.3483124371861647e-04  -1.4278746277782289e-04  -1.5074508519272764e-04  -1.5870413784877123e-04  -1.6666455910708636e-04  -1.7462625060352946e-04  -1.8258912712479751e-04  -1.9055320041144570e-04  -1.9851870962441840e-04  -2.0648662506831230e-04  -2.1445951590255921e-04  -2.2244401096287953e-04  -2.3045627934485565e-04  -2.3853935314918371e-04  -2.4680009254655016e-04  -2.5535899054755686e-04  -2.6454423330723472e-04  -2.7377751183634870e-04  -2.4462382747189327e-04  -1.5625459080140788e-05  -3.9792147850412258e-04  -3.6172837557786548e-04  -3.8538638949163587e-04  -3.4325944227545362e-04  -4.1009452557548424e-04  -2.6175109625087197e-04  -1.8661213943461986e-04  -4.8895851422505042e-05  4.8572245241430450e-05  1.2753423806309699e-04  1.7428237782271915e-04  1.9202958730606075e-04  2.0303346566802661e-04  2.0118701466453797e-04  2.0304389884685914e-04  1.9826730016618826e-04  1.9700082703966230e-04  1.9131823077701593e-04  1.8773075250056679e-04  1.8133089456205600e-04  1.7622131936186744e-04  1.6957798770861232e-04  1.6378891764677492e-04  1.5721890096016976e-04  1.5120570165088609e-04  1.4482256070103770e-04  1.3872322261565439e-04  1.3231425456667305e-04  1.2586517778855749e-04  1.1903851981099977e-04  1.1195596515187729e-04  1.0442812232019900e-04  9.6483792343729003e-05  8.8019697476620525e-05  7.9079378237451254e-05  6.9695829753031193e-05  6.0002767882161603e-05  5.0132972485901222e-05  4.0239508802045294e-05  3.0436064945713461e-05  2.0806167719086890e-05  1.1388298827931890e-05  2.1934110024918766e-06  -6.7899781188762910e-06  -1.5582112950260948e-05  -2.4207712439695618e-05  -3.2690829285195270e-05  -4.1054313617307603e-05  -4.9318778988699099e-05  -5.7502881013939570e-05  -6.5623035490900046e-05  -7.3693503157236308e-05  -8.1726296342234602e-05  -8.9731316432432285e-05  -9.7716498076211010e-05  -1.0568806521002700e-04  -1.1365077733648564e-04  -1.2160818693059438e-04  -1.2956286174087875e-04  -1.3751658709955242e-04  -1.4547053635863768e-04  -1.5342542208414731e-04  -1.6138161937388854e-04  -1.6933927439515765e-04  -1.7729838087228209e-04  -1.8525885156166769e-04  -1.9322055191288044e-04  -2.0118335181449454e-04  -2.0914716641402413e-04  -2.1711212226594172e-04  -2.2507912916733602e-04  -2.3305157108071149e-04  -2.4104082404281774e-04  -2.4908432621275581e-04  -2.5730915653812740e-04  -2.6611470866607924e-04  -2.7661756477669926e-04  -2.9279397724176891e-04  -3.2567091324796896e-04  -4.3110813949568874e-04  -3.6397284425581209e-05  1.5933626572259098e-03  -1.4181970129315269e-03  1.2017175983529180e-04  -6.6208839371371942e-04  -2.6389576993550120e-04  -3.4827829471088188e-04  -1.3532324317031339e-04  -5.6459648048051307e-05  6.4801007655564664e-05  1.3944997383427579e-04  1.7691939299579597e-04  2.0489580859762454e-04  2.0344944966029261e-04  2.1227132137315683e-04  2.0478672707342486e-04  2.0735629304569127e-04  2.0022737132418354e-04  1.9887315836119746e-04  1.9195882403384238e-04  1.8793752051571733e-04  1.8106201714948667e-04  1.7568512433323188e-04  1.6899534069922262e-04  1.6309052644623387e-04  1.5663683912181981e-04  1.5059338684033247e-04  1.4427294111471643e-04  1.3801872177195278e-04  1.3144926917141309e-04  1.2467887039873665e-04  1.1751772138380652e-04  1.0998659351580469e-04  1.0197283881505010e-04  9.3474069822786218e-05  8.4476567902581564e-05  7.5062005054596275e-05  6.5340074368519055e-05  5.5462415936898542e-05  4.5568313671317857e-05  3.5775664451068875e-05  2.6159535783065746e-05  1.6758574567598063e-05  7.5797697479702782e-06  -1.3882450625556781e-06  -1.0166996873658495e-05  -1.8780858207678818e-05  -2.7254141268366495e-05  -3.5609387005960506e-05  -4.3867166906350684e-05  -5.2045892452228106e-05  -6.0161842423111286e-05  -6.8229073012632398e-05  -7.6259444032918564e-05  -8.4262694213926904e-05  -9.2246629387034512e-05  -1.0021735408226867e-04  -1.0817953182923761e-04  -1.1613663211351594e-04  -1.2409115661258117e-04  -1.3204483699888161e-04  -1.3999880599014383e-04  -1.4795374577455844e-04  -1.5591001076516400e-04  -1.6386773313847904e-04  -1.7182689926500708e-04  -1.7978741730074576e-04  -1.8774915354223955e-04  -1.9571198378630291e-04  -2.0367585616988651e-04  -2.1164098693348814e-04  -2.1960855617129811e-04  -2.2758273309804515e-04  -2.3557831978968588e-04  -2.4364287597914718e-04  -2.5193568902435076e-04  -2.6093556912024931e-04  -2.7210017456565241e-04  -2.9039641627470487e-04  -3.3247191390421341e-04  -4.2125335689898651e-04  -1.7537027429431465e-03  -7.9072928679526202e-04  -2.9414979585124521e-04  -3.0771411106838827e-04  -3.5768549868071825e-04  -2.7188419294426567e-04  -1.7983418731608780e-04  -5.4237378569224609e-05  5.7616324502612842e-05  1.4879995022725988e-04  2.1143691852202814e-04  2.4149343972998060e-04  2.5759365970126586e-04  2.5998565956273831e-04  2.6171772860443792e-04  2.5868801331250336e-04  2.5685384614295559e-04  2.5240337321651748e-04  2.4854058878681482e-04  2.4305698517823468e-04  2.3782727253243051e-04  2.3171141975522055e-04  2.2584665166981607e-04  2.1964114479550826e-04  2.1363291505542621e-04  2.0740476062033083e-04  2.0121110871445342e-04  1.9486676628351895e-04  1.8850477352156726e-04  1.8194499429240415e-04  1.7510407245111868e-04  1.6776700616309852e-04  1.5985636647630104e-04  1.5133573700819533e-04  1.4229791824185839e-04  1.3286582512088215e-04  1.2319251581427819e-04  1.1340347530687678e-04  1.0360344185833039e-04  9.3865548137450898e-05  8.4245254347754939e-05  7.4780207731795130e-05  6.5495644448290328e-05  5.6402771491733467e-05  4.7500764013014410e-05  3.8777885704501059e-05  3.0215169936206377e-05  2.1789674026317322e-05  1.3477836807298435e-05  5.2575696096357936e-06  -2.8904763282921588e-06  -1.0982587995623497e-05  -1.9032100440836387e-05  -2.7049782164545207e-05  -3.5044236709399137e-05  -4.3022277235079927e-05  -5.0989223481932513e-05  -5.8949148151064591e-05  -6.6905081179346323e-05  -7.4859193375348702e-05  -8.2812963373068730e-05  -9.0767331447338197e-05  -9.8722836219896558e-05  -1.0667973330114744e-04  -1.1463809088726375e-04  -1.2259786638343004e-04  -1.3055895977167272e-04  -1.3852125704344817e-04  -1.4648467281783433e-04  -1.5444925514735019e-04  -1.6241551876655706e-04  -1.7038552291138431e-04  -1.7836650305058226e-04  -1.8638397832116337e-04  -1.9452456843636618e-04  -2.0306693009677242e-04  -2.1282761888212433e-04  -2.2656952972191944e-04  -2.5313348400193792e-04  -3.1764340045533170e-04  -6.1921331196890163e-04  -1.9114988432846722e-04  -2.4368551887914378e-04  -2.7479256892993468e-04  