<?xml version="1.0"?>
<VTKFile type="UnstructuredGrid"  version="0.1"  >
<UnstructuredGrid>
<Piece  NumberOfPoints="1369" NumberOfCells="2560">
<Points>
<DataArray  type="Float64"  NumberOfComponents="3"  format="ascii">0 0 0  0.75 0 0  1.5 0 0  2.25 0 0  3 0 0  3.75 0 0  4.5 0 0  5.25 0 0  6 0 0  6.75 0 0  7.5 0 0  8.25 0 0  9 0 0  9.75 0 0  10.5 0 0  11.25 0 0  12 0 0  12.75 0 0  13.5 0 0  14.25 0 0  15 0 0  15.75 0 0  16.5 0 0  17.25 0 0  18 0 0  18.75 0 0  19.5 0 0  20.25 0 0  21 0 0  21.75 0 0  22.5 0 0  23.25 0 0  24 0 0  24.75 0 0  25.5 0 0  26.25 0 0  27 0 0  27.75 0 0  28.5 0 0  29.25 0 0  30 0 0  30.75 0 0  31.5 0 0  32.25 0 0  33 0 0  33.75 0 0  34.5 0 0  35.25 0 0  36 0 0  36.75 0 0  37.5 0 0  38.25 0 0  39 0 0  39.75 0 0  40.5 0 0  41.25 0 0  42 0 0  42.75 0 0  43.5 0 0  44.25 0 0  45 0 0  45.75 0 0  46.5 0 0  47.25 0 0  48 0 0  48.75 0 0  49.5 0 0  50.25 0 0  51 0 0  51.75 0 0  52.5 0 0  53.25 0 0  54 0 0  54.75 0 0  55.5 0 0  56.25 0 0  57 0 0  57.75 0 0  58.5 0 0  59.25 0 0  60 0 0  0 0.5 0  0.75 0.5 0  1.5 0.5 0  2.25 0.5 0  3 0.5 0  3.75 0.5 0  4.5 0.5 0  5.25 0.5 0  6 0.5 0  6.75 0.5 0  7.5 0.5 0  8.25 0.5 0  9 0.5 0  9.75 0.5 0  10.5 0.5 0  11.25 0.5 0  12 0.5 0  12.75 0.5 0  13.5 0.5 0  14.25 0.5 0  15 0.5 0  15.75 0.5 0  16.5 0.5 0  17.25 0.5 0  18 0.5 0  18.75 0.5 0  19.5 0.5 0  20.25 0.5 0  21 0.5 0  21.75 0.5 0  22.5 0.5 0  23.25 0.5 0  24 0.5 0  24.75 0.5 0  25.5 0.5 0  26.25 0.5 0  27 0.5 0  27.75 0.5 0  28.5 0.5 0  29.25 0.5 0  30 0.5 0  30.75 0.5 0  31.5 0.5 0  32.25 0.5 0  33 0.5 0  33.75 0.5 0  34.5 0.5 0  35.25 0.5 0  36 0.5 0  36.75 0.5 0  37.5 0.5 0  38.25 0.5 0  39 0.5 0  39.75 0.5 0  40.5 0.5 0  41.25 0.5 0  42 0.5 0  42.75 0.5 0  43.5 0.5 0  44.25 0.5 0  45 0.5 0  45.75 0.5 0  46.5 0.5 0  47.25 0.5 0  48 0.5 0  48.75 0.5 0  49.5 0.5 0  50.25 0.5 0  51 0.5 0  51.75 0.5 0  52.5 0.5 0  53.25 0.5 0  54 0.5 0  54.75 0.5 0  55.5 0.5 0  56.25 0.5 0  57 0.5 0  57.75 0.5 0  58.5 0.5 0  59.25 0.5 0  60 0.5 0  0 1 0  0.75 1 0  1.5 1 0  2.25 1 0  3 1 0  3.75 1 0  4.5 1 0  5.25 1 0  6 1 0  6.75 1 0  7.5 1 0  8.25 1 0  9 1 0  9.75 1 0  10.5 1 0  11.25 1 0  12 1 0  12.75 1 0  13.5 1 0  14.25 1 0  15 1 0  15.75 1 0  16.5 1 0  17.25 1 0  18 1 0  18.75 1 0  19.5 1 0  20.25 1 0  21 1 0  21.75 1 0  22.5 1 0  23.25 1 0  24 1 0  24.75 1 0  25.5 1 0  26.25 1 0  27 1 0  27.75 1 0  28.5 1 0  29.25 1 0  30 1 0  30.75 1 0  31.5 1 0  32.25 1 0  33 1 0  33.75 1 0  34.5 1 0  35.25 1 0  36 1 0  36.75 1 0  37.5 1 0  38.25 1 0  39 1 0  39.75 1 0  40.5 1 0  41.25 1 0  42 1 0  42.75 1 0  43.5 1 0  44.25 1 0  45 1 0  45.75 1 0  46.5 1 0  47.25 1 0  48 1 0  48.75 1 0  49.5 1 0  50.25 1 0  51 1 0  51.75 1 0  52.5 1 0  53.25 1 0  54 1 0  54.75 1 0  55.5 1 0  56.25 1 0  57 1 0  57.75 1 0  58.5 1 0  59.25 1 0  60 1 0  0 1.5 0  0.75 1.5 0  1.5 1.5 0  2.25 1.5 0  3 1.5 0  3.75 1.5 0  4.5 1.5 0  5.25 1.5 0  6 1.5 0  6.75 1.5 0  7.5 1.5 0  8.25 1.5 0  9 1.5 0  9.75 1.5 0  10.5 1.5 0  11.25 1.5 0  12 1.5 0  12.75 1.5 0  13.5 1.5 0  14.25 1.5 0  15 1.5 0  15.75 1.5 0  16.5 1.5 0  17.25 1.5 0  18 1.5 0  18.75 1.5 0  19.5 1.5 0  20.25 1.5 0  21 1.5 0  21.75 1.5 0  22.5 1.5 0  23.25 1.5 0  24 1.5 0  24.75 1.5 0  25.5 1.5 0  26.25 1.5 0  27 1.5 0  27.75 1.5 0  28.5 1.5 0  29.25 1.5 0  30 1.5 0  30.75 1.5 0  31.5 1.5 0  32.25 1.5 0  33 1.5 0  33.75 1.5 0  34.5 1.5 0  35.25 1.5 0  36 1.5 0  36.75 1.5 0  37.5 1.5 0  38.25 1.5 0  39 1.5 0  39.75 1.5 0  40.5 1.5 0  41.25 1.5 0  42 1.5 0  42.75 1.5 0  43.5 1.5 0  44.25 1.5 0  45 1.5 0  45.75 1.5 0  46.5 1.5 0  47.25 1.5 0  48 1.5 0  48.75 1.5 0  49.5 1.5 0  50.25 1.5 0  51 1.5 0  51.75 1.5 0  52.5 1.5 0  53.25 1.5 0  54 1.5 0  54.75 1.5 0  55.5 1.5 0  56.25 1.5 0  57 1.5 0  57.75 1.5 0  58.5 1.5 0  59.25 1.5 0  60 1.5 0  0 2 0  0.75 2 0  1.5 2 0  2.25 2 0  3 2 0  3.75 2 0  4.5 2 0  5.25 2 0  6 2 0  6.75 2 0  7.5 2 0  8.25 2 0  9 2 0  9.75 2 0  10.5 2 0  11.25 2 0  12 2 0  12.75 2 0  13.5 2 0  14.25 2 0  15 2 0  15.75 2 0  16.5 2 0  17.25 2 0  18 2 0  18.75 2 0  19.5 2 0  20.25 2 0  21 2 0  21.75 2 0  22.5 2 0  23.25 2 0  24 2 0  24.75 2 0  25.5 2 0  26.25 2 0  27 2 0  27.75 2 0  28.5 2 0  29.25 2 0  30 2 0  30.75 2 0  31.5 2 0  32.25 2 0  33 2 0  33.75 2 0  34.5 2 0  35.25 2 0  36 2 0  36.75 2 0  37.5 2 0  38.25 2 0  39 2 0  39.75 2 0  40.5 2 0  41.25 2 0  42 2 0  42.75 2 0  43.5 2 0  44.25 2 0  45 2 0  45.75 2 0  46.5 2 0  47.25 2 0  48 2 0  48.75 2 0  49.5 2 0  50.25 2 0  51 2 0  51.75 2 0  52.5 2 0  53.25 2 0  54 2 0  54.75 2 0  55.5 2 0  56.25 2 0  57 2 0  57.75 2 0  58.5 2 0  59.25 2 0  60 2 0  0 2.5 0  0.75 2.5 0  1.5 2.5 0  2.25 2.5 0  3 2.5 0  3.75 2.5 0  4.5 2.5 0  5.25 2.5 0  6 2.5 0  6.75 2.5 0  7.5 2.5 0  8.25 2.5 0  9 2.5 0  9.75 2.5 0  10.5 2.5 0  11.25 2.5 0  12 2.5 0  12.75 2.5 0  13.5 2.5 0  14.25 2.5 0  15 2.5 0  15.75 2.5 0  16.5 2.5 0  17.25 2.5 0  18 2.5 0  18.75 2.5 0  19.5 2.5 0  20.25 2.5 0  21 2.5 0  21.75 2.5 0  22.5 2.5 0  23.25 2.5 0  24 2.5 0  24.75 2.5 0  25.5 2.5 0  26.25 2.5 0  27 2.5 0  27.75 2.5 0  28.5 2.5 0  29.25 2.5 0  30 2.5 0  30.75 2.5 0  31.5 2.5 0  32.25 2.5 0  33 2.5 0  33.75 2.5 0  34.5 2.5 0  35.25 2.5 0  36 2.5 0  36.75 2.5 0  37.5 2.5 0  38.25 2.5 0  39 2.5 0  39.75 2.5 0  40.5 2.5 0  41.25 2.5 0  42 2.5 0  42.75 2.5 0  43.5 2.5 0  44.25 2.5 0  45 2.5 0  45.75 2.5 0  46.5 2.5 0  47.25 2.5 0  48 2.5 0  48.75 2.5 0  49.5 2.5 0  50.25 2.5 0  51 2.5 0  51.75 2.5 0  52.5 2.5 0  53.25 2.5 0  54 2.5 0  54.75 2.5 0  55.5 2.5 0  56.25 2.5 0  57 2.5 0  57.75 2.5 0  58.5 2.5 0  59.25 2.5 0  60 2.5 0  0 3 0  0.75 3 0  1.5 3 0  2.25 3 0  3 3 0  3.75 3 0  4.5 3 0  5.25 3 0  6 3 0  6.75 3 0  7.5 3 0  8.25 3 0  9 3 0  9.75 3 0  10.5 3 0  11.25 3 0  12 3 0  12.75 3 0  13.5 3 0  14.25 3 0  15 3 0  15.75 3 0  16.5 3 0  17.25 3 0  18 3 0  18.75 3 0  19.5 3 0  20.25 3 0  21 3 0  21.75 3 0  22.5 3 0  23.25 3 0  24 3 0  24.75 3 0  25.5 3 0  26.25 3 0  27 3 0  27.75 3 0  28.5 3 0  29.25 3 0  30 3 0  30.75 3 0  31.5 3 0  32.25 3 0  33 3 0  33.75 3 0  34.5 3 0  35.25 3 0  36 3 0  36.75 3 0  37.5 3 0  38.25 3 0  39 3 0  39.75 3 0  40.5 3 0  41.25 3 0  42 3 0  42.75 3 0  43.5 3 0  44.25 3 0  45 3 0  45.75 3 0  46.5 3 0  47.25 3 0  48 3 0  48.75 3 0  49.5 3 0  50.25 3 0  51 3 0  51.75 3 0  52.5 3 0  53.25 3 0  54 3 0  54.75 3 0  55.5 3 0  56.25 3 0  57 3 0  57.75 3 0  58.5 3 0  59.25 3 0  60 3 0  0 3.5 0  0.75 3.5 0  1.5 3.5 0  2.25 3.5 0  3 3.5 0  3.75 3.5 0  4.5 3.5 0  5.25 3.5 0  6 3.5 0  6.75 3.5 0  7.5 3.5 0  8.25 3.5 0  9 3.5 0  9.75 3.5 0  10.5 3.5 0  11.25 3.5 0  12 3.5 0  12.75 3.5 0  13.5 3.5 0  14.25 3.5 0  15 3.5 0  15.75 3.5 0  16.5 3.5 0  17.25 3.5 0  18 3.5 0  18.75 3.5 0  19.5 3.5 0  20.25 3.5 0  21 3.5 0  21.75 3.5 0  22.5 3.5 0  23.25 3.5 0  24 3.5 0  24.75 3.5 0  25.5 3.5 0  26.25 3.5 0  27 3.5 0  27.75 3.5 0  28.5 3.5 0  29.25 3.5 0  30 3.5 0  30.75 3.5 0  31.5 3.5 0  32.25 3.5 0  33 3.5 0  33.75 3.5 0  34.5 3.5 0  35.25 3.5 0  36 3.5 0  36.75 3.5 0  37.5 3.5 0  38.25 3.5 0  39 3.5 0  39.75 3.5 0  40.5 3.5 0  41.25 3.5 0  42 3.5 0  42.75 3.5 0  43.5 3.5 0  44.25 3.5 0  45 3.5 0  45.75 3.5 0  46.5 3.5 0  47.25 3.5 0  48 3.5 0  48.75 3.5 0  49.5 3.5 0  50.25 3.5 0  51 3.5 0  51.75 3.5 0  52.5 3.5 0  53.25 3.5 0  54 3.5 0  54.75 3.5 0  55.5 3.5 0  56.25 3.5 0  57 3.5 0  57.75 3.5 0  58.5 3.5 0  59.25 3.5 0  60 3.5 0  0 4 0  0.75 4 0  1.5 4 0  2.25 4 0  3 4 0  3.75 4 0  4.5 4 0  5.25 4 0  6 4 0  6.75 4 0  7.5 4 0  8.25 4 0  9 4 0  9.75 4 0  10.5 4 0  11.25 4 0  12 4 0  12.75 4 0  13.5 4 0  14.25 4 0  15 4 0  15.75 4 0  16.5 4 0  17.25 4 0  18 4 0  18.75 4 0  19.5 4 0  20.25 4 0  21 4 0  21.75 4 0  22.5 4 0  23.25 4 0  24 4 0  24.75 4 0  25.5 4 0  26.25 4 0  27 4 0  27.75 4 0  28.5 4 0  29.25 4 0  30 4 0  30.75 4 0  31.5 4 0  32.25 4 0  33 4 0  33.75 4 0  34.5 4 0  35.25 4 0  36 4 0  36.75 4 0  37.5 4 0  38.25 4 0  39 4 0  39.75 4 0  40.5 4 0  41.25 4 0  42 4 0  42.75 4 0  43.5 4 0  44.25 4 0  45 4 0  45.75 4 0  46.5 4 0  47.25 4 0  48 4 0  48.75 4 0  49.5 4 0  50.25 4 0  51 4 0  51.75 4 0  52.5 4 0  53.25 4 0  54 4 0  54.75 4 0  55.5 4 0  56.25 4 0  57 4 0  57.75 4 0  58.5 4 0  59.25 4 0  60 4 0  0.375 0.25 0  1.125 0.25 0  1.875 0.25 0  2.625 0.25 0  3.375 0.25 0  4.125 0.25 0  4.875 0.25 0  5.625 0.25 0  6.375 0.25 0  7.125 0.25 0  7.875 0.25 0  8.625 0.25 0  9.375 0.25 0  10.125 0.25 0  10.875 0.25 0  11.625 0.25 0  12.375 0.25 0  13.125 0.25 0  13.875 0.25 0  14.625 0.25 0  15.375 0.25 0  16.125 0.25 0  16.875 0.25 0  17.625 0.25 0  18.375 0.25 0  19.125 0.25 0  19.875 0.25 0  20.625 0.25 0  21.375 0.25 0  22.125 0.25 0  22.875 0.25 0  23.625 0.25 0  24.375 0.25 0  25.125 0.25 0  25.875 0.25 0  26.625 0.25 0  27.375 0.25 0  28.125 0.25 0  28.875 0.25 0  29.625 0.25 0  30.375 0.25 0  31.125 0.25 0  31.875 0.25 0  32.625 0.25 0  33.375 0.25 0  34.125 0.25 0  34.875 0.25 0  35.625 0.25 0  36.375 0.25 0  37.125 0.25 0  37.875 0.25 0  38.625 0.25 0  39.375 0.25 0  40.125 0.25 0  40.875 0.25 0  41.625 0.25 0  42.375 0.25 0  43.125 0.25 0  43.875 0.25 0  44.625 0.25 0  45.375 0.25 0  46.125 0.25 0  46.875 0.25 0  47.625 0.25 0  48.375 0.25 0  49.125 0.25 0  49.875 0.25 0  50.625 0.25 0  51.375 0.25 0  52.125 0.25 0  52.875 0.25 0  53.625 0.25 0  54.375 0.25 0  55.125 0.25 0  55.875 0.25 0  56.625 0.25 0  57.375 0.25 0  58.125 0.25 0  58.875 0.25 0  59.625 0.25 0  0.375 0.75 0  1.125 0.75 0  1.875 0.75 0  2.625 0.75 0  3.375 0.75 0  4.125 0.75 0  4.875 0.75 0  5.625 0.75 0  6.375 0.75 0  7.125 0.75 0  7.875 0.75 0  8.625 0.75 0  9.375 0.75 0  10.125 0.75 0  10.875 0.75 0  11.625 0.75 0  12.375 0.75 0  13.125 0.75 0  13.875 0.75 0  14.625 0.75 0  15.375 0.75 0  16.125 0.75 0  16.875 0.75 0  17.625 0.75 0  18.375 0.75 0  19.125 0.75 0  19.875 0.75 0  20.625 0.75 0  21.375 0.75 0  22.125 0.75 0  22.875 0.75 0  23.625 0.75 0  24.375 0.75 0  25.125 0.75 0  25.875 0.75 0  26.625 0.75 0  27.375 0.75 0  28.125 0.75 0  28.875 0.75 0  29.625 0.75 0  30.375 0.75 0  31.125 0.75 0  31.875 0.75 0  32.625 0.75 0  33.375 0.75 0  34.125 0.75 0  34.875 0.75 0  35.625 0.75 0  36.375 0.75 0  37.125 0.75 0  37.875 0.75 0  38.625 0.75 0  39.375 0.75 0  40.125 0.75 0  40
[...]
<PointData  Scalars="f_8-1"> 
<DataArray  type="Float64"  Name="f_8-1"  format="ascii">-3.7083636659394701e+00  -3.6617077900989687e+00  -3.6153715902232286e+00  -3.5690302035959869e+00  -3.5226885285387097e+00  -3.4763469079668332e+00  -3.4300060631987273e+00  -3.3836666410264558e+00  -3.3373286628671490e+00  -3.2909913508721100e+00  -3.2446538766754935e+00  -3.1983159021163168e+00  -3.1519774675737238e+00  -3.1056387410406487e+00  -3.0592998651236938e+00  -3.0129609259180867e+00  -2.9666219638356384e+00  -2.9202829953144809e+00  -2.8739440255533322e+00  -2.8276050560437707e+00  -2.7812660869212413e+00  -2.7349271181792578e+00  -2.6885881497262960e+00  -2.6422491815440150e+00  -2.5959102136046077e+00  -2.5495712459091080e+00  -2.5032322784510628e+00  -2.4568933112330833e+00  -2.4105543442534692e+00  -2.3642153775135961e+00  -2.3178764110129029e+00  -2.2715374447518526e+00  -2.2251984787303241e+00  -2.1788595129484376e+00  -2.1325205474061870e+00  -2.0861815821035714e+00  -2.0398426170405926e+00  -1.9935036522172664e+00  -1.9471646876335880e+00  -1.9008257232895684e+00  -1.8544867591852161e+00  -1.8081477953204832e+00  -1.7618088316954439e+00  -1.7154698683100107e+00  -1.6691309051644323e+00  -1.6227919422581241e+00  -1.5764529795924633e+00  -1.5301140171645218e+00  -1.4837750549807269e+00  -1.4374360930273227e+00  -1.3910971313341902e+00  -1.3447581698373157e+00  -1.2984192086742998e+00  -1.2520802475515878e+00  -1.2057412870941739e+00  -1.1594023259785218e+00  -1.1130633669935746e+00  -1.0667244042925503e+00  -1.0203854500447844e+00  -9.7404647907769737e-01  -9.2770754297732372e-01  -8.8136853689395067e-01  -8.3502967141615492e-01  -7.8869052831707565e-01  -7.4235192551559526e-01  -6.9601228776590274e-01  -6.4967458653899379e-01  -6.0333332617122970e-01  -5.5699836542144421e-01  -5.1065239309853216e-01  -4.6432437687253714e-01  -4.1796671550551207e-01  -3.7165351392462420e-01  -3.2527624567589258e-01  -2.7900600175848622e-01  -2.3262807929514454e-01  -1.8642261809484217e-01  -1.3994699613917277e-01  -9.3608215702435632e-02  -4.6893439824918629e-02  7.6155257007628682e-04  -3.7081568634589464e+00  -3.6617083762208709e+00  -3.6153573603286131e+00  -3.5690180929749507e+00  -3.5226771549020315e+00  -3.4763359944863059e+00  -3.4299954399027577e+00  -3.3836561650085204e+00  -3.3373181262590412e+00  -3.2909805536495895e+00  -3.2446427558002462e+00  -3.1983045134472232e+00  -3.1519659054337081e+00  -3.1056270833403326e+00  -3.0592881608200533e+00  -3.0129492006976215e+00  -2.9666102297848940e+00  -2.9202712576177285e+00  -2.8739322863533650e+00  -2.8275933162007343e+00  -2.7812543467916080e+00  -2.7349153779158422e+00  -2.6885764093972244e+00  -2.6422374411832994e+00  -2.5958984732270651e+00  -2.5495595055240488e+00  -2.5032205380615600e+00  -2.4568815708420506e+00  -2.4105426038613067e+00  -2.3642036371213089e+00  -2.3178646706203727e+00  -2.2715257043594788e+00  -2.2251867383379706e+00  -2.1788477725562596e+00  -2.1325088070140987e+00  -2.0861698417116399e+00  -2.0398308766487840e+00  -1.9934919118255949e+00  -1.9471529472420432e+00  -1.9008139828981629e+00  -1.8544750187939132e+00  -1.8081360549293597e+00  -1.7617970913043453e+00  -1.7154581279192478e+00  -1.6691191647733246e+00  -1.6227802018681248e+00  -1.5764412392004525e+00  -1.5301022767770767e+00  -1.4837633145839177e+00  -1.4374243526504045e+00  -1.3910853909158070e+00  -1.3447464295052149e+00  -1.2984074681636224e+00  -1.2520685074076709e+00  -1.2057295462011133e+00  -1.1593905866029539e+00  -1.1130516245673259e+00  -1.0667126679455530e+00  -1.0203737017022305e+00  -9.7403475417635144e-01  -9.2769577281997240e-01  -8.8135685314761258e-01  -8.3501782504525568e-01  -7.8867898410125725e-01  -7.4233982936816800e-01  -6.9600118466516514e-01  -6.4966173264384042e-01  -6.0332350323989892e-01  -5.5698343146261908e-01  -5.1064589575253894e-01  -4.6430452057199062e-01  -4.1796766178001232e-01  -3.7162462115001427e-01  -3.2529050986390901e-01  -2.7896532345178471e-01  -2.3264687819757518e-01  -1.8635123055631705e-01  -1.3988760596931110e-01  -9.3524838198231458e-02  -4.6592405621348247e-02  -1.1390986085070414e-04  -3.7081965914171509e+00  -3.6617430436601848e+00  -3.6153597987458785e+00  -3.5690021691229550e+00  -3.5226534829656861e+00  -3.4763088118996506e+00  -3.4299665847341920e+00  -3.3836261277394168e+00  -3.3372869931944296e+00  -3.2909486693708261e+00  -3.2446105935819167e+00  -3.1982723885819015e+00  -3.1519339356876985e+00  -3.1055952668147406e+00  -3.0592564552179331e+00  -3.0129175629569085e+00  -2.9665786296491632e+00  -2.9202396768183574e+00  -2.8739007151294214e+00  -2.8275617495360090e+00  -2.7812227822979931e+00  -2.7348838144273242e+00  -2.6885448463892985e+00  -2.6422058783960840e+00  -2.5958669105489944e+00  -2.5495279428954483e+00  -2.5031889754589662e+00  -2.4568500082507936e+00  -2.4105110412766426e+00  -2.3641720745393209e+00  -2.3178331080402228e+00  -2.2714941417800811e+00  -2.2251551757592236e+00  -2.1788162099778519e+00  -2.1324772444360400e+00  -2.0861382791338463e+00  -2.0397993140712760e+00  -1.9934603492483345e+00  -1.9471213846650552e+00  -1.9007824203214092e+00  -1.8544434562174568e+00  -1.8081044923530494e+00  -1.7617655287285268e+00  -1.7154265653431588e+00  -1.6690876021985357e+00  -1.6227486392912993e+00  -1.5764096766285354e+00  -1.5300707141954881e+00  -1.4837317520228213e+00  -1.4373927900473917e+00  -1.3910538283986262e+00  -1.3447148668136870e+00  -1.2983759058224222e+00  -1.2520369443675330e+00  -1.2056979845385314e+00  -1.1593590222546524e+00  -1.1130200653884799e+00  -1.0666810989682365e+00  -1.0203421510331026e+00  -9.7400316998551051e-01  -9.2766424898272171e-01  -8.8132522342040731e-01  -8.3498637744881588e-01  -7.8864723309307960e-01  -7.4230857271984318e-01  -6.9596915220974320e-01  -6.4963089420273779e-01  -6.0329090262228480e-01  -5.5695344376036926e-01  -5.1061228612393772e-01  -4.6427649856873460e-01  -4.1793285772449923e-01  -3.7160168235143320e-01  -3.2525476128994180e-01  -2.7893976156947975e-01  -2.3258015211541888e-01  -1.8626247848398297e-01  -1.3975914729373776e-01  -9.3369275623120168e-02  -4.6532347335840843e-02  -1.0855507509612038e-04  -3.7081984074123429e+00  -3.6617627040617315e+00  -3.6153665504628165e+00  -3.5689975644723111e+00  -3.5226428461347559e+00  -3.4762953064794391e+00  -3.4299516703834869e+00  -3.3836102707271256e+00  -3.3372703375512560e+00  -3.2909314974308996e+00  -3.2445932443623886e+00  -3.1982550793249391e+00  -3.1519167446105980e+00  -3.1055781905956947e+00  -3.0592394626225836e+00  -3.0129006223627326e+00  -2.9665617183224033e+00  -2.9202227808256049e+00  -2.8738838268151974e+00  -2.8275448649349788e+00  -2.7812058994674724e+00  -2.7348669324276331e+00  -2.6885279647825606e+00  -2.6421889969733314e+00  -2.5958500292145925e+00  -2.5495110616027268e+00  -2.5031720941868092e+00  -2.4568331269883412e+00  -2.4104941600191641e+00  -2.3641551932841671e+00  -2.3178162267863547e+00  -2.2714772605268245e+00  -2.2251382945063320e+00  -2.1787993287251890e+00  -2.1324603631835437e+00  -2.0861213978814810e+00  -2.0397824328190275e+00  -1.9934434679962123e+00  -1.9471045034130343e+00  -1.9007655390695180e+00  -1.8544265749656068e+00  -1.8080876111014534e+00  -1.7617486474766944e+00  -1.7154096840921371e+00  -1.6690707209460875e+00  -1.6227317580420686e+00  -1.5763927953727774e+00  -1.5300538329533726e+00  -1.4837148707525911e+00  -1.4373759088345517e+00  -1.3910369470688912e+00  -1.3446979857187562e+00  -1.2983590242579646e+00  -1.2520200637295591e+00  -1.2056811020883806e+00  -1.1593421433027478e+00  -1.1130031797699960e+00  -1.0666642258759245e+00  -1.0203252547989541e+00  -9.7398631583105211e-01  -9.2764731990200833e-01  -8.8130842538013865e-01  -8.3496935587069654e-01  -7.8863058561364485e-01  -7.4229131626102274e-01  -6.9595287052127464e-01  -6.4961309512552601e-01  -6.0327545446769115e-01  -5.5693446581838513e-01  -5.1059878104102163e-01  -4.6425511013211035e-01  -4.1792419037917611e-01  -3.7157557545860709e-01  -3.2525509733698665e-01  -2.7889610269154641e-01  -2.3257839717311873e-01  -1.8616022250958292e-01  -1.3975503223127192e-01  -9.3196610438549085e-02  -4.6611499363020503e-02  -3.6990592808864382e-06  -3.7081927458033728e+00  -3.6617739056428213e+00  -3.6153758209923632e+00  -3.5690040193992325e+00  -3.5226475932821861e+00  -3.4762992270014252e+00  -3.4299551769298677e+00  -3.3836135639546270e+00  -3.3372734990478143e+00  -3.2909345305849635e+00  -3.2445961768521858e+00  -3.1982579672836620e+00  -3.1519196296918639e+00  -3.1055810902140180e+00  -3.0592423784255787e+00  -3.0129035503462855e+00  -2.9665646538585841e+00  -2.9202257205801421e+00  -2.8738867687383314e+00  -2.8275478079359342e+00  -2.7812088429810480e+00  -2.7348698761876027e+00  -2.6885309086570452e+00  -2.6421919409036745e+00  -2.5958529731709259e+00  -2.5495140055723078e+00  -2.5031750381625977e+00  -2.4568360709675341e+00  -2.4104971039999281e+00  -2.3641581372658851e+00  -2.3178191707684843e+00  -2.2714802045092406e+00  -2.2251412384888885e+00  -2.1788022727078151e+00  -2.1324633071662098e+00  -2.0861243418641529e+00  -2.0397853768017029e+00  -1.9934464119788802e+00  -1.9471074473957057e+00  -1.9007684830521381e+00  -1.8544295189482902e+00  -1.8080905550839526e+00  -1.7617515914595132e+00  -1.7154126280742148e+00  -1.6690736649296261e+00  -1.6227347020224472e+00  -1.5763957393595767e+00  -1.5300567769267321e+00  -1.4837178147533205e+00  -1.4373788527792550e+00  -1.3910398911264441e+00  -1.3447009295496910e+00  -1.2983619685381971e+00  -1.2520230071256606e+00  -1.2056840472027723e+00  -1.1593450851127334e+00  -1.1130061278509327e+00  -1.0666671622114141e+00  -1.0203282128154600e+00  -9.7398923443776220e-01  -9.2765030901562562e-01  -8.8131129049341406e-01  -8.3497243547725652e-01  -7.8863330074198434e-01  -7.4229464097017428e-01  -6.9595519299991904e-01  -6.4961704386953167e-01  -6.0327680802031813e-01  -5.5693992748250576e-01  -5.1059789174712999e-01  -4.6426404149158085e-01  -4.1791859475715248e-01  -3.7159144624331952e-01  -3.2524020687978666e-01  -2.7892056207548077e-01  -2.3254370496875690e-01  -1.8618507440430981e-01  -1.3970417532787752e-01  -9.3211589971438455e-02  -4.6597758912186475e-02  -1.0465902126058668e-05  -3.7081983978101953e+00  -3.6617626563159997e+00  -3.6153665018287540e+00  -3.5689975289466171e+00  -3.5226428222443076e+00  -3.4762952905880073e+00  -3.4299516594115271e+00  -3.3836102634998753e+00  -3.3372703329649838e+00  -3.2909314938779439e+00  -3.2445932410372840e+00  -3.1982550763325754e+00  -3.1519167422183836e+00  -3.1055781888253637e+00  -3.0592394613026386e+00  -3.0129006212950942e+00  -2.9665617173699790e+00  -2.9202227799182117e+00  -2.8738838259249277e+00  -2.8275448640531837e+00  -2.7812058985919346e+00  -2.7348669315574834e+00  -2.6885279639168780e+00  -2.6421889961111158e+00  -2.5958500283549570e+00  -2.5495110607448948e+00  -2.5031720933302637e+00  -2.4568331261327021e+00  -2.4104941591641200e+00  -2.3641551924295712e+00  -2.3178162259320456e+00  -2.2714772596727175e+00  -2.2251382936523991e+00  -2.1787993278713502e+00  -2.1324603623297689e+00  -2.0861213970277550e+00  -2.0397824319653286e+00  -1.9934434671425387e+00  -1.9471045025593681e+00  -1.9007655382158597e+00  -1.8544265741119539e+00  -1.8080876102477976e+00  -1.7617486466230363e+00  -1.7154096832384489e+00  -1.6690707200923800e+00  -1.6227317571883237e+00  -1.5763927945189562e+00  -1.5300538320994728e+00  -1.4837148698985629e+00  -1.4373759079803303e+00  -1.3910369462143877e+00  -1.3446979848638616e+00  -1.2983590234024431e+00  -1.2520200628732538e+00  -1.2056811012306403e+00  -1.1593421424434907e+00  -1.1130031789073902e+00  -1.0666642250106255e+00  -1.0203252539257266e+00  -9.7398631495357502e-01  -9.2764731900565633e-01  -8.8130842447824453e-01  -8.3496935492539881e-01  -7.8863058466202896e-01  -7.4229131521703318e-01  -6.9595286946637991e-01  -6.4961309389598021e-01  -6.0327545320491294e-01  -5.5693446427638083e-01  -5.1059877942122278e-01  -4.6425510821928995e-01  -4.1792418846209678e-01  -3.7157557387432588e-01  -3.2525509677042663e-01  -2.7889610499222095e-01  -2.3257840099213559e-01  -1.8616022907013033e-01  -1.3975503154981203e-01  -9.3196611736916263e-02  -4.6611474389469353e-02  -3.7100193114514143e-06  -3.7081965769334118e+00  -3.6617429044826442e+00  -3.6153596820060483e+00  -3.5690020902983628e+00  -3.5226534318214537e+00  -3.4763087787380331e+00  -3.4299665629185552e+00  -3.3836261132248291e+00  -3.3372869831653813e+00  -3.2909486618652948e+00  -3.2446105877156342e+00  -3.1982723841249059e+00  -3.1519339324553566e+00  -3.1055952644693692e+00  -3.0592564533810553e+00  -3.0129175613411681e+00  -2.9665786280938864e+00  -2.9202396752579309e+00  -2.8739007135484012e+00  -2.8275617479375277e+00  -2.7812227806886902e+00  -2.7348838128122499e+00  -2.6885448447714104e+00  -2.6422058767768379e+00  -2.5958669089291035e+00  -2.5495279412752438e+00  -2.5031889738385980e+00  -2.4568500066303600e+00  -2.4105110396561868e+00  -2.3641720729188735e+00  -2.3178331064197839e+00  -2.2714941401596676e+00  -2.2251551741388291e+00  -2.1788162083574742e+00  -2.1324772428156735e+00  -2.0861382775134936e+00  -2.0397993124509148e+00  -1.9934603476279902e+00  -1.9471213830447043e+00  -1.9007824187010396e+00  -1.8544434545970794e+00  -1.8081044907326402e+00  -1.7617655271080674e+00  -1.7154265637226427e+00  -1.6690876005779232e+00  -1.6227486376705431e+00  -1.5764096750075716e+00  -1.5300707125742092e+00  -1.4837317504011154e+00  -1.4373927884250173e+00  -1.3910538267753141e+00  -1.3447148651889402e+00  -1.2983759041957015e+00  -1.2520369427376772e+00  -1.2056979829045837e+00  -1.1593590206137556e+00  -1.1130200637393246e+00  -1.0666810973034766e+00  -1.0203421493523344e+00  -9.7400316826929378e-01  -9.2766424723673480e-01  -8.8132522159455007e-01  -8.3498637556836364e-01  -7.8864723104058321e-01  -7.4230857055869792e-01  -6.9596914971395873e-01  -6.4963089145047592e-01  -6.0329089932478563e-01  -5.5695343981414891e-01  -5.1061228152299842e-01  -4.6427649252513592e-01  -4.1793285167120969e-01  -3.7160167387793075e-01  -3.2525475810525445e-01  -2.7893975846063346e-01  -2.3258017084810181e-01  -1.8626249389898070e-01  -1.3975917705752400e-01  -9.3369251853619967e-02  -4.6532315731539008e-02  -1.0851528045986148e-04  -3.7081567378072471e+00  -3.6617080955233776e+00  -3.6153571810839336e+00  -3.5690179831329631e+00  -3.5226770881906777e+00  -3.4763359545703478e+00  -3.4299954169198670e+00  -3.3836561522028101e+00  -3.3373181192158525e+00  -3.2909805503257430e+00  -3.2446427555346951e+00  -3.1983045157683776e+00  -3.1519659096203338e+00  -3.1056270885948893e+00  -3.0592881665232272e+00  -3.0129492064936181e+00  -2.9666102355263422e+00  -2.9202712632730630e+00  -2.8739322919364056e+00  -2.8275933217341813e+00  -2.7812543522939301e+00  -2.7349153833991457e+00  -2.6885764148688263e+00  -2.6422374466475271e+00  -2.5958984786865300e+00  -2.5495595109803904e+00  -2.5032205435158588e+00  -2.4568815762949963e+00  -2.4105426093133984e+00  -2.3642036425728037e+00  -2.3178646760715025e+00  -2.2715257098103669e+00  -2.2251867437887016e+00  -2.1788477780069013e+00  -2.1325088124646654e+00  -2.0861698471621617e+00  -2.0398308820992757e+00  -1.9934919172760639e+00  -1.9471529526924869e+00  -1.9008139883485595e+00  -1.8544750242442689e+00  -1.8081360603796626e+00  -1.7617970967545828e+00  -1.7154581333693595e+00  -1.6691191702232722e+00  -1.6227802073178252e+00  -1.5764412446497889e+00  -1.5301022822258892e+00  -1.4837633200319591e+00  -1.4374243580973232e+00  -1.3910853963610674e+00  -1.3447464349480740e+00  -1.2984074736029103e+00  -1.2520685128418656e+00  -1.2057295516275883e+00  -1.1593905920186884e+00  -1.1130516299663031e+00  -1.0667126733222372e+00  -1.0203737070423404e+00  -9.7403475947114415e-01  -9.2769577803439218e-01  -8.8135685827271226e-01  -8.3501782999322738e-01  -7.8867898887976950e-01  -7.4233983376023871e-01  -6.9600118874780548e-01  -6.4966173591410703e-01  -6.0332350595842743e-01  -5.5698343260322358e-01  -5.1064589594522825e-01  -4.6430451803757383e-01  -4.1796765811781572e-01  -3.7162461396106083e-01  -3.2529050523619757e-01  -2.7896532830920046e-01  -2.3264690312769659e-01  -1.8635130284534948e-01  -1.3988763006949168e-01  -9.3524897766937745e-02  -4.6592208702911281e-02  -1.1401977481002101e-04  -3.7083631514206652e+00  -3.6617075092512894e+00  -3.6153714131135715e+00  -3.5690300960796724e+00  -3.5226884634764390e+00  -3.4763468691773918e+00  -3.4300060411530353e+00  -3.3836666292216790e+00  -3.3373286568706320e+00  -3.2909913485696549e+00  -3.2446538775034046e+00  -3.1983159057842543e+00  -3.1519774734594779e+00  -3.1056387483214163e+00  -3.0592998730889840e+00  -3.0129609341191856e+00  -2.9666219720596585e+00  -2.9202830034924765e+00  -2.8739440336804987e+00  -2.8276050641339472e+00  -2.7812660949885055e+00  -2.7349271262331514e+00  -2.6885881577724282e+00  -2.6422491895855078e+00  -2.5959102216432037e+00  -2.5495712539458366e+00  -2.5032322864865924e+00  -2.4568933192678304e+00  -2.4105543522877428e+00  -2.3642153855475323e+00  -2.3178764190466361e+00  -2.2715374527854646e+00  -2.2251984867638606e+00  -2.1788595209819337e+00  -2.1325205554396471e+00  -2.0861815901370071e+00  -2.0398426250740203e+00  -1.9935036602506739e+00  -1.9471646956669826e+00  -1.9008257313229142e+00  -1.8544867672185146e+00  -1.8081478033537295e+00  -1.7618088397286156e+00  -1.7154698763430394e+00  -1.6691309131972725e+00  -1.6227919502906862e+00  -1.5764529876246054e+00  -1.5301140251960570e+00  -1.4837750630113824e+00  -1.4374361010566785e+00  -1.3910971393616580e+00  -1.3447581778619859e+00  -1.2984192166949302e+00  -1.2520802555662274e+00  -1.2057412951002024e+00  -1.1594023339716395e+00  -1.1130633749684986e+00  -1.0667244122396353e+00  -1.0203854579539806e+00  -9.7404648692639606e-01  -9.2770755074931266e-01  -8.8136854453222702e-01  -8.3502967890814705e-01  -7.8869053550293977e-01  -7.4235193246050368e-01  -6.9601229396808140e-01  -6.4967459249993231e-01  -6.0333333021777324e-01  -5.5699836985122064e-01  -5.1065239257706396e-01  -4.6432437937913595e-01  -4.1796670651654161e-01  -3.7165351591836460e-01  -3.2527622561989544e-01  -2.7900602803953595e-01  -2.3262806725946378e-01  -1.8642275438026409e-01  -1.3994694594887178e-01  -9.3608426677321471e-02  -4.6893042491396940e-02  7.6105878628990428e-04  -3.6847885641606597e+00  -3.6384454511012474e+00  -3.5921120228995300e+00  -3.5457737983455084e+00  -3.4994335687819280e+00  -3.4530930422929949e+00  -3.4067532902297999e+00  -3.3604147999137468e+00  -3.3140772029629852e+00  -3.2677397021940342e+00  -3.2214017965321795e+00  -3.1750634197977021e+00  -3.1287247154608289e+00  -3.0823858389695422e+00  -3.0360468908487581e+00  -2.9897079199566918e+00  -2.9433689451091460e+00  -2.8970299715707140e+00  -2.8506909999422145e+00  -2.8043520297116067e+00  -2.7580130603586737e+00  -2.7116740915633395e+00  -2.6653351231518143e+00  -2.6189961550464540e+00  -2.5726571872071320e+00  -2.5263182196206144e+00  -2.4799792522776807e+00  -2.4336402851772800e+00  -2.3873013183168115e+00  -2.3409623516968443e+00  -2.2946233853163163e+00  -2.2482844191757341e+00  -2.2019454532746718e+00  -2.1556064876133809e+00  -2.1092675221916677e+00  -2.0629285570096560e+00  -2.0165895920672492e+00  -1.9702506273645115e+00  -1.9239116629014190e+00  -1.8775726986779937e+00  -1.8312337346942058e+00  -1.7848947709500775e+00  -1.7385558074456029e+00  -1.6922168441808554e+00  -1.6458778811556645e+00  -1.5995389183704563e+00  -1.5531999558243617e+00  -1.5068609935192969e+00  -1.4605220314513678e+00  -1.4141830696288562e+00  -1.3678441080347892e+00  -1.3215051467044858e+00  -1.2751661855658925e+00  -1.2288272247659344e+00  -1.1824882640087018e+00  -1.1361493038849038e+00  -1.0898103432265751e+00  -1.0434713843095029e+00  -9.9713242274190073e-01  -9.5079346683671384e-01  -9.0445450103611391e-01  -8.5811555377711790e-01  -8.1177657379166102e-01  -7.6543765099078642e-01  -7.1909862989213058e-01  -6.7275977058225411e-01  -6.2642063780977497e-01  -5.800819200894