<?xml version="1.0"?>
<VTKFile type="UnstructuredGrid"  version="0.1"  >
<UnstructuredGrid>
<Piece  NumberOfPoints="1369" NumberOfCells="2560">
<Points>
<DataArray  type="Float64"  NumberOfComponents="3"  format="ascii">0 0 0  0.75 0 0  1.5 0 0  2.25 0 0  3 0 0  3.75 0 0  4.5 0 0  5.25 0 0  6 0 0  6.75 0 0  7.5 0 0  8.25 0 0  9 0 0  9.75 0 0  10.5 0 0  11.25 0 0  12 0 0  12.75 0 0  13.5 0 0  14.25 0 0  15 0 0  15.75 0 0  16.5 0 0  17.25 0 0  18 0 0  18.75 0 0  19.5 0 0  20.25 0 0  21 0 0  21.75 0 0  22.5 0 0  23.25 0 0  24 0 0  24.75 0 0  25.5 0 0  26.25 0 0  27 0 0  27.75 0 0  28.5 0 0  29.25 0 0  30 0 0  30.75 0 0  31.5 0 0  32.25 0 0  33 0 0  33.75 0 0  34.5 0 0  35.25 0 0  36 0 0  36.75 0 0  37.5 0 0  38.25 0 0  39 0 0  39.75 0 0  40.5 0 0  41.25 0 0  42 0 0  42.75 0 0  43.5 0 0  44.25 0 0  45 0 0  45.75 0 0  46.5 0 0  47.25 0 0  48 0 0  48.75 0 0  49.5 0 0  50.25 0 0  51 0 0  51.75 0 0  52.5 0 0  53.25 0 0  54 0 0  54.75 0 0  55.5 0 0  56.25 0 0  57 0 0  57.75 0 0  58.5 0 0  59.25 0 0  60 0 0  0 0.5 0  0.75 0.5 0  1.5 0.5 0  2.25 0.5 0  3 0.5 0  3.75 0.5 0  4.5 0.5 0  5.25 0.5 0  6 0.5 0  6.75 0.5 0  7.5 0.5 0  8.25 0.5 0  9 0.5 0  9.75 0.5 0  10.5 0.5 0  11.25 0.5 0  12 0.5 0  12.75 0.5 0  13.5 0.5 0  14.25 0.5 0  15 0.5 0  15.75 0.5 0  16.5 0.5 0  17.25 0.5 0  18 0.5 0  18.75 0.5 0  19.5 0.5 0  20.25 0.5 0  21 0.5 0  21.75 0.5 0  22.5 0.5 0  23.25 0.5 0  24 0.5 0  24.75 0.5 0  25.5 0.5 0  26.25 0.5 0  27 0.5 0  27.75 0.5 0  28.5 0.5 0  29.25 0.5 0  30 0.5 0  30.75 0.5 0  31.5 0.5 0  32.25 0.5 0  33 0.5 0  33.75 0.5 0  34.5 0.5 0  35.25 0.5 0  36 0.5 0  36.75 0.5 0  37.5 0.5 0  38.25 0.5 0  39 0.5 0  39.75 0.5 0  40.5 0.5 0  41.25 0.5 0  42 0.5 0  42.75 0.5 0  43.5 0.5 0  44.25 0.5 0  45 0.5 0  45.75 0.5 0  46.5 0.5 0  47.25 0.5 0  48 0.5 0  48.75 0.5 0  49.5 0.5 0  50.25 0.5 0  51 0.5 0  51.75 0.5 0  52.5 0.5 0  53.25 0.5 0  54 0.5 0  54.75 0.5 0  55.5 0.5 0  56.25 0.5 0  57 0.5 0  57.75 0.5 0  58.5 0.5 0  59.25 0.5 0  60 0.5 0  0 1 0  0.75 1 0  1.5 1 0  2.25 1 0  3 1 0  3.75 1 0  4.5 1 0  5.25 1 0  6 1 0  6.75 1 0  7.5 1 0  8.25 1 0  9 1 0  9.75 1 0  10.5 1 0  11.25 1 0  12 1 0  12.75 1 0  13.5 1 0  14.25 1 0  15 1 0  15.75 1 0  16.5 1 0  17.25 1 0  18 1 0  18.75 1 0  19.5 1 0  20.25 1 0  21 1 0  21.75 1 0  22.5 1 0  23.25 1 0  24 1 0  24.75 1 0  25.5 1 0  26.25 1 0  27 1 0  27.75 1 0  28.5 1 0  29.25 1 0  30 1 0  30.75 1 0  31.5 1 0  32.25 1 0  33 1 0  33.75 1 0  34.5 1 0  35.25 1 0  36 1 0  36.75 1 0  37.5 1 0  38.25 1 0  39 1 0  39.75 1 0  40.5 1 0  41.25 1 0  42 1 0  42.75 1 0  43.5 1 0  44.25 1 0  45 1 0  45.75 1 0  46.5 1 0  47.25 1 0  48 1 0  48.75 1 0  49.5 1 0  50.25 1 0  51 1 0  51.75 1 0  52.5 1 0  53.25 1 0  54 1 0  54.75 1 0  55.5 1 0  56.25 1 0  57 1 0  57.75 1 0  58.5 1 0  59.25 1 0  60 1 0  0 1.5 0  0.75 1.5 0  1.5 1.5 0  2.25 1.5 0  3 1.5 0  3.75 1.5 0  4.5 1.5 0  5.25 1.5 0  6 1.5 0  6.75 1.5 0  7.5 1.5 0  8.25 1.5 0  9 1.5 0  9.75 1.5 0  10.5 1.5 0  11.25 1.5 0  12 1.5 0  12.75 1.5 0  13.5 1.5 0  14.25 1.5 0  15 1.5 0  15.75 1.5 0  16.5 1.5 0  17.25 1.5 0  18 1.5 0  18.75 1.5 0  19.5 1.5 0  20.25 1.5 0  21 1.5 0  21.75 1.5 0  22.5 1.5 0  23.25 1.5 0  24 1.5 0  24.75 1.5 0  25.5 1.5 0  26.25 1.5 0  27 1.5 0  27.75 1.5 0  28.5 1.5 0  29.25 1.5 0  30 1.5 0  30.75 1.5 0  31.5 1.5 0  32.25 1.5 0  33 1.5 0  33.75 1.5 0  34.5 1.5 0  35.25 1.5 0  36 1.5 0  36.75 1.5 0  37.5 1.5 0  38.25 1.5 0  39 1.5 0  39.75 1.5 0  40.5 1.5 0  41.25 1.5 0  42 1.5 0  42.75 1.5 0  43.5 1.5 0  44.25 1.5 0  45 1.5 0  45.75 1.5 0  46.5 1.5 0  47.25 1.5 0  48 1.5 0  48.75 1.5 0  49.5 1.5 0  50.25 1.5 0  51 1.5 0  51.75 1.5 0  52.5 1.5 0  53.25 1.5 0  54 1.5 0  54.75 1.5 0  55.5 1.5 0  56.25 1.5 0  57 1.5 0  57.75 1.5 0  58.5 1.5 0  59.25 1.5 0  60 1.5 0  0 2 0  0.75 2 0  1.5 2 0  2.25 2 0  3 2 0  3.75 2 0  4.5 2 0  5.25 2 0  6 2 0  6.75 2 0  7.5 2 0  8.25 2 0  9 2 0  9.75 2 0  10.5 2 0  11.25 2 0  12 2 0  12.75 2 0  13.5 2 0  14.25 2 0  15 2 0  15.75 2 0  16.5 2 0  17.25 2 0  18 2 0  18.75 2 0  19.5 2 0  20.25 2 0  21 2 0  21.75 2 0  22.5 2 0  23.25 2 0  24 2 0  24.75 2 0  25.5 2 0  26.25 2 0  27 2 0  27.75 2 0  28.5 2 0  29.25 2 0  30 2 0  30.75 2 0  31.5 2 0  32.25 2 0  33 2 0  33.75 2 0  34.5 2 0  35.25 2 0  36 2 0  36.75 2 0  37.5 2 0  38.25 2 0  39 2 0  39.75 2 0  40.5 2 0  41.25 2 0  42 2 0  42.75 2 0  43.5 2 0  44.25 2 0  45 2 0  45.75 2 0  46.5 2 0  47.25 2 0  48 2 0  48.75 2 0  49.5 2 0  50.25 2 0  51 2 0  51.75 2 0  52.5 2 0  53.25 2 0  54 2 0  54.75 2 0  55.5 2 0  56.25 2 0  57 2 0  57.75 2 0  58.5 2 0  59.25 2 0  60 2 0  0 2.5 0  0.75 2.5 0  1.5 2.5 0  2.25 2.5 0  3 2.5 0  3.75 2.5 0  4.5 2.5 0  5.25 2.5 0  6 2.5 0  6.75 2.5 0  7.5 2.5 0  8.25 2.5 0  9 2.5 0  9.75 2.5 0  10.5 2.5 0  11.25 2.5 0  12 2.5 0  12.75 2.5 0  13.5 2.5 0  14.25 2.5 0  15 2.5 0  15.75 2.5 0  16.5 2.5 0  17.25 2.5 0  18 2.5 0  18.75 2.5 0  19.5 2.5 0  20.25 2.5 0  21 2.5 0  21.75 2.5 0  22.5 2.5 0  23.25 2.5 0  24 2.5 0  24.75 2.5 0  25.5 2.5 0  26.25 2.5 0  27 2.5 0  27.75 2.5 0  28.5 2.5 0  29.25 2.5 0  30 2.5 0  30.75 2.5 0  31.5 2.5 0  32.25 2.5 0  33 2.5 0  33.75 2.5 0  34.5 2.5 0  35.25 2.5 0  36 2.5 0  36.75 2.5 0  37.5 2.5 0  38.25 2.5 0  39 2.5 0  39.75 2.5 0  40.5 2.5 0  41.25 2.5 0  42 2.5 0  42.75 2.5 0  43.5 2.5 0  44.25 2.5 0  45 2.5 0  45.75 2.5 0  46.5 2.5 0  47.25 2.5 0  48 2.5 0  48.75 2.5 0  49.5 2.5 0  50.25 2.5 0  51 2.5 0  51.75 2.5 0  52.5 2.5 0  53.25 2.5 0  54 2.5 0  54.75 2.5 0  55.5 2.5 0  56.25 2.5 0  57 2.5 0  57.75 2.5 0  58.5 2.5 0  59.25 2.5 0  60 2.5 0  0 3 0  0.75 3 0  1.5 3 0  2.25 3 0  3 3 0  3.75 3 0  4.5 3 0  5.25 3 0  6 3 0  6.75 3 0  7.5 3 0  8.25 3 0  9 3 0  9.75 3 0  10.5 3 0  11.25 3 0  12 3 0  12.75 3 0  13.5 3 0  14.25 3 0  15 3 0  15.75 3 0  16.5 3 0  17.25 3 0  18 3 0  18.75 3 0  19.5 3 0  20.25 3 0  21 3 0  21.75 3 0  22.5 3 0  23.25 3 0  24 3 0  24.75 3 0  25.5 3 0  26.25 3 0  27 3 0  27.75 3 0  28.5 3 0  29.25 3 0  30 3 0  30.75 3 0  31.5 3 0  32.25 3 0  33 3 0  33.75 3 0  34.5 3 0  35.25 3 0  36 3 0  36.75 3 0  37.5 3 0  38.25 3 0  39 3 0  39.75 3 0  40.5 3 0  41.25 3 0  42 3 0  42.75 3 0  43.5 3 0  44.25 3 0  45 3 0  45.75 3 0  46.5 3 0  47.25 3 0  48 3 0  48.75 3 0  49.5 3 0  50.25 3 0  51 3 0  51.75 3 0  52.5 3 0  53.25 3 0  54 3 0  54.75 3 0  55.5 3 0  56.25 3 0  57 3 0  57.75 3 0  58.5 3 0  59.25 3 0  60 3 0  0 3.5 0  0.75 3.5 0  1.5 3.5 0  2.25 3.5 0  3 3.5 0  3.75 3.5 0  4.5 3.5 0  5.25 3.5 0  6 3.5 0  6.75 3.5 0  7.5 3.5 0  8.25 3.5 0  9 3.5 0  9.75 3.5 0  10.5 3.5 0  11.25 3.5 0  12 3.5 0  12.75 3.5 0  13.5 3.5 0  14.25 3.5 0  15 3.5 0  15.75 3.5 0  16.5 3.5 0  17.25 3.5 0  18 3.5 0  18.75 3.5 0  19.5 3.5 0  20.25 3.5 0  21 3.5 0  21.75 3.5 0  22.5 3.5 0  23.25 3.5 0  24 3.5 0  24.75 3.5 0  25.5 3.5 0  26.25 3.5 0  27 3.5 0  27.75 3.5 0  28.5 3.5 0  29.25 3.5 0  30 3.5 0  30.75 3.5 0  31.5 3.5 0  32.25 3.5 0  33 3.5 0  33.75 3.5 0  34.5 3.5 0  35.25 3.5 0  36 3.5 0  36.75 3.5 0  37.5 3.5 0  38.25 3.5 0  39 3.5 0  39.75 3.5 0  40.5 3.5 0  41.25 3.5 0  42 3.5 0  42.75 3.5 0  43.5 3.5 0  44.25 3.5 0  45 3.5 0  45.75 3.5 0  46.5 3.5 0  47.25 3.5 0  48 3.5 0  48.75 3.5 0  49.5 3.5 0  50.25 3.5 0  51 3.5 0  51.75 3.5 0  52.5 3.5 0  53.25 3.5 0  54 3.5 0  54.75 3.5 0  55.5 3.5 0  56.25 3.5 0  57 3.5 0  57.75 3.5 0  58.5 3.5 0  59.25 3.5 0  60 3.5 0  0 4 0  0.75 4 0  1.5 4 0  2.25 4 0  3 4 0  3.75 4 0  4.5 4 0  5.25 4 0  6 4 0  6.75 4 0  7.5 4 0  8.25 4 0  9 4 0  9.75 4 0  10.5 4 0  11.25 4 0  12 4 0  12.75 4 0  13.5 4 0  14.25 4 0  15 4 0  15.75 4 0  16.5 4 0  17.25 4 0  18 4 0  18.75 4 0  19.5 4 0  20.25 4 0  21 4 0  21.75 4 0  22.5 4 0  23.25 4 0  24 4 0  24.75 4 0  25.5 4 0  26.25 4 0  27 4 0  27.75 4 0  28.5 4 0  29.25 4 0  30 4 0  30.75 4 0  31.5 4 0  32.25 4 0  33 4 0  33.75 4 0  34.5 4 0  35.25 4 0  36 4 0  36.75 4 0  37.5 4 0  38.25 4 0  39 4 0  39.75 4 0  40.5 4 0  41.25 4 0  42 4 0  42.75 4 0  43.5 4 0  44.25 4 0  45 4 0  45.75 4 0  46.5 4 0  47.25 4 0  48 4 0  48.75 4 0  49.5 4 0  50.25 4 0  51 4 0  51.75 4 0  52.5 4 0  53.25 4 0  54 4 0  54.75 4 0  55.5 4 0  56.25 4 0  57 4 0  57.75 4 0  58.5 4 0  59.25 4 0  60 4 0  0.375 0.25 0  1.125 0.25 0  1.875 0.25 0  2.625 0.25 0  3.375 0.25 0  4.125 0.25 0  4.875 0.25 0  5.625 0.25 0  6.375 0.25 0  7.125 0.25 0  7.875 0.25 0  8.625 0.25 0  9.375 0.25 0  10.125 0.25 0  10.875 0.25 0  11.625 0.25 0  12.375 0.25 0  13.125 0.25 0  13.875 0.25 0  14.625 0.25 0  15.375 0.25 0  16.125 0.25 0  16.875 0.25 0  17.625 0.25 0  18.375 0.25 0  19.125 0.25 0  19.875 0.25 0  20.625 0.25 0  21.375 0.25 0  22.125 0.25 0  22.875 0.25 0  23.625 0.25 0  24.375 0.25 0  25.125 0.25 0  25.875 0.25 0  26.625 0.25 0  27.375 0.25 0  28.125 0.25 0  28.875 0.25 0  29.625 0.25 0  30.375 0.25 0  31.125 0.25 0  31.875 0.25 0  32.625 0.25 0  33.375 0.25 0  34.125 0.25 0  34.875 0.25 0  35.625 0.25 0  36.375 0.25 0  37.125 0.25 0  37.875 0.25 0  38.625 0.25 0  39.375 0.25 0  40.125 0.25 0  40.875 0.25 0  41.625 0.25 0  42.375 0.25 0  43.125 0.25 0  43.875 0.25 0  44.625 0.25 0  45.375 0.25 0  46.125 0.25 0  46.875 0.25 0  47.625 0.25 0  48.375 0.25 0  49.125 0.25 0  49.875 0.25 0  50.625 0.25 0  51.375 0.25 0  52.125 0.25 0  52.875 0.25 0  53.625 0.25 0  54.375 0.25 0  55.125 0.25 0  55.875 0.25 0  56.625 0.25 0  57.375 0.25 0  58.125 0.25 0  58.875 0.25 0  59.625 0.25 0  0.375 0.75 0  1.125 0.75 0  1.875 0.75 0  2.625 0.75 0  3.375 0.75 0  4.125 0.75 0  4.875 0.75 0  5.625 0.75 0  6.375 0.75 0  7.125 0.75 0  7.875 0.75 0  8.625 0.75 0  9.375 0.75 0  10.125 0.75 0  10.875 0.75 0  11.625 0.75 0  12.375 0.75 0  13.125 0.75 0  13.875 0.75 0  14.625 0.75 0  15.375 0.75 0  16.125 0.75 0  16.875 0.75 0  17.625 0.75 0  18.375 0.75 0  19.125 0.75 0  19.875 0.75 0  20.625 0.75 0  21.375 0.75 0  22.125 0.75 0  22.875 0.75 0  23.625 0.75 0  24.375 0.75 0  25.125 0.75 0  25.875 0.75 0  26.625 0.75 0  27.375 0.75 0  28.125 0.75 0  28.875 0.75 0  29.625 0.75 0  30.375 0.75 0  31.125 0.75 0  31.875 0.75 0  32.625 0.75 0  33.375 0.75 0  34.125 0.75 0  34.875 0.75 0  35.625 0.75 0  36.375 0.75 0  37.125 0.75 0  37.875 0.75 0  38.625 0.75 0  39.375 0.75 0  40.125 0.75 0  40
[...]
<PointData  Scalars="f_8-1"> 
<DataArray  type="Float64"  Name="f_8-1"  format="ascii">8.4832837768338614e+00  8.3799106962507750e+00  8.2730519402138114e+00  8.1671816039435186e+00  8.0610641333309037e+00  7.9550102428710803e+00  7.8489418704692424e+00  7.7428769601861651e+00  7.6368113183996540e+00  7.5307458431096812e+00  7.4246803346461352e+00  7.3186148335891099e+00  7.2125493312231548e+00  7.1064838292611654e+00  7.0004183273488554e+00  6.8943528255564921e+00  6.7882873238710122e+00  6.6822218222955199e+00  6.5761563208296687e+00  6.4700908194736693e+00  6.3640253182275366e+00  6.2579598170912982e+00  6.1518943160649648e+00  6.0458288151485400e+00  5.9397633143420032e+00  5.8336978136453848e+00  5.7276323130586730e+00  5.6215668125818796e+00  5.5155013122149841e+00  5.4094358119579873e+00  5.3033703118109115e+00  5.1973048117737353e+00  5.0912393118464783e+00  4.9851738120291307e+00  4.8791083123216854e+00  4.7730428127241558e+00  4.6669773132365338e+00  4.5609118138588327e+00  4.4548463145910366e+00  4.3487808154331589e+00  4.2427153163852074e+00  4.1366498174471369e+00  4.0305843186189749e+00  3.9245188199007384e+00  3.8184533212924054e+00  3.7123878227939797e+00  3.6063223244054590e+00  3.5002568261268650e+00  3.3941913279581759e+00  3.2881258298994012e+00  3.1820603319505336e+00  3.0759948341115746e+00  2.9699293363825294e+00  2.8638638387633981e+00  2.7577983412541793e+00  2.6517328438548664e+00  2.5456673465654638e+00  2.4396018493859599e+00  2.3335363523163584e+00  2.2274708553566289e+00  2.1214053585067534e+00  2.0153398617666780e+00  1.9092743651363189e+00  1.8032088686155265e+00  1.6971433722041058e+00  1.5910778759019351e+00  1.4850123797096826e+00  1.3789468836317662e+00  1.2728813876875125e+00  1.1668158919523748e+00  1.0607503967042085e+00  9.5468490295655439e-01  8.4861941425412224e-01  7.4255394369263350e-01  6.3648853392886806e-01  5.3042335931023810e-01  4.2435890654804742e-01  3.1829725200215248e-01  2.1225089558146545e-01  1.0613803672228737e-01  2.2549972592821898e-03  8.4857590689350531e+00  8.3792414281268304e+00  8.2732779900028994e+00  8.1671534790836198e+00  8.0611024809374126e+00  7.9550320905402394e+00  7.8489676228427845e+00  7.7429018192466588e+00  7.6368363741760081e+00  7.5307708561033841e+00  7.4247053565459495e+00  7.3186398535999055e+00  7.2125743516058005e+00  7.1065088495641549e+00  7.0004433476660557e+00  6.8943778458701352e+00  6.7883123441849049e+00  6.6822468426089969e+00  6.5761813411428864e+00  6.4701158397866037e+00  6.3640503385401948e+00  6.2579848374036784e+00  6.1519193363770661e+00  6.0458538354603641e+00  5.9397883346535467e+00  5.8337228339566485e+00  5.7276573333696614e+00  5.6215918328925820e+00  5.5155263325254111e+00  5.4094608322681381e+00  5.3033953321207852e+00  5.1973298320833310e+00  5.0912643321557898e+00  4.9851988323381695e+00  4.8791333326304445e+00  4.7730678330326368e+00  4.6670023335447386e+00  4.5609368341667551e+00  4.4548713348986810e+00  4.3488058357405297e+00  4.2427403366922922e+00  4.1366748377539491e+00  4.0306093389255064e+00  3.9245438402069892e+00  3.8184783415983805e+00  3.7124128430996750e+00  3.6063473447108780e+00  3.5002818464320029e+00  3.3942163482630385e+00  3.2881508502039822e+00  3.1820853522548371e+00  3.0760198544156001e+00  2.9699543566862787e+00  2.8638888590668676e+00  2.7578233615573695e+00  2.6517578641577786e+00  2.5456923668680989e+00  2.4396268696883165e+00  2.3335613726184388e+00  2.2274958756584331e+00  2.1214303788082849e+00  2.0153648820679368e+00  1.9092993854373137e+00  1.8032338889162633e+00  1.6971683925045751e+00  1.5911028962020670e+00  1.4850374000091313e+00  1.3789719039291544e+00  1.2729064079777126e+00  1.1668409122165766e+00  1.0607754168766270e+00  9.5470992279347622e-01  8.4864443297125924e-01  7.4257895798009821e-01  6.3651353577385061e-01  5.3044829816442840e-01  4.2438369719638103e-01  3.1832172646877083e-01  2.1226222034516357e-01  1.0630726707236106e-01  -1.6656529585934262e-04  8.4852020269260748e+00  8.3793620409835388e+00  8.2732347351618536e+00  8.1671884993288444e+00  8.0611152478825012e+00  7.9550517865545292e+00  7.8489856495999968e+00  7.7429202904361869e+00  7.6368547483935156e+00  7.5307892539688259e+00  7.4247237495357226e+00  7.3186582476975577e+00  7.2125927454759511e+00  7.1065272434801692e+00  7.0004617415712058e+00  6.8943962397766025e+00  6.7883307380905924e+00  6.6822652365144881e+00  6.5761997350481494e+00  6.4701342336916632e+00  6.3640687324450633e+00  6.2580032313083604e+00  6.1519377302815634e+00  6.0458722293646714e+00  5.9398067285576719e+00  5.8337412278605836e+00  5.7276757272734153e+00  5.6216102267961503e+00  5.5155447264287902e+00  5.4094792261713396e+00  5.3034137260238037e+00  5.1973482259861727e+00  5.0912827260584415e+00  4.9852172262406294e+00  4.8791517265327284e+00  4.7730862269347343e+00  4.6670207274466531e+00  4.5609552280684857e+00  4.4548897288002296e+00  4.3488242296418846e+00  4.2427587305934509e+00  4.1366932316549363e+00  4.0306277328263143e+00  3.9245622341076052e+00  3.8184967354988157e+00  3.7124312369999308e+00  3.6063657386109531e+00  3.5003002403318950e+00  3.3942347421627392e+00  3.2881692441034960e+00  3.1821037461541710e+00  3.0760382483147528e+00  2.9699727505852436e+00  2.8639072529656504e+00  2.7578417554559689e+00  2.6517762580561963e+00  2.5457107607663318e+00  2.4396452635863706e+00  2.3335797665163129e+00  2.2275142695561412e+00  2.1214487727058318e+00  2.0153832759653492e+00  1.9093177793346183e+00  1.8032522828135042e+00  1.6971867864017491e+00  1.5911212900989067e+00  1.4850557939042091e+00  1.3789902978165089e+00  1.2729248018346095e+00  1.1668593059597385e+00  1.0607938102062415e+00  9.5472831464450580e-01  8.4866281955201461e-01  7.4259732601075967e-01  6.3653183767431720e-01  5.3046636829639859e-01  4.2440096597803595e-01  3.1833562712536595e-01  2.1227253162420093e-01  1.0618203202169774e-01  8.5494813379550987e-06  8.4852983471115078e+00  8.3792676730429481e+00  8.2732397790985015e+00  8.1671711205404272e+00  8.0611092245843246e+00  7.9550431061479525e+00  7.8489779204193022e+00  7.7429123589368505e+00  7.6368468783127907e+00  7.5307813717902752e+00  7.4247158706990826e+00  7.3186503682261632e+00  7.2125848661627181e+00  7.1065193641346980e+00  7.0004538622318240e+00  6.8943883604354017e+00  6.7883228587495239e+00  6.6822573571733530e+00  6.5761918557070747e+00  6.4701263543506817e+00  6.3640608531041769e+00  6.2579953519675717e+00  6.1519298509408928e+00  6.0458643500240976e+00  5.9397988492172180e+00  5.8337333485202540e+00  5.7276678479331968e+00  5.6216023474560393e+00  5.5155368470887884e+00  5.4094713468314497e+00  5.3034058466840310e+00  5.1973403466465129e+00  5.0912748467188917e+00  4.9852093469011987e+00  4.8791438471934105e+00  4.7730783475955301e+00  4.6670128481075643e+00  4.5609473487295054e+00  4.4548818494613611e+00  4.3488163503031290e+00  4.2427508512548071e+00  4.1366853523164000e+00  4.0306198534879050e+00  3.9245543547693069e+00  3.8184888561606329e+00  3.7124233576618555e+00  3.6063578592729955e+00  3.5002923609940453e+00  3.3942268628250076e+00  3.2881613647658781e+00  3.1820958668166610e+00  3.0760303689773596e+00  2.9699648712479649e+00  2.8638993736284877e+00  2.7578338761189150e+00  2.6517683787192579e+00  2.5457028814295111e+00  2.4396373842496786e+00  2.3335718871797431e+00  2.2275063902197068e+00  2.1214408933695545e+00  2.0153753966292620e+00  1.9093098999987825e+00  1.8032444034780060e+00  1.6971789070666752e+00  1.5911134107641265e+00  1.4850479145684787e+00  1.3789824184739361e+00  1.2729169224616532e+00  1.1668514264681855e+00  1.0607859302755962e+00  9.5472043312624988e-01  8.4865493237276501e-01  7.4258941871277062e-01  6.3652385951459822e-01  5.3045813992627366e-01  4.2439185018798781e-01  3.1832364475759739e-01  2.1224766766466729e-01  1.0614812840932215e-01  1.8579569899546436e-06  8.4852756377741478e+00  8.3792712222062100e+00  8.2732277187025236e+00  8.1671718385644620e+00  8.0611067453396892e+00  7.9550421122831301e+00  7.8489765628198764e+00  7.7429111286427350e+00  7.6368456190780218e+00  7.5307801211349679e+00  7.4247146182113601e+00  7.3186491162189045e+00  7.2125836140524591e+00  7.1065181120466363e+00  7.0004526101377351e+00  6.8943871083418777e+00  6.7883216066555052e+00  6.6822561050792677e+00  6.5761906036129352e+00  6.4701251022565254e+00  6.3640596010100330e+00  6.2579940998734340e+00  6.1519285988467702e+00  6.0458630979299883e+00  5.9397975971231283e+00  5.8337320964261794e+00  5.7276665958391417e+00  5.6216010953620046e+00  5.5155355949947689e+00  5.4094700947374559e+00  5.3034045945900559e+00  5.1973390945525493e+00  5.0912735946249530e+00  4.9852080948072759e+00  4.8791425950995073e+00  4.7730770955016455e+00  4.6670115960136993e+00  4.5609460966356625e+00  4.4548805973675334e+00  4.3488150982093181e+00  4.2427495991610176e+00  4.1366841002226264e+00  4.0306186013941510e+00  3.9245531026755773e+00  3.8184876040669193e+00  3.7124221055681619e+00  3.6063566071793209e+00  3.5002911089003916e+00  3.3942256107313691e+00  3.2881601126722622e+00  3.1820946147230642e+00  3.0760291168837783e+00  2.9699636191544085e+00  2.8638981215349513e+00  2.7578326240253959e+00  2.6517671266257614e+00  2.5457016293360368e+00  2.4396361321562328e+00  2.3335706350863314e+00  2.2275051381263427e+00  2.1214396412762619e+00  2.0153741445360871e+00  1.9093086479058086e+00  1.8032431513853762e+00  1.6971776549746274e+00  1.5911121586729848e+00  1.4850466624784240e+00  1.3789811663837925e+00  1.2729156703639057e+00  1.1668501743300348e+00  1.0607846779695449e+00  9.5471918018130841e-01  8.4865367708514960e-01  7.4258815502513176e-01  6.3652256588550971e-01  5.3045674036546575e-01  4.2439009002129063e-01  3.1832047607386493e-01  2.1224125322630469e-01  1.0613692451779447e-01  1.5696157680458268e-06  8.4852983496540126e+00  8.3792676829118768e+00  8.2732397891548217e+00  8.1671711248255310e+00  8.0611092270745850e+00  7.9550431074919628e+00  7.8489779212897099e+00  7.7429123595324620e+00  7.6368468787803341e+00  7.5307813721902557e+00  7.4247158710656551e+00  7.3186503685757724e+00  7.2125848665038417e+00  7.1065193644715663e+00  7.0004538625665651e+00  6.8943883607690974e+00  6.7883228590827036e+00  6.6822573575062725e+00  6.5761918560398724e+00  6.4701263546834138e+00  6.3640608534368841e+00  6.2579953523002683e+00  6.1519298512735752e+00  6.0458643503567746e+00  5.9397988495498941e+00  5.8337333488529195e+00  5.7276678482658658e+00  5.6216023477887003e+00  5.5155368474214539e+00  5.4094713471641214e+00  5.3034058470167045e+00  5.1973403469791783e+00  5.0912748470515590e+00  4.9852093472338650e+00  4.8791438475260751e+00  4.7730783479281937e+00  4.6670128484402280e+00  4.5609473490621788e+00  4.4548818497940275e+00  4.3488163506357917e+00  4.2427508515874708e+00  4.1366853526490610e+00  4.0306198538205669e+00  3.9245543551019777e+00  3.8184888564932979e+00  3.7124233579945223e+00  3.6063578596056649e+00  3.5002923613267134e+00  3.3942268631576726e+00  3.2881613650985413e+00  3.1820958671493322e+00  3.0760303693100188e+00  2.9699648715806344e+00  2.8638993739611585e+00  2.7578338764515848e+00  2.6517683790519340e+00  2.5457028817621969e+00  2.4396373845823813e+00  2.3335718875124778e+00  2.2275063905524974e+00  2.1214408937024496e+00  2.0153753969623587e+00  1.9093099003322607e+00  1.8032444038121931e+00  1.6971789074021950e+00  1.5911134111021443e+00  1.4850479149111846e+00  1.3789824188254214e+00  1.2729169228296009e+00  1.1668514268669945e+00  1.0607859307322474e+00  9.5472043369133242e-01  8.4865493314110729e-01  7.4258941986208882e-01  6.3652386137774142e-01  5.3045814312549711e-01  4.2439185586837624e-01  3.1832365498472515e-01  2.1224768432120603e-01  1.0614814719266208e-01  1.8580832562926985e-06  8.4852020153619261e+00  8.3793620805510525e+00  8.2732347542500655e+00  8.1671885121282646e+00  8.0611152555561389e+00  7.9550517929553655e+00  7.8489856549029851e+00  7.7429202953143088e+00  7.6368547530246467e+00  7.5307892584821703e+00  7.4247237539883111e+00  7.3186582521198202e+00  7.2125927498829689e+00  7.1065272478795611e+00  7.0004617459667982e+00  6.8943962441703324e+00  6.7883307424833905e+00  6.6822652409068430e+00  6.5761997394402725e+00  6.4701342380836806e+00  6.3640687368370292e+00  6.2580032357002944e+00  6.1519377346734867e+00  6.0458722337565671e+00  5.9398067329495792e+00  5.8337412322524855e+00  5.7276757316653191e+00  5.6216102311880318e+00  5.5155447308206691e+00  5.4094792305632318e+00  5.3034137304157056e+00  5.1973482303780596e+00  5.0912827304503310e+00  4.9852172306325180e+00  4.8791517309246117e+00  4.7730862313266167e+00  4.6670207318385470e+00  4.5609552324603788e+00  4.4548897331921138e+00  4.3488242340337608e+00  4.2427587349853351e+00  4.1366932360468169e+00  4.0306277372182002e+00  3.9245622384995036e+00  3.8184967398907039e+00  3.7124312413918203e+00  3.6063657430028480e+00  3.5003002447237788e+00  3.3942347465546310e+00  3.2881692484953819e+00  3.1821037505460597e+00  3.0760382527066277e+00  2.9699727549771389e+00  2.8639072573575448e+00  2.7578417598478597e+00  2.6517762624481014e+00  2.5457107651582547e+00  2.4396452679783334e+00  2.3335797709083312e+00  2.2275142739482550e+00  2.1214487770981383e+00  2.0153832803580221e+00  1.9093177837279918e+00  1.8032522872081711e+00  1.6971867907988554e+00  1.5911212945005759e+00  1.4850557983144483e+00  1.3789903022427950e+00  1.2729248062909904e+00  1.1668593104725291e+00  1.0607938148247624e+00  9.5472831946122738e-01  8.4866282474027677e-01  7.4259733189546828e-01  6.3653184486461400e-01  5.3046637793184648e-01  4.2440098020485845e-01  3.1833564972565526e-01  2.1227257123207796e-01  1.0618208085622363e-01  8.5644444218297592e-06  8.4857591253292046e+00  8.3792415005822622e+00  8.2732780469841583e+00  8.1671535098983448e+00  8.0611025133603800e+00  7.9550321190269688e+00  7.8489676505702537e+00  7.7429018463106667e+00  7.6368364009597034e+00  7.5307708827357800e+00  7.4247053831036602e+00  7.3186398801199104e+00  7.2125743781069289e+00  7.1065088760558544e+00  7.0004433741530825e+00  6.8943778723548652e+00  6.7883123706684918e+00  6.6822468690920447e+00  6.5761813676256562e+00  6.4701158662692313e+00  6.3640503650227691e+00  6.2579848638862083e+00  6.1519193628595898e+00  6.0458538619428506e+00  5.9397883611360456e+00  5.8337228604391367e+00  5.7276573598521514e+00  5.6215918593750276e+00  5.5155263590078523e+00  5.4094608587506299e+00  5.3033953586032823e+00  5.1973298585658059e+00  5.0912643586382647e+00  4.9851988588206355e+00  4.8791333591129051e+00  4.7730678595150975e+00  4.6670023600272268e+00  4.5609368606492300e+00  4.4548713613811461e+00  4.3488058622229762e+00  4.2427403631747369e+00  4.1366748642364106e+00  4.0306093654079636e+00  3.9245438666894641e+00  3.8184783680808447e+00  3.7124128695821428e+00  3.6063473711933587e+00  3.5002818729144662e+00  3.3942163747455054e+00  3.2881508766864402e+00  3.1820853787373080e+00  3.0760198808980461e+00  2.9699543831687589e+00  2.8638888855493390e+00  2.7578233880398408e+00  2.6517578906402681e+00  2.5456923933506106e+00  2.4396268961708829e+00  2.3335613991010682e+00  2.2274959021411842e+00  2.1214304052912780e+00  2.0153649085514012e+00  1.9092994119216797e+00  1.8032339154022847e+00  1.6971684189937195e+00  1.5911029226970428e+00  1.4850374265150801e+00  1.3789719304556407e+00  1.2729064345427199e+00  1.1668409388537864e+00  1.0607754436491585e+00  9.5470994981968726e-01  8.4864446047302688e-01  7.4257898637351227e-01  6.3651356583924823e-01  5.3044833137575342e-01  4.2438373629424958e-01  3.1832177747237128e-01  2.1226228977337938e-01  1.0630745352119535e-01  -1.6657946100219356e-04  8.4832830229694647e+00  8.3799110722126020e+00  8.2730519315624900e+00  8.1671816700547879e+00  8.0610641774867613e+00  7.9550102879969655e+00  7.8489419139088703e+00  7.7428770030980658e+00  7.6368113610122128e+00  7.5307458855696714e+00  7.4246803770317555e+00  7.3186148759364906e+00  7.2125493735517123e+00  7.1064838715802585e+00  7.0004183696633149e+00  6.8943528678686636e+00  6.7882873661820531e+00  6.6822218646060465e+00  6.5761563631399085e+00  6.4700908617837518e+00  6.3640253605375809e+00  6.2579598594013062e+00  6.1518943583749728e+00  6.0458288574584973e+00  5.9397633566519898e+00  5.8336978559553332e+00  5.7276323553686392e+00  5.6215668548917872e+00  5.5155013545248917e+00  5.4094358542679641e+00  5.3033703541208919e+00  5.1973048540836642e+00  5.0912393541564098e+00  4.9851738543390587e+00  4.8791083546316019e+00  4.7730428550340616e+00  4.6669773555465035e+00  4.5609118561687660e+00  4.4548463569009549e+00  4.3487808577430629e+00  4.2427153586951167e+00  4.1366498597570738e+00  4.0305843609288807e+00  3.9245188622106761e+00  3.8184533636023259e+00  3.7123878651039108e+00  3.6063223667154034e+00  3.5002568684367850e+00  3.3941913702681039e+00  3.2881258722093083e+00  3.1820603742604763e+00  3.0759948764214595e+00  2.9699293786924925e+00  2.8638638810733235e+00  2.7577983835641064e+00  2.6517328861648135e+00  2.5456673888754371e+00  2.4396018916960069e+00  2.3335363946264502e+00  2.2274708976668460e+00  2.1214054008172187e+00  2.0153399040776279e+00  1.9092744074482229e+00  1.8032089109291398e+00  1.6971434145209787e+00  1.5910779182248578e+00  1.4850124220440244e+00  1.3789469259874547e+00  1.2728814300832685e+00  1.1668159344232107e+00  1.0607504393157374e+00  9.5468494583184904e-01  8.4861945762380953e-01  7.4255398798923955e-01  6.3648857996224950e-01  5.3042340859900761e-01  4.2435896200095796e-01  3.1829731825212121e-01  2.1225099391066241e-01  1.0613807747005780e-01  2.2568069871363701e-03  8.4329235862700660e+00  8.3263586678513093e+00  8.2202844974660021e+00  8.1142116733323668e+00  8.0081449058866330e+00  7.9020792106260087e+00  7.7960135921275970e+00  7.6899480834095462e+00  7.5838825735937032e+00  7.4778170709575793e+00  7.3717515683051440e+00  7.2656860661263485e+00  7.1596205640458468e+00  7.0535550620883525e+00  6.9474895602383642e+00  6.8414240584978439e+00  6.7353585568666974e+00  6.6292930553452107e+00  6.5232275539335207e+00  6.4171620526316753e+00  6.3110965514397135e+00  6.2050310503576522e+00  6.0989655493855093e+00  5.9929000485232491e+00  5.8868345477708788e+00  5.7807690471284419e+00  5.6747035465959108e+00  5.5686380461732892e+00  5.4625725458605743e+00  5.3565070456577546e+00  5.2504415455648612e+00  5.1443760455818621e+00  5.0383105457087840e+00  4.9322450459456082e+00  4.8261795462923471e+00  4.7201140467489981e+00  4.6140485473155595e+00  4.5079830479920240e+00  4.4019175487784201e+00  4.2958520496747177e+00  4.1897865506809371e+00  4.0837210517970499e+00  3.9776555530230686e+00  3.8715900543590096e+00  3.7655245558048525e+00  3.6594590573606021e+00  3.5533935590262686e+00  3.4473280608018517e+00  3.3412625626873425e+00  3.2351970646827430e+00  3.1291315667880548e+00  3.0230660690032778e+00  2.9170005713284133e+00  2.8109350737634586e+00  2.7048695763084196e+00  2.5988040789632816e+00  2.4927385817280521e+00  2.3866730846027262e+00  2.2806075875872849e+00  2.1745420906817072e+00  2.0684765938859573e+00  1.9624110971999704e+00  1.8563456006236314e+00  1.7502801041567622e+00  1.6442146077991941e+00  1.5381491115511297e+00  1.4320836154148422e+00  1.3260181194011940e+00  1.2199526235538289e+00  1.1138871280365759e+00  1.0078216334457528e+00  9.0175614191549669e-01  7.9569066104519670e-01  6.8962521764525497e-01  5.8355990689271842e-01  4.7749506460609359e-01  3.7143183798639351e-01  2.6537504462526984e-01  1.5932959314120640e-01  5.3409298983739292e-02  8.4321112151358779e+00  8.3263161273089832e+00  8.2201715192389671e+00  8.1141170782803638e+00  8.0080475996431577e+00  7.9019825345596582e+00  7.7959168507458196e+00  7.6898513603140639e+00  7.5837858497744230e+00  7.4777203475308651e+00  7.3716548449001200e+00  7.2655893427182328e+00  7.1595238406379673e+00  7.0534583386794250e+00  6.9473928368297546e+00  6.8413273350897583e+00  6.7352618334593144e+00  6.6291963319385800e+00  6.5231308305276707e+00  6.4170653292266158e+00  6.3109998280354