<?xml version="1.0"?>
<VTKFile type="UnstructuredGrid"  version="0.1"  >
<UnstructuredGrid>
<Piece  NumberOfPoints="1369" NumberOfCells="2560">
<Points>
<DataArray  type="Float64"  NumberOfComponents="3"  format="ascii">0 0 0  0.75 0 0  1.5 0 0  2.25 0 0  3 0 0  3.75 0 0  4.5 0 0  5.25 0 0  6 0 0  6.75 0 0  7.5 0 0  8.25 0 0  9 0 0  9.75 0 0  10.5 0 0  11.25 0 0  12 0 0  12.75 0 0  13.5 0 0  14.25 0 0  15 0 0  15.75 0 0  16.5 0 0  17.25 0 0  18 0 0  18.75 0 0  19.5 0 0  20.25 0 0  21 0 0  21.75 0 0  22.5 0 0  23.25 0 0  24 0 0  24.75 0 0  25.5 0 0  26.25 0 0  27 0 0  27.75 0 0  28.5 0 0  29.25 0 0  30 0 0  30.75 0 0  31.5 0 0  32.25 0 0  33 0 0  33.75 0 0  34.5 0 0  35.25 0 0  36 0 0  36.75 0 0  37.5 0 0  38.25 0 0  39 0 0  39.75 0 0  40.5 0 0  41.25 0 0  42 0 0  42.75 0 0  43.5 0 0  44.25 0 0  45 0 0  45.75 0 0  46.5 0 0  47.25 0 0  48 0 0  48.75 0 0  49.5 0 0  50.25 0 0  51 0 0  51.75 0 0  52.5 0 0  53.25 0 0  54 0 0  54.75 0 0  55.5 0 0  56.25 0 0  57 0 0  57.75 0 0  58.5 0 0  59.25 0 0  60 0 0  0 0.5 0  0.75 0.5 0  1.5 0.5 0  2.25 0.5 0  3 0.5 0  3.75 0.5 0  4.5 0.5 0  5.25 0.5 0  6 0.5 0  6.75 0.5 0  7.5 0.5 0  8.25 0.5 0  9 0.5 0  9.75 0.5 0  10.5 0.5 0  11.25 0.5 0  12 0.5 0  12.75 0.5 0  13.5 0.5 0  14.25 0.5 0  15 0.5 0  15.75 0.5 0  16.5 0.5 0  17.25 0.5 0  18 0.5 0  18.75 0.5 0  19.5 0.5 0  20.25 0.5 0  21 0.5 0  21.75 0.5 0  22.5 0.5 0  23.25 0.5 0  24 0.5 0  24.75 0.5 0  25.5 0.5 0  26.25 0.5 0  27 0.5 0  27.75 0.5 0  28.5 0.5 0  29.25 0.5 0  30 0.5 0  30.75 0.5 0  31.5 0.5 0  32.25 0.5 0  33 0.5 0  33.75 0.5 0  34.5 0.5 0  35.25 0.5 0  36 0.5 0  36.75 0.5 0  37.5 0.5 0  38.25 0.5 0  39 0.5 0  39.75 0.5 0  40.5 0.5 0  41.25 0.5 0  42 0.5 0  42.75 0.5 0  43.5 0.5 0  44.25 0.5 0  45 0.5 0  45.75 0.5 0  46.5 0.5 0  47.25 0.5 0  48 0.5 0  48.75 0.5 0  49.5 0.5 0  50.25 0.5 0  51 0.5 0  51.75 0.5 0  52.5 0.5 0  53.25 0.5 0  54 0.5 0  54.75 0.5 0  55.5 0.5 0  56.25 0.5 0  57 0.5 0  57.75 0.5 0  58.5 0.5 0  59.25 0.5 0  60 0.5 0  0 1 0  0.75 1 0  1.5 1 0  2.25 1 0  3 1 0  3.75 1 0  4.5 1 0  5.25 1 0  6 1 0  6.75 1 0  7.5 1 0  8.25 1 0  9 1 0  9.75 1 0  10.5 1 0  11.25 1 0  12 1 0  12.75 1 0  13.5 1 0  14.25 1 0  15 1 0  15.75 1 0  16.5 1 0  17.25 1 0  18 1 0  18.75 1 0  19.5 1 0  20.25 1 0  21 1 0  21.75 1 0  22.5 1 0  23.25 1 0  24 1 0  24.75 1 0  25.5 1 0  26.25 1 0  27 1 0  27.75 1 0  28.5 1 0  29.25 1 0  30 1 0  30.75 1 0  31.5 1 0  32.25 1 0  33 1 0  33.75 1 0  34.5 1 0  35.25 1 0  36 1 0  36.75 1 0  37.5 1 0  38.25 1 0  39 1 0  39.75 1 0  40.5 1 0  41.25 1 0  42 1 0  42.75 1 0  43.5 1 0  44.25 1 0  45 1 0  45.75 1 0  46.5 1 0  47.25 1 0  48 1 0  48.75 1 0  49.5 1 0  50.25 1 0  51 1 0  51.75 1 0  52.5 1 0  53.25 1 0  54 1 0  54.75 1 0  55.5 1 0  56.25 1 0  57 1 0  57.75 1 0  58.5 1 0  59.25 1 0  60 1 0  0 1.5 0  0.75 1.5 0  1.5 1.5 0  2.25 1.5 0  3 1.5 0  3.75 1.5 0  4.5 1.5 0  5.25 1.5 0  6 1.5 0  6.75 1.5 0  7.5 1.5 0  8.25 1.5 0  9 1.5 0  9.75 1.5 0  10.5 1.5 0  11.25 1.5 0  12 1.5 0  12.75 1.5 0  13.5 1.5 0  14.25 1.5 0  15 1.5 0  15.75 1.5 0  16.5 1.5 0  17.25 1.5 0  18 1.5 0  18.75 1.5 0  19.5 1.5 0  20.25 1.5 0  21 1.5 0  21.75 1.5 0  22.5 1.5 0  23.25 1.5 0  24 1.5 0  24.75 1.5 0  25.5 1.5 0  26.25 1.5 0  27 1.5 0  27.75 1.5 0  28.5 1.5 0  29.25 1.5 0  30 1.5 0  30.75 1.5 0  31.5 1.5 0  32.25 1.5 0  33 1.5 0  33.75 1.5 0  34.5 1.5 0  35.25 1.5 0  36 1.5 0  36.75 1.5 0  37.5 1.5 0  38.25 1.5 0  39 1.5 0  39.75 1.5 0  40.5 1.5 0  41.25 1.5 0  42 1.5 0  42.75 1.5 0  43.5 1.5 0  44.25 1.5 0  45 1.5 0  45.75 1.5 0  46.5 1.5 0  47.25 1.5 0  48 1.5 0  48.75 1.5 0  49.5 1.5 0  50.25 1.5 0  51 1.5 0  51.75 1.5 0  52.5 1.5 0  53.25 1.5 0  54 1.5 0  54.75 1.5 0  55.5 1.5 0  56.25 1.5 0  57 1.5 0  57.75 1.5 0  58.5 1.5 0  59.25 1.5 0  60 1.5 0  0 2 0  0.75 2 0  1.5 2 0  2.25 2 0  3 2 0  3.75 2 0  4.5 2 0  5.25 2 0  6 2 0  6.75 2 0  7.5 2 0  8.25 2 0  9 2 0  9.75 2 0  10.5 2 0  11.25 2 0  12 2 0  12.75 2 0  13.5 2 0  14.25 2 0  15 2 0  15.75 2 0  16.5 2 0  17.25 2 0  18 2 0  18.75 2 0  19.5 2 0  20.25 2 0  21 2 0  21.75 2 0  22.5 2 0  23.25 2 0  24 2 0  24.75 2 0  25.5 2 0  26.25 2 0  27 2 0  27.75 2 0  28.5 2 0  29.25 2 0  30 2 0  30.75 2 0  31.5 2 0  32.25 2 0  33 2 0  33.75 2 0  34.5 2 0  35.25 2 0  36 2 0  36.75 2 0  37.5 2 0  38.25 2 0  39 2 0  39.75 2 0  40.5 2 0  41.25 2 0  42 2 0  42.75 2 0  43.5 2 0  44.25 2 0  45 2 0  45.75 2 0  46.5 2 0  47.25 2 0  48 2 0  48.75 2 0  49.5 2 0  50.25 2 0  51 2 0  51.75 2 0  52.5 2 0  53.25 2 0  54 2 0  54.75 2 0  55.5 2 0  56.25 2 0  57 2 0  57.75 2 0  58.5 2 0  59.25 2 0  60 2 0  0 2.5 0  0.75 2.5 0  1.5 2.5 0  2.25 2.5 0  3 2.5 0  3.75 2.5 0  4.5 2.5 0  5.25 2.5 0  6 2.5 0  6.75 2.5 0  7.5 2.5 0  8.25 2.5 0  9 2.5 0  9.75 2.5 0  10.5 2.5 0  11.25 2.5 0  12 2.5 0  12.75 2.5 0  13.5 2.5 0  14.25 2.5 0  15 2.5 0  15.75 2.5 0  16.5 2.5 0  17.25 2.5 0  18 2.5 0  18.75 2.5 0  19.5 2.5 0  20.25 2.5 0  21 2.5 0  21.75 2.5 0  22.5 2.5 0  23.25 2.5 0  24 2.5 0  24.75 2.5 0  25.5 2.5 0  26.25 2.5 0  27 2.5 0  27.75 2.5 0  28.5 2.5 0  29.25 2.5 0  30 2.5 0  30.75 2.5 0  31.5 2.5 0  32.25 2.5 0  33 2.5 0  33.75 2.5 0  34.5 2.5 0  35.25 2.5 0  36 2.5 0  36.75 2.5 0  37.5 2.5 0  38.25 2.5 0  39 2.5 0  39.75 2.5 0  40.5 2.5 0  41.25 2.5 0  42 2.5 0  42.75 2.5 0  43.5 2.5 0  44.25 2.5 0  45 2.5 0  45.75 2.5 0  46.5 2.5 0  47.25 2.5 0  48 2.5 0  48.75 2.5 0  49.5 2.5 0  50.25 2.5 0  51 2.5 0  51.75 2.5 0  52.5 2.5 0  53.25 2.5 0  54 2.5 0  54.75 2.5 0  55.5 2.5 0  56.25 2.5 0  57 2.5 0  57.75 2.5 0  58.5 2.5 0  59.25 2.5 0  60 2.5 0  0 3 0  0.75 3 0  1.5 3 0  2.25 3 0  3 3 0  3.75 3 0  4.5 3 0  5.25 3 0  6 3 0  6.75 3 0  7.5 3 0  8.25 3 0  9 3 0  9.75 3 0  10.5 3 0  11.25 3 0  12 3 0  12.75 3 0  13.5 3 0  14.25 3 0  15 3 0  15.75 3 0  16.5 3 0  17.25 3 0  18 3 0  18.75 3 0  19.5 3 0  20.25 3 0  21 3 0  21.75 3 0  22.5 3 0  23.25 3 0  24 3 0  24.75 3 0  25.5 3 0  26.25 3 0  27 3 0  27.75 3 0  28.5 3 0  29.25 3 0  30 3 0  30.75 3 0  31.5 3 0  32.25 3 0  33 3 0  33.75 3 0  34.5 3 0  35.25 3 0  36 3 0  36.75 3 0  37.5 3 0  38.25 3 0  39 3 0  39.75 3 0  40.5 3 0  41.25 3 0  42 3 0  42.75 3 0  43.5 3 0  44.25 3 0  45 3 0  45.75 3 0  46.5 3 0  47.25 3 0  48 3 0  48.75 3 0  49.5 3 0  50.25 3 0  51 3 0  51.75 3 0  52.5 3 0  53.25 3 0  54 3 0  54.75 3 0  55.5 3 0  56.25 3 0  57 3 0  57.75 3 0  58.5 3 0  59.25 3 0  60 3 0  0 3.5 0  0.75 3.5 0  1.5 3.5 0  2.25 3.5 0  3 3.5 0  3.75 3.5 0  4.5 3.5 0  5.25 3.5 0  6 3.5 0  6.75 3.5 0  7.5 3.5 0  8.25 3.5 0  9 3.5 0  9.75 3.5 0  10.5 3.5 0  11.25 3.5 0  12 3.5 0  12.75 3.5 0  13.5 3.5 0  14.25 3.5 0  15 3.5 0  15.75 3.5 0  16.5 3.5 0  17.25 3.5 0  18 3.5 0  18.75 3.5 0  19.5 3.5 0  20.25 3.5 0  21 3.5 0  21.75 3.5 0  22.5 3.5 0  23.25 3.5 0  24 3.5 0  24.75 3.5 0  25.5 3.5 0  26.25 3.5 0  27 3.5 0  27.75 3.5 0  28.5 3.5 0  29.25 3.5 0  30 3.5 0  30.75 3.5 0  31.5 3.5 0  32.25 3.5 0  33 3.5 0  33.75 3.5 0  34.5 3.5 0  35.25 3.5 0  36 3.5 0  36.75 3.5 0  37.5 3.5 0  38.25 3.5 0  39 3.5 0  39.75 3.5 0  40.5 3.5 0  41.25 3.5 0  42 3.5 0  42.75 3.5 0  43.5 3.5 0  44.25 3.5 0  45 3.5 0  45.75 3.5 0  46.5 3.5 0  47.25 3.5 0  48 3.5 0  48.75 3.5 0  49.5 3.5 0  50.25 3.5 0  51 3.5 0  51.75 3.5 0  52.5 3.5 0  53.25 3.5 0  54 3.5 0  54.75 3.5 0  55.5 3.5 0  56.25 3.5 0  57 3.5 0  57.75 3.5 0  58.5 3.5 0  59.25 3.5 0  60 3.5 0  0 4 0  0.75 4 0  1.5 4 0  2.25 4 0  3 4 0  3.75 4 0  4.5 4 0  5.25 4 0  6 4 0  6.75 4 0  7.5 4 0  8.25 4 0  9 4 0  9.75 4 0  10.5 4 0  11.25 4 0  12 4 0  12.75 4 0  13.5 4 0  14.25 4 0  15 4 0  15.75 4 0  16.5 4 0  17.25 4 0  18 4 0  18.75 4 0  19.5 4 0  20.25 4 0  21 4 0  21.75 4 0  22.5 4 0  23.25 4 0  24 4 0  24.75 4 0  25.5 4 0  26.25 4 0  27 4 0  27.75 4 0  28.5 4 0  29.25 4 0  30 4 0  30.75 4 0  31.5 4 0  32.25 4 0  33 4 0  33.75 4 0  34.5 4 0  35.25 4 0  36 4 0  36.75 4 0  37.5 4 0  38.25 4 0  39 4 0  39.75 4 0  40.5 4 0  41.25 4 0  42 4 0  42.75 4 0  43.5 4 0  44.25 4 0  45 4 0  45.75 4 0  46.5 4 0  47.25 4 0  48 4 0  48.75 4 0  49.5 4 0  50.25 4 0  51 4 0  51.75 4 0  52.5 4 0  53.25 4 0  54 4 0  54.75 4 0  55.5 4 0  56.25 4 0  57 4 0  57.75 4 0  58.5 4 0  59.25 4 0  60 4 0  0.375 0.25 0  1.125 0.25 0  1.875 0.25 0  2.625 0.25 0  3.375 0.25 0  4.125 0.25 0  4.875 0.25 0  5.625 0.25 0  6.375 0.25 0  7.125 0.25 0  7.875 0.25 0  8.625 0.25 0  9.375 0.25 0  10.125 0.25 0  10.875 0.25 0  11.625 0.25 0  12.375 0.25 0  13.125 0.25 0  13.875 0.25 0  14.625 0.25 0  15.375 0.25 0  16.125 0.25 0  16.875 0.25 0  17.625 0.25 0  18.375 0.25 0  19.125 0.25 0  19.875 0.25 0  20.625 0.25 0  21.375 0.25 0  22.125 0.25 0  22.875 0.25 0  23.625 0.25 0  24.375 0.25 0  25.125 0.25 0  25.875 0.25 0  26.625 0.25 0  27.375 0.25 0  28.125 0.25 0  28.875 0.25 0  29.625 0.25 0  30.375 0.25 0  31.125 0.25 0  31.875 0.25 0  32.625 0.25 0  33.375 0.25 0  34.125 0.25 0  34.875 0.25 0  35.625 0.25 0  36.375 0.25 0  37.125 0.25 0  37.875 0.25 0  38.625 0.25 0  39.375 0.25 0  40.125 0.25 0  40.875 0.25 0  41.625 0.25 0  42.375 0.25 0  43.125 0.25 0  43.875 0.25 0  44.625 0.25 0  45.375 0.25 0  46.125 0.25 0  46.875 0.25 0  47.625 0.25 0  48.375 0.25 0  49.125 0.25 0  49.875 0.25 0  50.625 0.25 0  51.375 0.25 0  52.125 0.25 0  52.875 0.25 0  53.625 0.25 0  54.375 0.25 0  55.125 0.25 0  55.875 0.25 0  56.625 0.25 0  57.375 0.25 0  58.125 0.25 0  58.875 0.25 0  59.625 0.25 0  0.375 0.75 0  1.125 0.75 0  1.875 0.75 0  2.625 0.75 0  3.375 0.75 0  4.125 0.75 0  4.875 0.75 0  5.625 0.75 0  6.375 0.75 0  7.125 0.75 0  7.875 0.75 0  8.625 0.75 0  9.375 0.75 0  10.125 0.75 0  10.875 0.75 0  11.625 0.75 0  12.375 0.75 0  13.125 0.75 0  13.875 0.75 0  14.625 0.75 0  15.375 0.75 0  16.125 0.75 0  16.875 0.75 0  17.625 0.75 0  18.375 0.75 0  19.125 0.75 0  19.875 0.75 0  20.625 0.75 0  21.375 0.75 0  22.125 0.75 0  22.875 0.75 0  23.625 0.75 0  24.375 0.75 0  25.125 0.75 0  25.875 0.75 0  26.625 0.75 0  27.375 0.75 0  28.125 0.75 0  28.875 0.75 0  29.625 0.75 0  30.375 0.75 0  31.125 0.75 0  31.875 0.75 0  32.625 0.75 0  33.375 0.75 0  34.125 0.75 0  34.875 0.75 0  35.625 0.75 0  36.375 0.75 0  37.125 0.75 0  37.875 0.75 0  38.625 0.75 0  39.375 0.75 0  40.125 0.75 0  40
[...]
<PointData  Scalars="f_8-1"> 
<DataArray  type="Float64"  Name="f_8-1"  format="ascii">3.7104243171162312e+00  3.6594719277947299e+00  3.6141312190137329e+00  3.5663948275248618e+00  3.5218233457031842e+00  3.4752181789267205e+00  3.4299226941213719e+00  3.3836452513112492e+00  3.3377744210715106e+00  3.2915862065709129e+00  3.2454232296963910e+00  3.1992004973021744e+00  3.1528848914691618e+00  3.1065988286387194e+00  3.0602250150073309e+00  3.0139007624794787e+00  2.9675170854560968e+00  2.9211740659905918e+00  2.8747946031885139e+00  2.8284417576836973e+00  2.7820676645311719e+00  2.7357093111535096e+00  2.6893389936616590e+00  2.6429775166452325e+00  2.5966094716284673e+00  2.5502462463609121e+00  2.5038794861530995e+00  2.4575152991514364e+00  2.4111492423317289e+00  2.3647845348580856e+00  2.3184188546064202e+00  2.2720538697516197e+00  2.2256883870088560e+00  2.1793232564003229e+00  2.1329578749661651e+00  2.0865926686394713e+00  2.0402273377764577e+00  1.9938620923244015e+00  1.9474967857659453e+00  1.9011315199558969e+00  1.8547662243550909e+00  1.8084009476358189e+00  1.7620356563336068e+00  1.7156703733775309e+00  1.6693050831094645e+00  1.6229397961878611e+00  1.5765745053799807e+00  1.5302092155792468e+00  1.4838439234844243e+00  1.4374786313163701e+00  1.3911133375848967e+00  1.3447480432871821e+00  1.2983827477573220e+00  1.2520174514385005e+00  1.2056521540357175e+00  1.1592868557437497e+00  1.1129215564323574e+00  1.0665562561855049e+00  1.0201909549445356e+00  9.7382565274279775e-01  9.2746034955021328e-01  8.8109504537375793e-01  8.3472974018931234e-01  7.8836443398315015e-01  7.4199912672105406e-01  6.9563381836521809e-01  6.4926850886416876e-01  6.0290319817434612e-01  5.5653788629761836e-01  5.1017257338926880e-01  4.6380725996443378e-01  4.1744194717977745e-01  3.7107663666337709e-01  3.2471132719404344e-01  2.7834599722298309e-01  2.3198053285955278e-01  1.8561445825468453e-01  1.3924599829816228e-01  9.2868199554950029e-02  4.6462803344465391e-02  -4.6149642623247731e-04  3.7061538016305056e+00  3.6620319546400379e+00  3.6125465919114617e+00  3.5678967994779045e+00  3.5210210689000769e+00  3.4758022335449810e+00  3.4296119988466320e+00  3.3838060410904864e+00  3.3377022544415662e+00  3.2915940586552455e+00  3.2454422743361029e+00  3.1991732617408069e+00  3.1529273307239540e+00  3.1065740858882003e+00  3.0602645442399505e+00  3.0138859851570738e+00  2.9675477532186414e+00  2.9211683663501344e+00  2.8748176149258455e+00  2.8284425125757626e+00  2.7820854925127585e+00  2.7357141578468975e+00  2.6893536444062294e+00  2.6429848002752832e+00  2.5966222674219326e+00  2.5502549321721277e+00  2.5038912266113096e+00  2.4575247760419376e+00  2.4111603915956907e+00  2.3647944522556985e+00  2.3184296765453025e+00  2.2720640296762951e+00  2.2256990297863877e+00  2.1793335482565013e+00  2.1329684209201800e+00  2.0866030313010926e+00  2.0402378321462065e+00  1.9938724924222340e+00  1.9475072530764761e+00  1.9011419395340230e+00  1.8547766777000358e+00  1.8084113771858594e+00  1.7620461025884733e+00  1.7156808079492127e+00  1.6693155258229782e+00  1.6229502332481618e+00  1.5765849463524337e+00  1.5302196538540513e+00  1.4838543636138217e+00  1.4374890701753347e+00  1.3911237773119722e+00  1.3447584824233578e+00  1.2983931872951056e+00  1.2520278907046678e+00  1.2056625934857117e+00  1.1592972950703617e+00  1.1129319958423911e+00  1.0665666955402682e+00  1.0202013943370927e+00  9.7383609211124800e-01  9.2747078893622004e-01  8.8110548475012462e-01  8.3474017957467406e-01  7.8837487336547918e-01  7.4200956610737911e-01  6.9564425774594585e-01  6.4927894822935206e-01  6.0291363748443705e-01  5.5654832545748456e-01  5.1018301215834438e-01  4.6381769777365456e-01  4.1745238273668661e-01  3.7108706722388857e-01  3.2472174754978345e-01  2.7835639969938791e-01  2.3199091476914124e-01  1.8562486503211756e-01  1.3925667746589415e-01  9.2880896989374268e-02  4.6466131631278065e-02  3.4483246516975420e-05  3.7090569209679058e+00  3.6604814994395007e+00  3.6146118231135222e+00  3.5674775480437089e+00  3.5217187818159861e+00  3.4757233537505416e+00  3.4296789048751744e+00  3.3838776915462061e+00  3.3376046961901524e+00  3.2917050502716632e+00  3.2453402765200074e+00  3.1992780817196933e+00  3.1528649374046736e+00  3.1066633432467801e+00  3.0602393841582929e+00  3.0139580520245475e+00  2.9675466279932703e+00  2.9212261196407154e+00  2.8748306622890092e+00  2.8284903909328678e+00  2.7821068428582714e+00  2.7357558621070219e+00  2.6893798614265663e+00  2.6430228160518880e+00  2.5966513240706011e+00  2.5502907882827732e+00  2.5039219318314334e+00  2.4575593785328596e+00  2.4111920506544866e+00  2.3648283301190656e+00  2.3184618857857480e+00  2.2720974904137563e+00  2.2257315547775454e+00  2.1793667705074000e+00  2.1330011255662340e+00  2.0866361186426339e+00  2.0402706377375366e+00  1.9939055045321914e+00  1.9475401144951026e+00  1.9011749104039799e+00  1.8548095694391988e+00  1.8084443258711449e+00  1.7620790104800230e+00  1.7157137449317847e+00  1.6693484421519142e+00  1.6229831641768711e+00  1.5766178670043911e+00  1.5302525817100312e+00  1.4838872864399482e+00  1.4375219964997747e+00  1.3911567012125272e+00  1.3447914079975094e+00  1.2984261117181193e+00  1.2520608159174418e+00  1.2056955181594708e+00  1.1593302201125582e+00  1.1129649206363090e+00  1.0665996205055064e+00  1.0202343191916494e+00  9.7386901704832163e-01  9.2750371383021712e-01  8.8113840969178969e-01  8.3477310451194731e-01  7.8840779834283559e-01  7.4204249109980869e-01  6.9567718274933765e-01  6.4931187314036598e-01  6.0294656201406571e-01  5.5658124874356674e-01  5.1021593186098624e-01  4.6385060770273684e-01  4.1748526696415911e-01  3.7111988565432019e-01  3.2475440159002511e-01  2.7838865345145325e-01  2.3202222353763793e-01  1.8565403207474429e-01  1.3928126640973465e-01  9.2896292135034489e-02  4.6482932243438906e-02  8.3861494651531811e-06  3.7110669035065627e+00  3.6589029567246065e+00  3.6164196900554613e+00  3.5664401151351020e+00  3.5229162630240229e+00  3.4748965686612445e+00  3.4304031552148868e+00  3.3832973639008150e+00  3.3380515656517575e+00  3.2913386578925858e+00  3.2456139289505996e+00  3.1990623968663496e+00  3.1530386573118157e+00  3.1065501588999815e+00  3.0603566862377574e+00  3.0139071819264021e+00  2.9676291148598826e+00  2.9212100402618364e+00  2.8748912141090193e+00  2.8284934922574791e+00  2.7821540085740293e+00  2.7357697368690359e+00  2.6894190979734489e+00  2.6430428380181170e+00  2.5966859399855347e+00  2.5503143422682641e+00  2.5039538737347229e+00  2.4575849674610537e+00  2.4112224480317908e+00  2.3648550931799770e+00  2.3184913913363356e+00  2.2721249308849369e+00  2.2257605463042327e+00  2.1793946005399438e+00  2.1330298224360877e+00  2.0866641709967775e+00  2.0402991673746458e+00  1.9939336822348355e+00  1.9475685505492473e+00  1.9012031576714878e+00  1.8548379540179101e+00  1.8084726110453908e+00  1.7621073672795744e+00  1.7157420503609699e+00  1.6693767842551255e+00  1.6230114802150823e+00  1.5766462014854723e+00  1.5302809031968518e+00  1.4839156170433936e+00  1.4375503207325129e+00  1.3911850298793083e+00  1.3448197335896643e+00  1.2984544394345201e+00  1.2520891421718807e+00  1.2057238454178063e+00  1.1593585466860510e+00  1.1129932476795170e+00  1.0666279472343332e+00  1.0202626461414330e+00  9.7389734386158833e-01  9.2753204075577100e-01  8.8116673657346567e-01  8.3480143147090935e-01  7.8843612531941820e-01  7.4207081815633991e-01  6.9570550984950708e-01  6.4934020023762040e-01  6.0297488882260109e-01  5.5660957442456804e-01  5.1024425399833873e-01  4.6387891980206436e-01  4.1751355208498325e-01  3.7114810083240962e-01  3.2478244061573508e-01  2.7841626130780645e-01  2.3204881059734031e-01  1.8567831066006102e-01  1.3930072457197096e-01  9.2907517971505343e-02  4.6484428310791574e-02  4.0109849189676341e-07  3.7059461529156650e+00  3.6629878427213063e+00  3.6127195173632072e+00  3.5696461589020161e+00  3.5204999411185001e+00  3.4767890889688591e+00  3.4290084439297552e+00  3.3843270091279809e+00  3.3372877901541194e+00  3.2918901816695110e+00  3.2451989458124504e+00  3.1993603935981896e+00  3.1528128745612256e+00  3.1067168830761087e+00  3.0602347286871714e+00  3.0140041207184498e+00  2.9675637982459211e+00  2.9212681195601231e+00  2.8748569031958184e+00  2.8285293840527825e+00  2.7821369648823566e+00  2.7357928708861068e+00  2.6894118310746435e+00  2.6430586302477046e+00  2.5966842611552785e+00  2.5503259102388385e+00  2.5039554030667870e+00  2.4575941033748694e+00  2.4112258243500873e+00  2.3648628267206480e+00  2.3184958331541532e+00  2.2721318550230634e+00  2.2257656027832389e+00  2.1794010583701526e+00  2.1330352321393873e+00  2.0866703618418523e+00  2.0403047783258148e+00  1.9939397218830299e+00  1.9475742746660050e+00  1.9012091129719386e+00  1.8548437407211760e+00  1.8084785201251821e+00  1.7621131879504968e+00  1.7157479346019096e+00  1.6693826229982007e+00  1.6230173513729194e+00  1.5766520496527596e+00  1.5302867675992713e+00  1.4839214700298744e+00  1.4375561817132381e+00  1.3911908852845010e+00  1.3448255928688531e+00  1.2984602960327440e+00  1.2520950006199489e+00  1.2057297025959295e+00  1.1593644047363427e+00  1.1129991051380470e+00  1.0666338051016533e+00  1.0202685037409882e+00  9.7390320165771527e-01  9.2753789844368906e-01  8.8117259437272011e-01  8.3480728925549064e-01  7.8844198320601810e-01  7.4207667611274419e-01  6.9571136795649491e-01  6.4934605850139560e-01  6.0298074724779005e-01  5.5661543280336134e-01  5.1025011159340583e-01  4.6388477434058334e-01  4.1751939730912302e-01  3.7115392038849288e-01  3.2478819352631233e-01  2.7842184875497084e-01  2.3205400493917783e-01  1.8568262391324170e-01  1.3930325258091794e-01  9.2907250213508957e-02  4.6478762779711774e-02  8.3280063187485221e-06  3.7110662626790987e+00  3.6589034910623557e+00  3.6164192955082846e+00  3.5664404988608793e+00  3.5229159992764925e+00  3.4748967487602584e+00  3.4304030203618412e+00  3.3832974584845892e+00  3.3380515226325969e+00  3.2913387234849303e+00  3.2456139316166865e+00  3.1990624434357984e+00  3.1530386709212159e+00  3.1065501870991641e+00  3.0603566968445204e+00  3.0139071969400435e+00  2.9676291213925068e+00  2.9212100484685242e+00  2.8748912187405304e+00  2.8284934978207943e+00  2.7821540127770366e+00  2.7357697416361559e+00  2.6894191022376961e+00  2.6430428425933363e+00  2.5966859443638892e+00  2.5503143468009100e+00  2.5039538781824699e+00  2.4575849719797640e+00  2.4112224525114518e+00  2.3648550976907616e+00  2.3184913958290072e+00  2.2721249353908672e+00  2.2257605508019718e+00  2.1793946050432220e+00  2.1330298269358265e+00  2.0866641754987683e+00  2.0402991718751675e+00  1.9939336867362707e+00  1.9475685550500890e+00  1.9012031621726833e+00  1.8548379585188846e+00  1.8084726155465061e+00  1.7621073717806026e+00  1.7157420548620632e+00  1.6693767887561941e+00  1.6230114847162038e+00  1.5766462059866186e+00  1.5302809076980735e+00  1.4839156215447233e+00  1.4375503252340163e+00  1.3911850343811127e+00  1.3448197380919469e+00  1.2984544439375747e+00  1.2520891466761979e+00  1.2057238499241592e+00  1.1593585511956863e+00  1.1129932521944672e+00  1.0666279517578001e+00  1.0202626506785784e+00  9.7389734842057851e-01  9.2753204534960620e-01  8.8116674122266725e-01  8.3480143620779756e-01  7.8843613019464842e-01  7.4207082324899309e-01  6.9570551528231872e-01  6.4934020620008071e-01  6.0297489560530038e-01  5.5660958246991210e-01  5.1024426397408351e-01  4.6387893270593583e-01  4.1751356938955392e-01  3.7114812467774833e-01  3.2478247404889971e-01  2.7841630854089217e-01  2.3204887717168751e-01  1.8567840312864789e-01  1.3930084832699915e-01  9.2907668343425939e-02  4.6484560820207757e-02  4.0465989798349395e-07  3.7090581060145604e+00  3.6604806704338357e+00  3.6146126312632760e+00  3.5674770736192172e+00  3.5217191626629414e+00  3.4757230650061852e+00  3.4296790869562850e+00  3.3838775737326987e+00  3.3376048220352073e+00  3.2917050427260377e+00  3.2453403767600091e+00  3.1992781117269624e+00  3.1528650046214199e+00  3.1066633706617610e+00  3.0602394218419318e+00  3.0139580691364634e+00  2.9675466480994745e+00  2.9212261306102918e+00  2.8748306747989614e+00  2.8284903999176638e+00  2.7821068528864874e+00  2.7357558708882488e+00  2.6893798708379681e+00  2.6430228250224359e+00  2.5966513333659531e+00  2.5502907974087003e+00  2.5039219411060767e+00  2.4575593877354005e+00  2.4111920599201619e+00  2.3648283393523974e+00  2.3184618950447802e+00  2.2720974996583219e+00  2.2257315640323383e+00  2.1793667797559468e+00  2.1330011348188171e+00  2.0866361278926142e+00  2.0402706469890899e+00  1.9939055137827275e+00  1.9475401237462258e+00  1.9011749196547170e+00  1.8548095786901719e+00  1.8084443351219768e+00  1.7620790197309451e+00  1.7157137541826737e+00  1.6693484514028492e+00  1.6229831734278479e+00  1.5766178762554548e+00  1.5302525909612086e+00  1.4838872956913358e+00  1.4375220057514888e+00  1.3911567104647962e+00  1.3447914172506665e+00  1.2984261209727159e+00  1.2520608251743908e+00  1.2056955274202061e+00  1.1593302293794154e+00  1.1129649299130564e+00  1.0665996297981377e+00  1.0202343285097641e+00  9.7386902640716966e-01  9.2750372325405572e-01  8.8113841921890490e-01  8.3477311420268629e-01  7.8840780829181867e-01  7.4204250145479800e-01  6.9567719373979042e-01  6.4931188512072091e-01  6.0294657552821140e-01  5.5658126462012869e-01  5.1021595135177822e-01  4.6385063268019916e-01  4.1748530019580166e-01  3.7111993117008291e-01  3.2475446514561462e-01  2.7838874304846173e-01  2.3202234984093711e-01  1.8565420820619286e-01  1.3928150534756803e-01  9.2896594948739655e-02  4.6483238116459678e-02  8.3852853899845905e-06  3.7061529882584558e+00  3.6620323198477496e+00  3.6125462886641109e+00  3.5678971851691617e+00  3.5210208011268711e+00  3.4758023650017167e+00  3.4296118756854947e+00  3.3838061246863895e+00  3.3377022610486433e+00  3.2915941535339508e+00  3.2454423347612371e+00  3.1991733408190290e+00  3.1529273838750811e+00  3.1065741336772468e+00  3.0602645750775328e+00  3.0138860089798953e+00  2.9675477687959493e+00  2.9211683783661790e+00  2.8748176240414520e+00  2.8284425205440558e+00  2.7820854998154587e+00  2.7357141649270322e+00  2.6893536514575671e+00  2.6429848073223057e+00  2.5966222745331469e+00  2.5502549392965865e+00  2.5038912337780790e+00  2.4575247832117952e+00  2.4111603987843164e+00  2.3647944594425665e+00  2.3184296837392981e+00  2.2720640368681639e+00  2.2256990369807901e+00  2.1793335554495745e+00  2.1329684281141765e+00  2.0866030384944176e+00  2.0402378393398797e+00  1.9938724996156236e+00  1.9475072602700014e+00  1.9011419467274375e+00  1.8547766848935150e+00  1.8084113843793050e+00  1.7620461097819491e+00  1.7156808151427021e+00  1.6693155330164999e+00  1.6229502404417426e+00  1.5765849535461240e+00  1.5302196610478898e+00  1.4838543708079308e+00  1.4374890773698652e+00  1.3911237845072162e+00  1.3447584896197420e+00  1.2983931944933502e+00  1.2520278979059383e+00  1.2056626006918445e+00  1.1592973022843598e+00  1.1129320030691250e+00  1.0665667027874042e+00  1.0202014016169809e+00  9.7383609944349325e-01  9.2747079635193441e-01  8.8110549229849677e-01  8.3474018733313737e-01  7.8837488145547407e-01  7.4200957471841222e-01  6.9564426717227923e-01  6.4927895892526744e-01  6.0291365014682707e-01  5.5654834114759999e-01  5.1018303247878360e-01  4.6381772512065966e-01  4.1745242065107213e-01  3.7108712086202372e-01  3.2472182428255852e-01  2.7835650980449356e-01  2.3199107207320555e-01  1.8562508708631373e-01  1.3925698404435966e-01  9.2881303045851585e-02  4.6466609243124964e-02  3.4650422183620388e-05  3.7104245057804297e+00  3.6594716361524018e+00  3.6141312641851449e+00  3.5663950300298497e+00  3.5218231849587820e+00  3.4752182248286747e+00  3.4299226427573668e+00  3.3836452870146436e+00  3.3377744798076572e+00  3.2915862729774408e+00  3.2454233223665576e+00  3.1992005583666088e+00  3.1528849626407052e+00  3.1065988655265766e+00  3.0602250553967769e+00  3.0139007801556184e+00  2.9675171060123304e+00  2.9211740747219248e+00  2.8747946149272181e+00  2.8284417639712998e+00  2.7820676732508649e+00  2.7357093174202984e+00  2.6893390015072982e+00  2.6429775233386454e+00  2.5966094792104815e+00  2.5502462533716237e+00  2.5038794936228208e+00  2.4575153063307940e+00  2.4111492497370257e+00  2.3647845421168054e+00  2.3184188619734201e+00  2.2720538770463690e+00  2.2256883943545676e+00  2.1793232637114630e+00  2.1329578823009210e+00  2.0865926759581441e+00  2.0402273451058739e+00  1.9938620996465577e+00  1.9474967930928921e+00  1.9011315272796445e+00  1.8547662316809344e+00  1.8084009549603075e+00  1.7620356636589818e+00  1.7156703807023694e+00  1.6693050904346947e+00  1.6229398035129188e+00  1.5765745127052944e+00  1.5302092229046327e+00  1.4838439308101339e+00  1.4374786386424963e+00  1.3911133449117550e+00  1.3447480506152183e+00  1.2983827550872744e+00  1.2520174587715489e+00  1.2056521613737627e+00  1.1592868630898665e+00  1.1129215637915209e+00  1.0665562635655699e+00  1.0201909623581269e+00  9.7382566020993611e-01  9.2746035710265795e-01  8.8109505306165103e-01  8.3472974809152256e-01  7.8836444222321034e-01  7.4199913549148699e-01  6.9563382796454221e-01  6.4926851975253075e-01  6.0290321105633704e-01  5.5653790224410316e-01  5.1017259401364357e-01  4.6380728767275409e-01  4.1744198551643741e-01  3.7107669077128169e-01  3.2471140439292923e-01  2.7834610766585827e-01  2.3198069011586278e-01  1.8561467943316809e-01  1.3924630249329920e-01  9.2868601734792333e-02  4.6463282338329095e-02  -4.6131993189223381e-04  3.6852604104008906e+00  3.6366252592566704e+00  3.5906373981419994e+00  3.5441415493786024e+00  3.4986254937336292e+00  3.4526622146349495e+00  3.4068372630151247e+00  3.3608130708112745e+00  3.3147377362695152e+00  3.2686068196805156e+00  3.2223829051976169e+00  3.1761416862635041e+00  3.1298223686134148e+00  3.0835076613629369e+00  3.0371482688978633e+00  2.9908022519901132e+00  2.9444332960019062e+00  2.8980762236724775e+00  2.8517070432557095e+00  2.8053458182786781e+00  2.7589779335553719e+00  2.7126148397702718e+00  2.6662480121364815e+00  2.6198839512518450e+00  2.5735177882842151e+00  2.5271531940072731e+00  2.4807874195710609e+00  2.4344225246333697e+00  2.3880569714905158e+00  2.3416919061743298e+00  2.2953264772489947e+00  2.2489613154635673e+00  2.2025959551719061e+00  2.1562307389059221e+00  2.1098654156717696e+00  2.0635001686503758e+00  2.0171348647085314e+00  1.9707696001948216e+00  1.9244043056816611e+00  1.8780390309816770e+00  1.8316737405094627e+00  1.7853084595781576e+00  1.7389431702575064e+00  1.6925778851956175e+00  1.6462125955065714e+00  1.5998473074084674e+00  1.5534820165668020e+00  1.5071167259917422e+00  1.4607514336003551e+00  1.4143861408287974e+00  1.3680208466900703e+00  1.3216555518600404e+00  1.2752902558769821e+00  1.2289249590547724e+00  1.1825596611797038e+00  1.1361943623953084e+00  1.0898290626030080e+00  1.0434637618664206e+00  9.9709846013852477e-01  9.5073315744410980e-01  9.0436785375623663e-01  8.5800254907713180e-01  8.1163724338208632e-01  7.6527193665484061e-01  7.1890662886426471e-01  6.7254131998789468e-01  6.2617601002715018e-01  5.7981069908684202e-01  5.3344538755309601e-01  4.8708007652106666e-01  4.4071476869700810e-01  3.9434947007785637e-01  3.4798419219346205e-01  3.0161895144430101e-01  2.5525374779660376e-01  2.0888845002497741e-01  1.6252231660689195e-01  1.1615207518482530e-01  6.9764933612837809e-02  2.3271717623576108e-02  3.6802501150334850e+00  3.6392480572539125e+00  3.5899708872050593e+00  3.5447740887384671e+00  3.4986434502437751e+00  3.4526057912597032e+00  3.4069408558486467e+00  3.3606256760815589e+00  3.3148185847085054e+00  3.2684425442916116e+00  3.2224280933617639e+00  3.1760247171553653e+00  3.1298398214657110e+00  3.0834260496241015e+00  3.0371456260628960e+00  2.9907413369107290e+00  2.9444172929452113e+00  2.8980267489501639e+00  2.8516829302630491e+00  2.8053026930292910e+00  2.7589491312333