<?xml version="1.0"?>
<VTKFile type="UnstructuredGrid"  version="0.1"  >
<UnstructuredGrid>
<Piece  NumberOfPoints="1369" NumberOfCells="2560">
<Points>
<DataArray  type="Float64"  NumberOfComponents="3"  format="ascii">0 0 0  0.75 0 0  1.5 0 0  2.25 0 0  3 0 0  3.75 0 0  4.5 0 0  5.25 0 0  6 0 0  6.75 0 0  7.5 0 0  8.25 0 0  9 0 0  9.75 0 0  10.5 0 0  11.25 0 0  12 0 0  12.75 0 0  13.5 0 0  14.25 0 0  15 0 0  15.75 0 0  16.5 0 0  17.25 0 0  18 0 0  18.75 0 0  19.5 0 0  20.25 0 0  21 0 0  21.75 0 0  22.5 0 0  23.25 0 0  24 0 0  24.75 0 0  25.5 0 0  26.25 0 0  27 0 0  27.75 0 0  28.5 0 0  29.25 0 0  30 0 0  30.75 0 0  31.5 0 0  32.25 0 0  33 0 0  33.75 0 0  34.5 0 0  35.25 0 0  36 0 0  36.75 0 0  37.5 0 0  38.25 0 0  39 0 0  39.75 0 0  40.5 0 0  41.25 0 0  42 0 0  42.75 0 0  43.5 0 0  44.25 0 0  45 0 0  45.75 0 0  46.5 0 0  47.25 0 0  48 0 0  48.75 0 0  49.5 0 0  50.25 0 0  51 0 0  51.75 0 0  52.5 0 0  53.25 0 0  54 0 0  54.75 0 0  55.5 0 0  56.25 0 0  57 0 0  57.75 0 0  58.5 0 0  59.25 0 0  60 0 0  0 0.5 0  0.75 0.5 0  1.5 0.5 0  2.25 0.5 0  3 0.5 0  3.75 0.5 0  4.5 0.5 0  5.25 0.5 0  6 0.5 0  6.75 0.5 0  7.5 0.5 0  8.25 0.5 0  9 0.5 0  9.75 0.5 0  10.5 0.5 0  11.25 0.5 0  12 0.5 0  12.75 0.5 0  13.5 0.5 0  14.25 0.5 0  15 0.5 0  15.75 0.5 0  16.5 0.5 0  17.25 0.5 0  18 0.5 0  18.75 0.5 0  19.5 0.5 0  20.25 0.5 0  21 0.5 0  21.75 0.5 0  22.5 0.5 0  23.25 0.5 0  24 0.5 0  24.75 0.5 0  25.5 0.5 0  26.25 0.5 0  27 0.5 0  27.75 0.5 0  28.5 0.5 0  29.25 0.5 0  30 0.5 0  30.75 0.5 0  31.5 0.5 0  32.25 0.5 0  33 0.5 0  33.75 0.5 0  34.5 0.5 0  35.25 0.5 0  36 0.5 0  36.75 0.5 0  37.5 0.5 0  38.25 0.5 0  39 0.5 0  39.75 0.5 0  40.5 0.5 0  41.25 0.5 0  42 0.5 0  42.75 0.5 0  43.5 0.5 0  44.25 0.5 0  45 0.5 0  45.75 0.5 0  46.5 0.5 0  47.25 0.5 0  48 0.5 0  48.75 0.5 0  49.5 0.5 0  50.25 0.5 0  51 0.5 0  51.75 0.5 0  52.5 0.5 0  53.25 0.5 0  54 0.5 0  54.75 0.5 0  55.5 0.5 0  56.25 0.5 0  57 0.5 0  57.75 0.5 0  58.5 0.5 0  59.25 0.5 0  60 0.5 0  0 1 0  0.75 1 0  1.5 1 0  2.25 1 0  3 1 0  3.75 1 0  4.5 1 0  5.25 1 0  6 1 0  6.75 1 0  7.5 1 0  8.25 1 0  9 1 0  9.75 1 0  10.5 1 0  11.25 1 0  12 1 0  12.75 1 0  13.5 1 0  14.25 1 0  15 1 0  15.75 1 0  16.5 1 0  17.25 1 0  18 1 0  18.75 1 0  19.5 1 0  20.25 1 0  21 1 0  21.75 1 0  22.5 1 0  23.25 1 0  24 1 0  24.75 1 0  25.5 1 0  26.25 1 0  27 1 0  27.75 1 0  28.5 1 0  29.25 1 0  30 1 0  30.75 1 0  31.5 1 0  32.25 1 0  33 1 0  33.75 1 0  34.5 1 0  35.25 1 0  36 1 0  36.75 1 0  37.5 1 0  38.25 1 0  39 1 0  39.75 1 0  40.5 1 0  41.25 1 0  42 1 0  42.75 1 0  43.5 1 0  44.25 1 0  45 1 0  45.75 1 0  46.5 1 0  47.25 1 0  48 1 0  48.75 1 0  49.5 1 0  50.25 1 0  51 1 0  51.75 1 0  52.5 1 0  53.25 1 0  54 1 0  54.75 1 0  55.5 1 0  56.25 1 0  57 1 0  57.75 1 0  58.5 1 0  59.25 1 0  60 1 0  0 1.5 0  0.75 1.5 0  1.5 1.5 0  2.25 1.5 0  3 1.5 0  3.75 1.5 0  4.5 1.5 0  5.25 1.5 0  6 1.5 0  6.75 1.5 0  7.5 1.5 0  8.25 1.5 0  9 1.5 0  9.75 1.5 0  10.5 1.5 0  11.25 1.5 0  12 1.5 0  12.75 1.5 0  13.5 1.5 0  14.25 1.5 0  15 1.5 0  15.75 1.5 0  16.5 1.5 0  17.25 1.5 0  18 1.5 0  18.75 1.5 0  19.5 1.5 0  20.25 1.5 0  21 1.5 0  21.75 1.5 0  22.5 1.5 0  23.25 1.5 0  24 1.5 0  24.75 1.5 0  25.5 1.5 0  26.25 1.5 0  27 1.5 0  27.75 1.5 0  28.5 1.5 0  29.25 1.5 0  30 1.5 0  30.75 1.5 0  31.5 1.5 0  32.25 1.5 0  33 1.5 0  33.75 1.5 0  34.5 1.5 0  35.25 1.5 0  36 1.5 0  36.75 1.5 0  37.5 1.5 0  38.25 1.5 0  39 1.5 0  39.75 1.5 0  40.5 1.5 0  41.25 1.5 0  42 1.5 0  42.75 1.5 0  43.5 1.5 0  44.25 1.5 0  45 1.5 0  45.75 1.5 0  46.5 1.5 0  47.25 1.5 0  48 1.5 0  48.75 1.5 0  49.5 1.5 0  50.25 1.5 0  51 1.5 0  51.75 1.5 0  52.5 1.5 0  53.25 1.5 0  54 1.5 0  54.75 1.5 0  55.5 1.5 0  56.25 1.5 0  57 1.5 0  57.75 1.5 0  58.5 1.5 0  59.25 1.5 0  60 1.5 0  0 2 0  0.75 2 0  1.5 2 0  2.25 2 0  3 2 0  3.75 2 0  4.5 2 0  5.25 2 0  6 2 0  6.75 2 0  7.5 2 0  8.25 2 0  9 2 0  9.75 2 0  10.5 2 0  11.25 2 0  12 2 0  12.75 2 0  13.5 2 0  14.25 2 0  15 2 0  15.75 2 0  16.5 2 0  17.25 2 0  18 2 0  18.75 2 0  19.5 2 0  20.25 2 0  21 2 0  21.75 2 0  22.5 2 0  23.25 2 0  24 2 0  24.75 2 0  25.5 2 0  26.25 2 0  27 2 0  27.75 2 0  28.5 2 0  29.25 2 0  30 2 0  30.75 2 0  31.5 2 0  32.25 2 0  33 2 0  33.75 2 0  34.5 2 0  35.25 2 0  36 2 0  36.75 2 0  37.5 2 0  38.25 2 0  39 2 0  39.75 2 0  40.5 2 0  41.25 2 0  42 2 0  42.75 2 0  43.5 2 0  44.25 2 0  45 2 0  45.75 2 0  46.5 2 0  47.25 2 0  48 2 0  48.75 2 0  49.5 2 0  50.25 2 0  51 2 0  51.75 2 0  52.5 2 0  53.25 2 0  54 2 0  54.75 2 0  55.5 2 0  56.25 2 0  57 2 0  57.75 2 0  58.5 2 0  59.25 2 0  60 2 0  0 2.5 0  0.75 2.5 0  1.5 2.5 0  2.25 2.5 0  3 2.5 0  3.75 2.5 0  4.5 2.5 0  5.25 2.5 0  6 2.5 0  6.75 2.5 0  7.5 2.5 0  8.25 2.5 0  9 2.5 0  9.75 2.5 0  10.5 2.5 0  11.25 2.5 0  12 2.5 0  12.75 2.5 0  13.5 2.5 0  14.25 2.5 0  15 2.5 0  15.75 2.5 0  16.5 2.5 0  17.25 2.5 0  18 2.5 0  18.75 2.5 0  19.5 2.5 0  20.25 2.5 0  21 2.5 0  21.75 2.5 0  22.5 2.5 0  23.25 2.5 0  24 2.5 0  24.75 2.5 0  25.5 2.5 0  26.25 2.5 0  27 2.5 0  27.75 2.5 0  28.5 2.5 0  29.25 2.5 0  30 2.5 0  30.75 2.5 0  31.5 2.5 0  32.25 2.5 0  33 2.5 0  33.75 2.5 0  34.5 2.5 0  35.25 2.5 0  36 2.5 0  36.75 2.5 0  37.5 2.5 0  38.25 2.5 0  39 2.5 0  39.75 2.5 0  40.5 2.5 0  41.25 2.5 0  42 2.5 0  42.75 2.5 0  43.5 2.5 0  44.25 2.5 0  45 2.5 0  45.75 2.5 0  46.5 2.5 0  47.25 2.5 0  48 2.5 0  48.75 2.5 0  49.5 2.5 0  50.25 2.5 0  51 2.5 0  51.75 2.5 0  52.5 2.5 0  53.25 2.5 0  54 2.5 0  54.75 2.5 0  55.5 2.5 0  56.25 2.5 0  57 2.5 0  57.75 2.5 0  58.5 2.5 0  59.25 2.5 0  60 2.5 0  0 3 0  0.75 3 0  1.5 3 0  2.25 3 0  3 3 0  3.75 3 0  4.5 3 0  5.25 3 0  6 3 0  6.75 3 0  7.5 3 0  8.25 3 0  9 3 0  9.75 3 0  10.5 3 0  11.25 3 0  12 3 0  12.75 3 0  13.5 3 0  14.25 3 0  15 3 0  15.75 3 0  16.5 3 0  17.25 3 0  18 3 0  18.75 3 0  19.5 3 0  20.25 3 0  21 3 0  21.75 3 0  22.5 3 0  23.25 3 0  24 3 0  24.75 3 0  25.5 3 0  26.25 3 0  27 3 0  27.75 3 0  28.5 3 0  29.25 3 0  30 3 0  30.75 3 0  31.5 3 0  32.25 3 0  33 3 0  33.75 3 0  34.5 3 0  35.25 3 0  36 3 0  36.75 3 0  37.5 3 0  38.25 3 0  39 3 0  39.75 3 0  40.5 3 0  41.25 3 0  42 3 0  42.75 3 0  43.5 3 0  44.25 3 0  45 3 0  45.75 3 0  46.5 3 0  47.25 3 0  48 3 0  48.75 3 0  49.5 3 0  50.25 3 0  51 3 0  51.75 3 0  52.5 3 0  53.25 3 0  54 3 0  54.75 3 0  55.5 3 0  56.25 3 0  57 3 0  57.75 3 0  58.5 3 0  59.25 3 0  60 3 0  0 3.5 0  0.75 3.5 0  1.5 3.5 0  2.25 3.5 0  3 3.5 0  3.75 3.5 0  4.5 3.5 0  5.25 3.5 0  6 3.5 0  6.75 3.5 0  7.5 3.5 0  8.25 3.5 0  9 3.5 0  9.75 3.5 0  10.5 3.5 0  11.25 3.5 0  12 3.5 0  12.75 3.5 0  13.5 3.5 0  14.25 3.5 0  15 3.5 0  15.75 3.5 0  16.5 3.5 0  17.25 3.5 0  18 3.5 0  18.75 3.5 0  19.5 3.5 0  20.25 3.5 0  21 3.5 0  21.75 3.5 0  22.5 3.5 0  23.25 3.5 0  24 3.5 0  24.75 3.5 0  25.5 3.5 0  26.25 3.5 0  27 3.5 0  27.75 3.5 0  28.5 3.5 0  29.25 3.5 0  30 3.5 0  30.75 3.5 0  31.5 3.5 0  32.25 3.5 0  33 3.5 0  33.75 3.5 0  34.5 3.5 0  35.25 3.5 0  36 3.5 0  36.75 3.5 0  37.5 3.5 0  38.25 3.5 0  39 3.5 0  39.75 3.5 0  40.5 3.5 0  41.25 3.5 0  42 3.5 0  42.75 3.5 0  43.5 3.5 0  44.25 3.5 0  45 3.5 0  45.75 3.5 0  46.5 3.5 0  47.25 3.5 0  48 3.5 0  48.75 3.5 0  49.5 3.5 0  50.25 3.5 0  51 3.5 0  51.75 3.5 0  52.5 3.5 0  53.25 3.5 0  54 3.5 0  54.75 3.5 0  55.5 3.5 0  56.25 3.5 0  57 3.5 0  57.75 3.5 0  58.5 3.5 0  59.25 3.5 0  60 3.5 0  0 4 0  0.75 4 0  1.5 4 0  2.25 4 0  3 4 0  3.75 4 0  4.5 4 0  5.25 4 0  6 4 0  6.75 4 0  7.5 4 0  8.25 4 0  9 4 0  9.75 4 0  10.5 4 0  11.25 4 0  12 4 0  12.75 4 0  13.5 4 0  14.25 4 0  15 4 0  15.75 4 0  16.5 4 0  17.25 4 0  18 4 0  18.75 4 0  19.5 4 0  20.25 4 0  21 4 0  21.75 4 0  22.5 4 0  23.25 4 0  24 4 0  24.75 4 0  25.5 4 0  26.25 4 0  27 4 0  27.75 4 0  28.5 4 0  29.25 4 0  30 4 0  30.75 4 0  31.5 4 0  32.25 4 0  33 4 0  33.75 4 0  34.5 4 0  35.25 4 0  36 4 0  36.75 4 0  37.5 4 0  38.25 4 0  39 4 0  39.75 4 0  40.5 4 0  41.25 4 0  42 4 0  42.75 4 0  43.5 4 0  44.25 4 0  45 4 0  45.75 4 0  46.5 4 0  47.25 4 0  48 4 0  48.75 4 0  49.5 4 0  50.25 4 0  51 4 0  51.75 4 0  52.5 4 0  53.25 4 0  54 4 0  54.75 4 0  55.5 4 0  56.25 4 0  57 4 0  57.75 4 0  58.5 4 0  59.25 4 0  60 4 0  0.375 0.25 0  1.125 0.25 0  1.875 0.25 0  2.625 0.25 0  3.375 0.25 0  4.125 0.25 0  4.875 0.25 0  5.625 0.25 0  6.375 0.25 0  7.125 0.25 0  7.875 0.25 0  8.625 0.25 0  9.375 0.25 0  10.125 0.25 0  10.875 0.25 0  11.625 0.25 0  12.375 0.25 0  13.125 0.25 0  13.875 0.25 0  14.625 0.25 0  15.375 0.25 0  16.125 0.25 0  16.875 0.25 0  17.625 0.25 0  18.375 0.25 0  19.125 0.25 0  19.875 0.25 0  20.625 0.25 0  21.375 0.25 0  22.125 0.25 0  22.875 0.25 0  23.625 0.25 0  24.375 0.25 0  25.125 0.25 0  25.875 0.25 0  26.625 0.25 0  27.375 0.25 0  28.125 0.25 0  28.875 0.25 0  29.625 0.25 0  30.375 0.25 0  31.125 0.25 0  31.875 0.25 0  32.625 0.25 0  33.375 0.25 0  34.125 0.25 0  34.875 0.25 0  35.625 0.25 0  36.375 0.25 0  37.125 0.25 0  37.875 0.25 0  38.625 0.25 0  39.375 0.25 0  40.125 0.25 0  40.875 0.25 0  41.625 0.25 0  42.375 0.25 0  43.125 0.25 0  43.875 0.25 0  44.625 0.25 0  45.375 0.25 0  46.125 0.25 0  46.875 0.25 0  47.625 0.25 0  48.375 0.25 0  49.125 0.25 0  49.875 0.25 0  50.625 0.25 0  51.375 0.25 0  52.125 0.25 0  52.875 0.25 0  53.625 0.25 0  54.375 0.25 0  55.125 0.25 0  55.875 0.25 0  56.625 0.25 0  57.375 0.25 0  58.125 0.25 0  58.875 0.25 0  59.625 0.25 0  0.375 0.75 0  1.125 0.75 0  1.875 0.75 0  2.625 0.75 0  3.375 0.75 0  4.125 0.75 0  4.875 0.75 0  5.625 0.75 0  6.375 0.75 0  7.125 0.75 0  7.875 0.75 0  8.625 0.75 0  9.375 0.75 0  10.125 0.75 0  10.875 0.75 0  11.625 0.75 0  12.375 0.75 0  13.125 0.75 0  13.875 0.75 0  14.625 0.75 0  15.375 0.75 0  16.125 0.75 0  16.875 0.75 0  17.625 0.75 0  18.375 0.75 0  19.125 0.75 0  19.875 0.75 0  20.625 0.75 0  21.375 0.75 0  22.125 0.75 0  22.875 0.75 0  23.625 0.75 0  24.375 0.75 0  25.125 0.75 0  25.875 0.75 0  26.625 0.75 0  27.375 0.75 0  28.125 0.75 0  28.875 0.75 0  29.625 0.75 0  30.375 0.75 0  31.125 0.75 0  31.875 0.75 0  32.625 0.75 0  33.375 0.75 0  34.125 0.75 0  34.875 0.75 0  35.625 0.75 0  36.375 0.75 0  37.125 0.75 0  37.875 0.75 0  38.625 0.75 0  39.375 0.75 0  40.125 0.75 0  40
[...]
<PointData  Scalars="f_8-1"> 
<DataArray  type="Float64"  Name="f_8-1"  format="ascii">-7.0512042772926646e+00  -6.9659103994346570e+00  -6.8757072232775469e+00  -6.7882289688747184e+00  -6.6999669521976299e+00  -6.6119626353864946e+00  -6.5237671753968689e+00  -6.4356101563671899e+00  -6.3474044917445251e+00  -6.2592209066289559e+00  -6.1710390468261291e+00  -6.0828758036768455e+00  -5.9947187637064623e+00  -5.9065678905419636e+00  -5.8184180975450790e+00  -5.7302690732037007e+00  -5.6421200575763439e+00  -5.5539710096171095e+00  -5.4658220281808028e+00  -5.3776729762108930e+00  -5.2895239965470759e+00  -5.2013749642097178e+00  -5.1132259763609769e+00  -5.0250769557071164e+00  -4.9369279580759731e+00  -4.8487789419194325e+00  -4.7606299364439328e+00  -4.6724809208227027e+00  -4.5843319094022581e+00  -4.4961828922608387e+00  -4.4080338760948923e+00  -4.3198848563925685e+00  -4.2317358361346509e+00  -4.1435868133609297e+00  -4.0554377893386233e+00  -3.9672887632532499e+00  -3.8791397356201984e+00  -3.7909907061152408e+00  -3.7028416749394184e+00  -3.6146926419687224e+00  -3.5265436072785419e+00  -3.4383945708232280e+00  -3.3502455326300677e+00  -3.2620964926827787e+00  -3.1739474509909043e+00  -3.0857984075488614e+00  -2.9976493623598413e+00  -2.9095003154219699e+00  -2.8213512667363152e+00  -2.7332022163021943e+00  -2.6450531641199446e+00  -2.5569041101892638e+00  -2.4687550545101784e+00  -2.3806059970823608e+00  -2.2924569379056101e+00  -2.2043078769791982e+00  -2.1161588143021635e+00  -2.0280097498723682e+00  -1.9398606836857823e+00  -1.8517116157345876e+00  -1.7635625460016429e+00  -1.6754134744540687e+00  -1.5872644010173056e+00  -1.4991153255449823e+00  -1.4109662477122247e+00  -1.3228171668751321e+00  -1.2346680816651516e+00  -1.1465189894123944e+00  -1.0583698847642289e+00  -9.7022075782433292e-01  -8.8207159070304786e-01  -7.9392235512368414e-01  -7.0577301303102269e-01  -6.1762353919768809e-01  -5.2947400530980337e-01  -4.4132484345863904e-01  -3.5317762825157134e-01  -2.6503642538525263e-01  -1.7692559853381551e-01  -8.8740886272106148e-02  -3.2167997122804974e-03  -7.0539846345113828e+00  -6.9650791178471687e+00  -6.8762307349111085e+00  -6.7881546763825842e+00  -6.7001103264229416e+00  -6.6119867205382015e+00  -6.5238534832538377e+00  -6.4356653853216308e+00  -6.3474784420614165e+00  -6.2592827858088889e+00  -6.1711062631479336e+00  -6.0829384047087309e+00  -5.9947830726003506e+00  -5.9066308045408142e+00  -5.8184816173872012e+00  -5.7303322388193685e+00  -5.6421833799777685e+00  -5.5540342638023903e+00  -5.4658852956476958e+00  -5.3777362517815872e+00  -5.2895872524528915e+00  -5.2014382413780540e+00  -5.1132892331077366e+00  -5.0251402298287378e+00  -4.9369912179506850e+00  -4.8488422129219204e+00  -4.7606931989451686e+00  -4.6725441896468425e+00  -4.5843951736059978e+00  -4.4962461597801786e+00  -4.4080971412739727e+00  -4.3199481232009127e+00  -4.2317991018279022e+00  -4.1436500798097669e+00  -4.0555010552853163e+00  -3.9673520295322464e+00  -3.8792030016848855e+00  -3.7910539723192489e+00  -3.7029049410566310e+00  -3.6147559081420475e+00  -3.5266068734186256e+00  -3.4384578369853354e+00  -3.3503087987803442e+00  -3.2621597588417637e+00  -3.1740107171462557e+00  -3.0858616737079081e+00  -2.9977126285182654e+00  -2.9095635815822973e+00  -2.8214145328970655e+00  -2.7332654824642271e+00  -2.6451164302827483e+00  -2.5569673763531506e+00  -2.4688183206749286e+00  -2.3806692632481807e+00  -2.2925202040723098e+00  -2.2043711431471782e+00  -2.1162220804712231e+00  -2.0280730160437241e+00  -1.9399239498596814e+00  -1.8517748819152560e+00  -1.7636258121928405e+00  -1.6754767406720681e+00  -1.5873276672845524e+00  -1.4991785919274636e+00  -1.4110295143190199e+00  -1.3228804339722473e+00  -1.2347313497255328e+00  -1.1465822594584032e+00  -1.0584331586295423e+00  -9.7028403911053374e-01  -8.8213488544878449e-01  -7.9398567333429482e-01  -7.0583636829601304e-01  -6.1768694765121923e-01  -5.2953746832446746e-01  -4.4138831596801342e-01  -3.5324081536630758e-01  -2.6509961182017600e-01  -1.7696994650530171e-01  -8.8998769578334247e-02  1.3126973782625679e-04  -7.0531179164969204e+00  -6.9653248302122908e+00  -6.8763933780041482e+00  -6.7883653459843396e+00  -6.7001298231809603e+00  -6.6120644870137841e+00  -6.5238698164259636e+00  -6.4357227173587539e+00  -6.3475151611506009e+00  -6.2593380262407399e+00  -6.1711509347065014e+00  -6.0829896114168180e+00  -5.9948282646020647e+00  -5.9066780260802316e+00  -5.8185262986023174e+00  -5.7303778543666279e+00  -5.6422281315203664e+00  -5.5540794344439330e+00  -5.4659301823584858e+00  -5.3777812846381181e+00  -5.2896322053427536e+00  -5.2014832264405602e+00  -5.1133342090109899e+00  -5.0251852008593874e+00  -4.9370361989858633e+00  -4.8488871820348098e+00  -4.7607381792984080e+00  -4.6725891601740548e+00  -4.5844401521399885e+00  -4.4962911320224039e+00  -4.4081421182883922e+00  -4.3199930966878703e+00  -4.2318440778633466e+00  -4.1436950540440236e+00  -4.0555460307718239e+00  -3.9673970041661391e+00  -3.8792479768928243e+00  -3.7910989471492091e+00  -3.7029499161344557e+00  -3.6148008830619123e+00  -3.5266518484401672e+00  -3.4385028119444496e+00  -3.3503537737794873e+00  -3.2622047338176441e+00  -3.1740556921375513e+00  -3.0859066486912088e+00  -2.9977576035076097e+00  -2.9096085565693550e+00  -2.8214595078867424e+00  -2.7333104574536935e+00  -2.6451614052736541e+00  -2.5570123513445844e+00  -2.4688632956674370e+00  -2.3807142382415027e+00  -2.2925651790665449e+00  -2.2044161181421216e+00  -2.1162670554665008e+00  -2.0281179910382909e+00  -1.9399689248512000e+00  -1.8518198568983448e+00  -1.7636707871564123e+00  -1.6755217155917428e+00  -1.5873726421123762e+00  -1.4992235665626048e+00  -1.4110744885685083e+00  -1.3229254074483909e+00  -1.2347763217065528e+00  -1.1466272285636756e+00  -1.0584781223539548e+00  -9.7032899269911310e-01  -8.8217981969471193e-01  -7.9403056824774210e-01  -7.0588117625451718e-01  -6.1773154103332639e-01  -5.2958148264776661e-01  -4.4143067333683056e-01  -3.5327836776483423e-01  -2.6512223389522005e-01  -1.7695639857051970e-01  -8.8696960307785552e-02  -2.4918541433904371e-05  -7.0536274157384167e+00  -6.9648891389842449e+00  -6.8767415422044147e+00  -6.7882343441822757e+00  -6.7002229311200772e+00  -6.6119611135149716e+00  -6.5238774034700437e+00  -6.4356564088435482e+00  -6.3475057005731488e+00  -6.2593003682276294e+00  -6.1711369678411305e+00  -6.0829601468616588e+00  -5.9948063752671308e+00  -5.9066484022890444e+00  -5.8184995143226423e+00  -5.7303480957976465e+00  -5.6421996773838607e+00  -5.5540499559714780e+00  -5.4659012354330532e+00  -5.3777520031722492e+00  -5.2896030923826265e+00  -5.2014540283382136e+00  -5.1133050394755113e+00  -5.0251560294078930e+00  -4.9370070144643625e+00  -4.8488580152749021e+00  -4.7607089939448146e+00  -4.6725599914959934e+00  -4.5844109694032058e+00  -4.4962619604887131e+00  -4.4081129381192401e+00  -4.3199639229695013e+00  -4.2318148994410896e+00  -4.1436658789773846e+00  -4.0555168533586166e+00  -3.9673678283653695e+00  -3.8792188000029655e+00  -3.7910697709838383e+00  -3.7029207394941510e+00  -3.6147717067284693e+00  -3.5266226719106673e+00  -3.4384736355382133e+00  -3.3503245972961118e+00  -3.2621755573814166e+00  -3.1740265156721792e+00  -3.0858774722430398e+00  -2.9977284270487501e+00  -2.9095793801164609e+00  -2.8214303314299944e+00  -2.7332812809988685e+00  -2.6451322288174737e+00  -2.5569831748889857e+00  -2.4688341192114303e+00  -2.3806850617856776e+00  -2.2925360026106909e+00  -2.2043869416860922e+00  -2.1162378790099994e+00  -2.0280888145794322e+00  -1.9399397483873746e+00  -1.8517906804203932e+00  -1.7636416106491328e+00  -1.6754925390150650e+00  -1.5873434653941514e+00  -1.4991943895373769e+00  -1.4110453109312653e+00  -1.3228962285569741e+00  -1.2347471403808956e+00  -1.1465980424729929e+00  -1.0584489272747755e+00  -9.7029978057268818e-01  -8.8215057561678600e-01  -7.9400126213010402e-01  -7.0585174244804350e-01  -6.1770181474316332e-01  -5.2955101830342000e-01  -4.4139819060393992e-01  -3.5324014883930982e-01  -2.6506791115598083e-01  -1.7685502470508735e-01  -8.8528673659767312e-02  -1.8812846441423295e-05  -7.0533005970670661e+00  -6.9651142666347372e+00  -6.8765452850588593e+00  -6.7884174309136140e+00  -6.7000932257467651e+00  -6.6120370601439591e+00  -6.5238039947282083e+00  -6.4356831900394527e+00  -6.3474679193795494e+00  -6.2593086092821268e+00  -6.1711167768148387e+00  -6.0829587078461289e+00  -5.9947919357989221e+00  -5.9066413174366019e+00  -5.8184869839485316e+00  -5.7303385536851090e+00  -5.6421880554390338e+00  -5.5540395193505443e+00  -5.4658900551696226e+00  -5.3777412386339822e+00  -5.2895920987210516e+00  -5.2014431434446768e+00  -5.1132941130036382e+00  -5.0251451063185550e+00  -4.9369961060851884e+00  -4.8488470848042491e+00  -4.7606980865193087e+00  -4.6725490630473434e+00  -4.5844000586736326e+00  -4.4962510355678562e+00  -4.4081020241468911e+00  -4.3199530008068789e+00  -4.2318039832592564e+00  -4.1436549585279332e+00  -4.0555059358987782e+00  -3.9673569088511500e+00  -3.8792078818789988e+00  -3.7910588519347796e+00  -3.7029098210525198e+00  -3.6147607878939056e+00  -3.5266117533272512e+00  -3.4384627167963431e+00  -3.3503136786530634e+00  -3.2621646386773500e+00  -3.1740155970052997e+00  -3.0858665535536076e+00  -2.9977175083727521e+00  -2.9095684614324346e+00  -2.8214194127506720e+00  -2.7332703623168264e+00  -2.6451213101370930e+00  -2.5569722562078470e+00  -2.4688232005310367e+00  -2.3806741431053595e+00  -2.2925250839310847e+00  -2.2043760230070997e+00  -2.1162269603319701e+00  -2.0280778959021881e+00  -1.9399288297105612e+00  -1.8517797617419693e+00  -1.7636306919646174e+00  -1.6754816203127088e+00  -1.5873325466497321e+00  -1.4991834706969787e+00  -1.4110343918880255e+00  -1.3228853090912749e+00  -1.2347362200721443e+00  -1.1465871205033029e+00  -1.0584380021221231e+00  -9.7028884935961768e-01  -8.8213963289967923e-01  -7.9399029672750288e-01  -7.0584072897452688e-01  -6.1769068852738973e-01  -5.2953960155482016e-01  -4.4138597057102424e-01  -3.5322565667922967e-01  -2.6504701963314925e-01  -1.7681889336621232e-01  -8.8481219304107406e-02  -1.4748627769848493e-05  -7.0536274312877625e+00  -6.9648891084362869e+00  -6.8767415166240156e+00  -6.7882343105613607e+00  -6.7002229367804018e+00  -6.6119611274928882e+00  -6.5238774323652775e+00  -6.4356564341969147e+00  -6.3475057254560960e+00  -6.2593003856702785e+00  -6.1711369790220942e+00  -6.0829601511993472e+00  -5.9948063765521598e+00  -5.9066484023504389e+00  -5.8184995151775283e+00  -5.7303480977568215e+00  -5.6421996806977353e+00  -5.5540499603147353e+00  -5.4659012406511547e+00  -5.3777520089832551e+00  -5.2896030986536733e+00  -5.2014540349127980e+00  -5.1133050462783416e+00  -5.0251560363608965e+00  -4.9370070215284541e+00  -4.8488580224120623e+00  -4.7607090011354360e+00  -4.6725599987217352e+00  -4.5844109766544276e+00  -4.4962619677566975e+00  -4.4081129453992407e+00  -4.3199639302574697e+00  -4.2318149067347148e+00  -4.1436658862747997e+00  -4.0555168606586820e+00  -3.9673678356672148e+00  -3.8792188073060685e+00  -3.7910697782877882e+00  -3.7029207467986867e+00  -3.6147717140334090e+00  -3.5266226792158850e+00  -3.4384736428436455e+00  -3.3503246046016750e+00  -3.2621755646870980e+00  -3.1740265229779534e+00  -3.0858774795489006e+00  -2.9977284343547126e+00  -2.9095793874225482e+00  -2.8214303387362549e+00  -2.7332812883053745e+00  -2.6451322361243248e+00  -2.5569831821963458e+00  -2.4688341265195146e+00  -2.3806850690948380e+00  -2.2925360099214296e+00  -2.2043869489991423e+00  -2.1162378863264353e+00  -2.0280888219008131e+00  -1.9399397557160070e+00  -1.8517906877596322e+00  -1.7636416180039061e+00  -1.6754925463926205e+00  -1.5873434728051945e+00  -1.4991943969978054e+00  -1.4110453184648153e+00  -1.3228962361994441e+00  -1.2347471481867667e+00  -1.1465980505261939e+00  -1.0584489357062996e+00  -9.7029978958992225e-01  -8.8215058555301429e-01  -7.9400127352735006e-01  -7.0585175619252460e-01  -6.1770183228525022e-01  -5.2955104203188619e-01  -4.4139822452459659e-01  -3.5324019971103593e-01  -2.6506798932823289e-01  -1.7685513787697676e-01  -8.8528788243721221e-02  -1.8821557711795665e-05  -7.0531178805530832e+00  -6.9653248264145802e+00  -6.8763932751427985e+00  -6.7883653080880455e+00  -6.7001298241633034e+00  -6.6120645362224000e+00  -6.5238698750404982e+00  -6.4357227784040498e+00  -6.3475152136533151e+00  -6.2593380685325135e+00  -6.1711509600449466e+00  -6.0829896246435053e+00  -5.9948282703451508e+00  -5.9066780307693225e+00  -5.8185263046203755e+00  -5.7303778632305979e+00  -5.6422281428950773e+00  -5.5540794480758251e+00  -5.4659301975933703e+00  -5.3777813011189455e+00  -5.2896322226642987e+00  -5.2014832443888999e+00  -5.1133342273783411e+00  -5.0251852195337712e+00  -4.9370362178652298e+00  -4.8488872010625883e+00  -4.7607381984252140e+00  -4.6725891793718022e+00  -4.5844401713851441e+00  -4.4962911513011736e+00  -4.4081421375896896e+00  -4.3199931160049916e+00  -4.2318440971911526e+00  -4.1436950733792965e+00  -4.0555460501121470e+00  -3.9673970235099505e+00  -3.8792479962390427e+00  -3.7910989664970698e+00  -3.7029499354834470e+00  -3.6148009024116701e+00  -3.5266518677904859e+00  -3.4385028312951542e+00  -3.3503537931304805e+00  -3.2622047531688385e+00  -3.1740557114889336e+00  -3.0859066680427634e+00  -2.9977576228593472e+00  -2.9096085759213492e+00  -2.8214595272390670e+00  -2.7333104768064782e+00  -2.6451614246271298e+00  -2.5570123706990193e+00  -2.4688633150233015e+00  -2.3807142575994353e+00  -2.2925651984275310e+00  -2.2044161375075899e+00  -2.1162670748385088e+00  -2.0281180104198815e+00  -1.9399689442468147e+00  -1.8518198763144789e+00  -1.7636708066025906e+00  -1.6755217350819622e+00  -1.5873726616672881e+00  -1.4992235862128291e+00  -1.4110745083597096e+00  -1.3229254274492872e+00  -1.2347763420215137e+00  -1.1466272493530436e+00  -1.0584781438671345e+00  -9.7032901532962157e-01  -8.8217984407298689e-01  -7.9403059539804133e-01  -7.0588120785392450e-01  -6.1773157982820348e-01  -5.2958153314342815e-01  -4.4143074305501179e-01  -3.5327846962942872e-01  -2.6512238956835738e-01  -1.7695663982179077e-01  -8.8697256535595265e-02  -2.4946563357562095e-05  -7.0539847218294991e+00  -6.9650791160420393e+00  -6.8762306080358062e+00  -6.7881546424015031e+00  -6.7001103731984566e+00  -6.6119868199339402e+00  -6.5238536029053744e+00  -6.4356655006024646e+00  -6.3474785479887839e+00  -6.2592828731790355e+00  -6.1711063303434006e+00  -6.0829384558414885e+00  -5.9947831162094269e+00  -5.9066308469443092e+00  -5.8184816622579500e+00  -5.7303322871850302e+00  -5.6421834317372541e+00  -5.5540343183063969e+00  -5.4658853522477466e+00  -5.3777363098962789e+00  -5.2895873116557643e+00  -5.2014383013442016e+00  -5.1132892936127616e+00  -5.0251402907083378e+00  -4.9369912790926325e+00  -4.8488422742451904e+00  -4.7606932603946994e+00  -4.6725442511832256e+00  -4.5843952352025923e+00  -4.4962462214180396e+00  -4.4080972029403185e+00  -4.3199481848867647e+00  -4.2317991635272154e+00  -4.1436501415183127e+00  -4.0555011170001984e+00  -3.9673520912514788e+00  -3.8792030634070995e+00  -3.7910540340435279e+00  -3.7029050027823032e+00  -3.6147559698686931e+00  -3.5266069351459639e+00  -3.4384578987131622e+00  -3.3503088605085170e+00  -3.2621598205701936e+00  -3.1740107788749143e+00  -3.0858617354367839e+00  -2.9977126902473792e+00  -2.9095636433117269e+00  -2.8214145946269058e+00  -2.7332655441946505e+00  -2.6451164920140195e+00  -2.5569674380856231e+00  -2.4688183824091809e+00  -2.3806693249850248e+00  -2.2925202658129540e+00  -2.2043712048934054e+00  -2.1162221422256038e+00  -2.0280730778100500e+00  -1.9399240116434779e+00  -1.8517749437246187e+00  -1.7636258740396500e+00  -1.6754768025737603e+00  -1.5873277292668897e+00  -1.4991786540286511e+00  -1.4110295765961378e+00  -1.3228804965113135e+00  -1.2347314126574878e+00  -1.1465823229849421e+00  -1.0584332230654392e+00  -9.7028410495392270e-01  -8.8213495349888282e-01  -7.9398574488814178e-01  -7.0583644547172064e-01  -6.1768703391607305e-01  -5.2953756940776830e-01  -4.4138844160774210e-01  -3.5324098270016185e-01  -2.6509985179159440e-01  -1.7697030659852325e-01  -8.8999448150749491e-02  1.3123475130646388e-04  -7.0512038382984130e+00  -6.9659106503452870e+00  -6.8757070221461394e+00  -6.7882290118441260e+00  -6.6999670266336091e+00  -6.6119627840378579e+00  -6.5237673323637697e+00  -6.4356103115569168e+00  -6.3474046320014512e+00  -6.2592210276914164e+00  -6.1710391469102062e+00  -6.0828758890975196e+00  -5.9947188420336186e+00  -5.9065679684864785e+00  -5.8184181781426343e+00  -5.7302691576816436e+00  -5.6421201455606012e+00  -5.5539711005466916e+00  -5.4658221212777010e+00  -5.3776730709238034e+00  -5.2895240923870457e+00  -5.2013750608619231e+00  -5.1132260735715960e+00  -5.0250770533154734e+00  -4.9369280559562281e+00  -4.8487790399918627e+00  -4.7606300346472912e+00  -4.6724810191179289e+00  -4.5843320077599943e+00  -4.4961829906621507e+00  -4.4080339745258268e+00  -4.3198849548440439e+00  -4.2317359346001790e+00  -4.1435869118361417e+00  -4.0554378878204611e+00  -3.9672888617396418e+00  -3.8791398341097212e+00  -3.7909908046069249e+00  -3.7028417734325556e+00  -3.6146927404628908e+00  -3.5265437057734270e+00  -3.4383946693186180e+00  -3.3502456311258060e+00  -3.2620965911787914e+00  -3.1739475494871487e+00  -3.0857985060453124e+00  -2.9976494608565338e+00  -2.9095004139189613e+00  -2.8213513652337050e+00  -2.7332023148001334e+00  -2.6450532626186889e+00  -2.5569042086891520e+00  -2.4687551530117533e+00  -2.3806060955863955e+00  -2.2924570364132490e+00  -2.2043079754921284e+00  -2.1161589128228275e+00  -2.0280098484043592e+00  -1.9398607822343372e+00  -1.8517117143073769e+00  -1.7635626446099486e+00  -1.6754135731144650e+00  -1.5872644997543250e+00  -1.4991154243951108e+00  -1.4109663467301690e+00  -1.3228172661436866e+00  -1.2346681813110116e+00  -1.1465190896317399e+00  -1.0583699858651006e+00  -9.7022086029716259e-01  -8.8207169533923968e-01  -7.9392246321307569e-01  -7.0577312668782610e-01  -6.1762366190061124e-01  -5.2947414285491756e-01  -4.4132500577121037e-01  -3.5317783281746995e-01  -2.6503670200280827e-01  -1.7692600618924265e-01  -8.8741379762399430e-02  -3.2198264867648939e-03  -7.0105532948862157e+00  -6.9206596373407532e+00  -6.8323859541281626e+00  -6.7443042175823722e+00  -6.6562248717463097e+00  -6.5681053734174029e+00  -6.4799381534547313e+00  -6.3917540402276716e+00  -6.3035602317676531e+00  -6.2153763215231752e+00  -6.1272035015760933e+00  -6.0390429568824926e+00  -5.9508888957887871e+00  -5.8627384944761474e+00  -5.7745890723454076e+00  -5.6864400510587307e+00  -5.5982910139443662e+00  -5.5101420036272053e+00  -5.4219929831116112e+00  -5.3338439695084885e+00  -5.2456949620971765e+00  -5.1575459524070633e+00  -5.0693969481429333e+00  -4.9812479386805677e+00  -4.8930989321886811e+00  -4.8049499209499391e+00  -4.7168009107848494e+00  -4.6286518969470141e+00  -4.5405028829255567e+00  -4.4523538660806503e+00  -4.3642048482965059e+00  -4.2760558282160606e+00  -4.1879068067792424e+00  -4.0997577833346899e+00  -4.0116087583204934e+00  -3.9234597314428572e+00  -3.8353107028939051e+00  -3.7471616725484576e+00  -3.6590126404862828e+00  -3.5708636066566952e+00  -3.4827145710912029e+00  -3.3945655337702694e+00  -3.3064164947057462e+00  -3.2182674538904363e+00  -3.1301184113285778e+00  -3.0419693670176553e+00  -2.9538203209591103e+00  -2.8656712731520670e+00  -2.7775222235970154e+00  -2.6893731722935814e+00  -2.6012241192419348e+00  -2.5130750644418010e+00  -2.4249260078931920e+00  -2.3367769495956532e+00  -2.2486278895490290e+00  -2.1604788277521805e+00  -2.0723297642043450e+00  -1.9841806989019639e+00  -1.8960316318413672e+00  -1.8078825630101860e+00  -1.7197334923904173e+00  -1.6315844199332787e+00  -1.5434353455528911e+00  -1.4552862690427548e+00  -1.3671371900087390e+00  -1.2789881075770109e+00  -1.1908390200510941e+00  -1.102689923932