<?xml version="1.0"?>
<VTKFile type="UnstructuredGrid"  version="0.1"  >
<UnstructuredGrid>
<Piece  NumberOfPoints="1369" NumberOfCells="2560">
<Points>
<DataArray  type="Float64"  NumberOfComponents="3"  format="ascii">0 0 0  0.75 0 0  1.5 0 0  2.25 0 0  3 0 0  3.75 0 0  4.5 0 0  5.25 0 0  6 0 0  6.75 0 0  7.5 0 0  8.25 0 0  9 0 0  9.75 0 0  10.5 0 0  11.25 0 0  12 0 0  12.75 0 0  13.5 0 0  14.25 0 0  15 0 0  15.75 0 0  16.5 0 0  17.25 0 0  18 0 0  18.75 0 0  19.5 0 0  20.25 0 0  21 0 0  21.75 0 0  22.5 0 0  23.25 0 0  24 0 0  24.75 0 0  25.5 0 0  26.25 0 0  27 0 0  27.75 0 0  28.5 0 0  29.25 0 0  30 0 0  30.75 0 0  31.5 0 0  32.25 0 0  33 0 0  33.75 0 0  34.5 0 0  35.25 0 0  36 0 0  36.75 0 0  37.5 0 0  38.25 0 0  39 0 0  39.75 0 0  40.5 0 0  41.25 0 0  42 0 0  42.75 0 0  43.5 0 0  44.25 0 0  45 0 0  45.75 0 0  46.5 0 0  47.25 0 0  48 0 0  48.75 0 0  49.5 0 0  50.25 0 0  51 0 0  51.75 0 0  52.5 0 0  53.25 0 0  54 0 0  54.75 0 0  55.5 0 0  56.25 0 0  57 0 0  57.75 0 0  58.5 0 0  59.25 0 0  60 0 0  0 0.5 0  0.75 0.5 0  1.5 0.5 0  2.25 0.5 0  3 0.5 0  3.75 0.5 0  4.5 0.5 0  5.25 0.5 0  6 0.5 0  6.75 0.5 0  7.5 0.5 0  8.25 0.5 0  9 0.5 0  9.75 0.5 0  10.5 0.5 0  11.25 0.5 0  12 0.5 0  12.75 0.5 0  13.5 0.5 0  14.25 0.5 0  15 0.5 0  15.75 0.5 0  16.5 0.5 0  17.25 0.5 0  18 0.5 0  18.75 0.5 0  19.5 0.5 0  20.25 0.5 0  21 0.5 0  21.75 0.5 0  22.5 0.5 0  23.25 0.5 0  24 0.5 0  24.75 0.5 0  25.5 0.5 0  26.25 0.5 0  27 0.5 0  27.75 0.5 0  28.5 0.5 0  29.25 0.5 0  30 0.5 0  30.75 0.5 0  31.5 0.5 0  32.25 0.5 0  33 0.5 0  33.75 0.5 0  34.5 0.5 0  35.25 0.5 0  36 0.5 0  36.75 0.5 0  37.5 0.5 0  38.25 0.5 0  39 0.5 0  39.75 0.5 0  40.5 0.5 0  41.25 0.5 0  42 0.5 0  42.75 0.5 0  43.5 0.5 0  44.25 0.5 0  45 0.5 0  45.75 0.5 0  46.5 0.5 0  47.25 0.5 0  48 0.5 0  48.75 0.5 0  49.5 0.5 0  50.25 0.5 0  51 0.5 0  51.75 0.5 0  52.5 0.5 0  53.25 0.5 0  54 0.5 0  54.75 0.5 0  55.5 0.5 0  56.25 0.5 0  57 0.5 0  57.75 0.5 0  58.5 0.5 0  59.25 0.5 0  60 0.5 0  0 1 0  0.75 1 0  1.5 1 0  2.25 1 0  3 1 0  3.75 1 0  4.5 1 0  5.25 1 0  6 1 0  6.75 1 0  7.5 1 0  8.25 1 0  9 1 0  9.75 1 0  10.5 1 0  11.25 1 0  12 1 0  12.75 1 0  13.5 1 0  14.25 1 0  15 1 0  15.75 1 0  16.5 1 0  17.25 1 0  18 1 0  18.75 1 0  19.5 1 0  20.25 1 0  21 1 0  21.75 1 0  22.5 1 0  23.25 1 0  24 1 0  24.75 1 0  25.5 1 0  26.25 1 0  27 1 0  27.75 1 0  28.5 1 0  29.25 1 0  30 1 0  30.75 1 0  31.5 1 0  32.25 1 0  33 1 0  33.75 1 0  34.5 1 0  35.25 1 0  36 1 0  36.75 1 0  37.5 1 0  38.25 1 0  39 1 0  39.75 1 0  40.5 1 0  41.25 1 0  42 1 0  42.75 1 0  43.5 1 0  44.25 1 0  45 1 0  45.75 1 0  46.5 1 0  47.25 1 0  48 1 0  48.75 1 0  49.5 1 0  50.25 1 0  51 1 0  51.75 1 0  52.5 1 0  53.25 1 0  54 1 0  54.75 1 0  55.5 1 0  56.25 1 0  57 1 0  57.75 1 0  58.5 1 0  59.25 1 0  60 1 0  0 1.5 0  0.75 1.5 0  1.5 1.5 0  2.25 1.5 0  3 1.5 0  3.75 1.5 0  4.5 1.5 0  5.25 1.5 0  6 1.5 0  6.75 1.5 0  7.5 1.5 0  8.25 1.5 0  9 1.5 0  9.75 1.5 0  10.5 1.5 0  11.25 1.5 0  12 1.5 0  12.75 1.5 0  13.5 1.5 0  14.25 1.5 0  15 1.5 0  15.75 1.5 0  16.5 1.5 0  17.25 1.5 0  18 1.5 0  18.75 1.5 0  19.5 1.5 0  20.25 1.5 0  21 1.5 0  21.75 1.5 0  22.5 1.5 0  23.25 1.5 0  24 1.5 0  24.75 1.5 0  25.5 1.5 0  26.25 1.5 0  27 1.5 0  27.75 1.5 0  28.5 1.5 0  29.25 1.5 0  30 1.5 0  30.75 1.5 0  31.5 1.5 0  32.25 1.5 0  33 1.5 0  33.75 1.5 0  34.5 1.5 0  35.25 1.5 0  36 1.5 0  36.75 1.5 0  37.5 1.5 0  38.25 1.5 0  39 1.5 0  39.75 1.5 0  40.5 1.5 0  41.25 1.5 0  42 1.5 0  42.75 1.5 0  43.5 1.5 0  44.25 1.5 0  45 1.5 0  45.75 1.5 0  46.5 1.5 0  47.25 1.5 0  48 1.5 0  48.75 1.5 0  49.5 1.5 0  50.25 1.5 0  51 1.5 0  51.75 1.5 0  52.5 1.5 0  53.25 1.5 0  54 1.5 0  54.75 1.5 0  55.5 1.5 0  56.25 1.5 0  57 1.5 0  57.75 1.5 0  58.5 1.5 0  59.25 1.5 0  60 1.5 0  0 2 0  0.75 2 0  1.5 2 0  2.25 2 0  3 2 0  3.75 2 0  4.5 2 0  5.25 2 0  6 2 0  6.75 2 0  7.5 2 0  8.25 2 0  9 2 0  9.75 2 0  10.5 2 0  11.25 2 0  12 2 0  12.75 2 0  13.5 2 0  14.25 2 0  15 2 0  15.75 2 0  16.5 2 0  17.25 2 0  18 2 0  18.75 2 0  19.5 2 0  20.25 2 0  21 2 0  21.75 2 0  22.5 2 0  23.25 2 0  24 2 0  24.75 2 0  25.5 2 0  26.25 2 0  27 2 0  27.75 2 0  28.5 2 0  29.25 2 0  30 2 0  30.75 2 0  31.5 2 0  32.25 2 0  33 2 0  33.75 2 0  34.5 2 0  35.25 2 0  36 2 0  36.75 2 0  37.5 2 0  38.25 2 0  39 2 0  39.75 2 0  40.5 2 0  41.25 2 0  42 2 0  42.75 2 0  43.5 2 0  44.25 2 0  45 2 0  45.75 2 0  46.5 2 0  47.25 2 0  48 2 0  48.75 2 0  49.5 2 0  50.25 2 0  51 2 0  51.75 2 0  52.5 2 0  53.25 2 0  54 2 0  54.75 2 0  55.5 2 0  56.25 2 0  57 2 0  57.75 2 0  58.5 2 0  59.25 2 0  60 2 0  0 2.5 0  0.75 2.5 0  1.5 2.5 0  2.25 2.5 0  3 2.5 0  3.75 2.5 0  4.5 2.5 0  5.25 2.5 0  6 2.5 0  6.75 2.5 0  7.5 2.5 0  8.25 2.5 0  9 2.5 0  9.75 2.5 0  10.5 2.5 0  11.25 2.5 0  12 2.5 0  12.75 2.5 0  13.5 2.5 0  14.25 2.5 0  15 2.5 0  15.75 2.5 0  16.5 2.5 0  17.25 2.5 0  18 2.5 0  18.75 2.5 0  19.5 2.5 0  20.25 2.5 0  21 2.5 0  21.75 2.5 0  22.5 2.5 0  23.25 2.5 0  24 2.5 0  24.75 2.5 0  25.5 2.5 0  26.25 2.5 0  27 2.5 0  27.75 2.5 0  28.5 2.5 0  29.25 2.5 0  30 2.5 0  30.75 2.5 0  31.5 2.5 0  32.25 2.5 0  33 2.5 0  33.75 2.5 0  34.5 2.5 0  35.25 2.5 0  36 2.5 0  36.75 2.5 0  37.5 2.5 0  38.25 2.5 0  39 2.5 0  39.75 2.5 0  40.5 2.5 0  41.25 2.5 0  42 2.5 0  42.75 2.5 0  43.5 2.5 0  44.25 2.5 0  45 2.5 0  45.75 2.5 0  46.5 2.5 0  47.25 2.5 0  48 2.5 0  48.75 2.5 0  49.5 2.5 0  50.25 2.5 0  51 2.5 0  51.75 2.5 0  52.5 2.5 0  53.25 2.5 0  54 2.5 0  54.75 2.5 0  55.5 2.5 0  56.25 2.5 0  57 2.5 0  57.75 2.5 0  58.5 2.5 0  59.25 2.5 0  60 2.5 0  0 3 0  0.75 3 0  1.5 3 0  2.25 3 0  3 3 0  3.75 3 0  4.5 3 0  5.25 3 0  6 3 0  6.75 3 0  7.5 3 0  8.25 3 0  9 3 0  9.75 3 0  10.5 3 0  11.25 3 0  12 3 0  12.75 3 0  13.5 3 0  14.25 3 0  15 3 0  15.75 3 0  16.5 3 0  17.25 3 0  18 3 0  18.75 3 0  19.5 3 0  20.25 3 0  21 3 0  21.75 3 0  22.5 3 0  23.25 3 0  24 3 0  24.75 3 0  25.5 3 0  26.25 3 0  27 3 0  27.75 3 0  28.5 3 0  29.25 3 0  30 3 0  30.75 3 0  31.5 3 0  32.25 3 0  33 3 0  33.75 3 0  34.5 3 0  35.25 3 0  36 3 0  36.75 3 0  37.5 3 0  38.25 3 0  39 3 0  39.75 3 0  40.5 3 0  41.25 3 0  42 3 0  42.75 3 0  43.5 3 0  44.25 3 0  45 3 0  45.75 3 0  46.5 3 0  47.25 3 0  48 3 0  48.75 3 0  49.5 3 0  50.25 3 0  51 3 0  51.75 3 0  52.5 3 0  53.25 3 0  54 3 0  54.75 3 0  55.5 3 0  56.25 3 0  57 3 0  57.75 3 0  58.5 3 0  59.25 3 0  60 3 0  0 3.5 0  0.75 3.5 0  1.5 3.5 0  2.25 3.5 0  3 3.5 0  3.75 3.5 0  4.5 3.5 0  5.25 3.5 0  6 3.5 0  6.75 3.5 0  7.5 3.5 0  8.25 3.5 0  9 3.5 0  9.75 3.5 0  10.5 3.5 0  11.25 3.5 0  12 3.5 0  12.75 3.5 0  13.5 3.5 0  14.25 3.5 0  15 3.5 0  15.75 3.5 0  16.5 3.5 0  17.25 3.5 0  18 3.5 0  18.75 3.5 0  19.5 3.5 0  20.25 3.5 0  21 3.5 0  21.75 3.5 0  22.5 3.5 0  23.25 3.5 0  24 3.5 0  24.75 3.5 0  25.5 3.5 0  26.25 3.5 0  27 3.5 0  27.75 3.5 0  28.5 3.5 0  29.25 3.5 0  30 3.5 0  30.75 3.5 0  31.5 3.5 0  32.25 3.5 0  33 3.5 0  33.75 3.5 0  34.5 3.5 0  35.25 3.5 0  36 3.5 0  36.75 3.5 0  37.5 3.5 0  38.25 3.5 0  39 3.5 0  39.75 3.5 0  40.5 3.5 0  41.25 3.5 0  42 3.5 0  42.75 3.5 0  43.5 3.5 0  44.25 3.5 0  45 3.5 0  45.75 3.5 0  46.5 3.5 0  47.25 3.5 0  48 3.5 0  48.75 3.5 0  49.5 3.5 0  50.25 3.5 0  51 3.5 0  51.75 3.5 0  52.5 3.5 0  53.25 3.5 0  54 3.5 0  54.75 3.5 0  55.5 3.5 0  56.25 3.5 0  57 3.5 0  57.75 3.5 0  58.5 3.5 0  59.25 3.5 0  60 3.5 0  0 4 0  0.75 4 0  1.5 4 0  2.25 4 0  3 4 0  3.75 4 0  4.5 4 0  5.25 4 0  6 4 0  6.75 4 0  7.5 4 0  8.25 4 0  9 4 0  9.75 4 0  10.5 4 0  11.25 4 0  12 4 0  12.75 4 0  13.5 4 0  14.25 4 0  15 4 0  15.75 4 0  16.5 4 0  17.25 4 0  18 4 0  18.75 4 0  19.5 4 0  20.25 4 0  21 4 0  21.75 4 0  22.5 4 0  23.25 4 0  24 4 0  24.75 4 0  25.5 4 0  26.25 4 0  27 4 0  27.75 4 0  28.5 4 0  29.25 4 0  30 4 0  30.75 4 0  31.5 4 0  32.25 4 0  33 4 0  33.75 4 0  34.5 4 0  35.25 4 0  36 4 0  36.75 4 0  37.5 4 0  38.25 4 0  39 4 0  39.75 4 0  40.5 4 0  41.25 4 0  42 4 0  42.75 4 0  43.5 4 0  44.25 4 0  45 4 0  45.75 4 0  46.5 4 0  47.25 4 0  48 4 0  48.75 4 0  49.5 4 0  50.25 4 0  51 4 0  51.75 4 0  52.5 4 0  53.25 4 0  54 4 0  54.75 4 0  55.5 4 0  56.25 4 0  57 4 0  57.75 4 0  58.5 4 0  59.25 4 0  60 4 0  0.375 0.25 0  1.125 0.25 0  1.875 0.25 0  2.625 0.25 0  3.375 0.25 0  4.125 0.25 0  4.875 0.25 0  5.625 0.25 0  6.375 0.25 0  7.125 0.25 0  7.875 0.25 0  8.625 0.25 0  9.375 0.25 0  10.125 0.25 0  10.875 0.25 0  11.625 0.25 0  12.375 0.25 0  13.125 0.25 0  13.875 0.25 0  14.625 0.25 0  15.375 0.25 0  16.125 0.25 0  16.875 0.25 0  17.625 0.25 0  18.375 0.25 0  19.125 0.25 0  19.875 0.25 0  20.625 0.25 0  21.375 0.25 0  22.125 0.25 0  22.875 0.25 0  23.625 0.25 0  24.375 0.25 0  25.125 0.25 0  25.875 0.25 0  26.625 0.25 0  27.375 0.25 0  28.125 0.25 0  28.875 0.25 0  29.625 0.25 0  30.375 0.25 0  31.125 0.25 0  31.875 0.25 0  32.625 0.25 0  33.375 0.25 0  34.125 0.25 0  34.875 0.25 0  35.625 0.25 0  36.375 0.25 0  37.125 0.25 0  37.875 0.25 0  38.625 0.25 0  39.375 0.25 0  40.125 0.25 0  40.875 0.25 0  41.625 0.25 0  42.375 0.25 0  43.125 0.25 0  43.875 0.25 0  44.625 0.25 0  45.375 0.25 0  46.125 0.25 0  46.875 0.25 0  47.625 0.25 0  48.375 0.25 0  49.125 0.25 0  49.875 0.25 0  50.625 0.25 0  51.375 0.25 0  52.125 0.25 0  52.875 0.25 0  53.625 0.25 0  54.375 0.25 0  55.125 0.25 0  55.875 0.25 0  56.625 0.25 0  57.375 0.25 0  58.125 0.25 0  58.875 0.25 0  59.625 0.25 0  0.375 0.75 0  1.125 0.75 0  1.875 0.75 0  2.625 0.75 0  3.375 0.75 0  4.125 0.75 0  4.875 0.75 0  5.625 0.75 0  6.375 0.75 0  7.125 0.75 0  7.875 0.75 0  8.625 0.75 0  9.375 0.75 0  10.125 0.75 0  10.875 0.75 0  11.625 0.75 0  12.375 0.75 0  13.125 0.75 0  13.875 0.75 0  14.625 0.75 0  15.375 0.75 0  16.125 0.75 0  16.875 0.75 0  17.625 0.75 0  18.375 0.75 0  19.125 0.75 0  19.875 0.75 0  20.625 0.75 0  21.375 0.75 0  22.125 0.75 0  22.875 0.75 0  23.625 0.75 0  24.375 0.75 0  25.125 0.75 0  25.875 0.75 0  26.625 0.75 0  27.375 0.75 0  28.125 0.75 0  28.875 0.75 0  29.625 0.75 0  30.375 0.75 0  31.125 0.75 0  31.875 0.75 0  32.625 0.75 0  33.375 0.75 0  34.125 0.75 0  34.875 0.75 0  35.625 0.75 0  36.375 0.75 0  37.125 0.75 0  37.875 0.75 0  38.625 0.75 0  39.375 0.75 0  40.125 0.75 0  40
[...]
<PointData  Scalars="f_8-1"> 
<DataArray  type="Float64"  Name="f_8-1"  format="ascii">9.7051036473982002e+00  9.5866973295812912e+00  9.4650825104687062e+00  9.3437834452946120e+00  9.2224412676022318e+00  9.1011026495936402e+00  8.9797633500383593e+00  8.8584241991494128e+00  8.7370851804398928e+00  8.6157462753606122e+00  8.4944074472727618e+00  8.3730686676224302e+00  8.2517299172720016e+00  8.1303911847821730e+00  8.0090524636230143e+00  7.8877137502646288e+00  7.7663750428264029e+00  7.6450363403468904e+00  7.5236976423318067e+00  7.4023589485360803e+00  7.2810202588351887e+00  7.1596815731679140e+00  7.0383428915031825e+00  6.9170042138254058e+00  6.7956655401266408e+00  6.6743268704027354e+00  6.5529882046516175e+00  6.4316495428720666e+00  6.3103108850634770e+00  6.1889722312255087e+00  6.0676335813578994e+00  5.9462949354605881e+00  5.8249562935334049e+00  5.7036176555765481e+00  5.5822790215894953e+00  5.4609403915730255e+00  5.3396017655258170e+00  5.2182631434500042e+00  5.0969245253420192e+00  4.9755859112075482e+00  4.8542473010374412e+00  4.7329086948460848e+00  4.6115700926108047e+00  4.4902314943663955e+00  4.3688929000592935e+00  4.2475543097698525e+00  4.1262157233772978e+00  4.0048771410579223e+00  3.8835385625535639e+00  3.7621999882290456e+00  3.6408614175644369e+00  3.5195228512652936e+00  3.3981842883534013e+00  3.2768457300815448e+00  3.1555071747567296e+00  3.0341686243355253e+00  2.9128300762115757e+00  2.7914915327122256e+00  2.6701529906241235e+00  2.5488144504688353e+00  2.4274759110156938e+00  2.3061373639053175e+00  2.1847988205552942e+00  2.0634602369252160e+00  1.9421216326610451e+00  1.8207827117992097e+00  1.6994431324057246e+00  1.5781011495188784e+00  1.4567547396096556e+00  1.3353991601988782e+00  1.2140335379187717e+00  1.0926568486347410e+00  9.7128238986344095e-01  8.4991149409367273e-01  7.2856947343960576e-01  6.0724217227794430e-01  4.8601684121894134e-01  3.6473772836835805e-01  2.4380991316814468e-01  1.2134828262429477e-01  2.3218051291800535e-03  9.7086012834649544e+00  9.5861985015725786e+00  9.4650545666259536e+00  9.3437055500599815e+00  9.2223705342095936e+00  9.1010317076628553e+00  8.9796926760362172e+00  8.8583536173099571e+00  8.7370146532223742e+00  8.6156757785732818e+00  8.4943369674372793e+00  8.3729981971451046e+00  8.2516594517742750e+00  8.1303207219607678e+00  8.0089820021695264e+00  7.8876432895276256e+00  7.7663045824393668e+00  7.6449658801422595e+00  7.5236271822127874e+00  7.4022884884629994e+00  7.2809497987830918e+00  7.1596111131281823e+00  7.0382724314693208e+00  6.9169337537958100e+00  6.7955950800995693e+00  6.6742564103780051e+00  6.5529177446287470e+00  6.4315790828510782e+00  6.3102404250442827e+00  6.1889017712080561e+00  6.0675631213422996e+00  5.9462244754466083e+00  5.8248858335214830e+00  5.7035471955659416e+00  5.5822085615814272e+00  5.4608699315655089e+00  5.3395313055220743e+00  5.2181926834448689e+00  5.0968540653436838e+00  4.9755154512032078e+00  4.8541768410468915e+00  4.7328382348391509e+00  4.6114996326329036e+00  4.4901610343501686e+00  4.3688224401031936e+00  4.2474838497324168e+00  4.1261452634583327e+00  4.0048066809808827e+00  3.8834681026930178e+00  3.7621295280909290e+00  3.6407909577803887e+00  3.5194523910606721e+00  3.3981138286243500e+00  3.2767752698831600e+00  3.1554367149146589e+00  3.0340981644579728e+00  2.9127596156705993e+00  2.7914210740899583e+00  2.6700825277304787e+00  2.5487439954817952e+00  2.4274054414274082e+00  2.3060669184898410e+00  2.1847283337165515e+00  2.0633898187400508e+00  1.9420511082519296e+00  1.8207123704987196e+00  1.6993724936769465e+00  1.5780308415242572e+00  1.4566833525320244e+00  1.3353279953819741e+00  1.2139592600165126e+00  1.0925838649403641e+00  9.7120525534836000e-01  8.4984324571409464e-01  7.2849199004089760e-01  6.0718632464115663e-01  4.8592056830571984e-01  3.6471936629793983e-01  2.4348931554545841e-01  1.2180328744498407e-01  -5.4694045376157529e-04  9.7081851585279750e+00  9.5864429645578504e+00  9.4650119079268009e+00  9.3436596467638608e+00  9.2223141184411404e+00  9.1009726603186500e+00  8.9796325957014655e+00  8.8582931843783204e+00  8.7369540924520663e+00  8.6156151705565343e+00  8.4942763409628483e+00  8.3729375628646761e+00  8.2515988139437884e+00  8.1302600824254103e+00  8.0089213617917174e+00  7.8875826487254272e+00  7.7662439414227418e+00  7.6449052390186933e+00  7.5235665410369208e+00  7.4022278472630401e+00  7.2808891575726227e+00  7.1595504719142289e+00  7.0382117902548078e+00  6.9168731125823486e+00  6.7955344388875840e+00  6.6741957691678913e+00  6.5528571034203962e+00  6.4315184416446458e+00  6.3101797838395219e+00  6.1888411300052608e+00  6.0675024801409014e+00  5.9461638342475434e+00  5.8248251923231447e+00  5.7034865543708735e+00  5.5821479203854985e+00  5.4608092903753640e+00  5.3394706643270959e+00  5.2181320422617956e+00  5.0967934241464965e+00  4.9754548100318852e+00  4.8541161998409299e+00  4.7327775936888150e+00  4.6114389914057847e+00  4.4901003932373387e+00  4.3687617988344707e+00  4.2474232086820773e+00  4.1260846221209606e+00  4.0047460400200467e+00  3.8834074612691194e+00  3.7620688872170862e+00  3.6407303163181650e+00  3.5193917501418945e+00  3.3980531873980593e+00  3.2767146283910709e+00  3.1553760748147650e+00  3.0340375208291825e+00  2.9126989790469628e+00  2.7913604243157106e+00  2.6700219000967635e+00  2.5486833299725586e+00  2.4273448349297446e+00  2.3060062133471741e+00  2.1846677707295417e+00  2.0633289978753417e+00  1.9419905849486654e+00  1.8206511268811048e+00  1.6993117551938970e+00  1.5779682201457890e+00  1.4566218455679727e+00  1.3352628457657780e+00  1.2138980712332996e+00  1.0925170854195592e+00  9.7115118737823025e-01  8.4977886221010024e-01  7.2845072184738402e-01  6.0710982479552045e-01  4.8587350166243326e-01  3.6453542703224012e-01  2.4333621697794264e-01  1.2142884335668003e-01  1.9222244713896667e-04  9.7081941685481414e+00  9.5865634511111892e+00  9.4650863519302870e+00  9.3436979282949792e+00  9.2223409802898946e+00  9.1009951981704127e+00  8.9796535934082158e+00  8.8583136090342212e+00  8.7369742955439840e+00  8.6156352814800847e+00  8.4942964108038232e+00  8.3729576131499641e+00  8.2516188545913263e+00  8.1302801181388418e+00  8.0089413949964232e+00  7.8876026806331581e+00  7.7662639726852563e+00  7.6449252699530454e+00  7.5235865718152635e+00  7.4022478779637062e+00  7.2809091882389838e+00  7.1595705025639598e+00  7.0382318208982317e+00  6.9168931432228620e+00  6.7955544695275245e+00  6.6742157998075360e+00  6.5528771340603145e+00  6.4315384722845259e+00  6.3101998144797999e+00  6.1888611606451196e+00  6.0675225107815089e+00  5.9461838648868524e+00  5.8248452229644050e+00  5.7035065850087046e+00  5.5821679510285396e+00  5.4608293210097782e+00  5.3394906949747769e+00  5.2181520728884614e+00  5.0968134548051189e+00  4.9754748406418363e+00  4.8541362305232996e+00  4.7327976242648324e+00  4.6114590221351381e+00  4.4901204237502057e+00  4.3687818296471299e+00  4.2474432390915480e+00  4.1261046530590901e+00  4.0047660702942585e+00  3.8834274923404570e+00  3.7620889174065604e+00  3.6407503473648983e+00  3.5194117805912617e+00  3.3980732177414041e+00  3.2767346602618495e+00  3.1553961023921011e+00  3.0340575572459416e+00  2.9127189984717536e+00  2.7913804726705549e+00  2.6700418983301137e+00  2.5487034064959850e+00  2.4273647799405946e+00  2.3060263491684845e+00  2.1846875661855627e+00  2.0633492024615858e+00  1.9420098426179686e+00  1.8206710780196871e+00  1.6993290827777228e+00  1.5779868110333375e+00  1.4566349502885361e+00  1.3352811977894026e+00  1.2139091785320542e+00  1.0925459858222744e+00  9.7116502839000396e-01  8.4982652992402841e-01  7.2845721059243651e-01  6.0718268200979320e-01  4.8582126001462278e-01  3.6460432371238805e-01  2.4307808689716273e-01  1.2167130177838900e-01  -9.4624815059421167e-05  9.7081933433020442e+00  9.5866027619431176e+00  9.4651163150187720e+00  9.3437159393048734e+00  9.2223540687816730e+00  9.1010065274912844e+00  8.9796642846202541e+00  8.8583240652897750e+00  8.7369846615048488e+00  8.6156456104007813e+00  8.4943067234404825e+00  8.3729679181544725e+00  8.2516291558843928e+00  8.1302904175702135e+00  8.0089516934981742e+00  7.8876129786685230e+00  7.7662742704958587e+00  7.6449355676558239e+00  7.5235968694706541e+00  7.4022581755986829e+00  7.2809194858671287e+00  7.1595808001903452e+00  7.0382421185252886e+00  6.9169034408510388e+00  6.7955647671569306e+00  6.6742260974379501e+00  6.5528874316914019e+00  6.4315487699163434e+00  6.3102101121116423e+00  6.1888714582778119e+00  6.0675328084133593e+00  5.9461941625204622e+00  5.8248555205953068e+00  5.7035168826440881e+00  5.5821782486567377e+00  5.4608396186494028e+00  5.3395009925964265e+00  5.2181623705380158e+00  5.0968237524119102e+00  4.9754851383132230e+00  4.8541465280988643e+00  4.7328079219806281e+00  4.6114693196502481e+00  4.4901307215480237e+00  4.3687921270578034e+00  4.2474535370213786e+00  4.1261149503192005e+00  4.0047763683893995e+00  3.8834377894607042e+00  3.7620992155780564e+00  3.6407606445942471e+00  3.5194220783300190e+00  3.3980835160383216e+00  3.2767449559016391e+00  3.1554064045130770e+00  3.0340678463084503e+00  2.9127293112744104e+00  2.7913907443165660e+00  2.6700522375699487e+00  2.5487136354170974e+00  2.4273751806686739e+00  2.3060364731420462e+00  2.1846980997141419e+00  2.0633590448827457e+00  1.9420206006347105e+00  1.8206800932304155e+00  1.6993400627568587e+00  1.5779936953423457e+00  1.4566465554817545e+00  1.3352846899732269e+00  1.2139254170862623e+00  1.0925462970229523e+00  9.7119347646958309e-01  8.4981704413168935e-01  7.2850654945246418e-01  6.0714691863109704e-01  4.8589679042556283e-01  3.6450268175950468e-01  2.4316558913615982e-01  1.2155843480751288e-01  4.7659777882023558e-05  9.7081941666261660e+00  9.5865633705422173e+00  9.4650862708377517e+00  9.3436978669195252e+00  9.2223409345565042e+00  9.1009951631932289e+00  8.9796535656570065e+00  8.8583135860467834e+00  8.7369742756601330e+00  8.6156352636101765e+00  8.4942963942435128e+00  8.3729575974451205e+00  8.2516188394477918e+00  8.1302801033651804e+00  8.0089413804674194e+00  7.8876026662666199e+00  7.7662639584269826e+00  7.6449252557671805e+00  7.5235865576779766e+00  7.4022478638591371e+00  7.2809091741564895e+00  7.1595704884964153e+00  7.0382318068408471e+00  6.9168931291723439e+00  6.7955544554816951e+00  6.6742157857648889e+00  6.5528771200198612e+00  6.4315384582455390e+00  6.3101998004418167e+00  6.1888611466078443e+00  6.0675224967447114e+00  5.9461838508503915e+00  5.8248452089281537e+00  5.7035065709726336e+00  5.5821679369925787e+00  5.4608293069739462e+00  5.3394906809390621e+00  5.2181520588528585e+00  5.0968134407696848e+00  4.9754748266066082e+00  4.8541362164883628e+00  4.7327976102303113e+00  4.6114590081012308e+00  4.4901204097172087e+00  4.3687818156154243e+00  4.2474432250617600e+00  4.1261046390321061e+00  4.0047660562713974e+00  3.8834274783235663e+00  3.7620889033984692e+00  3.6407503333695503e+00  3.5194117666146552e+00  3.3980732037918475e+00  3.2767346463518954e+00  3.1553960885391032e+00  3.0340575434759280e+00  2.9127189848203621e+00  2.7913804591910858e+00  2.6700418850945749e+00  2.5487033936112633e+00  2.4273647675474095e+00  2.3060263374667955e+00  2.1846875554103433e+00  2.0633491928836478e+00  1.9420098343840295e+00  1.8206710709988423e+00  1.6993290760836259e+00  1.5779868029279178e+00  1.4566349381782771e+00  1.3352811799050595e+00  1.2139091547608494e+00  1.0925459581420764e+00  9.7116499631309650e-01  8.4982649438019109e-01  7.2845717585233394e-01  6.0718265930225324e-01  4.8582125112687669e-01  3.6460433958998884e-01  2.4307810332924179e-01  1.2167131005821415e-01  -9.4629146071571415e-05  9.7081851465197815e+00  9.5864427636286056e+00  9.4650117397873021e+00  9.3436595254151094e+00  9.2223140267866341e+00  9.1009725889921835e+00  8.9796325379307760e+00  8.8582931355373784e+00  8.7369540494259592e+00  8.6156151313031373e+00  8.4942763041629306e+00  8.3729375276675899e+00  8.2515987797984884e+00  8.1302600489731383e+00  8.0089213287979284e+00  7.8875826160360747e+00  7.7662439089363478e+00  7.6449052066680840e+00  7.5235665087774803e+00  7.4022278150649630e+00  7.2808891254160057e+00  7.1595504397856722e+00  7.0382117581452830e+00  6.9168730804857521e+00  6.7955344067997947e+00  6.6741957370860669e+00  6.5528570713426531e+00  6.4315184095696845e+00  6.3101797517664693e+00  6.1888410979334960e+00  6.0675024480700559e+00  5.9461638021773036e+00  5.8248251602533436e+00  5.7034865223013789e+00  5.5821478883162392e+00  5.4608092583063206e+00  5.3394706322582834e+00  5.2181320101931812e+00  5.0967933920781689e+00  4.9754547779639475e+00  4.8541161677735341e+00  4.7327775616222008e+00  4.6114389593402887e+00  4.4901003611734609e+00  4.3687617667730017e+00  4.2474231766241077e+00  4.1260845900681593e+00  4.0047460079747506e+00  3.8834074292348260e+00  3.7620688551988244e+00  3.6407302843234510e+00  3.5193917181813088e+00  3.3980531554874460e+00  3.2767145965526185e+00  3.1553760430816640e+00  3.0340374892474453e+00  2.9126989476850293e+00  2.7913603932676243e+00  2.6700218695017441e+00  2.5486833000193325e+00  2.4273448058933154e+00  2.3060061855837919e+00  2.1846677447172076e+00  2.0633289741108500e+00  1.9419905638449459e+00  1.8206511082283656e+00  1.6993117376415878e+00  1.5779682002771149e+00  1.4566218185664848e+00  1.3352628071802040e+00  1.2138980210404315e+00  1.0925170263951458e+00  9.7115112067785403e-01  8.4977878545274232e-01  7.2845064839536433e-01  6.0710976924059501e-01  4.8587348394349783e-01  3.6453544665407661e-01  2.4333627210571410e-01  1.2142883003979785e-01  1.9223442660466482e-04  9.7086013055354545e+00  9.5861980460668512e+00  9.4650543481955776e+00  9.3437053735682660e+00  9.2223703964971619e+00  9.1010315945473934e+00  8.9796925793724345e+00  8.8583535314863457e+00  8.7370145744804617e+00  8.6156757044351799e+00  8.4943368962933281e+00  8.3729981279545243e+00  8.2516593838631831e+00  8.1303206548912357e+00  8.0089819356558145e+00  7.8876432233824776e+00  7.7663045165395772e+00  7.6449658144064436e+00  7.5236271165869244e+00  7.4022884229111030e+00  7.2809497332811208e+00  7.1596110476599861e+00  7.0382723660240076e+00  6.9169336883660373e+00  6.7955950146803730e+00  6.6742563449660075e+00  6.5529176792216584e+00  6.4315790174473131e+00  6.3102403596428136e+00  6.1889017058081350e+00  6.0675630559434683e+00  5.9462244100485453e+00  5.8248857681239299e+00  5.7035471301687561e+00  5.5822084961845322e+00  5.4608698661688626e+00  5.3395312401256794e+00  5.2181926180487377e+00  5.0968539999478963e+00  4.9755153858078920e+00  4.8541767756522365e+00  4.7328381694454231e+00  4.6114995672405268e+00  4.4901609689597670e+00  4.3688223747156707e+00  4.2474837843491295e+00  4.1261451980812405e+00  4.0048066156128597e+00  3.8834680373382340e+00  3.7621294627555115e+00  3.6407908924732495e+00  3.5194523257947927e+00  3.3981137634185044e+00  3.2767752047646432e+00  3.1554366499227777e+00  3.0340980996493796e+00  2.9127595511264448e+00  2.7914210099264749e+00  2.6700824641127308e+00  2.5487439326438541e+00  2.4274053796947634e+00  2.3060668583051447e+00  2.1847282756410493e+00  2.0633897634035883e+00  1.9420510561369697e+00  1.8207123214966463e+00  1.6993724462844970e+00  1.5780307921365562e+00  1.4566832954936415e+00  1.3353279253088957e+00  1.2139591749541101e+00  1.0925837670490803e+00  9.7120514541322522e-01  8.4984312434775233e-01  7.2849186942402855e-01  6.0718622723942473e-01  4.8592051855135376e-01  3.6471937405179095e-01  2.4348938090376052e-01  1.2180326255648199e-01  -5.4697688538091335e-04  9.7051011506703695e+00  9.5866972292782684e+00  9.4650822283467395e+00  9.3437832404045622e+00  9.2224410948795121e+00  9.1011025006099349e+00  8.9797632167239598e+00  8.8584240762190110e+00  8.7370850643061537e+00  8.6157461636474384e+00  8.4944073384321914e+00  8.3730685606531736e+00  8.2517298115264062e+00  8.1303910798399333e+00  8.0090523592103118e+00  7.8877136462023323e+00  7.7663749389969086e+00  7.6450362366726798e+00  7.5236975387615281e+00  7.4023588450356286e+00  7.2810201553817908e+00  7.1596814697463271e+00  7.0383427881031020e+00  6.9170041104399393e+00  6.7956654367511131e+00  6.6743267670339721e+00  6.5529881012874558e+00  6.4316494395110446e+00  6.3103107817046045e+00  6.1889721278681114e+00  6.0676334780015164e+00  5.9462948321049298e+00  5.8249561901782290e+00  5.7036175522217292e+00  5.5822789182349579e+00  5.4609402882187261e+00  5.3396016621717566e+00  5.2182630400962120e+00  5.0969244219885814e+00  4.9755858078546025e+00  4.8542471976851900e+00  4.7329085914947822e+00  4.6115699892609134e+00  4.4902313910185407e+00  4.3688927967144444e+00  4.2475542064294034e+00  4.1262156200432871e+00  4.0048770377333174e+00  3.8835384592427502e+00  3.7621998849383016e+00  3.6408613143031507e+00  3.5195227480467834e+00  3.3981841851974304e+00  3.2768456270161561e+00  3.1555070718232892e+00  3.0341685215923557e+00  2.9128299737440617e+00  2.7914914306402818e+00  2.6701528891215118e+00  2.5488143497773428e+00  2.4274758114778923e+00  2.3061372659777772e+00  2.1847987248293022e+00  2.0634601440493783e+00  1.9421215431701750e+00  1.8207826256262434e+00  1.6994430482078728e+00  1.5781010638911022e+00  1.4567546472557331e+00  1.3353990556137314e+00  1.2140334183763331e+00  1.0926567144442769e+00  9.7128224175747047e-01  8.4991133282832176e-01  7.2856931182950924e-01  6.0724202675618821e-01  4.8601675418364698e-01  3.6473766781460809e-01  2.4381002727852355e-01  1.2134795022775811e-01  2.3228967000990678e-03  9.6467766793300456e+00  9.5254940131594790e+00  9.4041444397770189e+00  9.2828115050069222e+00  9.1614733146210465e+00  9.0401344551712270e+00  8.9187953753934863e+00  8.7974563517124764e+00  8.6761174229349809e+00  8.5547785742695588e+00  8.4334397801990750e+00  8.3121010205204602e+00  8.1907622818961343e+00  8.0694235565497223e+00  7.9480848400465716e+00  7.8267461300443744e+00  7.7054074252838172e+00  7.5840687251427923e+00  7.4627300292918219e+00  7.3413913375759936e+00  7.2200526499111213e+00  7.0987139662595125e+00  6.9773752865992407e+00  6.8560366109210538e+00  6.7346979392188846e+00  6.6133592714904337e+00  6.4920206077338962e+00  6.3706819479486603e+00  6.2493432921341405e+00  6.1280046402901274e+00  6.0066659924164378e+00  5.8853273485129387e+00  5.7639887085797259e+00  5.6426500726164788e+00  5.5213114406235997e+00  5.3999728126003461e+00  5.2786341885479109e+00  5.1572955684642992e+00  5.0359569523526302e+00  4.9146183402078920e+00  4.7932797320378393e+00  4.6719411278303928e+00  4.5506025276037274e+00  4.4292639313302189e+00  4.3079253390503052e+00  4.1865867507043522e+00  4.0652481663765867e+00  3.9439095859467344e+00  3.8225710095772567e+00  3.7012324370441103e+00  3.5798938686310211e+00  3.4585553039617976e+00  3.3372167434599147e+00  3.2158781865881956e+00  3.0945396337840285e+00  2.9732010845082386e+00  2.8518625385902729e+00  2.7305239960982064e+00  2.6091854542939550e+00  2.4878469156453442e+00  2.3665083702356782e+00  2.2451698283052002e+00  2.1238312594839774e+00  2.0024926745169718e+00  1.8811538984530221e+00  1.7598146651500566e+00  1.6384738251253859e+00  1.5171295819244304e+00  1.3957782743521965e+00  1.2744172630825177e+00  1.1530452212951705e+00  1.0316692150648092e+00  9.1029692700646014e-01  7.8894159055070823e-01  6.6761003432797617e-01  5.4632625865128848e-01  4.2509561272812718e-01  3.0386975293227153e-01  1.8252367389567969e-01  5.9939058105082009e-02  9.6472755003768054e+00  9.5256643255359652e+00  9.4043519203233501e+00  9.2830101819498356e+00  9.1616709414023116e+00  9.0403314744990304e+00  8.9189922258579397e+00  8.7976531564379865e+00  8.6763142219608707e+00  8.5549753767630552e+00  8.4336365870557888e+00  8.3122978305300546e+00  8.1909590938352430e+00  8.0696203695364925e+00  7.9482816535847993e+00  7.8269429438568379e+00  7.7056042392337680e+00  7.5842655391570304e+00  7.4629268433362190e+00  7.3415881516321777e+00  7.22024946397