<?xml version="1.0"?>
<VTKFile type="UnstructuredGrid"  version="0.1"  >
<UnstructuredGrid>
<Piece  NumberOfPoints="1369" NumberOfCells="2560">
<Points>
<DataArray  type="Float64"  NumberOfComponents="3"  format="ascii">0 0 0  0.75 0 0  1.5 0 0  2.25 0 0  3 0 0  3.75 0 0  4.5 0 0  5.25 0 0  6 0 0  6.75 0 0  7.5 0 0  8.25 0 0  9 0 0  9.75 0 0  10.5 0 0  11.25 0 0  12 0 0  12.75 0 0  13.5 0 0  14.25 0 0  15 0 0  15.75 0 0  16.5 0 0  17.25 0 0  18 0 0  18.75 0 0  19.5 0 0  20.25 0 0  21 0 0  21.75 0 0  22.5 0 0  23.25 0 0  24 0 0  24.75 0 0  25.5 0 0  26.25 0 0  27 0 0  27.75 0 0  28.5 0 0  29.25 0 0  30 0 0  30.75 0 0  31.5 0 0  32.25 0 0  33 0 0  33.75 0 0  34.5 0 0  35.25 0 0  36 0 0  36.75 0 0  37.5 0 0  38.25 0 0  39 0 0  39.75 0 0  40.5 0 0  41.25 0 0  42 0 0  42.75 0 0  43.5 0 0  44.25 0 0  45 0 0  45.75 0 0  46.5 0 0  47.25 0 0  48 0 0  48.75 0 0  49.5 0 0  50.25 0 0  51 0 0  51.75 0 0  52.5 0 0  53.25 0 0  54 0 0  54.75 0 0  55.5 0 0  56.25 0 0  57 0 0  57.75 0 0  58.5 0 0  59.25 0 0  60 0 0  0 0.5 0  0.75 0.5 0  1.5 0.5 0  2.25 0.5 0  3 0.5 0  3.75 0.5 0  4.5 0.5 0  5.25 0.5 0  6 0.5 0  6.75 0.5 0  7.5 0.5 0  8.25 0.5 0  9 0.5 0  9.75 0.5 0  10.5 0.5 0  11.25 0.5 0  12 0.5 0  12.75 0.5 0  13.5 0.5 0  14.25 0.5 0  15 0.5 0  15.75 0.5 0  16.5 0.5 0  17.25 0.5 0  18 0.5 0  18.75 0.5 0  19.5 0.5 0  20.25 0.5 0  21 0.5 0  21.75 0.5 0  22.5 0.5 0  23.25 0.5 0  24 0.5 0  24.75 0.5 0  25.5 0.5 0  26.25 0.5 0  27 0.5 0  27.75 0.5 0  28.5 0.5 0  29.25 0.5 0  30 0.5 0  30.75 0.5 0  31.5 0.5 0  32.25 0.5 0  33 0.5 0  33.75 0.5 0  34.5 0.5 0  35.25 0.5 0  36 0.5 0  36.75 0.5 0  37.5 0.5 0  38.25 0.5 0  39 0.5 0  39.75 0.5 0  40.5 0.5 0  41.25 0.5 0  42 0.5 0  42.75 0.5 0  43.5 0.5 0  44.25 0.5 0  45 0.5 0  45.75 0.5 0  46.5 0.5 0  47.25 0.5 0  48 0.5 0  48.75 0.5 0  49.5 0.5 0  50.25 0.5 0  51 0.5 0  51.75 0.5 0  52.5 0.5 0  53.25 0.5 0  54 0.5 0  54.75 0.5 0  55.5 0.5 0  56.25 0.5 0  57 0.5 0  57.75 0.5 0  58.5 0.5 0  59.25 0.5 0  60 0.5 0  0 1 0  0.75 1 0  1.5 1 0  2.25 1 0  3 1 0  3.75 1 0  4.5 1 0  5.25 1 0  6 1 0  6.75 1 0  7.5 1 0  8.25 1 0  9 1 0  9.75 1 0  10.5 1 0  11.25 1 0  12 1 0  12.75 1 0  13.5 1 0  14.25 1 0  15 1 0  15.75 1 0  16.5 1 0  17.25 1 0  18 1 0  18.75 1 0  19.5 1 0  20.25 1 0  21 1 0  21.75 1 0  22.5 1 0  23.25 1 0  24 1 0  24.75 1 0  25.5 1 0  26.25 1 0  27 1 0  27.75 1 0  28.5 1 0  29.25 1 0  30 1 0  30.75 1 0  31.5 1 0  32.25 1 0  33 1 0  33.75 1 0  34.5 1 0  35.25 1 0  36 1 0  36.75 1 0  37.5 1 0  38.25 1 0  39 1 0  39.75 1 0  40.5 1 0  41.25 1 0  42 1 0  42.75 1 0  43.5 1 0  44.25 1 0  45 1 0  45.75 1 0  46.5 1 0  47.25 1 0  48 1 0  48.75 1 0  49.5 1 0  50.25 1 0  51 1 0  51.75 1 0  52.5 1 0  53.25 1 0  54 1 0  54.75 1 0  55.5 1 0  56.25 1 0  57 1 0  57.75 1 0  58.5 1 0  59.25 1 0  60 1 0  0 1.5 0  0.75 1.5 0  1.5 1.5 0  2.25 1.5 0  3 1.5 0  3.75 1.5 0  4.5 1.5 0  5.25 1.5 0  6 1.5 0  6.75 1.5 0  7.5 1.5 0  8.25 1.5 0  9 1.5 0  9.75 1.5 0  10.5 1.5 0  11.25 1.5 0  12 1.5 0  12.75 1.5 0  13.5 1.5 0  14.25 1.5 0  15 1.5 0  15.75 1.5 0  16.5 1.5 0  17.25 1.5 0  18 1.5 0  18.75 1.5 0  19.5 1.5 0  20.25 1.5 0  21 1.5 0  21.75 1.5 0  22.5 1.5 0  23.25 1.5 0  24 1.5 0  24.75 1.5 0  25.5 1.5 0  26.25 1.5 0  27 1.5 0  27.75 1.5 0  28.5 1.5 0  29.25 1.5 0  30 1.5 0  30.75 1.5 0  31.5 1.5 0  32.25 1.5 0  33 1.5 0  33.75 1.5 0  34.5 1.5 0  35.25 1.5 0  36 1.5 0  36.75 1.5 0  37.5 1.5 0  38.25 1.5 0  39 1.5 0  39.75 1.5 0  40.5 1.5 0  41.25 1.5 0  42 1.5 0  42.75 1.5 0  43.5 1.5 0  44.25 1.5 0  45 1.5 0  45.75 1.5 0  46.5 1.5 0  47.25 1.5 0  48 1.5 0  48.75 1.5 0  49.5 1.5 0  50.25 1.5 0  51 1.5 0  51.75 1.5 0  52.5 1.5 0  53.25 1.5 0  54 1.5 0  54.75 1.5 0  55.5 1.5 0  56.25 1.5 0  57 1.5 0  57.75 1.5 0  58.5 1.5 0  59.25 1.5 0  60 1.5 0  0 2 0  0.75 2 0  1.5 2 0  2.25 2 0  3 2 0  3.75 2 0  4.5 2 0  5.25 2 0  6 2 0  6.75 2 0  7.5 2 0  8.25 2 0  9 2 0  9.75 2 0  10.5 2 0  11.25 2 0  12 2 0  12.75 2 0  13.5 2 0  14.25 2 0  15 2 0  15.75 2 0  16.5 2 0  17.25 2 0  18 2 0  18.75 2 0  19.5 2 0  20.25 2 0  21 2 0  21.75 2 0  22.5 2 0  23.25 2 0  24 2 0  24.75 2 0  25.5 2 0  26.25 2 0  27 2 0  27.75 2 0  28.5 2 0  29.25 2 0  30 2 0  30.75 2 0  31.5 2 0  32.25 2 0  33 2 0  33.75 2 0  34.5 2 0  35.25 2 0  36 2 0  36.75 2 0  37.5 2 0  38.25 2 0  39 2 0  39.75 2 0  40.5 2 0  41.25 2 0  42 2 0  42.75 2 0  43.5 2 0  44.25 2 0  45 2 0  45.75 2 0  46.5 2 0  47.25 2 0  48 2 0  48.75 2 0  49.5 2 0  50.25 2 0  51 2 0  51.75 2 0  52.5 2 0  53.25 2 0  54 2 0  54.75 2 0  55.5 2 0  56.25 2 0  57 2 0  57.75 2 0  58.5 2 0  59.25 2 0  60 2 0  0 2.5 0  0.75 2.5 0  1.5 2.5 0  2.25 2.5 0  3 2.5 0  3.75 2.5 0  4.5 2.5 0  5.25 2.5 0  6 2.5 0  6.75 2.5 0  7.5 2.5 0  8.25 2.5 0  9 2.5 0  9.75 2.5 0  10.5 2.5 0  11.25 2.5 0  12 2.5 0  12.75 2.5 0  13.5 2.5 0  14.25 2.5 0  15 2.5 0  15.75 2.5 0  16.5 2.5 0  17.25 2.5 0  18 2.5 0  18.75 2.5 0  19.5 2.5 0  20.25 2.5 0  21 2.5 0  21.75 2.5 0  22.5 2.5 0  23.25 2.5 0  24 2.5 0  24.75 2.5 0  25.5 2.5 0  26.25 2.5 0  27 2.5 0  27.75 2.5 0  28.5 2.5 0  29.25 2.5 0  30 2.5 0  30.75 2.5 0  31.5 2.5 0  32.25 2.5 0  33 2.5 0  33.75 2.5 0  34.5 2.5 0  35.25 2.5 0  36 2.5 0  36.75 2.5 0  37.5 2.5 0  38.25 2.5 0  39 2.5 0  39.75 2.5 0  40.5 2.5 0  41.25 2.5 0  42 2.5 0  42.75 2.5 0  43.5 2.5 0  44.25 2.5 0  45 2.5 0  45.75 2.5 0  46.5 2.5 0  47.25 2.5 0  48 2.5 0  48.75 2.5 0  49.5 2.5 0  50.25 2.5 0  51 2.5 0  51.75 2.5 0  52.5 2.5 0  53.25 2.5 0  54 2.5 0  54.75 2.5 0  55.5 2.5 0  56.25 2.5 0  57 2.5 0  57.75 2.5 0  58.5 2.5 0  59.25 2.5 0  60 2.5 0  0 3 0  0.75 3 0  1.5 3 0  2.25 3 0  3 3 0  3.75 3 0  4.5 3 0  5.25 3 0  6 3 0  6.75 3 0  7.5 3 0  8.25 3 0  9 3 0  9.75 3 0  10.5 3 0  11.25 3 0  12 3 0  12.75 3 0  13.5 3 0  14.25 3 0  15 3 0  15.75 3 0  16.5 3 0  17.25 3 0  18 3 0  18.75 3 0  19.5 3 0  20.25 3 0  21 3 0  21.75 3 0  22.5 3 0  23.25 3 0  24 3 0  24.75 3 0  25.5 3 0  26.25 3 0  27 3 0  27.75 3 0  28.5 3 0  29.25 3 0  30 3 0  30.75 3 0  31.5 3 0  32.25 3 0  33 3 0  33.75 3 0  34.5 3 0  35.25 3 0  36 3 0  36.75 3 0  37.5 3 0  38.25 3 0  39 3 0  39.75 3 0  40.5 3 0  41.25 3 0  42 3 0  42.75 3 0  43.5 3 0  44.25 3 0  45 3 0  45.75 3 0  46.5 3 0  47.25 3 0  48 3 0  48.75 3 0  49.5 3 0  50.25 3 0  51 3 0  51.75 3 0  52.5 3 0  53.25 3 0  54 3 0  54.75 3 0  55.5 3 0  56.25 3 0  57 3 0  57.75 3 0  58.5 3 0  59.25 3 0  60 3 0  0 3.5 0  0.75 3.5 0  1.5 3.5 0  2.25 3.5 0  3 3.5 0  3.75 3.5 0  4.5 3.5 0  5.25 3.5 0  6 3.5 0  6.75 3.5 0  7.5 3.5 0  8.25 3.5 0  9 3.5 0  9.75 3.5 0  10.5 3.5 0  11.25 3.5 0  12 3.5 0  12.75 3.5 0  13.5 3.5 0  14.25 3.5 0  15 3.5 0  15.75 3.5 0  16.5 3.5 0  17.25 3.5 0  18 3.5 0  18.75 3.5 0  19.5 3.5 0  20.25 3.5 0  21 3.5 0  21.75 3.5 0  22.5 3.5 0  23.25 3.5 0  24 3.5 0  24.75 3.5 0  25.5 3.5 0  26.25 3.5 0  27 3.5 0  27.75 3.5 0  28.5 3.5 0  29.25 3.5 0  30 3.5 0  30.75 3.5 0  31.5 3.5 0  32.25 3.5 0  33 3.5 0  33.75 3.5 0  34.5 3.5 0  35.25 3.5 0  36 3.5 0  36.75 3.5 0  37.5 3.5 0  38.25 3.5 0  39 3.5 0  39.75 3.5 0  40.5 3.5 0  41.25 3.5 0  42 3.5 0  42.75 3.5 0  43.5 3.5 0  44.25 3.5 0  45 3.5 0  45.75 3.5 0  46.5 3.5 0  47.25 3.5 0  48 3.5 0  48.75 3.5 0  49.5 3.5 0  50.25 3.5 0  51 3.5 0  51.75 3.5 0  52.5 3.5 0  53.25 3.5 0  54 3.5 0  54.75 3.5 0  55.5 3.5 0  56.25 3.5 0  57 3.5 0  57.75 3.5 0  58.5 3.5 0  59.25 3.5 0  60 3.5 0  0 4 0  0.75 4 0  1.5 4 0  2.25 4 0  3 4 0  3.75 4 0  4.5 4 0  5.25 4 0  6 4 0  6.75 4 0  7.5 4 0  8.25 4 0  9 4 0  9.75 4 0  10.5 4 0  11.25 4 0  12 4 0  12.75 4 0  13.5 4 0  14.25 4 0  15 4 0  15.75 4 0  16.5 4 0  17.25 4 0  18 4 0  18.75 4 0  19.5 4 0  20.25 4 0  21 4 0  21.75 4 0  22.5 4 0  23.25 4 0  24 4 0  24.75 4 0  25.5 4 0  26.25 4 0  27 4 0  27.75 4 0  28.5 4 0  29.25 4 0  30 4 0  30.75 4 0  31.5 4 0  32.25 4 0  33 4 0  33.75 4 0  34.5 4 0  35.25 4 0  36 4 0  36.75 4 0  37.5 4 0  38.25 4 0  39 4 0  39.75 4 0  40.5 4 0  41.25 4 0  42 4 0  42.75 4 0  43.5 4 0  44.25 4 0  45 4 0  45.75 4 0  46.5 4 0  47.25 4 0  48 4 0  48.75 4 0  49.5 4 0  50.25 4 0  51 4 0  51.75 4 0  52.5 4 0  53.25 4 0  54 4 0  54.75 4 0  55.5 4 0  56.25 4 0  57 4 0  57.75 4 0  58.5 4 0  59.25 4 0  60 4 0  0.375 0.25 0  1.125 0.25 0  1.875 0.25 0  2.625 0.25 0  3.375 0.25 0  4.125 0.25 0  4.875 0.25 0  5.625 0.25 0  6.375 0.25 0  7.125 0.25 0  7.875 0.25 0  8.625 0.25 0  9.375 0.25 0  10.125 0.25 0  10.875 0.25 0  11.625 0.25 0  12.375 0.25 0  13.125 0.25 0  13.875 0.25 0  14.625 0.25 0  15.375 0.25 0  16.125 0.25 0  16.875 0.25 0  17.625 0.25 0  18.375 0.25 0  19.125 0.25 0  19.875 0.25 0  20.625 0.25 0  21.375 0.25 0  22.125 0.25 0  22.875 0.25 0  23.625 0.25 0  24.375 0.25 0  25.125 0.25 0  25.875 0.25 0  26.625 0.25 0  27.375 0.25 0  28.125 0.25 0  28.875 0.25 0  29.625 0.25 0  30.375 0.25 0  31.125 0.25 0  31.875 0.25 0  32.625 0.25 0  33.375 0.25 0  34.125 0.25 0  34.875 0.25 0  35.625 0.25 0  36.375 0.25 0  37.125 0.25 0  37.875 0.25 0  38.625 0.25 0  39.375 0.25 0  40.125 0.25 0  40.875 0.25 0  41.625 0.25 0  42.375 0.25 0  43.125 0.25 0  43.875 0.25 0  44.625 0.25 0  45.375 0.25 0  46.125 0.25 0  46.875 0.25 0  47.625 0.25 0  48.375 0.25 0  49.125 0.25 0  49.875 0.25 0  50.625 0.25 0  51.375 0.25 0  52.125 0.25 0  52.875 0.25 0  53.625 0.25 0  54.375 0.25 0  55.125 0.25 0  55.875 0.25 0  56.625 0.25 0  57.375 0.25 0  58.125 0.25 0  58.875 0.25 0  59.625 0.25 0  0.375 0.75 0  1.125 0.75 0  1.875 0.75 0  2.625 0.75 0  3.375 0.75 0  4.125 0.75 0  4.875 0.75 0  5.625 0.75 0  6.375 0.75 0  7.125 0.75 0  7.875 0.75 0  8.625 0.75 0  9.375 0.75 0  10.125 0.75 0  10.875 0.75 0  11.625 0.75 0  12.375 0.75 0  13.125 0.75 0  13.875 0.75 0  14.625 0.75 0  15.375 0.75 0  16.125 0.75 0  16.875 0.75 0  17.625 0.75 0  18.375 0.75 0  19.125 0.75 0  19.875 0.75 0  20.625 0.75 0  21.375 0.75 0  22.125 0.75 0  22.875 0.75 0  23.625 0.75 0  24.375 0.75 0  25.125 0.75 0  25.875 0.75 0  26.625 0.75 0  27.375 0.75 0  28.125 0.75 0  28.875 0.75 0  29.625 0.75 0  30.375 0.75 0  31.125 0.75 0  31.875 0.75 0  32.625 0.75 0  33.375 0.75 0  34.125 0.75 0  34.875 0.75 0  35.625 0.75 0  36.375 0.75 0  37.125 0.75 0  37.875 0.75 0  38.625 0.75 0  39.375 0.75 0  40.125 0.75 0  40
[...]
<PointData  Scalars="f_8-1"> 
<DataArray  type="Float64"  Name="f_8-1"  format="ascii">-1.5960309379503123e-03  -2.9348601311828047e-04  -2.2785368528730013e-04  -1.9776508650052048e-04  -1.8999704952344545e-04  -1.8972763437071757e-04  -1.9279687495142879e-04  -1.9709465137857061e-04  -2.0122251092000536e-04  -2.0460868641619139e-04  -2.0726980444701944e-04  -2.0942196853828966e-04  -2.1127504990423409e-04  -2.1297150907755773e-04  -2.1459299238610048e-04  -2.1618061331414058e-04  -2.1775375738770759e-04  -2.1932086479848386e-04  -2.2088562931179423e-04  -2.2244953677608213e-04  -2.2401325624228408e-04  -2.2557704123876563e-04  -2.2714102600494455e-04  -2.2870525604323845e-04  -2.3026976479323635e-04  -2.3183456055685453e-04  -2.3339965367374056e-04  -2.3496504523836349e-04  -2.3653073891652618e-04  -2.3809673454937454e-04  -2.3966303351323167e-04  -2.4122963557899593e-04  -2.4279654127031691e-04  -2.4436375047520942e-04  -2.4593126337334680e-04  -2.4749907993569926e-04  -2.4906720024166955e-04  -2.5063562422165730e-04  -2.5220435201015796e-04  -2.5377338339066410e-04  -2.5534271883559178e-04  -2.5691235741212245e-04  -2.5848230102500151e-04  -2.6005254593658737e-04  -2.6162309955141729e-04  -2.6319394749054896e-04  -2.6476511783920799e-04  -2.6633655639486285e-04  -2.6790836786025167e-04  -2.6948035189361099e-04  -2.7105289095217063e-04  -2.7262526081531935e-04  -2.7419882694013060e-04  -2.7577103467434202e-04  -2.7734663566314423e-04  -2.7891686098649606e-04  -2.8049777719324134e-04  -2.8206019422118042e-04  -2.8365669287081272e-04  -2.8519345863975030e-04  -2.8683617847941230e-04  -2.8829558492944667e-04  -2.9007046826272310e-04  -2.9131336583716310e-04  -2.9344066059671829e-04  -2.9412806947343596e-04  -2.9708674402394863e-04  -2.9647972895542580e-04  -3.0096424398555466e-04  -2.9766868488751569e-04  -3.0400444160733769e-04  -2.9824114224905632e-04  -3.1030699446248376e-04  -3.2088328529433812e-04  -3.4177397939916699e-04  -3.8682577622607537e-04  -3.1686809061999565e-04  -4.7607001791425237e-04  9.1325697308369626e-05  -1.1009448668674576e-03  1.4621222216191264e-03  -8.3427206999699184e-06  -3.1711120388884745e-04  -2.2412015676839852e-04  -2.0353683253705133e-04  -1.9791836008307636e-04  -1.9846829632427914e-04  -2.0181654927019834e-04  -2.0606877643001819e-04  -2.0997366536307810e-04  -2.1311799962642731e-04  -2.1559477385181937e-04  -2.1763119496156925e-04  -2.1941918028187194e-04  -2.2108209660382425e-04  -2.2268708540806932e-04  -2.2426697866285202e-04  -2.2583653178520678e-04  -2.2740201998156109e-04  -2.2896603626119033e-04  -2.3052960751293505e-04  -2.3209316718503370e-04  -2.3365687920841148e-04  -2.3522082826028568e-04  -2.3678504156063183e-04  -2.3834954226720472e-04  -2.3991433412420384e-04  -2.4147942562723486e-04  -2.4304481637771718e-04  -2.4461050992651386e-04  -2.4617650550981334e-04  -2.4774280466363299e-04  -2.4930940687227542e-04  -2.5087631280167635e-04  -2.5244352220256985e-04  -2.5401103532827384e-04  -2.5557885212809499e-04  -2.5714697260325372e-04  -2.5871539690294673e-04  -2.6028412470518184e-04  -2.6185315670827802e-04  -2.6342249157225759e-04  -2.6499213190615882e-04  -2.6656207274330023e-04  -2.6813232358799540e-04  -2.6970286647658398e-04  -2.7127373530177264e-04  -2.7284486686475370e-04  -2.7441637844853470e-04  -2.7598805475681926e-04  -2.7756028817016378e-04  -2.7913237167383805e-04  -2.8070556723474476e-04  -2.8227765019705754e-04  -2.8385249723018852e-04  -2.8542344617782752e-04  -2.8700179002803773e-04  -2.8856868305997507e-04  -2.9015508138635149e-04  -2.9171101080165970e-04  -2.9331575096705595e-04  -2.9484585543386606e-04  -2.9649012198717790e-04  -2.9796530262359261e-04  -2.9968913971201725e-04  -3.0105707589592049e-04  -3.0292558984176457e-04  -3.0409482064579696e-04  -3.0613489656459335e-04  -3.0690555716389142e-04  -3.0869100484747739e-04  -3.0901628880471485e-04  -3.1055809219895616e-04  -3.1777416080132418e-04  -3.2960081383078286e-04  -3.5905976163126154e-04  -3.5633940604100876e-04  -3.8101962525308056e-04  -3.0154718080229343e-04  -2.4287040875097272e-04  -2.9467940300037380e-04  -2.9702505083354676e-04  -1.1959449362738187e-05  -1.7167806123784344e-04  -1.8911055358797205e-04  -1.8408808102612589e-04  -1.8253185793629521e-04  -1.8366973528075075e-04  -1.8656694268815078e-04  -1.9021342415264525e-04  -1.9376989851575019e-04  -1.9683853122121073e-04  -1.9938295120768329e-04  -2.0152444430351237e-04  -2.0340429698885698e-04  -2.0513169294074572e-04  -2.0677665055958330e-04  -2.0837937316816325e-04  -2.0996124957472923e-04  -2.1153313043283478e-04  -2.1310035953981454e-04  -2.1466551724440763e-04  -2.1622984403624182e-04  -2.1779392757243873e-04  -2.1935805223924630e-04  -2.2092235115892168e-04  -2.2248689132736880e-04  -2.2405170318443081e-04  -2.2561680345470773e-04  -2.2718219909734799e-04  -2.2874789461784897e-04  -2.3031389156163160e-04  -2.3188019125862643e-04  -2.3344679399180961e-04  -2.3501370021304356e-04  -2.3658090993286529e-04  -2.3814842336198873e-04  -2.3971624036934000e-04  -2.4128436127371971e-04  -2.4285278554571037e-04  -2.4442151423213689e-04  -2.4599054534508443e-04  -2.4755988272726119e-04  -2.4912951903703103e-04  -2.5069946830594546e-04  -2.5226970394349107e-04  -2.5384027607136116e-04  -2.5541109103404254e-04  -2.5698232268078758e-04  -2.5855365126699304e-04  -2.6012565994760188e-04  -2.6169729612704804e-04  -2.6327044068598100e-04  -2.6484177211364546e-04  -2.6641708645028266e-04  -2.6798640631334734e-04  -2.6956666835595803e-04  -2.7112957131839689e-04  -2.7272164664719274e-04  -2.7426775856101090e-04  -2.7588702639042890e-04  -2.7739438487646575e-04  -2.7907171195253164e-04  -2.8049888028281312e-04  -2.8228984268362277e-04  -2.8356656752393108e-04  -2.8556232339346495e-04  -2.8657903243837080e-04  -2.8890764495768402e-04  -2.8951292508847345e-04  -2.9226576338874961e-04  -2.9242665869260364e-04  -2.9587749555734847e-04  -2.9758376129189620e-04  -3.0604656723212366e-04  -3.1652499226710935e-04  -3.3024939530227991e-04  -3.3167394092120005e-04  -3.2284808243668555e-04  -2.8470215306623114e-04  -2.0890857747306204e-04  -2.4170802976490970e-04  7.8531197944333570e-05  -8.1246002219857837e-06  -1.0033052567614221e-04  -1.4213408025811429e-04  -1.5224648291058365e-04  -1.5464021557638169e-04  -1.5638829442973594e-04  -1.5886817019765715e-04  -1.6201236682474021e-04  -1.6534645183677909e-04  -1.6842572334472108e-04  -1.7107881748447163e-04  -1.7334026227968822e-04  -1.7531556909188660e-04  -1.7710753581654675e-04  -1.7879191124175203e-04  -1.8041703764599585e-04  -1.8201098672615575e-04  -1.8358912913767864e-04  -1.8515950609630428e-04  -1.8672621745250713e-04  -1.8829129608486953e-04  -1.8985574248707660e-04  -1.9142003907639263e-04  -1.9298442068911920e-04  -1.9454899925233890e-04  -1.9611382978804739e-04  -1.9767893838809432e-04  -1.9924433820419100e-04  -2.0081003542912743e-04  -2.0237603329328178e-04  -2.0394233330571219e-04  -2.0550893626835858e-04  -2.0707584255044039e-04  -2.0864305238640414e-04  -2.1021056580539649e-04  -2.1177838301758372e-04  -2.1334650372006842e-04  -2.1491492859272438e-04  -2.1648365633717743e-04  -2.1805268947732313e-04  -2.1962202317908980e-04  -2.2119166670784472e-04  -2.2276160245134687e-04  -2.2433186370945989e-04  -2.2590238793456446e-04  -2.2747329187587507e-04  -2.2904435941493515e-04  -2.3061598740174298e-04  -2.3218745384903379e-04  -2.3376006015405918e-04  -2.3533148499180429e-04  -2.3690582526752571e-04  -2.3847593554512849e-04  -2.4005412984243334e-04  -2.4161946723416064e-04  -2.4320708946357436e-04  -2.4475888378589628e-04  -2.4636958506683881e-04  -2.4788717818757404e-04  -2.4955203398121031e-04  -2.5099024540881001e-04  -2.5277522830510974e-04  -2.5404197369218676e-04  -2.5607815545073629e-04  -2.5699955499882234e-04  -2.5952668097603787e-04  -2.5981787250986066e-04  -2.6322771658654481e-04  -2.6262400012405429e-04  -2.6762761866879500e-04  -2.6691667607273281e-04  -2.7563263357471981e-04  -2.7907177867302264e-04  -2.9265868936578717e-04  -2.9856986482361376e-04  -2.9159613715418252e-04  -2.8798775743102282e-04  -2.1883282310967771e-04  -2.3309494491224699e-04  -7.0037367224507090e-05  -9.5734970923256103e-05  -3.1145795675046077e-07  -8.5930316054322849e-05  -1.3118928200752791e-04  -1.4629520568314910e-04  -1.5043912277060842e-04  -1.5256484071239789e-04  -1.5502411124803062e-04  -1.5805230606969354e-04  -1.6129318968284467e-04  -1.6434222025479196e-04  -1.6700778906078627e-04  -1.6929560525892845e-04  -1.7129565522570721e-04  -1.7310573304687706e-04  -1.7480169028185813e-04  -1.7643357876529733e-04  -1.7803124267441267e-04  -1.7961133115254949e-04  -1.8118269658743612e-04  -1.8274989555592831e-04  -1.8431521127924648e-04  -1.8587977048781045e-04  -1.8744412052230813e-04  -1.8900852681843873e-04  -1.9057311680731177e-04  -1.9213795237503297e-04  -1.9370306320901816e-04  -1.9526846389086505e-04  -1.9683416145362562e-04  -1.9840015938591570e-04  -1.9996645939834637e-04  -2.0153306231540625e-04  -2.0309996858078284e-04  -2.0466717835365041e-04  -2.0623469183700819e-04  -2.0780250888250299e-04  -2.0937062988508936e-04  -2.1093905417020014e-04  -2.1250778306108881e-04  -2.1407681400787532e-04  -2.1564615193141702e-04  -2.1721578740855108e-04  -2.1878573838493378e-04  -2.2035597090302341e-04  -2.2192654879254093e-04  -2.2349735297126945e-04  -2.2506860389317728e-04  -2.2663989686916097e-04  -2.2821196834657263e-04  -2.2978349084890550e-04  -2.3135683389568709e-04  -2.3292781311697253e-04  -2.3450373728727586e-04  -2.3607199273516439e-04  -2.3765408762099673e-04  -2.3921383003272504e-04  -2.4081133512541576e-04  -2.4234817225533936e-04  -2.4398334017687294e-04  -2.4546387666253447e-04  -2.4718676770027644e-04  -2.4853887519906087e-04  -2.5045432642170439e-04  -2.5153434230539413e-04  -2.5384382712476003e-04  -2.5439762391768061e-04  -2.5744830394065695e-04  -2.5713843964034558e-04  -2.6151856610475419e-04  -2.6039658206697690e-04  -2.6755005581920123e-04  -2.6777299518405246e-04  -2.8053886140686667e-04  -2.8462228106567285e-04  -2.9374289983369697e-04  -2.8971898284221078e-04  -2.6177217986335719e-04  -2.5037579630904491e-04  -1.5753387900889010e-04  -1.5261876914303432e-04  5.7873656250594631e-05  -8.1268087712922251e-06  -1.0035903324687415e-04  -1.4215849055813071e-04  -1.5225827407578190e-04  -1.5464391547315146e-04  -1.5638831705949119e-04  -1.5886704628023063e-04  -1.6201076962381591e-04  -1.6534466360198602e-04  -1.6842422072744785e-04  -1.7107788491809320e-04  -1.7333984052809231e-04  -1.7531543712338021e-04  -1.7710749650438990e-04  -1.7879185488287738e-04  -1.8041692573124703e-04  -1.8201081771895009e-04  -1.8358891408826042e-04  -1.8515925724809843e-04  -1.8672594463461765e-04  -1.8829100641321552e-04  -1.8985544096506967e-04  -1.9141972922632515e-04  -1.9298410499906751e-04  -1.9454867948686172e-04  -1.9611350719371789e-04  -1.9767861384772023e-04  -1.9924401232353334e-04  -2.0080970863380415e-04  -2.0237570587340099e-04  -2.0394200546196062e-04  -2.0550860813534910e-04  -2.0707551421700210e-04  -2.0864272392598758e-04  -2.1021023725154009e-04  -2.1177805439543656e-04  -2.1334617505051534e-04  -2.1491459988361964e-04  -2.1648332760150539e-04  -2.1805236070526423e-04  -2.1962169437886097e-04  -2.2119133785167665e-04  -2.2276127353075290e-04  -2.2433153470599799e-04  -2.2590205879387739e-04  -2.2747296254676036e-04  -2.2904402979894215e-04  -2.3061565739337461e-04  -2.3218712320946454e-04  -2.3375972869023895e-04  -2.3533115214805970e-04  -2.3690549070510346e-04  -2.3847559796599441e-04  -2.4005378869932625e-04  -2.4161911951837411e-04  -2.4320673435821472e-04  -2.4475851462013419e-04  -2.4636920028823465e-04  -2.4788676424384199e-04  -2.4955158621146190e-04  -2.5098973968322989e-04  -2.5277464776933886e-04  -2.5404128342626010e-04  -2.5607730041406245e-04  -2.5699850292369372e-04  -2.5952527751676036e-04  -2.5981614820491021e-04  -2.6322528450467824e-04  -2.6262119583233200e-04  -2.6762357072662940e-04  -2.6691290514789322e-04  -2.7562747875610976e-04  -2.7907029550881162e-04  -2.9265660056854512e-04  -2.9857729496245334e-04  -2.9159682783335078e-04  -2.8800015258217558e-04  -2.1880967240971641e-04  -2.3308622992063762e-04  -6.9993144089508736e-05  -9.5761001852186678e-05  -1.1975235748918742e-05  -1.7174957518107826e-04  -1.8916029141803875e-04  -1.8410891387845739e-04  -1.8253866753346648e-04  -1.8367067590541563e-04  -1.8656565378000949e-04  -1.9021172218168725e-04  -1.9376896439116028e-04  -1.9683893244632961e-04  -1.9938459258061114e-04  -2.0152686040314147e-04  -2.0340701034770572e-04  -2.0513439360851456e-04  -2.0677920284183529e-04  -2.0838175169913612e-04  -2.0996347760865751e-04  -2.1153524318011862e-04  -2.1310238874182449e-04  -2.1466748727479436e-04  -2.1623177246936584e-04  -2.1779582684660224e-04  -2.1935993111534677e-04  -2.2092421581465209e-04  -2.2248874612117907e-04  -2.2405355116296571e-04  -2.2561864675402956e-04  -2.2718403919018721e-04  -2.2874973252632805e-04  -2.3031572797728921e-04  -2.3188202666239187e-04  -2.3344862870610677e-04  -2.3501553446141202e-04  -2.3658274385816901e-04  -2.3815025706895381e-04  -2.3971807391467864e-04  -2.4128619470427994e-04  -2.4285461889280102e-04  -2.4442334749737475e-04  -2.4599237854299534e-04  -2.4756171583583954e-04  -2.4913135203146250e-04  -2.5070130114193700e-04  -2.5227153656617022e-04  -2.5384210838214983e-04  -2.5541292287766394e-04  -2.5698415386447398e-04  -2.5855548144674585e-04  -2.6012748873329160e-04  -2.6169912272595782e-04  -2.6327226434023568e-04  -2.6484359102789677e-04  -2.6641889916112076e-04  -2.6798820875732781e-04  -2.6956845778594905e-04  -2.7113133867004505e-04  -2.7272338661672041e-04  -2.7426945187947519e-04  -2.7588866138121787e-04  -2.7739592423880051e-04  -2.7907312499377874e-04  -2.8050010532282689e-04  -2.8229079147562103e-04  -2.8356716471149545e-04  -2.8556232359198340e-04  -2.8657841261564879e-04  -2.8890578481030209e-04  -2.8951008875822113e-04  -2.9226052174596341e-04  -2.9242048228208845e-04  -2.9586750216952927e-04  -2.9757627709805508e-04  -3.0603747848679565e-04  -3.1653311215748119e-04  -3.3025992572656529e-04  -3.3171030834046089e-04  -3.2284854640422556e-04  -2.8470792095288409e-04  -2.0881653149118455e-04  -2.4169209806701735e-04  7.8602898123113400e-05  -8.3041950269010707e-06  -3.1733685149571377e-04  -2.2421475930884066e-04  -2.0358537566603810e-04  -1.9794873390646404e-04  -1.9849174804701107e-04  -2.0183727610898386e-04  -2.0608916570817511e-04  -2.0999557092148317e-04  -2.1314218010406595e-04  -2.1562086913862899e-04  -2.1765836581115960e-04  -2.1944668718940820e-04  -2.2110951066386321e-04  -2.2271424454015920e-04  -2.2429387082801457e-04  -2.2586320297789524e-04  -2.2742852555958647e-04  -2.2899242304485280e-04  -2.3055591046993628e-04  -2.3211941129380054e-04  -2.3368308206411873e-04  -2.3524700227494470e-04  -2.3681119550078789e-04  -2.3837568227926518e-04  -2.3994046453539237e-04  -2.4150554944937731e-04  -2.4307093568556984e-04  -2.4463662616192348e-04  -2.4620261964936128e-04  -2.4776891737977766e-04  -2.4933551861829213e-04  -2.5090242389004557e-04  -2.5246963284186790e-04  -2.5403714565904920e-04  -2.5560496223153874e-04  -2.5717308254378520e-04  -2.5874150672430173e-04  -2.6031023441866491e-04  -2.6187926631448985e-04  -2.6344860105796924e-04  -2.6501824122281457e-04  -2.6658818184188145e-04  -2.6815843236925455e-04  -2.6972897481026897e-04  -2.7129984297613585e-04  -2.7287097356824662e-04  -2.7444248375202256e-04  -2.7601415797603150e-04  -2.7758638838713308e-04  -2.7915846740537298e-04  -2.8073165658776391e-04  -2.8230372988363034e-04  -2.8387856337906209e-04  -2.8544949157955799e-04  -2.8702780683389952e-04  -2.8859465553895784e-04  -2.9018099374468232e-04  -2.9173682923376885e-04  -2.9334144381653243e-04  -2.9487135182104592e-04  -2.9651535860868611e-04  -2.9799013577765690e-04  -2.9971344431006152e-04  -3.0108057376452137e-04  -3.0294804195207662e-04  -3.0411572638599160e-04  -3.0615384493317083e-04  -3.0692177409477432e-04  -3.0870410662027606e-04  -3.0902588465097177e-04  -3.1056604564961687e-04  -3.1778620968789646e-04  -3.2962684638818585e-04  -3.5911348685236961e-04  -3.5640402223325153e-04  -3.8108522943556481e-04  -3.0153129173386977e-04  -2.4282377781651294e-04  -2.9451729109873122e-04  -2.9717835852292819e-04  -1.5974390333163147e-03  -2.9373499320823270e-04  -2.2797725062458050e-04  -1.9783530598152218e-04  -1.9004596609090201e-04  -1.8976804987899952e-04  -1.9283381307662664e-04  -1.9713076332685670e-04  -2.0125983504606281e-04  -2.0464825672658084e-04  -2.0731148952842965e-04  -2.0946500811361158e-04  -2.1131866759973542e-04  -2.1301520019940785e-04  -2.1463652883657716e-04  -2.1622393996239455e-04  -2.1779689594279570e-04  -2.1936385766075991e-04  -2.2092851617162292e-04  -2.2249234834983858e-04  -2.2405601476043765e-04  -2.2561976244012014e-04  -2.2718372101293498e-04  -2.2874793274134896e-04  -2.3031242875098389e-04  -2.3187721569738453e-04  -2.3344230274715329e-04  -2.3500769015368935e-04  -2.3657338099218801e-04  -2.3813937468856496e-04  -2.3970567233542062e-04  -2.4127227350213983e-04  -2.4283917858979444e-04  -2.4440638737199539e-04  -2.4597389998768146e-04  -2.4754171633857439e-04  -2.4910983648801179e-04  -2.5067826034749308e-04  -2.5224698803753278e-04  -2.5381601930505953e-04  -2.5538535462423878e-04  -2.5695499302319399e-04  -2.5852493639779567e-04  -2.6009518096700544e-04  -2.6166573409354724e-04  -2.6323658131157242e-04  -2.6480775061960379e-04  -2.6637918762918798e-04  -2.6795099685862097e-04  -2.6952297756541773e-04  -2.7109551183885386e-04  -2.7266787456904071e-04  -2.7424143049036470e-04  -2.7581362290833930e-04  -2.7738920225210006e-04  -2.7895939475221606e-04  -2.8054026540259868e-04  -2.8210261221097360e-04  -2.8369901609834943e-04  -2.8523563191497537e-04  -2.8687815861796936e-04  -2.8833724505584172e-04  -2.9011174786282594e-04  -2.9135396353712232e-04  -2.9348054601636595e-04  -2.9416652088080111e-04  -2.9712394628082274e-04  -2.9651406266602520e-04  -3.0099657488181738e-04  -2.9769599836801597e-04  -3.0402983841690192e-04  -2.9826096391176432e-04  -3.1033514972837430e-04  -3.2091661395045078e-04  -3.4184905310628681e-04  -3.8689553040531396e-04  -3.1697620917576716e-04  -4.7605153127712111e-04  9.1340892280606135e-05  -1.1007603879071798e-03  1.4617846796787226e-03  -4.7646048013440619e-04  -2.2120992826818404e-04  -1.7380225287659513e-04  -1.5902180047101585e-04  -1.5619053881500456e-04  -1.5808292531688850e-04  -1.6196748284313646e-04  -1.6618438030223111e-04  -1.6982728359393704e-04  -1.7271177204412230e-04  -1.7500372589861294e-04  -1.7692964987865454e-04  -1.7865868984065267e-04  -1.8029275152367028e-04  -1.8188432460025420e-04  -1.8345827167104198e-04  -1.8502523541591401e-04  -1.8658967311363137e-04  -1.8815328661671467e-04  -1.8971676542730225e-04  -1.9128035552194332e-04  -1.9284416630209125e-04  -1.9440823757706013e-04  -1.9597259090108705e-04  -1.9753723571803116e-04  -1.9910217729784098e-04  -2.0066741886152643e-04  -2.0223296170841096e-04  -2.0379880713382746e-04  -2.0536495538289780e-04  -2.0693140701386016e-04  -2.0849816200965653e-04  -2.1006522063816161e-04  -2.1163258285290394e-04  -2.1320024877466933e-04  -2.1476821838179060e-04  -2.1633649170513860e-04  -2.1790506877212987e-04  -2.1947394951730574e-04  -2.2104313414362067e-04  -2.2261262226078962e-04  -2.2418241466570844e-04  -2.2575250985448680e-04  -2.2732291075682135e-04  -2.2889361184300609e-04  -2.3046462371843952e-04  -2.3203592655236406e-04  -2.3360755759516342e-04  -2.3517944814432210e-04  -2.3675172478702214e-04  -2.3832415781754619e-04  -2.3989716179206706e-04  -2.4146999934244329e-04  -2.4304397035445095e-04  -2.4461681672546045e-04  -2.4619241485153762e-04  -2.4776421217758251e-04  -2.4934312873583169e-04  -2.5091125864486191e-04  -2.5249752043851750e-04  -2.5405597243433400e-04  -2.5565864828742886e-04  -2.5719427957944540e-04  -2.5883317926147966e-04  -2.6031532534003373e-04  -2.6202564477212039e-04  -2.6335317653992571e-04  -2.6510952851748214e