<?xml version="1.0"?>
<VTKFile type="UnstructuredGrid"  version="0.1"  >
<UnstructuredGrid>
<Piece  NumberOfPoints="1369" NumberOfCells="2560">
<Points>
<DataArray  type="Float64"  NumberOfComponents="3"  format="ascii">0 0 0  0.75 0 0  1.5 0 0  2.25 0 0  3 0 0  3.75 0 0  4.5 0 0  5.25 0 0  6 0 0  6.75 0 0  7.5 0 0  8.25 0 0  9 0 0  9.75 0 0  10.5 0 0  11.25 0 0  12 0 0  12.75 0 0  13.5 0 0  14.25 0 0  15 0 0  15.75 0 0  16.5 0 0  17.25 0 0  18 0 0  18.75 0 0  19.5 0 0  20.25 0 0  21 0 0  21.75 0 0  22.5 0 0  23.25 0 0  24 0 0  24.75 0 0  25.5 0 0  26.25 0 0  27 0 0  27.75 0 0  28.5 0 0  29.25 0 0  30 0 0  30.75 0 0  31.5 0 0  32.25 0 0  33 0 0  33.75 0 0  34.5 0 0  35.25 0 0  36 0 0  36.75 0 0  37.5 0 0  38.25 0 0  39 0 0  39.75 0 0  40.5 0 0  41.25 0 0  42 0 0  42.75 0 0  43.5 0 0  44.25 0 0  45 0 0  45.75 0 0  46.5 0 0  47.25 0 0  48 0 0  48.75 0 0  49.5 0 0  50.25 0 0  51 0 0  51.75 0 0  52.5 0 0  53.25 0 0  54 0 0  54.75 0 0  55.5 0 0  56.25 0 0  57 0 0  57.75 0 0  58.5 0 0  59.25 0 0  60 0 0  0 0.5 0  0.75 0.5 0  1.5 0.5 0  2.25 0.5 0  3 0.5 0  3.75 0.5 0  4.5 0.5 0  5.25 0.5 0  6 0.5 0  6.75 0.5 0  7.5 0.5 0  8.25 0.5 0  9 0.5 0  9.75 0.5 0  10.5 0.5 0  11.25 0.5 0  12 0.5 0  12.75 0.5 0  13.5 0.5 0  14.25 0.5 0  15 0.5 0  15.75 0.5 0  16.5 0.5 0  17.25 0.5 0  18 0.5 0  18.75 0.5 0  19.5 0.5 0  20.25 0.5 0  21 0.5 0  21.75 0.5 0  22.5 0.5 0  23.25 0.5 0  24 0.5 0  24.75 0.5 0  25.5 0.5 0  26.25 0.5 0  27 0.5 0  27.75 0.5 0  28.5 0.5 0  29.25 0.5 0  30 0.5 0  30.75 0.5 0  31.5 0.5 0  32.25 0.5 0  33 0.5 0  33.75 0.5 0  34.5 0.5 0  35.25 0.5 0  36 0.5 0  36.75 0.5 0  37.5 0.5 0  38.25 0.5 0  39 0.5 0  39.75 0.5 0  40.5 0.5 0  41.25 0.5 0  42 0.5 0  42.75 0.5 0  43.5 0.5 0  44.25 0.5 0  45 0.5 0  45.75 0.5 0  46.5 0.5 0  47.25 0.5 0  48 0.5 0  48.75 0.5 0  49.5 0.5 0  50.25 0.5 0  51 0.5 0  51.75 0.5 0  52.5 0.5 0  53.25 0.5 0  54 0.5 0  54.75 0.5 0  55.5 0.5 0  56.25 0.5 0  57 0.5 0  57.75 0.5 0  58.5 0.5 0  59.25 0.5 0  60 0.5 0  0 1 0  0.75 1 0  1.5 1 0  2.25 1 0  3 1 0  3.75 1 0  4.5 1 0  5.25 1 0  6 1 0  6.75 1 0  7.5 1 0  8.25 1 0  9 1 0  9.75 1 0  10.5 1 0  11.25 1 0  12 1 0  12.75 1 0  13.5 1 0  14.25 1 0  15 1 0  15.75 1 0  16.5 1 0  17.25 1 0  18 1 0  18.75 1 0  19.5 1 0  20.25 1 0  21 1 0  21.75 1 0  22.5 1 0  23.25 1 0  24 1 0  24.75 1 0  25.5 1 0  26.25 1 0  27 1 0  27.75 1 0  28.5 1 0  29.25 1 0  30 1 0  30.75 1 0  31.5 1 0  32.25 1 0  33 1 0  33.75 1 0  34.5 1 0  35.25 1 0  36 1 0  36.75 1 0  37.5 1 0  38.25 1 0  39 1 0  39.75 1 0  40.5 1 0  41.25 1 0  42 1 0  42.75 1 0  43.5 1 0  44.25 1 0  45 1 0  45.75 1 0  46.5 1 0  47.25 1 0  48 1 0  48.75 1 0  49.5 1 0  50.25 1 0  51 1 0  51.75 1 0  52.5 1 0  53.25 1 0  54 1 0  54.75 1 0  55.5 1 0  56.25 1 0  57 1 0  57.75 1 0  58.5 1 0  59.25 1 0  60 1 0  0 1.5 0  0.75 1.5 0  1.5 1.5 0  2.25 1.5 0  3 1.5 0  3.75 1.5 0  4.5 1.5 0  5.25 1.5 0  6 1.5 0  6.75 1.5 0  7.5 1.5 0  8.25 1.5 0  9 1.5 0  9.75 1.5 0  10.5 1.5 0  11.25 1.5 0  12 1.5 0  12.75 1.5 0  13.5 1.5 0  14.25 1.5 0  15 1.5 0  15.75 1.5 0  16.5 1.5 0  17.25 1.5 0  18 1.5 0  18.75 1.5 0  19.5 1.5 0  20.25 1.5 0  21 1.5 0  21.75 1.5 0  22.5 1.5 0  23.25 1.5 0  24 1.5 0  24.75 1.5 0  25.5 1.5 0  26.25 1.5 0  27 1.5 0  27.75 1.5 0  28.5 1.5 0  29.25 1.5 0  30 1.5 0  30.75 1.5 0  31.5 1.5 0  32.25 1.5 0  33 1.5 0  33.75 1.5 0  34.5 1.5 0  35.25 1.5 0  36 1.5 0  36.75 1.5 0  37.5 1.5 0  38.25 1.5 0  39 1.5 0  39.75 1.5 0  40.5 1.5 0  41.25 1.5 0  42 1.5 0  42.75 1.5 0  43.5 1.5 0  44.25 1.5 0  45 1.5 0  45.75 1.5 0  46.5 1.5 0  47.25 1.5 0  48 1.5 0  48.75 1.5 0  49.5 1.5 0  50.25 1.5 0  51 1.5 0  51.75 1.5 0  52.5 1.5 0  53.25 1.5 0  54 1.5 0  54.75 1.5 0  55.5 1.5 0  56.25 1.5 0  57 1.5 0  57.75 1.5 0  58.5 1.5 0  59.25 1.5 0  60 1.5 0  0 2 0  0.75 2 0  1.5 2 0  2.25 2 0  3 2 0  3.75 2 0  4.5 2 0  5.25 2 0  6 2 0  6.75 2 0  7.5 2 0  8.25 2 0  9 2 0  9.75 2 0  10.5 2 0  11.25 2 0  12 2 0  12.75 2 0  13.5 2 0  14.25 2 0  15 2 0  15.75 2 0  16.5 2 0  17.25 2 0  18 2 0  18.75 2 0  19.5 2 0  20.25 2 0  21 2 0  21.75 2 0  22.5 2 0  23.25 2 0  24 2 0  24.75 2 0  25.5 2 0  26.25 2 0  27 2 0  27.75 2 0  28.5 2 0  29.25 2 0  30 2 0  30.75 2 0  31.5 2 0  32.25 2 0  33 2 0  33.75 2 0  34.5 2 0  35.25 2 0  36 2 0  36.75 2 0  37.5 2 0  38.25 2 0  39 2 0  39.75 2 0  40.5 2 0  41.25 2 0  42 2 0  42.75 2 0  43.5 2 0  44.25 2 0  45 2 0  45.75 2 0  46.5 2 0  47.25 2 0  48 2 0  48.75 2 0  49.5 2 0  50.25 2 0  51 2 0  51.75 2 0  52.5 2 0  53.25 2 0  54 2 0  54.75 2 0  55.5 2 0  56.25 2 0  57 2 0  57.75 2 0  58.5 2 0  59.25 2 0  60 2 0  0 2.5 0  0.75 2.5 0  1.5 2.5 0  2.25 2.5 0  3 2.5 0  3.75 2.5 0  4.5 2.5 0  5.25 2.5 0  6 2.5 0  6.75 2.5 0  7.5 2.5 0  8.25 2.5 0  9 2.5 0  9.75 2.5 0  10.5 2.5 0  11.25 2.5 0  12 2.5 0  12.75 2.5 0  13.5 2.5 0  14.25 2.5 0  15 2.5 0  15.75 2.5 0  16.5 2.5 0  17.25 2.5 0  18 2.5 0  18.75 2.5 0  19.5 2.5 0  20.25 2.5 0  21 2.5 0  21.75 2.5 0  22.5 2.5 0  23.25 2.5 0  24 2.5 0  24.75 2.5 0  25.5 2.5 0  26.25 2.5 0  27 2.5 0  27.75 2.5 0  28.5 2.5 0  29.25 2.5 0  30 2.5 0  30.75 2.5 0  31.5 2.5 0  32.25 2.5 0  33 2.5 0  33.75 2.5 0  34.5 2.5 0  35.25 2.5 0  36 2.5 0  36.75 2.5 0  37.5 2.5 0  38.25 2.5 0  39 2.5 0  39.75 2.5 0  40.5 2.5 0  41.25 2.5 0  42 2.5 0  42.75 2.5 0  43.5 2.5 0  44.25 2.5 0  45 2.5 0  45.75 2.5 0  46.5 2.5 0  47.25 2.5 0  48 2.5 0  48.75 2.5 0  49.5 2.5 0  50.25 2.5 0  51 2.5 0  51.75 2.5 0  52.5 2.5 0  53.25 2.5 0  54 2.5 0  54.75 2.5 0  55.5 2.5 0  56.25 2.5 0  57 2.5 0  57.75 2.5 0  58.5 2.5 0  59.25 2.5 0  60 2.5 0  0 3 0  0.75 3 0  1.5 3 0  2.25 3 0  3 3 0  3.75 3 0  4.5 3 0  5.25 3 0  6 3 0  6.75 3 0  7.5 3 0  8.25 3 0  9 3 0  9.75 3 0  10.5 3 0  11.25 3 0  12 3 0  12.75 3 0  13.5 3 0  14.25 3 0  15 3 0  15.75 3 0  16.5 3 0  17.25 3 0  18 3 0  18.75 3 0  19.5 3 0  20.25 3 0  21 3 0  21.75 3 0  22.5 3 0  23.25 3 0  24 3 0  24.75 3 0  25.5 3 0  26.25 3 0  27 3 0  27.75 3 0  28.5 3 0  29.25 3 0  30 3 0  30.75 3 0  31.5 3 0  32.25 3 0  33 3 0  33.75 3 0  34.5 3 0  35.25 3 0  36 3 0  36.75 3 0  37.5 3 0  38.25 3 0  39 3 0  39.75 3 0  40.5 3 0  41.25 3 0  42 3 0  42.75 3 0  43.5 3 0  44.25 3 0  45 3 0  45.75 3 0  46.5 3 0  47.25 3 0  48 3 0  48.75 3 0  49.5 3 0  50.25 3 0  51 3 0  51.75 3 0  52.5 3 0  53.25 3 0  54 3 0  54.75 3 0  55.5 3 0  56.25 3 0  57 3 0  57.75 3 0  58.5 3 0  59.25 3 0  60 3 0  0 3.5 0  0.75 3.5 0  1.5 3.5 0  2.25 3.5 0  3 3.5 0  3.75 3.5 0  4.5 3.5 0  5.25 3.5 0  6 3.5 0  6.75 3.5 0  7.5 3.5 0  8.25 3.5 0  9 3.5 0  9.75 3.5 0  10.5 3.5 0  11.25 3.5 0  12 3.5 0  12.75 3.5 0  13.5 3.5 0  14.25 3.5 0  15 3.5 0  15.75 3.5 0  16.5 3.5 0  17.25 3.5 0  18 3.5 0  18.75 3.5 0  19.5 3.5 0  20.25 3.5 0  21 3.5 0  21.75 3.5 0  22.5 3.5 0  23.25 3.5 0  24 3.5 0  24.75 3.5 0  25.5 3.5 0  26.25 3.5 0  27 3.5 0  27.75 3.5 0  28.5 3.5 0  29.25 3.5 0  30 3.5 0  30.75 3.5 0  31.5 3.5 0  32.25 3.5 0  33 3.5 0  33.75 3.5 0  34.5 3.5 0  35.25 3.5 0  36 3.5 0  36.75 3.5 0  37.5 3.5 0  38.25 3.5 0  39 3.5 0  39.75 3.5 0  40.5 3.5 0  41.25 3.5 0  42 3.5 0  42.75 3.5 0  43.5 3.5 0  44.25 3.5 0  45 3.5 0  45.75 3.5 0  46.5 3.5 0  47.25 3.5 0  48 3.5 0  48.75 3.5 0  49.5 3.5 0  50.25 3.5 0  51 3.5 0  51.75 3.5 0  52.5 3.5 0  53.25 3.5 0  54 3.5 0  54.75 3.5 0  55.5 3.5 0  56.25 3.5 0  57 3.5 0  57.75 3.5 0  58.5 3.5 0  59.25 3.5 0  60 3.5 0  0 4 0  0.75 4 0  1.5 4 0  2.25 4 0  3 4 0  3.75 4 0  4.5 4 0  5.25 4 0  6 4 0  6.75 4 0  7.5 4 0  8.25 4 0  9 4 0  9.75 4 0  10.5 4 0  11.25 4 0  12 4 0  12.75 4 0  13.5 4 0  14.25 4 0  15 4 0  15.75 4 0  16.5 4 0  17.25 4 0  18 4 0  18.75 4 0  19.5 4 0  20.25 4 0  21 4 0  21.75 4 0  22.5 4 0  23.25 4 0  24 4 0  24.75 4 0  25.5 4 0  26.25 4 0  27 4 0  27.75 4 0  28.5 4 0  29.25 4 0  30 4 0  30.75 4 0  31.5 4 0  32.25 4 0  33 4 0  33.75 4 0  34.5 4 0  35.25 4 0  36 4 0  36.75 4 0  37.5 4 0  38.25 4 0  39 4 0  39.75 4 0  40.5 4 0  41.25 4 0  42 4 0  42.75 4 0  43.5 4 0  44.25 4 0  45 4 0  45.75 4 0  46.5 4 0  47.25 4 0  48 4 0  48.75 4 0  49.5 4 0  50.25 4 0  51 4 0  51.75 4 0  52.5 4 0  53.25 4 0  54 4 0  54.75 4 0  55.5 4 0  56.25 4 0  57 4 0  57.75 4 0  58.5 4 0  59.25 4 0  60 4 0  0.375 0.25 0  1.125 0.25 0  1.875 0.25 0  2.625 0.25 0  3.375 0.25 0  4.125 0.25 0  4.875 0.25 0  5.625 0.25 0  6.375 0.25 0  7.125 0.25 0  7.875 0.25 0  8.625 0.25 0  9.375 0.25 0  10.125 0.25 0  10.875 0.25 0  11.625 0.25 0  12.375 0.25 0  13.125 0.25 0  13.875 0.25 0  14.625 0.25 0  15.375 0.25 0  16.125 0.25 0  16.875 0.25 0  17.625 0.25 0  18.375 0.25 0  19.125 0.25 0  19.875 0.25 0  20.625 0.25 0  21.375 0.25 0  22.125 0.25 0  22.875 0.25 0  23.625 0.25 0  24.375 0.25 0  25.125 0.25 0  25.875 0.25 0  26.625 0.25 0  27.375 0.25 0  28.125 0.25 0  28.875 0.25 0  29.625 0.25 0  30.375 0.25 0  31.125 0.25 0  31.875 0.25 0  32.625 0.25 0  33.375 0.25 0  34.125 0.25 0  34.875 0.25 0  35.625 0.25 0  36.375 0.25 0  37.125 0.25 0  37.875 0.25 0  38.625 0.25 0  39.375 0.25 0  40.125 0.25 0  40.875 0.25 0  41.625 0.25 0  42.375 0.25 0  43.125 0.25 0  43.875 0.25 0  44.625 0.25 0  45.375 0.25 0  46.125 0.25 0  46.875 0.25 0  47.625 0.25 0  48.375 0.25 0  49.125 0.25 0  49.875 0.25 0  50.625 0.25 0  51.375 0.25 0  52.125 0.25 0  52.875 0.25 0  53.625 0.25 0  54.375 0.25 0  55.125 0.25 0  55.875 0.25 0  56.625 0.25 0  57.375 0.25 0  58.125 0.25 0  58.875 0.25 0  59.625 0.25 0  0.375 0.75 0  1.125 0.75 0  1.875 0.75 0  2.625 0.75 0  3.375 0.75 0  4.125 0.75 0  4.875 0.75 0  5.625 0.75 0  6.375 0.75 0  7.125 0.75 0  7.875 0.75 0  8.625 0.75 0  9.375 0.75 0  10.125 0.75 0  10.875 0.75 0  11.625 0.75 0  12.375 0.75 0  13.125 0.75 0  13.875 0.75 0  14.625 0.75 0  15.375 0.75 0  16.125 0.75 0  16.875 0.75 0  17.625 0.75 0  18.375 0.75 0  19.125 0.75 0  19.875 0.75 0  20.625 0.75 0  21.375 0.75 0  22.125 0.75 0  22.875 0.75 0  23.625 0.75 0  24.375 0.75 0  25.125 0.75 0  25.875 0.75 0  26.625 0.75 0  27.375 0.75 0  28.125 0.75 0  28.875 0.75 0  29.625 0.75 0  30.375 0.75 0  31.125 0.75 0  31.875 0.75 0  32.625 0.75 0  33.375 0.75 0  34.125 0.75 0  34.875 0.75 0  35.625 0.75 0  36.375 0.75 0  37.125 0.75 0  37.875 0.75 0  38.625 0.75 0  39.375 0.75 0  40.125 0.75 0  40
[...]
<PointData  Scalars="f_8-1"> 
<DataArray  type="Float64"  Name="f_8-1"  format="ascii">-1.4378543118415093e-03  -2.3537990617152489e-04  -2.2515561194406741e-04  -2.0102490439576488e-04  -1.7929168002826445e-04  -1.5629417332300657e-04  -1.3455700168993925e-04  -1.1602442965565413e-04  -1.0141532846644589e-04  -9.0533335997576681e-05  -8.2732316634803006e-05  -7.7217447625101091e-05  -7.3251218251230735e-05  -7.0295018240731818e-05  -6.7926341535658167e-05  -6.5813451099613679e-05  -6.3871011332056508e-05  -6.2293914495456420e-05  -6.1335692781640643e-05  -6.1115363395193250e-05  -6.1671220320392138e-05  -6.3143210337729034e-05  -6.5843801412295222e-05  -7.0139378259379250e-05  -7.6251084369929824e-05  -8.4122724015828660e-05  -9.3422307637555974e-05  -1.0364727303387306e-04  -1.1426067808352490e-04  -1.2479689888764096e-04  -1.3491247957166932e-04  -1.4438935053744174e-04  -1.5311232793813477e-04  -1.6104071872040398e-04  -1.6818494777458320e-04  -1.7459022961232879e-04  -1.8032513187037747e-04  -1.8547231600263137e-04  -1.9012030455766024e-04  -1.9435636540374952e-04  -1.9826116966219960e-04  -2.0190555932456540e-04  -2.0534931791634927e-04  -2.0864141889156970e-04  -2.1182114449052897e-04  -2.1491952868794861e-04  -2.1796078439785313e-04  -2.2096354118615513e-04  -2.2394186599249274e-04  -2.2690609615578990e-04  -2.2986354453586035e-04  -2.3281910968556355e-04  -2.3577583222284118e-04  -2.3873535591142900e-04  -2.4169839947474591e-04  -2.4466495599008854e-04  -2.4763490081210242e-04  -2.5060734275255108e-04  -2.5358275986978458e-04  -2.5655832906230599e-04  -2.5953899590431558e-04  -2.6251229170817043e-04  -2.6550479042856186e-04  -2.6845823641438531e-04  -2.7149502606576762e-04  -2.7436368509863935e-04  -2.7756413634282147e-04  -2.8013662442523559e-04  -2.8384924150497674e-04  -2.8557910980849752e-04  -2.9049249049600622e-04  -2.9029771606620678e-04  -2.9642103565538712e-04  -2.9349459916877855e-04  -3.0099046139867567e-04  -3.3307049537789602e-04  -3.3442858147146755e-04  -4.1498547870667541e-04  -5.1277436568134566e-06  -8.8259350618007950e-04  1.3915133988467738e-03  2.1300865464427598e-05  -2.6913529088282650e-04  -2.1524047533828439e-04  -2.0284361466096042e-04  -1.8605660825909238e-04  -1.6643441910062112e-04  -1.4664492586826154e-04  -1.2893283395350400e-04  -1.1438042627873559e-04  -1.0314896955540391e-04  -9.4848455679005038e-05  -8.8869380228173876e-05  -8.4550357197709909e-05  -8.1358346458371597e-05  -7.8869499335257827e-05  -7.6760668273319078e-05  -7.4909942063769249e-05  -7.3439330250937612e-05  -7.2552661329801908e-05  -7.2374137781735818e-05  -7.2963529746621067e-05  -7.4451100414571117e-05  -7.7101205020492654e-05  -8.1229518963648860e-05  -8.7042127211406364e-05  -9.4516488993282661e-05  -1.0338634795453335e-04  -1.1321836208663746e-04  -1.2352472158140977e-04  -1.3385992131919550e-04  -1.4387543990379730e-04  -1.5333345159127269e-04  -1.6209463244263000e-04  -1.7009657760658889e-04  -1.7733307868739059e-04  -1.8383775897566962e-04  -1.8967143886317156e-04  -1.9491170597864466e-04  -1.9964387930258793e-04  -2.0395346225147493e-04  -2.0792051618844954e-04  -2.1161617791455359e-04  -2.1510114877619719e-04  -2.1842566852014911e-04  -2.2163039596556644e-04  -2.2474768779542808e-04  -2.2780293389409843e-04  -2.3081576685538089e-04  -2.3380109063467639e-04  -2.3676994022636002e-04  -2.3973020903863559e-04  -2.4268728511164014e-04  -2.4564459997073655e-04  -2.4860414134885513e-04  -2.5156681871326054e-04  -2.5453293951006699e-04  -2.5750217963365246e-04  -2.6047447062739986e-04  -2.6344860615365500e-04  -2.6642566424172389e-04  -2.6940198003687463e-04  -2.7238372682290954e-04  -2.7535796335585554e-04  -2.7834799191992274e-04  -2.8131222067809719e-04  -2.8431924496432687e-04  -2.8726347003571343e-04  -2.9029193251727410e-04  -2.9322329424754306e-04  -2.9622812331810838e-04  -2.9918112502520225e-04  -3.0181610203438994e-04  -3.0465033070354398e-04  -3.0521279937824043e-04  -3.1477087752525279e-04  -3.2943341237431987e-04  -3.7156938542682970e-04  -2.9143764900908331e-04  -2.5218851002658735e-04  -2.0646321895687901e-04  -3.2816265202146309e-04  1.3001135981168398e-06  -1.6197836876373996e-04  -1.9815203646465865e-04  -1.9790182689295377e-04  -1.8430876671847273e-04  -1.6336887788729018e-04  -1.4073977169622260e-04  -1.2013178212027175e-04  -1.0338656588674521e-04  -9.0816400127881301e-05  -8.1890166172102002e-05  -7.5859543738890494e-05  -7.1777306867407299e-05  -6.8867735847925483e-05  -6.6766449595106564e-05  -6.5136598400995443e-05  -6.3613644481940406e-05  -6.2175458743190170e-05  -6.1172810303126968e-05  -6.0933067318223588e-05  -6.1518692740131578e-05  -6.2882338658337686e-05  -6.5136586505409771e-05  -6.8614720178488843e-05  -7.3693533611638831e-05  -8.0557740302546419e-05  -8.9077364250275031e-05  -9.8843854285014476e-05  -1.0930663228959629e-04  -1.1992151294647992e-04  -1.3025058842579555e-04  -1.3999809170543435e-04  -1.4899898082561901e-04  -1.5718686418623700e-04  -1.6456156160805157e-04  -1.7116501371724878e-04  -1.7706551567141948e-04  -1.8234695718768565e-04  -1.8710030246393090e-04  -1.9141634546253423e-04  -1.9537996741543511e-04  -1.9906636110373250e-04  -2.0253929681209737e-04  -2.0585107061648359e-04  -2.0904353131469432e-04  -2.1214960220869791e-04  -2.1519486354009031e-04  -2.1819895985120390e-04  -2.2117675091535641e-04  -2.2413922485785143e-04  -2.2709423543862894e-04  -2.3004711560144412e-04  -2.3300123104608302e-04  -2.3595843494336708e-04  -2.3891956132999066e-04  -2.4188462421345888e-04  -2.4485347415048418e-04  -2.4782517869204577e-04  -2.5080000971957028e-04  -2.5377556699313222e-04  -2.5675513802089485e-04  -2.5973082368281700e-04  -2.6271666055734387e-04  -2.6568623448755730e-04  -2.6868471589501275e-04  -2.7163839195051603e-04  -2.7465746732082926e-04  -2.7759264858819038e-04  -2.8061655300944973e-04  -2.8357361378814679e-04  -2.8650647656268478e-04  -2.8959386252799850e-04  -2.9227214977636101e-04  -2.9590304858827433e-04  -2.9931204842441599e-04  -3.0721172288552227e-04  -3.1274964004581422e-04  -2.9585167706367311e-04  -2.0078200406061750e-04  -1.8896277838040650e-04  9.4061309524940949e-05  2.3041574274042949e-06  -1.1247586550048127e-04  -1.6616618122540315e-04  -1.7791055134986643e-04  -1.6766998136709768e-04  -1.4693321909281168e-04  -1.2334210799004291e-04  -1.0154176487849303e-04  -8.3791483146670252e-05  -7.0574214604824355e-05  -6.1291614072843593e-05  -5.5184317877148424e-05  -5.1199964507277366e-05  -4.8419616504043073e-05  -4.6495797760208961e-05  -4.5106593396695650e-05  -4.3769891101953261e-05  -4.2382398666310259e-05  -4.1348811052756400e-05  -4.1083217526218039e-05  -4.1651829603267611e-05  -4.2939159261991578e-05  -4.4997460430545500e-05  -4.8163155537035982e-05  -5.2875603392006144e-05  -5.9403219806864090e-05  -6.7681735524370812e-05  -7.7330983666724863e-05  -8.7792523074710081e-05  -9.8491551017618729e-05  -1.0895235422078559e-04  -1.1884578872068699e-04  -1.2798338795142229e-04  -1.3628598495041248e-04  -1.4374915188027247e-04  -1.5041613901857636e-04  -1.5635936165271609e-04  -1.6166765180227738e-04  -1.6643653980620869e-04  -1.7076048743382120e-04  -1.7472706103305592e-04  -1.7841330757404893e-04  -1.8188423537413484e-04  -1.8519295655357798e-04  -1.8838185354907205e-04  -1.9148419585619705e-04  -1.9452578609866975e-04  -1.9752641300586354e-04  -2.0050103214482097e-04  -2.0346069780655368e-04  -2.0641330407145691e-04  -2.0936420617656887e-04  -2.1231675526567559e-04  -2.1527279711620759e-04  -2.1823306761451601e-04  -2.2119763855330587e-04  -2.2416603046101078e-04  -2.2713784545759928e-04  -2.3011200778645666e-04  -2.3308882637779923e-04  -2.3606588496058432e-04  -2.3904658865840753e-04  -2.4202317345544579e-04  -2.4500938973931198e-04  -2.4797984538035183e-04  -2.5097786720139082e-04  -2.5393213975748614e-04  -2.5695313269131635e-04  -2.5987965421017748e-04  -2.6293973030524972e-04  -2.6584612995645155e-04  -2.6905131904504469e-04  -2.7201028059935348e-04  -2.7552552818046338e-04  -2.7707695629719282e-04  -2.7801213311639937e-04  -2.8515967278012908e-04  -2.5287028879812629e-04  -2.0541581395583876e-04  -6.6352009521561021e-05  -4.0569944726288488e-05  4.5652795990927132e-07  -1.0301413106345841e-04  -1.5967092708468400e-04  -1.7568911431351024e-04  -1.6788327124148285e-04  -1.4856232345385840e-04  -1.2572865199931760e-04  -1.0422783868942049e-04  -8.6480447866881492e-05  -7.3088579104683344e-05  -6.3649411024305940e-05  -5.7359079297133622e-05  -5.3211347983685022e-05  -5.0423741272058867e-05  -4.8517991686725234e-05  -4.7066382423046748e-05  -4.5741035843716153e-05  -4.4530013527232085e-05  -4.3678492994533425e-05  -4.3428698540012419e-05  -4.3886741981301723e-05  -4.5111435446312365e-05  -4.7257965720876170e-05  -5.0606032121350979e-05  -5.5450733293706131e-05  -6.1950477700758631e-05  -7.0032111713893761e-05  -7.9393273779380314e-05  -8.9580255804499158e-05  -1.0009350409316413e-04  -1.1047891785647054e-04  -1.2038413664286185e-04  -1.2957818296748948e-04  -1.3794392892020594e-04  -1.4545562776867177e-04  -1.5215181810398202e-04  -1.5811013866716948e-04  -1.6342720727530115e-04  -1.6820429663285275e-04  -1.7253823347297573e-04  -1.7651636745877935e-04  -1.8021439618767058e-04  -1.8369600057522689e-04  -1.8701352556413193e-04  -1.9020918803909378e-04  -1.9331648713449888e-04  -1.9636161195979828e-04  -1.9936472804745918e-04  -2.0234108542073248e-04  -2.0530194227373177e-04  -2.0825533106883567e-04  -2.1120670337374805e-04  -2.1415949339727961e-04  -2.1711560315720361e-04  -2.2007585342657292e-04  -2.2304030324933060e-04  -2.2600864941880024e-04  -2.2898020964269580e-04  -2.3195460250284358e-04  -2.3493070054105678e-04  -2.3790909570116269e-04  -2.4088713239280368e-04  -2.4386890398393101e-04  -2.4684578075289076e-04  -2.4983301194991884e-04  -2.5280323312015308e-04  -2.5580251660162494e-04  -2.5875609662972160e-04  -2.6178196933628175e-04  -2.6470855184787274e-04  -2.6782016150278385e-04  -2.7074724391663104e-04  -2.7415887839839470e-04  -2.7670987098329898e-04  -2.7892987086784081e-04  -2.7997767877199455e-04  -2.7899337316889092e-04  -2.5629513095898300e-04  -1.8031772829488139e-04  -1.0506648651807977e-04  1.7795476318703529e-05  2.3790491180266520e-06  -1.1227887833769497e-04  -1.6604810229577330e-04  -1.7793052764119815e-04  -1.6779856236864087e-04  -1.4709143595951026e-04  -1.2346534453649863e-04  -1.0157540502563143e-04  -8.3767512635833576e-05  -7.0441880893985304e-05  -6.1172087728366905e-05  -5.5079648257644619e-05  -5.1035361480543783e-05  -4.8380459839062642e-05  -4.6618995599977880e-05  -4.5196515481134990e-05  -4.3861656048290162e-05  -4.2724148797383363e-05  -4.1965099073789187e-05  -4.1697417407726666e-05  -4.2032633813256280e-05  -4.3156489464404505e-05  -4.5322187058679206e-05  -4.8791718263777713e-05  -5.3763540865524040e-05  -6.0310046278989996e-05  -6.8339706992258950e-05  -7.7595715077784588e-05  -8.7691488813134824e-05  -9.8173447799468862e-05  -1.0859365955693410e-04  -1.1857401226539453e-04  -1.2784711200798137e-04  -1.3626801515190040e-04  -1.4380031358724165e-04  -1.5048701319092737e-04  -1.5641786922332922e-04  -1.6170190124354522e-04  -1.6644883003084622e-04  -1.7075915416334052e-04  -1.7472038107726697e-04  -1.7840668326624969e-04  -1.8187994705210769e-04  -1.8519116227120583e-04  -1.8838176918664108e-04  -1.9148492274571467e-04  -1.9452669141786097e-04  -1.9752718957107777e-04  -2.0050160751243558e-04  -2.0346111607614725e-04  -2.0641363910675224e-04  -2.0936451795240343e-04  -2.1231707835185615e-04  -2.1527314567507219e-04  -2.1823344503573867e-04  -2.2119804571986488e-04  -2.2416647077110275e-04  -2.2713832743238710e-04  -2.3011254577918940e-04  -2.3308944198535569e-04  -2.3606660630592902e-04  -2.3904745487000268e-04  -2.4202422954167015e-04  -2.4501070018058494e-04  -2.4798147144746737e-04  -2.5097990496515975e-04  -2.5393464915761930e-04  -2.5695622784581044e-04  -2.5988334013943981e-04  -2.6294405395319275e-04  -2.6585094754656723e-04  -2.6905633905307386e-04  -2.7201517417419093e-04  -2.7552905321763646e-04  -2.7707860625613112e-04  -2.7800774872534728e-04  -2.8515196692046382e-04  -2.5284352176742212e-04  -2.0538664302405680e-04  -6.6334900539673125e-05  -4.0579254195796416e-05  1.3327707536244357e-06  -1.6185803809508510e-04  -1.9812400993733214e-04  -1.9802469703200236e-04  -1.8454582366754919e-04  -1.6363637680830596e-04  -1.4096042325067459e-04  -1.2026337788071689e-04  -1.0344021548108867e-04  -9.0788792705457210e-05  -8.1874530478085486e-05  -7.5863785259768684e-05  -7.1794034902345958e-05  -6.9028848559677782e-05  -6.7079546815441491e-05  -6.5481389490508929e-05  -6.4043324377560575e-05  -6.2857590947930074e-05  -6.2074042352565793e-05  -6.1801566293966784e-05  -6.2175633857985610e-05  -6.3411846785375861e-05  -6.5775317064941481e-05  -6.9506835355620961e-05  -7.4756749613117429e-05  -8.1542974378785176e-05  -8.9734510201160283e-05  -9.9059954658008192e-05  -1.0914100048593988e-04  -1.1954615623066208e-04  -1.2985378171337318e-04  -1.3970923494868159e-04  -1.4886237622341149e-04  -1.5717866318993735e-04  -1.6462631724508732e-04  -1.7124886630394856e-04  -1.7713412337805917e-04  -1.8238796892725755e-04  -1.8711666500545725e-04  -1.9141745612225034e-04  -1.9537508217730684e-04  -1.9906153888802895e-04  -2.0253712349588355e-04  -2.0585175054824216e-04  -2.0904619181908178e-04  -2.1215322211084927e-04  -2.1519871077066533e-04  -2.1820266955527664e-04  -2.2118022924605895e-04  -2.2414251674486246e-04  -2.2709742466388202e-04  -2.3005027269700314e-04  -2.3300439812320778e-04  -2.3596163019206298e-04  -2.3892278965387544e-04  -2.4188788668529307e-04  -2.4485677418541570e-04  -2.4782852463999205e-04  -2.5080341687066360e-04  -2.5377905631171781e-04  -2.5675874049987778e-04  -2.5973457316768510e-04  -2.6272060982104797e-04  -2.6569042587193777e-04  -2.6868923166957677e-04  -2.7164326251782563e-04  -2.7466279676836890e-04  -2.7759840866306676e-04  -2.8062279039668621e-04  -2.8358017816101661e-04  -2.8651308470782519e-04  -2.8960026381172213e-04  -2.9227693016519178e-04  -2.9590673774017572e-04  -2.9931034347926674e-04  -3.0720957271860612e-04  -3.1273611775216808e-04  -2.9583395393554954e-04  -2.0072988888355126e-04  -1.8895422148194337e-04  9.4096431631145907e-05  2.1375859850080668e-05  -2.6927033494600897e-04  -2.1545332962307043e-04  -2.0317779025066652e-04  -1.8645582459842321e-04  -1.6682718509323393e-04  -1.4697795424457302e-04  -1.2919585488467648e-04  -1.1458567140422513e-04  -1.0333686845521634e-04  -9.5064941873648488e-05  -8.9137079448249585e-05  -8.4917769102106587e-05  -8.1859242902530219e-05  -7.9474866604479995e-05  -7.7470396046789509e-05  -7.5789367745866733e-05  -7.4493719691045765e-05  -7.3652240199132617e-05  -7.3364836461730295e-05  -7.3817074103088779e-05  -7.5272702316966567e-05  -7.8002150583872604e-05  -8.2205118216982729e-05  -8.7958916984131287e-05  -9.5199154990625295e-05  -1.0372430400054895e-04  -1.1322015374275716e-04  -1.2330045991152094e-04  -1.3355889065348606e-04  -1.4362199150402640e-04  -1.5319159404186532e-04  -1.6206771820604193e-04  -1.7014994133840379e-04  -1.7742175574770696e-04  -1.8392627104375331e-04  -1.8974138167753558e-04  -1.9495973317252999e-04  -1.9967533990551678e-04  -2.0397616206896895e-04  -2.0794082708466334e-04  -2.1163769466132023e-04  -2.1512502794496406e-04  -2.1845161776154758e-04  -2.2165760366613723e-04  -2.2477539901274385e-04  -2.2783067278627506e-04  -2.3084333286557630e-04  -2.3382846252711874e-04  -2.3679717602208836e-04  -2.3975737897616932e-04  -2.4271444102881467e-04  -2.4567176968527904e-04  -2.4863133488925394e-04  -2.5159403708114496e-04  -2.5456018165927533e-04  -2.5752944631892555e-04  -2.6050176631196869e-04  -2.6347593864191240e-04  -2.6645304594820801e-04  -2.6942942420851007e-04  -2.7241125400055487e-04  -2.7538558566328215e-04  -2.7837573910025027e-04  -2.8134008255240229e-04  -2.8434725800890423e-04  -2.8729154901999533e-04  -2.9032009186935571e-04  -2.9325128466376220e-04  -2.9625582429228497e-04  -2.9920799369063857e-04  -3.0184170098553092e-04  -3.0467348489349150e-04  -3.0523222978882296e-04  -3.1478728257555201e-04  -3.2944808486241888e-04  -3.7159591059191487e-04  -2.9144004351372720e-04  -2.5219243325830330e-04  -2.0638592085569390e-04  -3.2826957975461341e-04  -1.4386939941864452e-03  -2.3550743456634532e-04  -2.2544993027429625e-04  -2.0147551817624316e-04  -1.7982836655044230e-04  -1.5682818595594465e-04  -1.3502777573307223e-04  -1.1641954522397175e-04  -1.0175290534342882e-04  -9.0865389421766201e-05  -8.3108904536516900e-05  -7.7666186606696388e-05  -7.3832246287781856e-05  -7.1040149705204190e-05  -6.8792624512131870e-05  -6.6802844571596770e-05  -6.5061742504226688e-05  -6.3681787693844411e-05  -6.2756646239422645e-05  -6.2390005825269091e-05  -6.2776815776862047e-05  -6.4205620722092418e-05  -6.6979068416009413e-05  -7.1319087682738849e-05  -7.7304546578409463e-05  -8.4850279909798250e-05  -9.3718611131348570e-05  -1.0355339918205997e-04  -1.1393026351802002e-04  -1.2441526666358082e-04  -1.3462153944941133e-04  -1.4425166786346313e-04  -1.5311774876273446e-04  -1.6113799225463043e-04  -1.6831612343526841e-04  -1.7471312528625338e-04  -1.8042025750696699e-04  -1.8553856251273115e-04  -1.9016624135410280e-04  -1.9439247852797036e-04  -1.9829540032663859e-04  -2.0194205663773163e-04  -2.0538915752206486e-04  -2.0868397291550592e-04  -2.1186526241770550e-04  -2.1496422260953882e-04  -2.1800546290455546e-04  -2.2100797210179005e-04  -2.2398603957377611e-04  -2.2695009481335648e-04  -2.2990745980650947e-04  -2.3286300645280420e-04  -2.3581974383879428e-04  -2.3877929306873237e-04  -2.4174236147124571e-04  -2.4470893910969387e-04  -2.4767890299947411e-04  -2.5065136486351100e-04  -2.5362680624683884e-04  -2.5660240506501580e-04  -2.5958311064960094e-04  -2.6255644737482138e-04  -2.6554900162874549e-04  -2.6850247694280388e-04  -2.7153933464873993e-04  -2.7440791145424737e-04  -2.7760844820184531e-04  -2.8018041556513546e-04  -2.8389322120046345e-04  -2.8562127583074042e-04  -2.9053522184827399e-04  -2.9033561061438627e-04  -2.9646043745359236e-04  -2.9352221150475349e-04  -3.0102528617403316e-04  -3.3308685813286578e-04  -3.3448213696184517e-04  -4.1499436995357132e-04  -5.1616544581597138e-06  -8.8253079401961294e-04  1.3913437532527496e-03  -3.7081461787202505e-04  -2.1626042808461939e-04  -1.9559697186725020e-04  -1.7794656861216620e-04  -1.5861930054713919e-04  -1.3853177793761985e-04  -1.1988519541609846e-04  -1.0408857389583211e-04  -9.1576329643384318e-05  -8.2137923290372030e-05  -7.5222182367186001e-05  -7.0201452202961546e-05  -6.6504807038442759e-05  -6.3672731878370174e-05  -6.1331489515050104e-05  -5.9280939360563389e-05  -5.7563481841260953e-05  -5.6366177636122427e-05  -5.5838195924837867e-05  -5.6049843926082728e-05  -5.7100545583081424e-05  -5.9218046504964885e-05  -6.2719442938615142e-05  -6.7865597372441716e-05  -7.4718962066129627e-05  -8.3093255338537598e-05  -9.2603486468731245e-05  -1.0277197512075069e-04  -1.1313321616894478e-04  -1.2330306693172127e-04  -1.3300480094770875e-04  -1.4206423228100158e-04  -1.5039048712893650e-04  -1.5795512528167318e-04  -1.6477487837062219e-04  -1.7089844037815774e-04  -1.7639570067622958e-04  -1.8134834850310546e-04  -1.8584166718145146e-04  -1.8995800162026057e-04  -1.9377228182189523e-04  -1.9734964362969992e-04  -2.0074476948745250e-04  -2.0400239826455507e-04  -2.0715844319172278e-04  -2.1024130419152658e-04  -2.1327312219677068e-04  -2.1627087407726804e-04  -2.1924729402456343e-04  -2.2221165309403720e-04  -2.2517043178843388e-04  -2.2812791369578107e-04  -2.3108670629733182e-04  -2.3404819996030186e-04  -2.3701293520920661e-04  -2.3998093793209781e-04  -2.4295187830134632e-04  -2.4592539903627931e-04  -2.4890085492204291e-04  -2.5187818094332866e-04  -2.5485621535370939e-04  -2.5783622697199762e-04  -2.6081493958516374e-04  -2.6379778995621537e-04  -2.6677489535554947e-04  -2.6976218604279889e-04  -2.7273514171046587e-04  -2.7572747237020412e-04  