<?xml version="1.0"?>
<VTKFile type="UnstructuredGrid"  version="0.1"  >
<UnstructuredGrid>
<Piece  NumberOfPoints="1369" NumberOfCells="2560">
<Points>
<DataArray  type="Float64"  NumberOfComponents="3"  format="ascii">0 0 0  0.75 0 0  1.5 0 0  2.25 0 0  3 0 0  3.75 0 0  4.5 0 0  5.25 0 0  6 0 0  6.75 0 0  7.5 0 0  8.25 0 0  9 0 0  9.75 0 0  10.5 0 0  11.25 0 0  12 0 0  12.75 0 0  13.5 0 0  14.25 0 0  15 0 0  15.75 0 0  16.5 0 0  17.25 0 0  18 0 0  18.75 0 0  19.5 0 0  20.25 0 0  21 0 0  21.75 0 0  22.5 0 0  23.25 0 0  24 0 0  24.75 0 0  25.5 0 0  26.25 0 0  27 0 0  27.75 0 0  28.5 0 0  29.25 0 0  30 0 0  30.75 0 0  31.5 0 0  32.25 0 0  33 0 0  33.75 0 0  34.5 0 0  35.25 0 0  36 0 0  36.75 0 0  37.5 0 0  38.25 0 0  39 0 0  39.75 0 0  40.5 0 0  41.25 0 0  42 0 0  42.75 0 0  43.5 0 0  44.25 0 0  45 0 0  45.75 0 0  46.5 0 0  47.25 0 0  48 0 0  48.75 0 0  49.5 0 0  50.25 0 0  51 0 0  51.75 0 0  52.5 0 0  53.25 0 0  54 0 0  54.75 0 0  55.5 0 0  56.25 0 0  57 0 0  57.75 0 0  58.5 0 0  59.25 0 0  60 0 0  0 0.5 0  0.75 0.5 0  1.5 0.5 0  2.25 0.5 0  3 0.5 0  3.75 0.5 0  4.5 0.5 0  5.25 0.5 0  6 0.5 0  6.75 0.5 0  7.5 0.5 0  8.25 0.5 0  9 0.5 0  9.75 0.5 0  10.5 0.5 0  11.25 0.5 0  12 0.5 0  12.75 0.5 0  13.5 0.5 0  14.25 0.5 0  15 0.5 0  15.75 0.5 0  16.5 0.5 0  17.25 0.5 0  18 0.5 0  18.75 0.5 0  19.5 0.5 0  20.25 0.5 0  21 0.5 0  21.75 0.5 0  22.5 0.5 0  23.25 0.5 0  24 0.5 0  24.75 0.5 0  25.5 0.5 0  26.25 0.5 0  27 0.5 0  27.75 0.5 0  28.5 0.5 0  29.25 0.5 0  30 0.5 0  30.75 0.5 0  31.5 0.5 0  32.25 0.5 0  33 0.5 0  33.75 0.5 0  34.5 0.5 0  35.25 0.5 0  36 0.5 0  36.75 0.5 0  37.5 0.5 0  38.25 0.5 0  39 0.5 0  39.75 0.5 0  40.5 0.5 0  41.25 0.5 0  42 0.5 0  42.75 0.5 0  43.5 0.5 0  44.25 0.5 0  45 0.5 0  45.75 0.5 0  46.5 0.5 0  47.25 0.5 0  48 0.5 0  48.75 0.5 0  49.5 0.5 0  50.25 0.5 0  51 0.5 0  51.75 0.5 0  52.5 0.5 0  53.25 0.5 0  54 0.5 0  54.75 0.5 0  55.5 0.5 0  56.25 0.5 0  57 0.5 0  57.75 0.5 0  58.5 0.5 0  59.25 0.5 0  60 0.5 0  0 1 0  0.75 1 0  1.5 1 0  2.25 1 0  3 1 0  3.75 1 0  4.5 1 0  5.25 1 0  6 1 0  6.75 1 0  7.5 1 0  8.25 1 0  9 1 0  9.75 1 0  10.5 1 0  11.25 1 0  12 1 0  12.75 1 0  13.5 1 0  14.25 1 0  15 1 0  15.75 1 0  16.5 1 0  17.25 1 0  18 1 0  18.75 1 0  19.5 1 0  20.25 1 0  21 1 0  21.75 1 0  22.5 1 0  23.25 1 0  24 1 0  24.75 1 0  25.5 1 0  26.25 1 0  27 1 0  27.75 1 0  28.5 1 0  29.25 1 0  30 1 0  30.75 1 0  31.5 1 0  32.25 1 0  33 1 0  33.75 1 0  34.5 1 0  35.25 1 0  36 1 0  36.75 1 0  37.5 1 0  38.25 1 0  39 1 0  39.75 1 0  40.5 1 0  41.25 1 0  42 1 0  42.75 1 0  43.5 1 0  44.25 1 0  45 1 0  45.75 1 0  46.5 1 0  47.25 1 0  48 1 0  48.75 1 0  49.5 1 0  50.25 1 0  51 1 0  51.75 1 0  52.5 1 0  53.25 1 0  54 1 0  54.75 1 0  55.5 1 0  56.25 1 0  57 1 0  57.75 1 0  58.5 1 0  59.25 1 0  60 1 0  0 1.5 0  0.75 1.5 0  1.5 1.5 0  2.25 1.5 0  3 1.5 0  3.75 1.5 0  4.5 1.5 0  5.25 1.5 0  6 1.5 0  6.75 1.5 0  7.5 1.5 0  8.25 1.5 0  9 1.5 0  9.75 1.5 0  10.5 1.5 0  11.25 1.5 0  12 1.5 0  12.75 1.5 0  13.5 1.5 0  14.25 1.5 0  15 1.5 0  15.75 1.5 0  16.5 1.5 0  17.25 1.5 0  18 1.5 0  18.75 1.5 0  19.5 1.5 0  20.25 1.5 0  21 1.5 0  21.75 1.5 0  22.5 1.5 0  23.25 1.5 0  24 1.5 0  24.75 1.5 0  25.5 1.5 0  26.25 1.5 0  27 1.5 0  27.75 1.5 0  28.5 1.5 0  29.25 1.5 0  30 1.5 0  30.75 1.5 0  31.5 1.5 0  32.25 1.5 0  33 1.5 0  33.75 1.5 0  34.5 1.5 0  35.25 1.5 0  36 1.5 0  36.75 1.5 0  37.5 1.5 0  38.25 1.5 0  39 1.5 0  39.75 1.5 0  40.5 1.5 0  41.25 1.5 0  42 1.5 0  42.75 1.5 0  43.5 1.5 0  44.25 1.5 0  45 1.5 0  45.75 1.5 0  46.5 1.5 0  47.25 1.5 0  48 1.5 0  48.75 1.5 0  49.5 1.5 0  50.25 1.5 0  51 1.5 0  51.75 1.5 0  52.5 1.5 0  53.25 1.5 0  54 1.5 0  54.75 1.5 0  55.5 1.5 0  56.25 1.5 0  57 1.5 0  57.75 1.5 0  58.5 1.5 0  59.25 1.5 0  60 1.5 0  0 2 0  0.75 2 0  1.5 2 0  2.25 2 0  3 2 0  3.75 2 0  4.5 2 0  5.25 2 0  6 2 0  6.75 2 0  7.5 2 0  8.25 2 0  9 2 0  9.75 2 0  10.5 2 0  11.25 2 0  12 2 0  12.75 2 0  13.5 2 0  14.25 2 0  15 2 0  15.75 2 0  16.5 2 0  17.25 2 0  18 2 0  18.75 2 0  19.5 2 0  20.25 2 0  21 2 0  21.75 2 0  22.5 2 0  23.25 2 0  24 2 0  24.75 2 0  25.5 2 0  26.25 2 0  27 2 0  27.75 2 0  28.5 2 0  29.25 2 0  30 2 0  30.75 2 0  31.5 2 0  32.25 2 0  33 2 0  33.75 2 0  34.5 2 0  35.25 2 0  36 2 0  36.75 2 0  37.5 2 0  38.25 2 0  39 2 0  39.75 2 0  40.5 2 0  41.25 2 0  42 2 0  42.75 2 0  43.5 2 0  44.25 2 0  45 2 0  45.75 2 0  46.5 2 0  47.25 2 0  48 2 0  48.75 2 0  49.5 2 0  50.25 2 0  51 2 0  51.75 2 0  52.5 2 0  53.25 2 0  54 2 0  54.75 2 0  55.5 2 0  56.25 2 0  57 2 0  57.75 2 0  58.5 2 0  59.25 2 0  60 2 0  0 2.5 0  0.75 2.5 0  1.5 2.5 0  2.25 2.5 0  3 2.5 0  3.75 2.5 0  4.5 2.5 0  5.25 2.5 0  6 2.5 0  6.75 2.5 0  7.5 2.5 0  8.25 2.5 0  9 2.5 0  9.75 2.5 0  10.5 2.5 0  11.25 2.5 0  12 2.5 0  12.75 2.5 0  13.5 2.5 0  14.25 2.5 0  15 2.5 0  15.75 2.5 0  16.5 2.5 0  17.25 2.5 0  18 2.5 0  18.75 2.5 0  19.5 2.5 0  20.25 2.5 0  21 2.5 0  21.75 2.5 0  22.5 2.5 0  23.25 2.5 0  24 2.5 0  24.75 2.5 0  25.5 2.5 0  26.25 2.5 0  27 2.5 0  27.75 2.5 0  28.5 2.5 0  29.25 2.5 0  30 2.5 0  30.75 2.5 0  31.5 2.5 0  32.25 2.5 0  33 2.5 0  33.75 2.5 0  34.5 2.5 0  35.25 2.5 0  36 2.5 0  36.75 2.5 0  37.5 2.5 0  38.25 2.5 0  39 2.5 0  39.75 2.5 0  40.5 2.5 0  41.25 2.5 0  42 2.5 0  42.75 2.5 0  43.5 2.5 0  44.25 2.5 0  45 2.5 0  45.75 2.5 0  46.5 2.5 0  47.25 2.5 0  48 2.5 0  48.75 2.5 0  49.5 2.5 0  50.25 2.5 0  51 2.5 0  51.75 2.5 0  52.5 2.5 0  53.25 2.5 0  54 2.5 0  54.75 2.5 0  55.5 2.5 0  56.25 2.5 0  57 2.5 0  57.75 2.5 0  58.5 2.5 0  59.25 2.5 0  60 2.5 0  0 3 0  0.75 3 0  1.5 3 0  2.25 3 0  3 3 0  3.75 3 0  4.5 3 0  5.25 3 0  6 3 0  6.75 3 0  7.5 3 0  8.25 3 0  9 3 0  9.75 3 0  10.5 3 0  11.25 3 0  12 3 0  12.75 3 0  13.5 3 0  14.25 3 0  15 3 0  15.75 3 0  16.5 3 0  17.25 3 0  18 3 0  18.75 3 0  19.5 3 0  20.25 3 0  21 3 0  21.75 3 0  22.5 3 0  23.25 3 0  24 3 0  24.75 3 0  25.5 3 0  26.25 3 0  27 3 0  27.75 3 0  28.5 3 0  29.25 3 0  30 3 0  30.75 3 0  31.5 3 0  32.25 3 0  33 3 0  33.75 3 0  34.5 3 0  35.25 3 0  36 3 0  36.75 3 0  37.5 3 0  38.25 3 0  39 3 0  39.75 3 0  40.5 3 0  41.25 3 0  42 3 0  42.75 3 0  43.5 3 0  44.25 3 0  45 3 0  45.75 3 0  46.5 3 0  47.25 3 0  48 3 0  48.75 3 0  49.5 3 0  50.25 3 0  51 3 0  51.75 3 0  52.5 3 0  53.25 3 0  54 3 0  54.75 3 0  55.5 3 0  56.25 3 0  57 3 0  57.75 3 0  58.5 3 0  59.25 3 0  60 3 0  0 3.5 0  0.75 3.5 0  1.5 3.5 0  2.25 3.5 0  3 3.5 0  3.75 3.5 0  4.5 3.5 0  5.25 3.5 0  6 3.5 0  6.75 3.5 0  7.5 3.5 0  8.25 3.5 0  9 3.5 0  9.75 3.5 0  10.5 3.5 0  11.25 3.5 0  12 3.5 0  12.75 3.5 0  13.5 3.5 0  14.25 3.5 0  15 3.5 0  15.75 3.5 0  16.5 3.5 0  17.25 3.5 0  18 3.5 0  18.75 3.5 0  19.5 3.5 0  20.25 3.5 0  21 3.5 0  21.75 3.5 0  22.5 3.5 0  23.25 3.5 0  24 3.5 0  24.75 3.5 0  25.5 3.5 0  26.25 3.5 0  27 3.5 0  27.75 3.5 0  28.5 3.5 0  29.25 3.5 0  30 3.5 0  30.75 3.5 0  31.5 3.5 0  32.25 3.5 0  33 3.5 0  33.75 3.5 0  34.5 3.5 0  35.25 3.5 0  36 3.5 0  36.75 3.5 0  37.5 3.5 0  38.25 3.5 0  39 3.5 0  39.75 3.5 0  40.5 3.5 0  41.25 3.5 0  42 3.5 0  42.75 3.5 0  43.5 3.5 0  44.25 3.5 0  45 3.5 0  45.75 3.5 0  46.5 3.5 0  47.25 3.5 0  48 3.5 0  48.75 3.5 0  49.5 3.5 0  50.25 3.5 0  51 3.5 0  51.75 3.5 0  52.5 3.5 0  53.25 3.5 0  54 3.5 0  54.75 3.5 0  55.5 3.5 0  56.25 3.5 0  57 3.5 0  57.75 3.5 0  58.5 3.5 0  59.25 3.5 0  60 3.5 0  0 4 0  0.75 4 0  1.5 4 0  2.25 4 0  3 4 0  3.75 4 0  4.5 4 0  5.25 4 0  6 4 0  6.75 4 0  7.5 4 0  8.25 4 0  9 4 0  9.75 4 0  10.5 4 0  11.25 4 0  12 4 0  12.75 4 0  13.5 4 0  14.25 4 0  15 4 0  15.75 4 0  16.5 4 0  17.25 4 0  18 4 0  18.75 4 0  19.5 4 0  20.25 4 0  21 4 0  21.75 4 0  22.5 4 0  23.25 4 0  24 4 0  24.75 4 0  25.5 4 0  26.25 4 0  27 4 0  27.75 4 0  28.5 4 0  29.25 4 0  30 4 0  30.75 4 0  31.5 4 0  32.25 4 0  33 4 0  33.75 4 0  34.5 4 0  35.25 4 0  36 4 0  36.75 4 0  37.5 4 0  38.25 4 0  39 4 0  39.75 4 0  40.5 4 0  41.25 4 0  42 4 0  42.75 4 0  43.5 4 0  44.25 4 0  45 4 0  45.75 4 0  46.5 4 0  47.25 4 0  48 4 0  48.75 4 0  49.5 4 0  50.25 4 0  51 4 0  51.75 4 0  52.5 4 0  53.25 4 0  54 4 0  54.75 4 0  55.5 4 0  56.25 4 0  57 4 0  57.75 4 0  58.5 4 0  59.25 4 0  60 4 0  0.375 0.25 0  1.125 0.25 0  1.875 0.25 0  2.625 0.25 0  3.375 0.25 0  4.125 0.25 0  4.875 0.25 0  5.625 0.25 0  6.375 0.25 0  7.125 0.25 0  7.875 0.25 0  8.625 0.25 0  9.375 0.25 0  10.125 0.25 0  10.875 0.25 0  11.625 0.25 0  12.375 0.25 0  13.125 0.25 0  13.875 0.25 0  14.625 0.25 0  15.375 0.25 0  16.125 0.25 0  16.875 0.25 0  17.625 0.25 0  18.375 0.25 0  19.125 0.25 0  19.875 0.25 0  20.625 0.25 0  21.375 0.25 0  22.125 0.25 0  22.875 0.25 0  23.625 0.25 0  24.375 0.25 0  25.125 0.25 0  25.875 0.25 0  26.625 0.25 0  27.375 0.25 0  28.125 0.25 0  28.875 0.25 0  29.625 0.25 0  30.375 0.25 0  31.125 0.25 0  31.875 0.25 0  32.625 0.25 0  33.375 0.25 0  34.125 0.25 0  34.875 0.25 0  35.625 0.25 0  36.375 0.25 0  37.125 0.25 0  37.875 0.25 0  38.625 0.25 0  39.375 0.25 0  40.125 0.25 0  40.875 0.25 0  41.625 0.25 0  42.375 0.25 0  43.125 0.25 0  43.875 0.25 0  44.625 0.25 0  45.375 0.25 0  46.125 0.25 0  46.875 0.25 0  47.625 0.25 0  48.375 0.25 0  49.125 0.25 0  49.875 0.25 0  50.625 0.25 0  51.375 0.25 0  52.125 0.25 0  52.875 0.25 0  53.625 0.25 0  54.375 0.25 0  55.125 0.25 0  55.875 0.25 0  56.625 0.25 0  57.375 0.25 0  58.125 0.25 0  58.875 0.25 0  59.625 0.25 0  0.375 0.75 0  1.125 0.75 0  1.875 0.75 0  2.625 0.75 0  3.375 0.75 0  4.125 0.75 0  4.875 0.75 0  5.625 0.75 0  6.375 0.75 0  7.125 0.75 0  7.875 0.75 0  8.625 0.75 0  9.375 0.75 0  10.125 0.75 0  10.875 0.75 0  11.625 0.75 0  12.375 0.75 0  13.125 0.75 0  13.875 0.75 0  14.625 0.75 0  15.375 0.75 0  16.125 0.75 0  16.875 0.75 0  17.625 0.75 0  18.375 0.75 0  19.125 0.75 0  19.875 0.75 0  20.625 0.75 0  21.375 0.75 0  22.125 0.75 0  22.875 0.75 0  23.625 0.75 0  24.375 0.75 0  25.125 0.75 0  25.875 0.75 0  26.625 0.75 0  27.375 0.75 0  28.125 0.75 0  28.875 0.75 0  29.625 0.75 0  30.375 0.75 0  31.125 0.75 0  31.875 0.75 0  32.625 0.75 0  33.375 0.75 0  34.125 0.75 0  34.875 0.75 0  35.625 0.75 0  36.375 0.75 0  37.125 0.75 0  37.875 0.75 0  38.625 0.75 0  39.375 0.75 0  40.125 0.75 0  40
[...]
<PointData  Scalars="f_8-1"> 
<DataArray  type="Float64"  Name="f_8-1"  format="ascii">-5.4473209483717291e+00  -5.3794784561835520e+00  -5.3114577068799660e+00  -5.2433927947904095e+00  -5.1753108567377106e+00  -5.1072231513436890e+00  -5.0391340989840652e+00  -4.9710452506978102e+00  -4.9029572254707139e+00  -4.8348705308442828e+00  -4.7667853625005252e+00  -4.6987013634696648e+00  -4.6306179521977713e+00  -4.5625347049292788e+00  -4.4944514472371564e+00  -4.4263681537090962e+00  -4.3582848457464358e+00  -4.2902015420289192e+00  -4.2221182496948710e+00  -4.1540349681270898e+00  -4.0859516943651597e+00  -4.0178684254525994e+00  -3.9497851594017597e+00  -3.8817018949681490e+00  -3.8136186314978988e+00  -3.7455353686152120e+00  -3.6774521061376211e+00  -3.6093688439508567e+00  -3.5412855820000639e+00  -3.4732023202445590e+00  -3.4051190586652540e+00  -3.3370357972456199e+00  -3.2689525359783511e+00  -3.2008692748563186e+00  -3.1327860138765580e+00  -3.0647027530358972e+00  -2.9966194923330698e+00  -2.9285362317666839e+00  -2.8604529713361515e+00  -2.7923697110408101e+00  -2.7242864508803608e+00  -2.6562031908544395e+00  -2.5881199309628533e+00  -2.5200366712053706e+00  -2.4519534115818589e+00  -2.3838701520921064e+00  -2.3157868927360803e+00  -2.2477036335134870e+00  -2.1796203744246396e+00  -2.1115371154684484e+00  -2.0434538566472358e+00  -1.9753705979552960e+00  -1.9072873394062302e+00  -1.8392040809678223e+00  -1.7711208227166779e+00  -1.7030375644725821e+00  -1.6349543066596461e+00  -1.5668710482876993e+00  -1.4987877916589321e+00  -1.4307045314593785e+00  -1.3626212798648143e+00  -1.2945380092110388e+00  -1.2264547817073457e+00  -1.1583714589703837e+00  -1.0902883445887628e+00  -1.0222047820108986e+00  -9.5412216463325772e-01  -8.8603759024414386e-01  -8.1795694618029502e-01  -7.4986856850862293e-01  -6.8179469412663274e-01  -6.1369406330973475e-01  -5.4563932050105279e-01  -4.7750692703737846e-01  -4.0950319292307691e-01  -3.4132332209661503e-01  -2.7348680296144928e-01  -2.0517976125695872e-01  -1.3743997417838891e-01  -6.8245146506516266e-02  3.4673061178822762e-04  -5.4478093091429303e+00  -5.3794769130984479e+00  -5.3114392775306642e+00  -5.2433723523734486e+00  -5.1752905573941579e+00  -5.1072034347406072e+00  -5.0391148792319722e+00  -4.9710263603871443e+00  -4.9029385318763650e+00  -4.8348518942105940e+00  -4.7667665789096683e+00  -4.6986822713184377e+00  -4.6305985122499331e+00  -4.5625149810108958e+00  -4.4944315352407642e+00  -4.4263481352151954e+00  -4.3582647730968569e+00  -4.2901814437899457e+00  -4.2220981395204227e+00  -4.1540148522066822e+00  -4.0859315754017826e+00  -4.0178483047468143e+00  -3.9497650376202036e+00  -3.8816817725149009e+00  -3.8135985086179440e+00  -3.7455152454693503e+00  -3.6774319828253552e+00  -3.6093487205359476e+00  -3.5412654585214178e+00  -3.4731821967264151e+00  -3.4050989351224463e+00  -3.3370156736872678e+00  -3.2689324124101509e+00  -3.2008491512817434e+00  -3.1327658902978421e+00  -3.0646826294543685e+00  -2.9965993687496031e+00  -2.9285161081817783e+00  -2.8604328477501064e+00  -2.7923495874537738e+00  -2.7242663272924070e+00  -2.6561830672655748e+00  -2.5880998073730686e+00  -2.5200165476146519e+00  -2.4519332879901574e+00  -2.3838500284994648e+00  -2.3157667691423458e+00  -2.2476835099190366e+00  -2.1796002508286119e+00  -2.1115169918729415e+00  -2.0434337330474728e+00  -1.9753504743625871e+00  -1.9072672157943931e+00  -1.8391839573975415e+00  -1.7711006990482754e+00  -1.7030174410254602e+00  -1.6349341827076194e+00  -1.5668509254678220e+00  -1.4987676663089693e+00  -1.4306844116912232e+00  -1.3626011478923510e+00  -1.2945179035700562e+00  -1.2264346199838669e+00  -1.1583514148573444e+00  -1.0902680579373880e+00  -1.0221849862340660e+00  -9.5410139609817202e-01  -8.8601870625365708e-01  -8.1793450621826880e-01  -7.4985266435093523e-01  -6.8176718243616163e-01  -6.1368663151283909e-01  -5.4559885619960369e-01  -4.7752009111117505e-01  -4.0943542383751064e-01  -3.4137427009256222e-01  -2.7335101858027566e-01  -2.0521972595809737e-01  -1.3711194144913413e-01  -6.8261490701417446e-02  -1.1515094527523132e-05  -5.4478664142180673e+00  -5.3795947000236541e+00  -5.3114596339362983e+00  -5.2433597748493161e+00  -5.1752656538666368e+00  -5.1071734532852053e+00  -5.0390825555742262e+00  -4.9709928663608132e+00  -4.9029043654843054e+00  -4.8348169831437557e+00  -4.7667307771626453e+00  -4.6986457787066085e+00  -4.6305617286704752e+00  -4.5624782227295535e+00  -4.4943949393791636e+00  -4.4263117107745567e+00  -4.3582284768420854e+00  -4.2901452278885683e+00  -4.2220619686895011e+00  -4.1539787050423085e+00  -4.0858954402240615e+00  -4.0178121756580856e+00  -3.9497289116824335e+00  -3.8816456482931985e+00  -3.8135623853594556e+00  -3.7454791227807243e+00  -3.6773958604734536e+00  -3.6093125983913894e+00  -3.5412293365004484e+00  -3.4731460747827607e+00  -3.4050628132245930e+00  -3.3369795518185095e+00  -3.2688962905585339e+00  -3.2008130294412349e+00  -3.1327297684638209e+00  -3.0646465076245728e+00  -2.9965632469221650e+00  -2.9284799863557396e+00  -2.8603967259246437e+00  -2.7923134656284376e+00  -2.7242302054668168e+00  -2.6561469454395126e+00  -2.5880636855463859e+00  -2.5199804257872378e+00  -2.4518971661620128e+00  -2.3838139066704764e+00  -2.3157306473128050e+00  -2.2476473880883363e+00  -2.1795641289983769e+00  -2.1114808700396623e+00  -2.0433976112194765e+00  -1.9753143525209891e+00  -1.9072310939822033e+00  -1.8391478355174922e+00  -1.7710645773179838e+00  -1.7029813189608871e+00  -1.6348980613717032e+00  -1.5668148025481645e+00  -1.4987315467654436e+00  -1.4306482850298774e+00  -1.3625650359448778e+00  -1.2944817617496112e+00  -1.2263985374447472e+00  -1.1583152176209905e+00  -1.0902320764489186e+00  -1.0221486125367081e+00  -9.5406571120965189e-01  -8.8598186536648549e-01  -8.1789953781458824e-01  -7.4981484619278882e-01  -6.8173370024239976e-01  -6.1364723663842846e-01  -5.4556891971538746e-01  -4.7747826847780162e-01  -4.0941114326444544e-01  -3.4130874468329619e-01  -2.7327155335938552e-01  -2.0504440718941142e-01  -1.3692716177510367e-01  -6.8212288566292495e-02  -1.6486998984062640e-04  -5.4478749034303409e+00  -5.3796499243658751e+00  -5.3114883595360967e+00  -5.2433679727958360e+00  -5.1752648575500260e+00  -5.1071689113994809e+00  -5.0390763694430074e+00  -4.9709858852547315e+00  -4.9028969315870965e+00  -4.8348091188480726e+00  -4.7667224281514669e+00  -4.6986370383099354e+00  -4.6305527964722746e+00  -4.5624692717356865e+00  -4.4943860574010062e+00  -4.4263029154985034e+00  -4.3582197520295276e+00  -4.2901365498760118e+00  -4.2220533181703157e+00  -4.1539700694514456e+00  -4.0858868123821983e+00  -4.0178035517774511e+00  -3.9497202898509527e+00  -3.8816370275558532e+00  -3.8135537652304703e+00  -3.7454705030027982e+00  -3.6773872409037560e+00  -3.6093039789472612e+00  -3.5412207171327257e+00  -3.4731374554617638e+00  -3.4050541939322603e+00  -3.3369709325438812e+00  -3.2688876712948876e+00  -3.2008044101844626e+00  -3.1327211492113265e+00  -3.0646378883747527e+00  -2.9965546276739796e+00  -2.9284713671084601e+00  -2.8603881066777870e+00  -2.7923048463816342e+00  -2.7242215862197838e+00  -2.6561383261920701e+00  -2.5880550662983470e+00  -2.5199718065385319e+00  -2.4518885469124938e+00  -2.3838052874202411e+00  -2.3157220280615092e+00  -2.2476387688367154e+00  -2.1795555097447181e+00  -2.1114722507880050e+00  -2.0433889919607120e+00  -1.9753057332759019e+00  -1.9072224747040813e+00  -1.8391392163107345e+00  -1.7710559579512029e+00  -1.7029726999414634e+00  -1.6348894415980031e+00  -1.5668061843811634e+00  -1.4987229252103373e+00  -1.4306396704907884e+00  -1.3625564071109466e+00  -1.2944731614521481e+00  -1.2263898814133856e+00  -1.1583066678421070e+00  -1.0902233296742601e+00  -1.0221402209580048e+00  -9.5405670053444458e-01  -8.8597390516974772e-01  -8.1788986347563297e-01  -7.4980795089747698e-01  -6.8172250666915801e-01  -6.1364308955580371e-01  -5.4555396987942939e-01  -4.7748144777576351e-01  -4.0938162580632104e-01  -3.4131920590798509e-01  -2.7317388233152251e-01  -2.0505053559947528e-01  -1.3671574142332971e-01  -6.8368473715626238e-02  1.7345399707678188e-05  -5.4478727209887907e+00  -5.3796704371649309e+00  -5.3115053776164780e+00  -5.2433798229638393e+00  -5.1752741765032182e+00  -5.1071772195646208e+00  -5.0390842944072034e+00  -4.9709936538657749e+00  -4.9029046042607263e+00  -4.8348167585084818e+00  -4.7667300612551777e+00  -4.6986446162516495e+00  -4.6305602856521206e+00  -4.5624766866051329e+00  -4.4943934325481703e+00  -4.4263102778114076e+00  -4.3582271148288143e+00  -4.2901439168945936e+00  -4.2220606890948140e+00  -4.1539774429048579e+00  -4.0858941872413341e+00  -4.0178109273247777e+00  -3.9497276657252778e+00  -3.8816444035764248e+00  -3.8135611413232127e+00  -3.7454778791307541e+00  -3.6773946170527938e+00  -3.6093113551081526e+00  -3.5412280933017919e+00  -3.4731448316358189e+00  -3.4050615701100400e+00  -3.3369783087241238e+00  -3.2688950474770651e+00  -3.2008117863680083e+00  -3.1327285253959873e+00  -3.0646452645602600e+00  -2.9965620038601304e+00  -2.9284787432950994e+00  -2.8603954828647473e+00  -2.7923122225687735e+00  -2.7242289624069431e+00  -2.6561457023790536e+00  -2.5880624424850001e+00  -2.5199791827246574e+00  -2.4518959230979833e+00  -2.3838126636048531e+00  -2.3157294042453938e+00  -2.2476461450191545e+00  -2.1795628859270604e+00  -2.1114796269669518e+00  -2.0433963681436098e+00  -1.9753131094462295e+00  -1.9072298508989329e+00  -1.8391465924482542e+00  -1.7710633342114535e+00  -1.7029800759339138e+00  -1.6348968181624937e+00  -1.5668135597365132e+00  -1.4987303030882617e+00  -1.4306470431914116e+00  -1.3625637902795225e+00  -1.2944805238499486e+00  -1.2263972842920368e+00  -1.1583139934551305e+00  -1.0902307998329550e+00  -1.0221474266035704e+00  -9.5406438082715439e-01  -8.8598075177472679e-01  -8.1789815444901448e-01  -7.4981378896225015e-01  -6.8173250577688604e-01  -6.1364618870633070e-01  -5.4556851517190852e-01  -4.7747722124325603e-01  -4.0940541876290093e-01  -3.4129589550138495e-01  -2.7320226021452493e-01  -2.0499348783445967e-01  -1.3674236523144320e-01  -6.8346716270904925e-02  -2.3305189891016432e-05  -5.4478748879029260e+00  -5.3796498579706258e+00  -5.3114882977680811e+00  -5.2433679331168390e+00  -5.1752648342092318e+00  -5.1071688971293394e+00  -5.0390763600919986e+00  -4.9709858785395609e+00  -4.9028969260748791e+00  -4.8348091148864478e+00  -4.7667224257378136e+00  -4.6986370363030625e+00  -4.6305527940376896e+00  -4.5624692689773925e+00  -4.4943860547982313e+00  -4.4263029133476399e+00  -4.3582197503536753e+00  -4.2901365485639422e+00  -4.2220533170964147e+00  -4.1539700685211631e+00  -4.0858868115356577e+00  -4.0178035509809193e+00  -3.9497202890872689e+00  -3.8816370268165858e+00  -3.8135537645106261e+00  -3.7454705022984696e+00  -3.6773872402114636e+00  -3.6093039782641005e+00  -3.5412207164565452e+00  -3.4731374547910745e+00  -3.4050541932660474e+00  -3.3369709318813925e+00  -3.2688876706355177e+00  -3.2008044095276960e+00  -3.1327211485567612e+00  -3.0646378877220060e+00  -2.9965546270226926e+00  -2.9284713664583366e+00  -2.8603881060285081e+00  -2.7923048457328945e+00  -2.7242215855712542e+00  -2.6561383255433775e+00  -2.5880550656491428e+00  -2.5199718058884697e+00  -2.4518885462612547e+00  -2.3838052867675570e+00  -2.3157220274071539e+00  -2.2476387681804950e+00  -2.1795555090864633e+00  -2.1114722501276217e+00  -2.0433889912981802e+00  -1.9753057326113055e+00  -1.9072224740375776e+00  -1.8391392156425779e+00  -1.7710559572817051e+00  -1.7029726992711729e+00  -1.6348894409274535e+00  -1.5668061837115370e+00  -1.4987229245421401e+00  -1.4306396698268875e+00  -1.3625564064506257e+00  -1.2944731608038347e+00  -1.2263898807702736e+00  -1.1583066672302753e+00  -1.0902233290643328e+00  -1.0221402204259120e+00  -9.5405669998625919e-01  -8.8597390480031080e-01  -8.1788986304979105e-01  -7.4980795084267227e-01  -6.8172250652201272e-01  -6.1364309013896512e-01  -5.4555397051492760e-01  -4.7748145010524018e-01  -4.0938162883814072e-01  -3.4131921340891669e-01  -2.7317388910982487e-01  -2.0505053921475203e-01  -1.3671573684788807e-01  -6.8368460583204435e-02  1.7343278203967685e-05  -5.4478663824768558e+00  -5.3795945048709459e+00  -5.3114594824437651e+00  -5.2433596835295884e+00  -5.1752656002139421e+00  -5.1071734204813630e+00  -5.0390825342316310e+00  -4.9709928514086412e+00  -4.9029043542458171e+00  -4.8348169747722647e+00  -4.7667307708512441e+00  -4.6986457732196643e+00  -4.6305617232768697e+00  -4.5624782174880458e+00  -4.4943949346188150e+00  -4.4263117066534106e+00  -4.3582284732951972e+00  -4.2901452247562437e+00  -4.2220619658213412e+00  -4.1539787023325880e+00  -4.0858954376090857e+00  -4.0178121731031178e+00  -3.9497289091696932e+00  -3.8816456458131694e+00  -3.8135623829058067e+00  -3.7454791203482083e+00  -3.6773958580575177e+00  -3.6093125959882904e+00  -3.5412293341073537e+00  -3.4731460723976069e+00  -3.4050628108458669e+00  -3.3369795494450565e+00  -3.2688962881893420e+00  -3.2008130270754500e+00  -3.1327297661006921e+00  -3.0646465052634029e+00  -2.9965632445623109e+00  -2.9284799839965898e+00  -2.8603967235655912e+00  -2.7923134632688842e+00  -2.7242302031061687e+00  -2.6561469430771840e+00  -2.5880636831818378e+00  -2.5199804234199754e+00  -2.4518971637916218e+00  -2.3838139042966109e+00  -2.3157306449352300e+00  -2.2476473857068426e+00  -2.1795641266128611e+00  -2.1114808676501027e+00  -2.0433976088259338e+00  -1.9753143501236148e+00  -1.9072310915812016e+00  -1.8391478331130320e+00  -1.7710645749103058e+00  -1.7029813165500329e+00  -1.6348980589579680e+00  -1.5668148001308582e+00  -1.4987315443453599e+00  -1.4306482826035150e+00  -1.3625650335162431e+00  -1.2944817593052329e+00  -1.2263985350030606e+00  -1.1583152151346849e+00  -1.0902320739872775e+00  -1.0221486099539312e+00  -9.5406570871159080e-01  -8.8598186259476130e-01  -8.1789953521291470e-01  -7.4981484316599922e-01  -6.8173369736121547e-01  -6.1364723355281092e-01  -5.4556891658519946e-01  -4.7747826709402019e-01  -4.0941114241978027e-01  -3.4130875539046190e-01  -2.7327156961427224e-01  -2.0504443251964660e-01  -1.3692716673600278e-01  -6.8212247530091932e-02  -1.6485570188132286e-04  -5.4478091562446931e+00  -5.3794764566652775e+00  -5.3114390265436207e+00  -5.2433722115096613e+00  -5.1752904753443838e+00  -5.1072033844926548e+00  -5.0391148465497269e+00  -4.9710263379214039e+00  -4.9029385158417504e+00  -4.8348518821817423e+00  -4.7667665690597953e+00  -4.6986822626131026e+00  -4.6305985044278755e+00  -4.5625149741227000e+00  -4.4944315292583665e+00  -4.4263481299568204e+00  -4.3582647683277260e+00  -4.2901814393146456e+00  -4.2220981352120832e+00  -4.1540148479953718e+00  -4.0859315712534734e+00  -4.0178483006457872e+00  -3.9497650335583065e+00  -3.8816817684861271e+00  -3.8135985046165741e+00  -3.7455152414899979e+00  -3.6774319788633667e+00  -3.6093487165876303e+00  -3.5412654545839821e+00  -3.4731821927977027e+00  -3.4050989312007802e+00  -3.3370156697711768e+00  -3.2689324084984239e+00  -3.2008491473732099e+00  -3.1327658863914825e+00  -3.0646826255492225e+00  -2.9965993648447538e+00  -2.9285161042762824e+00  -2.8604328438431126e+00  -2.7923495835444143e+00  -2.7242663233798696e+00  -2.6561830633491379e+00  -2.5880998034520810e+00  -2.5200165436886044e+00  -2.4519332840586174e+00  -2.3838500245621681e+00  -2.3157667651990947e+00  -2.2476835059697744e+00  -2.1796002468733953e+00  -2.1115169879119144e+00  -2.0434337290808493e+00  -1.9753504703905624e+00  -1.9072672118171330e+00  -1.8391839534150831e+00  -1.7711006950603772e+00  -1.7030174370316147e+00  -1.6349341787064608e+00  -1.5668509214576962e+00  -1.4987676622856392e+00  -1.4306844076515113e+00  -1.3626011438243326e+00  -1.2945178994712427e+00  -1.2264346158189277e+00  -1.1583514106399770e+00  -1.0902680535574683e+00  -1.0221849817873576e+00  -9.5410139124712534e-01  -8.8601870138126437e-01  -8.1793450040388738e-01  -7.4985265869313478e-01  -6.8176717495351258e-01  -6.1368662450328815e-01  -5.4559884649829782e-01  -4.7752008345684754e-01  -4.0943541546790452e-01  -3.4137427523817410e-01  -2.7335106303490830e-01  -2.0521976468425446e-01  -1.3711203347554402e-01  -6.8261302234063279e-02  -1.1577722206817988e-05  -5.4473194812087113e+00  -5.3794779754675517e+00  -5.3114574439210305e+00  -5.2433926468921852e+00  -5.1753107683958079e+00  -5.1072230947023609e+00  -5.0391340597241907e+00  -4.9710452215830490e+00  -4.9029572029519137e+00  -4.8348705125894034e+00  -4.7667853465642196e+00  -4.6987013487287461e+00  -4.6306179384602988e+00  -4.5625346923696801e+00  -4.4944514358808858e+00  -4.4263681433382924e+00  -4.3582848360485142e+00  -4.2902015327343932e+00  -4.2221182406251128e+00  -4.1540349591824715e+00  -4.0859516854972044e+00  -4.0178684166397209e+00  -3.9497851506338919e+00  -3.8817018862385857e+00  -3.8136186228004028e+00  -3.7455353599437453e+00  -3.6774520974868818e+00  -3.6093688353166047e+00  -3.5412855733790596e+00  -3.4732023116342745e+00  -3.4051190500637034e+00  -3.3370357886510580e+00  -3.2689525273892501e+00  -3.2008692662712419e+00  -3.1327860052942000e+00  -3.0647027444550194e+00  -2.9966194837524642e+00  -2.9285362231851586e+00  -2.8604529627525479e+00  -2.7923697024540122e+00  -2.7242864422892739e+00  -2.6562031822581060e+00  -2.5881199223604185e+00  -2.5200366625961350e+00  -2.4519534029652683e+00  -2.3838701434677865e+00  -2.3157868841037925e+00  -2.2477036248731528e+00  -2.1796203657763225e+00  -2.1115371068123538e+00  -2.0434538479836468e+00  -1.9753705892844915e+00  -1.9072873307284259e+00  -1.8392040722830609e+00  -1.7711208140246935e+00  -1.7030375557725470e+00  -1.6349542979500613e+00  -1.5668710395655949e+00  -1.4987877829203158e+00  -1.4307045226962134e+00  -1.3626212710693510e+00  -1.2945380003619138e+00  -1.2264547727958324e+00  -1.1583714499324096e+00  -1.0902883354491870e+00  -1.0222047725404604e+00  -9.5412215510445531e-01  -8.8603757971948183e-01  -8.1795693624445498e-01  -7.4986855525625484e-01  -6.8179468474518690e-01  -6.1369404327927757e-01  -5.4563931539124322e-01  -4.7750689328827167e-01  -4.0950320605854973e-01  -3.4132326902639004e-01  -2.7348692313619727e-01  -2.0517968257047681e-01  -1.3744028246738904e-01  -6.8244668031347447e-02  3.4621500478467442e-04  -5.4132868077279541e+00  -5.3453649387372311e+00  -5.2773273409304018e+00  -5.2092564922911082e+00  -5.1411732435421671e+00  -5.0730858678076718e+00  -5.0049975366329571e+00  -4.9369094682277268e+00  -4.8688223258771917e+00  -4.8007365105949731e+00  -4.7326519088217731e+00  -4.6645680607172295e+00  -4.5964845286722538e+00  -4.5284010866045810e+00  -4.4603176701654466e+00  -4.3922342805443408e+00  -4.3241509243353828e+00  -4.2560675999165634e+00  -4.1879842995730483e+00  -4.1199010151683151e+00  -4.0518177403025195e+00  -3.9837344709015690e+00  -3.9156512045492113e+00  -3.8475679399406770e+00  -3.7794846763626428e+00  -3.7114014134380482e+00  -3.6433181509551980e+00  -3.5752348887945047e+00  -3.5071516268850700e+00  -3.4390683651833589e+00  -3.3709851036631133e+00  -3.3029018423070702e+00  -3.2348185811050278e+00  -3.1667353200498081e+00  -3.0986520591373110e+00  -3.0305687983644627e+00  -2.9624855377295578e+00  -2.8944022772312157e+00  -2.8263190168687338e+00  -2.7582357566414348e+00  -2.6901524965489396e+00  -2.6220692365909128e+00  -2.5539859767671058e+00  -2.4859027170773600e+00  -2.4178194575214547e+00  -2.3497361980992961e+00  -2.2816529388107218e+00  -2.2135696796557038e+00  -2.1454864206339725e+00  -2.0774031617458921e+00  -2.0093199029903963e+00  -1.9412366443699607e+00  -1.8731533858788603e+00  -1.8050701275304348e+00  -1.7369868692947477e+00  -1.6689036112398092e+00  -1.6008203532145540e+00  -1.5327370955539346e+00  -1.4646538375266198e+00  -1.3965705807101698e+00  -1.3284873217488904e+00  -1.2604040676434842e+00  -1.1923208040188837e+00  -1.1242375596007812e+00  -1.0561542780350053e+00  -9.8807106569258174e-01  -9.1998772494376413e-01  -8.51904601205624