<?xml version="1.0"?>
<VTKFile type="UnstructuredGrid"  version="0.1"  >
<UnstructuredGrid>
<Piece  NumberOfPoints="1369" NumberOfCells="2560">
<Points>
<DataArray  type="Float64"  NumberOfComponents="3"  format="ascii">0 0 0  0.75 0 0  1.5 0 0  2.25 0 0  3 0 0  3.75 0 0  4.5 0 0  5.25 0 0  6 0 0  6.75 0 0  7.5 0 0  8.25 0 0  9 0 0  9.75 0 0  10.5 0 0  11.25 0 0  12 0 0  12.75 0 0  13.5 0 0  14.25 0 0  15 0 0  15.75 0 0  16.5 0 0  17.25 0 0  18 0 0  18.75 0 0  19.5 0 0  20.25 0 0  21 0 0  21.75 0 0  22.5 0 0  23.25 0 0  24 0 0  24.75 0 0  25.5 0 0  26.25 0 0  27 0 0  27.75 0 0  28.5 0 0  29.25 0 0  30 0 0  30.75 0 0  31.5 0 0  32.25 0 0  33 0 0  33.75 0 0  34.5 0 0  35.25 0 0  36 0 0  36.75 0 0  37.5 0 0  38.25 0 0  39 0 0  39.75 0 0  40.5 0 0  41.25 0 0  42 0 0  42.75 0 0  43.5 0 0  44.25 0 0  45 0 0  45.75 0 0  46.5 0 0  47.25 0 0  48 0 0  48.75 0 0  49.5 0 0  50.25 0 0  51 0 0  51.75 0 0  52.5 0 0  53.25 0 0  54 0 0  54.75 0 0  55.5 0 0  56.25 0 0  57 0 0  57.75 0 0  58.5 0 0  59.25 0 0  60 0 0  0 0.5 0  0.75 0.5 0  1.5 0.5 0  2.25 0.5 0  3 0.5 0  3.75 0.5 0  4.5 0.5 0  5.25 0.5 0  6 0.5 0  6.75 0.5 0  7.5 0.5 0  8.25 0.5 0  9 0.5 0  9.75 0.5 0  10.5 0.5 0  11.25 0.5 0  12 0.5 0  12.75 0.5 0  13.5 0.5 0  14.25 0.5 0  15 0.5 0  15.75 0.5 0  16.5 0.5 0  17.25 0.5 0  18 0.5 0  18.75 0.5 0  19.5 0.5 0  20.25 0.5 0  21 0.5 0  21.75 0.5 0  22.5 0.5 0  23.25 0.5 0  24 0.5 0  24.75 0.5 0  25.5 0.5 0  26.25 0.5 0  27 0.5 0  27.75 0.5 0  28.5 0.5 0  29.25 0.5 0  30 0.5 0  30.75 0.5 0  31.5 0.5 0  32.25 0.5 0  33 0.5 0  33.75 0.5 0  34.5 0.5 0  35.25 0.5 0  36 0.5 0  36.75 0.5 0  37.5 0.5 0  38.25 0.5 0  39 0.5 0  39.75 0.5 0  40.5 0.5 0  41.25 0.5 0  42 0.5 0  42.75 0.5 0  43.5 0.5 0  44.25 0.5 0  45 0.5 0  45.75 0.5 0  46.5 0.5 0  47.25 0.5 0  48 0.5 0  48.75 0.5 0  49.5 0.5 0  50.25 0.5 0  51 0.5 0  51.75 0.5 0  52.5 0.5 0  53.25 0.5 0  54 0.5 0  54.75 0.5 0  55.5 0.5 0  56.25 0.5 0  57 0.5 0  57.75 0.5 0  58.5 0.5 0  59.25 0.5 0  60 0.5 0  0 1 0  0.75 1 0  1.5 1 0  2.25 1 0  3 1 0  3.75 1 0  4.5 1 0  5.25 1 0  6 1 0  6.75 1 0  7.5 1 0  8.25 1 0  9 1 0  9.75 1 0  10.5 1 0  11.25 1 0  12 1 0  12.75 1 0  13.5 1 0  14.25 1 0  15 1 0  15.75 1 0  16.5 1 0  17.25 1 0  18 1 0  18.75 1 0  19.5 1 0  20.25 1 0  21 1 0  21.75 1 0  22.5 1 0  23.25 1 0  24 1 0  24.75 1 0  25.5 1 0  26.25 1 0  27 1 0  27.75 1 0  28.5 1 0  29.25 1 0  30 1 0  30.75 1 0  31.5 1 0  32.25 1 0  33 1 0  33.75 1 0  34.5 1 0  35.25 1 0  36 1 0  36.75 1 0  37.5 1 0  38.25 1 0  39 1 0  39.75 1 0  40.5 1 0  41.25 1 0  42 1 0  42.75 1 0  43.5 1 0  44.25 1 0  45 1 0  45.75 1 0  46.5 1 0  47.25 1 0  48 1 0  48.75 1 0  49.5 1 0  50.25 1 0  51 1 0  51.75 1 0  52.5 1 0  53.25 1 0  54 1 0  54.75 1 0  55.5 1 0  56.25 1 0  57 1 0  57.75 1 0  58.5 1 0  59.25 1 0  60 1 0  0 1.5 0  0.75 1.5 0  1.5 1.5 0  2.25 1.5 0  3 1.5 0  3.75 1.5 0  4.5 1.5 0  5.25 1.5 0  6 1.5 0  6.75 1.5 0  7.5 1.5 0  8.25 1.5 0  9 1.5 0  9.75 1.5 0  10.5 1.5 0  11.25 1.5 0  12 1.5 0  12.75 1.5 0  13.5 1.5 0  14.25 1.5 0  15 1.5 0  15.75 1.5 0  16.5 1.5 0  17.25 1.5 0  18 1.5 0  18.75 1.5 0  19.5 1.5 0  20.25 1.5 0  21 1.5 0  21.75 1.5 0  22.5 1.5 0  23.25 1.5 0  24 1.5 0  24.75 1.5 0  25.5 1.5 0  26.25 1.5 0  27 1.5 0  27.75 1.5 0  28.5 1.5 0  29.25 1.5 0  30 1.5 0  30.75 1.5 0  31.5 1.5 0  32.25 1.5 0  33 1.5 0  33.75 1.5 0  34.5 1.5 0  35.25 1.5 0  36 1.5 0  36.75 1.5 0  37.5 1.5 0  38.25 1.5 0  39 1.5 0  39.75 1.5 0  40.5 1.5 0  41.25 1.5 0  42 1.5 0  42.75 1.5 0  43.5 1.5 0  44.25 1.5 0  45 1.5 0  45.75 1.5 0  46.5 1.5 0  47.25 1.5 0  48 1.5 0  48.75 1.5 0  49.5 1.5 0  50.25 1.5 0  51 1.5 0  51.75 1.5 0  52.5 1.5 0  53.25 1.5 0  54 1.5 0  54.75 1.5 0  55.5 1.5 0  56.25 1.5 0  57 1.5 0  57.75 1.5 0  58.5 1.5 0  59.25 1.5 0  60 1.5 0  0 2 0  0.75 2 0  1.5 2 0  2.25 2 0  3 2 0  3.75 2 0  4.5 2 0  5.25 2 0  6 2 0  6.75 2 0  7.5 2 0  8.25 2 0  9 2 0  9.75 2 0  10.5 2 0  11.25 2 0  12 2 0  12.75 2 0  13.5 2 0  14.25 2 0  15 2 0  15.75 2 0  16.5 2 0  17.25 2 0  18 2 0  18.75 2 0  19.5 2 0  20.25 2 0  21 2 0  21.75 2 0  22.5 2 0  23.25 2 0  24 2 0  24.75 2 0  25.5 2 0  26.25 2 0  27 2 0  27.75 2 0  28.5 2 0  29.25 2 0  30 2 0  30.75 2 0  31.5 2 0  32.25 2 0  33 2 0  33.75 2 0  34.5 2 0  35.25 2 0  36 2 0  36.75 2 0  37.5 2 0  38.25 2 0  39 2 0  39.75 2 0  40.5 2 0  41.25 2 0  42 2 0  42.75 2 0  43.5 2 0  44.25 2 0  45 2 0  45.75 2 0  46.5 2 0  47.25 2 0  48 2 0  48.75 2 0  49.5 2 0  50.25 2 0  51 2 0  51.75 2 0  52.5 2 0  53.25 2 0  54 2 0  54.75 2 0  55.5 2 0  56.25 2 0  57 2 0  57.75 2 0  58.5 2 0  59.25 2 0  60 2 0  0 2.5 0  0.75 2.5 0  1.5 2.5 0  2.25 2.5 0  3 2.5 0  3.75 2.5 0  4.5 2.5 0  5.25 2.5 0  6 2.5 0  6.75 2.5 0  7.5 2.5 0  8.25 2.5 0  9 2.5 0  9.75 2.5 0  10.5 2.5 0  11.25 2.5 0  12 2.5 0  12.75 2.5 0  13.5 2.5 0  14.25 2.5 0  15 2.5 0  15.75 2.5 0  16.5 2.5 0  17.25 2.5 0  18 2.5 0  18.75 2.5 0  19.5 2.5 0  20.25 2.5 0  21 2.5 0  21.75 2.5 0  22.5 2.5 0  23.25 2.5 0  24 2.5 0  24.75 2.5 0  25.5 2.5 0  26.25 2.5 0  27 2.5 0  27.75 2.5 0  28.5 2.5 0  29.25 2.5 0  30 2.5 0  30.75 2.5 0  31.5 2.5 0  32.25 2.5 0  33 2.5 0  33.75 2.5 0  34.5 2.5 0  35.25 2.5 0  36 2.5 0  36.75 2.5 0  37.5 2.5 0  38.25 2.5 0  39 2.5 0  39.75 2.5 0  40.5 2.5 0  41.25 2.5 0  42 2.5 0  42.75 2.5 0  43.5 2.5 0  44.25 2.5 0  45 2.5 0  45.75 2.5 0  46.5 2.5 0  47.25 2.5 0  48 2.5 0  48.75 2.5 0  49.5 2.5 0  50.25 2.5 0  51 2.5 0  51.75 2.5 0  52.5 2.5 0  53.25 2.5 0  54 2.5 0  54.75 2.5 0  55.5 2.5 0  56.25 2.5 0  57 2.5 0  57.75 2.5 0  58.5 2.5 0  59.25 2.5 0  60 2.5 0  0 3 0  0.75 3 0  1.5 3 0  2.25 3 0  3 3 0  3.75 3 0  4.5 3 0  5.25 3 0  6 3 0  6.75 3 0  7.5 3 0  8.25 3 0  9 3 0  9.75 3 0  10.5 3 0  11.25 3 0  12 3 0  12.75 3 0  13.5 3 0  14.25 3 0  15 3 0  15.75 3 0  16.5 3 0  17.25 3 0  18 3 0  18.75 3 0  19.5 3 0  20.25 3 0  21 3 0  21.75 3 0  22.5 3 0  23.25 3 0  24 3 0  24.75 3 0  25.5 3 0  26.25 3 0  27 3 0  27.75 3 0  28.5 3 0  29.25 3 0  30 3 0  30.75 3 0  31.5 3 0  32.25 3 0  33 3 0  33.75 3 0  34.5 3 0  35.25 3 0  36 3 0  36.75 3 0  37.5 3 0  38.25 3 0  39 3 0  39.75 3 0  40.5 3 0  41.25 3 0  42 3 0  42.75 3 0  43.5 3 0  44.25 3 0  45 3 0  45.75 3 0  46.5 3 0  47.25 3 0  48 3 0  48.75 3 0  49.5 3 0  50.25 3 0  51 3 0  51.75 3 0  52.5 3 0  53.25 3 0  54 3 0  54.75 3 0  55.5 3 0  56.25 3 0  57 3 0  57.75 3 0  58.5 3 0  59.25 3 0  60 3 0  0 3.5 0  0.75 3.5 0  1.5 3.5 0  2.25 3.5 0  3 3.5 0  3.75 3.5 0  4.5 3.5 0  5.25 3.5 0  6 3.5 0  6.75 3.5 0  7.5 3.5 0  8.25 3.5 0  9 3.5 0  9.75 3.5 0  10.5 3.5 0  11.25 3.5 0  12 3.5 0  12.75 3.5 0  13.5 3.5 0  14.25 3.5 0  15 3.5 0  15.75 3.5 0  16.5 3.5 0  17.25 3.5 0  18 3.5 0  18.75 3.5 0  19.5 3.5 0  20.25 3.5 0  21 3.5 0  21.75 3.5 0  22.5 3.5 0  23.25 3.5 0  24 3.5 0  24.75 3.5 0  25.5 3.5 0  26.25 3.5 0  27 3.5 0  27.75 3.5 0  28.5 3.5 0  29.25 3.5 0  30 3.5 0  30.75 3.5 0  31.5 3.5 0  32.25 3.5 0  33 3.5 0  33.75 3.5 0  34.5 3.5 0  35.25 3.5 0  36 3.5 0  36.75 3.5 0  37.5 3.5 0  38.25 3.5 0  39 3.5 0  39.75 3.5 0  40.5 3.5 0  41.25 3.5 0  42 3.5 0  42.75 3.5 0  43.5 3.5 0  44.25 3.5 0  45 3.5 0  45.75 3.5 0  46.5 3.5 0  47.25 3.5 0  48 3.5 0  48.75 3.5 0  49.5 3.5 0  50.25 3.5 0  51 3.5 0  51.75 3.5 0  52.5 3.5 0  53.25 3.5 0  54 3.5 0  54.75 3.5 0  55.5 3.5 0  56.25 3.5 0  57 3.5 0  57.75 3.5 0  58.5 3.5 0  59.25 3.5 0  60 3.5 0  0 4 0  0.75 4 0  1.5 4 0  2.25 4 0  3 4 0  3.75 4 0  4.5 4 0  5.25 4 0  6 4 0  6.75 4 0  7.5 4 0  8.25 4 0  9 4 0  9.75 4 0  10.5 4 0  11.25 4 0  12 4 0  12.75 4 0  13.5 4 0  14.25 4 0  15 4 0  15.75 4 0  16.5 4 0  17.25 4 0  18 4 0  18.75 4 0  19.5 4 0  20.25 4 0  21 4 0  21.75 4 0  22.5 4 0  23.25 4 0  24 4 0  24.75 4 0  25.5 4 0  26.25 4 0  27 4 0  27.75 4 0  28.5 4 0  29.25 4 0  30 4 0  30.75 4 0  31.5 4 0  32.25 4 0  33 4 0  33.75 4 0  34.5 4 0  35.25 4 0  36 4 0  36.75 4 0  37.5 4 0  38.25 4 0  39 4 0  39.75 4 0  40.5 4 0  41.25 4 0  42 4 0  42.75 4 0  43.5 4 0  44.25 4 0  45 4 0  45.75 4 0  46.5 4 0  47.25 4 0  48 4 0  48.75 4 0  49.5 4 0  50.25 4 0  51 4 0  51.75 4 0  52.5 4 0  53.25 4 0  54 4 0  54.75 4 0  55.5 4 0  56.25 4 0  57 4 0  57.75 4 0  58.5 4 0  59.25 4 0  60 4 0  0.375 0.25 0  1.125 0.25 0  1.875 0.25 0  2.625 0.25 0  3.375 0.25 0  4.125 0.25 0  4.875 0.25 0  5.625 0.25 0  6.375 0.25 0  7.125 0.25 0  7.875 0.25 0  8.625 0.25 0  9.375 0.25 0  10.125 0.25 0  10.875 0.25 0  11.625 0.25 0  12.375 0.25 0  13.125 0.25 0  13.875 0.25 0  14.625 0.25 0  15.375 0.25 0  16.125 0.25 0  16.875 0.25 0  17.625 0.25 0  18.375 0.25 0  19.125 0.25 0  19.875 0.25 0  20.625 0.25 0  21.375 0.25 0  22.125 0.25 0  22.875 0.25 0  23.625 0.25 0  24.375 0.25 0  25.125 0.25 0  25.875 0.25 0  26.625 0.25 0  27.375 0.25 0  28.125 0.25 0  28.875 0.25 0  29.625 0.25 0  30.375 0.25 0  31.125 0.25 0  31.875 0.25 0  32.625 0.25 0  33.375 0.25 0  34.125 0.25 0  34.875 0.25 0  35.625 0.25 0  36.375 0.25 0  37.125 0.25 0  37.875 0.25 0  38.625 0.25 0  39.375 0.25 0  40.125 0.25 0  40.875 0.25 0  41.625 0.25 0  42.375 0.25 0  43.125 0.25 0  43.875 0.25 0  44.625 0.25 0  45.375 0.25 0  46.125 0.25 0  46.875 0.25 0  47.625 0.25 0  48.375 0.25 0  49.125 0.25 0  49.875 0.25 0  50.625 0.25 0  51.375 0.25 0  52.125 0.25 0  52.875 0.25 0  53.625 0.25 0  54.375 0.25 0  55.125 0.25 0  55.875 0.25 0  56.625 0.25 0  57.375 0.25 0  58.125 0.25 0  58.875 0.25 0  59.625 0.25 0  0.375 0.75 0  1.125 0.75 0  1.875 0.75 0  2.625 0.75 0  3.375 0.75 0  4.125 0.75 0  4.875 0.75 0  5.625 0.75 0  6.375 0.75 0  7.125 0.75 0  7.875 0.75 0  8.625 0.75 0  9.375 0.75 0  10.125 0.75 0  10.875 0.75 0  11.625 0.75 0  12.375 0.75 0  13.125 0.75 0  13.875 0.75 0  14.625 0.75 0  15.375 0.75 0  16.125 0.75 0  16.875 0.75 0  17.625 0.75 0  18.375 0.75 0  19.125 0.75 0  19.875 0.75 0  20.625 0.75 0  21.375 0.75 0  22.125 0.75 0  22.875 0.75 0  23.625 0.75 0  24.375 0.75 0  25.125 0.75 0  25.875 0.75 0  26.625 0.75 0  27.375 0.75 0  28.125 0.75 0  28.875 0.75 0  29.625 0.75 0  30.375 0.75 0  31.125 0.75 0  31.875 0.75 0  32.625 0.75 0  33.375 0.75 0  34.125 0.75 0  34.875 0.75 0  35.625 0.75 0  36.375 0.75 0  37.125 0.75 0  37.875 0.75 0  38.625 0.75 0  39.375 0.75 0  40.125 0.75 0  40
[...]
<PointData  Scalars="f_8-1"> 
<DataArray  type="Float64"  Name="f_8-1"  format="ascii">1.0689167101132771e+01  1.0558603193411821e+01  1.0424479153841920e+01  1.0290900879994075e+01  1.0157243853758468e+01  1.0023601543089063e+01  9.8899583878453239e+00  9.7563158790197342e+00  9.6226735577672269e+00  9.4890313638938757e+00  9.3553892411403350e+00  9.2217471603279986e+00  9.0881051042204231e+00  8.9544630632405990e+00  8.8208210321128568e+00  8.6871790080381821e+00  8.5535369895325157e+00  8.4198949758371455e+00  8.2862529665578908e+00  8.1526109614986080e+00  8.0189689605577499e+00  7.8853269636857304e+00  7.7516849708563598e+00  7.6180429820570215e+00  7.4844009972807362e+00  7.3507590165241963e+00  7.2171170397854274e+00  7.0834750670634969e+00  6.9498330983578063e+00  6.8161911336680738e+00  6.6825491729940643e+00  6.5489072163357314e+00  6.4152652636929162e+00  6.2816233150657377e+00  6.1479813704538948e+00  6.0143394298577935e+00  5.8806974932767142e+00  5.7470555607117415e+00  5.6134136321611336e+00  5.4797717076275578e+00  5.3461297871067890e+00  5.2124878706051350e+00  5.0788459581129137e+00  4.9452040496442464e+00  4.8115621451779775e+00  4.6779202447440671e+00  4.5442783482988025e+00  4.4106364559016544e+00  4.2769945674680905e+00  4.1433526831066594e+00  4.0097108026666133e+00  3.8760689263232297e+00  3.7424270538347781e+00  3.6087851854247797e+00  3.4751433207630269e+00  3.3415014599517789e+00  3.2078596026606014e+00  3.0742177482001138e+00  2.9405758965398530e+00  2.8069340441476558e+00  2.6732921923705200e+00  2.5396503292314097e+00  2.4060084574805400e+00  2.2723665227006333e+00  2.1387244538449490e+00  2.0050818564726027e+00  1.8714379769743457e+00  1.7377908628838299e+00  1.6041379198545018e+00  1.4704757222120184e+00  1.3368044738890372e+00  1.2031276359599123e+00  1.0694548845373457e+00  9.3578995214043681e-01  8.0214756084670724e-01  6.6853306086961772e-01  5.3498827823184980e-01  4.0145488408314739e-01  2.6810183428338097e-01  1.3385209006960699e-01  2.3874985453397821e-03  1.0692621742258458e+01  1.0557947792364891e+01  1.0424505325988980e+01  1.0290828642822886e+01  1.0157188815052081e+01  1.0023545108766580e+01  9.8899025192400298e+00  9.7562600945218367e+00  9.6226178348308444e+00  9.4889756687466260e+00  9.3553335608806929e+00  9.2216914878361500e+00  9.0880494358025938e+00  8.9544073969332700e+00  8.8207653668932213e+00  8.6871233433728623e+00  8.5534813251468691e+00  8.4198393115915167e+00  8.2861973023814706e+00  8.1525552973566189e+00  8.0189132964325420e+00  7.8852712995691325e+00  7.7516293067440039e+00  7.6179873179471649e+00  7.4843453331722829e+00  7.3507033524168390e+00  7.2170613756788917e+00  7.0834194029577437e+00  6.9497774342527974e+00  6.8161354695637684e+00  6.6824935088905457e+00  6.5488515522328496e+00  6.4152095995909404e+00  6.2815676509642238e+00  6.1479257063535746e+00  6.0142837657574946e+00  5.8806418291783054e+00  5.7469998966123290e+00  5.6133579680651371e+00  5.4797160435283212e+00  5.3460741230142226e+00  5.2124322065047366e+00  5.0787902940255787e+00  4.9451483855404712e+00  4.8115064810986397e+00  4.6778645806339405e+00  4.5442226842305882e+00  4.4105807917830413e+00  4.2769389034113248e+00  4.1432970189842049e+00  4.0096551386085926e+00  3.8760132622252663e+00  3.7423713897223152e+00  3.6087295214447082e+00  3.4750876564367239e+00  3.3414457963385646e+00  3.2078039377052670e+00  3.0741620855438230e+00  2.9405202299189530e+00  2.8068783837796771e+00  2.6732365215299048e+00  2.5395946746616280e+00  2.4059527779714780e+00  2.2723108878162086e+00  2.1386687655827479e+00  2.0050262746933045e+00  1.8713822158337241e+00  1.7377351405609787e+00  1.6040812952964920e+00  1.4704184906451829e+00  1.3367449213159626e+00  1.2030685010367312e+00  1.0693949601722379e+00  9.3573461464587659e-01  8.0208964758757684e-01  6.6848624396297174e-01  5.3492617082301364e-01  4.0142331861267283e-01  2.6790711846609472e-01  1.3412610006310460e-01  -4.3821893003254152e-04  1.0692062500612344e+01  1.0558149212852728e+01  1.0424438952401973e+01  1.0290787525120928e+01  1.0157139264076701e+01  1.0023494945511381e+01  9.8898517838029498e+00  9.7562091956471253e+00  9.6225668711129604e+00  9.4889246822345950e+00  9.3552825660367631e+00  9.2216404898416169e+00  9.0879984365658419e+00  8.9543563971354239e+00  8.8207143668487742e+00  8.6870723432040737e+00  8.5534303249250385e+00  8.4197883113417369e+00  8.2861463021218409e+00  8.1525042970919728e+00  8.0188622961675300e+00  7.8852202993042901e+00  7.7515783064804458e+00  7.6179363176847010e+00  7.4842943329111362e+00  7.3506523521567848e+00  7.2170103754199380e+00  7.0833684026998149e+00  6.9497264339957470e+00  6.8160844693077767e+00  6.6824425086352068e+00  6.5488005519787640e+00  6.4151585993370812e+00  6.2815166507121942e+00  6.1478747061008212e+00  6.0142327655080114e+00  5.8805908289259143e+00  5.7469488963664661e+00  5.6133069678116057e+00  5.4796650432882013e+00  5.3460231227567609e+00  5.2123812062740607e+00  5.0787392937597993e+00  4.9450973853246118e+00  4.8114554808192533e+00  4.6778135804379861e+00  4.5441716839358284e+00  4.4105297916035431e+00  4.2768879031179017e+00  4.1432460187842022e+00  4.0096041383919907e+00  3.8759622618693199e+00  3.7423203898129440e+00  3.6086785205456793e+00  3.4750366574257652e+00  3.3413947939173405e+00  3.2077529409573526e+00  3.0741110792636728e+00  2.9404692384371036e+00  2.8068273680352198e+00  2.6731855416920545e+00  2.5395436344452866e+00  2.4059018182782372e+00  2.2722597692036528e+00  2.1386177927120333e+00  2.0049748456789418e+00  1.8713309634931881e+00  1.7376826995294763e+00  1.6040292182838911e+00  1.4703641061635315e+00  1.3366924588515456e+00  1.2030136905201909e+00  1.0693482594003936e+00  9.3568329120897920e-01  8.0205169876375770e-01  6.6842991143199504e-01  5.3488295144920006e-01  4.0129278704200416e-01  2.6778249847711155e-01  1.3377936240530475e-01  9.3401612765297361e-05  1.0692074214414200e+01  1.0558224752520781e+01  1.0424488836803526e+01  1.0290812567412425e+01  1.0157157587894657e+01  1.0023510374321903e+01  9.8898661852814360e+00  9.7562231966511224e+00  9.6225807145568023e+00  9.4889384598415880e+00  9.3552963143387977e+00  9.2216542243732782e+00  9.0880121643607943e+00  8.9543701215789149e+00  8.8207280896000562e+00  8.6870860651066710e+00  8.5534440464025270e+00  8.4198020326111784e+00  8.2861600232904689e+00  8.1525180182136108e+00  8.0188760172680151e+00  7.8852340203958811e+00  7.7515920275688188e+00  7.6179500387721957e+00  7.4843080539988289e+00  7.3506660732448701e+00  7.2170240965085979e+00  7.0833821237888124e+00  6.9497401550852986e+00  6.8160981903972990e+00  6.6824562297254699e+00  6.5488142730683654e+00  6.4151723204281765e+00  6.2815303718012983e+00  6.1478884271933918e+00  6.0142464865955292e+00  5.8806045500213733e+00  5.7469626174502437e+00  5.6133206889129985e+00  5.4796787643642659e+00  5.3460368438694639e+00  5.2123949273359802e+00  5.0787530148918094e+00  4.9451111063642808e+00  4.8114692019787659e+00  4.6778273014515923e+00  4.5441854051200830e+00  4.4105435126117394e+00  4.2769016242789171e+00  4.1432597398872861e+00  4.0096178593462453e+00  3.8759759833792184e+00  3.7423341100256398e+00  3.6086922432679369e+00  3.4750503755239746e+00  3.3414085197005998e+00  3.2077666536202907e+00  3.0741248120640789e+00  2.9404829375970429e+00  2.8068411158789601e+00  2.6731992054908100e+00  2.5395574062910917e+00  2.4059153647367868e+00  2.2722734978668462e+00  2.1386308336408173e+00  2.0049879998179305e+00  1.8713421803785173e+00  1.7376940659115421e+00  1.6040372518240213e+00  1.4703755975448420e+00  1.3367015779237299e+00  1.2030342172980379e+00  1.0693613517100613e+00  9.3571709717532103e-01  8.0206547090311120e-01  6.6848018514130414e-01  5.3485986816139752e-01  4.0132650973375111e-01  2.6760588862619245e-01  1.3389578453808751e-01  -3.6513897700924292e-05  1.0692070263691134e+01  1.0558254471894896e+01  1.0424511258261214e+01  1.0290826920371906e+01  1.0157168646181963e+01  1.0023520240685409e+01  9.8898756012099156e+00  9.7562324422446451e+00  9.6225898929462765e+00  9.4889476104545292e+00  9.3553054526974719e+00  9.2216633570525399e+00  9.0880212943030916e+00  8.9543792501882624e+00  8.8207372175528374e+00  8.6870951927430777e+00  8.5534531738880997e+00  8.4198111600292780e+00  8.2861691506797488e+00  8.1525271455927673e+00  8.0188851446446456e+00  7.8852431477733083e+00  7.7516011549478661e+00  7.6179591661529988e+00  7.4843171813810345e+00  7.3506752006282783e+00  7.2170332238927655e+00  7.0833912511737367e+00  6.9497492824703988e+00  6.8161073177831266e+00  6.6824653571108099e+00  6.5488234004549923e+00  6.4151814478130547e+00  6.2815394991891775e+00  6.1478975545767192e+00  6.0142556139859940e+00  5.8806136774011284e+00  5.7469717448461664e+00  5.6133298162852503e+00  5.4796878917710226e+00  5.3460459712275492e+00  5.2124040547620929e+00  5.0787621422264850e+00  4.9451202338199947e+00  4.8114783292827186e+00  4.6778364289399565e+00  4.5441945324052950e+00  4.4105526400993575e+00  4.2769107516264526e+00  4.1432688672253546e+00  4.0096269870308099e+00  3.8759851101131928e+00  3.7423432387958990e+00  3.6087013682161269e+00  3.4750595071836639e+00  3.3414176400524784e+00  3.2077757922174186e+00  3.0741339213207928e+00  2.9404920920545865e+00  2.8068501984379961e+00  2.6732083948075331e+00  2.5395664199686383e+00  2.4059246161501027e+00  2.2722823027190131e+00  2.1386401088336968e+00  2.0049961220350623e+00  1.8713512102987815e+00  1.7377005256654168e+00  1.6040462919059360e+00  1.4703804332018759e+00  1.3367143684931868e+00  1.2030386950522274e+00  1.0693817063872486e+00  9.3571733762181342e-01  8.0209904938450738e-01  6.6846656599628984e-01  5.3490565579308302e-01  4.0127096128070461e-01  2.6764297372864587e-01  1.3383726009757876e-01  1.9982679118182564e-05  1.0692074216033241e+01  1.0558224697610507e+01  1.0424488781099097e+01  1.0290812522357527e+01  1.0157157551765977e+01  1.0023510345024823e+01  9.8898661609724403e+00  9.7562231758372704e+00  9.6225806961402558e+00  9.4889384430525343e+00  9.3552962986498827e+00  9.2216542094265090e+00  9.0880121499139612e+00  8.9543701074684297e+00  8.8207280757156799e+00  8.6870860513743331e+00  8.5534440327724734e+00  8.4198020190500298e+00  8.2861600097758199e+00  8.1525180047304211e+00  8.0188760038060547e+00  7.8852340069483304e+00  7.7515920141310595e+00  7.6179500253410781e+00  7.4843080405722118e+00  7.3506660598213438e+00  7.2170240830871535e+00  7.0833821103687873e+00  6.9497401416662683e+00  6.8160981769789277e+00  6.6824562163075756e+00  6.5488142596507828e+00  6.4151723070108204e+00  6.2815303583841153e+00  6.1478884137763155e+00  6.0142464731785843e+00  5.8806045366045510e+00  5.7469626040335511e+00  5.6133206754964808e+00  5.4796787509479845e+00  5.3460368304535324e+00  5.2123949139205239e+00  5.0787530014770734e+00  4.9451110929505848e+00  4.8114691885666030e+00  4.6778272880416623e+00  4.5441853917134365e+00  4.4105434992098784e+00  4.2769016108840336e+00  4.1432597265026399e+00  4.0096178459764920e+00  3.8759759700312131e+00  3.7423340967092051e+00  3.6086922299974753e+00  3.4750503623198918e+00  3.3414085065926415e+00  3.2077666406504690e+00  3.0741247992931986e+00  2.9404829251105071e+00  2.8068411037988468e+00  2.6731991939837902e+00  2.5395573955799962e+00  2.4059153550807522e+00  2.2722734895057952e+00  2.1386308266078622e+00  2.0049879936590669e+00  1.8713421737751006e+00  1.7376940567376178e+00  1.6040372379350485e+00  1.4703755784704478e+00  1.3367015549779051e+00  1.2030341911988061e+00  1.0693613201336591e+00  9.3571706204849026e-01  8.0206543846993483e-01  6.6848016254404052e-01  5.3485985972311256e-01  4.0132652132399760e-01  2.6760590253611544e-01  1.3389579022475440e-01  -3.6516257631124117e-05  1.0692062498088866e+01  1.0558149080939478e+01  1.0424438840260249e+01  1.0290787437424058e+01  1.0157139192321443e+01  1.0023494886512363e+01  9.8898517340226793e+00  9.7562091523373198e+00  9.6225668322409081e+00  9.4889246463749508e+00  9.3552825322125912e+00  9.2216404573899595e+00  9.0879984050383236e+00  8.9543563662294492e+00  8.8207143363605791e+00  8.6870723129967065e+00  8.5534302949066259e+00  8.4197882814506126e+00  8.2861462723166248e+00  8.1525042673447707e+00  8.0188622664596316e+00  7.8852202696230060e+00  7.7515782768172548e+00  7.6179362880337687e+00  7.4842943032685474e+00  7.3506523225198848e+00  7.2170103457868846e+00  7.0833683730694146e+00  6.9497264043671620e+00  6.8160844396804254e+00  6.6824424790086976e+00  6.5488005223528472e+00  6.4151585697115925e+00  6.2815166210869950e+00  6.1478746764758769e+00  6.0142327358832803e+00  5.8805907993013875e+00  5.7469488667421951e+00  5.6133069381876259e+00  5.4796650136646701e+00  5.3460230931338328e+00  5.2123811766520056e+00  5.0787392641390339e+00  4.9450973557056965e+00  4.8114554512030709e+00  4.6778135508258103e+00  4.5441716543295030e+00  4.4105297620057655e+00  4.2768878735326536e+00  4.1432459892172036e+00  4.0096041088516960e+00  3.8759622323678826e+00  3.7423203603681756e+00  3.6086784911830492e+00  3.4750366281823899e+00  3.3413947648459801e+00  3.2077529121344828e+00  3.0741110507974376e+00  2.9404692104834136e+00  2.8068273408121973e+00  2.6731855155065318e+00  2.5395436097010053e+00  2.4059017954713089e+00  2.2722597488011096e+00  2.1386177748880497e+00  2.0049748297318284e+00  1.8713309472219570e+00  1.7376826789842024e+00  1.6040291892351144e+00  1.4703640668834950e+00  1.3366924115501944e+00  1.2030136364806032e+00  1.0693481951015096e+00  9.3568321797733134e-01  8.0205163123063905e-01  6.6842985968353530e-01  5.3488293369699480e-01  4.0129280167454179e-01  2.6778254240543337e-01  1.3377935245974784e-01  9.3410357064922323e-05  1.0692621803313550e+01  1.0557947493480023e+01  1.0424505209913344e+01  1.0290828524469013e+01  1.0157188718336489e+01  1.0023545026022827e+01  9.8899024471396011e+00  9.7562600299339834e+00  9.6226177754424995e+00  9.4889756129043619e+00  9.3553335074401502e+00  9.2216914360164814e+00  9.0880493850744664e+00  8.9544073469391812e+00  8.8207653173924250e+00  8.6871232942035927e+00  8.5534812762005519e+00  8.4198392627953389e+00  8.2861972536864972e+00  8.1525552487300086e+00  8.0189132478521739e+00  7.8852712510201028e+00  7.7516292582162265e+00  7.6179872694338089e+00  7.4843452846687493e+00  7.3507033039199596e+00  7.2170613271865811e+00  7.0834193544685249e+00  6.9497773857656906e+00  6.8161354210781253e+00  6.6824934604059143e+00  6.5488515037488986e+00  6.4152095511075009e+00  6.2815676024811387e+00  6.1479256578707924e+00  6.0142837172749459e+00  5.8806417806960107e+00  5.7469998481303319e+00  5.6133579195835148e+00  5.4797159950471963e+00  5.3460740745338109e+00  5.2124321580253774e+00  5.0787902455477241e+00  4.9451483370648370e+00  4.8115064326262482e+00  4.6778645321663062e+00  4.5442226357698861e+00  4.4105807433324911e+00  4.2769388549756373e+00  4.1432969705702263e+00  4.0096550902263033e+00  3.8760132138891872e+00  3.7423713414534956e+00  3.6087294732735922e+00  3.4750876084072413e+00  3.3414457485138871e+00  3.2078038901760757e+00  3.0741620384398960e+00  2.9405201834253702e+00  2.8068783381581603e+00  2.6732364771431323e+00  2.5395946319905653e+00  2.4059527375946130e+00  2.2723108502920524e+00  2.1386687311311214e+00  2.0050262426222845e+00  1.8713821838200109e+00  1.7377351044330611e+00  1.6040812502067530e+00  1.4704184337984034e+00  1.3367448533021513e+00  1.2030684226746087e+00  1.0693948690386710e+00  9.3573451281822606e-01  8.0208954962074763e-01  6.6848616583672327e-01  5.3492613422280921e-01  4.0142332988162338e-01  2.6790716938613540e-01  1.3412612009805000e-01  -4.3824979925914697e-04  1.0689164984211518e+01  1.0558603333717782e+01  1.0424478952600214e+01  1.0290900748355353e+01  1.0157243730619067e+01  1.0023601433461932e+01  9.8899582877148564e+00  9.7563157857913918e+00  9.6226734693491256e+00  9.4890312787739113e+00  9.3553891582615734e+00  9.2217470789649472e+00  9.0881050238794838e+00  8.9544629835875060e+00  8.8208209529221016e+00  8.6871789291580832e+00  8.5535369108612027e+00  8.4198948973063281e+00  8.2862528881216875e+00  8.1526108831262842e+00  8.0189688822285934e+00  7.8853268853858038e+00  7.7516848925762449e+00  7.6180429037903439e+00  7.4844009190232201e+00  7.3507589382728717e+00  7.2171169615383546e+00  7.0834749888193160e+00  6.9498330201155785e+00  6.8161910554272049e+00  6.6825490947541413e+00  6.5489071380964630e+00  6.4152651854541087e+00  6.2816232368272722e+00  6.1479812922157153e+00  6.0143393516198520e+00  5.8806974150390294e+00  5.7470554824743543e+00  5.6134135539241372e+00  5.4797716293910614e+00  5.3461297088710422e+00  5.2124877923704629e+00  5.0788458798798182e+00  4.9452039714134486e+00  4.8115620669505459e+00  4.6779201665215524e+00  4.5442782700834830e+00  4.4106363776968376e+00  4.2769944892786897e+00  4.1433526049397269e+00  4.0097107245325425e+00  3.8760688482370198e+00  3.7424269758183053e+00  3.6087851075095578e+00  3.4751432429946987e+00  3.3415013823958679e+00  3.2078595254113464e+00  3.0742176713923799e+00  2.9405758203660008e+00  2.8069339688797901e+00  2.6732921183848335e+00  2.5396502570267447e+00  2.4060083876558944e+00  2.2723664558420391e+00  2.1387243902147852e+00  2.0050817954749314e+00  1.8714379164799015e+00  1.7377907990304013e+00  1.6041378479814825e+00  1.4704756390993328e+00  1.3368043788517872e+00  1.2031275288233092e+00  1.0694547635603162e+00  9.3578981928296134e-01  8.0214742873235656e-01  6.6853294507558614e-01  5.3498820742705255e-01  4.0145484445208124e-01  2.6810191849895187e-01  1.3385181078943495e-01  2.3890090945829353e-03  1.0624944229837403e+01  1.0491160961093811e+01  1.0357486380405685e+01  1.0223841433280130e+01  1.0090196798469117e+01  9.9565537909802924e+00  9.8229111769797939e+00  9.6892688140341487e+00  9.5556265879362083e+00  9.4219844444864371e+00  9.2883423505254505e+00  9.1547002861321030e+00  9.0210582397215191e+00  8.8874162047598428e+00  8.7537741777204765e+00  8.6201321567127387e+00  8.4864901407564606e+00  8.3528481293409484e+00  8.2192061222087887e+00  8.0855641192276657e+00  7.9519221203317221e+00  7.8182801254871679e+00  7.6846381346769359e+00  7.5509961478922722e+00  7.4173541651285326e+00  7.2837121863833652e+00  7.1500702116553940e+00  7.0164282409439371e+00  6.8827862742485530e+00  6.7491443115690002e+00  6.6155023529051808e+00  6.4818603982569156e+00  6.3482184476242907e+00  6.2145765010070582e+00  6.0809345584055157e+00  5.9472926198191081e+00  5.8136506852486747e+00  5.6800087546928353e+00  5.5463668281536966e+00  5.4127249056279307e+00  5.2790829871204856e+00  5.1454410726237700e+00  5.0117991621488116e+00  4.8781572556791541e+00  4.7445153532378868e+00  4.6108734547916566e+00  4.4772315603851238e+00  4.3435896699557990e+00  4.2099477835818098e+00  4.0763059011573430e+00  3.9426640227986720e+00  3.8090221483523203e+00  3.6753802779350049e+00  3.5417384113848338e+00  3.4080965486334027e+00  3.2744546896594073e+00  3.1408128335888397e+00  3.0071709808906029e+00  2.8735291281599760e+00  2.7398872771913099e+00  2.6062454177678243e+00  2.4726035535922635e+00  2.3389616458516560e+00  2.2053196541816575e+00  2.0716773111472411e+00  1.9380340903924165e+00  1.8043885304650389e+00  1.6707384186381509e+00  1.5370804434753893e+00  1.4034131907593370e+00  1.2697382463849429e+00  1.1360635762076825e+00  1.0023954619011890e+00  8.6874307424312902e-01  7.3511619055979072e-01  6.0153474817210484e-01  4.6800341694287323e-01  3.3448861985331063e-01  2.0090452080731339e-01  6.6461722130777445e-02  1.0625068527503249e+01  1.0491249388355099e+01  1.0357618836426282e+01  1.0223969250082959e+01  1.0090325774418119e+01  9.9566827098421129e+00  9.8230401463259973e+00  9.6893978037323389e+00  9.5557555945607664e+00  9.4221134619800608e+00  9.2884713747422296e+00  9.1548293142176949e+00  9.0211872700093121e+00  8.8875452362235290e+00  8.7539032098140090e+00  8.6202611891217700e+00  8.4866191733306842e+00  8.3529771619946125e+00  8.2193351549046376e+00  8.0856931519432607e+00  7.95205115305