<?xml version="1.0"?>
<VTKFile type="UnstructuredGrid"  version="0.1"  >
<UnstructuredGrid>
<Piece  NumberOfPoints="1369" NumberOfCells="2560">
<Points>
<DataArray  type="Float64"  NumberOfComponents="3"  format="ascii">0 0 0  0.75 0 0  1.5 0 0  2.25 0 0  3 0 0  3.75 0 0  4.5 0 0  5.25 0 0  6 0 0  6.75 0 0  7.5 0 0  8.25 0 0  9 0 0  9.75 0 0  10.5 0 0  11.25 0 0  12 0 0  12.75 0 0  13.5 0 0  14.25 0 0  15 0 0  15.75 0 0  16.5 0 0  17.25 0 0  18 0 0  18.75 0 0  19.5 0 0  20.25 0 0  21 0 0  21.75 0 0  22.5 0 0  23.25 0 0  24 0 0  24.75 0 0  25.5 0 0  26.25 0 0  27 0 0  27.75 0 0  28.5 0 0  29.25 0 0  30 0 0  30.75 0 0  31.5 0 0  32.25 0 0  33 0 0  33.75 0 0  34.5 0 0  35.25 0 0  36 0 0  36.75 0 0  37.5 0 0  38.25 0 0  39 0 0  39.75 0 0  40.5 0 0  41.25 0 0  42 0 0  42.75 0 0  43.5 0 0  44.25 0 0  45 0 0  45.75 0 0  46.5 0 0  47.25 0 0  48 0 0  48.75 0 0  49.5 0 0  50.25 0 0  51 0 0  51.75 0 0  52.5 0 0  53.25 0 0  54 0 0  54.75 0 0  55.5 0 0  56.25 0 0  57 0 0  57.75 0 0  58.5 0 0  59.25 0 0  60 0 0  0 0.5 0  0.75 0.5 0  1.5 0.5 0  2.25 0.5 0  3 0.5 0  3.75 0.5 0  4.5 0.5 0  5.25 0.5 0  6 0.5 0  6.75 0.5 0  7.5 0.5 0  8.25 0.5 0  9 0.5 0  9.75 0.5 0  10.5 0.5 0  11.25 0.5 0  12 0.5 0  12.75 0.5 0  13.5 0.5 0  14.25 0.5 0  15 0.5 0  15.75 0.5 0  16.5 0.5 0  17.25 0.5 0  18 0.5 0  18.75 0.5 0  19.5 0.5 0  20.25 0.5 0  21 0.5 0  21.75 0.5 0  22.5 0.5 0  23.25 0.5 0  24 0.5 0  24.75 0.5 0  25.5 0.5 0  26.25 0.5 0  27 0.5 0  27.75 0.5 0  28.5 0.5 0  29.25 0.5 0  30 0.5 0  30.75 0.5 0  31.5 0.5 0  32.25 0.5 0  33 0.5 0  33.75 0.5 0  34.5 0.5 0  35.25 0.5 0  36 0.5 0  36.75 0.5 0  37.5 0.5 0  38.25 0.5 0  39 0.5 0  39.75 0.5 0  40.5 0.5 0  41.25 0.5 0  42 0.5 0  42.75 0.5 0  43.5 0.5 0  44.25 0.5 0  45 0.5 0  45.75 0.5 0  46.5 0.5 0  47.25 0.5 0  48 0.5 0  48.75 0.5 0  49.5 0.5 0  50.25 0.5 0  51 0.5 0  51.75 0.5 0  52.5 0.5 0  53.25 0.5 0  54 0.5 0  54.75 0.5 0  55.5 0.5 0  56.25 0.5 0  57 0.5 0  57.75 0.5 0  58.5 0.5 0  59.25 0.5 0  60 0.5 0  0 1 0  0.75 1 0  1.5 1 0  2.25 1 0  3 1 0  3.75 1 0  4.5 1 0  5.25 1 0  6 1 0  6.75 1 0  7.5 1 0  8.25 1 0  9 1 0  9.75 1 0  10.5 1 0  11.25 1 0  12 1 0  12.75 1 0  13.5 1 0  14.25 1 0  15 1 0  15.75 1 0  16.5 1 0  17.25 1 0  18 1 0  18.75 1 0  19.5 1 0  20.25 1 0  21 1 0  21.75 1 0  22.5 1 0  23.25 1 0  24 1 0  24.75 1 0  25.5 1 0  26.25 1 0  27 1 0  27.75 1 0  28.5 1 0  29.25 1 0  30 1 0  30.75 1 0  31.5 1 0  32.25 1 0  33 1 0  33.75 1 0  34.5 1 0  35.25 1 0  36 1 0  36.75 1 0  37.5 1 0  38.25 1 0  39 1 0  39.75 1 0  40.5 1 0  41.25 1 0  42 1 0  42.75 1 0  43.5 1 0  44.25 1 0  45 1 0  45.75 1 0  46.5 1 0  47.25 1 0  48 1 0  48.75 1 0  49.5 1 0  50.25 1 0  51 1 0  51.75 1 0  52.5 1 0  53.25 1 0  54 1 0  54.75 1 0  55.5 1 0  56.25 1 0  57 1 0  57.75 1 0  58.5 1 0  59.25 1 0  60 1 0  0 1.5 0  0.75 1.5 0  1.5 1.5 0  2.25 1.5 0  3 1.5 0  3.75 1.5 0  4.5 1.5 0  5.25 1.5 0  6 1.5 0  6.75 1.5 0  7.5 1.5 0  8.25 1.5 0  9 1.5 0  9.75 1.5 0  10.5 1.5 0  11.25 1.5 0  12 1.5 0  12.75 1.5 0  13.5 1.5 0  14.25 1.5 0  15 1.5 0  15.75 1.5 0  16.5 1.5 0  17.25 1.5 0  18 1.5 0  18.75 1.5 0  19.5 1.5 0  20.25 1.5 0  21 1.5 0  21.75 1.5 0  22.5 1.5 0  23.25 1.5 0  24 1.5 0  24.75 1.5 0  25.5 1.5 0  26.25 1.5 0  27 1.5 0  27.75 1.5 0  28.5 1.5 0  29.25 1.5 0  30 1.5 0  30.75 1.5 0  31.5 1.5 0  32.25 1.5 0  33 1.5 0  33.75 1.5 0  34.5 1.5 0  35.25 1.5 0  36 1.5 0  36.75 1.5 0  37.5 1.5 0  38.25 1.5 0  39 1.5 0  39.75 1.5 0  40.5 1.5 0  41.25 1.5 0  42 1.5 0  42.75 1.5 0  43.5 1.5 0  44.25 1.5 0  45 1.5 0  45.75 1.5 0  46.5 1.5 0  47.25 1.5 0  48 1.5 0  48.75 1.5 0  49.5 1.5 0  50.25 1.5 0  51 1.5 0  51.75 1.5 0  52.5 1.5 0  53.25 1.5 0  54 1.5 0  54.75 1.5 0  55.5 1.5 0  56.25 1.5 0  57 1.5 0  57.75 1.5 0  58.5 1.5 0  59.25 1.5 0  60 1.5 0  0 2 0  0.75 2 0  1.5 2 0  2.25 2 0  3 2 0  3.75 2 0  4.5 2 0  5.25 2 0  6 2 0  6.75 2 0  7.5 2 0  8.25 2 0  9 2 0  9.75 2 0  10.5 2 0  11.25 2 0  12 2 0  12.75 2 0  13.5 2 0  14.25 2 0  15 2 0  15.75 2 0  16.5 2 0  17.25 2 0  18 2 0  18.75 2 0  19.5 2 0  20.25 2 0  21 2 0  21.75 2 0  22.5 2 0  23.25 2 0  24 2 0  24.75 2 0  25.5 2 0  26.25 2 0  27 2 0  27.75 2 0  28.5 2 0  29.25 2 0  30 2 0  30.75 2 0  31.5 2 0  32.25 2 0  33 2 0  33.75 2 0  34.5 2 0  35.25 2 0  36 2 0  36.75 2 0  37.5 2 0  38.25 2 0  39 2 0  39.75 2 0  40.5 2 0  41.25 2 0  42 2 0  42.75 2 0  43.5 2 0  44.25 2 0  45 2 0  45.75 2 0  46.5 2 0  47.25 2 0  48 2 0  48.75 2 0  49.5 2 0  50.25 2 0  51 2 0  51.75 2 0  52.5 2 0  53.25 2 0  54 2 0  54.75 2 0  55.5 2 0  56.25 2 0  57 2 0  57.75 2 0  58.5 2 0  59.25 2 0  60 2 0  0 2.5 0  0.75 2.5 0  1.5 2.5 0  2.25 2.5 0  3 2.5 0  3.75 2.5 0  4.5 2.5 0  5.25 2.5 0  6 2.5 0  6.75 2.5 0  7.5 2.5 0  8.25 2.5 0  9 2.5 0  9.75 2.5 0  10.5 2.5 0  11.25 2.5 0  12 2.5 0  12.75 2.5 0  13.5 2.5 0  14.25 2.5 0  15 2.5 0  15.75 2.5 0  16.5 2.5 0  17.25 2.5 0  18 2.5 0  18.75 2.5 0  19.5 2.5 0  20.25 2.5 0  21 2.5 0  21.75 2.5 0  22.5 2.5 0  23.25 2.5 0  24 2.5 0  24.75 2.5 0  25.5 2.5 0  26.25 2.5 0  27 2.5 0  27.75 2.5 0  28.5 2.5 0  29.25 2.5 0  30 2.5 0  30.75 2.5 0  31.5 2.5 0  32.25 2.5 0  33 2.5 0  33.75 2.5 0  34.5 2.5 0  35.25 2.5 0  36 2.5 0  36.75 2.5 0  37.5 2.5 0  38.25 2.5 0  39 2.5 0  39.75 2.5 0  40.5 2.5 0  41.25 2.5 0  42 2.5 0  42.75 2.5 0  43.5 2.5 0  44.25 2.5 0  45 2.5 0  45.75 2.5 0  46.5 2.5 0  47.25 2.5 0  48 2.5 0  48.75 2.5 0  49.5 2.5 0  50.25 2.5 0  51 2.5 0  51.75 2.5 0  52.5 2.5 0  53.25 2.5 0  54 2.5 0  54.75 2.5 0  55.5 2.5 0  56.25 2.5 0  57 2.5 0  57.75 2.5 0  58.5 2.5 0  59.25 2.5 0  60 2.5 0  0 3 0  0.75 3 0  1.5 3 0  2.25 3 0  3 3 0  3.75 3 0  4.5 3 0  5.25 3 0  6 3 0  6.75 3 0  7.5 3 0  8.25 3 0  9 3 0  9.75 3 0  10.5 3 0  11.25 3 0  12 3 0  12.75 3 0  13.5 3 0  14.25 3 0  15 3 0  15.75 3 0  16.5 3 0  17.25 3 0  18 3 0  18.75 3 0  19.5 3 0  20.25 3 0  21 3 0  21.75 3 0  22.5 3 0  23.25 3 0  24 3 0  24.75 3 0  25.5 3 0  26.25 3 0  27 3 0  27.75 3 0  28.5 3 0  29.25 3 0  30 3 0  30.75 3 0  31.5 3 0  32.25 3 0  33 3 0  33.75 3 0  34.5 3 0  35.25 3 0  36 3 0  36.75 3 0  37.5 3 0  38.25 3 0  39 3 0  39.75 3 0  40.5 3 0  41.25 3 0  42 3 0  42.75 3 0  43.5 3 0  44.25 3 0  45 3 0  45.75 3 0  46.5 3 0  47.25 3 0  48 3 0  48.75 3 0  49.5 3 0  50.25 3 0  51 3 0  51.75 3 0  52.5 3 0  53.25 3 0  54 3 0  54.75 3 0  55.5 3 0  56.25 3 0  57 3 0  57.75 3 0  58.5 3 0  59.25 3 0  60 3 0  0 3.5 0  0.75 3.5 0  1.5 3.5 0  2.25 3.5 0  3 3.5 0  3.75 3.5 0  4.5 3.5 0  5.25 3.5 0  6 3.5 0  6.75 3.5 0  7.5 3.5 0  8.25 3.5 0  9 3.5 0  9.75 3.5 0  10.5 3.5 0  11.25 3.5 0  12 3.5 0  12.75 3.5 0  13.5 3.5 0  14.25 3.5 0  15 3.5 0  15.75 3.5 0  16.5 3.5 0  17.25 3.5 0  18 3.5 0  18.75 3.5 0  19.5 3.5 0  20.25 3.5 0  21 3.5 0  21.75 3.5 0  22.5 3.5 0  23.25 3.5 0  24 3.5 0  24.75 3.5 0  25.5 3.5 0  26.25 3.5 0  27 3.5 0  27.75 3.5 0  28.5 3.5 0  29.25 3.5 0  30 3.5 0  30.75 3.5 0  31.5 3.5 0  32.25 3.5 0  33 3.5 0  33.75 3.5 0  34.5 3.5 0  35.25 3.5 0  36 3.5 0  36.75 3.5 0  37.5 3.5 0  38.25 3.5 0  39 3.5 0  39.75 3.5 0  40.5 3.5 0  41.25 3.5 0  42 3.5 0  42.75 3.5 0  43.5 3.5 0  44.25 3.5 0  45 3.5 0  45.75 3.5 0  46.5 3.5 0  47.25 3.5 0  48 3.5 0  48.75 3.5 0  49.5 3.5 0  50.25 3.5 0  51 3.5 0  51.75 3.5 0  52.5 3.5 0  53.25 3.5 0  54 3.5 0  54.75 3.5 0  55.5 3.5 0  56.25 3.5 0  57 3.5 0  57.75 3.5 0  58.5 3.5 0  59.25 3.5 0  60 3.5 0  0 4 0  0.75 4 0  1.5 4 0  2.25 4 0  3 4 0  3.75 4 0  4.5 4 0  5.25 4 0  6 4 0  6.75 4 0  7.5 4 0  8.25 4 0  9 4 0  9.75 4 0  10.5 4 0  11.25 4 0  12 4 0  12.75 4 0  13.5 4 0  14.25 4 0  15 4 0  15.75 4 0  16.5 4 0  17.25 4 0  18 4 0  18.75 4 0  19.5 4 0  20.25 4 0  21 4 0  21.75 4 0  22.5 4 0  23.25 4 0  24 4 0  24.75 4 0  25.5 4 0  26.25 4 0  27 4 0  27.75 4 0  28.5 4 0  29.25 4 0  30 4 0  30.75 4 0  31.5 4 0  32.25 4 0  33 4 0  33.75 4 0  34.5 4 0  35.25 4 0  36 4 0  36.75 4 0  37.5 4 0  38.25 4 0  39 4 0  39.75 4 0  40.5 4 0  41.25 4 0  42 4 0  42.75 4 0  43.5 4 0  44.25 4 0  45 4 0  45.75 4 0  46.5 4 0  47.25 4 0  48 4 0  48.75 4 0  49.5 4 0  50.25 4 0  51 4 0  51.75 4 0  52.5 4 0  53.25 4 0  54 4 0  54.75 4 0  55.5 4 0  56.25 4 0  57 4 0  57.75 4 0  58.5 4 0  59.25 4 0  60 4 0  0.375 0.25 0  1.125 0.25 0  1.875 0.25 0  2.625 0.25 0  3.375 0.25 0  4.125 0.25 0  4.875 0.25 0  5.625 0.25 0  6.375 0.25 0  7.125 0.25 0  7.875 0.25 0  8.625 0.25 0  9.375 0.25 0  10.125 0.25 0  10.875 0.25 0  11.625 0.25 0  12.375 0.25 0  13.125 0.25 0  13.875 0.25 0  14.625 0.25 0  15.375 0.25 0  16.125 0.25 0  16.875 0.25 0  17.625 0.25 0  18.375 0.25 0  19.125 0.25 0  19.875 0.25 0  20.625 0.25 0  21.375 0.25 0  22.125 0.25 0  22.875 0.25 0  23.625 0.25 0  24.375 0.25 0  25.125 0.25 0  25.875 0.25 0  26.625 0.25 0  27.375 0.25 0  28.125 0.25 0  28.875 0.25 0  29.625 0.25 0  30.375 0.25 0  31.125 0.25 0  31.875 0.25 0  32.625 0.25 0  33.375 0.25 0  34.125 0.25 0  34.875 0.25 0  35.625 0.25 0  36.375 0.25 0  37.125 0.25 0  37.875 0.25 0  38.625 0.25 0  39.375 0.25 0  40.125 0.25 0  40.875 0.25 0  41.625 0.25 0  42.375 0.25 0  43.125 0.25 0  43.875 0.25 0  44.625 0.25 0  45.375 0.25 0  46.125 0.25 0  46.875 0.25 0  47.625 0.25 0  48.375 0.25 0  49.125 0.25 0  49.875 0.25 0  50.625 0.25 0  51.375 0.25 0  52.125 0.25 0  52.875 0.25 0  53.625 0.25 0  54.375 0.25 0  55.125 0.25 0  55.875 0.25 0  56.625 0.25 0  57.375 0.25 0  58.125 0.25 0  58.875 0.25 0  59.625 0.25 0  0.375 0.75 0  1.125 0.75 0  1.875 0.75 0  2.625 0.75 0  3.375 0.75 0  4.125 0.75 0  4.875 0.75 0  5.625 0.75 0  6.375 0.75 0  7.125 0.75 0  7.875 0.75 0  8.625 0.75 0  9.375 0.75 0  10.125 0.75 0  10.875 0.75 0  11.625 0.75 0  12.375 0.75 0  13.125 0.75 0  13.875 0.75 0  14.625 0.75 0  15.375 0.75 0  16.125 0.75 0  16.875 0.75 0  17.625 0.75 0  18.375 0.75 0  19.125 0.75 0  19.875 0.75 0  20.625 0.75 0  21.375 0.75 0  22.125 0.75 0  22.875 0.75 0  23.625 0.75 0  24.375 0.75 0  25.125 0.75 0  25.875 0.75 0  26.625 0.75 0  27.375 0.75 0  28.125 0.75 0  28.875 0.75 0  29.625 0.75 0  30.375 0.75 0  31.125 0.75 0  31.875 0.75 0  32.625 0.75 0  33.375 0.75 0  34.125 0.75 0  34.875 0.75 0  35.625 0.75 0  36.375 0.75 0  37.125 0.75 0  37.875 0.75 0  38.625 0.75 0  39.375 0.75 0  40.125 0.75 0  40
[...]
<PointData  Scalars="f_8-1"> 
<DataArray  type="Float64"  Name="f_8-1"  format="ascii">1.1850252776731971e+01  1.1705629531098555e+01  1.1555621658947507e+01  1.1408203070437082e+01  1.1259769929427080e+01  1.1111704181397160e+01  1.0963518363667003e+01  1.0815370395848998e+01  1.0667211788958888e+01  1.0519056315546806e+01  1.0370900101349221e+01  1.0222744130302521e+01  1.0074588124229441e+01  9.9264321393176562e+00  9.7782761537799914e+00  9.6301201684556137e+00  9.4819641806475978e+00  9.3338081896168177e+00  9.1856521947785001e+00  9.0374961958552209e+00  8.8893401926843616e+00  8.7411841851791863e+00  8.5930281732915681e+00  8.4448721569947889e+00  8.2967161362736981e+00  8.1485601111199113e+00  8.0004040815287709e+00  7.8522480474975707e+00  7.7040920090245280e+00  7.5559359661088115e+00  7.4077799187499442e+00  7.2596238669475497e+00  7.1114678107013178e+00  6.9633117500113739e+00  6.8151556848773573e+00  6.6669996152991562e+00  6.5188435412770689e+00  6.3706874628110715e+00  6.2225313799010404e+00  6.0743752925469181e+00  5.9262192007485579e+00  5.7780631045064279e+00  5.6299070038198797e+00  5.4817508986892127e+00  5.3335947891142599e+00  5.1854386750948578e+00  5.0372825566306911e+00  4.8891264337209375e+00  4.7409703063659787e+00  4.5928141745624567e+00  4.4446580383134107e+00  4.2965018976068494e+00  4.1483457524518172e+00  4.0001896028135100e+00  3.8520334487104964e+00  3.7038772900396721e+00  3.5557211268079825e+00  3.4075649586899366e+00  3.2594087855005460e+00  3.1112526060670498e+00  2.9630964188294633e+00  2.8149402180676621e+00  2.6667839909658890e+00  2.5186276981040709e+00  2.3704712410339055e+00  2.2223143749735934e+00  2.0741565921407150e+00  1.9259969769384597e+00  1.7778342893271668e+00  1.6296674883128508e+00  1.4814968185943767e+00  1.3333243030827511e+00  1.1851528594316652e+00  1.0369850983256264e+00  8.8882450219848685e-01  7.4067703936222318e-01  5.9255031852832807e-01  4.4445500237678054e-01  2.9641109606190424e-01  1.4847639580195188e-01  2.9675727480453656e-03  1.1852823138860032e+01  1.1704454766652402e+01  1.1556269807911475e+01  1.1408024611063652e+01  1.1259909858554625e+01  1.1111730301259135e+01  1.0963581756038938e+01  1.0815422481487555e+01  1.0667267193508716e+01  1.0519110837330949e+01  1.0370954878845817e+01  1.0222798853419224e+01  1.0074642867825924e+01  9.9264868815933074e+00  9.7783308984554171e+00  9.6301749136908654e+00  9.4820189263703138e+00  9.3338629355624931e+00  9.1857069408562086e+00  9.0375509420034028e+00  8.8893949388721278e+00  8.7412389313891001e+00  8.5930829195143286e+00  8.4449269032252001e+00  8.2967708825088700e+00  8.1486148573583232e+00  8.0004588277694939e+00  7.8523027937402681e+00  7.7041467552687086e+00  7.5559907123545278e+00  7.4078346649970515e+00  7.2596786131959821e+00  7.1115225569510656e+00  6.9633664962625446e+00  6.8152104311298141e+00  6.6670543615528750e+00  6.5188982875321884e+00  6.3707422090675312e+00  6.2225861261588928e+00  6.0744300388061125e+00  5.9262739470090757e+00  5.7781178507684352e+00  5.6299617500831900e+00  5.4818056449539299e+00  5.3336495353803279e+00  5.1854934213625556e+00  5.0373373028995001e+00  4.8891811799916995e+00  4.7410250526373980e+00  4.5928689208368212e+00  4.4447127845873071e+00  4.2965566438859728e+00  4.1484004987276411e+00  4.0002443490996491e+00  3.8520881949874850e+00  3.7039320363369881e+00  3.5557758730838676e+00  3.4076197050024732e+00  3.2594635317699834e+00  3.1113073524341890e+00  2.9631511653152938e+00  2.8149949654957442e+00  2.6668387407337768e+00  2.5186824534429046e+00  2.3705260024188917e+00  2.2223691280427031e+00  2.0742112693998882e+00  1.9260513989577195e+00  1.7778881248717542e+00  1.6297204014942108e+00  1.4815489202786012e+00  1.3333763941867229e+00  1.1852056630811902e+00  1.0370388418923389e+00  8.8888016441584328e-01  7.4073568475199458e-01  5.9261250416353428e-01  4.4451814444312554e-01  2.9646166780340316e-01  1.4853465199734381e-01  9.1830764713977763e-05  1.1852213513121656e+01  1.1704433419808794e+01  1.1556228353711944e+01  1.1408090833577116e+01  1.1259919819011683e+01  1.1111767941007955e+01  1.0963609334990149e+01  1.0815453783443628e+01  1.0667297419517842e+01  1.0519141435291251e+01  1.0370985398783874e+01  1.0222829409490588e+01  1.0074673422703755e+01  9.9265174414013533e+00  9.7783614595899468e+00  9.6302054759076157e+00  9.4820494890971716e+00  9.3338934985886866e+00  9.1857375040421587e+00  9.0375815052781139e+00  8.8894255021959676e+00  8.7412694947402354e+00  8.5931134828810354e+00  8.4449574666007514e+00  8.2968014458896775e+00  8.1486454207422732e+00  8.0004893911554671e+00  7.8523333571277680e+00  7.7041773186571252e+00  7.5560212757437748e+00  7.4078652283870401e+00  7.2597091765866058e+00  7.1115531203422622e+00  6.9633970596543433e+00  6.8152409945222461e+00  6.6670849249458159e+00  6.5189288509257945e+00  6.3707727724616809e+00  6.2226166895537460e+00  6.0744606022015271e+00  5.9263045104051315e+00  5.7781484141651802e+00  5.6299923134807210e+00  5.4818362083519450e+00  5.3336800987792916e+00  5.1855239847621215e+00  5.0373678663001291e+00  4.8892117433932301e+00  4.7410556160401676e+00  4.5928994842414728e+00  4.4447433479932803e+00  4.2965872072970432e+00  4.1484310621396272e+00  4.0002749125264350e+00  3.8521187584160543e+00  3.7039625998103065e+00  3.5558064365746263e+00  3.4076502686396806e+00  3.2594940955413794e+00  3.1113379168124866e+00  2.9631817308277597e+00  2.8150255349934818e+00  2.6668693201846438e+00  2.5187130598243592e+00  2.3705566657022903e+00  2.2223998969047800e+00  2.0742421707133234e+00  1.9260823499603401e+00  1.7779187394955476e+00  1.6297500377306098e+00  1.4815773291495740e+00  1.3334044609642579e+00  1.1852340488396349e+00  1.0370674348645923e+00  8.8890942302172571e-01  7.4076613641239764e-01  5.9264332780175843e-01  4.4454481439031629e-01  2.9646288597015885e-01  1.4834766639557714e-01  -3.4664799484599086e-07  1.1852278410851238e+01  1.1704256896158883e+01  1.1556191146792022e+01  1.1408044751520249e+01  1.1259893845085234e+01  1.1111737134726084e+01  1.0963581267207005e+01  1.0815424960200540e+01  1.0667268886321240e+01  1.0519112820381505e+01  1.0370956807196466e+01  1.0222800809910831e+01  1.0074644824117398e+01  9.9264888418209747e+00  9.7783328598380113e+00  9.6301768759648496e+00  9.4820208890766207e+00  9.3338648985230392e+00  9.1857089039560229e+00  9.0375529051812276e+00  8.8893969020943953e+00  8.7412408946369187e+00  8.5930848827767239e+00  8.4449288664958893e+00  8.2967728457846430e+00  8.1486168206370504e+00  8.0004607910501360e+00  7.8523047570218365e+00  7.7041487185511519e+00  7.5559926756373343e+00  7.4078366282800676e+00  7.2596805764791865e+00  7.1115245202344584e+00  6.9633684595457108e+00  6.8152123944130798e+00  6.6670563248365990e+00  6.5189002508159613e+00  6.3707441723514489e+00  6.2225880894428034e+00  6.0744320020902878e+00  5.9262759102937252e+00  5.7781198140531123e+00  5.6299637133684319e+00  5.4818076082397083e+00  5.3336514986665602e+00  5.1854953846493386e+00  5.0373392661876197e+00  4.8891831432810058e+00  4.7410270159299674e+00  4.5928708841313171e+00  4.4447147478888551e+00  4.2965586071903772e+00  4.1484024620487352e+00  4.0002463124245420e+00  3.8520901583479503e+00  3.7039339996991409e+00  3.5557778365186121e+00  3.4076216684292855e+00  3.2594654953651889e+00  3.1113093160652263e+00  2.9631531295009648e+00  2.8149969299074202e+00  2.6668407052363210e+00  2.5186844108212587e+00  2.3705279315355527e+00  2.2223709629171151e+00  2.0742128729178830e+00  1.9260525140670497e+00  1.7778884358449951e+00  1.6297197661066625e+00  1.4815479135107728e+00  1.3333761061099578e+00  1.1852068202728541e+00  1.0370420396423841e+00  8.8888656533485633e-01  7.4074498146322543e-01  5.9262168174421537e-01  4.4451436736963973e-01  2.9640732479400211e-01  1.4825881263247578e-01  5.7072555987242145e-06  1.1852245113589960e+01  1.1704249282273830e+01  1.1556167356638070e+01  1.1408039185196483e+01  1.1259887759659211e+01  1.1111732877184265e+01  1.0963576723548746e+01  1.0815420592083306e+01  1.0667264469166456e+01  1.0519108414998211e+01  1.0370952394082959e+01  1.0222796396099678e+01  1.0074640408706742e+01  9.9264844258138094e+00  9.7783284434193121e+00  9.6301724593489908e+00  9.4820164723531537e+00  9.3338604817477133e+00  9.1857044871553821e+00  9.0375484883696799e+00  8.8893924852784458e+00  8.7412364778198715e+00  8.5930804659599254e+00  8.4449244496798865e+00  8.2967684289694983e+00  8.1486124038228045e+00  8.0004563742365953e+00  7.8523003402089104e+00  7.7041443017387792e+00  7.5559882588254199e+00  7.4078322114686204e+00  7.2596761596681070e+00  7.1115201034237110e+00  6.9633640427353578e+00  6.8152079776031167e+00  6.6670519080269637e+00  6.5188958340067433e+00  6.3707397555425089e+00  6.2225836726342507e+00  6.0744275852820389e+00  5.9262714934859932e+00  5.7781153972456734e+00  5.6299592965616414e+00  5.4818031914333343e+00  5.3336470818611490e+00  5.1854909678447560e+00  5.0373348493843579e+00  4.8891787264801385e+00  4.7410225991305976e+00  4.5928664673385118e+00  4.4447103310963811e+00  4.2965541904147342e+00  4.1483980452682108e+00  4.0002418956836223e+00  3.8520857415836698e+00  3.7039295830182435e+00  3.5557734197509498e+00  3.4076172518107097e+00  3.2594610784311939e+00  3.1113048992338088e+00  2.9631487111585408e+00  2.8149925093082304e+00  2.6668362734145989e+00  2.5186799530683905e+00  2.3705234017328265e+00  2.2223662921829388e+00  2.0742079435912717e+00  1.9260472769391552e+00  1.7778830072217908e+00  1.6297146456240719e+00  1.4815434434537302e+00  1.3333722211293271e+00  1.1852033714118972e+00  1.0370396859250390e+00  8.8888507477860990e-01  7.4074447271704236e-01  5.9262032705961687e-01  4.4450939138524898e-01  2.9639385780732674e-01  1.4823457084743447e-01  1.2642863587150634e-05  1.1852278420041021e+01  1.1704256918340896e+01  1.1556191168825816e+01  1.1408044765776941e+01  1.1259893857438765e+01  1.1111737146232199e+01  1.0963581279217205e+01  1.0815424972764179e+01  1.0667268899521288e+01  1.0519112834106391e+01  1.0370956821351268e+01  1.0222800824395184e+01  1.0074644838850455e+01  9.9264888567372633e+00  9.7783328748868890e+00  9.6301768911088921e+00  9.4820209042880155e+00  9.3338649137819871e+00  9.1857089192480306e+00  9.0375529204964931e+00  8.8893969174256480e+00  8.7412409099793074e+00  8.5930848981269090e+00  8.4449288818515740e+00  8.2967728611441132e+00  8.1486168359992810e+00  8.0004608064142424e+00  7.8523047723873001e+00  7.7041487339176298e+00  7.5559926910046045e+00  7.4078366436479870e+00  7.2596805918475962e+00  7.1115245356032659e+00  6.9633684749150486e+00  6.8152124097828759e+00  6.6670563402067389e+00  6.5189002661865247e+00  6.3707441877223658e+00  6.2225881048140961e+00  6.0744320174620228e+00  5.9262759256658866e+00  5.7781198294258997e+00  5.6299637287417985e+00  5.4818076236140048e+00  5.3336515140420326e+00  5.1854954000265261e+00  5.0373392815672151e+00  4.8891831586642178e+00  4.7410270313184917e+00  4.5928708995276262e+00  4.4447147632965995e+00  4.2965586226148673e+00  4.1484024774978074e+00  4.0002463279094274e+00  3.8520901738849442e+00  3.7039340153115448e+00  3.5557778522399754e+00  3.4076216843073479e+00  3.2594655114680613e+00  3.1113093324893604e+00  2.9631531463808911e+00  2.8149969474214895e+00  2.6668407235938223e+00  2.5186844301963189e+00  2.3705279519009901e+00  2.2223709837722208e+00  2.0742128930827510e+00  1.9260525319893520e+00  1.7778884507580046e+00  1.6297197791061924e+00  1.4815479261478233e+00  1.3333761170219898e+00  1.1852068269488396e+00  1.0370420439760435e+00  8.8888657024239381e-01  7.4074499073130440e-01  5.9262170157463656e-01  4.4451440344913168e-01  2.9640737964962688e-01  1.4825887299280849e-01  5.7081917644544544e-06  1.1852213496170233e+01  1.1704433502875466e+01  1.1556228400577798e+01  1.1408090872117949e+01  1.1259919848373979e+01  1.1111767971257494e+01  1.0963609364350523e+01  1.0815453814000133e+01  1.0667297450818927e+01  1.0519141467439091e+01  1.0370985431582282e+01  1.0222829442812259e+01  1.0074673456418896e+01  9.9265174754092662e+00  9.7783614938116781e+00  9.6302055102824973e+00  9.4820495235809332e+00  9.3338935331490305e+00  9.1857375386568840e+00  9.0375815399299828e+00  8.8894255368740023e+00  8.7412695294366145e+00  8.5931135175899733e+00  8.4449575013184592e+00  8.2968014806136008e+00  8.1486454554706480e+00  8.0004894258870465e+00  7.8523333918612970e+00  7.7041773533926294e+00  7.5560213104804959e+00  7.4078652631247071e+00  7.2597092113251014e+00  7.1115531550815545e+00  6.9633970943941144e+00  6.8152410292627046e+00  6.6670849596872728e+00  6.5189288856678607e+00  6.3707728072044070e+00  6.2226167242969730e+00  6.0744606369455898e+00  5.9263045451503000e+00  5.7781484489110326e+00  5.6299923482279031e+00  5.4818362431008554e+00  5.3336801335301178e+00  5.1855240195156620e+00  5.0373679010578094e+00  4.8892117781569144e+00  4.7410556508128154e+00  4.5928995190270605e+00  4.4447433827974505e+00  4.2965872421289424e+00  4.1484310970121516e+00  4.0002749474582888e+00  3.8521187934339505e+00  3.7039626349530450e+00  3.5558064718977436e+00  3.4076503042227855e+00  3.2594941314975459e+00  3.1113379533024150e+00  2.9631817680739929e+00  2.8150255732903395e+00  2.6668693598772242e+00  2.5187131012091153e+00  2.3705567087799930e+00  2.2223999409773003e+00  2.0742422140545114e+00  1.9260823901685307e+00  1.7779187750421752e+00  1.6297500695961364e+00  1.4815773593663535e+00  1.3334044880925950e+00  1.1852340691423078e+00  1.0370674504783357e+00  8.8890943941036860e-01  7.4076616032329112e-01  5.9264337063374783e-01  4.4454488847070178e-01  2.9646300383606172e-01  1.4834781087296312e-01  -3.1313078944345764e-07  1.1852823287603311e+01  1.1704454962103149e+01  1.1556269919489280e+01  1.1408024695700307e+01  1.1259909955437536e+01  1.1111730382774953e+01  1.0963581841704094e+01  1.0815422565476229e+01  1.0667267278533270e+01  1.0519110922780531e+01  1.0370954964857653e+01  1.0222798939859326e+01  1.0074642954611617e+01  9.9264869686402069e+00  9.7783309856971847e+00  9.6301750010741003e+00  9.4820190138551244e+00  9.3338630231192514e+00  9.1857070284641509e+00  9.0375510296466040e+00  8.8893950265401482e+00  8.7412390190745519e+00  8.5930830072117246e+00  8.4449269909309823e+00  8.2967709702204981e+00  8.1486149450741259e+00  8.0004589154883199e+00  7.8523028814610560e+00  7.7041468429912729e+00  7.5559908000782681e+00  7.4078347527217474e+00  7.2596787009214987e+00  7.1115226446774082e+00  6.9633665839894441e+00  6.8152105188574952e+00  6.6670544492815775e+00  6.5188983752617267e+00  6.3707422967978102e+00  6.2225862138899206e+00  6.0744301265381377e+00  5.9262740347423914e+00  5.7781179385027963e+00  5.6299618378191685e+00  5.4818057326919174e+00  5.3336496231207171e+00  5.1854935091061343e+00  5.0373373906479131e+00  4.8891812677470838e+00  4.7410251404030204e+00  4.5928690086172468e+00  4.4447128723890241e+00  4.2965567317192370e+00  4.1484005866071145e+00  4.0002444370465247e+00  3.8520882830321979e+00  3.7039321245235266e+00  3.5557759614754190e+00  3.4076197936895052e+00  3.2594636208807808e+00  3.1113074421493332e+00  2.9631512558806703e+00  2.8149950572271507e+00  2.6668388339854214e+00  2.5186825484994064e+00  2.3705260992627619e+00  2.2223692260216938e+00  2.0742113670016646e+00  1.9260514941186990e+00  1.7778882160595881e+00  1.6297204887455790e+00  1.4815490043708985e+00  1.3333764741689602e+00  1.1852057367115445e+00  1.0370389102646351e+00  8.8888023283681061e-01  7.4073576150498643e-01  5.9261260242843572e-01  4.4451828275986777e-01  2.9646187682585029e-01  1.4853509169407086e-01  9.1890103556750024e-05  1.1850251881609049e+01  1.1705630397186315e+01  1.1555621495001709e+01  1.1408203353560376e+01  1.1259770029652902e+01  1.1111704333369463e+01  1.0963518497544442e+01  1.0815370533414981e+01  1.0667211925598902e+01  1.0519056452672757e+01  1.0370900238751458e+01  1.0222744268004323e+01  1.0074588262175277e+01  9.9264322774570193e+00  9.7782762920672592e+00  9.6301203068524028e+00  9.4819643191238452e+00  9.3338083281498694e+00  9.1856523333519640e+00  9.0374963344568755e+00  8.8893403313057391e+00  8.7411843238144673e+00  8.5930283119363349e+00  8.4448722956463413e+00  8.2967162749297678e+00  8.1485602497792922e+00  8.0004042201905570e+00  7.8522481861609972e+00  7.7040921476892974e+00  7.5559361047745766e+00  7.4077800574165442e+00  7.2596240056148806e+00  7.1114679493694162e+00  6.9633118886801588e+00  6.8151558235468741e+00  6.6669997539696766e+00  6.5188436799486249e+00  6.3706876014834224e+00  6.2225315185743009e+00  6.0743754312213420e+00  5.9262193394243772e+00  5.7780632431836034e+00  5.6299071424987721e+00  5.4817510373703415e+00  5.3335949277980506e+00  5.1854388137820973e+00  5.0372826953230314e+00  4.8891265724206052e+00  4.7409704450763082e+00  4.5928143132881791e+00  4.4446581770612559e+00  4.2965020363873352e+00  4.1483458912801030e+00  4.0001897417115719e+00  3.8520335877098080e+00  3.7038774291858068e+00  3.5557212661665183e+00  3.4075650983548194e+00  3.2594089256051491e+00  3.1112527467989488e+00  2.9630965604439781e+00  2.8149403608938623e+00  2.6667841353772679e+00  2.5186278444219381e+00  2.3704713893153255e+00  2.2223145247151148e+00  2.0741567420510463e+00  1.9259971251356336e+00  1.7778344341245698e+00  1.6296676291108541e+00  1.4814969555577946e+00  1.3333244355216682e+00  1.1851529854002365e+00  1.0369852177537775e+00  8.8882461968958071e-01  7.4067716373031678e-01  5.9255046340724937e-01  4.4445518921896399e-01  2.9641136473211455e-01  1.4847679355522683e-01  2.9710374502185445e-03  1.1779662463102197e+01  1.1630324812375273e+01  1.1482245337732666e+01  1.1334048935326221e+01  1.1185897650293596e+01  1.1037738421904740e+01  1.0889581948905905e+01  1.0741425610170316e+01  1.0593269433416484e+01  1.0445113367343390e+01  1.0296957338469507e+01  1.0148801337292918e+01  1.0000645346947982e+01  9.8524893615861355e+00  9.7043333768041347e+00  9.5561773904205047e+00  9.4080214011433103e+00  9.2598654082781398e+00  9.1117094114393389e+00  8.9635534104164982e+00  8.8153974050937052e+00  8.6672413954074603e+00  8.5190853813226841e+00  8.3709293628195933e+00  8.2227733398871852e+00  8.0746173125192993e+00  7.9264612807124699e+00  7.7783052444645131e+00  7.6301492037742253e+00  7.4819931586410249e+00  7.3338371090644294e+00  7.1856810550441166e+00  7.0375249965801165e+00  6.8893689336721629e+00  6.7412128663200770e+00  6.5930567945239691e+00  6.4449007182839617e+00  6.2967446375999936e+00  6.1485885524719945e+00  6.0004324628997603e+00  5.8522763688836674e+00  5.7041202704232994e+00  5.5559641675188409e+00  5.4078080601699563e+00  5.2596519483770603e+00  5.1114958321391120e+00  4.9633397114565421e+00  4.8151835863278549e+00  4.6670274567532362e+00  4.5188713227305195e+00  4.3707151842573317e+00  4.2225590413303529e+00  4.0744028939373154e+00  3.9262467420717186e+00  3.7780905856837275e+00  3.6299344247400178e+00  3.4817782590458934e+00  3.3336220884004071e+00  3.1854659120182998e+00  3.0373097287220121e+00  2.8891535346475417e+00  2.7409973210582779e+00  2.5928410606942336e+00  2.4446846829469795e+00  2.2965280039715892e+00  2.1483706231176876e+00  2.0002117713594587e+00  1.8520503095572451e+00  1.7038850735506017e+00  1.5557158683516090e+00  1.4075442013929047e+00  1.2593727132127857e+00  1.1112037812121043e+00  9.6304073634916365e-01  8.1488851122828476e-01  6.6675366102440781e-01  5.1864370408390226e-01  3.7057085441346194e-01  2.2256830712475478e-01  7.4961561308629354e-02  1.1777999312989026e+01  1.1630314857491934e+01  1.1482018442531819e+01  1.1333900064650846e+01  1.1185721355805958e+01  1.1037570157475162e+01  1.0889411816912027e+01  1.0741256064100229e+01  1.0593099826141616e+01  1.0444943815736236e+01  1.0296787798927847e+01  1.0148631808903248e+01  1.0000475824000519e+01  9.8523198418592113e+00  9.7041638588242769e+00  9.5560078734045497e+00  9.4078518846502543e+00  9.2596958920671444e+00  9.1115398953790141e+00  8.9633838944354380e+00  8.8152278891527