<?xml version="1.0"?>
<VTKFile type="UnstructuredGrid"  version="0.1"  >
<UnstructuredGrid>
<Piece  NumberOfPoints="1369" NumberOfCells="2560">
<Points>
<DataArray  type="Float64"  NumberOfComponents="3"  format="ascii">0 0 0  0.75 0 0  1.5 0 0  2.25 0 0  3 0 0  3.75 0 0  4.5 0 0  5.25 0 0  6 0 0  6.75 0 0  7.5 0 0  8.25 0 0  9 0 0  9.75 0 0  10.5 0 0  11.25 0 0  12 0 0  12.75 0 0  13.5 0 0  14.25 0 0  15 0 0  15.75 0 0  16.5 0 0  17.25 0 0  18 0 0  18.75 0 0  19.5 0 0  20.25 0 0  21 0 0  21.75 0 0  22.5 0 0  23.25 0 0  24 0 0  24.75 0 0  25.5 0 0  26.25 0 0  27 0 0  27.75 0 0  28.5 0 0  29.25 0 0  30 0 0  30.75 0 0  31.5 0 0  32.25 0 0  33 0 0  33.75 0 0  34.5 0 0  35.25 0 0  36 0 0  36.75 0 0  37.5 0 0  38.25 0 0  39 0 0  39.75 0 0  40.5 0 0  41.25 0 0  42 0 0  42.75 0 0  43.5 0 0  44.25 0 0  45 0 0  45.75 0 0  46.5 0 0  47.25 0 0  48 0 0  48.75 0 0  49.5 0 0  50.25 0 0  51 0 0  51.75 0 0  52.5 0 0  53.25 0 0  54 0 0  54.75 0 0  55.5 0 0  56.25 0 0  57 0 0  57.75 0 0  58.5 0 0  59.25 0 0  60 0 0  0 0.5 0  0.75 0.5 0  1.5 0.5 0  2.25 0.5 0  3 0.5 0  3.75 0.5 0  4.5 0.5 0  5.25 0.5 0  6 0.5 0  6.75 0.5 0  7.5 0.5 0  8.25 0.5 0  9 0.5 0  9.75 0.5 0  10.5 0.5 0  11.25 0.5 0  12 0.5 0  12.75 0.5 0  13.5 0.5 0  14.25 0.5 0  15 0.5 0  15.75 0.5 0  16.5 0.5 0  17.25 0.5 0  18 0.5 0  18.75 0.5 0  19.5 0.5 0  20.25 0.5 0  21 0.5 0  21.75 0.5 0  22.5 0.5 0  23.25 0.5 0  24 0.5 0  24.75 0.5 0  25.5 0.5 0  26.25 0.5 0  27 0.5 0  27.75 0.5 0  28.5 0.5 0  29.25 0.5 0  30 0.5 0  30.75 0.5 0  31.5 0.5 0  32.25 0.5 0  33 0.5 0  33.75 0.5 0  34.5 0.5 0  35.25 0.5 0  36 0.5 0  36.75 0.5 0  37.5 0.5 0  38.25 0.5 0  39 0.5 0  39.75 0.5 0  40.5 0.5 0  41.25 0.5 0  42 0.5 0  42.75 0.5 0  43.5 0.5 0  44.25 0.5 0  45 0.5 0  45.75 0.5 0  46.5 0.5 0  47.25 0.5 0  48 0.5 0  48.75 0.5 0  49.5 0.5 0  50.25 0.5 0  51 0.5 0  51.75 0.5 0  52.5 0.5 0  53.25 0.5 0  54 0.5 0  54.75 0.5 0  55.5 0.5 0  56.25 0.5 0  57 0.5 0  57.75 0.5 0  58.5 0.5 0  59.25 0.5 0  60 0.5 0  0 1 0  0.75 1 0  1.5 1 0  2.25 1 0  3 1 0  3.75 1 0  4.5 1 0  5.25 1 0  6 1 0  6.75 1 0  7.5 1 0  8.25 1 0  9 1 0  9.75 1 0  10.5 1 0  11.25 1 0  12 1 0  12.75 1 0  13.5 1 0  14.25 1 0  15 1 0  15.75 1 0  16.5 1 0  17.25 1 0  18 1 0  18.75 1 0  19.5 1 0  20.25 1 0  21 1 0  21.75 1 0  22.5 1 0  23.25 1 0  24 1 0  24.75 1 0  25.5 1 0  26.25 1 0  27 1 0  27.75 1 0  28.5 1 0  29.25 1 0  30 1 0  30.75 1 0  31.5 1 0  32.25 1 0  33 1 0  33.75 1 0  34.5 1 0  35.25 1 0  36 1 0  36.75 1 0  37.5 1 0  38.25 1 0  39 1 0  39.75 1 0  40.5 1 0  41.25 1 0  42 1 0  42.75 1 0  43.5 1 0  44.25 1 0  45 1 0  45.75 1 0  46.5 1 0  47.25 1 0  48 1 0  48.75 1 0  49.5 1 0  50.25 1 0  51 1 0  51.75 1 0  52.5 1 0  53.25 1 0  54 1 0  54.75 1 0  55.5 1 0  56.25 1 0  57 1 0  57.75 1 0  58.5 1 0  59.25 1 0  60 1 0  0 1.5 0  0.75 1.5 0  1.5 1.5 0  2.25 1.5 0  3 1.5 0  3.75 1.5 0  4.5 1.5 0  5.25 1.5 0  6 1.5 0  6.75 1.5 0  7.5 1.5 0  8.25 1.5 0  9 1.5 0  9.75 1.5 0  10.5 1.5 0  11.25 1.5 0  12 1.5 0  12.75 1.5 0  13.5 1.5 0  14.25 1.5 0  15 1.5 0  15.75 1.5 0  16.5 1.5 0  17.25 1.5 0  18 1.5 0  18.75 1.5 0  19.5 1.5 0  20.25 1.5 0  21 1.5 0  21.75 1.5 0  22.5 1.5 0  23.25 1.5 0  24 1.5 0  24.75 1.5 0  25.5 1.5 0  26.25 1.5 0  27 1.5 0  27.75 1.5 0  28.5 1.5 0  29.25 1.5 0  30 1.5 0  30.75 1.5 0  31.5 1.5 0  32.25 1.5 0  33 1.5 0  33.75 1.5 0  34.5 1.5 0  35.25 1.5 0  36 1.5 0  36.75 1.5 0  37.5 1.5 0  38.25 1.5 0  39 1.5 0  39.75 1.5 0  40.5 1.5 0  41.25 1.5 0  42 1.5 0  42.75 1.5 0  43.5 1.5 0  44.25 1.5 0  45 1.5 0  45.75 1.5 0  46.5 1.5 0  47.25 1.5 0  48 1.5 0  48.75 1.5 0  49.5 1.5 0  50.25 1.5 0  51 1.5 0  51.75 1.5 0  52.5 1.5 0  53.25 1.5 0  54 1.5 0  54.75 1.5 0  55.5 1.5 0  56.25 1.5 0  57 1.5 0  57.75 1.5 0  58.5 1.5 0  59.25 1.5 0  60 1.5 0  0 2 0  0.75 2 0  1.5 2 0  2.25 2 0  3 2 0  3.75 2 0  4.5 2 0  5.25 2 0  6 2 0  6.75 2 0  7.5 2 0  8.25 2 0  9 2 0  9.75 2 0  10.5 2 0  11.25 2 0  12 2 0  12.75 2 0  13.5 2 0  14.25 2 0  15 2 0  15.75 2 0  16.5 2 0  17.25 2 0  18 2 0  18.75 2 0  19.5 2 0  20.25 2 0  21 2 0  21.75 2 0  22.5 2 0  23.25 2 0  24 2 0  24.75 2 0  25.5 2 0  26.25 2 0  27 2 0  27.75 2 0  28.5 2 0  29.25 2 0  30 2 0  30.75 2 0  31.5 2 0  32.25 2 0  33 2 0  33.75 2 0  34.5 2 0  35.25 2 0  36 2 0  36.75 2 0  37.5 2 0  38.25 2 0  39 2 0  39.75 2 0  40.5 2 0  41.25 2 0  42 2 0  42.75 2 0  43.5 2 0  44.25 2 0  45 2 0  45.75 2 0  46.5 2 0  47.25 2 0  48 2 0  48.75 2 0  49.5 2 0  50.25 2 0  51 2 0  51.75 2 0  52.5 2 0  53.25 2 0  54 2 0  54.75 2 0  55.5 2 0  56.25 2 0  57 2 0  57.75 2 0  58.5 2 0  59.25 2 0  60 2 0  0 2.5 0  0.75 2.5 0  1.5 2.5 0  2.25 2.5 0  3 2.5 0  3.75 2.5 0  4.5 2.5 0  5.25 2.5 0  6 2.5 0  6.75 2.5 0  7.5 2.5 0  8.25 2.5 0  9 2.5 0  9.75 2.5 0  10.5 2.5 0  11.25 2.5 0  12 2.5 0  12.75 2.5 0  13.5 2.5 0  14.25 2.5 0  15 2.5 0  15.75 2.5 0  16.5 2.5 0  17.25 2.5 0  18 2.5 0  18.75 2.5 0  19.5 2.5 0  20.25 2.5 0  21 2.5 0  21.75 2.5 0  22.5 2.5 0  23.25 2.5 0  24 2.5 0  24.75 2.5 0  25.5 2.5 0  26.25 2.5 0  27 2.5 0  27.75 2.5 0  28.5 2.5 0  29.25 2.5 0  30 2.5 0  30.75 2.5 0  31.5 2.5 0  32.25 2.5 0  33 2.5 0  33.75 2.5 0  34.5 2.5 0  35.25 2.5 0  36 2.5 0  36.75 2.5 0  37.5 2.5 0  38.25 2.5 0  39 2.5 0  39.75 2.5 0  40.5 2.5 0  41.25 2.5 0  42 2.5 0  42.75 2.5 0  43.5 2.5 0  44.25 2.5 0  45 2.5 0  45.75 2.5 0  46.5 2.5 0  47.25 2.5 0  48 2.5 0  48.75 2.5 0  49.5 2.5 0  50.25 2.5 0  51 2.5 0  51.75 2.5 0  52.5 2.5 0  53.25 2.5 0  54 2.5 0  54.75 2.5 0  55.5 2.5 0  56.25 2.5 0  57 2.5 0  57.75 2.5 0  58.5 2.5 0  59.25 2.5 0  60 2.5 0  0 3 0  0.75 3 0  1.5 3 0  2.25 3 0  3 3 0  3.75 3 0  4.5 3 0  5.25 3 0  6 3 0  6.75 3 0  7.5 3 0  8.25 3 0  9 3 0  9.75 3 0  10.5 3 0  11.25 3 0  12 3 0  12.75 3 0  13.5 3 0  14.25 3 0  15 3 0  15.75 3 0  16.5 3 0  17.25 3 0  18 3 0  18.75 3 0  19.5 3 0  20.25 3 0  21 3 0  21.75 3 0  22.5 3 0  23.25 3 0  24 3 0  24.75 3 0  25.5 3 0  26.25 3 0  27 3 0  27.75 3 0  28.5 3 0  29.25 3 0  30 3 0  30.75 3 0  31.5 3 0  32.25 3 0  33 3 0  33.75 3 0  34.5 3 0  35.25 3 0  36 3 0  36.75 3 0  37.5 3 0  38.25 3 0  39 3 0  39.75 3 0  40.5 3 0  41.25 3 0  42 3 0  42.75 3 0  43.5 3 0  44.25 3 0  45 3 0  45.75 3 0  46.5 3 0  47.25 3 0  48 3 0  48.75 3 0  49.5 3 0  50.25 3 0  51 3 0  51.75 3 0  52.5 3 0  53.25 3 0  54 3 0  54.75 3 0  55.5 3 0  56.25 3 0  57 3 0  57.75 3 0  58.5 3 0  59.25 3 0  60 3 0  0 3.5 0  0.75 3.5 0  1.5 3.5 0  2.25 3.5 0  3 3.5 0  3.75 3.5 0  4.5 3.5 0  5.25 3.5 0  6 3.5 0  6.75 3.5 0  7.5 3.5 0  8.25 3.5 0  9 3.5 0  9.75 3.5 0  10.5 3.5 0  11.25 3.5 0  12 3.5 0  12.75 3.5 0  13.5 3.5 0  14.25 3.5 0  15 3.5 0  15.75 3.5 0  16.5 3.5 0  17.25 3.5 0  18 3.5 0  18.75 3.5 0  19.5 3.5 0  20.25 3.5 0  21 3.5 0  21.75 3.5 0  22.5 3.5 0  23.25 3.5 0  24 3.5 0  24.75 3.5 0  25.5 3.5 0  26.25 3.5 0  27 3.5 0  27.75 3.5 0  28.5 3.5 0  29.25 3.5 0  30 3.5 0  30.75 3.5 0  31.5 3.5 0  32.25 3.5 0  33 3.5 0  33.75 3.5 0  34.5 3.5 0  35.25 3.5 0  36 3.5 0  36.75 3.5 0  37.5 3.5 0  38.25 3.5 0  39 3.5 0  39.75 3.5 0  40.5 3.5 0  41.25 3.5 0  42 3.5 0  42.75 3.5 0  43.5 3.5 0  44.25 3.5 0  45 3.5 0  45.75 3.5 0  46.5 3.5 0  47.25 3.5 0  48 3.5 0  48.75 3.5 0  49.5 3.5 0  50.25 3.5 0  51 3.5 0  51.75 3.5 0  52.5 3.5 0  53.25 3.5 0  54 3.5 0  54.75 3.5 0  55.5 3.5 0  56.25 3.5 0  57 3.5 0  57.75 3.5 0  58.5 3.5 0  59.25 3.5 0  60 3.5 0  0 4 0  0.75 4 0  1.5 4 0  2.25 4 0  3 4 0  3.75 4 0  4.5 4 0  5.25 4 0  6 4 0  6.75 4 0  7.5 4 0  8.25 4 0  9 4 0  9.75 4 0  10.5 4 0  11.25 4 0  12 4 0  12.75 4 0  13.5 4 0  14.25 4 0  15 4 0  15.75 4 0  16.5 4 0  17.25 4 0  18 4 0  18.75 4 0  19.5 4 0  20.25 4 0  21 4 0  21.75 4 0  22.5 4 0  23.25 4 0  24 4 0  24.75 4 0  25.5 4 0  26.25 4 0  27 4 0  27.75 4 0  28.5 4 0  29.25 4 0  30 4 0  30.75 4 0  31.5 4 0  32.25 4 0  33 4 0  33.75 4 0  34.5 4 0  35.25 4 0  36 4 0  36.75 4 0  37.5 4 0  38.25 4 0  39 4 0  39.75 4 0  40.5 4 0  41.25 4 0  42 4 0  42.75 4 0  43.5 4 0  44.25 4 0  45 4 0  45.75 4 0  46.5 4 0  47.25 4 0  48 4 0  48.75 4 0  49.5 4 0  50.25 4 0  51 4 0  51.75 4 0  52.5 4 0  53.25 4 0  54 4 0  54.75 4 0  55.5 4 0  56.25 4 0  57 4 0  57.75 4 0  58.5 4 0  59.25 4 0  60 4 0  0.375 0.25 0  1.125 0.25 0  1.875 0.25 0  2.625 0.25 0  3.375 0.25 0  4.125 0.25 0  4.875 0.25 0  5.625 0.25 0  6.375 0.25 0  7.125 0.25 0  7.875 0.25 0  8.625 0.25 0  9.375 0.25 0  10.125 0.25 0  10.875 0.25 0  11.625 0.25 0  12.375 0.25 0  13.125 0.25 0  13.875 0.25 0  14.625 0.25 0  15.375 0.25 0  16.125 0.25 0  16.875 0.25 0  17.625 0.25 0  18.375 0.25 0  19.125 0.25 0  19.875 0.25 0  20.625 0.25 0  21.375 0.25 0  22.125 0.25 0  22.875 0.25 0  23.625 0.25 0  24.375 0.25 0  25.125 0.25 0  25.875 0.25 0  26.625 0.25 0  27.375 0.25 0  28.125 0.25 0  28.875 0.25 0  29.625 0.25 0  30.375 0.25 0  31.125 0.25 0  31.875 0.25 0  32.625 0.25 0  33.375 0.25 0  34.125 0.25 0  34.875 0.25 0  35.625 0.25 0  36.375 0.25 0  37.125 0.25 0  37.875 0.25 0  38.625 0.25 0  39.375 0.25 0  40.125 0.25 0  40.875 0.25 0  41.625 0.25 0  42.375 0.25 0  43.125 0.25 0  43.875 0.25 0  44.625 0.25 0  45.375 0.25 0  46.125 0.25 0  46.875 0.25 0  47.625 0.25 0  48.375 0.25 0  49.125 0.25 0  49.875 0.25 0  50.625 0.25 0  51.375 0.25 0  52.125 0.25 0  52.875 0.25 0  53.625 0.25 0  54.375 0.25 0  55.125 0.25 0  55.875 0.25 0  56.625 0.25 0  57.375 0.25 0  58.125 0.25 0  58.875 0.25 0  59.625 0.25 0  0.375 0.75 0  1.125 0.75 0  1.875 0.75 0  2.625 0.75 0  3.375 0.75 0  4.125 0.75 0  4.875 0.75 0  5.625 0.75 0  6.375 0.75 0  7.125 0.75 0  7.875 0.75 0  8.625 0.75 0  9.375 0.75 0  10.125 0.75 0  10.875 0.75 0  11.625 0.75 0  12.375 0.75 0  13.125 0.75 0  13.875 0.75 0  14.625 0.75 0  15.375 0.75 0  16.125 0.75 0  16.875 0.75 0  17.625 0.75 0  18.375 0.75 0  19.125 0.75 0  19.875 0.75 0  20.625 0.75 0  21.375 0.75 0  22.125 0.75 0  22.875 0.75 0  23.625 0.75 0  24.375 0.75 0  25.125 0.75 0  25.875 0.75 0  26.625 0.75 0  27.375 0.75 0  28.125 0.75 0  28.875 0.75 0  29.625 0.75 0  30.375 0.75 0  31.125 0.75 0  31.875 0.75 0  32.625 0.75 0  33.375 0.75 0  34.125 0.75 0  34.875 0.75 0  35.625 0.75 0  36.375 0.75 0  37.125 0.75 0  37.875 0.75 0  38.625 0.75 0  39.375 0.75 0  40.125 0.75 0  40
[...]
<PointData  Vectors="f_8-0"> 
<DataArray  type="Float64"  Name="f_8-0"  NumberOfComponents="3" format="ascii">0.0000000000000000e+00 0.0000000000000000e+00 0.0000000000000000e+00  0.0000000000000000e+00 0.0000000000000000e+00 0.0000000000000000e+00  0.0000000000000000e+00 0.0000000000000000e+00 0.0000000000000000e+00  0.0000000000000000e+00 0.0000000000000000e+00 0.0000000000000000e+00  0.0000000000000000e+00 0.0000000000000000e+00 0.0000000000000000e+00  0.0000000000000000e+00 0.0000000000000000e+00 0.0000000000000000e+00  0.0000000000000000e+00 0.0000000000000000e+00 0.0000000000000000e+00  0.0000000000000000e+00 0.0000000000000000e+00 0.0000000000000000e+00  0.0000000000000000e+00 0.0000000000000000e+00 0.0000000000000000e+00  0.0000000000000000e+00 0.0000000000000000e+00 0.0000000000000000e+00  0.0000000000000000e+00 0.0000000000000000e+00 0.0000000000000000e+00  0.0000000000000000e+00 0.0000000000000000e+00 0.0000000000000000e+00  0.0000000000000000e+00 0.0000000000000000e+00 0.0000000000000000e+00  0.0000000000000000e+00 0.0000000000000000e+00 0.0000000000000000e+00  0.0000000000000000e+00 0.0000000000000000e+00 0.0000000000000000e+00  0.0000000000000000e+00 0.0000000000000000e+00 0.0000000000000000e+00  0.0000000000000000e+00 0.0000000000000000e+00 0.0000000000000000e+00  0.0000000000000000e+00 0.0000000000000000e+00 0.0000000000000000e+00  0.0000000000000000e+00 0.0000000000000000e+00 0.0000000000000000e+00  0.0000000000000000e+00 0.0000000000000000e+00 0.0000000000000000e+00  0.0000000000000000e+00 0.0000000000000000e+00 0.0000000000000000e+00  0.0000000000000000e+00 0.0000000000000000e+00 0.0000000000000000e+00  0.0000000000000000e+00 0.0000000000000000e+00 0.0000000000000000e+00  0.0000000000000000e+00 0.0000000000000000e+00 0.0000000000000000e+00  0.0000000000000000e+00 0.0000000000000000e+00 0.0000000000000000e+00  0.0000000000000000e+00 0.0000000000000000e+00 0.0000000000000000e+00  0.0000000000000000e+00 0.0000000000000000e+00 0.0000000000000000e+00  0.0000000000000000e+00 0.0000000000000000e+00 0.0000000000000000e+00  0.0000000000000000e+00 0.0000000000000000e+00 0.0000000000000000e+00  0.0000000000000000e+00 0.0000000000000000e+00 0.0000000000000000e+00  0.0000000000000000e+00 0.0000000000000000e+00 0.0000000000000000e+00  0.0000000000000000e+00 0.0000000000000000e+00 0.0000000000000000e+00  0.0000000000000000e+00 0.0000000000000000e+00 0.0000000000000000e+00  0.0000000000000000e+00 0.0000000000000000e+00 0.0000000000000000e+00  0.0000000000000000e+00 0.0000000000000000e+00 0.0000000000000000e+00  0.0000000000000000e+00 0.0000000000000000e+00 0.0000000000000000e+00  0.0000000000000000e+00 0.0000000000000000e+00 0.0000000000000000e+00  0.0000000000000000e+00 0.0000000000000000e+00 0.0000000000000000e+00  0.0000000000000000e+00 0.0000000000000000e+00 0.0000000000000000e+00  0.0000000000000000e+00 0.0000000000000000e+00 0.0000000000000000e+00  0.0000000000000000e+00 0.0000000000000000e+00 0.0000000000000000e+00  0.0000000000000000e+00 0.0000000000000000e+00 0.0000000000000000e+00  0.0000000000000000e+00 0.0000000000000000e+00 0.0000000000000000e+00  0.0000000000000000e+00 0.0000000000000000e+00 0.0000000000000000e+00  0.0000000000000000e+00 0.0000000000000000e+00 0.0000000000000000e+00  0.0000000000000000e+00 0.0000000000000000e+00 0.0000000000000000e+00  0.0000000000000000e+00 0.0000000000000000e+00 0.0000000000000000e+00  0.0000000000000000e+00 0.0000000000000000e+00 0.0000000000000000e+00  0.0000000000000000e+00 0.0000000000000000e+00 0.0000000000000000e+00  0.0000000000000000e+00 0.0000000000000000e+00 0.0000000000000000e+00  0.0000000000000000e+00 0.0000000000000000e+00 0.0000000000000000e+00  0.0000000000000000e+00 0.0000000000000000e+00 0.0000000000000000e+00  0.0000000000000000e+00 0.0000000000000000e+00 0.0000000000000000e+00  0.0000000000000000e+00 0.0000000000000000e+00 0.0000000000000000e+00  0.0000000000000000e+00 0.0000000000000000e+00 0.0000000000000000e+00  0.0000000000000000e+00 0.0000000000000000e+00 0.0000000000000000e+00  0.0000000000000000e+00 0.0000000000000000e+00 0.0000000000000000e+00  0.0000000000000000e+00 0.0000000000000000e+00 0.0000000000000000e+00  0.0000000000000000e+00 0.0000000000000000e+00 0.0000000000000000e+00  0.0000000000000000e+00 0.0000000000000000e+00 0.0000000000000000e+00  0.0000000000000000e+00 0.0000000000000000e+00 0.0000000000000000e+00  0.0000000000000000e+00 0.0000000000000000e+00 0.0000000000000000e+00  0.0000000000000000e+00 0.0000000000000000e+00 0.0000000000000000e+00  0.0000000000000000e+00 0.0000000000000000e+00 0.0000000000000000e+00  0.0000000000000000e+00 0.0000000000000000e+00 0.0000000000000000e+00  0.0000000000000000e+00 0.0000000000000000e+00 0.0000000000000000e+00  0.0000000000000000e+00 0.0000000000000000e+00 0.0000000000000000e+00  0.0000000000000000e+00 0.0000000000000000e+00 0.0000000000000000e+00  0.0000000000000000e+00 0.0000000000000000e+00 0.0000000000000000e+00  0.0000000000000000e+00 0.0000000000000000e+00 0.0000000000000000e+00  0.0000000000000000e+00 0.0000000000000000e+00 0.0000000000000000e+00  0.0000000000000000e+00 0.0000000000000000e+00 0.0000000000000000e+00  0.0000000000000000e+00 0.0000000000000000e+00 0.0000000000000000e+00  0.0000000000000000e+00 0.0000000000000000e+00 0.0000000000000000e+00  0.0000000000000000e+00 0.0000000000000000e+00 0.0000000000000000e+00  0.0000000000000000e+00 0.0000000000000000e+00 0.0000000000000000e+00  0.0000000000000000e+00 0.0000000000000000e+00 0.0000000000000000e+00  0.0000000000000000e+00 0.0000000000000000e+00 0.0000000000000000e+00  0.0000000000000000e+00 0.0000000000000000e+00 0.0000000000000000e+00  0.0000000000000000e+00 0.0000000000000000e+00 0.0000000000000000e+00  0.0000000000000000e+00 0.0000000000000000e+00 0.0000000000000000e+00  1.1296195605547743e+01 0.0000000000000000e+00 0.0000000000000000e+00  1.1327014722085931e+01 -7.1849519264282471e-02 0.0000000000000000e+00  1.1309511799231487e+01 -2.2170394250653605e-02 0.0000000000000000e+00  1.1303799849907470e+01 -5.5769612508365114e-03 0.0000000000000000e+00  1.1295476878913099e+01 -4.3018063320801282e-03 0.0000000000000000e+00  1.1286288634211729e+01 -3.1197873638882860e-03 0.0000000000000000e+00  1.1283352896223198e+01 -5.8801950460613400e-03 0.0000000000000000e+00  1.1282074573968721e+01 -6.3268040889918253e-03 0.0000000000000000e+00  1.1284478303280013e+01 -7.6451992757785277e-03 0.0000000000000000e+00  1.1287325224553662e+01 -7.7339226791088350e-03 0.0000000000000000e+00  1.1291663708856202e+01 -8.1283912643149228e-03 0.0000000000000000e+00  1.1295534633853199e+01 -7.7337588948269819e-03 0.0000000000000000e+00  1.1298928634915461e+01 -7.4367531495303030e-03 0.0000000000000000e+00  1.1301083593921684e+01 -6.9570632593038192e-03 0.0000000000000000e+00  1.1302445056107054e+01 -6.7210977145074928e-03 0.0000000000000000e+00  1.1303104435968079e+01 -6.5266587282952707e-03 0.0000000000000000e+00  1.1303469092714643e+01 -6.4683149735985553e-03 0.0000000000000000e+00  1.1303629963768799e+01 -6.4201517328579634e-03 0.0000000000000000e+00  1.1303733150602239e+01 -6.4123369912942631e-03 0.0000000000000000e+00  1.1303786669868538e+01 -6.3991888216635715e-03 0.0000000000000000e+00  1.1303827922399416e+01 -6.3970422569182865e-03 0.0000000000000000e+00  1.1303852498503735e+01 -6.3919131065265115e-03 0.0000000000000000e+00  1.1303871144964514e+01 -6.3903465039324148e-03 0.0000000000000000e+00  1.1303882802632897e+01 -6.3882535620681828e-03 0.0000000000000000e+00  1.1303890965712373e+01 -6.3872341805524440e-03 0.0000000000000000e+00  1.1303896394234442e+01 -6.3865049365088057e-03 0.0000000000000000e+00  1.1303899896602667e+01 -6.3859028644742775e-03 0.0000000000000000e+00  1.1303902497243165e+01 -6.3857118652894005e-03 0.0000000000000000e+00  1.1303904047961291e+01 -6.3853577221160435e-03 0.0000000000000000e+00  1.1303905369224456e+01 -6.3853404975598854e-03 0.0000000000000000e+00  1.1303906103773773e+01 -6.3851311010754055e-03 0.0000000000000000e+00  1.1303906814010929e+01 -6.3851547286937959e-03 0.0000000000000000e+00  1.1303907194388922e+01 -6.3850337450891172e-03 0.0000000000000000e+00  1.1303907597632220e+01 -6.3850583248597770e-03 0.0000000000000000e+00  1.1303907819743717e+01 -6.3849912562283524e-03 0.0000000000000000e+00  1.1303908065886732e+01 -6.3850079268539875e-03 0.0000000000000000e+00  1.1303908215385860e+01 -6.3849719067715126e-03 0.0000000000000000e+00  1.1303908379084943e+01 -6.3849805994853947e-03 0.0000000000000000e+00  1.1303908490750503e+01 -6.3849610192136391e-03 0.0000000000000000e+00  1.1303908606229456e+01 -6.3849638148387091e-03 0.0000000000000000e+00  1.1303908691321421e+01 -6.3849523377442468e-03 0.0000000000000000e+00  1.1303908772539179e+01 -6.3849514679817790e-03 0.0000000000000000e+00  1.1303908833197569e+01 -6.3849437900397581e-03 0.0000000000000000e+00  1.1303908885223825e+01 -6.3849409043689118e-03 0.0000000000000000e+00  1.1303908920850917e+01 -6.3849349352667227e-03 0.0000000000000000e+00  1.1303908945192509e+01 -6.3849310798053385e-03 0.0000000000000000e+00  1.1303908954942662e+01 -6.3849260004850998e-03 0.0000000000000000e+00  1.1303908952537023e+01 -6.3849219899686817e-03 0.0000000000000000e+00  1.1303908937099754e+01 -6.3849177072280404e-03 0.0000000000000000e+00  1.1303908910224999e+01 -6.3849141052191227e-03 0.0000000000000000e+00  1.1303908872222051e+01 -6.3849106631210153e-03 0.0000000000000000e+00  1.1303908824485614e+01 -6.3849077968225866e-03 0.0000000000000000e+00  1.1303908768046764e+01 -6.3849053452305288e-03 0.0000000000000000e+00  1.1303908704455111e+01 -6.3849034624860485e-03 0.0000000000000000e+00  1.1303908635065159e+01 -6.3849020247415261e-03 0.0000000000000000e+00  1.1303908561215206e+01 -6.3849009957945195e-03 0.0000000000000000e+00  1.1303908483945520e+01 -6.3849002640697225e-03 0.0000000000000000e+00  1.1303908404144151e+01 -6.3848997952271761e-03 0.0000000000000000e+00  1.1303908322584164e+01 -6.3848995485154955e-03 0.0000000000000000e+00  1.1303908239968033e+01 -6.3848995025065809e-03 0.0000000000000000e+00  1.1303908156893481e+01 -6.3848995536555618e-03 0.0000000000000000e+00  1.1303908073695251e+01 -6.3848996602349642e-03 0.0000000000000000e+00  1.1303907990507616e+01 -6.3848996940583536e-03 0.0000000000000000e+00  1.1303907907391174e+01 -6.3848999997661747e-03 0.0000000000000000e+00  1.1303907825197882e+01 -6.3849009828398102e-03 0.0000000000000000e+00  1.1303907746979940e+01 -6.3849050564348340e-03 0.0000000000000000e+00  1.1303907681978252e+01 -6.3849161141249231e-03 0.0000000000000000e+00  1.1303907654113132e+01 -6.3849478317111377e-03 0.0000000000000000e+00  1.1303907724312253e+01 -6.3850279295500538e-03 0.0000000000000000e+00  1.1303908041845565e+01 -6.3852397924625227e-03 0.0000000000000000e+00  1.1303908985014397e+01 -6.3857890349475555e-03 0.0000000000000000e+00  1.1303911533214364e+01 -6.3872584981643664e-03 0.0000000000000000e+00  1.1303918258593443e+01 -6.3911431336233547e-03 0.0000000000000000e+00  1.1303935964197446e+01 -6.4015410783170726e-03 0.0000000000000000e+00  1.1303983221585741e+01 -6.4293085196071081e-03 0.0000000000000000e+00  1.1304112126497566e+01 -6.5012139253018695e-03 0.0000000000000000e+00  1.1304469742125622e+01 -6.6723946291798904e-03 0.0000000000000000e+00  1.1305520659712615e+01 -6.9500493172947823e-03 0.0000000000000000e+00  1.1308581157758134e+01 -6.9786450047866115e-03 0.0000000000000000e+00  1.1322496125936471e+01 4.0281354599805584e-03 0.0000000000000000e+00  1.1392262788570996e+01 0.0000000000000000e+00 0.0000000000000000e+00  2.2005889358168925e+01 0.0000000000000000e+00 0.0000000000000000e+00  2.2049858832166684e+01 3.9124667525791273e-02 0.0000000000000000e+00  2.2013067824899657e+01 6.3871882536587080e-03 0.0000000000000000e+00  2.2014178769920090e+01 1.4605916774699905e-02 0.0000000000000000e+00  2.2007130188777925e+01 1.1702182635105520e-02 0.0000000000000000e+00  2.2009868827121810e+01 7.0458475056919025e-03 0.0000000000000000e+00  2.2007786955634160e+01 4.4095333305940463e-03 0.0000000000000000e+00  2.2009093598375383e+01 5.7055090263957720e-04 0.0000000000000000e+00  2.2008625888169785e+01 -2.3247083471581424e-04 0.0000000000000000e+00  2.2009740044885149e+01 -1.9108008535154110e-03 0.0000000000000000e+00  2.2010542977270870e+01 -2.3187103274696043e-03 0.0000000000000000e+00  2.2013177921084608e+01 -2.4281670368244876e-03 0.0000000000000000e+00  2.2015692710167922e+01 -1.3551947824000038e-03 0.0000000000000000e+00  2.2018175948516948e+01 -3.8147377091646761e-04 0.0000000000000000e+00  2.2019715383547762e+01 5.7734312405253801e-04 0.0000000000000000e+00  2.2020773885553979e+01 1.0880295486266464e-03 0.0000000000000000e+00  2.2021269063992570e+01 1.4259874955373775e-03 0.0000000000000000e+00  2.2021577752709923e+01 1.5521630363353031e-03 0.0000000000000000e+00  2.2021700985382999e+01 1.6356021292687609e-03 0.0000000000000000e+00  2.2021792033111609e+01 1.6606178733143487e-03 0.0000000000000000e+00  2.2021830082782557e+01 1.6852421777554141e-03 0.0000000000000000e+00  2.2021865405131969e+01 1.6936871238131320e-03 0.0000000000000000e+00  2.2021882034379679e+01 1.7038846972377531e-03 0.0000000000000000e+00  2.2021897735681190e+01 1.7082644720852189e-03 0.0000000000000000e+00  2.2021905644950412e+01 1.7126999372602035e-03 0.0000000000000000e+00  2.2021912508499181e+01 1.7149548659000377e-03 0.0000000000000000e+00  2.2021916256884179e+01 1.7167187119986303e-03 0.0000000000000000e+00  2.2021919185561842e+01 1.7178448454159873e-03 0.0000000000000000e+00  2.2021921044291748e+01 1.7184860671861273e-03 0.0000000000000000e+00  2.2021922333421593e+01 1.7190693692613007e-03 0.0000000000000000e+00  2.2021923343125952e+01 1.7192881405254277e-03 0.0000000000000000e+00  2.2021923967534331e+01 1.7196047205935497e-03 0.0000000000000000e+00  2.2021924571402934e+01 1.7196741884149280e-03 0.0000000000000000e+00  2.2021924924961318e+01 1.7198474979399532e-03 0.0000000000000000e+00  2.2021925321694688e+01 1.7198663946134298e-03 0.0000000000000000e+00  2.2021925566054790e+01 1.7199594422103589e-03 0.0000000000000000e+00  2.2021925855266687e+01 1.7199637855824495e-03 0.0000000000000000e+00  2.2021926057400218e+01 1.7200140440889898e-03 0.0000000000000000e+00  2.2021926289631587e+01 1.7200175929667732e-03 0.0000000000000000e+00  2.2021926472613210e+01 1.7200473308048329e-03 0.0000000000000000e+00  2.2021926669488991e+01 1.7200542401771607e-03 0.0000000000000000e+00  2.2021926836276382e+01 1.7200750647122715e-03 0.0000000000000000e+00  2.2021927004425716e+01 1.7200854128791630e-03 0.0000000000000000e+00  2.2021927151098303e+01 1.7201027652349154e-03 0.0000000000000000e+00  2.2021927290746376e+01 1.7201156807756185e-03 0.0000000000000000e+00  2.2021927411808637e+01 1.7201320118789981e-03 0.0000000000000000e+00  2.2021927520188967e+01 1.7201464268697224e-03 0.0000000000000000e+00  2.2021927610329399e+01 1.7201620074952897e-03 0.0000000000000000e+00  2.2021927684892226e+01 1.7201762291244791e-03 0.0000000000000000e+00  2.2021927741903657e+01 1.7201902823252705e-03 0.0000000000000000e+00  2.2021927782957526e+01 1.7202030882021943e-03 0.0000000000000000e+00  2.2021927807781342e+01 1.7202149817803368e-03 0.0000000000000000e+00  2.2021927817829955e+01 1.7202252983829736e-03 0.0000000000000000e+00  2.2021927814266007e+01 1.7202340127985317e-03 0.0000000000000000e+00  2.2021927799251920e+01 1.7202409587185742e-03 0.0000000000000000e+00  2.2021927774762638e+01 1.7202464177719519e-03 0.0000000000000000e+00  2.2021927742738523e+01 1.7202506470315082e-03 0.0000000000000000e+00  2.2021927704615145e+01 1.7202538639800591e-03 0.0000000000000000e+00  2.2021927661678177e+01 1.7202561872290247e-03 0.0000000000000000e+00  2.2021927615149661e+01 1.7202575528754243e-03 0.0000000000000000e+00  2.2021927566405104e+01 1.7202582739670545e-03 0.0000000000000000e+00  2.2021927516659993e+01 1.7202583433467368e-03 0.0000000000000000e+00  2.2021927466811889e+01 1.7202585837471328e-03 0.0000000000000000e+00  2.2021927416883056e+01 1.7202582519353867e-03 0.0000000000000000e+00  2.2021927366352418e+01 1.7202577196787400e-03 0.0000000000000000e+00  2.2021927313660559e+01 1.7202522922898165e-03 0.0000000000000000e+00  2.2021927257434246e+01 1.7202374309807759e-03 0.0000000000000000e+00  2.2021927195332260e+01 1.7201891843434828e-03 0.0000000000000000e+00  2.2021927126307936e+01 1.7200678284663715e-03 0.0000000000000000e+00  2.2021927047197131e+01 1.7197390522510788e-03 0.0000000000000000e+00  2.2021926967242234e+01 1.7188807548482346e-03 0.0000000000000000e+00  2.2021926926479221e+01 1.7165573967801546e-03 0.0000000000000000e+00  2.2021927027252040e+01 1.7105302434654293e-03 0.0000000000000000e+00  2.2021927437047783e+01 1.6946118729678934e-03 0.0000000000000000e+00  2.2021928881075826e+01 1.6516834292786913e-03 0.0000000000000000e+00  2.2021934488664648e+01 1.5358528468689642e-03 0.0000000000000000e+00  2.2021956889259201e+01 1.2324126559082370e-03 0.0000000000000000e+00  2.2022044122855636e+01 4.4681562830338500e-04 0.0000000000000000e+00  2.2022565799909220e+01 -1.3346383600411635e-03 0.0000000000000000e+00  2.2022912455151332e+01 -6.5757744553116412e-03 0.0000000000000000e+00  2.2016934315480324e+01 0.0000000000000000e+00 0.0000000000000000e+00  2.4911049277028329e+01 0.0000000000000000e+00 0.0000000000000000e+00  2.4879018524139450e+01 -1.6268165625322829e-02 0.0000000000000000e+00  2.4892257245411688e+01 3.4027845339577464e-03 0.0000000000000000e+00  2.4899600742767170e+01 3.9686478254236432e-04 0.0000000000000000e+00  2.4920220379755172e+01 4.2820727430190643e-03 0.0000000000000000e+00  2.4925393308419547e+01 3.6364745893396311e-03 0.0000000000000000e+00  2.4933421153256635e+01 1.8457361929844840e-03 0.0000000000000000e+00  2.4932188990613312e+01 9.3454515158349842e-04 0.0000000000000000e+00  2.4932275484615882e+01 -4.4360698610354646e-04 0.0000000000000000e+00  2.4928546974253653e+01 -7.5208460683427270e-04 0.0000000000000000e+00  2.4925508700753578e+01 -2.0853367660335501e-03 0.0000000000000000e+00  2.4921155514347859e+01 -2.3559953855895122e-03 0.0000000000000000e+00  2.4918285365409758e+01 -1.9865495228813630e-03 0.0000000000000000e+00  2.4915893031237729e+01 -9.3904708712378999e-04 0.0000000000000000e+00  2.4914750177387564e+01 -7.9139577401111464e-05 0.0000000000000000e+00  2.4913963309620858e+01 5.9781231957460937e-04 0.0000000000000000e+00  2.4913686116744564e+01 9.4863443775042452e-04 0.0000000000000000e+00  2.4913468371246893e+01 1.1570594102756778e-03 0.0000000000000000e+00  2.4913404520984908e+01 1.2407951688458774e-03 0.0000000000000000e+00  2.4913328704997742e+01 1.2925499132651914e-03 0.0000000000000000e+00  2.4913304537048280e+01 1.3125857209691999e-03 0.0000000000000000e+00  2.4913271180669128e+01 1.3292397193374957e-03 0.0000000000000000e+00  2.4913259374462836e+01 1.3370379729397653e-03 0.0000000000000000e+00  2.4913244386753881e+01 1.3441964770606813e-03 0.0000000000000000e+00  2.4913238726430784e+01 1.3480274381292732e-03 0.0000000000000000e+00  2.4913232248885681e+01 1.3511582110620423e-03 0.0000000000000000e+00  2.4913229519461499e+01 1.3529863982356118e-03 0.0000000000000000e+00  2.4913226777679515e+01 1.3542537242027563e-03 0.0000000000000000e+00  2.4913225378594294e+01 1.3551081228427931e-03 0.0000000000000000e+00  2.4913224231325099e+01 1.3555949511374319e-03 0.0000000000000000e+00  2.4913223481394258e+01 1.3560102742082947e-03 0.0000000000000000e+00  2.4913223024147094e+01 1.3561953445278797e-03 0.0000000000000000e+00  2.4913222630677808e+01 1.3564067450301575e-03 0.0000000000000000e+00  2.4913222479075952e+01 1.3564768063429812e-03 0.0000000000000000e+00  2.4913222294467339e+01 1.3565854410654643e-03 0.0000000000000000e+00  2.4913222279266744e+01 1.3566111010098031e-03 0.0000000000000000e+00  2.4913222218922428e+01 1.3566665051285495e-03 0.0000000000000000e+00  2.4913222265650514e+01 1.3566773291678416e-03 0.0000000000000000e+00  2.4913222278779067e+01 1.3567083262512039e-03 0.0000000000000000e+00  2.4913222353769680e+01 1.3567179776480720e-03 0.00000000