<?xml version="1.0"?>
<VTKFile type="UnstructuredGrid"  version="0.1"  >
<UnstructuredGrid>
<Piece  NumberOfPoints="1369" NumberOfCells="2560">
<Points>
<DataArray  type="Float64"  NumberOfComponents="3"  format="ascii">0 0 0  0.75 0 0  1.5 0 0  2.25 0 0  3 0 0  3.75 0 0  4.5 0 0  5.25 0 0  6 0 0  6.75 0 0  7.5 0 0  8.25 0 0  9 0 0  9.75 0 0  10.5 0 0  11.25 0 0  12 0 0  12.75 0 0  13.5 0 0  14.25 0 0  15 0 0  15.75 0 0  16.5 0 0  17.25 0 0  18 0 0  18.75 0 0  19.5 0 0  20.25 0 0  21 0 0  21.75 0 0  22.5 0 0  23.25 0 0  24 0 0  24.75 0 0  25.5 0 0  26.25 0 0  27 0 0  27.75 0 0  28.5 0 0  29.25 0 0  30 0 0  30.75 0 0  31.5 0 0  32.25 0 0  33 0 0  33.75 0 0  34.5 0 0  35.25 0 0  36 0 0  36.75 0 0  37.5 0 0  38.25 0 0  39 0 0  39.75 0 0  40.5 0 0  41.25 0 0  42 0 0  42.75 0 0  43.5 0 0  44.25 0 0  45 0 0  45.75 0 0  46.5 0 0  47.25 0 0  48 0 0  48.75 0 0  49.5 0 0  50.25 0 0  51 0 0  51.75 0 0  52.5 0 0  53.25 0 0  54 0 0  54.75 0 0  55.5 0 0  56.25 0 0  57 0 0  57.75 0 0  58.5 0 0  59.25 0 0  60 0 0  0 0.5 0  0.75 0.5 0  1.5 0.5 0  2.25 0.5 0  3 0.5 0  3.75 0.5 0  4.5 0.5 0  5.25 0.5 0  6 0.5 0  6.75 0.5 0  7.5 0.5 0  8.25 0.5 0  9 0.5 0  9.75 0.5 0  10.5 0.5 0  11.25 0.5 0  12 0.5 0  12.75 0.5 0  13.5 0.5 0  14.25 0.5 0  15 0.5 0  15.75 0.5 0  16.5 0.5 0  17.25 0.5 0  18 0.5 0  18.75 0.5 0  19.5 0.5 0  20.25 0.5 0  21 0.5 0  21.75 0.5 0  22.5 0.5 0  23.25 0.5 0  24 0.5 0  24.75 0.5 0  25.5 0.5 0  26.25 0.5 0  27 0.5 0  27.75 0.5 0  28.5 0.5 0  29.25 0.5 0  30 0.5 0  30.75 0.5 0  31.5 0.5 0  32.25 0.5 0  33 0.5 0  33.75 0.5 0  34.5 0.5 0  35.25 0.5 0  36 0.5 0  36.75 0.5 0  37.5 0.5 0  38.25 0.5 0  39 0.5 0  39.75 0.5 0  40.5 0.5 0  41.25 0.5 0  42 0.5 0  42.75 0.5 0  43.5 0.5 0  44.25 0.5 0  45 0.5 0  45.75 0.5 0  46.5 0.5 0  47.25 0.5 0  48 0.5 0  48.75 0.5 0  49.5 0.5 0  50.25 0.5 0  51 0.5 0  51.75 0.5 0  52.5 0.5 0  53.25 0.5 0  54 0.5 0  54.75 0.5 0  55.5 0.5 0  56.25 0.5 0  57 0.5 0  57.75 0.5 0  58.5 0.5 0  59.25 0.5 0  60 0.5 0  0 1 0  0.75 1 0  1.5 1 0  2.25 1 0  3 1 0  3.75 1 0  4.5 1 0  5.25 1 0  6 1 0  6.75 1 0  7.5 1 0  8.25 1 0  9 1 0  9.75 1 0  10.5 1 0  11.25 1 0  12 1 0  12.75 1 0  13.5 1 0  14.25 1 0  15 1 0  15.75 1 0  16.5 1 0  17.25 1 0  18 1 0  18.75 1 0  19.5 1 0  20.25 1 0  21 1 0  21.75 1 0  22.5 1 0  23.25 1 0  24 1 0  24.75 1 0  25.5 1 0  26.25 1 0  27 1 0  27.75 1 0  28.5 1 0  29.25 1 0  30 1 0  30.75 1 0  31.5 1 0  32.25 1 0  33 1 0  33.75 1 0  34.5 1 0  35.25 1 0  36 1 0  36.75 1 0  37.5 1 0  38.25 1 0  39 1 0  39.75 1 0  40.5 1 0  41.25 1 0  42 1 0  42.75 1 0  43.5 1 0  44.25 1 0  45 1 0  45.75 1 0  46.5 1 0  47.25 1 0  48 1 0  48.75 1 0  49.5 1 0  50.25 1 0  51 1 0  51.75 1 0  52.5 1 0  53.25 1 0  54 1 0  54.75 1 0  55.5 1 0  56.25 1 0  57 1 0  57.75 1 0  58.5 1 0  59.25 1 0  60 1 0  0 1.5 0  0.75 1.5 0  1.5 1.5 0  2.25 1.5 0  3 1.5 0  3.75 1.5 0  4.5 1.5 0  5.25 1.5 0  6 1.5 0  6.75 1.5 0  7.5 1.5 0  8.25 1.5 0  9 1.5 0  9.75 1.5 0  10.5 1.5 0  11.25 1.5 0  12 1.5 0  12.75 1.5 0  13.5 1.5 0  14.25 1.5 0  15 1.5 0  15.75 1.5 0  16.5 1.5 0  17.25 1.5 0  18 1.5 0  18.75 1.5 0  19.5 1.5 0  20.25 1.5 0  21 1.5 0  21.75 1.5 0  22.5 1.5 0  23.25 1.5 0  24 1.5 0  24.75 1.5 0  25.5 1.5 0  26.25 1.5 0  27 1.5 0  27.75 1.5 0  28.5 1.5 0  29.25 1.5 0  30 1.5 0  30.75 1.5 0  31.5 1.5 0  32.25 1.5 0  33 1.5 0  33.75 1.5 0  34.5 1.5 0  35.25 1.5 0  36 1.5 0  36.75 1.5 0  37.5 1.5 0  38.25 1.5 0  39 1.5 0  39.75 1.5 0  40.5 1.5 0  41.25 1.5 0  42 1.5 0  42.75 1.5 0  43.5 1.5 0  44.25 1.5 0  45 1.5 0  45.75 1.5 0  46.5 1.5 0  47.25 1.5 0  48 1.5 0  48.75 1.5 0  49.5 1.5 0  50.25 1.5 0  51 1.5 0  51.75 1.5 0  52.5 1.5 0  53.25 1.5 0  54 1.5 0  54.75 1.5 0  55.5 1.5 0  56.25 1.5 0  57 1.5 0  57.75 1.5 0  58.5 1.5 0  59.25 1.5 0  60 1.5 0  0 2 0  0.75 2 0  1.5 2 0  2.25 2 0  3 2 0  3.75 2 0  4.5 2 0  5.25 2 0  6 2 0  6.75 2 0  7.5 2 0  8.25 2 0  9 2 0  9.75 2 0  10.5 2 0  11.25 2 0  12 2 0  12.75 2 0  13.5 2 0  14.25 2 0  15 2 0  15.75 2 0  16.5 2 0  17.25 2 0  18 2 0  18.75 2 0  19.5 2 0  20.25 2 0  21 2 0  21.75 2 0  22.5 2 0  23.25 2 0  24 2 0  24.75 2 0  25.5 2 0  26.25 2 0  27 2 0  27.75 2 0  28.5 2 0  29.25 2 0  30 2 0  30.75 2 0  31.5 2 0  32.25 2 0  33 2 0  33.75 2 0  34.5 2 0  35.25 2 0  36 2 0  36.75 2 0  37.5 2 0  38.25 2 0  39 2 0  39.75 2 0  40.5 2 0  41.25 2 0  42 2 0  42.75 2 0  43.5 2 0  44.25 2 0  45 2 0  45.75 2 0  46.5 2 0  47.25 2 0  48 2 0  48.75 2 0  49.5 2 0  50.25 2 0  51 2 0  51.75 2 0  52.5 2 0  53.25 2 0  54 2 0  54.75 2 0  55.5 2 0  56.25 2 0  57 2 0  57.75 2 0  58.5 2 0  59.25 2 0  60 2 0  0 2.5 0  0.75 2.5 0  1.5 2.5 0  2.25 2.5 0  3 2.5 0  3.75 2.5 0  4.5 2.5 0  5.25 2.5 0  6 2.5 0  6.75 2.5 0  7.5 2.5 0  8.25 2.5 0  9 2.5 0  9.75 2.5 0  10.5 2.5 0  11.25 2.5 0  12 2.5 0  12.75 2.5 0  13.5 2.5 0  14.25 2.5 0  15 2.5 0  15.75 2.5 0  16.5 2.5 0  17.25 2.5 0  18 2.5 0  18.75 2.5 0  19.5 2.5 0  20.25 2.5 0  21 2.5 0  21.75 2.5 0  22.5 2.5 0  23.25 2.5 0  24 2.5 0  24.75 2.5 0  25.5 2.5 0  26.25 2.5 0  27 2.5 0  27.75 2.5 0  28.5 2.5 0  29.25 2.5 0  30 2.5 0  30.75 2.5 0  31.5 2.5 0  32.25 2.5 0  33 2.5 0  33.75 2.5 0  34.5 2.5 0  35.25 2.5 0  36 2.5 0  36.75 2.5 0  37.5 2.5 0  38.25 2.5 0  39 2.5 0  39.75 2.5 0  40.5 2.5 0  41.25 2.5 0  42 2.5 0  42.75 2.5 0  43.5 2.5 0  44.25 2.5 0  45 2.5 0  45.75 2.5 0  46.5 2.5 0  47.25 2.5 0  48 2.5 0  48.75 2.5 0  49.5 2.5 0  50.25 2.5 0  51 2.5 0  51.75 2.5 0  52.5 2.5 0  53.25 2.5 0  54 2.5 0  54.75 2.5 0  55.5 2.5 0  56.25 2.5 0  57 2.5 0  57.75 2.5 0  58.5 2.5 0  59.25 2.5 0  60 2.5 0  0 3 0  0.75 3 0  1.5 3 0  2.25 3 0  3 3 0  3.75 3 0  4.5 3 0  5.25 3 0  6 3 0  6.75 3 0  7.5 3 0  8.25 3 0  9 3 0  9.75 3 0  10.5 3 0  11.25 3 0  12 3 0  12.75 3 0  13.5 3 0  14.25 3 0  15 3 0  15.75 3 0  16.5 3 0  17.25 3 0  18 3 0  18.75 3 0  19.5 3 0  20.25 3 0  21 3 0  21.75 3 0  22.5 3 0  23.25 3 0  24 3 0  24.75 3 0  25.5 3 0  26.25 3 0  27 3 0  27.75 3 0  28.5 3 0  29.25 3 0  30 3 0  30.75 3 0  31.5 3 0  32.25 3 0  33 3 0  33.75 3 0  34.5 3 0  35.25 3 0  36 3 0  36.75 3 0  37.5 3 0  38.25 3 0  39 3 0  39.75 3 0  40.5 3 0  41.25 3 0  42 3 0  42.75 3 0  43.5 3 0  44.25 3 0  45 3 0  45.75 3 0  46.5 3 0  47.25 3 0  48 3 0  48.75 3 0  49.5 3 0  50.25 3 0  51 3 0  51.75 3 0  52.5 3 0  53.25 3 0  54 3 0  54.75 3 0  55.5 3 0  56.25 3 0  57 3 0  57.75 3 0  58.5 3 0  59.25 3 0  60 3 0  0 3.5 0  0.75 3.5 0  1.5 3.5 0  2.25 3.5 0  3 3.5 0  3.75 3.5 0  4.5 3.5 0  5.25 3.5 0  6 3.5 0  6.75 3.5 0  7.5 3.5 0  8.25 3.5 0  9 3.5 0  9.75 3.5 0  10.5 3.5 0  11.25 3.5 0  12 3.5 0  12.75 3.5 0  13.5 3.5 0  14.25 3.5 0  15 3.5 0  15.75 3.5 0  16.5 3.5 0  17.25 3.5 0  18 3.5 0  18.75 3.5 0  19.5 3.5 0  20.25 3.5 0  21 3.5 0  21.75 3.5 0  22.5 3.5 0  23.25 3.5 0  24 3.5 0  24.75 3.5 0  25.5 3.5 0  26.25 3.5 0  27 3.5 0  27.75 3.5 0  28.5 3.5 0  29.25 3.5 0  30 3.5 0  30.75 3.5 0  31.5 3.5 0  32.25 3.5 0  33 3.5 0  33.75 3.5 0  34.5 3.5 0  35.25 3.5 0  36 3.5 0  36.75 3.5 0  37.5 3.5 0  38.25 3.5 0  39 3.5 0  39.75 3.5 0  40.5 3.5 0  41.25 3.5 0  42 3.5 0  42.75 3.5 0  43.5 3.5 0  44.25 3.5 0  45 3.5 0  45.75 3.5 0  46.5 3.5 0  47.25 3.5 0  48 3.5 0  48.75 3.5 0  49.5 3.5 0  50.25 3.5 0  51 3.5 0  51.75 3.5 0  52.5 3.5 0  53.25 3.5 0  54 3.5 0  54.75 3.5 0  55.5 3.5 0  56.25 3.5 0  57 3.5 0  57.75 3.5 0  58.5 3.5 0  59.25 3.5 0  60 3.5 0  0 4 0  0.75 4 0  1.5 4 0  2.25 4 0  3 4 0  3.75 4 0  4.5 4 0  5.25 4 0  6 4 0  6.75 4 0  7.5 4 0  8.25 4 0  9 4 0  9.75 4 0  10.5 4 0  11.25 4 0  12 4 0  12.75 4 0  13.5 4 0  14.25 4 0  15 4 0  15.75 4 0  16.5 4 0  17.25 4 0  18 4 0  18.75 4 0  19.5 4 0  20.25 4 0  21 4 0  21.75 4 0  22.5 4 0  23.25 4 0  24 4 0  24.75 4 0  25.5 4 0  26.25 4 0  27 4 0  27.75 4 0  28.5 4 0  29.25 4 0  30 4 0  30.75 4 0  31.5 4 0  32.25 4 0  33 4 0  33.75 4 0  34.5 4 0  35.25 4 0  36 4 0  36.75 4 0  37.5 4 0  38.25 4 0  39 4 0  39.75 4 0  40.5 4 0  41.25 4 0  42 4 0  42.75 4 0  43.5 4 0  44.25 4 0  45 4 0  45.75 4 0  46.5 4 0  47.25 4 0  48 4 0  48.75 4 0  49.5 4 0  50.25 4 0  51 4 0  51.75 4 0  52.5 4 0  53.25 4 0  54 4 0  54.75 4 0  55.5 4 0  56.25 4 0  57 4 0  57.75 4 0  58.5 4 0  59.25 4 0  60 4 0  0.375 0.25 0  1.125 0.25 0  1.875 0.25 0  2.625 0.25 0  3.375 0.25 0  4.125 0.25 0  4.875 0.25 0  5.625 0.25 0  6.375 0.25 0  7.125 0.25 0  7.875 0.25 0  8.625 0.25 0  9.375 0.25 0  10.125 0.25 0  10.875 0.25 0  11.625 0.25 0  12.375 0.25 0  13.125 0.25 0  13.875 0.25 0  14.625 0.25 0  15.375 0.25 0  16.125 0.25 0  16.875 0.25 0  17.625 0.25 0  18.375 0.25 0  19.125 0.25 0  19.875 0.25 0  20.625 0.25 0  21.375 0.25 0  22.125 0.25 0  22.875 0.25 0  23.625 0.25 0  24.375 0.25 0  25.125 0.25 0  25.875 0.25 0  26.625 0.25 0  27.375 0.25 0  28.125 0.25 0  28.875 0.25 0  29.625 0.25 0  30.375 0.25 0  31.125 0.25 0  31.875 0.25 0  32.625 0.25 0  33.375 0.25 0  34.125 0.25 0  34.875 0.25 0  35.625 0.25 0  36.375 0.25 0  37.125 0.25 0  37.875 0.25 0  38.625 0.25 0  39.375 0.25 0  40.125 0.25 0  40.875 0.25 0  41.625 0.25 0  42.375 0.25 0  43.125 0.25 0  43.875 0.25 0  44.625 0.25 0  45.375 0.25 0  46.125 0.25 0  46.875 0.25 0  47.625 0.25 0  48.375 0.25 0  49.125 0.25 0  49.875 0.25 0  50.625 0.25 0  51.375 0.25 0  52.125 0.25 0  52.875 0.25 0  53.625 0.25 0  54.375 0.25 0  55.125 0.25 0  55.875 0.25 0  56.625 0.25 0  57.375 0.25 0  58.125 0.25 0  58.875 0.25 0  59.625 0.25 0  0.375 0.75 0  1.125 0.75 0  1.875 0.75 0  2.625 0.75 0  3.375 0.75 0  4.125 0.75 0  4.875 0.75 0  5.625 0.75 0  6.375 0.75 0  7.125 0.75 0  7.875 0.75 0  8.625 0.75 0  9.375 0.75 0  10.125 0.75 0  10.875 0.75 0  11.625 0.75 0  12.375 0.75 0  13.125 0.75 0  13.875 0.75 0  14.625 0.75 0  15.375 0.75 0  16.125 0.75 0  16.875 0.75 0  17.625 0.75 0  18.375 0.75 0  19.125 0.75 0  19.875 0.75 0  20.625 0.75 0  21.375 0.75 0  22.125 0.75 0  22.875 0.75 0  23.625 0.75 0  24.375 0.75 0  25.125 0.75 0  25.875 0.75 0  26.625 0.75 0  27.375 0.75 0  28.125 0.75 0  28.875 0.75 0  29.625 0.75 0  30.375 0.75 0  31.125 0.75 0  31.875 0.75 0  32.625 0.75 0  33.375 0.75 0  34.125 0.75 0  34.875 0.75 0  35.625 0.75 0  36.375 0.75 0  37.125 0.75 0  37.875 0.75 0  38.625 0.75 0  39.375 0.75 0  40.125 0.75 0  40
[...]
<PointData  Vectors="f_8-0"> 
<DataArray  type="Float64"  Name="f_8-0"  NumberOfComponents="3" format="ascii">0.0000000000000000e+00 0.0000000000000000e+00 0.0000000000000000e+00  0.0000000000000000e+00 0.0000000000000000e+00 0.0000000000000000e+00  0.0000000000000000e+00 0.0000000000000000e+00 0.0000000000000000e+00  0.0000000000000000e+00 0.0000000000000000e+00 0.0000000000000000e+00  0.0000000000000000e+00 0.0000000000000000e+00 0.0000000000000000e+00  0.0000000000000000e+00 0.0000000000000000e+00 0.0000000000000000e+00  0.0000000000000000e+00 0.0000000000000000e+00 0.0000000000000000e+00  0.0000000000000000e+00 0.0000000000000000e+00 0.0000000000000000e+00  0.0000000000000000e+00 0.0000000000000000e+00 0.0000000000000000e+00  0.0000000000000000e+00 0.0000000000000000e+00 0.0000000000000000e+00  0.0000000000000000e+00 0.0000000000000000e+00 0.0000000000000000e+00  0.0000000000000000e+00 0.0000000000000000e+00 0.0000000000000000e+00  0.0000000000000000e+00 0.0000000000000000e+00 0.0000000000000000e+00  0.0000000000000000e+00 0.0000000000000000e+00 0.0000000000000000e+00  0.0000000000000000e+00 0.0000000000000000e+00 0.0000000000000000e+00  0.0000000000000000e+00 0.0000000000000000e+00 0.0000000000000000e+00  0.0000000000000000e+00 0.0000000000000000e+00 0.0000000000000000e+00  0.0000000000000000e+00 0.0000000000000000e+00 0.0000000000000000e+00  0.0000000000000000e+00 0.0000000000000000e+00 0.0000000000000000e+00  0.0000000000000000e+00 0.0000000000000000e+00 0.0000000000000000e+00  0.0000000000000000e+00 0.0000000000000000e+00 0.0000000000000000e+00  0.0000000000000000e+00 0.0000000000000000e+00 0.0000000000000000e+00  0.0000000000000000e+00 0.0000000000000000e+00 0.0000000000000000e+00  0.0000000000000000e+00 0.0000000000000000e+00 0.0000000000000000e+00  0.0000000000000000e+00 0.0000000000000000e+00 0.0000000000000000e+00  0.0000000000000000e+00 0.0000000000000000e+00 0.0000000000000000e+00  0.0000000000000000e+00 0.0000000000000000e+00 0.0000000000000000e+00  0.0000000000000000e+00 0.0000000000000000e+00 0.0000000000000000e+00  0.0000000000000000e+00 0.0000000000000000e+00 0.0000000000000000e+00  0.0000000000000000e+00 0.0000000000000000e+00 0.0000000000000000e+00  0.0000000000000000e+00 0.0000000000000000e+00 0.0000000000000000e+00  0.0000000000000000e+00 0.0000000000000000e+00 0.0000000000000000e+00  0.0000000000000000e+00 0.0000000000000000e+00 0.0000000000000000e+00  0.0000000000000000e+00 0.0000000000000000e+00 0.0000000000000000e+00  0.0000000000000000e+00 0.0000000000000000e+00 0.0000000000000000e+00  0.0000000000000000e+00 0.0000000000000000e+00 0.0000000000000000e+00  0.0000000000000000e+00 0.0000000000000000e+00 0.0000000000000000e+00  0.0000000000000000e+00 0.0000000000000000e+00 0.0000000000000000e+00  0.0000000000000000e+00 0.0000000000000000e+00 0.0000000000000000e+00  0.0000000000000000e+00 0.0000000000000000e+00 0.0000000000000000e+00  0.0000000000000000e+00 0.0000000000000000e+00 0.0000000000000000e+00  0.0000000000000000e+00 0.0000000000000000e+00 0.0000000000000000e+00  0.0000000000000000e+00 0.0000000000000000e+00 0.0000000000000000e+00  0.0000000000000000e+00 0.0000000000000000e+00 0.0000000000000000e+00  0.0000000000000000e+00 0.0000000000000000e+00 0.0000000000000000e+00  0.0000000000000000e+00 0.0000000000000000e+00 0.0000000000000000e+00  0.0000000000000000e+00 0.0000000000000000e+00 0.0000000000000000e+00  0.0000000000000000e+00 0.0000000000000000e+00 0.0000000000000000e+00  0.0000000000000000e+00 0.0000000000000000e+00 0.0000000000000000e+00  0.0000000000000000e+00 0.0000000000000000e+00 0.0000000000000000e+00  0.0000000000000000e+00 0.0000000000000000e+00 0.0000000000000000e+00  0.0000000000000000e+00 0.0000000000000000e+00 0.0000000000000000e+00  0.0000000000000000e+00 0.0000000000000000e+00 0.0000000000000000e+00  0.0000000000000000e+00 0.0000000000000000e+00 0.0000000000000000e+00  0.0000000000000000e+00 0.0000000000000000e+00 0.0000000000000000e+00  0.0000000000000000e+00 0.0000000000000000e+00 0.0000000000000000e+00  0.0000000000000000e+00 0.0000000000000000e+00 0.0000000000000000e+00  0.0000000000000000e+00 0.0000000000000000e+00 0.0000000000000000e+00  0.0000000000000000e+00 0.0000000000000000e+00 0.0000000000000000e+00  0.0000000000000000e+00 0.0000000000000000e+00 0.0000000000000000e+00  0.0000000000000000e+00 0.0000000000000000e+00 0.0000000000000000e+00  0.0000000000000000e+00 0.0000000000000000e+00 0.0000000000000000e+00  0.0000000000000000e+00 0.0000000000000000e+00 0.0000000000000000e+00  0.0000000000000000e+00 0.0000000000000000e+00 0.0000000000000000e+00  0.0000000000000000e+00 0.0000000000000000e+00 0.0000000000000000e+00  0.0000000000000000e+00 0.0000000000000000e+00 0.0000000000000000e+00  0.0000000000000000e+00 0.0000000000000000e+00 0.0000000000000000e+00  0.0000000000000000e+00 0.0000000000000000e+00 0.0000000000000000e+00  0.0000000000000000e+00 0.0000000000000000e+00 0.0000000000000000e+00  0.0000000000000000e+00 0.0000000000000000e+00 0.0000000000000000e+00  0.0000000000000000e+00 0.0000000000000000e+00 0.0000000000000000e+00  0.0000000000000000e+00 0.0000000000000000e+00 0.0000000000000000e+00  0.0000000000000000e+00 0.0000000000000000e+00 0.0000000000000000e+00  0.0000000000000000e+00 0.0000000000000000e+00 0.0000000000000000e+00  0.0000000000000000e+00 0.0000000000000000e+00 0.0000000000000000e+00  0.0000000000000000e+00 0.0000000000000000e+00 0.0000000000000000e+00  0.0000000000000000e+00 0.0000000000000000e+00 0.0000000000000000e+00  0.0000000000000000e+00 0.0000000000000000e+00 0.0000000000000000e+00  0.0000000000000000e+00 0.0000000000000000e+00 0.0000000000000000e+00  0.0000000000000000e+00 0.0000000000000000e+00 0.0000000000000000e+00  0.0000000000000000e+00 0.0000000000000000e+00 0.0000000000000000e+00  -1.7611940302331330e+01 0.0000000000000000e+00 0.0000000000000000e+00  -1.7563053920381300e+01 -6.8656240697169337e-04 0.0000000000000000e+00  -1.7547514887044166e+01 -5.8100234214540393e-03 0.0000000000000000e+00  -1.7543952489547362e+01 -5.7219108526117314e-03 0.0000000000000000e+00  -1.7542597827884414e+01 -5.4642141929749670e-03 0.0000000000000000e+00  -1.7541940473940542e+01 -5.2937865065361732e-03 0.0000000000000000e+00  -1.7541567498990137e+01 -5.1970840053155764e-03 0.0000000000000000e+00  -1.7541344523835797e+01 -5.1407356268644245e-03 0.0000000000000000e+00  -1.7541211522967345e+01 -5.1067097135290849e-03 0.0000000000000000e+00  -1.7541134141975967e+01 -5.0863329902731827e-03 0.0000000000000000e+00  -1.7541090415053855e+01 -5.0743694289155710e-03 0.0000000000000000e+00  -1.7541066399747667e+01 -5.0675422474688540e-03 0.0000000000000000e+00  -1.7541053546209135e+01 -5.0637483689484264e-03 0.0000000000000000e+00  -1.7541046805567710e+01 -5.0617091101680259e-03 0.0000000000000000e+00  -1.7541043318082959e+01 -5.0606317181401449e-03 0.0000000000000000e+00  -1.7541041522109452e+01 -5.0600759197740632e-03 0.0000000000000000e+00  -1.7541040591174621e+01 -5.0597901276100777e-03 0.0000000000000000e+00  -1.7541040096180271e+01 -5.0596468700106530e-03 0.0000000000000000e+00  -1.7541039819180067e+01 -5.0595743611997488e-03 0.0000000000000000e+00  -1.7541039650109269e+01 -5.0595388742092576e-03 0.0000000000000000e+00  -1.7541039534401598e+01 -5.0595209730169436e-03 0.0000000000000000e+00  -1.7541039444767563e+01 -5.0595124154677682e-03 0.0000000000000000e+00  -1.7541039367947629e+01 -5.0595080405905993e-03 0.0000000000000000e+00  -1.7541039297265339e+01 -5.0595060213332321e-03 0.0000000000000000e+00  -1.7541039229580036e+01 -5.0595049448011438e-03 0.0000000000000000e+00  -1.7541039163269261e+01 -5.0595044741373373e-03 0.0000000000000000e+00  -1.7541039097618285e+01 -5.0595041936832104e-03 0.0000000000000000e+00  -1.7541039032238782e+01 -5.0595040722666790e-03 0.0000000000000000e+00  -1.7541038966980111e+01 -5.0595039780768946e-03 0.0000000000000000e+00  -1.7541038901755684e+01 -5.0595039278245541e-03 0.0000000000000000e+00  -1.7541038836538359e+01 -5.0595038752169587e-03 0.0000000000000000e+00  -1.7541038771318153e+01 -5.0595038346398242e-03 0.0000000000000000e+00  -1.7541038706081732e+01 -5.0595037858108373e-03 0.0000000000000000e+00  -1.7541038640851337e+01 -5.0595037506114722e-03 0.0000000000000000e+00  -1.7541038575588050e+01 -5.0595036899332355e-03 0.0000000000000000e+00  -1.7541038510365368e+01 -5.0595036747857801e-03 0.0000000000000000e+00  -1.7541038445059499e+01 -5.0595035760343391e-03 0.0000000000000000e+00  -1.7541038379896950e+01 -5.0595036197111374e-03 0.0000000000000000e+00  -1.7541038314483767e+01 -5.0595034143121860e-03 0.0000000000000000e+00  -1.7541038249509715e+01 -5.0595036383669547e-03 0.0000000000000000e+00  -1.7541038183793134e+01 -5.0595031250288977e-03 0.0000000000000000e+00  -1.7541038119359115e+01 -5.0595038647049933e-03 0.0000000000000000e+00  -1.7541038052796690e+01 -5.0595024872557310e-03 0.0000000000000000e+00  -1.7541037989827771e+01 -5.0595046402597352e-03 0.0000000000000000e+00  -1.7541037921001710e+01 -5.0595009529356434e-03 0.0000000000000000e+00  -1.7541037861816932e+01 -5.0595068026515408e-03 0.0000000000000000e+00  -1.7541037787245909e+01 -5.0594972340370923e-03 0.0000000000000000e+00  -1.7541037737322053e+01 -5.0595122585981563e-03 0.0000000000000000e+00  -1.7541037648996124e+01 -5.0594885143061029e-03 0.0000000000000000e+00  -1.7541037620401305e+01 -5.0595250303184869e-03 0.0000000000000000e+00  -1.7541037501147517e+01 -5.0594691471402900e-03 0.0000000000000000e+00  -1.7541037518432148e+01 -5.0595529098957951e-03 0.0000000000000000e+00  -1.7541037334066509e+01 -5.0594289433292580e-03 0.0000000000000000e+00  -1.7541037442685948e+01 -5.0596095976405634e-03 0.0000000000000000e+00  -1.7541037129869693e+01 -5.0593520352316288e-03 0.0000000000000000e+00  -1.7541037403719496e+01 -5.0597167325129840e-03 0.0000000000000000e+00  -1.7541036852288155e+01 -5.0592201459747797e-03 0.0000000000000000e+00  -1.7541037382799892e+01 -5.0599046121851616e-03 0.0000000000000000e+00  -1.7541036411112174e+01 -5.0590332726093189e-03 0.0000000000000000e+00  -1.7541037207944569e+01 -5.0602090448036048e-03 0.0000000000000000e+00  -1.7541035538098665e+01 -5.0588804523393838e-03 0.0000000000000000e+00  -1.7541036148471168e+01 -5.0606294122936095e-03 0.0000000000000000e+00  -1.7541033469515739e+01 -5.0590506214810349e-03 0.0000000000000000e+00  -1.7541031930075036e+01 -5.0607982869691499e-03 0.0000000000000000e+00  -1.7541027405749858e+01 -5.0602732814891077e-03 0.0000000000000000e+00  -1.7541012570442494e+01 -5.0611221576361701e-03 0.0000000000000000e+00  -1.7540981421862316e+01 -5.0750833092966059e-03 0.0000000000000000e+00  -1.7540845590766242e+01 -5.0996848109276655e-03 0.0000000000000000e+00  -1.7540535425412966e+01 -5.2270207286963469e-03 0.0000000000000000e+00  -1.7539666405065674e+01 -5.4072984270785241e-03 0.0000000000000000e+00  -1.7538152742434995e+01 -5.8494913365451538e-03 0.0000000000000000e+00  -1.7535276397221988e+01 -6.1081080924781234e-03 0.0000000000000000e+00  -1.7531793168359464e+01 -6.6020873630730816e-03 0.0000000000000000e+00  -1.7527210637654587e+01 -5.9996420095701167e-03 0.0000000000000000e+00  -1.7525207130764020e+01 -5.8388084140876687e-03 0.0000000000000000e+00  -1.7523651203733166e+01 -3.4684649969648827e-03 0.0000000000000000e+00  -1.7526780601630175e+01 -5.0416718538673615e-03 0.0000000000000000e+00  -1.7527263139696203e+01 -5.4929452362860037e-03 0.0000000000000000e+00  -1.7525328238361503e+01 -2.1370544742826923e-02 0.0000000000000000e+00  -1.7535773400179412e+01 -6.3844107148457466e-02 0.0000000000000000e+00  -1.7479069224130033e+01 0.0000000000000000e+00 0.0000000000000000e+00  -2.6975582889958996e+01 0.0000000000000000e+00 0.0000000000000000e+00  -2.6984328496194564e+01 -3.9798658322297599e-03 0.0000000000000000e+00  -2.6984177507932330e+01 -2.0807792255867887e-04 0.0000000000000000e+00  -2.6983436845485425e+01 1.1277855318588140e-03 0.0000000000000000e+00  -2.6983157908490696e+01 1.7861942909177468e-03 0.0000000000000000e+00  -2.6983070764485468e+01 2.1236368292170751e-03 0.0000000000000000e+00  -2.6983053554875440e+01 2.3002153286549526e-03 0.0000000000000000e+00  -2.6983052684821757e+01 2.3999408158554441e-03 0.0000000000000000e+00  -2.6983054911032514e+01 2.4594140010193652e-03 0.0000000000000000e+00  -2.6983056954697862e+01 2.4945707463864884e-03 0.0000000000000000e+00  -2.6983058232594985e+01 2.5150880465495797e-03 0.0000000000000000e+00  -2.6983058879807434e+01 2.5268307454064218e-03 0.0000000000000000e+00  -2.6983059196841911e+01 2.5333373619976798e-03 0.0000000000000000e+00  -2.6983059329659238e+01 2.5367995839074287e-03 0.0000000000000000e+00  -2.6983059366172114e+01 2.5386047533150543e-03 0.0000000000000000e+00  -2.6983059340268372e+01 2.5395278186505360e-03 0.0000000000000000e+00  -2.6983059282584950e+01 2.5400000584403157e-03 0.0000000000000000e+00  -2.6983059205341355e+01 2.5402362067661393e-03 0.0000000000000000e+00  -2.6983059119290512e+01 2.5403554933370563e-03 0.0000000000000000e+00  -2.6983059027336779e+01 2.5404135819068040e-03 0.0000000000000000e+00  -2.6983058932748783e+01 2.5404427163368483e-03 0.0000000000000000e+00  -2.6983058836072416e+01 2.5404564152796101e-03 0.0000000000000000e+00  -2.6983058738442150e+01 2.5404633361496448e-03 0.0000000000000000e+00  -2.6983058639980147e+01 2.5404663769873510e-03 0.0000000000000000e+00  -2.6983058541134056e+01 2.5404679542674604e-03 0.0000000000000000e+00  -2.6983058441936961e+01 2.5404685347736201e-03 0.0000000000000000e+00  -2.6983058342574335e+01 2.5404688498611447e-03 0.0000000000000000e+00  -2.6983058243058117e+01 2.5404689033407309e-03 0.0000000000000000e+00  -2.6983058143468966e+01 2.5404689325348138e-03 0.0000000000000000e+00  -2.6983058043808903e+01 2.5404688970866681e-03 0.0000000000000000e+00  -2.6983057944121470e+01 2.5404688697174237e-03 0.0000000000000000e+00  -2.6983057844390697e+01 2.5404688327486094e-03 0.0000000000000000e+00  -2.6983057744666553e+01 2.5404687944974853e-03 0.0000000000000000e+00  -2.6983057644891186e+01 2.5404687741638161e-03 0.0000000000000000e+00  -2.6983057545178809e+01 2.5404687242518821e-03 0.0000000000000000e+00  -2.6983057445340567e+01 2.5404687378813465e-03 0.0000000000000000e+00  -2.6983057345720734e+01 2.5404686450007769e-03 0.0000000000000000e+00  -2.6983057245728613e+01 2.5404687458132858e-03 0.0000000000000000e+00  -2.6983057146390056e+01 2.5404685167740820e-03 0.0000000000000000e+00  -2.6983057045965342e+01 2.5404688654070352e-03 0.0000000000000000e+00  -2.6983056947415307e+01 2.5404682382830124e-03 0.0000000000000000e+00  -2.6983056845803443e+01 2.5404692760059430e-03 0.0000000000000000e+00  -2.6983056749335205e+01 2.5404675436896790e-03 0.0000000000000000e+00  -2.6983056644621112e+01 2.5404704368653199e-03 0.0000000000000000e+00  -2.6983056553380067e+01 2.5404657780317107e-03 0.0000000000000000e+00  -2.6983056441034805e+01 2.5404734271900903e-03 0.0000000000000000e+00  -2.6983056362142303e+01 2.5404614212552693e-03 0.0000000000000000e+00  -2.6983056232246543e+01 2.5404806320395274e-03 0.0000000000000000e+00  -2.6983056180551650e+01 2.5404512047009862e-03 0.0000000000000000e+00  -2.6983056013300263e+01 2.5404968460685886e-03 0.0000000000000000e+00  -2.6983056016720980e+01 2.5404286456172220e-03 0.0000000000000000e+00  -2.6983055776735551e+01 2.5405306106867915e-03 0.0000000000000000e+00  -2.6983055880810408e+01 2.5403819644939426e-03 0.0000000000000000e+00  -2.6983055513452271e+01 2.5405942113007505e-03 0.0000000000000000e+00  -2.6983055775820127e+01 2.5402913192535347e-03 0.0000000000000000e+00  -2.6983055214411788e+01 2.5406962254451446e-03 0.0000000000000000e+00  -2.6983055659190665e+01 2.5401236599614067e-03 0.0000000000000000e+00  -2.6983054864794262e+01 2.5408053313426596e-03 0.0000000000000000e+00  -2.6983055302216499e+01 2.5398131990273013e-03 0.0000000000000000e+00  -2.6983054378961292e+01 2.5407204955088872e-03 0.0000000000000000e+00  -2.6983053809453740e+01 2.5391801883068027e-03 0.0000000000000000e+00  -2.6983053147878852e+01 2.5396841282953916e-03 0.0000000000000000e+00  -2.6983047783885588e+01 2.5375568618370308e-03 0.0000000000000000e+00  -2.6983046436689239e+01 2.5346790544502388e-03 0.0000000000000000e+00  -2.6983019928148305e+01 2.5290207657821268e-03 0.0000000000000000e+00  -2.6982995097198355e+01 2.5019461481538626e-03 0.0000000000000000e+00  -2.6982858716559676e+01 2.4477544408510118e-03 0.0000000000000000e+00  -2.6982648018787099e+01 2.2563418789866806e-03 0.0000000000000000e+00  -2.6982013787314425e+01 1.9003241865321728e-03 0.0000000000000000e+00  -2.6981025464349962e+01 1.0995785751722195e-03 0.0000000000000000e+00  -2.6978851028833464e+01 4.5577008184603786e-05 0.0000000000000000e+00  -2.6975963872197934e+01 -1.4803480971478946e-03 0.0000000000000000e+00  -2.6971571328821916e+01 -2.0597787686380282e-03 0.0000000000000000e+00  -2.6969270787198010e+01 -1.4508600978535820e-03 0.0000000000000000e+00  -2.6967239597386889e+01 1.3972988771820435e-03 0.0000000000000000e+00  -2.6967764888139467e+01 2.8309252207745607e-03 0.0000000000000000e+00  -2.6965397038449680e+01 6.0430750648938795e-03 0.0000000000000000e+00  -2.6971858452901884e+01 8.4651634136152440e-03 0.0000000000000000e+00  -2.6973071416450942e+01 1.5311588292150514e-03 0.0000000000000000e+00  -2.7008667287015221e+01 3.5619589977673220e-02 0.0000000000000000e+00  -2.6977054382505472e+01 0.0000000000000000e+00 0.0000000000000000e+00  -2.8073200851061543e+01 0.0000000000000000e+00 0.0000000000000000e+00  -2.8084723780316224e+01 -2.6517214239137289e-03 0.0000000000000000e+00  -2.8089995023289831e+01 -9.8158139864545219e-04 0.0000000000000000e+00  -2.8092010507771160e+01 1.3329906940386273e-04 0.0000000000000000e+00  -2.8092920973366972e+01 6.8855292259734665e-04 0.0000000000000000e+00  -2.8093403110219988e+01 9.6577156541333045e-04 0.0000000000000000e+00  -2.8093676508667578e+01 1.0945866588567223e-03 0.0000000000000000e+00  -2.8093836452113916e+01 1.1625411050953289e-03 0.0000000000000000e+00  -2.8093930302965454e+01 1.2020601728496051e-03 0.0000000000000000e+00  -2.8093984374029841e+01 1.2250079185932583e-03 0.0000000000000000e+00  -2.8094014602307240e+01 1.2384405800142727e-03 0.0000000000000000e+00  -2.8094031116306851e+01 1.2461463269375665e-03 0.0000000000000000e+00  -2.8094039905180693e+01 1.2503972668296913e-03 0.0000000000000000e+00  -2.8094044481082715e+01 1.2526424728066081e-03 0.0000000000000000e+00  -2.8094046785865093e+01 1.2538148264088134e-03 0.0000000000000000e+00  -2.8094047912399397e+01 1.2544144103216110e-03 0.0000000000000000e+00  -2.8094048428306884e+01 1.2547225289318261e-03 0.0000000000000000e+00  -2.8094048639217998e+01 1.2548755681151345e-03 0.0000000000000000e+00  -2.8094048693996267e+01 1.2549527235146680e-03 0.0000000000000000e+00  -2.8094048672202760e+01 1.2549894980749439e-03 0.0000000000000000e+00  -2.8094048610760542e+01 1.2550077307519885e-03 0.0000000000000000e+00  -2.8094048530083402e+01 1.2550159191962657e-03 0.0000000000000000e+00  -2.8094048439206617e+01 1.2550199443052820e-03 0.0000000000000000e+00  -2.8094048343446538e+01 1.2550215269058662e-03 0.0000000000000000e+00  -2.8094048245004245e+01 1.2550222954069970e-03 0.0000000000000000e+00  -2.8094048145295336e+01 1.2550224764477367e-03 0.0000000000000000e+00  -2.8094048044855821e+01 1.2550225523537554e-03 0.0000000000000000e+00  -2.8094047944078028e+01 1.2550224937185454e-03 0.0000000000000000e+00  -2.8094047843089673e+01 1.2550224506987671e-03 0.0000000000000000e+00  -2.8094047742008961e+01 1.2550223843039057e-03 0.0000000000000000e+00  -2.8094047640858623e+01 1.2550223388058334e-03 0.0000000000000000e+00  -2.8094047539693975e+01 1.2550222926906341e-03 0.0000000000000000e+00  -2.8094047438479301e+01 1.2550222629594272e-03 0.0000000000000000e+00  -2.8094047337313384e+01 1.2550222276849813e-03 0.0000000000000000e+00  -2.8094047236038897e+01 1.2550222193355859e-03 0.0000000000000000e+00  -2.8094047134945178e+01 1.2550221816166672e-03 0.0000000000000000e+00  -2.8094047033539802e+01 1.2550222082231429e-03 0.0000000000000000e+00  -2.80