<?xml version="1.0"?>
<VTKFile type="UnstructuredGrid"  version="0.1"  >
<UnstructuredGrid>
<Piece  NumberOfPoints="1369" NumberOfCells="2560">
<Points>
<DataArray  type="Float64"  NumberOfComponents="3"  format="ascii">0 0 0  0.75 0 0  1.5 0 0  2.25 0 0  3 0 0  3.75 0 0  4.5 0 0  5.25 0 0  6 0 0  6.75 0 0  7.5 0 0  8.25 0 0  9 0 0  9.75 0 0  10.5 0 0  11.25 0 0  12 0 0  12.75 0 0  13.5 0 0  14.25 0 0  15 0 0  15.75 0 0  16.5 0 0  17.25 0 0  18 0 0  18.75 0 0  19.5 0 0  20.25 0 0  21 0 0  21.75 0 0  22.5 0 0  23.25 0 0  24 0 0  24.75 0 0  25.5 0 0  26.25 0 0  27 0 0  27.75 0 0  28.5 0 0  29.25 0 0  30 0 0  30.75 0 0  31.5 0 0  32.25 0 0  33 0 0  33.75 0 0  34.5 0 0  35.25 0 0  36 0 0  36.75 0 0  37.5 0 0  38.25 0 0  39 0 0  39.75 0 0  40.5 0 0  41.25 0 0  42 0 0  42.75 0 0  43.5 0 0  44.25 0 0  45 0 0  45.75 0 0  46.5 0 0  47.25 0 0  48 0 0  48.75 0 0  49.5 0 0  50.25 0 0  51 0 0  51.75 0 0  52.5 0 0  53.25 0 0  54 0 0  54.75 0 0  55.5 0 0  56.25 0 0  57 0 0  57.75 0 0  58.5 0 0  59.25 0 0  60 0 0  0 0.5 0  0.75 0.5 0  1.5 0.5 0  2.25 0.5 0  3 0.5 0  3.75 0.5 0  4.5 0.5 0  5.25 0.5 0  6 0.5 0  6.75 0.5 0  7.5 0.5 0  8.25 0.5 0  9 0.5 0  9.75 0.5 0  10.5 0.5 0  11.25 0.5 0  12 0.5 0  12.75 0.5 0  13.5 0.5 0  14.25 0.5 0  15 0.5 0  15.75 0.5 0  16.5 0.5 0  17.25 0.5 0  18 0.5 0  18.75 0.5 0  19.5 0.5 0  20.25 0.5 0  21 0.5 0  21.75 0.5 0  22.5 0.5 0  23.25 0.5 0  24 0.5 0  24.75 0.5 0  25.5 0.5 0  26.25 0.5 0  27 0.5 0  27.75 0.5 0  28.5 0.5 0  29.25 0.5 0  30 0.5 0  30.75 0.5 0  31.5 0.5 0  32.25 0.5 0  33 0.5 0  33.75 0.5 0  34.5 0.5 0  35.25 0.5 0  36 0.5 0  36.75 0.5 0  37.5 0.5 0  38.25 0.5 0  39 0.5 0  39.75 0.5 0  40.5 0.5 0  41.25 0.5 0  42 0.5 0  42.75 0.5 0  43.5 0.5 0  44.25 0.5 0  45 0.5 0  45.75 0.5 0  46.5 0.5 0  47.25 0.5 0  48 0.5 0  48.75 0.5 0  49.5 0.5 0  50.25 0.5 0  51 0.5 0  51.75 0.5 0  52.5 0.5 0  53.25 0.5 0  54 0.5 0  54.75 0.5 0  55.5 0.5 0  56.25 0.5 0  57 0.5 0  57.75 0.5 0  58.5 0.5 0  59.25 0.5 0  60 0.5 0  0 1 0  0.75 1 0  1.5 1 0  2.25 1 0  3 1 0  3.75 1 0  4.5 1 0  5.25 1 0  6 1 0  6.75 1 0  7.5 1 0  8.25 1 0  9 1 0  9.75 1 0  10.5 1 0  11.25 1 0  12 1 0  12.75 1 0  13.5 1 0  14.25 1 0  15 1 0  15.75 1 0  16.5 1 0  17.25 1 0  18 1 0  18.75 1 0  19.5 1 0  20.25 1 0  21 1 0  21.75 1 0  22.5 1 0  23.25 1 0  24 1 0  24.75 1 0  25.5 1 0  26.25 1 0  27 1 0  27.75 1 0  28.5 1 0  29.25 1 0  30 1 0  30.75 1 0  31.5 1 0  32.25 1 0  33 1 0  33.75 1 0  34.5 1 0  35.25 1 0  36 1 0  36.75 1 0  37.5 1 0  38.25 1 0  39 1 0  39.75 1 0  40.5 1 0  41.25 1 0  42 1 0  42.75 1 0  43.5 1 0  44.25 1 0  45 1 0  45.75 1 0  46.5 1 0  47.25 1 0  48 1 0  48.75 1 0  49.5 1 0  50.25 1 0  51 1 0  51.75 1 0  52.5 1 0  53.25 1 0  54 1 0  54.75 1 0  55.5 1 0  56.25 1 0  57 1 0  57.75 1 0  58.5 1 0  59.25 1 0  60 1 0  0 1.5 0  0.75 1.5 0  1.5 1.5 0  2.25 1.5 0  3 1.5 0  3.75 1.5 0  4.5 1.5 0  5.25 1.5 0  6 1.5 0  6.75 1.5 0  7.5 1.5 0  8.25 1.5 0  9 1.5 0  9.75 1.5 0  10.5 1.5 0  11.25 1.5 0  12 1.5 0  12.75 1.5 0  13.5 1.5 0  14.25 1.5 0  15 1.5 0  15.75 1.5 0  16.5 1.5 0  17.25 1.5 0  18 1.5 0  18.75 1.5 0  19.5 1.5 0  20.25 1.5 0  21 1.5 0  21.75 1.5 0  22.5 1.5 0  23.25 1.5 0  24 1.5 0  24.75 1.5 0  25.5 1.5 0  26.25 1.5 0  27 1.5 0  27.75 1.5 0  28.5 1.5 0  29.25 1.5 0  30 1.5 0  30.75 1.5 0  31.5 1.5 0  32.25 1.5 0  33 1.5 0  33.75 1.5 0  34.5 1.5 0  35.25 1.5 0  36 1.5 0  36.75 1.5 0  37.5 1.5 0  38.25 1.5 0  39 1.5 0  39.75 1.5 0  40.5 1.5 0  41.25 1.5 0  42 1.5 0  42.75 1.5 0  43.5 1.5 0  44.25 1.5 0  45 1.5 0  45.75 1.5 0  46.5 1.5 0  47.25 1.5 0  48 1.5 0  48.75 1.5 0  49.5 1.5 0  50.25 1.5 0  51 1.5 0  51.75 1.5 0  52.5 1.5 0  53.25 1.5 0  54 1.5 0  54.75 1.5 0  55.5 1.5 0  56.25 1.5 0  57 1.5 0  57.75 1.5 0  58.5 1.5 0  59.25 1.5 0  60 1.5 0  0 2 0  0.75 2 0  1.5 2 0  2.25 2 0  3 2 0  3.75 2 0  4.5 2 0  5.25 2 0  6 2 0  6.75 2 0  7.5 2 0  8.25 2 0  9 2 0  9.75 2 0  10.5 2 0  11.25 2 0  12 2 0  12.75 2 0  13.5 2 0  14.25 2 0  15 2 0  15.75 2 0  16.5 2 0  17.25 2 0  18 2 0  18.75 2 0  19.5 2 0  20.25 2 0  21 2 0  21.75 2 0  22.5 2 0  23.25 2 0  24 2 0  24.75 2 0  25.5 2 0  26.25 2 0  27 2 0  27.75 2 0  28.5 2 0  29.25 2 0  30 2 0  30.75 2 0  31.5 2 0  32.25 2 0  33 2 0  33.75 2 0  34.5 2 0  35.25 2 0  36 2 0  36.75 2 0  37.5 2 0  38.25 2 0  39 2 0  39.75 2 0  40.5 2 0  41.25 2 0  42 2 0  42.75 2 0  43.5 2 0  44.25 2 0  45 2 0  45.75 2 0  46.5 2 0  47.25 2 0  48 2 0  48.75 2 0  49.5 2 0  50.25 2 0  51 2 0  51.75 2 0  52.5 2 0  53.25 2 0  54 2 0  54.75 2 0  55.5 2 0  56.25 2 0  57 2 0  57.75 2 0  58.5 2 0  59.25 2 0  60 2 0  0 2.5 0  0.75 2.5 0  1.5 2.5 0  2.25 2.5 0  3 2.5 0  3.75 2.5 0  4.5 2.5 0  5.25 2.5 0  6 2.5 0  6.75 2.5 0  7.5 2.5 0  8.25 2.5 0  9 2.5 0  9.75 2.5 0  10.5 2.5 0  11.25 2.5 0  12 2.5 0  12.75 2.5 0  13.5 2.5 0  14.25 2.5 0  15 2.5 0  15.75 2.5 0  16.5 2.5 0  17.25 2.5 0  18 2.5 0  18.75 2.5 0  19.5 2.5 0  20.25 2.5 0  21 2.5 0  21.75 2.5 0  22.5 2.5 0  23.25 2.5 0  24 2.5 0  24.75 2.5 0  25.5 2.5 0  26.25 2.5 0  27 2.5 0  27.75 2.5 0  28.5 2.5 0  29.25 2.5 0  30 2.5 0  30.75 2.5 0  31.5 2.5 0  32.25 2.5 0  33 2.5 0  33.75 2.5 0  34.5 2.5 0  35.25 2.5 0  36 2.5 0  36.75 2.5 0  37.5 2.5 0  38.25 2.5 0  39 2.5 0  39.75 2.5 0  40.5 2.5 0  41.25 2.5 0  42 2.5 0  42.75 2.5 0  43.5 2.5 0  44.25 2.5 0  45 2.5 0  45.75 2.5 0  46.5 2.5 0  47.25 2.5 0  48 2.5 0  48.75 2.5 0  49.5 2.5 0  50.25 2.5 0  51 2.5 0  51.75 2.5 0  52.5 2.5 0  53.25 2.5 0  54 2.5 0  54.75 2.5 0  55.5 2.5 0  56.25 2.5 0  57 2.5 0  57.75 2.5 0  58.5 2.5 0  59.25 2.5 0  60 2.5 0  0 3 0  0.75 3 0  1.5 3 0  2.25 3 0  3 3 0  3.75 3 0  4.5 3 0  5.25 3 0  6 3 0  6.75 3 0  7.5 3 0  8.25 3 0  9 3 0  9.75 3 0  10.5 3 0  11.25 3 0  12 3 0  12.75 3 0  13.5 3 0  14.25 3 0  15 3 0  15.75 3 0  16.5 3 0  17.25 3 0  18 3 0  18.75 3 0  19.5 3 0  20.25 3 0  21 3 0  21.75 3 0  22.5 3 0  23.25 3 0  24 3 0  24.75 3 0  25.5 3 0  26.25 3 0  27 3 0  27.75 3 0  28.5 3 0  29.25 3 0  30 3 0  30.75 3 0  31.5 3 0  32.25 3 0  33 3 0  33.75 3 0  34.5 3 0  35.25 3 0  36 3 0  36.75 3 0  37.5 3 0  38.25 3 0  39 3 0  39.75 3 0  40.5 3 0  41.25 3 0  42 3 0  42.75 3 0  43.5 3 0  44.25 3 0  45 3 0  45.75 3 0  46.5 3 0  47.25 3 0  48 3 0  48.75 3 0  49.5 3 0  50.25 3 0  51 3 0  51.75 3 0  52.5 3 0  53.25 3 0  54 3 0  54.75 3 0  55.5 3 0  56.25 3 0  57 3 0  57.75 3 0  58.5 3 0  59.25 3 0  60 3 0  0 3.5 0  0.75 3.5 0  1.5 3.5 0  2.25 3.5 0  3 3.5 0  3.75 3.5 0  4.5 3.5 0  5.25 3.5 0  6 3.5 0  6.75 3.5 0  7.5 3.5 0  8.25 3.5 0  9 3.5 0  9.75 3.5 0  10.5 3.5 0  11.25 3.5 0  12 3.5 0  12.75 3.5 0  13.5 3.5 0  14.25 3.5 0  15 3.5 0  15.75 3.5 0  16.5 3.5 0  17.25 3.5 0  18 3.5 0  18.75 3.5 0  19.5 3.5 0  20.25 3.5 0  21 3.5 0  21.75 3.5 0  22.5 3.5 0  23.25 3.5 0  24 3.5 0  24.75 3.5 0  25.5 3.5 0  26.25 3.5 0  27 3.5 0  27.75 3.5 0  28.5 3.5 0  29.25 3.5 0  30 3.5 0  30.75 3.5 0  31.5 3.5 0  32.25 3.5 0  33 3.5 0  33.75 3.5 0  34.5 3.5 0  35.25 3.5 0  36 3.5 0  36.75 3.5 0  37.5 3.5 0  38.25 3.5 0  39 3.5 0  39.75 3.5 0  40.5 3.5 0  41.25 3.5 0  42 3.5 0  42.75 3.5 0  43.5 3.5 0  44.25 3.5 0  45 3.5 0  45.75 3.5 0  46.5 3.5 0  47.25 3.5 0  48 3.5 0  48.75 3.5 0  49.5 3.5 0  50.25 3.5 0  51 3.5 0  51.75 3.5 0  52.5 3.5 0  53.25 3.5 0  54 3.5 0  54.75 3.5 0  55.5 3.5 0  56.25 3.5 0  57 3.5 0  57.75 3.5 0  58.5 3.5 0  59.25 3.5 0  60 3.5 0  0 4 0  0.75 4 0  1.5 4 0  2.25 4 0  3 4 0  3.75 4 0  4.5 4 0  5.25 4 0  6 4 0  6.75 4 0  7.5 4 0  8.25 4 0  9 4 0  9.75 4 0  10.5 4 0  11.25 4 0  12 4 0  12.75 4 0  13.5 4 0  14.25 4 0  15 4 0  15.75 4 0  16.5 4 0  17.25 4 0  18 4 0  18.75 4 0  19.5 4 0  20.25 4 0  21 4 0  21.75 4 0  22.5 4 0  23.25 4 0  24 4 0  24.75 4 0  25.5 4 0  26.25 4 0  27 4 0  27.75 4 0  28.5 4 0  29.25 4 0  30 4 0  30.75 4 0  31.5 4 0  32.25 4 0  33 4 0  33.75 4 0  34.5 4 0  35.25 4 0  36 4 0  36.75 4 0  37.5 4 0  38.25 4 0  39 4 0  39.75 4 0  40.5 4 0  41.25 4 0  42 4 0  42.75 4 0  43.5 4 0  44.25 4 0  45 4 0  45.75 4 0  46.5 4 0  47.25 4 0  48 4 0  48.75 4 0  49.5 4 0  50.25 4 0  51 4 0  51.75 4 0  52.5 4 0  53.25 4 0  54 4 0  54.75 4 0  55.5 4 0  56.25 4 0  57 4 0  57.75 4 0  58.5 4 0  59.25 4 0  60 4 0  0.375 0.25 0  1.125 0.25 0  1.875 0.25 0  2.625 0.25 0  3.375 0.25 0  4.125 0.25 0  4.875 0.25 0  5.625 0.25 0  6.375 0.25 0  7.125 0.25 0  7.875 0.25 0  8.625 0.25 0  9.375 0.25 0  10.125 0.25 0  10.875 0.25 0  11.625 0.25 0  12.375 0.25 0  13.125 0.25 0  13.875 0.25 0  14.625 0.25 0  15.375 0.25 0  16.125 0.25 0  16.875 0.25 0  17.625 0.25 0  18.375 0.25 0  19.125 0.25 0  19.875 0.25 0  20.625 0.25 0  21.375 0.25 0  22.125 0.25 0  22.875 0.25 0  23.625 0.25 0  24.375 0.25 0  25.125 0.25 0  25.875 0.25 0  26.625 0.25 0  27.375 0.25 0  28.125 0.25 0  28.875 0.25 0  29.625 0.25 0  30.375 0.25 0  31.125 0.25 0  31.875 0.25 0  32.625 0.25 0  33.375 0.25 0  34.125 0.25 0  34.875 0.25 0  35.625 0.25 0  36.375 0.25 0  37.125 0.25 0  37.875 0.25 0  38.625 0.25 0  39.375 0.25 0  40.125 0.25 0  40.875 0.25 0  41.625 0.25 0  42.375 0.25 0  43.125 0.25 0  43.875 0.25 0  44.625 0.25 0  45.375 0.25 0  46.125 0.25 0  46.875 0.25 0  47.625 0.25 0  48.375 0.25 0  49.125 0.25 0  49.875 0.25 0  50.625 0.25 0  51.375 0.25 0  52.125 0.25 0  52.875 0.25 0  53.625 0.25 0  54.375 0.25 0  55.125 0.25 0  55.875 0.25 0  56.625 0.25 0  57.375 0.25 0  58.125 0.25 0  58.875 0.25 0  59.625 0.25 0  0.375 0.75 0  1.125 0.75 0  1.875 0.75 0  2.625 0.75 0  3.375 0.75 0  4.125 0.75 0  4.875 0.75 0  5.625 0.75 0  6.375 0.75 0  7.125 0.75 0  7.875 0.75 0  8.625 0.75 0  9.375 0.75 0  10.125 0.75 0  10.875 0.75 0  11.625 0.75 0  12.375 0.75 0  13.125 0.75 0  13.875 0.75 0  14.625 0.75 0  15.375 0.75 0  16.125 0.75 0  16.875 0.75 0  17.625 0.75 0  18.375 0.75 0  19.125 0.75 0  19.875 0.75 0  20.625 0.75 0  21.375 0.75 0  22.125 0.75 0  22.875 0.75 0  23.625 0.75 0  24.375 0.75 0  25.125 0.75 0  25.875 0.75 0  26.625 0.75 0  27.375 0.75 0  28.125 0.75 0  28.875 0.75 0  29.625 0.75 0  30.375 0.75 0  31.125 0.75 0  31.875 0.75 0  32.625 0.75 0  33.375 0.75 0  34.125 0.75 0  34.875 0.75 0  35.625 0.75 0  36.375 0.75 0  37.125 0.75 0  37.875 0.75 0  38.625 0.75 0  39.375 0.75 0  40.125 0.75 0  40
[...]
<PointData  Vectors="f_8-0"> 
<DataArray  type="Float64"  Name="f_8-0"  NumberOfComponents="3" format="ascii">0.0000000000000000e+00 0.0000000000000000e+00 0.0000000000000000e+00  0.0000000000000000e+00 0.0000000000000000e+00 0.0000000000000000e+00  0.0000000000000000e+00 0.0000000000000000e+00 0.0000000000000000e+00  0.0000000000000000e+00 0.0000000000000000e+00 0.0000000000000000e+00  0.0000000000000000e+00 0.0000000000000000e+00 0.0000000000000000e+00  0.0000000000000000e+00 0.0000000000000000e+00 0.0000000000000000e+00  0.0000000000000000e+00 0.0000000000000000e+00 0.0000000000000000e+00  0.0000000000000000e+00 0.0000000000000000e+00 0.0000000000000000e+00  0.0000000000000000e+00 0.0000000000000000e+00 0.0000000000000000e+00  0.0000000000000000e+00 0.0000000000000000e+00 0.0000000000000000e+00  0.0000000000000000e+00 0.0000000000000000e+00 0.0000000000000000e+00  0.0000000000000000e+00 0.0000000000000000e+00 0.0000000000000000e+00  0.0000000000000000e+00 0.0000000000000000e+00 0.0000000000000000e+00  0.0000000000000000e+00 0.0000000000000000e+00 0.0000000000000000e+00  0.0000000000000000e+00 0.0000000000000000e+00 0.0000000000000000e+00  0.0000000000000000e+00 0.0000000000000000e+00 0.0000000000000000e+00  0.0000000000000000e+00 0.0000000000000000e+00 0.0000000000000000e+00  0.0000000000000000e+00 0.0000000000000000e+00 0.0000000000000000e+00  0.0000000000000000e+00 0.0000000000000000e+00 0.0000000000000000e+00  0.0000000000000000e+00 0.0000000000000000e+00 0.0000000000000000e+00  0.0000000000000000e+00 0.0000000000000000e+00 0.0000000000000000e+00  0.0000000000000000e+00 0.0000000000000000e+00 0.0000000000000000e+00  0.0000000000000000e+00 0.0000000000000000e+00 0.0000000000000000e+00  0.0000000000000000e+00 0.0000000000000000e+00 0.0000000000000000e+00  0.0000000000000000e+00 0.0000000000000000e+00 0.0000000000000000e+00  0.0000000000000000e+00 0.0000000000000000e+00 0.0000000000000000e+00  0.0000000000000000e+00 0.0000000000000000e+00 0.0000000000000000e+00  0.0000000000000000e+00 0.0000000000000000e+00 0.0000000000000000e+00  0.0000000000000000e+00 0.0000000000000000e+00 0.0000000000000000e+00  0.0000000000000000e+00 0.0000000000000000e+00 0.0000000000000000e+00  0.0000000000000000e+00 0.0000000000000000e+00 0.0000000000000000e+00  0.0000000000000000e+00 0.0000000000000000e+00 0.0000000000000000e+00  0.0000000000000000e+00 0.0000000000000000e+00 0.0000000000000000e+00  0.0000000000000000e+00 0.0000000000000000e+00 0.0000000000000000e+00  0.0000000000000000e+00 0.0000000000000000e+00 0.0000000000000000e+00  0.0000000000000000e+00 0.0000000000000000e+00 0.0000000000000000e+00  0.0000000000000000e+00 0.0000000000000000e+00 0.0000000000000000e+00  0.0000000000000000e+00 0.0000000000000000e+00 0.0000000000000000e+00  0.0000000000000000e+00 0.0000000000000000e+00 0.0000000000000000e+00  0.0000000000000000e+00 0.0000000000000000e+00 0.0000000000000000e+00  0.0000000000000000e+00 0.0000000000000000e+00 0.0000000000000000e+00  0.0000000000000000e+00 0.0000000000000000e+00 0.0000000000000000e+00  0.0000000000000000e+00 0.0000000000000000e+00 0.0000000000000000e+00  0.0000000000000000e+00 0.0000000000000000e+00 0.0000000000000000e+00  0.0000000000000000e+00 0.0000000000000000e+00 0.0000000000000000e+00  0.0000000000000000e+00 0.0000000000000000e+00 0.0000000000000000e+00  0.0000000000000000e+00 0.0000000000000000e+00 0.0000000000000000e+00  0.0000000000000000e+00 0.0000000000000000e+00 0.0000000000000000e+00  0.0000000000000000e+00 0.0000000000000000e+00 0.0000000000000000e+00  0.0000000000000000e+00 0.0000000000000000e+00 0.0000000000000000e+00  0.0000000000000000e+00 0.0000000000000000e+00 0.0000000000000000e+00  0.0000000000000000e+00 0.0000000000000000e+00 0.0000000000000000e+00  0.0000000000000000e+00 0.0000000000000000e+00 0.0000000000000000e+00  0.0000000000000000e+00 0.0000000000000000e+00 0.0000000000000000e+00  0.0000000000000000e+00 0.0000000000000000e+00 0.0000000000000000e+00  0.0000000000000000e+00 0.0000000000000000e+00 0.0000000000000000e+00  0.0000000000000000e+00 0.0000000000000000e+00 0.0000000000000000e+00  0.0000000000000000e+00 0.0000000000000000e+00 0.0000000000000000e+00  0.0000000000000000e+00 0.0000000000000000e+00 0.0000000000000000e+00  0.0000000000000000e+00 0.0000000000000000e+00 0.0000000000000000e+00  0.0000000000000000e+00 0.0000000000000000e+00 0.0000000000000000e+00  0.0000000000000000e+00 0.0000000000000000e+00 0.0000000000000000e+00  0.0000000000000000e+00 0.0000000000000000e+00 0.0000000000000000e+00  0.0000000000000000e+00 0.0000000000000000e+00 0.0000000000000000e+00  0.0000000000000000e+00 0.0000000000000000e+00 0.0000000000000000e+00  0.0000000000000000e+00 0.0000000000000000e+00 0.0000000000000000e+00  0.0000000000000000e+00 0.0000000000000000e+00 0.0000000000000000e+00  0.0000000000000000e+00 0.0000000000000000e+00 0.0000000000000000e+00  0.0000000000000000e+00 0.0000000000000000e+00 0.0000000000000000e+00  0.0000000000000000e+00 0.0000000000000000e+00 0.0000000000000000e+00  0.0000000000000000e+00 0.0000000000000000e+00 0.0000000000000000e+00  0.0000000000000000e+00 0.0000000000000000e+00 0.0000000000000000e+00  0.0000000000000000e+00 0.0000000000000000e+00 0.0000000000000000e+00  0.0000000000000000e+00 0.0000000000000000e+00 0.0000000000000000e+00  0.0000000000000000e+00 0.0000000000000000e+00 0.0000000000000000e+00  0.0000000000000000e+00 0.0000000000000000e+00 0.0000000000000000e+00  0.0000000000000000e+00 0.0000000000000000e+00 0.0000000000000000e+00  0.0000000000000000e+00 0.0000000000000000e+00 0.0000000000000000e+00  0.0000000000000000e+00 0.0000000000000000e+00 0.0000000000000000e+00  0.0000000000000000e+00 0.0000000000000000e+00 0.0000000000000000e+00  0.0000000000000000e+00 0.0000000000000000e+00 0.0000000000000000e+00  -1.5968745681363275e+01 0.0000000000000000e+00 0.0000000000000000e+00  -1.5918007579362353e+01 -5.5945347923621841e-06 0.0000000000000000e+00  -1.5903177073205953e+01 -5.5003024328235074e-03 0.0000000000000000e+00  -1.5899926216982061e+01 -5.4708124774553073e-03 0.0000000000000000e+00  -1.5898617240990758e+01 -5.2959964273426802e-03 0.0000000000000000e+00  -1.5897781467842460e+01 -5.2112920696556287e-03 0.0000000000000000e+00  -1.5897056477573006e+01 -5.1784166444957831e-03 0.0000000000000000e+00  -1.5896393783194993e+01 -5.1496732344363198e-03 0.0000000000000000e+00  -1.5895822658988196e+01 -5.1082202632820569e-03 0.0000000000000000e+00  -1.5895370124746734e+01 -5.0587479160929347e-03 0.0000000000000000e+00  -1.5895038189276715e+01 -5.0109925980298970e-03 0.0000000000000000e+00  -1.5894809281233163e+01 -4.9716572247881265e-03 0.0000000000000000e+00  -1.5894658278888173e+01 -4.9426980456049102e-03 0.0000000000000000e+00  -1.5894561202336565e+01 -4.9231132241957052e-03 0.0000000000000000e+00  -1.5894499164509879e+01 -4.9106055064912345e-03 0.0000000000000000e+00  -1.5894459000828718e+01 -4.9028888580653187e-03 0.0000000000000000e+00  -1.5894432293263883e+01 -4.8981508127711876e-03 0.0000000000000000e+00  -1.5894413959727878e+01 -4.8951860650985977e-03 0.0000000000000000e+00  -1.5894401016268532e+01 -4.8932524493511898e-03 0.0000000000000000e+00  -1.5894391697168336e+01 -4.8919353696268682e-03 0.0000000000000000e+00  -1.5894384910076793e+01 -4.8910049733023224e-03 0.0000000000000000e+00  -1.5894379932229475e+01 -4.8903370469121224e-03 0.0000000000000000e+00  -1.5894376254370448e+01 -4.8898564920034100e-03 0.0000000000000000e+00  -1.5894373504385294e+01 -4.8895143916968548e-03 0.0000000000000000e+00  -1.5894371408307260e+01 -4.8892740040581200e-03 0.0000000000000000e+00  -1.5894369767257281e+01 -4.8891073031478837e-03 0.0000000000000000e+00  -1.5894368440520459e+01 -4.8889922825509826e-03 0.0000000000000000e+00  -1.5894367331967860e+01 -4.8889123219208420e-03 0.0000000000000000e+00  -1.5894366378435754e+01 -4.8888552123315067e-03 0.0000000000000000e+00  -1.5894365540003490e+01 -4.8888125046357622e-03 0.0000000000000000e+00  -1.5894364791979989e+01 -4.8887787582027296e-03 0.0000000000000000e+00  -1.5894364119055421e+01 -4.8887506457442210e-03 0.0000000000000000e+00  -1.5894363511400240e+01 -4.8887262439203730e-03 0.0000000000000000e+00  -1.5894362962386150e+01 -4.8887044111501849e-03 0.0000000000000000e+00  -1.5894362467320795e+01 -4.8886844490699626e-03 0.0000000000000000e+00  -1.5894362022858523e+01 -4.8886658448016847e-03 0.0000000000000000e+00  -1.5894361626571202e+01 -4.8886482366457184e-03 0.0000000000000000e+00  -1.5894361276477797e+01 -4.8886314807663886e-03 0.0000000000000000e+00  -1.5894360970376422e+01 -4.8886156128182395e-03 0.0000000000000000e+00  -1.5894360705686799e+01 -4.8886008207644372e-03 0.0000000000000000e+00  -1.5894360479297369e+01 -4.8885870843621169e-03 0.0000000000000000e+00  -1.5894360288285993e+01 -4.8885745998082800e-03 0.0000000000000000e+00  -1.5894360128926882e+01 -4.8885631126479000e-03 0.0000000000000000e+00  -1.5894359998008435e+01 -4.8885534510816689e-03 0.0000000000000000e+00  -1.5894359889708008e+01 -4.8885447572355172e-03 0.0000000000000000e+00  -1.5894359801366502e+01 -4.8885390302952064e-03 0.0000000000000000e+00  -1.5894359724804310e+01 -4.8885326227246168e-03 0.0000000000000000e+00  -1.5894359663160925e+01 -4.8885311329197306e-03 0.0000000000000000e+00  -1.5894359602656412e+01 -4.8885241395668503e-03 0.0000000000000000e+00  -1.5894359559530152e+01 -4.8885287697446773e-03 0.0000000000000000e+00  -1.5894359500533499e+01 -4.8885165747131849e-03 0.0000000000000000e+00  -1.5894359472787317e+01 -4.8885342463177474e-03 0.0000000000000000e+00  -1.5894359395207298e+01 -4.8885062847113022e-03 0.0000000000000000e+00  -1.5894359390979035e+01 -4.8885514368601033e-03 0.0000000000000000e+00  -1.5894359270463770e+01 -4.8884833734176864e-03 0.0000000000000000e+00  -1.5894359323867347e+01 -4.8885862334603911e-03 0.0000000000000000e+00  -1.5894359125516155e+01 -4.8884316075670110e-03 0.0000000000000000e+00  -1.5894359304439586e+01 -4.8886527564306718e-03 0.0000000000000000e+00  -1.5894358962208274e+01 -4.8883309794343051e-03 0.0000000000000000e+00  -1.5894359368642917e+01 -4.8887745306961175e-03 0.0000000000000000e+00  -1.5894358778622882e+01 -4.8881661168257923e-03 0.0000000000000000e+00  -1.5894359498198330e+01 -4.8889624235011666e-03 0.0000000000000000e+00  -1.5894358657527919e+01 -4.8879591320614268e-03 0.0000000000000000e+00  -1.5894359568603681e+01 -4.8889894157337866e-03 0.0000000000000000e+00  -1.5894359672901764e+01 -4.8875354559745360e-03 0.0000000000000000e+00  -1.5894360506179860e+01 -4.8869394475236612e-03 0.0000000000000000e+00  -1.5894365856487619e+01 -4.8861565328392805e-03 0.0000000000000000e+00  -1.5894351902561533e+01 -4.8835252662624215e-03 0.0000000000000000e+00  -1.5894314787779853e+01 -4.9167813123813624e-03 0.0000000000000000e+00  -1.5894073171172339e+01 -4.9730491856293914e-03 0.0000000000000000e+00  -1.5893597692197881e+01 -5.1886343057896064e-03 0.0000000000000000e+00  -1.5892436469184226e+01 -5.3132130114671291e-03 0.0000000000000000e+00  -1.5890981068267969e+01 -5.6146498655361126e-03 0.0000000000000000e+00  -1.5887991903847803e+01 -5.4656388471066722e-03 0.0000000000000000e+00  -1.5885910166236700e+01 -5.6093130934141951e-03 0.0000000000000000e+00  -1.5884186536938024e+01 -3.6623401316108984e-03 0.0000000000000000e+00  -1.5887044370392509e+01 -4.5450721578933866e-03 0.0000000000000000e+00  -1.5887243503994318e+01 -5.0293982414317661e-03 0.0000000000000000e+00  -1.5885246724507033e+01 -1.9740050699463094e-02 0.0000000000000000e+00  -1.5892320274907508e+01 -6.0389895178644896e-02 0.0000000000000000e+00  -1.5841866675366983e+01 0.0000000000000000e+00 0.0000000000000000e+00  -2.3940458771292008e+01 0.0000000000000000e+00 0.0000000000000000e+00  -2.3947864019142543e+01 -4.0549674008472491e-03 0.0000000000000000e+00  -2.3947759947943617e+01 -1.4909490268747976e-04 0.0000000000000000e+00  -2.3946984825654603e+01 1.0932733551203544e-03 0.0000000000000000e+00  -2.3946510445641959e+01 1.5566859877321709e-03 0.0000000000000000e+00  -2.3946110111342602e+01 1.7086289185222340e-03 0.0000000000000000e+00  -2.3945759134089094e+01 1.7839488002444708e-03 0.0000000000000000e+00  -2.3945486812587983e+01 1.8789416337171901e-03 0.0000000000000000e+00  -2.3945312967439857e+01 2.0026674172831634e-03 0.0000000000000000e+00  -2.3945221343285795e+01 2.1278899162189583e-03 0.0000000000000000e+00  -2.3945179751531199e+01 2.2338582178181429e-03 0.0000000000000000e+00  -2.3945161994723012e+01 2.3132554158562654e-03 0.0000000000000000e+00  -2.3945153196139668e+01 2.3681599257773496e-03 0.0000000000000000e+00  -2.3945147057779366e+01 2.4038588714576782e-03 0.0000000000000000e+00  -2.3945141617292979e+01 2.4262655720456564e-03 0.0000000000000000e+00  -2.3945136652764486e+01 2.4401095410115851e-03 0.0000000000000000e+00  -2.3945132325270333e+01 2.4487891810224594e-03 0.0000000000000000e+00  -2.3945128765564629e+01 2.4543886868949819e-03 0.0000000000000000e+00  -2.3945125951918421e+01 2.4581611703192651e-03 0.0000000000000000e+00  -2.3945123775043825e+01 2.4607857148866018e-03 0.0000000000000000e+00  -2.3945122081714679e+01 2.4626567509575185e-03 0.0000000000000000e+00  -2.3945120729194642e+01 2.4639941397070369e-03 0.0000000000000000e+00  -2.3945119599014255e+01 2.4649469632871132e-03 0.0000000000000000e+00  -2.3945118608406435e+01 2.4656159591753672e-03 0.0000000000000000e+00  -2.3945117702597191e+01 2.4660811466354089e-03 0.0000000000000000e+00  -2.3945116850077270e+01 2.4664014538383025e-03 0.0000000000000000e+00  -2.3945116033841959e+01 2.4666234746915719e-03 0.0000000000000000e+00  -2.3945115247752941e+01 2.4667808137536222e-03 0.0000000000000000e+00  -2.3945114491814657e+01 2.4668979768956208e-03 0.0000000000000000e+00  -2.3945113769301084e+01 2.4669906447582386e-03 0.0000000000000000e+00  -2.3945113083697802e+01 2.4670685323208582e-03 0.0000000000000000e+00  -2.3945112437854259e+01 2.4671370923952489e-03 0.0000000000000000e+00  -2.3945111833863510e+01 2.4671995652761889e-03 0.0000000000000000e+00  -2.3945111273568500e+01 2.4672578636150328e-03 0.0000000000000000e+00  -2.3945110758802258e+01 2.4673133210876873e-03 0.0000000000000000e+00  -2.3945110291538434e+01 2.4673669075081853e-03 0.0000000000000000e+00  -2.3945109873553609e+01 2.4674190598794818e-03 0.0000000000000000e+00  -2.3945109505414873e+01 2.4674694702819444e-03 0.0000000000000000e+00  -2.3945109185970473e+01 2.4675172709451407e-03 0.0000000000000000e+00  -2.3945108912285065e+01 2.4675618513472436e-03 0.0000000000000000e+00  -2.3945108681275343e+01 2.4676028711341645e-03 0.0000000000000000e+00  -2.3945108488789380e+01 2.4676403745035155e-03 0.0000000000000000e+00  -2.3945108331272365e+01 2.4676733022128972e-03 0.0000000000000000e+00  -2.3945108200946720e+01 2.4677013768396776e-03 0.0000000000000000e+00  -2.3945108093737772e+01 2.4677227516834320e-03 0.0000000000000000e+00  -2.3945107997966435e+01 2.4677401764989261e-03 0.0000000000000000e+00  -2.3945107917974081e+01 2.4677509400389160e-03 0.0000000000000000e+00  -2.3945107836035792e+01 2.4677630180925275e-03 0.0000000000000000e+00  -2.3945107774545754e+01 2.4677651666891961e-03 0.0000000000000000e+00  -2.3945107690238775e+01 2.4677765045054111e-03 0.0000000000000000e+00  -2.3945107643471768e+01 2.4677647572597769e-03 0.0000000000000000e+00  -2.3945107531122876e+01 2.4677826173570656e-03 0.0000000000000000e+00  -2.3945107505689460e+01 2.4677484613011545e-03 0.0000000000000000e+00  -2.3945107340317492e+01 2.4677950303143661e-03 0.0000000000000000e+00  -2.3945107373923630e+01 2.4677221759065908e-03 0.0000000000000000e+00  -2.3945107136294634e+01 2.4678365563022622e-03 0.0000000000000000e+00  -2.3945107289402458e+01 2.4676834260916975e-03 0.0000000000000000e+00  -2.3945106959759354e+01 2.4679240957180592e-03 0.0000000000000000e+00  -2.3945107272347578e+01 2.4676162649065721e-03 0.0000000000000000e+00  -2.3945106885160161e+01 2.4680604993256514e-03 0.0000000000000000e+00  -2.3945107235884517e+01 2.4675138869239641e-03 0.0000000000000000e+00  -2.3945107151528404e+01 2.4681888548699093e-03 0.0000000000000000e+00  -2.3945106679646251e+01 2.4674758306963856e-03 0.0000000000000000e+00  -2.3945108350906363e+01 2.4681580175378239e-03 0.0000000000000000e+00  -2.3945103173682419e+01 2.4682043901291832e-03 0.0000000000000000e+00  -2.3945108132579950e+01 2.4667473320982014e-03 0.0000000000000000e+00  -2.3945076859614804e+01 2.4639710280203952e-03 0.0000000000000000e+00  -2.3945055994561969e+01 2.4250330358319755e-03 0.0000000000000000e+00  -2.3944876456058399e+01 2.3342044479484603e-03 0.0000000000000000e+00  -2.3944647983046956e+01 2.0431886895093338e-03 0.0000000000000000e+00  -2.3943906802378322e+01 1.5984723257379918e-03 0.0000000000000000e+00  -2.3942814071464191e+01 7.3530012572095636e-04 0.0000000000000000e+00  -2.3939766537976233e+01 -3.2388747352891706e-04 0.0000000000000000e+00  -2.3936064291060525e+01 -1.4733974757449202e-03 0.0000000000000000e+00  -2.3932035761530621e+01 3.2581164939840995e-04 0.0000000000000000e+00  -2.3932411938930894e+01 2.9370699777953148e-03 0.0000000000000000e+00  -2.3929681945300057e+01 4.9748045904527199e-03 0.0000000000000000e+00  -2.3935849734177204e+01 7.7925570802871817e-03 0.0000000000000000e+00  -2.3937218145243239e+01 7.7249925756395210e-04 0.0000000000000000e+00  -2.3972782059112809e+01 3.1738775901445852e-02 0.0000000000000000e+00  -2.3939585133372081e+01 0.0000000000000000e+00 0.0000000000000000e+00  -2.4105547576813322e+01 0.0000000000000000e+00 0.0000000000000000e+00  -2.4117278991499536e+01 -2.7080049466109693e-03 0.0000000000000000e+00  -2.4122384458585746e+01 -1.1282594334215267e-03 0.0000000000000000e+00  -2.4124296774651757e+01 -1.4982205965730907e-04 0.0000000000000000e+00  -2.4125251115623449e+01 2.1387937016630439e-04 0.0000000000000000e+00  -2.4125945518512033e+01 3.4044069177494187e-04 0.0000000000000000e+00  -2.4126559579047012e+01 4.1878075876707158e-04 0.0000000000000000e+00  -2.4127109987128655e+01 5.2576696492107001e-04 0.0000000000000000e+00  -2.4127570438483207e+01 6.5153988700352718e-04 0.0000000000000000e+00  -2.4127923839535214e+01 7.6343971070215433e-04 0.0000000000000000e+00  -2.4128175587365035e+01 8.4809290756456858e-04 0.0000000000000000e+00  -2.4128345193339939e+01 9.0638737649874790e-04 0.0000000000000000e+00  -2.4128455466798588e+01 9.4453462221867721e-04 0.0000000000000000e+00  -2.4128525983774107e+01 9.6862944775578583e-04 0.0000000000000000e+00  -2.4128571167225104e+01 9.8372195125457913e-04 0.0000000000000000e+00  -2.4128600606042092e+01 9.9322376974008688e-04 0.0000000000000000e+00  -2.4128620285649411e+01 9.9937916159474529e-04 0.0000000000000000e+00  -2.4128633769958977e+01 1.0034813697954112e-03 0.0000000000000000e+00  -2.4128643170974374e+01 1.0063134374205147e-03 0.0000000000000000e+00  -2.4128649762128600e+01 1.0083030878764781e-03 0.0000000000000000e+00  -2.4128654361993462e+01 1.0097179144201839e-03 0.0000000000000000e+00  -2.4128657525709055e+01 1.0107160587500355e-03 0.0000000000000000e+00  -2.4128659654153402e+01 1.0114149682611344e-03 0.0000000000000000e+00  -2.4128661041254038e+01 1.0118965934586225e-03 0.0000000000000000e+00  -2.4128661905014649e+01 1.0122265635562734e-03 0.0000000000000000e+00  -2.4128662402471015e+01 1.0124516979064038e-03 0.0000000000000000e+00  -2.4128662645615286e+01 1.0126089532149975e-03 0.0000000000000000e+00  -2.4128662712810833e+01 1.0127248023015364e-03 0.0000000000000000e+00  -2.4128662659706595e+01 1.0128182962246713e-03 0.0000000000000000e+00  -2.4128662525361332e+01 1.0129004283131590e-03 0.0000000000000000e+00  -2.4128662337219339e+01 1.0129770568115982e-03 0.0000000000000000e+00  -2.4128662114533618e+01 1.0130509693379779e-03 0.0000000000000000e+00  -2.4128661871733133e+01 1.0131238917891487e-03 0.0000000000000000e+00  -2.4128661620307934e+01 1.0131968887586108e-03 0.0000000000000000e+00  -2.4128661369937898e+01 1.0132708142095883e-03 0.0000000000000000e+00  -2.4128661128945573e+01 1.0133462094635047e-03 0.0000000000000000e+00  -2.4128660904163439e+01 1.0134226722822673e-03 0.0000000000000000e+00  -2.41