<?xml version="1.0"?>
<VTKFile type="UnstructuredGrid"  version="0.1"  >
<UnstructuredGrid>
<Piece  NumberOfPoints="1369" NumberOfCells="2560">
<Points>
<DataArray  type="Float64"  NumberOfComponents="3"  format="ascii">0 0 0  0.75 0 0  1.5 0 0  2.25 0 0  3 0 0  3.75 0 0  4.5 0 0  5.25 0 0  6 0 0  6.75 0 0  7.5 0 0  8.25 0 0  9 0 0  9.75 0 0  10.5 0 0  11.25 0 0  12 0 0  12.75 0 0  13.5 0 0  14.25 0 0  15 0 0  15.75 0 0  16.5 0 0  17.25 0 0  18 0 0  18.75 0 0  19.5 0 0  20.25 0 0  21 0 0  21.75 0 0  22.5 0 0  23.25 0 0  24 0 0  24.75 0 0  25.5 0 0  26.25 0 0  27 0 0  27.75 0 0  28.5 0 0  29.25 0 0  30 0 0  30.75 0 0  31.5 0 0  32.25 0 0  33 0 0  33.75 0 0  34.5 0 0  35.25 0 0  36 0 0  36.75 0 0  37.5 0 0  38.25 0 0  39 0 0  39.75 0 0  40.5 0 0  41.25 0 0  42 0 0  42.75 0 0  43.5 0 0  44.25 0 0  45 0 0  45.75 0 0  46.5 0 0  47.25 0 0  48 0 0  48.75 0 0  49.5 0 0  50.25 0 0  51 0 0  51.75 0 0  52.5 0 0  53.25 0 0  54 0 0  54.75 0 0  55.5 0 0  56.25 0 0  57 0 0  57.75 0 0  58.5 0 0  59.25 0 0  60 0 0  0 0.5 0  0.75 0.5 0  1.5 0.5 0  2.25 0.5 0  3 0.5 0  3.75 0.5 0  4.5 0.5 0  5.25 0.5 0  6 0.5 0  6.75 0.5 0  7.5 0.5 0  8.25 0.5 0  9 0.5 0  9.75 0.5 0  10.5 0.5 0  11.25 0.5 0  12 0.5 0  12.75 0.5 0  13.5 0.5 0  14.25 0.5 0  15 0.5 0  15.75 0.5 0  16.5 0.5 0  17.25 0.5 0  18 0.5 0  18.75 0.5 0  19.5 0.5 0  20.25 0.5 0  21 0.5 0  21.75 0.5 0  22.5 0.5 0  23.25 0.5 0  24 0.5 0  24.75 0.5 0  25.5 0.5 0  26.25 0.5 0  27 0.5 0  27.75 0.5 0  28.5 0.5 0  29.25 0.5 0  30 0.5 0  30.75 0.5 0  31.5 0.5 0  32.25 0.5 0  33 0.5 0  33.75 0.5 0  34.5 0.5 0  35.25 0.5 0  36 0.5 0  36.75 0.5 0  37.5 0.5 0  38.25 0.5 0  39 0.5 0  39.75 0.5 0  40.5 0.5 0  41.25 0.5 0  42 0.5 0  42.75 0.5 0  43.5 0.5 0  44.25 0.5 0  45 0.5 0  45.75 0.5 0  46.5 0.5 0  47.25 0.5 0  48 0.5 0  48.75 0.5 0  49.5 0.5 0  50.25 0.5 0  51 0.5 0  51.75 0.5 0  52.5 0.5 0  53.25 0.5 0  54 0.5 0  54.75 0.5 0  55.5 0.5 0  56.25 0.5 0  57 0.5 0  57.75 0.5 0  58.5 0.5 0  59.25 0.5 0  60 0.5 0  0 1 0  0.75 1 0  1.5 1 0  2.25 1 0  3 1 0  3.75 1 0  4.5 1 0  5.25 1 0  6 1 0  6.75 1 0  7.5 1 0  8.25 1 0  9 1 0  9.75 1 0  10.5 1 0  11.25 1 0  12 1 0  12.75 1 0  13.5 1 0  14.25 1 0  15 1 0  15.75 1 0  16.5 1 0  17.25 1 0  18 1 0  18.75 1 0  19.5 1 0  20.25 1 0  21 1 0  21.75 1 0  22.5 1 0  23.25 1 0  24 1 0  24.75 1 0  25.5 1 0  26.25 1 0  27 1 0  27.75 1 0  28.5 1 0  29.25 1 0  30 1 0  30.75 1 0  31.5 1 0  32.25 1 0  33 1 0  33.75 1 0  34.5 1 0  35.25 1 0  36 1 0  36.75 1 0  37.5 1 0  38.25 1 0  39 1 0  39.75 1 0  40.5 1 0  41.25 1 0  42 1 0  42.75 1 0  43.5 1 0  44.25 1 0  45 1 0  45.75 1 0  46.5 1 0  47.25 1 0  48 1 0  48.75 1 0  49.5 1 0  50.25 1 0  51 1 0  51.75 1 0  52.5 1 0  53.25 1 0  54 1 0  54.75 1 0  55.5 1 0  56.25 1 0  57 1 0  57.75 1 0  58.5 1 0  59.25 1 0  60 1 0  0 1.5 0  0.75 1.5 0  1.5 1.5 0  2.25 1.5 0  3 1.5 0  3.75 1.5 0  4.5 1.5 0  5.25 1.5 0  6 1.5 0  6.75 1.5 0  7.5 1.5 0  8.25 1.5 0  9 1.5 0  9.75 1.5 0  10.5 1.5 0  11.25 1.5 0  12 1.5 0  12.75 1.5 0  13.5 1.5 0  14.25 1.5 0  15 1.5 0  15.75 1.5 0  16.5 1.5 0  17.25 1.5 0  18 1.5 0  18.75 1.5 0  19.5 1.5 0  20.25 1.5 0  21 1.5 0  21.75 1.5 0  22.5 1.5 0  23.25 1.5 0  24 1.5 0  24.75 1.5 0  25.5 1.5 0  26.25 1.5 0  27 1.5 0  27.75 1.5 0  28.5 1.5 0  29.25 1.5 0  30 1.5 0  30.75 1.5 0  31.5 1.5 0  32.25 1.5 0  33 1.5 0  33.75 1.5 0  34.5 1.5 0  35.25 1.5 0  36 1.5 0  36.75 1.5 0  37.5 1.5 0  38.25 1.5 0  39 1.5 0  39.75 1.5 0  40.5 1.5 0  41.25 1.5 0  42 1.5 0  42.75 1.5 0  43.5 1.5 0  44.25 1.5 0  45 1.5 0  45.75 1.5 0  46.5 1.5 0  47.25 1.5 0  48 1.5 0  48.75 1.5 0  49.5 1.5 0  50.25 1.5 0  51 1.5 0  51.75 1.5 0  52.5 1.5 0  53.25 1.5 0  54 1.5 0  54.75 1.5 0  55.5 1.5 0  56.25 1.5 0  57 1.5 0  57.75 1.5 0  58.5 1.5 0  59.25 1.5 0  60 1.5 0  0 2 0  0.75 2 0  1.5 2 0  2.25 2 0  3 2 0  3.75 2 0  4.5 2 0  5.25 2 0  6 2 0  6.75 2 0  7.5 2 0  8.25 2 0  9 2 0  9.75 2 0  10.5 2 0  11.25 2 0  12 2 0  12.75 2 0  13.5 2 0  14.25 2 0  15 2 0  15.75 2 0  16.5 2 0  17.25 2 0  18 2 0  18.75 2 0  19.5 2 0  20.25 2 0  21 2 0  21.75 2 0  22.5 2 0  23.25 2 0  24 2 0  24.75 2 0  25.5 2 0  26.25 2 0  27 2 0  27.75 2 0  28.5 2 0  29.25 2 0  30 2 0  30.75 2 0  31.5 2 0  32.25 2 0  33 2 0  33.75 2 0  34.5 2 0  35.25 2 0  36 2 0  36.75 2 0  37.5 2 0  38.25 2 0  39 2 0  39.75 2 0  40.5 2 0  41.25 2 0  42 2 0  42.75 2 0  43.5 2 0  44.25 2 0  45 2 0  45.75 2 0  46.5 2 0  47.25 2 0  48 2 0  48.75 2 0  49.5 2 0  50.25 2 0  51 2 0  51.75 2 0  52.5 2 0  53.25 2 0  54 2 0  54.75 2 0  55.5 2 0  56.25 2 0  57 2 0  57.75 2 0  58.5 2 0  59.25 2 0  60 2 0  0 2.5 0  0.75 2.5 0  1.5 2.5 0  2.25 2.5 0  3 2.5 0  3.75 2.5 0  4.5 2.5 0  5.25 2.5 0  6 2.5 0  6.75 2.5 0  7.5 2.5 0  8.25 2.5 0  9 2.5 0  9.75 2.5 0  10.5 2.5 0  11.25 2.5 0  12 2.5 0  12.75 2.5 0  13.5 2.5 0  14.25 2.5 0  15 2.5 0  15.75 2.5 0  16.5 2.5 0  17.25 2.5 0  18 2.5 0  18.75 2.5 0  19.5 2.5 0  20.25 2.5 0  21 2.5 0  21.75 2.5 0  22.5 2.5 0  23.25 2.5 0  24 2.5 0  24.75 2.5 0  25.5 2.5 0  26.25 2.5 0  27 2.5 0  27.75 2.5 0  28.5 2.5 0  29.25 2.5 0  30 2.5 0  30.75 2.5 0  31.5 2.5 0  32.25 2.5 0  33 2.5 0  33.75 2.5 0  34.5 2.5 0  35.25 2.5 0  36 2.5 0  36.75 2.5 0  37.5 2.5 0  38.25 2.5 0  39 2.5 0  39.75 2.5 0  40.5 2.5 0  41.25 2.5 0  42 2.5 0  42.75 2.5 0  43.5 2.5 0  44.25 2.5 0  45 2.5 0  45.75 2.5 0  46.5 2.5 0  47.25 2.5 0  48 2.5 0  48.75 2.5 0  49.5 2.5 0  50.25 2.5 0  51 2.5 0  51.75 2.5 0  52.5 2.5 0  53.25 2.5 0  54 2.5 0  54.75 2.5 0  55.5 2.5 0  56.25 2.5 0  57 2.5 0  57.75 2.5 0  58.5 2.5 0  59.25 2.5 0  60 2.5 0  0 3 0  0.75 3 0  1.5 3 0  2.25 3 0  3 3 0  3.75 3 0  4.5 3 0  5.25 3 0  6 3 0  6.75 3 0  7.5 3 0  8.25 3 0  9 3 0  9.75 3 0  10.5 3 0  11.25 3 0  12 3 0  12.75 3 0  13.5 3 0  14.25 3 0  15 3 0  15.75 3 0  16.5 3 0  17.25 3 0  18 3 0  18.75 3 0  19.5 3 0  20.25 3 0  21 3 0  21.75 3 0  22.5 3 0  23.25 3 0  24 3 0  24.75 3 0  25.5 3 0  26.25 3 0  27 3 0  27.75 3 0  28.5 3 0  29.25 3 0  30 3 0  30.75 3 0  31.5 3 0  32.25 3 0  33 3 0  33.75 3 0  34.5 3 0  35.25 3 0  36 3 0  36.75 3 0  37.5 3 0  38.25 3 0  39 3 0  39.75 3 0  40.5 3 0  41.25 3 0  42 3 0  42.75 3 0  43.5 3 0  44.25 3 0  45 3 0  45.75 3 0  46.5 3 0  47.25 3 0  48 3 0  48.75 3 0  49.5 3 0  50.25 3 0  51 3 0  51.75 3 0  52.5 3 0  53.25 3 0  54 3 0  54.75 3 0  55.5 3 0  56.25 3 0  57 3 0  57.75 3 0  58.5 3 0  59.25 3 0  60 3 0  0 3.5 0  0.75 3.5 0  1.5 3.5 0  2.25 3.5 0  3 3.5 0  3.75 3.5 0  4.5 3.5 0  5.25 3.5 0  6 3.5 0  6.75 3.5 0  7.5 3.5 0  8.25 3.5 0  9 3.5 0  9.75 3.5 0  10.5 3.5 0  11.25 3.5 0  12 3.5 0  12.75 3.5 0  13.5 3.5 0  14.25 3.5 0  15 3.5 0  15.75 3.5 0  16.5 3.5 0  17.25 3.5 0  18 3.5 0  18.75 3.5 0  19.5 3.5 0  20.25 3.5 0  21 3.5 0  21.75 3.5 0  22.5 3.5 0  23.25 3.5 0  24 3.5 0  24.75 3.5 0  25.5 3.5 0  26.25 3.5 0  27 3.5 0  27.75 3.5 0  28.5 3.5 0  29.25 3.5 0  30 3.5 0  30.75 3.5 0  31.5 3.5 0  32.25 3.5 0  33 3.5 0  33.75 3.5 0  34.5 3.5 0  35.25 3.5 0  36 3.5 0  36.75 3.5 0  37.5 3.5 0  38.25 3.5 0  39 3.5 0  39.75 3.5 0  40.5 3.5 0  41.25 3.5 0  42 3.5 0  42.75 3.5 0  43.5 3.5 0  44.25 3.5 0  45 3.5 0  45.75 3.5 0  46.5 3.5 0  47.25 3.5 0  48 3.5 0  48.75 3.5 0  49.5 3.5 0  50.25 3.5 0  51 3.5 0  51.75 3.5 0  52.5 3.5 0  53.25 3.5 0  54 3.5 0  54.75 3.5 0  55.5 3.5 0  56.25 3.5 0  57 3.5 0  57.75 3.5 0  58.5 3.5 0  59.25 3.5 0  60 3.5 0  0 4 0  0.75 4 0  1.5 4 0  2.25 4 0  3 4 0  3.75 4 0  4.5 4 0  5.25 4 0  6 4 0  6.75 4 0  7.5 4 0  8.25 4 0  9 4 0  9.75 4 0  10.5 4 0  11.25 4 0  12 4 0  12.75 4 0  13.5 4 0  14.25 4 0  15 4 0  15.75 4 0  16.5 4 0  17.25 4 0  18 4 0  18.75 4 0  19.5 4 0  20.25 4 0  21 4 0  21.75 4 0  22.5 4 0  23.25 4 0  24 4 0  24.75 4 0  25.5 4 0  26.25 4 0  27 4 0  27.75 4 0  28.5 4 0  29.25 4 0  30 4 0  30.75 4 0  31.5 4 0  32.25 4 0  33 4 0  33.75 4 0  34.5 4 0  35.25 4 0  36 4 0  36.75 4 0  37.5 4 0  38.25 4 0  39 4 0  39.75 4 0  40.5 4 0  41.25 4 0  42 4 0  42.75 4 0  43.5 4 0  44.25 4 0  45 4 0  45.75 4 0  46.5 4 0  47.25 4 0  48 4 0  48.75 4 0  49.5 4 0  50.25 4 0  51 4 0  51.75 4 0  52.5 4 0  53.25 4 0  54 4 0  54.75 4 0  55.5 4 0  56.25 4 0  57 4 0  57.75 4 0  58.5 4 0  59.25 4 0  60 4 0  0.375 0.25 0  1.125 0.25 0  1.875 0.25 0  2.625 0.25 0  3.375 0.25 0  4.125 0.25 0  4.875 0.25 0  5.625 0.25 0  6.375 0.25 0  7.125 0.25 0  7.875 0.25 0  8.625 0.25 0  9.375 0.25 0  10.125 0.25 0  10.875 0.25 0  11.625 0.25 0  12.375 0.25 0  13.125 0.25 0  13.875 0.25 0  14.625 0.25 0  15.375 0.25 0  16.125 0.25 0  16.875 0.25 0  17.625 0.25 0  18.375 0.25 0  19.125 0.25 0  19.875 0.25 0  20.625 0.25 0  21.375 0.25 0  22.125 0.25 0  22.875 0.25 0  23.625 0.25 0  24.375 0.25 0  25.125 0.25 0  25.875 0.25 0  26.625 0.25 0  27.375 0.25 0  28.125 0.25 0  28.875 0.25 0  29.625 0.25 0  30.375 0.25 0  31.125 0.25 0  31.875 0.25 0  32.625 0.25 0  33.375 0.25 0  34.125 0.25 0  34.875 0.25 0  35.625 0.25 0  36.375 0.25 0  37.125 0.25 0  37.875 0.25 0  38.625 0.25 0  39.375 0.25 0  40.125 0.25 0  40.875 0.25 0  41.625 0.25 0  42.375 0.25 0  43.125 0.25 0  43.875 0.25 0  44.625 0.25 0  45.375 0.25 0  46.125 0.25 0  46.875 0.25 0  47.625 0.25 0  48.375 0.25 0  49.125 0.25 0  49.875 0.25 0  50.625 0.25 0  51.375 0.25 0  52.125 0.25 0  52.875 0.25 0  53.625 0.25 0  54.375 0.25 0  55.125 0.25 0  55.875 0.25 0  56.625 0.25 0  57.375 0.25 0  58.125 0.25 0  58.875 0.25 0  59.625 0.25 0  0.375 0.75 0  1.125 0.75 0  1.875 0.75 0  2.625 0.75 0  3.375 0.75 0  4.125 0.75 0  4.875 0.75 0  5.625 0.75 0  6.375 0.75 0  7.125 0.75 0  7.875 0.75 0  8.625 0.75 0  9.375 0.75 0  10.125 0.75 0  10.875 0.75 0  11.625 0.75 0  12.375 0.75 0  13.125 0.75 0  13.875 0.75 0  14.625 0.75 0  15.375 0.75 0  16.125 0.75 0  16.875 0.75 0  17.625 0.75 0  18.375 0.75 0  19.125 0.75 0  19.875 0.75 0  20.625 0.75 0  21.375 0.75 0  22.125 0.75 0  22.875 0.75 0  23.625 0.75 0  24.375 0.75 0  25.125 0.75 0  25.875 0.75 0  26.625 0.75 0  27.375 0.75 0  28.125 0.75 0  28.875 0.75 0  29.625 0.75 0  30.375 0.75 0  31.125 0.75 0  31.875 0.75 0  32.625 0.75 0  33.375 0.75 0  34.125 0.75 0  34.875 0.75 0  35.625 0.75 0  36.375 0.75 0  37.125 0.75 0  37.875 0.75 0  38.625 0.75 0  39.375 0.75 0  40.125 0.75 0  40
[...]
<PointData  Vectors="f_8-0"> 
<DataArray  type="Float64"  Name="f_8-0"  NumberOfComponents="3" format="ascii">0.0000000000000000e+00 0.0000000000000000e+00 0.0000000000000000e+00  0.0000000000000000e+00 0.0000000000000000e+00 0.0000000000000000e+00  0.0000000000000000e+00 0.0000000000000000e+00 0.0000000000000000e+00  0.0000000000000000e+00 0.0000000000000000e+00 0.0000000000000000e+00  0.0000000000000000e+00 0.0000000000000000e+00 0.0000000000000000e+00  0.0000000000000000e+00 0.0000000000000000e+00 0.0000000000000000e+00  0.0000000000000000e+00 0.0000000000000000e+00 0.0000000000000000e+00  0.0000000000000000e+00 0.0000000000000000e+00 0.0000000000000000e+00  0.0000000000000000e+00 0.0000000000000000e+00 0.0000000000000000e+00  0.0000000000000000e+00 0.0000000000000000e+00 0.0000000000000000e+00  0.0000000000000000e+00 0.0000000000000000e+00 0.0000000000000000e+00  0.0000000000000000e+00 0.0000000000000000e+00 0.0000000000000000e+00  0.0000000000000000e+00 0.0000000000000000e+00 0.0000000000000000e+00  0.0000000000000000e+00 0.0000000000000000e+00 0.0000000000000000e+00  0.0000000000000000e+00 0.0000000000000000e+00 0.0000000000000000e+00  0.0000000000000000e+00 0.0000000000000000e+00 0.0000000000000000e+00  0.0000000000000000e+00 0.0000000000000000e+00 0.0000000000000000e+00  0.0000000000000000e+00 0.0000000000000000e+00 0.0000000000000000e+00  0.0000000000000000e+00 0.0000000000000000e+00 0.0000000000000000e+00  0.0000000000000000e+00 0.0000000000000000e+00 0.0000000000000000e+00  0.0000000000000000e+00 0.0000000000000000e+00 0.0000000000000000e+00  0.0000000000000000e+00 0.0000000000000000e+00 0.0000000000000000e+00  0.0000000000000000e+00 0.0000000000000000e+00 0.0000000000000000e+00  0.0000000000000000e+00 0.0000000000000000e+00 0.0000000000000000e+00  0.0000000000000000e+00 0.0000000000000000e+00 0.0000000000000000e+00  0.0000000000000000e+00 0.0000000000000000e+00 0.0000000000000000e+00  0.0000000000000000e+00 0.0000000000000000e+00 0.0000000000000000e+00  0.0000000000000000e+00 0.0000000000000000e+00 0.0000000000000000e+00  0.0000000000000000e+00 0.0000000000000000e+00 0.0000000000000000e+00  0.0000000000000000e+00 0.0000000000000000e+00 0.0000000000000000e+00  0.0000000000000000e+00 0.0000000000000000e+00 0.0000000000000000e+00  0.0000000000000000e+00 0.0000000000000000e+00 0.0000000000000000e+00  0.0000000000000000e+00 0.0000000000000000e+00 0.0000000000000000e+00  0.0000000000000000e+00 0.0000000000000000e+00 0.0000000000000000e+00  0.0000000000000000e+00 0.0000000000000000e+00 0.0000000000000000e+00  0.0000000000000000e+00 0.0000000000000000e+00 0.0000000000000000e+00  0.0000000000000000e+00 0.0000000000000000e+00 0.0000000000000000e+00  0.0000000000000000e+00 0.0000000000000000e+00 0.0000000000000000e+00  0.0000000000000000e+00 0.0000000000000000e+00 0.0000000000000000e+00  0.0000000000000000e+00 0.0000000000000000e+00 0.0000000000000000e+00  0.0000000000000000e+00 0.0000000000000000e+00 0.0000000000000000e+00  0.0000000000000000e+00 0.0000000000000000e+00 0.0000000000000000e+00  0.0000000000000000e+00 0.0000000000000000e+00 0.0000000000000000e+00  0.0000000000000000e+00 0.0000000000000000e+00 0.0000000000000000e+00  0.0000000000000000e+00 0.0000000000000000e+00 0.0000000000000000e+00  0.0000000000000000e+00 0.0000000000000000e+00 0.0000000000000000e+00  0.0000000000000000e+00 0.0000000000000000e+00 0.0000000000000000e+00  0.0000000000000000e+00 0.0000000000000000e+00 0.0000000000000000e+00  0.0000000000000000e+00 0.0000000000000000e+00 0.0000000000000000e+00  0.0000000000000000e+00 0.0000000000000000e+00 0.0000000000000000e+00  0.0000000000000000e+00 0.0000000000000000e+00 0.0000000000000000e+00  0.0000000000000000e+00 0.0000000000000000e+00 0.0000000000000000e+00  0.0000000000000000e+00 0.0000000000000000e+00 0.0000000000000000e+00  0.0000000000000000e+00 0.0000000000000000e+00 0.0000000000000000e+00  0.0000000000000000e+00 0.0000000000000000e+00 0.0000000000000000e+00  0.0000000000000000e+00 0.0000000000000000e+00 0.0000000000000000e+00  0.0000000000000000e+00 0.0000000000000000e+00 0.0000000000000000e+00  0.0000000000000000e+00 0.0000000000000000e+00 0.0000000000000000e+00  0.0000000000000000e+00 0.0000000000000000e+00 0.0000000000000000e+00  0.0000000000000000e+00 0.0000000000000000e+00 0.0000000000000000e+00  0.0000000000000000e+00 0.0000000000000000e+00 0.0000000000000000e+00  0.0000000000000000e+00 0.0000000000000000e+00 0.0000000000000000e+00  0.0000000000000000e+00 0.0000000000000000e+00 0.0000000000000000e+00  0.0000000000000000e+00 0.0000000000000000e+00 0.0000000000000000e+00  0.0000000000000000e+00 0.0000000000000000e+00 0.0000000000000000e+00  0.0000000000000000e+00 0.0000000000000000e+00 0.0000000000000000e+00  0.0000000000000000e+00 0.0000000000000000e+00 0.0000000000000000e+00  0.0000000000000000e+00 0.0000000000000000e+00 0.0000000000000000e+00  0.0000000000000000e+00 0.0000000000000000e+00 0.0000000000000000e+00  0.0000000000000000e+00 0.0000000000000000e+00 0.0000000000000000e+00  0.0000000000000000e+00 0.0000000000000000e+00 0.0000000000000000e+00  0.0000000000000000e+00 0.0000000000000000e+00 0.0000000000000000e+00  0.0000000000000000e+00 0.0000000000000000e+00 0.0000000000000000e+00  0.0000000000000000e+00 0.0000000000000000e+00 0.0000000000000000e+00  0.0000000000000000e+00 0.0000000000000000e+00 0.0000000000000000e+00  0.0000000000000000e+00 0.0000000000000000e+00 0.0000000000000000e+00  0.0000000000000000e+00 0.0000000000000000e+00 0.0000000000000000e+00  0.0000000000000000e+00 0.0000000000000000e+00 0.0000000000000000e+00  0.0000000000000000e+00 0.0000000000000000e+00 0.0000000000000000e+00  0.0000000000000000e+00 0.0000000000000000e+00 0.0000000000000000e+00  0.0000000000000000e+00 0.0000000000000000e+00 0.0000000000000000e+00  -7.3474276932832980e+00 0.0000000000000000e+00 0.0000000000000000e+00  -7.4083108786705276e+00 -1.5923184030142607e-02 0.0000000000000000e+00  -7.4272144256151398e+00 2.9089773906171260e-03 0.0000000000000000e+00  -7.4389257768866068e+00 4.8238475660131617e-03 0.0000000000000000e+00  -7.4504768008608391e+00 4.7276879818407783e-03 0.0000000000000000e+00  -7.4591281374251119e+00 3.3754059122151005e-03 0.0000000000000000e+00  -7.4640376032374585e+00 1.8608558405673330e-03 0.0000000000000000e+00  -7.4660772692829527e+00 7.4862654002836161e-04 0.0000000000000000e+00  -7.4659150002953139e+00 5.5099219001733070e-06 0.0000000000000000e+00  -7.4645821384343662e+00 -3.9024739089312942e-04 0.0000000000000000e+00  -7.4624112035783918e+00 -6.4151708777864024e-04 0.0000000000000000e+00  -7.4599523129078626e+00 -6.3681127544490933e-04 0.0000000000000000e+00  -7.4577612505677795e+00 -4.3070326885076538e-04 0.0000000000000000e+00  -7.4562311736268256e+00 -1.4964763127483605e-04 0.0000000000000000e+00  -7.4553292939432261e+00 7.0053322404238074e-05 0.0000000000000000e+00  -7.4548804988180137e+00 2.0667945111518937e-04 0.0000000000000000e+00  -7.4546779892486494e+00 2.7275832530746679e-04 0.0000000000000000e+00  -7.4545974749032577e+00 3.0230134155447268e-04 0.0000000000000000e+00  -7.4545650668886703e+00 3.1282651792289461e-04 0.0000000000000000e+00  -7.4545531366129296e+00 3.1720994149744738e-04 0.0000000000000000e+00  -7.4545476635853625e+00 3.1851340552812137e-04 0.0000000000000000e+00  -7.4545455978836559e+00 3.1932717748534727e-04 0.0000000000000000e+00  -7.4545444856005849e+00 3.1954860334656196e-04 0.0000000000000000e+00  -7.4545442129837678e+00 3.1978152893477455e-04 0.0000000000000000e+00  -7.4545441307447868e+00 3.1982649654824978e-04 0.0000000000000000e+00  -7.4545442972802496e+00 3.1989999057292941e-04 0.0000000000000000e+00  -7.4545444985407245e+00 3.1990506061254471e-04 0.0000000000000000e+00  -7.4545447724972815e+00 3.1992859036415527e-04 0.0000000000000000e+00  -7.4545450503998776e+00 3.1992705944970548e-04 0.0000000000000000e+00  -7.4545453479128412e+00 3.1993471820862947e-04 0.0000000000000000e+00  -7.4545456457837869e+00 3.1993346231896171e-04 0.0000000000000000e+00  -7.4545459477333722e+00 3.1993590766001353e-04 0.0000000000000000e+00  -7.4545462503956053e+00 3.1993550610463382e-04 0.0000000000000000e+00  -7.4545465530216903e+00 3.1993624013158968e-04 0.0000000000000000e+00  -7.4545468565493822e+00 3.1993630046226850e-04 0.0000000000000000e+00  -7.4545471592890538e+00 3.1993651742141550e-04 0.0000000000000000e+00  -7.4545474627708721e+00 3.1993673569493932e-04 0.0000000000000000e+00  -7.4545477655830306e+00 3.1993683312895633e-04 0.0000000000000000e+00  -7.4545480688874468e+00 3.1993707715709837e-04 0.0000000000000000e+00  -7.4545483717666254e+00 3.1993717223683998e-04 0.0000000000000000e+00  -7.4545486749291561e+00 3.1993739987871533e-04 0.0000000000000000e+00  -7.4545489778617702e+00 3.1993752005862557e-04 0.0000000000000000e+00  -7.4545492809415288e+00 3.1993772582777631e-04 0.0000000000000000e+00  -7.4545495839067533e+00 3.1993786741490239e-04 0.0000000000000000e+00  -7.4545498869474995e+00 3.1993805690343837e-04 0.0000000000000000e+00  -7.4545501899347562e+00 3.1993821348918523e-04 0.0000000000000000e+00  -7.4545504929567548e+00 3.1993839529962715e-04 0.0000000000000000e+00  -7.4545507959620805e+00 3.1993856109146276e-04 0.0000000000000000e+00  -7.4545510989883761e+00 3.1993873979981117e-04 0.0000000000000000e+00  -7.4545514020198080e+00 3.1993891230155567e-04 0.0000000000000000e+00  -7.4545517050738734e+00 3.1993909365676186e-04 0.0000000000000000e+00  -7.4545520081538701e+00 3.1993927389167929e-04 0.0000000000000000e+00  -7.4545523112715255e+00 3.1993946185909122e-04 0.0000000000000000e+00  -7.4545526144388035e+00 3.1993965573850889e-04 0.0000000000000000e+00  -7.4545529176750147e+00 3.1993985881899540e-04 0.0000000000000000e+00  -7.4545532209959644e+00 3.1994006828278389e-04 0.0000000000000000e+00  -7.4545535244137335e+00 3.1994027937447413e-04 0.0000000000000000e+00  -7.4545538279015418e+00 3.1994047654935516e-04 0.0000000000000000e+00  -7.4545541313745165e+00 3.1994062218325663e-04 0.0000000000000000e+00  -7.4545544345556456e+00 3.1994061672755060e-04 0.0000000000000000e+00  -7.4545547367799525e+00 3.1994025586844568e-04 0.0000000000000000e+00  -7.4545550365217723e+00 3.1993907524070531e-04 0.0000000000000000e+00  -7.4545553304052241e+00 3.1993612708921594e-04 0.0000000000000000e+00  -7.4545556113242579e+00 3.1992941220755991e-04 0.0000000000000000e+00  -7.4545558642903433e+00 3.1991487228188867e-04 0.0000000000000000e+00  -7.4545560587799420e+00 3.1988429258924270e-04 0.0000000000000000e+00  -7.4545561325586744e+00 3.1982125403472400e-04 0.0000000000000000e+00  -7.4545559616507626e+00 3.1969336550577833e-04 0.0000000000000000e+00  -7.4545552987205577e+00 3.1943671490651532e-04 0.0000000000000000e+00  -7.4545536602598643e+00 3.1892795266367412e-04 0.0000000000000000e+00  -7.4545500781524856e+00 3.1791755938016353e-04 0.0000000000000000e+00  -7.4545427274414848e+00 3.1595982161662233e-04 0.0000000000000000e+00  -7.4545274862239204e+00 3.1190215839126725e-04 0.0000000000000000e+00  -7.4544985408707598e+00 3.0504634051274035e-04 0.0000000000000000e+00  -7.4544298207230195e+00 2.8481766600864681e-04 0.0000000000000000e+00  -7.4543379651229129e+00 2.8329384138266271e-04 0.0000000000000000e+00  -7.4538946792772807e+00 7.6562297423240906e-05 0.0000000000000000e+00  -7.4541280679029622e+00 7.7033217765016474e-04 0.0000000000000000e+00  -7.4492185020313126e+00 -2.8233475065597589e-03 0.0000000000000000e+00  -7.4585314901182436e+00 1.4592168366127324e-02 0.0000000000000000e+00  -7.4321497099546754e+00 0.0000000000000000e+00 0.0000000000000000e+00  -5.2980193430631739e-01 0.0000000000000000e+00 0.0000000000000000e+00  -5.3261642676060117e-01 1.2298263161091050e-02 0.0000000000000000e+00  -5.4057065836897211e-01 9.2524831966212980e-03 0.0000000000000000e+00  -5.4288709559276926e-01 1.1263196491004143e-02 0.0000000000000000e+00  -5.4507277941431054e-01 8.9930637168276952e-03 0.0000000000000000e+00  -5.4541498023129265e-01 5.7295729656052057e-03 0.0000000000000000e+00  -5.4606523349470015e-01 2.6964457933072129e-03 0.0000000000000000e+00  -5.4615050946591326e-01 2.2968635550447636e-04 0.0000000000000000e+00  -5.4613056448888575e-01 -1.3372716613253570e-03 0.0000000000000000e+00  -5.4564315218950032e-01 -2.2529360331986822e-03 0.0000000000000000e+00  -5.4499919608371228e-01 -2.8899661068594608e-03 0.0000000000000000e+00  -5.4380102630382043e-01 -3.1372162848965148e-03 0.0000000000000000e+00  -5.4232841469781079e-01 -2.7234299270977010e-03 0.0000000000000000e+00  -5.4097169358753083e-01 -2.0244993644645457e-03 0.0000000000000000e+00  -5.4004746791198721e-01 -1.3984018385601300e-03 0.0000000000000000e+00  -5.3950216323979883e-01 -1.0005093329772149e-03 0.0000000000000000e+00  -5.3923382318713142e-01 -7.8779751156277209e-04 0.0000000000000000e+00  -5.3910741503328918e-01 -6.9352386268109142e-04 0.0000000000000000e+00  -5.3905721157274322e-01 -6.5382688042450743e-04 0.0000000000000000e+00  -5.3903522891187261e-01 -6.3956630817687209e-04 0.0000000000000000e+00  -5.3902776425596188e-01 -6.3348561191428068e-04 0.0000000000000000e+00  -5.3902395747744536e-01 -6.3137640152650433e-04 0.0000000000000000e+00  -5.3902298547313043e-01 -6.3012380569188258e-04 0.0000000000000000e+00  -5.3902232984307030e-01 -6.2969561423639731e-04 0.0000000000000000e+00  -5.3902242835017355e-01 -6.2934954636764532e-04 0.0000000000000000e+00  -5.3902249408042557e-01 -6.2925699500273637e-04 0.0000000000000000e+00  -5.3902279945852360e-01 -6.2915656127907169e-04 0.0000000000000000e+00  -5.3902306020234314e-01 -6.2914137710610725e-04 0.0000000000000000e+00  -5.3902339844192326e-01 -6.2911247190360119e-04 0.0000000000000000e+00  -5.3902371277572458e-01 -6.2911209083244023e-04 0.0000000000000000e+00  -5.3902405035174517e-01 -6.2910412743503086e-04 0.0000000000000000e+00  -5.3902437870162201e-01 -6.2910517467949843e-04 0.0000000000000000e+00  -5.3902471241386452e-01 -6.2910333689244233e-04 0.0000000000000000e+00  -5.3902504380797411e-01 -6.2910386594361564e-04 0.0000000000000000e+00  -5.3902537524991057e-01 -6.2910372885218943e-04 0.0000000000000000e+00  -5.3902570682838713e-01 -6.2910386440152670e-04 0.0000000000000000e+00  -5.3902603733571164e-01 -6.2910411181824109e-04 0.0000000000000000e+00  -5.3902636851763097e-01 -6.2910411014717752e-04 0.0000000000000000e+00  -5.3902669873534448e-01 -6.2910437257015822e-04 0.0000000000000000e+00  -5.3902702954070791e-01 -6.2910435955075008e-04 0.0000000000000000e+00  -5.3902735970895577e-01 -6.2910456239577959e-04 0.0000000000000000e+00  -5.3902769025885844e-01 -6.2910457389123511e-04 0.0000000000000000e+00  -5.3902802044647091e-01 -6.2910472171039458e-04 0.0000000000000000e+00  -5.3902835084756850e-01 -6.2910475772136527e-04 0.0000000000000000e+00  -5.3902868106480062e-01 -6.2910486626160229e-04 0.0000000000000000e+00  -5.3902901138901149e-01 -6.2910491937853436e-04 0.0000000000000000e+00  -5.3902934162723481e-01 -6.2910500700407996e-04 0.0000000000000000e+00  -5.3902967192099327e-01 -6.2910506387308448e-04 0.0000000000000000e+00  -5.3903000218082719e-01 -6.2910513449630551e-04 0.0000000000000000e+00  -5.3903033247253429e-01 -6.2910518725183093e-04 0.0000000000000000e+00  -5.3903066276512535e-01 -6.2910524048598142e-04 0.0000000000000000e+00  -5.3903099308977398e-01 -6.2910527675581469e-04 0.0000000000000000e+00  -5.3903132344332161e-01 -6.2910530416838549e-04 0.0000000000000000e+00  -5.3903165385115948e-01 -6.2910531106909098e-04 0.0000000000000000e+00  -5.3903198432805188e-01 -6.2910529933690295e-04 0.0000000000000000e+00  -5.3903231490660208e-01 -6.2910525988848413e-04 0.0000000000000000e+00  -5.3903264562479747e-01 -6.2910521449426472e-04 0.0000000000000000e+00  -5.3903297652969850e-01 -6.2910517533424303e-04 0.0000000000000000e+00  -5.3903330766969038e-01 -6.2910526392777940e-04 0.0000000000000000e+00  -5.3903363908171420e-01 -6.2910564157960176e-04 0.0000000000000000e+00  -5.3903397073173687e-01 -6.2910686766567590e-04 0.0000000000000000e+00  -5.3903430242280104e-01 -6.2910985818148712e-04 0.0000000000000000e+00  -5.3903463352286662e-01 -6.2911701311645085e-04 0.0000000000000000e+00  -5.3903496248266047e-01 -6.2913259584465662e-04 0.0000000000000000e+00  -5.3903528572339199e-01 -6.2916643174936815e-04 0.0000000000000000e+00  -5.3903559554596991e-01 -6.2923662595844787e-04 0.0000000000000000e+00  -5.3903587578098144e-01 -6.2938190845613501e-04 0.0000000000000000e+00  -5.3903609349245651e-01 -6.2967477310809923e-04 0.0000000000000000e+00  -5.3903618239582363e-01 -6.3026334274009102e-04 0.0000000000000000e+00  -5.3903601028947823e-01 -6.3142987819395297e-04 0.0000000000000000e+00  -5.3903531328618848e-01 -6.3374083760640648e-04 0.0000000000000000e+00  -5.3903356272421221e-01 -6.3833210212864715e-04 0.0000000000000000e+00  -5.3902967930603141e-01 -6.4740701889204355e-04 0.0000000000000000e+00  -5.3902128513662317e-01 -6.6643268934445663e-04 0.0000000000000000e+00  -5.3900346746857286e-01 -7.0254914219126680e-04 0.0000000000000000e+00  -5.3895996003698021e-01 -7.9748796609641461e-04 0.0000000000000000e+00  -5.3888282683762856e-01 -8.9936055711394914e-04 0.0000000000000000e+00  -5.3849511455796883e-01 -1.5875124562434713e-03 0.0000000000000000e+00  -5.3852934414812947e-01 -5.6387973380657159e-04 0.0000000000000000e+00  -5.2940054670865011e-01 -8.8021583196460952e-03 0.0000000000000000e+00  -5.3838062036000933e-01 0.0000000000000000e+00 0.0000000000000000e+00  2.7764688468429526e+00 0.0000000000000000e+00 0.0000000000000000e+00  2.7824669813370537e+00 4.6601028647185591e-03 0.0000000000000000e+00  2.7939863970296361e+00 7.0100937558296656e-03 0.0000000000000000e+00  2.8071607832623298e+00 6.6359107558077056e-03 0.0000000000000000e+00  2.8195093945181320e+00 5.9613885970340201e-03 0.0000000000000000e+00  2.8274233388750507e+00 4.2257374632864823e-03 0.0000000000000000e+00  2.8324784267737293e+00 2.4082472104978493e-03 0.0000000000000000e+00  2.8343006828061417e+00 1.0015534321333910e-03 0.0000000000000000e+00  2.8344472212268261e+00 -1.9377094352673836e-04 0.0000000000000000e+00  2.8332680329539808e+00 -7.8605791665319405e-04 0.0000000000000000e+00  2.8315389766441501e+00 -1.3582358013405230e-03 0.0000000000000000e+00  2.8292987870600363e+00 -1.8011778981511242e-03 0.0000000000000000e+00  2.8272888916841215e+00 -1.6753961305573011e-03 0.0000000000000000e+00  2.8258310618675417e+00 -1.0787383004004774e-03 0.0000000000000000e+00  2.8250113822331193e+00 -4.5792760497610524e-04 0.0000000000000000e+00  2.8245951461436731e+00 -1.2624521557599829e-05 0.0000000000000000e+00  2.8244230784719075e+00 2.3550616892174301e-04 0.0000000000000000e+00  2.8243496760405904e+00 3.5809464038816995e-04 0.0000000000000000e+00  2.8243251843837127e+00 4.0982049080501238e-04 0.0000000000000000e+00  2.8243128278331184e+00 4.3154813778713665e-04 0.0000000000000000e+00  2.8243088202297559e+00 4.3944100546061920e-04 0.0000000000000000e+00  2.8243054337428024e+00 4.4302546512977329e-04 0.0000000000000000e+00  2.8243042666674980e+00 4.4429977931464303e-04 0.0000000000000000e+00  2.8243029373988815e+00 4.4507673854294629e-04 0.0000000000000000e+00  2.8243024107049957e+00 4.4533196484443182e-04 0.0000000000000000e+00  2.8243017438626254e+00 4.4553673758469407e-04 0.0000000000000000e+00  2.8243013794522120e+00 4.4558522705739483e-04 0.0000000000000000e+00  2.8243009343478200e+00 4.4564021129240037e-04 0.0000000000000000e+00  2.8243006051628710e+00 4.4564507172391895e-04 0.0000000000000000e+00  2.8243002374919586e+00 4.4565900609815366e-04 0.0000000000000000e+00  2.8242999139337575e+00 4.4565716478447054e-04 0.0000000000000000e+00  2.8242995749588062e+00 4.4566004557663520e-04 0.0000000000000000e+00  2.8242992517377439e+00 4.4565850214868009e-04 0.0000000000000000e+00  2.8242989237141543e+00 4.4565861951385860e-04 0.0000000000000000e+00  2.8242986005252089e+00 4.4565793053121417e-04 0.0000000000000000e+00  2.8242982766227400e+00 4.4565752989401112e-04 0.0000000000000000e+00  2.8242979536934159e+00 4.4565731007960356e-04 0.0000000000000000e+00  2.8242976312606634e+00 4.4565694395972988