<?xml version="1.0"?>
<VTKFile type="UnstructuredGrid"  version="0.1"  >
<UnstructuredGrid>
<Piece  NumberOfPoints="1369" NumberOfCells="2560">
<Points>
<DataArray  type="Float64"  NumberOfComponents="3"  format="ascii">0 0 0  0.75 0 0  1.5 0 0  2.25 0 0  3 0 0  3.75 0 0  4.5 0 0  5.25 0 0  6 0 0  6.75 0 0  7.5 0 0  8.25 0 0  9 0 0  9.75 0 0  10.5 0 0  11.25 0 0  12 0 0  12.75 0 0  13.5 0 0  14.25 0 0  15 0 0  15.75 0 0  16.5 0 0  17.25 0 0  18 0 0  18.75 0 0  19.5 0 0  20.25 0 0  21 0 0  21.75 0 0  22.5 0 0  23.25 0 0  24 0 0  24.75 0 0  25.5 0 0  26.25 0 0  27 0 0  27.75 0 0  28.5 0 0  29.25 0 0  30 0 0  30.75 0 0  31.5 0 0  32.25 0 0  33 0 0  33.75 0 0  34.5 0 0  35.25 0 0  36 0 0  36.75 0 0  37.5 0 0  38.25 0 0  39 0 0  39.75 0 0  40.5 0 0  41.25 0 0  42 0 0  42.75 0 0  43.5 0 0  44.25 0 0  45 0 0  45.75 0 0  46.5 0 0  47.25 0 0  48 0 0  48.75 0 0  49.5 0 0  50.25 0 0  51 0 0  51.75 0 0  52.5 0 0  53.25 0 0  54 0 0  54.75 0 0  55.5 0 0  56.25 0 0  57 0 0  57.75 0 0  58.5 0 0  59.25 0 0  60 0 0  0 0.5 0  0.75 0.5 0  1.5 0.5 0  2.25 0.5 0  3 0.5 0  3.75 0.5 0  4.5 0.5 0  5.25 0.5 0  6 0.5 0  6.75 0.5 0  7.5 0.5 0  8.25 0.5 0  9 0.5 0  9.75 0.5 0  10.5 0.5 0  11.25 0.5 0  12 0.5 0  12.75 0.5 0  13.5 0.5 0  14.25 0.5 0  15 0.5 0  15.75 0.5 0  16.5 0.5 0  17.25 0.5 0  18 0.5 0  18.75 0.5 0  19.5 0.5 0  20.25 0.5 0  21 0.5 0  21.75 0.5 0  22.5 0.5 0  23.25 0.5 0  24 0.5 0  24.75 0.5 0  25.5 0.5 0  26.25 0.5 0  27 0.5 0  27.75 0.5 0  28.5 0.5 0  29.25 0.5 0  30 0.5 0  30.75 0.5 0  31.5 0.5 0  32.25 0.5 0  33 0.5 0  33.75 0.5 0  34.5 0.5 0  35.25 0.5 0  36 0.5 0  36.75 0.5 0  37.5 0.5 0  38.25 0.5 0  39 0.5 0  39.75 0.5 0  40.5 0.5 0  41.25 0.5 0  42 0.5 0  42.75 0.5 0  43.5 0.5 0  44.25 0.5 0  45 0.5 0  45.75 0.5 0  46.5 0.5 0  47.25 0.5 0  48 0.5 0  48.75 0.5 0  49.5 0.5 0  50.25 0.5 0  51 0.5 0  51.75 0.5 0  52.5 0.5 0  53.25 0.5 0  54 0.5 0  54.75 0.5 0  55.5 0.5 0  56.25 0.5 0  57 0.5 0  57.75 0.5 0  58.5 0.5 0  59.25 0.5 0  60 0.5 0  0 1 0  0.75 1 0  1.5 1 0  2.25 1 0  3 1 0  3.75 1 0  4.5 1 0  5.25 1 0  6 1 0  6.75 1 0  7.5 1 0  8.25 1 0  9 1 0  9.75 1 0  10.5 1 0  11.25 1 0  12 1 0  12.75 1 0  13.5 1 0  14.25 1 0  15 1 0  15.75 1 0  16.5 1 0  17.25 1 0  18 1 0  18.75 1 0  19.5 1 0  20.25 1 0  21 1 0  21.75 1 0  22.5 1 0  23.25 1 0  24 1 0  24.75 1 0  25.5 1 0  26.25 1 0  27 1 0  27.75 1 0  28.5 1 0  29.25 1 0  30 1 0  30.75 1 0  31.5 1 0  32.25 1 0  33 1 0  33.75 1 0  34.5 1 0  35.25 1 0  36 1 0  36.75 1 0  37.5 1 0  38.25 1 0  39 1 0  39.75 1 0  40.5 1 0  41.25 1 0  42 1 0  42.75 1 0  43.5 1 0  44.25 1 0  45 1 0  45.75 1 0  46.5 1 0  47.25 1 0  48 1 0  48.75 1 0  49.5 1 0  50.25 1 0  51 1 0  51.75 1 0  52.5 1 0  53.25 1 0  54 1 0  54.75 1 0  55.5 1 0  56.25 1 0  57 1 0  57.75 1 0  58.5 1 0  59.25 1 0  60 1 0  0 1.5 0  0.75 1.5 0  1.5 1.5 0  2.25 1.5 0  3 1.5 0  3.75 1.5 0  4.5 1.5 0  5.25 1.5 0  6 1.5 0  6.75 1.5 0  7.5 1.5 0  8.25 1.5 0  9 1.5 0  9.75 1.5 0  10.5 1.5 0  11.25 1.5 0  12 1.5 0  12.75 1.5 0  13.5 1.5 0  14.25 1.5 0  15 1.5 0  15.75 1.5 0  16.5 1.5 0  17.25 1.5 0  18 1.5 0  18.75 1.5 0  19.5 1.5 0  20.25 1.5 0  21 1.5 0  21.75 1.5 0  22.5 1.5 0  23.25 1.5 0  24 1.5 0  24.75 1.5 0  25.5 1.5 0  26.25 1.5 0  27 1.5 0  27.75 1.5 0  28.5 1.5 0  29.25 1.5 0  30 1.5 0  30.75 1.5 0  31.5 1.5 0  32.25 1.5 0  33 1.5 0  33.75 1.5 0  34.5 1.5 0  35.25 1.5 0  36 1.5 0  36.75 1.5 0  37.5 1.5 0  38.25 1.5 0  39 1.5 0  39.75 1.5 0  40.5 1.5 0  41.25 1.5 0  42 1.5 0  42.75 1.5 0  43.5 1.5 0  44.25 1.5 0  45 1.5 0  45.75 1.5 0  46.5 1.5 0  47.25 1.5 0  48 1.5 0  48.75 1.5 0  49.5 1.5 0  50.25 1.5 0  51 1.5 0  51.75 1.5 0  52.5 1.5 0  53.25 1.5 0  54 1.5 0  54.75 1.5 0  55.5 1.5 0  56.25 1.5 0  57 1.5 0  57.75 1.5 0  58.5 1.5 0  59.25 1.5 0  60 1.5 0  0 2 0  0.75 2 0  1.5 2 0  2.25 2 0  3 2 0  3.75 2 0  4.5 2 0  5.25 2 0  6 2 0  6.75 2 0  7.5 2 0  8.25 2 0  9 2 0  9.75 2 0  10.5 2 0  11.25 2 0  12 2 0  12.75 2 0  13.5 2 0  14.25 2 0  15 2 0  15.75 2 0  16.5 2 0  17.25 2 0  18 2 0  18.75 2 0  19.5 2 0  20.25 2 0  21 2 0  21.75 2 0  22.5 2 0  23.25 2 0  24 2 0  24.75 2 0  25.5 2 0  26.25 2 0  27 2 0  27.75 2 0  28.5 2 0  29.25 2 0  30 2 0  30.75 2 0  31.5 2 0  32.25 2 0  33 2 0  33.75 2 0  34.5 2 0  35.25 2 0  36 2 0  36.75 2 0  37.5 2 0  38.25 2 0  39 2 0  39.75 2 0  40.5 2 0  41.25 2 0  42 2 0  42.75 2 0  43.5 2 0  44.25 2 0  45 2 0  45.75 2 0  46.5 2 0  47.25 2 0  48 2 0  48.75 2 0  49.5 2 0  50.25 2 0  51 2 0  51.75 2 0  52.5 2 0  53.25 2 0  54 2 0  54.75 2 0  55.5 2 0  56.25 2 0  57 2 0  57.75 2 0  58.5 2 0  59.25 2 0  60 2 0  0 2.5 0  0.75 2.5 0  1.5 2.5 0  2.25 2.5 0  3 2.5 0  3.75 2.5 0  4.5 2.5 0  5.25 2.5 0  6 2.5 0  6.75 2.5 0  7.5 2.5 0  8.25 2.5 0  9 2.5 0  9.75 2.5 0  10.5 2.5 0  11.25 2.5 0  12 2.5 0  12.75 2.5 0  13.5 2.5 0  14.25 2.5 0  15 2.5 0  15.75 2.5 0  16.5 2.5 0  17.25 2.5 0  18 2.5 0  18.75 2.5 0  19.5 2.5 0  20.25 2.5 0  21 2.5 0  21.75 2.5 0  22.5 2.5 0  23.25 2.5 0  24 2.5 0  24.75 2.5 0  25.5 2.5 0  26.25 2.5 0  27 2.5 0  27.75 2.5 0  28.5 2.5 0  29.25 2.5 0  30 2.5 0  30.75 2.5 0  31.5 2.5 0  32.25 2.5 0  33 2.5 0  33.75 2.5 0  34.5 2.5 0  35.25 2.5 0  36 2.5 0  36.75 2.5 0  37.5 2.5 0  38.25 2.5 0  39 2.5 0  39.75 2.5 0  40.5 2.5 0  41.25 2.5 0  42 2.5 0  42.75 2.5 0  43.5 2.5 0  44.25 2.5 0  45 2.5 0  45.75 2.5 0  46.5 2.5 0  47.25 2.5 0  48 2.5 0  48.75 2.5 0  49.5 2.5 0  50.25 2.5 0  51 2.5 0  51.75 2.5 0  52.5 2.5 0  53.25 2.5 0  54 2.5 0  54.75 2.5 0  55.5 2.5 0  56.25 2.5 0  57 2.5 0  57.75 2.5 0  58.5 2.5 0  59.25 2.5 0  60 2.5 0  0 3 0  0.75 3 0  1.5 3 0  2.25 3 0  3 3 0  3.75 3 0  4.5 3 0  5.25 3 0  6 3 0  6.75 3 0  7.5 3 0  8.25 3 0  9 3 0  9.75 3 0  10.5 3 0  11.25 3 0  12 3 0  12.75 3 0  13.5 3 0  14.25 3 0  15 3 0  15.75 3 0  16.5 3 0  17.25 3 0  18 3 0  18.75 3 0  19.5 3 0  20.25 3 0  21 3 0  21.75 3 0  22.5 3 0  23.25 3 0  24 3 0  24.75 3 0  25.5 3 0  26.25 3 0  27 3 0  27.75 3 0  28.5 3 0  29.25 3 0  30 3 0  30.75 3 0  31.5 3 0  32.25 3 0  33 3 0  33.75 3 0  34.5 3 0  35.25 3 0  36 3 0  36.75 3 0  37.5 3 0  38.25 3 0  39 3 0  39.75 3 0  40.5 3 0  41.25 3 0  42 3 0  42.75 3 0  43.5 3 0  44.25 3 0  45 3 0  45.75 3 0  46.5 3 0  47.25 3 0  48 3 0  48.75 3 0  49.5 3 0  50.25 3 0  51 3 0  51.75 3 0  52.5 3 0  53.25 3 0  54 3 0  54.75 3 0  55.5 3 0  56.25 3 0  57 3 0  57.75 3 0  58.5 3 0  59.25 3 0  60 3 0  0 3.5 0  0.75 3.5 0  1.5 3.5 0  2.25 3.5 0  3 3.5 0  3.75 3.5 0  4.5 3.5 0  5.25 3.5 0  6 3.5 0  6.75 3.5 0  7.5 3.5 0  8.25 3.5 0  9 3.5 0  9.75 3.5 0  10.5 3.5 0  11.25 3.5 0  12 3.5 0  12.75 3.5 0  13.5 3.5 0  14.25 3.5 0  15 3.5 0  15.75 3.5 0  16.5 3.5 0  17.25 3.5 0  18 3.5 0  18.75 3.5 0  19.5 3.5 0  20.25 3.5 0  21 3.5 0  21.75 3.5 0  22.5 3.5 0  23.25 3.5 0  24 3.5 0  24.75 3.5 0  25.5 3.5 0  26.25 3.5 0  27 3.5 0  27.75 3.5 0  28.5 3.5 0  29.25 3.5 0  30 3.5 0  30.75 3.5 0  31.5 3.5 0  32.25 3.5 0  33 3.5 0  33.75 3.5 0  34.5 3.5 0  35.25 3.5 0  36 3.5 0  36.75 3.5 0  37.5 3.5 0  38.25 3.5 0  39 3.5 0  39.75 3.5 0  40.5 3.5 0  41.25 3.5 0  42 3.5 0  42.75 3.5 0  43.5 3.5 0  44.25 3.5 0  45 3.5 0  45.75 3.5 0  46.5 3.5 0  47.25 3.5 0  48 3.5 0  48.75 3.5 0  49.5 3.5 0  50.25 3.5 0  51 3.5 0  51.75 3.5 0  52.5 3.5 0  53.25 3.5 0  54 3.5 0  54.75 3.5 0  55.5 3.5 0  56.25 3.5 0  57 3.5 0  57.75 3.5 0  58.5 3.5 0  59.25 3.5 0  60 3.5 0  0 4 0  0.75 4 0  1.5 4 0  2.25 4 0  3 4 0  3.75 4 0  4.5 4 0  5.25 4 0  6 4 0  6.75 4 0  7.5 4 0  8.25 4 0  9 4 0  9.75 4 0  10.5 4 0  11.25 4 0  12 4 0  12.75 4 0  13.5 4 0  14.25 4 0  15 4 0  15.75 4 0  16.5 4 0  17.25 4 0  18 4 0  18.75 4 0  19.5 4 0  20.25 4 0  21 4 0  21.75 4 0  22.5 4 0  23.25 4 0  24 4 0  24.75 4 0  25.5 4 0  26.25 4 0  27 4 0  27.75 4 0  28.5 4 0  29.25 4 0  30 4 0  30.75 4 0  31.5 4 0  32.25 4 0  33 4 0  33.75 4 0  34.5 4 0  35.25 4 0  36 4 0  36.75 4 0  37.5 4 0  38.25 4 0  39 4 0  39.75 4 0  40.5 4 0  41.25 4 0  42 4 0  42.75 4 0  43.5 4 0  44.25 4 0  45 4 0  45.75 4 0  46.5 4 0  47.25 4 0  48 4 0  48.75 4 0  49.5 4 0  50.25 4 0  51 4 0  51.75 4 0  52.5 4 0  53.25 4 0  54 4 0  54.75 4 0  55.5 4 0  56.25 4 0  57 4 0  57.75 4 0  58.5 4 0  59.25 4 0  60 4 0  0.375 0.25 0  1.125 0.25 0  1.875 0.25 0  2.625 0.25 0  3.375 0.25 0  4.125 0.25 0  4.875 0.25 0  5.625 0.25 0  6.375 0.25 0  7.125 0.25 0  7.875 0.25 0  8.625 0.25 0  9.375 0.25 0  10.125 0.25 0  10.875 0.25 0  11.625 0.25 0  12.375 0.25 0  13.125 0.25 0  13.875 0.25 0  14.625 0.25 0  15.375 0.25 0  16.125 0.25 0  16.875 0.25 0  17.625 0.25 0  18.375 0.25 0  19.125 0.25 0  19.875 0.25 0  20.625 0.25 0  21.375 0.25 0  22.125 0.25 0  22.875 0.25 0  23.625 0.25 0  24.375 0.25 0  25.125 0.25 0  25.875 0.25 0  26.625 0.25 0  27.375 0.25 0  28.125 0.25 0  28.875 0.25 0  29.625 0.25 0  30.375 0.25 0  31.125 0.25 0  31.875 0.25 0  32.625 0.25 0  33.375 0.25 0  34.125 0.25 0  34.875 0.25 0  35.625 0.25 0  36.375 0.25 0  37.125 0.25 0  37.875 0.25 0  38.625 0.25 0  39.375 0.25 0  40.125 0.25 0  40.875 0.25 0  41.625 0.25 0  42.375 0.25 0  43.125 0.25 0  43.875 0.25 0  44.625 0.25 0  45.375 0.25 0  46.125 0.25 0  46.875 0.25 0  47.625 0.25 0  48.375 0.25 0  49.125 0.25 0  49.875 0.25 0  50.625 0.25 0  51.375 0.25 0  52.125 0.25 0  52.875 0.25 0  53.625 0.25 0  54.375 0.25 0  55.125 0.25 0  55.875 0.25 0  56.625 0.25 0  57.375 0.25 0  58.125 0.25 0  58.875 0.25 0  59.625 0.25 0  0.375 0.75 0  1.125 0.75 0  1.875 0.75 0  2.625 0.75 0  3.375 0.75 0  4.125 0.75 0  4.875 0.75 0  5.625 0.75 0  6.375 0.75 0  7.125 0.75 0  7.875 0.75 0  8.625 0.75 0  9.375 0.75 0  10.125 0.75 0  10.875 0.75 0  11.625 0.75 0  12.375 0.75 0  13.125 0.75 0  13.875 0.75 0  14.625 0.75 0  15.375 0.75 0  16.125 0.75 0  16.875 0.75 0  17.625 0.75 0  18.375 0.75 0  19.125 0.75 0  19.875 0.75 0  20.625 0.75 0  21.375 0.75 0  22.125 0.75 0  22.875 0.75 0  23.625 0.75 0  24.375 0.75 0  25.125 0.75 0  25.875 0.75 0  26.625 0.75 0  27.375 0.75 0  28.125 0.75 0  28.875 0.75 0  29.625 0.75 0  30.375 0.75 0  31.125 0.75 0  31.875 0.75 0  32.625 0.75 0  33.375 0.75 0  34.125 0.75 0  34.875 0.75 0  35.625 0.75 0  36.375 0.75 0  37.125 0.75 0  37.875 0.75 0  38.625 0.75 0  39.375 0.75 0  40.125 0.75 0  40
[...]
<PointData  Vectors="f_8-0"> 
<DataArray  type="Float64"  Name="f_8-0"  NumberOfComponents="3" format="ascii">0.0000000000000000e+00 0.0000000000000000e+00 0.0000000000000000e+00  0.0000000000000000e+00 0.0000000000000000e+00 0.0000000000000000e+00  0.0000000000000000e+00 0.0000000000000000e+00 0.0000000000000000e+00  0.0000000000000000e+00 0.0000000000000000e+00 0.0000000000000000e+00  0.0000000000000000e+00 0.0000000000000000e+00 0.0000000000000000e+00  0.0000000000000000e+00 0.0000000000000000e+00 0.0000000000000000e+00  0.0000000000000000e+00 0.0000000000000000e+00 0.0000000000000000e+00  0.0000000000000000e+00 0.0000000000000000e+00 0.0000000000000000e+00  0.0000000000000000e+00 0.0000000000000000e+00 0.0000000000000000e+00  0.0000000000000000e+00 0.0000000000000000e+00 0.0000000000000000e+00  0.0000000000000000e+00 0.0000000000000000e+00 0.0000000000000000e+00  0.0000000000000000e+00 0.0000000000000000e+00 0.0000000000000000e+00  0.0000000000000000e+00 0.0000000000000000e+00 0.0000000000000000e+00  0.0000000000000000e+00 0.0000000000000000e+00 0.0000000000000000e+00  0.0000000000000000e+00 0.0000000000000000e+00 0.0000000000000000e+00  0.0000000000000000e+00 0.0000000000000000e+00 0.0000000000000000e+00  0.0000000000000000e+00 0.0000000000000000e+00 0.0000000000000000e+00  0.0000000000000000e+00 0.0000000000000000e+00 0.0000000000000000e+00  0.0000000000000000e+00 0.0000000000000000e+00 0.0000000000000000e+00  0.0000000000000000e+00 0.0000000000000000e+00 0.0000000000000000e+00  0.0000000000000000e+00 0.0000000000000000e+00 0.0000000000000000e+00  0.0000000000000000e+00 0.0000000000000000e+00 0.0000000000000000e+00  0.0000000000000000e+00 0.0000000000000000e+00 0.0000000000000000e+00  0.0000000000000000e+00 0.0000000000000000e+00 0.0000000000000000e+00  0.0000000000000000e+00 0.0000000000000000e+00 0.0000000000000000e+00  0.0000000000000000e+00 0.0000000000000000e+00 0.0000000000000000e+00  0.0000000000000000e+00 0.0000000000000000e+00 0.0000000000000000e+00  0.0000000000000000e+00 0.0000000000000000e+00 0.0000000000000000e+00  0.0000000000000000e+00 0.0000000000000000e+00 0.0000000000000000e+00  0.0000000000000000e+00 0.0000000000000000e+00 0.0000000000000000e+00  0.0000000000000000e+00 0.0000000000000000e+00 0.0000000000000000e+00  0.0000000000000000e+00 0.0000000000000000e+00 0.0000000000000000e+00  0.0000000000000000e+00 0.0000000000000000e+00 0.0000000000000000e+00  0.0000000000000000e+00 0.0000000000000000e+00 0.0000000000000000e+00  0.0000000000000000e+00 0.0000000000000000e+00 0.0000000000000000e+00  0.0000000000000000e+00 0.0000000000000000e+00 0.0000000000000000e+00  0.0000000000000000e+00 0.0000000000000000e+00 0.0000000000000000e+00  0.0000000000000000e+00 0.0000000000000000e+00 0.0000000000000000e+00  0.0000000000000000e+00 0.0000000000000000e+00 0.0000000000000000e+00  0.0000000000000000e+00 0.0000000000000000e+00 0.0000000000000000e+00  0.0000000000000000e+00 0.0000000000000000e+00 0.0000000000000000e+00  0.0000000000000000e+00 0.0000000000000000e+00 0.0000000000000000e+00  0.0000000000000000e+00 0.0000000000000000e+00 0.0000000000000000e+00  0.0000000000000000e+00 0.0000000000000000e+00 0.0000000000000000e+00  0.0000000000000000e+00 0.0000000000000000e+00 0.0000000000000000e+00  0.0000000000000000e+00 0.0000000000000000e+00 0.0000000000000000e+00  0.0000000000000000e+00 0.0000000000000000e+00 0.0000000000000000e+00  0.0000000000000000e+00 0.0000000000000000e+00 0.0000000000000000e+00  0.0000000000000000e+00 0.0000000000000000e+00 0.0000000000000000e+00  0.0000000000000000e+00 0.0000000000000000e+00 0.0000000000000000e+00  0.0000000000000000e+00 0.0000000000000000e+00 0.0000000000000000e+00  0.0000000000000000e+00 0.0000000000000000e+00 0.0000000000000000e+00  0.0000000000000000e+00 0.0000000000000000e+00 0.0000000000000000e+00  0.0000000000000000e+00 0.0000000000000000e+00 0.0000000000000000e+00  0.0000000000000000e+00 0.0000000000000000e+00 0.0000000000000000e+00  0.0000000000000000e+00 0.0000000000000000e+00 0.0000000000000000e+00  0.0000000000000000e+00 0.0000000000000000e+00 0.0000000000000000e+00  0.0000000000000000e+00 0.0000000000000000e+00 0.0000000000000000e+00  0.0000000000000000e+00 0.0000000000000000e+00 0.0000000000000000e+00  0.0000000000000000e+00 0.0000000000000000e+00 0.0000000000000000e+00  0.0000000000000000e+00 0.0000000000000000e+00 0.0000000000000000e+00  0.0000000000000000e+00 0.0000000000000000e+00 0.0000000000000000e+00  0.0000000000000000e+00 0.0000000000000000e+00 0.0000000000000000e+00  0.0000000000000000e+00 0.0000000000000000e+00 0.0000000000000000e+00  0.0000000000000000e+00 0.0000000000000000e+00 0.0000000000000000e+00  0.0000000000000000e+00 0.0000000000000000e+00 0.0000000000000000e+00  0.0000000000000000e+00 0.0000000000000000e+00 0.0000000000000000e+00  0.0000000000000000e+00 0.0000000000000000e+00 0.0000000000000000e+00  0.0000000000000000e+00 0.0000000000000000e+00 0.0000000000000000e+00  0.0000000000000000e+00 0.0000000000000000e+00 0.0000000000000000e+00  0.0000000000000000e+00 0.0000000000000000e+00 0.0000000000000000e+00  0.0000000000000000e+00 0.0000000000000000e+00 0.0000000000000000e+00  0.0000000000000000e+00 0.0000000000000000e+00 0.0000000000000000e+00  0.0000000000000000e+00 0.0000000000000000e+00 0.0000000000000000e+00  0.0000000000000000e+00 0.0000000000000000e+00 0.0000000000000000e+00  0.0000000000000000e+00 0.0000000000000000e+00 0.0000000000000000e+00  0.0000000000000000e+00 0.0000000000000000e+00 0.0000000000000000e+00  0.0000000000000000e+00 0.0000000000000000e+00 0.0000000000000000e+00  0.0000000000000000e+00 0.0000000000000000e+00 0.0000000000000000e+00  0.0000000000000000e+00 0.0000000000000000e+00 0.0000000000000000e+00  0.0000000000000000e+00 0.0000000000000000e+00 0.0000000000000000e+00  -2.3447909077854199e+01 0.0000000000000000e+00 0.0000000000000000e+00  -2.3465800952394943e+01 5.9881308112294598e-03 0.0000000000000000e+00  -2.3484151119876920e+01 8.4669147562369887e-03 0.0000000000000000e+00  -2.3494835675397852e+01 7.6839416705784510e-03 0.0000000000000000e+00  -2.3501490148470648e+01 6.3688447235752373e-03 0.0000000000000000e+00  -2.3505144340307115e+01 5.1901999726118196e-03 0.0000000000000000e+00  -2.3506621707082441e+01 4.3150775252982446e-03 0.0000000000000000e+00  -2.3506679411918036e+01 3.7547162365102814e-03 0.0000000000000000e+00  -2.3505913570501150e+01 3.4310704127697299e-03 0.0000000000000000e+00  -2.3504712934510174e+01 3.2643188230898489e-03 0.0000000000000000e+00  -2.3503304170960188e+01 3.1860179460422469e-03 0.0000000000000000e+00  -2.3501809664177838e+01 3.1552632826185043e-03 0.0000000000000000e+00  -2.3500287422507199e+01 3.1443471669956647e-03 0.0000000000000000e+00  -2.3498778124247444e+01 3.1541253756135414e-03 0.0000000000000000e+00  -2.3497357832066186e+01 3.1985478147369567e-03 0.0000000000000000e+00  -2.3496127104866293e+01 3.2829139429627536e-03 0.0000000000000000e+00  -2.3495159569679810e+01 3.3911907726396238e-03 0.0000000000000000e+00  -2.3494467602163290e+01 3.4992112175510283e-03 0.0000000000000000e+00  -2.3494010990049553e+01 3.5883369563694378e-03 0.0000000000000000e+00  -2.3493726092144176e+01 3.6520344771089936e-03 0.0000000000000000e+00  -2.3493552011282485e+01 3.6925521166233230e-03 0.0000000000000000e+00  -2.3493442772803220e+01 3.7161383699017645e-03 0.0000000000000000e+00  -2.3493368865761500e+01 3.7289646277060642e-03 0.0000000000000000e+00  -2.3493313454099422e+01 3.7357426218718403e-03 0.0000000000000000e+00  -2.3493267961156118e+01 3.7394354411104153e-03 0.0000000000000000e+00  -2.3493228492349321e+01 3.7417571058588651e-03 0.0000000000000000e+00  -2.3493193588096851e+01 3.7435633830363215e-03 0.0000000000000000e+00  -2.3493162852883849e+01 3.7452397198117961e-03 0.0000000000000000e+00  -2.3493136242798123e+01 3.7468917376314676e-03 0.0000000000000000e+00  -2.3493113681545690e+01 3.7485008157976370e-03 0.0000000000000000e+00  -2.3493094924079070e+01 3.7499940141831395e-03 0.0000000000000000e+00  -2.3493079543622212e+01 3.7513070612317022e-03 0.0000000000000000e+00  -2.3493067011049046e+01 3.7524047005224595e-03 0.0000000000000000e+00  -2.3493056779411077e+01 3.7532863510444324e-03 0.0000000000000000e+00  -2.3493048351953497e+01 3.7539738404795287e-03 0.0000000000000000e+00  -2.3493041319017998e+01 3.7545036791420136e-03 0.0000000000000000e+00  -2.3493035376211346e+01 3.7549170592917334e-03 0.0000000000000000e+00  -2.3493030312605079e+01 3.7552490647569233e-03 0.0000000000000000e+00  -2.3493025978590428e+01 3.7555212715781228e-03 0.0000000000000000e+00  -2.3493022256283581e+01 3.7557456391087603e-03 0.0000000000000000e+00  -2.3493019054062945e+01 3.7559335971936031e-03 0.0000000000000000e+00  -2.3493016312854152e+01 3.7560988254478314e-03 0.0000000000000000e+00  -2.3493014000311671e+01 3.7562511717365884e-03 0.0000000000000000e+00  -2.3493012087437897e+01 3.7563910594277270e-03 0.0000000000000000e+00  -2.3493010529345604e+01 3.7565128612718976e-03 0.0000000000000000e+00  -2.3493009269718328e+01 3.7566142207533589e-03 0.0000000000000000e+00  -2.3493008263699977e+01 3.7567014510461348e-03 0.0000000000000000e+00  -2.3493007494455082e+01 3.7567854488601846e-03 0.0000000000000000e+00  -2.3493006965779347e+01 3.7568725667090539e-03 0.0000000000000000e+00  -2.3493006676286129e+01 3.7569591266103110e-03 0.0000000000000000e+00  -2.3493006596966342e+01 3.7570342626335965e-03 0.0000000000000000e+00  -2.3493006669777301e+01 3.7570881801160770e-03 0.0000000000000000e+00  -2.3493006827388069e+01 3.7571191312288027e-03 0.0000000000000000e+00  -2.3493007019091205e+01 3.7571343266058340e-03 0.0000000000000000e+00  -2.3493007225819500e+01 3.7571450996403983e-03 0.0000000000000000e+00  -2.3493007456956587e+01 3.7571603089326007e-03 0.0000000000000000e+00  -2.3493007733334899e+01 3.7571822485149308e-03 0.0000000000000000e+00  -2.3493008069087530e+01 3.7572068234147196e-03 0.0000000000000000e+00  -2.3493008458544207e+01 3.7572269650682113e-03 0.0000000000000000e+00  -2.3493008882583958e+01 3.7572366221497624e-03 0.0000000000000000e+00  -2.3493009299509154e+01 3.7572334909503962e-03 0.0000000000000000e+00  -2.3493009706898427e+01 3.7572191017081411e-03 0.0000000000000000e+00  -2.3493010005118130e+01 3.7571976953504585e-03 0.0000000000000000e+00  -2.3493010405552223e+01 3.7571750922902381e-03 0.0000000000000000e+00  -2.3493010312901859e+01 3.7571508852569063e-03 0.0000000000000000e+00  -2.3493011339056519e+01 3.7571466426593527e-03 0.0000000000000000e+00  -2.3493009320658128e+01 3.7570979444295771e-03 0.0000000000000000e+00  -2.3493014848380916e+01 3.7572085539162260e-03 0.0000000000000000e+00  -2.3493002007562101e+01 3.7568936827650245e-03 0.0000000000000000e+00  -2.3493031467632186e+01 3.7575256340776544e-03 0.0000000000000000e+00  -2.3492967263178674e+01 3.7561151856350936e-03 0.0000000000000000e+00  -2.3493092426780681e+01 3.7552421360138350e-03 0.0000000000000000e+00  -2.3492848703411781e+01 3.7586798916754245e-03 0.0000000000000000e+00  -2.3493206774650101e+01 3.6964569484385945e-03 0.0000000000000000e+00  -2.3492533249224870e+01 3.7814471486239897e-03 0.0000000000000000e+00  -2.3492925166034336e+01 3.0215949286570439e-03 0.0000000000000000e+00  -2.3491876336617505e+01 3.8176192432967178e-03 0.0000000000000000e+00  -2.3496117677970091e+01 6.3627739177544969e-03 0.0000000000000000e+00  -2.3522282840864765e+01 3.2438105896727680e-02 0.0000000000000000e+00  -2.3514841227995994e+01 5.6827306357937521e-02 0.0000000000000000e+00  -2.3515549660113390e+01 0.0000000000000000e+00 0.0000000000000000e+00  -2.2421851442639447e+01 0.0000000000000000e+00 0.0000000000000000e+00  -2.2424776603957042e+01 1.4490335771851624e-02 0.0000000000000000e+00  -2.2427113304022548e+01 1.1397978168873038e-02 0.0000000000000000e+00  -2.2428270233147305e+01 7.6695408730617963e-03 0.0000000000000000e+00  -2.2428159816929828e+01 4.5320703487783543e-03 0.0000000000000000e+00  -2.2427408003817551e+01 2.1724060506021171e-03 0.0000000000000000e+00  -2.2426453522425046e+01 5.8365662507685583e-04 0.0000000000000000e+00  -2.2425514439935345e+01 -3.6171769461061708e-04 0.0000000000000000e+00  -2.2424675194198915e+01 -8.7506230293833579e-04 0.0000000000000000e+00  -2.2423921211549608e+01 -1.1335716008205770e-03 0.0000000000000000e+00  -2.2423206821814222e+01 -1.2537894377424622e-03 0.0000000000000000e+00  -2.2422510946623312e+01 -1.2977674999646066e-03 0.0000000000000000e+00  -2.2421822938498615e+01 -1.3135812054623935e-03 0.0000000000000000e+00  -2.2421122509678263e+01 -1.2825916771060917e-03 0.0000000000000000e+00  -2.2420436328871357e+01 -1.1565002110887827e-03 0.0000000000000000e+00  -2.2419834000400446e+01 -9.2892086755245562e-04 0.0000000000000000e+00  -2.2419372937482819e+01 -6.5247934198380756e-04 0.0000000000000000e+00  -2.2419062008318487e+01 -3.9233937969115424e-04 0.0000000000000000e+00  -2.2418872310644261e+01 -1.8930735594496507e-04 0.0000000000000000e+00  -2.2418762711071341e+01 -5.1625728171716739e-05 0.0000000000000000e+00  -2.2418698710189954e+01 3.1948922265833689e-05 0.0000000000000000e+00  -2.2418657689935277e+01 7.8660230368050559e-05 0.0000000000000000e+00  -2.2418627359980071e+01 1.0333287503084339e-04 0.0000000000000000e+00  -2.2418601863574011e+01 1.1625778699037263e-04 0.0000000000000000e+00  -2.2418578867933306e+01 1.2353427284058353e-04 0.0000000000000000e+00  -2.2418557629811676e+01 1.2847783369512918e-04 0.0000000000000000e+00  -2.2418538083504021e+01 1.3265866785415695e-04 0.0000000000000000e+00  -2.2418520346213509e+01 1.3670985736446113e-04 0.0000000000000000e+00  -2.2418504546289405e+01 1.4074431891578838e-04 0.0000000000000000e+00  -2.2418490716504234e+01 1.4464376341729405e-04 0.0000000000000000e+00  -2.2418478763127773e+01 1.4821125725397586e-04 0.0000000000000000e+00  -2.2418468468465122e+01 1.5129725052781860e-04 0.0000000000000000e+00  -2.2418459558436687e+01 1.5384236436244084e-04 0.0000000000000000e+00  -2.2418451764325052e+01 1.5586889358809220e-04 0.0000000000000000e+00  -2.2418444856848382e+01 1.5744790274966030e-04 0.0000000000000000e+00  -2.2418438662688832e+01 1.5868122124396557e-04 0.0000000000000000e+00  -2.2418433082339885e+01 1.5967655774417217e-04 0.0000000000000000e+00  -2.2418428081248710e+01 1.6051371359241155e-04 0.0000000000000000e+00  -2.2418423646629837e+01 1.6123035682534396e-04 0.0000000000000000e+00  -2.2418419751320911e+01 1.6184506489650723e-04 0.0000000000000000e+00  -2.2418416362245949e+01 1.6238665961231631e-04 0.0000000000000000e+00  -2.2418413470212080e+01 1.6289139771230024e-04 0.0000000000000000e+00  -2.2418411089260761e+01 1.6337526138165479e-04 0.0000000000000000e+00  -2.2418409217171053e+01 1.6382121622050350e-04 0.0000000000000000e+00  -2.2418407801409192e+01 1.6420165993643503e-04 0.0000000000000000e+00  -2.2418406751536118e+01 1.6451224339735052e-04 0.0000000000000000e+00  -2.2418405987127425e+01 1.6478110484157473e-04 0.0000000000000000e+00  -2.2418405473848424e+01 1.6504470237710894e-04 0.0000000000000000e+00  -2.2418405214285624e+01 1.6531515334009035e-04 0.0000000000000000e+00  -2.2418405204534480e+01 1.6556910069697061e-04 0.0000000000000000e+00  -2.2418405396024056e+01 1.6576617258321052e-04 0.0000000000000000e+00  -2.2418405693723983e+01 1.6587974593621136e-04 0.0000000000000000e+00  -2.2418405990153683e+01 1.6591603125544694e-04 0.0000000000000000e+00  -2.2418406209148419e+01 1.6590985966504973e-04 0.0000000000000000e+00  -2.2418406330919808e+01 1.6590361260000345e-04 0.0000000000000000e+00  -2.2418406386564349e+01 1.6592507793443628e-04 0.0000000000000000e+00  -2.2418406430692826e+01 1.6597724372065153e-04 0.0000000000000000e+00  -2.2418406509920654e+01 1.6604264953704555e-04 0.0000000000000000e+00  -2.2418406645159745e+01 1.6609699142427201e-04 0.0000000000000000e+00  -2.2418406826164333e+01 1.6612107275799904e-04 0.0000000000000000e+00  -2.2418407033212990e+01 1.6611094490000467e-04 0.0000000000000000e+00  -2.2418407221628030e+01 1.6606742958075578e-04 0.0000000000000000e+00  -2.2418407417492187e+01 1.6601994712142428e-04 0.0000000000000000e+00  -2.2418407489841535e+01 1.6593592923056744e-04 0.0000000000000000e+00  -2.2418407775882809e+01 1.6595923186132468e-04 0.0000000000000000e+00  -2.2418407420188071e+01 1.6572176873237384e-04 0.0000000000000000e+00  -2.2418408640487293e+01 1.6624937207602330e-04 0.0000000000000000e+00  -2.2418405999944728e+01 1.6476573353461151e-04 0.0000000000000000e+00  -2.2418412419429121e+01 1.6844130789138098e-04 0.0000000000000000e+00  -2.2418398233826601e+01 1.5885833230811768e-04 0.0000000000000000e+00  -2.2418427384129366e+01 1.7983007772129258e-04 0.0000000000000000e+00  -2.2418367113340789e+01 1.2738706204149726e-04 0.0000000000000000e+00  -2.2418469518789546e+01 2.1927498831187159e-04 0.0000000000000000e+00  -2.2418280781286445e+01 -8.4058502460704846e-06 0.0000000000000000e+00  -2.2418564383127933e+01 2.2776473426356505e-04 0.0000000000000000e+00  -2.2418291415258057e+01 -4.3153442765503358e-04 0.0000000000000000e+00  -2.2419898050960814e+01 6.4180978599702465e-04 0.0000000000000000e+00  -2.2417378994880703e+01 6.1087600964181048e-03 0.0000000000000000e+00  -2.2406834658334990e+01 1.4335739233899350e-02 0.0000000000000000e+00  -2.2358871217094432e+01 -1.1564683640362811e-02 0.0000000000000000e+00  -2.2421309428225253e+01 0.0000000000000000e+00 0.0000000000000000e+00  -1.8060293261538099e+01 0.0000000000000000e+00 0.0000000000000000e+00  -1.8049737353547570e+01 8.8292832548677851e-03 0.0000000000000000e+00  -1.8037922160355144e+01 6.7049346272930544e-03 0.0000000000000000e+00  -1.8029589728056262e+01 3.7290019926457837e-03 0.0000000000000000e+00  -1.8024389400636387e+01 1.3302484262541854e-03 0.0000000000000000e+00  -1.8021623091097457e+01 -3.9005431625009575e-04 0.0000000000000000e+00  -1.8020591724643314e+01 -1.4874080043379573e-03 0.0000000000000000e+00  -1.8020666345349589e+01 -2.1032835067613036e-03 0.0000000000000000e+00  -1.8021373088779416e+01 -2.4133830208241257e-03 0.0000000000000000e+00  -1.8022414822457296e+01 -2.5652063529061557e-03 0.0000000000000000e+00  -1.8023618325257655e+01 -2.6440301342046738e-03 0.0000000000000000e+00  -1.8024885002047821e+01 -2.6718302612566440e-03 0.0000000000000000e+00  -1.8026175467967544e+01 -2.6863177918295981e-03 0.0000000000000000e+00  -1.8027456721418069e+01 -2.6817335629490085e-03 0.0000000000000000e+00  -1.8028655655441685e+01 -2.5998060397505584e-03 0.0000000000000000e+00  -1.8029681510617785e+01 -2.4150056954412918e-03 0.0000000000000000e+00  -1.8030475802319692e+01 -2.1697759844920197e-03 0.0000000000000000e+00  -1.8031035682605953e+01 -1.9301735074287445e-03 0.0000000000000000e+00  -1.8031400766139175e+01 -1.7405603077791649e-03 0.0000000000000000e+00  -1.8031626528941217e+01 -1.6120197878006944e-03 0.0000000000000000e+00  -1.8031763619992699e+01 -1.5346314903013191e-03 0.0000000000000000e+00  -1.8031849160140013e+01 -1.4920201269595116e-03 0.0000000000000000e+00  -1.8031906534306607e+01 -1.4699540449499260e-03 0.0000000000000000e+00  -1.8031948894184481e+01 -1.4586855955883672e-03 0.0000000000000000e+00  -1.8031982921776464e+01 -1.4524984487209705e-03 0.0000000000000000e+00  -1.8032011637453898e+01 -1.4483722527722264e-03 0.0000000000000000e+00  -1.8032036148606597e+01 -1.4448986410564239e-03 0.0000000000000000e+00  -1.8032056712965058e+01 -1.4415124983586053e-03 0.0000000000000000e+00  -1.8032073366176032e+01 -1.4380821649180736e-03 0.0000000000000000e+00  -1.8032086255319363e+01 -1.4346905746505558e-03 0.0000000000000000e+00  -1.8032095723447409e+01 -1.4315214713815348e-03 0.0000000000000000e+00  -1.8032102251646613e+01 -1.4287373351251113e-03 0.0000000000000000e+00  -1.8032106377551788e+01 -1.4264072616371425e-03 0.0000000000000000e+00  -1.8032108638434440e+01 -1.4245156958680757e-03 0.0000000000000000e+00  -1.8032109519918301e+01 -1.4230039736546011e-03 0.0000000000000000e+00  -1.8032109422577115e+01 -1.4217780031993840e-03 0.0000000000000000e+00  -1.8032108672934726e+01 -1.4207210661879549e-03 0.0000000000000000e+00  -1.8032107552991892e+01 -1.4197453777855527