<?xml version="1.0"?>
<VTKFile type="UnstructuredGrid"  version="0.1"  >
<UnstructuredGrid>
<Piece  NumberOfPoints="1369" NumberOfCells="2560">
<Points>
<DataArray  type="Float64"  NumberOfComponents="3"  format="ascii">0 0 0  0.75 0 0  1.5 0 0  2.25 0 0  3 0 0  3.75 0 0  4.5 0 0  5.25 0 0  6 0 0  6.75 0 0  7.5 0 0  8.25 0 0  9 0 0  9.75 0 0  10.5 0 0  11.25 0 0  12 0 0  12.75 0 0  13.5 0 0  14.25 0 0  15 0 0  15.75 0 0  16.5 0 0  17.25 0 0  18 0 0  18.75 0 0  19.5 0 0  20.25 0 0  21 0 0  21.75 0 0  22.5 0 0  23.25 0 0  24 0 0  24.75 0 0  25.5 0 0  26.25 0 0  27 0 0  27.75 0 0  28.5 0 0  29.25 0 0  30 0 0  30.75 0 0  31.5 0 0  32.25 0 0  33 0 0  33.75 0 0  34.5 0 0  35.25 0 0  36 0 0  36.75 0 0  37.5 0 0  38.25 0 0  39 0 0  39.75 0 0  40.5 0 0  41.25 0 0  42 0 0  42.75 0 0  43.5 0 0  44.25 0 0  45 0 0  45.75 0 0  46.5 0 0  47.25 0 0  48 0 0  48.75 0 0  49.5 0 0  50.25 0 0  51 0 0  51.75 0 0  52.5 0 0  53.25 0 0  54 0 0  54.75 0 0  55.5 0 0  56.25 0 0  57 0 0  57.75 0 0  58.5 0 0  59.25 0 0  60 0 0  0 0.5 0  0.75 0.5 0  1.5 0.5 0  2.25 0.5 0  3 0.5 0  3.75 0.5 0  4.5 0.5 0  5.25 0.5 0  6 0.5 0  6.75 0.5 0  7.5 0.5 0  8.25 0.5 0  9 0.5 0  9.75 0.5 0  10.5 0.5 0  11.25 0.5 0  12 0.5 0  12.75 0.5 0  13.5 0.5 0  14.25 0.5 0  15 0.5 0  15.75 0.5 0  16.5 0.5 0  17.25 0.5 0  18 0.5 0  18.75 0.5 0  19.5 0.5 0  20.25 0.5 0  21 0.5 0  21.75 0.5 0  22.5 0.5 0  23.25 0.5 0  24 0.5 0  24.75 0.5 0  25.5 0.5 0  26.25 0.5 0  27 0.5 0  27.75 0.5 0  28.5 0.5 0  29.25 0.5 0  30 0.5 0  30.75 0.5 0  31.5 0.5 0  32.25 0.5 0  33 0.5 0  33.75 0.5 0  34.5 0.5 0  35.25 0.5 0  36 0.5 0  36.75 0.5 0  37.5 0.5 0  38.25 0.5 0  39 0.5 0  39.75 0.5 0  40.5 0.5 0  41.25 0.5 0  42 0.5 0  42.75 0.5 0  43.5 0.5 0  44.25 0.5 0  45 0.5 0  45.75 0.5 0  46.5 0.5 0  47.25 0.5 0  48 0.5 0  48.75 0.5 0  49.5 0.5 0  50.25 0.5 0  51 0.5 0  51.75 0.5 0  52.5 0.5 0  53.25 0.5 0  54 0.5 0  54.75 0.5 0  55.5 0.5 0  56.25 0.5 0  57 0.5 0  57.75 0.5 0  58.5 0.5 0  59.25 0.5 0  60 0.5 0  0 1 0  0.75 1 0  1.5 1 0  2.25 1 0  3 1 0  3.75 1 0  4.5 1 0  5.25 1 0  6 1 0  6.75 1 0  7.5 1 0  8.25 1 0  9 1 0  9.75 1 0  10.5 1 0  11.25 1 0  12 1 0  12.75 1 0  13.5 1 0  14.25 1 0  15 1 0  15.75 1 0  16.5 1 0  17.25 1 0  18 1 0  18.75 1 0  19.5 1 0  20.25 1 0  21 1 0  21.75 1 0  22.5 1 0  23.25 1 0  24 1 0  24.75 1 0  25.5 1 0  26.25 1 0  27 1 0  27.75 1 0  28.5 1 0  29.25 1 0  30 1 0  30.75 1 0  31.5 1 0  32.25 1 0  33 1 0  33.75 1 0  34.5 1 0  35.25 1 0  36 1 0  36.75 1 0  37.5 1 0  38.25 1 0  39 1 0  39.75 1 0  40.5 1 0  41.25 1 0  42 1 0  42.75 1 0  43.5 1 0  44.25 1 0  45 1 0  45.75 1 0  46.5 1 0  47.25 1 0  48 1 0  48.75 1 0  49.5 1 0  50.25 1 0  51 1 0  51.75 1 0  52.5 1 0  53.25 1 0  54 1 0  54.75 1 0  55.5 1 0  56.25 1 0  57 1 0  57.75 1 0  58.5 1 0  59.25 1 0  60 1 0  0 1.5 0  0.75 1.5 0  1.5 1.5 0  2.25 1.5 0  3 1.5 0  3.75 1.5 0  4.5 1.5 0  5.25 1.5 0  6 1.5 0  6.75 1.5 0  7.5 1.5 0  8.25 1.5 0  9 1.5 0  9.75 1.5 0  10.5 1.5 0  11.25 1.5 0  12 1.5 0  12.75 1.5 0  13.5 1.5 0  14.25 1.5 0  15 1.5 0  15.75 1.5 0  16.5 1.5 0  17.25 1.5 0  18 1.5 0  18.75 1.5 0  19.5 1.5 0  20.25 1.5 0  21 1.5 0  21.75 1.5 0  22.5 1.5 0  23.25 1.5 0  24 1.5 0  24.75 1.5 0  25.5 1.5 0  26.25 1.5 0  27 1.5 0  27.75 1.5 0  28.5 1.5 0  29.25 1.5 0  30 1.5 0  30.75 1.5 0  31.5 1.5 0  32.25 1.5 0  33 1.5 0  33.75 1.5 0  34.5 1.5 0  35.25 1.5 0  36 1.5 0  36.75 1.5 0  37.5 1.5 0  38.25 1.5 0  39 1.5 0  39.75 1.5 0  40.5 1.5 0  41.25 1.5 0  42 1.5 0  42.75 1.5 0  43.5 1.5 0  44.25 1.5 0  45 1.5 0  45.75 1.5 0  46.5 1.5 0  47.25 1.5 0  48 1.5 0  48.75 1.5 0  49.5 1.5 0  50.25 1.5 0  51 1.5 0  51.75 1.5 0  52.5 1.5 0  53.25 1.5 0  54 1.5 0  54.75 1.5 0  55.5 1.5 0  56.25 1.5 0  57 1.5 0  57.75 1.5 0  58.5 1.5 0  59.25 1.5 0  60 1.5 0  0 2 0  0.75 2 0  1.5 2 0  2.25 2 0  3 2 0  3.75 2 0  4.5 2 0  5.25 2 0  6 2 0  6.75 2 0  7.5 2 0  8.25 2 0  9 2 0  9.75 2 0  10.5 2 0  11.25 2 0  12 2 0  12.75 2 0  13.5 2 0  14.25 2 0  15 2 0  15.75 2 0  16.5 2 0  17.25 2 0  18 2 0  18.75 2 0  19.5 2 0  20.25 2 0  21 2 0  21.75 2 0  22.5 2 0  23.25 2 0  24 2 0  24.75 2 0  25.5 2 0  26.25 2 0  27 2 0  27.75 2 0  28.5 2 0  29.25 2 0  30 2 0  30.75 2 0  31.5 2 0  32.25 2 0  33 2 0  33.75 2 0  34.5 2 0  35.25 2 0  36 2 0  36.75 2 0  37.5 2 0  38.25 2 0  39 2 0  39.75 2 0  40.5 2 0  41.25 2 0  42 2 0  42.75 2 0  43.5 2 0  44.25 2 0  45 2 0  45.75 2 0  46.5 2 0  47.25 2 0  48 2 0  48.75 2 0  49.5 2 0  50.25 2 0  51 2 0  51.75 2 0  52.5 2 0  53.25 2 0  54 2 0  54.75 2 0  55.5 2 0  56.25 2 0  57 2 0  57.75 2 0  58.5 2 0  59.25 2 0  60 2 0  0 2.5 0  0.75 2.5 0  1.5 2.5 0  2.25 2.5 0  3 2.5 0  3.75 2.5 0  4.5 2.5 0  5.25 2.5 0  6 2.5 0  6.75 2.5 0  7.5 2.5 0  8.25 2.5 0  9 2.5 0  9.75 2.5 0  10.5 2.5 0  11.25 2.5 0  12 2.5 0  12.75 2.5 0  13.5 2.5 0  14.25 2.5 0  15 2.5 0  15.75 2.5 0  16.5 2.5 0  17.25 2.5 0  18 2.5 0  18.75 2.5 0  19.5 2.5 0  20.25 2.5 0  21 2.5 0  21.75 2.5 0  22.5 2.5 0  23.25 2.5 0  24 2.5 0  24.75 2.5 0  25.5 2.5 0  26.25 2.5 0  27 2.5 0  27.75 2.5 0  28.5 2.5 0  29.25 2.5 0  30 2.5 0  30.75 2.5 0  31.5 2.5 0  32.25 2.5 0  33 2.5 0  33.75 2.5 0  34.5 2.5 0  35.25 2.5 0  36 2.5 0  36.75 2.5 0  37.5 2.5 0  38.25 2.5 0  39 2.5 0  39.75 2.5 0  40.5 2.5 0  41.25 2.5 0  42 2.5 0  42.75 2.5 0  43.5 2.5 0  44.25 2.5 0  45 2.5 0  45.75 2.5 0  46.5 2.5 0  47.25 2.5 0  48 2.5 0  48.75 2.5 0  49.5 2.5 0  50.25 2.5 0  51 2.5 0  51.75 2.5 0  52.5 2.5 0  53.25 2.5 0  54 2.5 0  54.75 2.5 0  55.5 2.5 0  56.25 2.5 0  57 2.5 0  57.75 2.5 0  58.5 2.5 0  59.25 2.5 0  60 2.5 0  0 3 0  0.75 3 0  1.5 3 0  2.25 3 0  3 3 0  3.75 3 0  4.5 3 0  5.25 3 0  6 3 0  6.75 3 0  7.5 3 0  8.25 3 0  9 3 0  9.75 3 0  10.5 3 0  11.25 3 0  12 3 0  12.75 3 0  13.5 3 0  14.25 3 0  15 3 0  15.75 3 0  16.5 3 0  17.25 3 0  18 3 0  18.75 3 0  19.5 3 0  20.25 3 0  21 3 0  21.75 3 0  22.5 3 0  23.25 3 0  24 3 0  24.75 3 0  25.5 3 0  26.25 3 0  27 3 0  27.75 3 0  28.5 3 0  29.25 3 0  30 3 0  30.75 3 0  31.5 3 0  32.25 3 0  33 3 0  33.75 3 0  34.5 3 0  35.25 3 0  36 3 0  36.75 3 0  37.5 3 0  38.25 3 0  39 3 0  39.75 3 0  40.5 3 0  41.25 3 0  42 3 0  42.75 3 0  43.5 3 0  44.25 3 0  45 3 0  45.75 3 0  46.5 3 0  47.25 3 0  48 3 0  48.75 3 0  49.5 3 0  50.25 3 0  51 3 0  51.75 3 0  52.5 3 0  53.25 3 0  54 3 0  54.75 3 0  55.5 3 0  56.25 3 0  57 3 0  57.75 3 0  58.5 3 0  59.25 3 0  60 3 0  0 3.5 0  0.75 3.5 0  1.5 3.5 0  2.25 3.5 0  3 3.5 0  3.75 3.5 0  4.5 3.5 0  5.25 3.5 0  6 3.5 0  6.75 3.5 0  7.5 3.5 0  8.25 3.5 0  9 3.5 0  9.75 3.5 0  10.5 3.5 0  11.25 3.5 0  12 3.5 0  12.75 3.5 0  13.5 3.5 0  14.25 3.5 0  15 3.5 0  15.75 3.5 0  16.5 3.5 0  17.25 3.5 0  18 3.5 0  18.75 3.5 0  19.5 3.5 0  20.25 3.5 0  21 3.5 0  21.75 3.5 0  22.5 3.5 0  23.25 3.5 0  24 3.5 0  24.75 3.5 0  25.5 3.5 0  26.25 3.5 0  27 3.5 0  27.75 3.5 0  28.5 3.5 0  29.25 3.5 0  30 3.5 0  30.75 3.5 0  31.5 3.5 0  32.25 3.5 0  33 3.5 0  33.75 3.5 0  34.5 3.5 0  35.25 3.5 0  36 3.5 0  36.75 3.5 0  37.5 3.5 0  38.25 3.5 0  39 3.5 0  39.75 3.5 0  40.5 3.5 0  41.25 3.5 0  42 3.5 0  42.75 3.5 0  43.5 3.5 0  44.25 3.5 0  45 3.5 0  45.75 3.5 0  46.5 3.5 0  47.25 3.5 0  48 3.5 0  48.75 3.5 0  49.5 3.5 0  50.25 3.5 0  51 3.5 0  51.75 3.5 0  52.5 3.5 0  53.25 3.5 0  54 3.5 0  54.75 3.5 0  55.5 3.5 0  56.25 3.5 0  57 3.5 0  57.75 3.5 0  58.5 3.5 0  59.25 3.5 0  60 3.5 0  0 4 0  0.75 4 0  1.5 4 0  2.25 4 0  3 4 0  3.75 4 0  4.5 4 0  5.25 4 0  6 4 0  6.75 4 0  7.5 4 0  8.25 4 0  9 4 0  9.75 4 0  10.5 4 0  11.25 4 0  12 4 0  12.75 4 0  13.5 4 0  14.25 4 0  15 4 0  15.75 4 0  16.5 4 0  17.25 4 0  18 4 0  18.75 4 0  19.5 4 0  20.25 4 0  21 4 0  21.75 4 0  22.5 4 0  23.25 4 0  24 4 0  24.75 4 0  25.5 4 0  26.25 4 0  27 4 0  27.75 4 0  28.5 4 0  29.25 4 0  30 4 0  30.75 4 0  31.5 4 0  32.25 4 0  33 4 0  33.75 4 0  34.5 4 0  35.25 4 0  36 4 0  36.75 4 0  37.5 4 0  38.25 4 0  39 4 0  39.75 4 0  40.5 4 0  41.25 4 0  42 4 0  42.75 4 0  43.5 4 0  44.25 4 0  45 4 0  45.75 4 0  46.5 4 0  47.25 4 0  48 4 0  48.75 4 0  49.5 4 0  50.25 4 0  51 4 0  51.75 4 0  52.5 4 0  53.25 4 0  54 4 0  54.75 4 0  55.5 4 0  56.25 4 0  57 4 0  57.75 4 0  58.5 4 0  59.25 4 0  60 4 0  0.375 0.25 0  1.125 0.25 0  1.875 0.25 0  2.625 0.25 0  3.375 0.25 0  4.125 0.25 0  4.875 0.25 0  5.625 0.25 0  6.375 0.25 0  7.125 0.25 0  7.875 0.25 0  8.625 0.25 0  9.375 0.25 0  10.125 0.25 0  10.875 0.25 0  11.625 0.25 0  12.375 0.25 0  13.125 0.25 0  13.875 0.25 0  14.625 0.25 0  15.375 0.25 0  16.125 0.25 0  16.875 0.25 0  17.625 0.25 0  18.375 0.25 0  19.125 0.25 0  19.875 0.25 0  20.625 0.25 0  21.375 0.25 0  22.125 0.25 0  22.875 0.25 0  23.625 0.25 0  24.375 0.25 0  25.125 0.25 0  25.875 0.25 0  26.625 0.25 0  27.375 0.25 0  28.125 0.25 0  28.875 0.25 0  29.625 0.25 0  30.375 0.25 0  31.125 0.25 0  31.875 0.25 0  32.625 0.25 0  33.375 0.25 0  34.125 0.25 0  34.875 0.25 0  35.625 0.25 0  36.375 0.25 0  37.125 0.25 0  37.875 0.25 0  38.625 0.25 0  39.375 0.25 0  40.125 0.25 0  40.875 0.25 0  41.625 0.25 0  42.375 0.25 0  43.125 0.25 0  43.875 0.25 0  44.625 0.25 0  45.375 0.25 0  46.125 0.25 0  46.875 0.25 0  47.625 0.25 0  48.375 0.25 0  49.125 0.25 0  49.875 0.25 0  50.625 0.25 0  51.375 0.25 0  52.125 0.25 0  52.875 0.25 0  53.625 0.25 0  54.375 0.25 0  55.125 0.25 0  55.875 0.25 0  56.625 0.25 0  57.375 0.25 0  58.125 0.25 0  58.875 0.25 0  59.625 0.25 0  0.375 0.75 0  1.125 0.75 0  1.875 0.75 0  2.625 0.75 0  3.375 0.75 0  4.125 0.75 0  4.875 0.75 0  5.625 0.75 0  6.375 0.75 0  7.125 0.75 0  7.875 0.75 0  8.625 0.75 0  9.375 0.75 0  10.125 0.75 0  10.875 0.75 0  11.625 0.75 0  12.375 0.75 0  13.125 0.75 0  13.875 0.75 0  14.625 0.75 0  15.375 0.75 0  16.125 0.75 0  16.875 0.75 0  17.625 0.75 0  18.375 0.75 0  19.125 0.75 0  19.875 0.75 0  20.625 0.75 0  21.375 0.75 0  22.125 0.75 0  22.875 0.75 0  23.625 0.75 0  24.375 0.75 0  25.125 0.75 0  25.875 0.75 0  26.625 0.75 0  27.375 0.75 0  28.125 0.75 0  28.875 0.75 0  29.625 0.75 0  30.375 0.75 0  31.125 0.75 0  31.875 0.75 0  32.625 0.75 0  33.375 0.75 0  34.125 0.75 0  34.875 0.75 0  35.625 0.75 0  36.375 0.75 0  37.125 0.75 0  37.875 0.75 0  38.625 0.75 0  39.375 0.75 0  40.125 0.75 0  40
[...]
<PointData  Vectors="f_8-0"> 
<DataArray  type="Float64"  Name="f_8-0"  NumberOfComponents="3" format="ascii">0.0000000000000000e+00 0.0000000000000000e+00 0.0000000000000000e+00  0.0000000000000000e+00 0.0000000000000000e+00 0.0000000000000000e+00  0.0000000000000000e+00 0.0000000000000000e+00 0.0000000000000000e+00  0.0000000000000000e+00 0.0000000000000000e+00 0.0000000000000000e+00  0.0000000000000000e+00 0.0000000000000000e+00 0.0000000000000000e+00  0.0000000000000000e+00 0.0000000000000000e+00 0.0000000000000000e+00  0.0000000000000000e+00 0.0000000000000000e+00 0.0000000000000000e+00  0.0000000000000000e+00 0.0000000000000000e+00 0.0000000000000000e+00  0.0000000000000000e+00 0.0000000000000000e+00 0.0000000000000000e+00  0.0000000000000000e+00 0.0000000000000000e+00 0.0000000000000000e+00  0.0000000000000000e+00 0.0000000000000000e+00 0.0000000000000000e+00  0.0000000000000000e+00 0.0000000000000000e+00 0.0000000000000000e+00  0.0000000000000000e+00 0.0000000000000000e+00 0.0000000000000000e+00  0.0000000000000000e+00 0.0000000000000000e+00 0.0000000000000000e+00  0.0000000000000000e+00 0.0000000000000000e+00 0.0000000000000000e+00  0.0000000000000000e+00 0.0000000000000000e+00 0.0000000000000000e+00  0.0000000000000000e+00 0.0000000000000000e+00 0.0000000000000000e+00  0.0000000000000000e+00 0.0000000000000000e+00 0.0000000000000000e+00  0.0000000000000000e+00 0.0000000000000000e+00 0.0000000000000000e+00  0.0000000000000000e+00 0.0000000000000000e+00 0.0000000000000000e+00  0.0000000000000000e+00 0.0000000000000000e+00 0.0000000000000000e+00  0.0000000000000000e+00 0.0000000000000000e+00 0.0000000000000000e+00  0.0000000000000000e+00 0.0000000000000000e+00 0.0000000000000000e+00  0.0000000000000000e+00 0.0000000000000000e+00 0.0000000000000000e+00  0.0000000000000000e+00 0.0000000000000000e+00 0.0000000000000000e+00  0.0000000000000000e+00 0.0000000000000000e+00 0.0000000000000000e+00  0.0000000000000000e+00 0.0000000000000000e+00 0.0000000000000000e+00  0.0000000000000000e+00 0.0000000000000000e+00 0.0000000000000000e+00  0.0000000000000000e+00 0.0000000000000000e+00 0.0000000000000000e+00  0.0000000000000000e+00 0.0000000000000000e+00 0.0000000000000000e+00  0.0000000000000000e+00 0.0000000000000000e+00 0.0000000000000000e+00  0.0000000000000000e+00 0.0000000000000000e+00 0.0000000000000000e+00  0.0000000000000000e+00 0.0000000000000000e+00 0.0000000000000000e+00  0.0000000000000000e+00 0.0000000000000000e+00 0.0000000000000000e+00  0.0000000000000000e+00 0.0000000000000000e+00 0.0000000000000000e+00  0.0000000000000000e+00 0.0000000000000000e+00 0.0000000000000000e+00  0.0000000000000000e+00 0.0000000000000000e+00 0.0000000000000000e+00  0.0000000000000000e+00 0.0000000000000000e+00 0.0000000000000000e+00  0.0000000000000000e+00 0.0000000000000000e+00 0.0000000000000000e+00  0.0000000000000000e+00 0.0000000000000000e+00 0.0000000000000000e+00  0.0000000000000000e+00 0.0000000000000000e+00 0.0000000000000000e+00  0.0000000000000000e+00 0.0000000000000000e+00 0.0000000000000000e+00  0.0000000000000000e+00 0.0000000000000000e+00 0.0000000000000000e+00  0.0000000000000000e+00 0.0000000000000000e+00 0.0000000000000000e+00  0.0000000000000000e+00 0.0000000000000000e+00 0.0000000000000000e+00  0.0000000000000000e+00 0.0000000000000000e+00 0.0000000000000000e+00  0.0000000000000000e+00 0.0000000000000000e+00 0.0000000000000000e+00  0.0000000000000000e+00 0.0000000000000000e+00 0.0000000000000000e+00  0.0000000000000000e+00 0.0000000000000000e+00 0.0000000000000000e+00  0.0000000000000000e+00 0.0000000000000000e+00 0.0000000000000000e+00  0.0000000000000000e+00 0.0000000000000000e+00 0.0000000000000000e+00  0.0000000000000000e+00 0.0000000000000000e+00 0.0000000000000000e+00  0.0000000000000000e+00 0.0000000000000000e+00 0.0000000000000000e+00  0.0000000000000000e+00 0.0000000000000000e+00 0.0000000000000000e+00  0.0000000000000000e+00 0.0000000000000000e+00 0.0000000000000000e+00  0.0000000000000000e+00 0.0000000000000000e+00 0.0000000000000000e+00  0.0000000000000000e+00 0.0000000000000000e+00 0.0000000000000000e+00  0.0000000000000000e+00 0.0000000000000000e+00 0.0000000000000000e+00  0.0000000000000000e+00 0.0000000000000000e+00 0.0000000000000000e+00  0.0000000000000000e+00 0.0000000000000000e+00 0.0000000000000000e+00  0.0000000000000000e+00 0.0000000000000000e+00 0.0000000000000000e+00  0.0000000000000000e+00 0.0000000000000000e+00 0.0000000000000000e+00  0.0000000000000000e+00 0.0000000000000000e+00 0.0000000000000000e+00  0.0000000000000000e+00 0.0000000000000000e+00 0.0000000000000000e+00  0.0000000000000000e+00 0.0000000000000000e+00 0.0000000000000000e+00  0.0000000000000000e+00 0.0000000000000000e+00 0.0000000000000000e+00  0.0000000000000000e+00 0.0000000000000000e+00 0.0000000000000000e+00  0.0000000000000000e+00 0.0000000000000000e+00 0.0000000000000000e+00  0.0000000000000000e+00 0.0000000000000000e+00 0.0000000000000000e+00  0.0000000000000000e+00 0.0000000000000000e+00 0.0000000000000000e+00  0.0000000000000000e+00 0.0000000000000000e+00 0.0000000000000000e+00  0.0000000000000000e+00 0.0000000000000000e+00 0.0000000000000000e+00  0.0000000000000000e+00 0.0000000000000000e+00 0.0000000000000000e+00  0.0000000000000000e+00 0.0000000000000000e+00 0.0000000000000000e+00  0.0000000000000000e+00 0.0000000000000000e+00 0.0000000000000000e+00  0.0000000000000000e+00 0.0000000000000000e+00 0.0000000000000000e+00  0.0000000000000000e+00 0.0000000000000000e+00 0.0000000000000000e+00  0.0000000000000000e+00 0.0000000000000000e+00 0.0000000000000000e+00  0.0000000000000000e+00 0.0000000000000000e+00 0.0000000000000000e+00  0.0000000000000000e+00 0.0000000000000000e+00 0.0000000000000000e+00  0.0000000000000000e+00 0.0000000000000000e+00 0.0000000000000000e+00  1.7570696801607944e+01 0.0000000000000000e+00 0.0000000000000000e+00  1.7627728130376799e+01 -6.4032110041464557e-02 0.0000000000000000e+00  1.7617096542349717e+01 -2.1456602985119155e-02 0.0000000000000000e+00  1.7619036608118044e+01 -5.5289750122598964e-03 0.0000000000000000e+00  1.7618555728259448e+01 -5.0582852927163928e-03 0.0000000000000000e+00  1.7615397720606715e+01 -3.4710915061462234e-03 0.0000000000000000e+00  1.7616981244711454e+01 -5.8503579531571526e-03 0.0000000000000000e+00  1.7618966372120138e+01 -6.0115662616393615e-03 0.0000000000000000e+00  1.7623595054769677e+01 -6.6508242690641968e-03 0.0000000000000000e+00  1.7627183591618767e+01 -6.1596021579822489e-03 0.0000000000000000e+00  1.7630181613632054e+01 -5.8980082009862361e-03 0.0000000000000000e+00  1.7631784530399795e+01 -5.4408671661804412e-03 0.0000000000000000e+00  1.7632713390823046e+01 -5.2501934760780002e-03 0.0000000000000000e+00  1.7633054239559925e+01 -5.1143467817578482e-03 0.0000000000000000e+00  1.7633205530899520e+01 -5.0863139095065112e-03 0.0000000000000000e+00  1.7633243016518360e+01 -5.0704960377488386e-03 0.0000000000000000e+00  1.7633260863766900e+01 -5.0691285082843261e-03 0.0000000000000000e+00  1.7633266728681910e+01 -5.0693922689175564e-03 0.0000000000000000e+00  1.7633268994069791e+01 -5.0675017958352305e-03 0.0000000000000000e+00  1.7633272111070244e+01 -5.0690640699397110e-03 0.0000000000000000e+00  1.7633271689886616e+01 -5.0672178933029201e-03 0.0000000000000000e+00  1.7633273536525891e+01 -5.0685810774301421e-03 0.0000000000000000e+00  1.7633272766022912e+01 -5.0673391840060132e-03 0.0000000000000000e+00  1.7633273816439715e+01 -5.0682490547917852e-03 0.0000000000000000e+00  1.7633273272819807e+01 -5.0675228353200055e-03 0.0000000000000000e+00  1.7633273862628226e+01 -5.0680477010323710e-03 0.0000000000000000e+00  1.7633273573280690e+01 -5.0676583536556309e-03 0.0000000000000000e+00  1.7633273905767123e+01 -5.0679332731670725e-03 0.0000000000000000e+00  1.7633273786793929e+01 -5.0677390354761662e-03 0.0000000000000000e+00  1.7633273981313362e+01 -5.0678725385049162e-03 0.0000000000000000e+00  1.7633273958401844e+01 -5.0677817877348057e-03 0.0000000000000000e+00  1.7633274082839009e+01 -5.0678424845907811e-03 0.0000000000000000e+00  1.7633274108818149e+01 -5.0678026022929184e-03 0.0000000000000000e+00  1.7633274199793142e+01 -5.0678286094561088e-03 0.0000000000000000e+00  1.7633274248741237e+01 -5.0678120612535141e-03 0.0000000000000000e+00  1.7633274324731971e+01 -5.0678226293053314e-03 0.0000000000000000e+00  1.7633274383751026e+01 -5.0678161269852072e-03 0.0000000000000000e+00  1.7633274453433522e+01 -5.0678202303710805e-03 0.0000000000000000e+00  1.7633274516602238e+01 -5.0678178135134750e-03 0.0000000000000000e+00  1.7633274583779521e+01 -5.0678193568730392e-03 0.0000000000000000e+00  1.7633274648569920e+01 -5.0678185145668865e-03 0.0000000000000000e+00  1.7633274714802138e+01 -5.0678190909768071e-03 0.0000000000000000e+00  1.7633274780195944e+01 -5.0678188288643122e-03 0.0000000000000000e+00  1.7633274846084863e+01 -5.0678190555400954e-03 0.0000000000000000e+00  1.7633274911688098e+01 -5.0678189986234305e-03 0.0000000000000000e+00  1.7633274977456285e+01 -5.0678191035939289e-03 0.0000000000000000e+00  1.7633275043126670e+01 -5.0678191146790886e-03 0.0000000000000000e+00  1.7633275108846924e+01 -5.0678191784794590e-03 0.0000000000000000e+00  1.7633275174529576e+01 -5.0678192104619503e-03 0.0000000000000000e+00  1.7633275240217991e+01 -5.0678192587209426e-03 0.0000000000000000e+00  1.7633275305883757e+01 -5.0678192930278757e-03 0.0000000000000000e+00  1.7633275371535120e+01 -5.0678193400118081e-03 0.0000000000000000e+00  1.7633275437172067e+01 -5.0678193769178913e-03 0.0000000000000000e+00  1.7633275502803244e+01 -5.0678194432899415e-03 0.0000000000000000e+00  1.7633275568476570e+01 -5.0678195147509774e-03 0.0000000000000000e+00  1.7633275634270841e+01 -5.0678196952468144e-03 0.0000000000000000e+00  1.7633275700433213e+01 -5.0678199861979604e-03 0.0000000000000000e+00  1.7633275767431638e+01 -5.0678207122463407e-03 0.0000000000000000e+00  1.7633275836402291e+01 -5.0678220876796210e-03 0.0000000000000000e+00  1.7633275909590346e+01 -5.0678252284402751e-03 0.0000000000000000e+00  1.7633275991974322e+01 -5.0678315070203667e-03 0.0000000000000000e+00  1.7633276093644817e+01 -5.0678450684618808e-03 0.0000000000000000e+00  1.7633276235908891e+01 -5.0678725070618961e-03 0.0000000000000000e+00  1.7633276462135544e+01 -5.0679297905471951e-03 0.0000000000000000e+00  1.7633276861362013e+01 -5.0680448742137637e-03 0.0000000000000000e+00  1.7633277612521670e+01 -5.0682781068162718e-03 0.0000000000000000e+00  1.7633279072713762e+01 -5.0687378974738706e-03 0.0000000000000000e+00  1.7633281938579653e+01 -5.0696407651422137e-03 0.0000000000000000e+00  1.7633287543163863e+01 -5.0713718108283757e-03 0.0000000000000000e+00  1.7633298360417065e+01 -5.0746348508453826e-03 0.0000000000000000e+00  1.7633318820709679e+01 -5.0805913858415182e-03 0.0000000000000000e+00  1.7633356549672310e+01 -5.0911960361688102e-03 0.0000000000000000e+00  1.7633424239428635e+01 -5.1096290458072192e-03 0.0000000000000000e+00  1.7633542453188159e+01 -5.1411941800382178e-03 0.0000000000000000e+00  1.7633744422201350e+01 -5.1949904607208330e-03 0.0000000000000000e+00  1.7634090202803844e+01 -5.2900767605452929e-03 0.0000000000000000e+00  1.7634718105525526e+01 -5.4624987504119978e-03 0.0000000000000000e+00  1.7636052228278036e+01 -5.7272097560729287e-03 0.0000000000000000e+00  1.7639615590499780e+01 -5.8221384690968882e-03 0.0000000000000000e+00  1.7655182445394846e+01 -7.2020876657802281e-04 0.0000000000000000e+00  1.7703955851628248e+01 0.0000000000000000e+00 0.0000000000000000e+00  2.7147256051206117e+01 0.0000000000000000e+00 0.0000000000000000e+00  2.7178713729528205e+01 3.5844668652713130e-02 0.0000000000000000e+00  2.7143119364539348e+01 1.5627065687468420e-03 0.0000000000000000e+00  2.7141917132987903e+01 8.4983165607460560e-03 0.0000000000000000e+00  2.7135460518854178e+01 6.1043051581239453e-03 0.0000000000000000e+00  2.7137788293641787e+01 2.8161247680531837e-03 0.0000000000000000e+00  2.7137270877173975e+01 1.4186458243886512e-03 0.0000000000000000e+00  2.7139253581111500e+01 -1.4145035697886328e-03 0.0000000000000000e+00  2.7141418791482273e+01 -2.0979654656887825e-03 0.0000000000000000e+00  2.7145798760703443e+01 -1.6024879366110705e-03 0.0000000000000000e+00  2.7148765745571740e+01 -7.1341442493090814e-05 0.0000000000000000e+00  2.7151040958885414e+01 1.0141611572725613e-03 0.0000000000000000e+00  2.7152096909455214e+01 1.8530311713498727e-03 0.0000000000000000e+00  2.7152775574745068e+01 2.2331211685149128e-03 0.0000000000000000e+00  2.7153008193439121e+01 2.4397316001831641e-03 0.0000000000000000e+00  2.7153156911203368e+01 2.5004130045031092e-03 0.0000000000000000e+00  2.7153186745279399e+01 2.5308575098941699e-03 0.0000000000000000e+00  2.7153216243175120e+01 2.5376933217582075e-03 0.0000000000000000e+00  2.7153218656058261e+01 2.5412558625338161e-03 0.0000000000000000e+00  2.7153224844764736e+01 2.5436852528324737e-03 0.0000000000000000e+00  2.7153225797255512e+01 2.5433361459654734e-03 0.0000000000000000e+00  2.7153226601942450e+01 2.5450116972837505e-03 0.0000000000000000e+00  2.7153227635891113e+01 2.5441173928480556e-03 0.0000000000000000e+00  2.7153227245736922e+01 2.5451828575620808e-03 0.0000000000000000e+00  2.7153228095485414e+01 2.5444796095809761e-03 0.0000000000000000e+00  2.7153227644949510e+01 2.5450938355198764e-03 0.0000000000000000e+00  2.7153228238526662e+01 2.5446671193932128e-03 0.0000000000000000e+00  2.7153227961776032e+01 2.5449933552740725e-03 0.0000000000000000e+00  2.7153228348389327e+01 2.5447665032716335e-03 0.0000000000000000e+00  2.7153228233078092e+01 2.5449276217560037e-03 0.0000000000000000e+00  2.7153228484233107e+01 2.5448174147586259e-03 0.0000000000000000e+00  2.7153228474121022e+01 2.5448918932507439e-03 0.0000000000000000e+00  2.7153228647564276e+01 2.5448420688258897e-03 0.0000000000000000e+00  2.7153228695918706e+01 2.5448744665057085e-03 0.0000000000000000e+00  2.7153228829155434e+01 2.5448532981337466e-03 0.0000000000000000e+00  2.7153228906698970e+01 2.5448666257340572e-03 0.0000000000000000e+00  2.7153229020884915e+01 2.5448581189046809e-03 0.0000000000000000e+00  2.7153229111820941e+01 2.5448633354644419e-03 0.0000000000000000e+00  2.7153229217644657e+01 2.5448600877528405e-03 0.0000000000000000e+00  2.7153229314302731e+01 2.5448620422445353e-03 0.0000000000000000e+00  2.7153229416697791e+01 2.5448608655495365e-03 0.0000000000000000e+00  2.7153229515658030e+01 2.5448615768779818e-03 0.0000000000000000e+00  2.7153229616730318e+01 2.5448611758320605e-03 0.0000000000000000e+00  2.7153229716569854e+01 2.5448614385398210e-03 0.0000000000000000e+00  2.7153229817150883e+01 2.5448613189825221e-03 0.0000000000000000e+00  2.7153229917305239e+01 2.5448614225410129e-03 0.0000000000000000e+00  2.7153230017709298e+01 2.5448614019709325e-03 0.0000000000000000e+00  2.7153230117967901e+01 2.5448614565278548e-03 0.0000000000000000e+00  2.7153230218302827e+01 2.5448614738031623e-03 0.0000000000000000e+00  2.7153230318584299e+01 2.5448615152397157e-03 0.0000000000000000e+00  2.7153230418876930e+01 2.5448615574127837e-03 0.0000000000000000e+00  2.7153230519126378e+01 2.5448615992580892e-03 0.0000000000000000e+00  2.7153230619348442e+01 2.5448616549362379e-03 0.0000000000000000e+00  2.7153230719504954e+01 2.5448616701784416e-03 0.0000000000000000e+00  2.7153230819596644e+01 2.5448616954381713e-03 0.0000000000000000e+00  2.7153230919543240e+01 2.5448615531290090e-03 0.0000000000000000e+00  2.7153231019331770e+01 2.5448612692356453e-03 0.0000000000000000e+00  2.7153231118793080e+01 2.5448602901196734e-03 0.0000000000000000e+00  2.7153231217891211e+01 2.5448583266865434e-03 0.0000000000000000e+00  2.7153231316206462e+01 2.5448535145824324e-03 0.0000000000000000e+00  2.7153231413623850e+01 2.5448436608880268e-03 0.0000000000000000e+00  2.7153231509079585e+01 2.5448219483319443e-03 0.0000000000000000e+00  2.7153231602069660e+01 2.5447775059399421e-03 0.0000000000000000e+00  2.7153231689533875e+01 2.5446842410257998e-03 0.0000000000000000e+00  2.7153231768833077e+01 2.5444959480204910e-03 0.0000000000000000e+00  2.7153231829936889e+01 2.5441135062507780e-03 0.0000000000000000e+00  2.7153231861541304e+01 2.5433544169350957e-03 0.0000000000000000e+00  2.7153231834841268e+01 2.5418502586929148e-03 0.0000000000000000e+00  2.7153231718881862e+01 2.5389229673285253e-03 0.0000000000000000e+00  2.7153231434299308e+01 2.5333453831124270e-03 0.0000000000000000e+00  2.7153230850583185e+01 2.5231327649349296e-03 0.0000000000000000e+00  2.7153229675617620e+01 2.5050513458669261e-03 0.0000000000000000e+00  2.7153227703258970e+01 2.4735284892787044e-03 0.0000000000000000e+00  2.7153225242260628e+01 2.4190430873046028e-03 0.0000000000000000e+00  2.7153224667699568e+01 2.3256109801061422e-03 0.0000000000000000e+00  2.7153235573473712e+01 2.1568317397905002e-03 0.0000000000000000e+00  2.7153303949339460e+01 1.8232848427614742e-03 0.0000000000000000e+00  2.7153554658919646e+01 1.1538931380152434e-03 0.0000000000000000e+00  2.7154276103986565e+01 -1.9774872053175894e-04 0.0000000000000000e+00  2.7154420341820849e+01 -3.9678055446065825e-03 0.0000000000000000e+00  2.7145592289150258e+01 0.0000000000000000e+00 0.0000000000000000e+00  2.8347034511954657e+01 0.0000000000000000e+00 0.0000000000000000e+00  2.8310853779429895e+01 -1.7542208715247504e-02 0.0000000000000000e+00  2.8320972141153053e+01 2.2905195106205792e-03 0.0000000000000000e+00  2.8321453885489458e+01 -8.5308780806268923e-04 0.0000000000000000e+00  2.8334016355303028e+01 2.5407119482856967e-03 0.0000000000000000e+00  2.8332672861017890e+01 1.2120668868884975e-03 0.0000000000000000e+00  2.8334873118190931e+01 1.1658845000852498e-04 0.0000000000000000e+00  2.8330314157075975e+01 -1.2568224715559012e-03 0.0000000000000000e+00  2.8326956941482564e+01 -3.3302464982012912e-03 0.0000000000000000e+00  2.8322046046006026e+01 -3.0154209489314473e-03 0.0000000000000000e+00  2.8319610274532451e+01 -1.7978465100876788e-03 0.0000000000000000e+00  2.8317606477979233e+01 -4.4217868352075220e-04 0.0000000000000000e+00  2.8316905770331648e+01 3.8862396997491728e-04 0.0000000000000000e+00  2.8316390578497320e+01 8.8744021533145750e-04 0.0000000000000000e+00  2.8316301278325966e+01 1.1051019802099885e-03 0.0000000000000000e+00  2.8316199599251103e+01 1.2069631072056507e-03 0.0000000000000000e+00  2.8316203786490039e+01 1.2426593177098681e-03 0.0000000000000000e+00  2.8316180413708619e+01 1.2572339791114837e-03 0.0000000000000000e+00  2.8316183966963699e+01 1.2633511408601491e-03 0.0000000000000000e+00  2.8316178252496570e+01 1.2649088997299712e-03 0.0000000000000000e+00  2.8316178186107816e+01 1.2669976788352696e-03 0.0000000000000000e+00  2.8316177762819226e+01 1.2666701525842357e-03 0.0000000000000000e+00  2.8316176699438355e+01 1.2677217455146867e-03 0.0000000000000000e+00  2.8316177551568423e+01 1.2672324002016521e-03 0.0000000000000000e+00  2.8316176584912178e+01 1.2677872422858314e-03 0.0000000000000000e+00  2.8316177449628082e+01 1.2674475648829632e-03 0.0000000000000000e+00  2.8316176828600266e+01 1.2677305905521511e-03 0.0000000000000000e+00  2.8316177443204840e+01 1.2675408411092185e-03 0.0000000000000000e+00  2.8316177123802472e+01 1.2676779899494753e-03 0.0000000000000000e+00  2.8316177517012587e+01 1.2675835189071510e-03 0.0000000000000000e+00  2.8316177397014940e+01 1.2676465108872621e-03 0.0000000000000000e+00  2.8316177647704151e+01 1.2676029984917674e-03 0.0000000000000000e+00  2.8316177641854917e+01 1.2676304610292554e-03 0.0000000000000000e+00  2.8316177813682970e+01 1.2676116020139748e-03 0.0000000000000000e+00  2.8316177866815586e+01 1.2676229902519195e-03 0.0000000000000000e+00  2.8316177999319667e+01 1.2676152299207458e-03 0.0000000000000000e+00  2.8316178080478146e+01 1.2676197303302663e-03 0.0000000000000000e+00  2.8316178194953359e+01 1.2676166854521476e-03 0.0000000000000000e+00  2.8316178288500815e+01 1.2676183861521065e-03 0.0000000000000000e+00  2.8316178395277081e+01 1.2676172413571940e-03 0.0000000000