<?xml version="1.0"?>
<VTKFile type="UnstructuredGrid"  version="0.1"  >
<UnstructuredGrid>
<Piece  NumberOfPoints="1369" NumberOfCells="2560">
<Points>
<DataArray  type="Float64"  NumberOfComponents="3"  format="ascii">0 0 0  0.75 0 0  1.5 0 0  2.25 0 0  3 0 0  3.75 0 0  4.5 0 0  5.25 0 0  6 0 0  6.75 0 0  7.5 0 0  8.25 0 0  9 0 0  9.75 0 0  10.5 0 0  11.25 0 0  12 0 0  12.75 0 0  13.5 0 0  14.25 0 0  15 0 0  15.75 0 0  16.5 0 0  17.25 0 0  18 0 0  18.75 0 0  19.5 0 0  20.25 0 0  21 0 0  21.75 0 0  22.5 0 0  23.25 0 0  24 0 0  24.75 0 0  25.5 0 0  26.25 0 0  27 0 0  27.75 0 0  28.5 0 0  29.25 0 0  30 0 0  30.75 0 0  31.5 0 0  32.25 0 0  33 0 0  33.75 0 0  34.5 0 0  35.25 0 0  36 0 0  36.75 0 0  37.5 0 0  38.25 0 0  39 0 0  39.75 0 0  40.5 0 0  41.25 0 0  42 0 0  42.75 0 0  43.5 0 0  44.25 0 0  45 0 0  45.75 0 0  46.5 0 0  47.25 0 0  48 0 0  48.75 0 0  49.5 0 0  50.25 0 0  51 0 0  51.75 0 0  52.5 0 0  53.25 0 0  54 0 0  54.75 0 0  55.5 0 0  56.25 0 0  57 0 0  57.75 0 0  58.5 0 0  59.25 0 0  60 0 0  0 0.5 0  0.75 0.5 0  1.5 0.5 0  2.25 0.5 0  3 0.5 0  3.75 0.5 0  4.5 0.5 0  5.25 0.5 0  6 0.5 0  6.75 0.5 0  7.5 0.5 0  8.25 0.5 0  9 0.5 0  9.75 0.5 0  10.5 0.5 0  11.25 0.5 0  12 0.5 0  12.75 0.5 0  13.5 0.5 0  14.25 0.5 0  15 0.5 0  15.75 0.5 0  16.5 0.5 0  17.25 0.5 0  18 0.5 0  18.75 0.5 0  19.5 0.5 0  20.25 0.5 0  21 0.5 0  21.75 0.5 0  22.5 0.5 0  23.25 0.5 0  24 0.5 0  24.75 0.5 0  25.5 0.5 0  26.25 0.5 0  27 0.5 0  27.75 0.5 0  28.5 0.5 0  29.25 0.5 0  30 0.5 0  30.75 0.5 0  31.5 0.5 0  32.25 0.5 0  33 0.5 0  33.75 0.5 0  34.5 0.5 0  35.25 0.5 0  36 0.5 0  36.75 0.5 0  37.5 0.5 0  38.25 0.5 0  39 0.5 0  39.75 0.5 0  40.5 0.5 0  41.25 0.5 0  42 0.5 0  42.75 0.5 0  43.5 0.5 0  44.25 0.5 0  45 0.5 0  45.75 0.5 0  46.5 0.5 0  47.25 0.5 0  48 0.5 0  48.75 0.5 0  49.5 0.5 0  50.25 0.5 0  51 0.5 0  51.75 0.5 0  52.5 0.5 0  53.25 0.5 0  54 0.5 0  54.75 0.5 0  55.5 0.5 0  56.25 0.5 0  57 0.5 0  57.75 0.5 0  58.5 0.5 0  59.25 0.5 0  60 0.5 0  0 1 0  0.75 1 0  1.5 1 0  2.25 1 0  3 1 0  3.75 1 0  4.5 1 0  5.25 1 0  6 1 0  6.75 1 0  7.5 1 0  8.25 1 0  9 1 0  9.75 1 0  10.5 1 0  11.25 1 0  12 1 0  12.75 1 0  13.5 1 0  14.25 1 0  15 1 0  15.75 1 0  16.5 1 0  17.25 1 0  18 1 0  18.75 1 0  19.5 1 0  20.25 1 0  21 1 0  21.75 1 0  22.5 1 0  23.25 1 0  24 1 0  24.75 1 0  25.5 1 0  26.25 1 0  27 1 0  27.75 1 0  28.5 1 0  29.25 1 0  30 1 0  30.75 1 0  31.5 1 0  32.25 1 0  33 1 0  33.75 1 0  34.5 1 0  35.25 1 0  36 1 0  36.75 1 0  37.5 1 0  38.25 1 0  39 1 0  39.75 1 0  40.5 1 0  41.25 1 0  42 1 0  42.75 1 0  43.5 1 0  44.25 1 0  45 1 0  45.75 1 0  46.5 1 0  47.25 1 0  48 1 0  48.75 1 0  49.5 1 0  50.25 1 0  51 1 0  51.75 1 0  52.5 1 0  53.25 1 0  54 1 0  54.75 1 0  55.5 1 0  56.25 1 0  57 1 0  57.75 1 0  58.5 1 0  59.25 1 0  60 1 0  0 1.5 0  0.75 1.5 0  1.5 1.5 0  2.25 1.5 0  3 1.5 0  3.75 1.5 0  4.5 1.5 0  5.25 1.5 0  6 1.5 0  6.75 1.5 0  7.5 1.5 0  8.25 1.5 0  9 1.5 0  9.75 1.5 0  10.5 1.5 0  11.25 1.5 0  12 1.5 0  12.75 1.5 0  13.5 1.5 0  14.25 1.5 0  15 1.5 0  15.75 1.5 0  16.5 1.5 0  17.25 1.5 0  18 1.5 0  18.75 1.5 0  19.5 1.5 0  20.25 1.5 0  21 1.5 0  21.75 1.5 0  22.5 1.5 0  23.25 1.5 0  24 1.5 0  24.75 1.5 0  25.5 1.5 0  26.25 1.5 0  27 1.5 0  27.75 1.5 0  28.5 1.5 0  29.25 1.5 0  30 1.5 0  30.75 1.5 0  31.5 1.5 0  32.25 1.5 0  33 1.5 0  33.75 1.5 0  34.5 1.5 0  35.25 1.5 0  36 1.5 0  36.75 1.5 0  37.5 1.5 0  38.25 1.5 0  39 1.5 0  39.75 1.5 0  40.5 1.5 0  41.25 1.5 0  42 1.5 0  42.75 1.5 0  43.5 1.5 0  44.25 1.5 0  45 1.5 0  45.75 1.5 0  46.5 1.5 0  47.25 1.5 0  48 1.5 0  48.75 1.5 0  49.5 1.5 0  50.25 1.5 0  51 1.5 0  51.75 1.5 0  52.5 1.5 0  53.25 1.5 0  54 1.5 0  54.75 1.5 0  55.5 1.5 0  56.25 1.5 0  57 1.5 0  57.75 1.5 0  58.5 1.5 0  59.25 1.5 0  60 1.5 0  0 2 0  0.75 2 0  1.5 2 0  2.25 2 0  3 2 0  3.75 2 0  4.5 2 0  5.25 2 0  6 2 0  6.75 2 0  7.5 2 0  8.25 2 0  9 2 0  9.75 2 0  10.5 2 0  11.25 2 0  12 2 0  12.75 2 0  13.5 2 0  14.25 2 0  15 2 0  15.75 2 0  16.5 2 0  17.25 2 0  18 2 0  18.75 2 0  19.5 2 0  20.25 2 0  21 2 0  21.75 2 0  22.5 2 0  23.25 2 0  24 2 0  24.75 2 0  25.5 2 0  26.25 2 0  27 2 0  27.75 2 0  28.5 2 0  29.25 2 0  30 2 0  30.75 2 0  31.5 2 0  32.25 2 0  33 2 0  33.75 2 0  34.5 2 0  35.25 2 0  36 2 0  36.75 2 0  37.5 2 0  38.25 2 0  39 2 0  39.75 2 0  40.5 2 0  41.25 2 0  42 2 0  42.75 2 0  43.5 2 0  44.25 2 0  45 2 0  45.75 2 0  46.5 2 0  47.25 2 0  48 2 0  48.75 2 0  49.5 2 0  50.25 2 0  51 2 0  51.75 2 0  52.5 2 0  53.25 2 0  54 2 0  54.75 2 0  55.5 2 0  56.25 2 0  57 2 0  57.75 2 0  58.5 2 0  59.25 2 0  60 2 0  0 2.5 0  0.75 2.5 0  1.5 2.5 0  2.25 2.5 0  3 2.5 0  3.75 2.5 0  4.5 2.5 0  5.25 2.5 0  6 2.5 0  6.75 2.5 0  7.5 2.5 0  8.25 2.5 0  9 2.5 0  9.75 2.5 0  10.5 2.5 0  11.25 2.5 0  12 2.5 0  12.75 2.5 0  13.5 2.5 0  14.25 2.5 0  15 2.5 0  15.75 2.5 0  16.5 2.5 0  17.25 2.5 0  18 2.5 0  18.75 2.5 0  19.5 2.5 0  20.25 2.5 0  21 2.5 0  21.75 2.5 0  22.5 2.5 0  23.25 2.5 0  24 2.5 0  24.75 2.5 0  25.5 2.5 0  26.25 2.5 0  27 2.5 0  27.75 2.5 0  28.5 2.5 0  29.25 2.5 0  30 2.5 0  30.75 2.5 0  31.5 2.5 0  32.25 2.5 0  33 2.5 0  33.75 2.5 0  34.5 2.5 0  35.25 2.5 0  36 2.5 0  36.75 2.5 0  37.5 2.5 0  38.25 2.5 0  39 2.5 0  39.75 2.5 0  40.5 2.5 0  41.25 2.5 0  42 2.5 0  42.75 2.5 0  43.5 2.5 0  44.25 2.5 0  45 2.5 0  45.75 2.5 0  46.5 2.5 0  47.25 2.5 0  48 2.5 0  48.75 2.5 0  49.5 2.5 0  50.25 2.5 0  51 2.5 0  51.75 2.5 0  52.5 2.5 0  53.25 2.5 0  54 2.5 0  54.75 2.5 0  55.5 2.5 0  56.25 2.5 0  57 2.5 0  57.75 2.5 0  58.5 2.5 0  59.25 2.5 0  60 2.5 0  0 3 0  0.75 3 0  1.5 3 0  2.25 3 0  3 3 0  3.75 3 0  4.5 3 0  5.25 3 0  6 3 0  6.75 3 0  7.5 3 0  8.25 3 0  9 3 0  9.75 3 0  10.5 3 0  11.25 3 0  12 3 0  12.75 3 0  13.5 3 0  14.25 3 0  15 3 0  15.75 3 0  16.5 3 0  17.25 3 0  18 3 0  18.75 3 0  19.5 3 0  20.25 3 0  21 3 0  21.75 3 0  22.5 3 0  23.25 3 0  24 3 0  24.75 3 0  25.5 3 0  26.25 3 0  27 3 0  27.75 3 0  28.5 3 0  29.25 3 0  30 3 0  30.75 3 0  31.5 3 0  32.25 3 0  33 3 0  33.75 3 0  34.5 3 0  35.25 3 0  36 3 0  36.75 3 0  37.5 3 0  38.25 3 0  39 3 0  39.75 3 0  40.5 3 0  41.25 3 0  42 3 0  42.75 3 0  43.5 3 0  44.25 3 0  45 3 0  45.75 3 0  46.5 3 0  47.25 3 0  48 3 0  48.75 3 0  49.5 3 0  50.25 3 0  51 3 0  51.75 3 0  52.5 3 0  53.25 3 0  54 3 0  54.75 3 0  55.5 3 0  56.25 3 0  57 3 0  57.75 3 0  58.5 3 0  59.25 3 0  60 3 0  0 3.5 0  0.75 3.5 0  1.5 3.5 0  2.25 3.5 0  3 3.5 0  3.75 3.5 0  4.5 3.5 0  5.25 3.5 0  6 3.5 0  6.75 3.5 0  7.5 3.5 0  8.25 3.5 0  9 3.5 0  9.75 3.5 0  10.5 3.5 0  11.25 3.5 0  12 3.5 0  12.75 3.5 0  13.5 3.5 0  14.25 3.5 0  15 3.5 0  15.75 3.5 0  16.5 3.5 0  17.25 3.5 0  18 3.5 0  18.75 3.5 0  19.5 3.5 0  20.25 3.5 0  21 3.5 0  21.75 3.5 0  22.5 3.5 0  23.25 3.5 0  24 3.5 0  24.75 3.5 0  25.5 3.5 0  26.25 3.5 0  27 3.5 0  27.75 3.5 0  28.5 3.5 0  29.25 3.5 0  30 3.5 0  30.75 3.5 0  31.5 3.5 0  32.25 3.5 0  33 3.5 0  33.75 3.5 0  34.5 3.5 0  35.25 3.5 0  36 3.5 0  36.75 3.5 0  37.5 3.5 0  38.25 3.5 0  39 3.5 0  39.75 3.5 0  40.5 3.5 0  41.25 3.5 0  42 3.5 0  42.75 3.5 0  43.5 3.5 0  44.25 3.5 0  45 3.5 0  45.75 3.5 0  46.5 3.5 0  47.25 3.5 0  48 3.5 0  48.75 3.5 0  49.5 3.5 0  50.25 3.5 0  51 3.5 0  51.75 3.5 0  52.5 3.5 0  53.25 3.5 0  54 3.5 0  54.75 3.5 0  55.5 3.5 0  56.25 3.5 0  57 3.5 0  57.75 3.5 0  58.5 3.5 0  59.25 3.5 0  60 3.5 0  0 4 0  0.75 4 0  1.5 4 0  2.25 4 0  3 4 0  3.75 4 0  4.5 4 0  5.25 4 0  6 4 0  6.75 4 0  7.5 4 0  8.25 4 0  9 4 0  9.75 4 0  10.5 4 0  11.25 4 0  12 4 0  12.75 4 0  13.5 4 0  14.25 4 0  15 4 0  15.75 4 0  16.5 4 0  17.25 4 0  18 4 0  18.75 4 0  19.5 4 0  20.25 4 0  21 4 0  21.75 4 0  22.5 4 0  23.25 4 0  24 4 0  24.75 4 0  25.5 4 0  26.25 4 0  27 4 0  27.75 4 0  28.5 4 0  29.25 4 0  30 4 0  30.75 4 0  31.5 4 0  32.25 4 0  33 4 0  33.75 4 0  34.5 4 0  35.25 4 0  36 4 0  36.75 4 0  37.5 4 0  38.25 4 0  39 4 0  39.75 4 0  40.5 4 0  41.25 4 0  42 4 0  42.75 4 0  43.5 4 0  44.25 4 0  45 4 0  45.75 4 0  46.5 4 0  47.25 4 0  48 4 0  48.75 4 0  49.5 4 0  50.25 4 0  51 4 0  51.75 4 0  52.5 4 0  53.25 4 0  54 4 0  54.75 4 0  55.5 4 0  56.25 4 0  57 4 0  57.75 4 0  58.5 4 0  59.25 4 0  60 4 0  0.375 0.25 0  1.125 0.25 0  1.875 0.25 0  2.625 0.25 0  3.375 0.25 0  4.125 0.25 0  4.875 0.25 0  5.625 0.25 0  6.375 0.25 0  7.125 0.25 0  7.875 0.25 0  8.625 0.25 0  9.375 0.25 0  10.125 0.25 0  10.875 0.25 0  11.625 0.25 0  12.375 0.25 0  13.125 0.25 0  13.875 0.25 0  14.625 0.25 0  15.375 0.25 0  16.125 0.25 0  16.875 0.25 0  17.625 0.25 0  18.375 0.25 0  19.125 0.25 0  19.875 0.25 0  20.625 0.25 0  21.375 0.25 0  22.125 0.25 0  22.875 0.25 0  23.625 0.25 0  24.375 0.25 0  25.125 0.25 0  25.875 0.25 0  26.625 0.25 0  27.375 0.25 0  28.125 0.25 0  28.875 0.25 0  29.625 0.25 0  30.375 0.25 0  31.125 0.25 0  31.875 0.25 0  32.625 0.25 0  33.375 0.25 0  34.125 0.25 0  34.875 0.25 0  35.625 0.25 0  36.375 0.25 0  37.125 0.25 0  37.875 0.25 0  38.625 0.25 0  39.375 0.25 0  40.125 0.25 0  40.875 0.25 0  41.625 0.25 0  42.375 0.25 0  43.125 0.25 0  43.875 0.25 0  44.625 0.25 0  45.375 0.25 0  46.125 0.25 0  46.875 0.25 0  47.625 0.25 0  48.375 0.25 0  49.125 0.25 0  49.875 0.25 0  50.625 0.25 0  51.375 0.25 0  52.125 0.25 0  52.875 0.25 0  53.625 0.25 0  54.375 0.25 0  55.125 0.25 0  55.875 0.25 0  56.625 0.25 0  57.375 0.25 0  58.125 0.25 0  58.875 0.25 0  59.625 0.25 0  0.375 0.75 0  1.125 0.75 0  1.875 0.75 0  2.625 0.75 0  3.375 0.75 0  4.125 0.75 0  4.875 0.75 0  5.625 0.75 0  6.375 0.75 0  7.125 0.75 0  7.875 0.75 0  8.625 0.75 0  9.375 0.75 0  10.125 0.75 0  10.875 0.75 0  11.625 0.75 0  12.375 0.75 0  13.125 0.75 0  13.875 0.75 0  14.625 0.75 0  15.375 0.75 0  16.125 0.75 0  16.875 0.75 0  17.625 0.75 0  18.375 0.75 0  19.125 0.75 0  19.875 0.75 0  20.625 0.75 0  21.375 0.75 0  22.125 0.75 0  22.875 0.75 0  23.625 0.75 0  24.375 0.75 0  25.125 0.75 0  25.875 0.75 0  26.625 0.75 0  27.375 0.75 0  28.125 0.75 0  28.875 0.75 0  29.625 0.75 0  30.375 0.75 0  31.125 0.75 0  31.875 0.75 0  32.625 0.75 0  33.375 0.75 0  34.125 0.75 0  34.875 0.75 0  35.625 0.75 0  36.375 0.75 0  37.125 0.75 0  37.875 0.75 0  38.625 0.75 0  39.375 0.75 0  40.125 0.75 0  40
[...]
<PointData  Vectors="f_8-0"> 
<DataArray  type="Float64"  Name="f_8-0"  NumberOfComponents="3" format="ascii">0.0000000000000000e+00 0.0000000000000000e+00 0.0000000000000000e+00  0.0000000000000000e+00 0.0000000000000000e+00 0.0000000000000000e+00  0.0000000000000000e+00 0.0000000000000000e+00 0.0000000000000000e+00  0.0000000000000000e+00 0.0000000000000000e+00 0.0000000000000000e+00  0.0000000000000000e+00 0.0000000000000000e+00 0.0000000000000000e+00  0.0000000000000000e+00 0.0000000000000000e+00 0.0000000000000000e+00  0.0000000000000000e+00 0.0000000000000000e+00 0.0000000000000000e+00  0.0000000000000000e+00 0.0000000000000000e+00 0.0000000000000000e+00  0.0000000000000000e+00 0.0000000000000000e+00 0.0000000000000000e+00  0.0000000000000000e+00 0.0000000000000000e+00 0.0000000000000000e+00  0.0000000000000000e+00 0.0000000000000000e+00 0.0000000000000000e+00  0.0000000000000000e+00 0.0000000000000000e+00 0.0000000000000000e+00  0.0000000000000000e+00 0.0000000000000000e+00 0.0000000000000000e+00  0.0000000000000000e+00 0.0000000000000000e+00 0.0000000000000000e+00  0.0000000000000000e+00 0.0000000000000000e+00 0.0000000000000000e+00  0.0000000000000000e+00 0.0000000000000000e+00 0.0000000000000000e+00  0.0000000000000000e+00 0.0000000000000000e+00 0.0000000000000000e+00  0.0000000000000000e+00 0.0000000000000000e+00 0.0000000000000000e+00  0.0000000000000000e+00 0.0000000000000000e+00 0.0000000000000000e+00  0.0000000000000000e+00 0.0000000000000000e+00 0.0000000000000000e+00  0.0000000000000000e+00 0.0000000000000000e+00 0.0000000000000000e+00  0.0000000000000000e+00 0.0000000000000000e+00 0.0000000000000000e+00  0.0000000000000000e+00 0.0000000000000000e+00 0.0000000000000000e+00  0.0000000000000000e+00 0.0000000000000000e+00 0.0000000000000000e+00  0.0000000000000000e+00 0.0000000000000000e+00 0.0000000000000000e+00  0.0000000000000000e+00 0.0000000000000000e+00 0.0000000000000000e+00  0.0000000000000000e+00 0.0000000000000000e+00 0.0000000000000000e+00  0.0000000000000000e+00 0.0000000000000000e+00 0.0000000000000000e+00  0.0000000000000000e+00 0.0000000000000000e+00 0.0000000000000000e+00  0.0000000000000000e+00 0.0000000000000000e+00 0.0000000000000000e+00  0.0000000000000000e+00 0.0000000000000000e+00 0.0000000000000000e+00  0.0000000000000000e+00 0.0000000000000000e+00 0.0000000000000000e+00  0.0000000000000000e+00 0.0000000000000000e+00 0.0000000000000000e+00  0.0000000000000000e+00 0.0000000000000000e+00 0.0000000000000000e+00  0.0000000000000000e+00 0.0000000000000000e+00 0.0000000000000000e+00  0.0000000000000000e+00 0.0000000000000000e+00 0.0000000000000000e+00  0.0000000000000000e+00 0.0000000000000000e+00 0.0000000000000000e+00  0.0000000000000000e+00 0.0000000000000000e+00 0.0000000000000000e+00  0.0000000000000000e+00 0.0000000000000000e+00 0.0000000000000000e+00  0.0000000000000000e+00 0.0000000000000000e+00 0.0000000000000000e+00  0.0000000000000000e+00 0.0000000000000000e+00 0.0000000000000000e+00  0.0000000000000000e+00 0.0000000000000000e+00 0.0000000000000000e+00  0.0000000000000000e+00 0.0000000000000000e+00 0.0000000000000000e+00  0.0000000000000000e+00 0.0000000000000000e+00 0.0000000000000000e+00  0.0000000000000000e+00 0.0000000000000000e+00 0.0000000000000000e+00  0.0000000000000000e+00 0.0000000000000000e+00 0.0000000000000000e+00  0.0000000000000000e+00 0.0000000000000000e+00 0.0000000000000000e+00  0.0000000000000000e+00 0.0000000000000000e+00 0.0000000000000000e+00  0.0000000000000000e+00 0.0000000000000000e+00 0.0000000000000000e+00  0.0000000000000000e+00 0.0000000000000000e+00 0.0000000000000000e+00  0.0000000000000000e+00 0.0000000000000000e+00 0.0000000000000000e+00  0.0000000000000000e+00 0.0000000000000000e+00 0.0000000000000000e+00  0.0000000000000000e+00 0.0000000000000000e+00 0.0000000000000000e+00  0.0000000000000000e+00 0.0000000000000000e+00 0.0000000000000000e+00  0.0000000000000000e+00 0.0000000000000000e+00 0.0000000000000000e+00  0.0000000000000000e+00 0.0000000000000000e+00 0.0000000000000000e+00  0.0000000000000000e+00 0.0000000000000000e+00 0.0000000000000000e+00  0.0000000000000000e+00 0.0000000000000000e+00 0.0000000000000000e+00  0.0000000000000000e+00 0.0000000000000000e+00 0.0000000000000000e+00  0.0000000000000000e+00 0.0000000000000000e+00 0.0000000000000000e+00  0.0000000000000000e+00 0.0000000000000000e+00 0.0000000000000000e+00  0.0000000000000000e+00 0.0000000000000000e+00 0.0000000000000000e+00  0.0000000000000000e+00 0.0000000000000000e+00 0.0000000000000000e+00  0.0000000000000000e+00 0.0000000000000000e+00 0.0000000000000000e+00  0.0000000000000000e+00 0.0000000000000000e+00 0.0000000000000000e+00  0.0000000000000000e+00 0.0000000000000000e+00 0.0000000000000000e+00  0.0000000000000000e+00 0.0000000000000000e+00 0.0000000000000000e+00  0.0000000000000000e+00 0.0000000000000000e+00 0.0000000000000000e+00  0.0000000000000000e+00 0.0000000000000000e+00 0.0000000000000000e+00  0.0000000000000000e+00 0.0000000000000000e+00 0.0000000000000000e+00  0.0000000000000000e+00 0.0000000000000000e+00 0.0000000000000000e+00  0.0000000000000000e+00 0.0000000000000000e+00 0.0000000000000000e+00  0.0000000000000000e+00 0.0000000000000000e+00 0.0000000000000000e+00  0.0000000000000000e+00 0.0000000000000000e+00 0.0000000000000000e+00  0.0000000000000000e+00 0.0000000000000000e+00 0.0000000000000000e+00  0.0000000000000000e+00 0.0000000000000000e+00 0.0000000000000000e+00  0.0000000000000000e+00 0.0000000000000000e+00 0.0000000000000000e+00  0.0000000000000000e+00 0.0000000000000000e+00 0.0000000000000000e+00  0.0000000000000000e+00 0.0000000000000000e+00 0.0000000000000000e+00  0.0000000000000000e+00 0.0000000000000000e+00 0.0000000000000000e+00  0.0000000000000000e+00 0.0000000000000000e+00 0.0000000000000000e+00  2.2186180534473163e+01 0.0000000000000000e+00 0.0000000000000000e+00  2.2243774613916251e+01 -5.4876478395886538e-02 0.0000000000000000e+00  2.2235936263211691e+01 -1.8595271709612383e-02 0.0000000000000000e+00  2.2240765431459010e+01 -4.1244489904256072e-03 0.0000000000000000e+00  2.2243578608694481e+01 -4.6056244752536776e-03 0.0000000000000000e+00  2.2243556740464609e+01 -2.9750286509214146e-03 0.0000000000000000e+00  2.2247518025716420e+01 -5.3009192500847162e-03 0.0000000000000000e+00  2.2251315266066996e+01 -5.3689661216845715e-03 0.0000000000000000e+00  2.2257368288508989e+01 -5.8877555685560587e-03 0.0000000000000000e+00  2.2262062957856628e+01 -5.4137117425595033e-03 0.0000000000000000e+00  2.2265986577597044e+01 -4.9930845660111555e-03 0.0000000000000000e+00  2.2268294426915944e+01 -4.4776494371380352e-03 0.0000000000000000e+00  2.2269638902472220e+01 -4.1745231407642139e-03 0.0000000000000000e+00  2.2270268738349206e+01 -4.0275687709515956e-03 0.0000000000000000e+00  2.2270569269483278e+01 -3.9503255953977530e-03 0.0000000000000000e+00  2.2270729470419816e+01 -3.9403286180335183e-03 0.0000000000000000e+00  2.2270810735486343e+01 -3.9153493917964194e-03 0.0000000000000000e+00  2.2270878672616075e+01 -3.9207837916022358e-03 0.0000000000000000e+00  2.2270911763027016e+01 -3.9059247808953704e-03 0.0000000000000000e+00  2.2270946789927603e+01 -3.9104497093826436e-03 0.0000000000000000e+00  2.2270960676008308e+01 -3.9015438563035874e-03 0.0000000000000000e+00  2.2270978004928828e+01 -3.9047138715856619e-03 0.0000000000000000e+00  2.2270983430104497e+01 -3.8998273731514696e-03 0.0000000000000000e+00  2.2270991836928371e+01 -3.9018671586644859e-03 0.0000000000000000e+00  2.2270994011369041e+01 -3.8993144880607056e-03 0.0000000000000000e+00  2.2270998206819993e+01 -3.9004929420109954e-03 0.0000000000000000e+00  2.2270999244153419e+01 -3.8991990162178447e-03 0.0000000000000000e+00  2.2271001440751679e+01 -3.8998152392412948e-03 0.0000000000000000e+00  2.2271002070697168e+01 -3.8991801068716269e-03 0.0000000000000000e+00  2.2271003289433690e+01 -3.8994768008236997e-03 0.0000000000000000e+00  2.2271003753771396e+01 -3.8991773020212498e-03 0.0000000000000000e+00  2.2271004490904843e+01 -3.8993106211081077e-03 0.0000000000000000e+00  2.2271004878645986e+01 -3.8991752312314779e-03 0.0000000000000000e+00  2.2271005382816060e+01 -3.8992310325783033e-03 0.0000000000000000e+00  2.2271005730245491e+01 -3.8991714108001833e-03 0.0000000000000000e+00  2.2271006121208334e+01 -3.8991920704088009e-03 0.0000000000000000e+00  2.2271006440882282e+01 -3.8991651766819681e-03 0.0000000000000000e+00  2.2271006770907373e+01 -3.8991704383948625e-03 0.0000000000000000e+00  2.2271007064828293e+01 -3.8991568538563246e-03 0.0000000000000000e+00  2.2271007354322911e+01 -3.8991556103521517e-03 0.0000000000000000e+00  2.2271007621188719e+01 -3.8991471389082329e-03 0.0000000000000000e+00  2.2271007877072098e+01 -3.8991431987490453e-03 0.0000000000000000e+00  2.2271008114931064e+01 -3.8991365667092066e-03 0.0000000000000000e+00  2.2271008338842947e+01 -3.8991316048433270e-03 0.0000000000000000e+00  2.2271008546342841e+01 -3.8991258219412410e-03 0.0000000000000000e+00  2.2271008739230240e+01 -3.8991208388197167e-03 0.0000000000000000e+00  2.2271008917197936e+01 -3.8991158283252468e-03 0.0000000000000000e+00  2.2271009081528561e+01 -3.8991113742270311e-03 0.0000000000000000e+00  2.2271009232899857e+01 -3.8991072535445722e-03 0.0000000000000000e+00  2.2271009372732603e+01 -3.8991037399063542e-03 0.0000000000000000e+00  2.2271009502468832e+01 -3.8991007987212094e-03 0.0000000000000000e+00  2.2271009623876665e+01 -3.8990984798022658e-03 0.0000000000000000e+00  2.2271009738584254e+01 -3.8990966713284016e-03 0.0000000000000000e+00  2.2271009848044148e+01 -3.8990952990348086e-03 0.0000000000000000e+00  2.2271009953454570e+01 -3.8990942896540005e-03 0.0000000000000000e+00  2.2271010055901005e+01 -3.8990936430597350e-03 0.0000000000000000e+00  2.2271010156455866e+01 -3.8990933277253310e-03 0.0000000000000000e+00  2.2271010256128328e+01 -3.8990933208389723e-03 0.0000000000000000e+00  2.2271010355755951e+01 -3.8990934392005346e-03 0.0000000000000000e+00  2.2271010455751910e+01 -3.8990936427041900e-03 0.0000000000000000e+00  2.2271010556200647e+01 -3.8990936828893043e-03 0.0000000000000000e+00  2.2271010656900906e+01 -3.8990939446713214e-03 0.0000000000000000e+00  2.2271010758219582e+01 -3.8990945096183879e-03 0.0000000000000000e+00  2.2271010861864035e+01 -3.8990972624806447e-03 0.0000000000000000e+00  2.2271010973607670e+01 -3.8991040975336695e-03 0.0000000000000000e+00  2.2271011107469729e+01 -3.8991228033699826e-03 0.0000000000000000e+00  2.2271011296464195e+01 -3.8991649941781956e-03 0.0000000000000000e+00  2.2271011614581425e+01 -3.8992649965483741e-03 0.0000000000000000e+00  2.2271012225239520e+01 -3.8994817739481818e-03 0.0000000000000000e+00  2.2271013478873979e+01 -3.8999608460223534e-03 0.0000000000000000e+00  2.2271016121688550e+01 -3.9009922243656817e-03 0.0000000000000000e+00  2.2271021749699930e+01 -3.9032791363003941e-03 0.0000000000000000e+00  2.2271033707750195e+01 -3.9082393842095687e-03 0.0000000000000000e+00  2.2271058956752146e+01 -3.9191430689548357e-03 0.0000000000000000e+00  2.2271113289164820e+01 -3.9439501279638538e-03 0.0000000000000000e+00  2.2271237203411374e+01 -4.0009370078572326e-03 0.0000000000000000e+00  2.2271543438572291e+01 -4.1234349077213751e-03 0.0000000000000000e+00  2.2272416427713729e+01 -4.3546838146850415e-03 0.0000000000000000e+00  2.2275320469617935e+01 -4.5553975991998895e-03 0.0000000000000000e+00  2.2289091279752746e+01 -1.7939080675129426e-03 0.0000000000000000e+00  2.2324016022392371e+01 0.0000000000000000e+00 0.0000000000000000e+00  3.2593852196741935e+01 0.0000000000000000e+00 0.0000000000000000e+00  3.2610811816148122e+01 3.2276605977879659e-02 0.0000000000000000e+00  3.2580114469061719e+01 -1.4122095774763671e-04 0.0000000000000000e+00  3.2578337577207783e+01 5.8048763815695828e-03 0.0000000000000000e+00  3.2573640851063331e+01 3.1822913314896446e-03 0.0000000000000000e+00  3.2576101142014245e+01 6.8383179732082393e-04 0.0000000000000000e+00  3.2576459359524577e+01 -3.5754378862656156e-04 0.0000000000000000e+00  3.2578842487644813e+01 -2.5753257079974478e-03 0.0000000000000000e+00  3.2581649672647920e+01 -2.9848927375924522e-03 0.0000000000000000e+00  3.2586438822526546e+01 -2.2534069879375806e-03 0.0000000000000000e+00  3.2590054360346251e+01 -6.0216127523676766e-04 0.0000000000000000e+00  3.2592885586784284e+01 8.0559645386532347e-04 0.0000000000000000e+00  3.2594425905273958e+01 1.8276331014213728e-03 0.0000000000000000e+00  3.2595381405914715e+01 2.3925813593474897e-03 0.0000000000000000e+00  3.2595815109412300e+01 2.6625252825184320e-03 0.0000000000000000e+00  3.2596068495420717e+01 2.7934162571135869e-03 0.0000000000000000e+00  3.2596186088205584e+01 2.8400254779149484e-03 0.0000000000000000e+00  3.2596261775349674e+01 2.8782587705840873e-03 0.0000000000000000e+00  3.2596309884733287e+01 2.8881988924368291e-03 0.0000000000000000e+00  3.2596338665586622e+01 2.9077574390855509e-03 0.0000000000000000e+00  3.2596363811519389e+01 2.9105527782092469e-03 0.0000000000000000e+00  3.2596374964325243e+01 2.9214137891990784e-03 0.0000000000000000e+00  3.2596388137871280e+01 2.9216556513558729e-03 0.0000000000000000e+00  3.2596392037867858e+01 2.9273016193356537e-03 0.0000000000000000e+00  3.2596398864030377e+01 2.9268065582698359e-03 0.0000000000000000e+00  3.2596400160532163e+01 2.9296289537399833e-03 0.0000000000000000e+00  3.2596403793148149e+01 2.9291593812864510e-03 0.0000000000000000e+00  3.2596404330222605e+01 2.9305514623341506e-03 0.0000000000000000e+00  3.2596406353269373e+01 2.9302709059324766e-03 0.0000000000000000e+00  3.2596406726363846e+01 2.9309471421815744e-03 0.0000000000000000e+00  3.2596407922435553e+01 2.9308110093935152e-03 0.0000000000000000e+00  3.2596408284029714e+01 2.9311301325660477e-03 0.0000000000000000e+00  3.2596409059314070e+01 2.9310723810129060e-03 0.0000000000000000e+00  3.2596409436396925e+01 2.9312182237347241e-03 0.0000000000000000e+00  3.2596410006395196e+01 2.9311981894051525e-03 0.0000000000000000e+00  3.2596410395811617e+01 2.9312655049637502e-03 0.0000000000000000e+00  3.2596410867276759e+01 2.9312640479544840e-03 0.0000000000000000e+00  3.2596411257339703e+01 2.9312989924101785e-03 0.0000000000000000e+00  3.2596411675746438e+01 2.9313070374216875e-03 0.0000000000000000e+00  3.2596412053880343e+01 2.9313299075414165e-03 0.0000000000000000e+00  3.2596412434963796e+01 2.9313429246894066e-03 0.0000000000000000e+00  3.2596412790944825e+01 2.9313620507615246e-03 0.0000000000000000e+00  3.2596413137455592e+01 2.9313780175929875e-03 0.0000000000000000e+00  3.2596413462742547e+01 2.9313965461684808e-03 0.0000000000000000e+00  3.2596413771756268e+01 2.9314139109060363e-03 0.0000000000000000e+00  3.2596414059876160e+01 2.9314317874839894e-03 0.0000000000000000e+00  3.2596414329064245e+01 2.9314486477204920e-03 0.0000000000000000e+00  3.2596414578071141e+01 2.9314649943162113e-03 0.0000000000000000e+00  3.2596414808030438e+01 2.9314801453747051e-03 0.0000000000000000e+00  3.2596415019217901e+01 2.9314939509546283e-03 0.0000000000000000e+00  3.2596415213302308e+01 2.9315058491381617e-03 0.0000000000000000e+00  3.2596415392247103e+01 2.9315157080965159e-03 0.0000000000000000e+00  3.2596415558640679e+01 2.9315235914337098e-03 0.0000000000000000e+00  3.2596415714791526e+01 2.9315298364740693e-03 0.0000000000000000e+00  3.2596415862659121e+01 2.9315347229737507e-03 0.0000000000000000e+00  3.2596416003805139e+01 2.9315383215167976e-03 0.0000000000000000e+00  3.2596416139805527e+01 2.9315406458913875e-03 0.0000000000000000e+00  3.2596416272420107e+01 2.9315416114906608e-03 0.0000000000000000e+00  3.2596416403540161e+01 2.9315416744479885e-03 0.0000000000000000e+00  3.2596416534719822e+01 2.9315410064174158e-03 0.0000000000000000e+00  3.2596416666820843e+01 2.9315406758831076e-03 0.0000000000000000e+00  3.2596416799669647e+01 2.9315400607529823e-03 0.0000000000000000e+00  3.2596416932333881e+01 2.9315399570576852e-03 0.0000000000000000e+00  3.2596417063088154e+01 2.9315365227697058e-03 0.0000000000000000e+00  3.2596417190124988e+01 2.9315281086663030e-03 0.0000000000000000e+00  3.2596417310638877e+01 2.9315004669330908e-03 0.0000000000000000e+00  3.2596417421369352e+01 2.9314388135871232e-03 0.0000000000000000e+00  3.2596417514793870e+01 2.9312856641407386e-03 0.0000000000000000e+00  3.2596417576675158e+01 2.9309579727694909e-03 0.0000000000000000e+00  3.2596417572986390e+01 2.9302284711680169e-03 0.0000000000000000e+00  3.2596417463980067e+01 2.9286507414650713e-03 0.0000000000000000e+00  3.2596417236118342e+01 2.9250114776381109e-03 0.0000000000000000e+00  3.2596416925757090e+01 2.9171231621107721e-03 0.0000000000000000e+00  3.2596416393754062e+01 2.9005371745379899e-03 0.0000000000000000e+00  3.2596415768364352e+01 2.8635385932486439e-03 0.0000000000000000e+00  3.2596421831799390e+01 2.7748617872272933e-03 0.0000000000000000e+00  3.2596456949126249e+01 2.5794090389239972e-03 0.0000000000000000e+00  3.2596577021682670e+01 2.1180367146347739e-03 0.0000000000000000e+00  3.2597071116177105e+01 1.0134409039302208e-03 0.0000000000000000e+00  3.2597013889527950e+01 -2.0048009658237172e-03 0.0000000000000000e+00  3.2586508706807933e+01 0.0000000000000000e+00 0.0000000000000000e+00  3.4070243381483230e+01 0.0000000000000000e+00 0.0000000000000000e+00  3.4039733901859954e+01 -1.8341714145474038e-02 0.0000000000000000e+00  3.4046892419345383e+01 1.0742384108865296e-03 0.0000000000000000e+00  3.4044341854584943e+01 -1.2859016088610899e-03 0.0000000000000000e+00  3.4052556856312663e+01 1.1240782269164489e-03 0.0000000000000000e+00  3.4048139835930961e+01 3.0416576524486662e-04 0.0000000000000000e+00  3.4047401716155157e+01 -8.7766522590194290e-04 0.0000000000000000e+00  3.4040855620018547e+01 -2.0618637794460348e-03 0.0000000000000000e+00  3.4035732890556169e+01 -3.9662059173677421e-03 0.0000000000000000e+00  3.4029617703992628e+01 -3.7618134241735163e-03 0.0000000000000000e+00  3.4026111114828112e+01 -2.5172256247645913e-03 0.0000000000000000e+00  3.4023459331062845e+01 -1.0236733638862492e-03 0.0000000000000000e+00  3.4022276899636793e+01 4.4141343721506332e-05 0.0000000000000000e+00  3.4021524186759436e+01 6.8061257823423841e-04 0.0000000000000000e+00  3.4021246140306651e+01 1.0132277137601441e-03 0.0000000000000000e+00  3.4021056974113122e+01 1.1593176350724321e-03 0.0000000000000000e+00  3.4020973611143013e+01 1.2382427850358094e-03 0.0000000000000000e+00  3.4020911305045331e+01 1.2678259204993555e-03 0.0000000000000000e+00  3.4020868692862194e+01 1.2948052382664159e-03 0.0000000000000000e+00  3.4020845160729493e+01 1.3039196381929060e-03 0.0000000000000000e+00  3.4020821190366178e+01 1.3174627805876262e-03 0.0000000000000000e+00  3.4020813599475012e+01 1.3209715427281393e-03 0.0000000000000000e+00  3.4020800645567554e+01 1.3279184760012917e-03 0.0000000000000000e+00  3.4020799047766673e+01 1.3290446476579934e-03 0.0000000000000000e+00  3.4020792183181676e+01 1.3324004292327946e-03 0.0000000000000000e+00  3.4020792345817569e+01 1.3326481784967574e-03 0.0000000000000000e+00  3.4020788768928142e+01 1.3342263321593321e-03 0.0000000000000000e+00  3.4020789249175699e+01 1.3342497680933448e-03 0.0000000000000000e+00  3.4020787476346115e+01 1.3349922922262856e-03 0.0000000000000000e+00  3.4020787912660950e+01 1.3349869389145045e-03 0.0000000000000000e+00  3.4020787133019887e+01 1.3353347254357166e-03 0.0000000000000000e+00  3.4020787488374189e+01 1.3353334783105029e-03 0.0000000000000000e+00  3.4020787241791787e+01 1.3354923427782166e-03 0.0000000000000000e+00  3.4020787547105279e+01 1.3354942343431144e-03 0.0000000000000000e+00  3.4020787576942205e+01 1.3355657140334484e-03 0.0000000000000000e+00  3.4020787862385063e+01 1.3355712634407007e-03 0.0000000000000000e+00  3.4020788030372707e+01 1.3356074954563512e-03 0.0000000000000000e+00  3.4020788310937199e+01 1.3356185741479195e-03 0.0000000000000000e+00  3.4020788543570021e+01 1.3356436082319868e-03 0.0000000000000000e+00  3.4020788822247873e+01 1.3356602229615553e-03 0.00000000