<?xml version="1.0"?>
<VTKFile type="UnstructuredGrid"  version="0.1"  >
<UnstructuredGrid>
<Piece  NumberOfPoints="1369" NumberOfCells="2560">
<Points>
<DataArray  type="Float64"  NumberOfComponents="3"  format="ascii">0 0 0  0.75 0 0  1.5 0 0  2.25 0 0  3 0 0  3.75 0 0  4.5 0 0  5.25 0 0  6 0 0  6.75 0 0  7.5 0 0  8.25 0 0  9 0 0  9.75 0 0  10.5 0 0  11.25 0 0  12 0 0  12.75 0 0  13.5 0 0  14.25 0 0  15 0 0  15.75 0 0  16.5 0 0  17.25 0 0  18 0 0  18.75 0 0  19.5 0 0  20.25 0 0  21 0 0  21.75 0 0  22.5 0 0  23.25 0 0  24 0 0  24.75 0 0  25.5 0 0  26.25 0 0  27 0 0  27.75 0 0  28.5 0 0  29.25 0 0  30 0 0  30.75 0 0  31.5 0 0  32.25 0 0  33 0 0  33.75 0 0  34.5 0 0  35.25 0 0  36 0 0  36.75 0 0  37.5 0 0  38.25 0 0  39 0 0  39.75 0 0  40.5 0 0  41.25 0 0  42 0 0  42.75 0 0  43.5 0 0  44.25 0 0  45 0 0  45.75 0 0  46.5 0 0  47.25 0 0  48 0 0  48.75 0 0  49.5 0 0  50.25 0 0  51 0 0  51.75 0 0  52.5 0 0  53.25 0 0  54 0 0  54.75 0 0  55.5 0 0  56.25 0 0  57 0 0  57.75 0 0  58.5 0 0  59.25 0 0  60 0 0  0 0.5 0  0.75 0.5 0  1.5 0.5 0  2.25 0.5 0  3 0.5 0  3.75 0.5 0  4.5 0.5 0  5.25 0.5 0  6 0.5 0  6.75 0.5 0  7.5 0.5 0  8.25 0.5 0  9 0.5 0  9.75 0.5 0  10.5 0.5 0  11.25 0.5 0  12 0.5 0  12.75 0.5 0  13.5 0.5 0  14.25 0.5 0  15 0.5 0  15.75 0.5 0  16.5 0.5 0  17.25 0.5 0  18 0.5 0  18.75 0.5 0  19.5 0.5 0  20.25 0.5 0  21 0.5 0  21.75 0.5 0  22.5 0.5 0  23.25 0.5 0  24 0.5 0  24.75 0.5 0  25.5 0.5 0  26.25 0.5 0  27 0.5 0  27.75 0.5 0  28.5 0.5 0  29.25 0.5 0  30 0.5 0  30.75 0.5 0  31.5 0.5 0  32.25 0.5 0  33 0.5 0  33.75 0.5 0  34.5 0.5 0  35.25 0.5 0  36 0.5 0  36.75 0.5 0  37.5 0.5 0  38.25 0.5 0  39 0.5 0  39.75 0.5 0  40.5 0.5 0  41.25 0.5 0  42 0.5 0  42.75 0.5 0  43.5 0.5 0  44.25 0.5 0  45 0.5 0  45.75 0.5 0  46.5 0.5 0  47.25 0.5 0  48 0.5 0  48.75 0.5 0  49.5 0.5 0  50.25 0.5 0  51 0.5 0  51.75 0.5 0  52.5 0.5 0  53.25 0.5 0  54 0.5 0  54.75 0.5 0  55.5 0.5 0  56.25 0.5 0  57 0.5 0  57.75 0.5 0  58.5 0.5 0  59.25 0.5 0  60 0.5 0  0 1 0  0.75 1 0  1.5 1 0  2.25 1 0  3 1 0  3.75 1 0  4.5 1 0  5.25 1 0  6 1 0  6.75 1 0  7.5 1 0  8.25 1 0  9 1 0  9.75 1 0  10.5 1 0  11.25 1 0  12 1 0  12.75 1 0  13.5 1 0  14.25 1 0  15 1 0  15.75 1 0  16.5 1 0  17.25 1 0  18 1 0  18.75 1 0  19.5 1 0  20.25 1 0  21 1 0  21.75 1 0  22.5 1 0  23.25 1 0  24 1 0  24.75 1 0  25.5 1 0  26.25 1 0  27 1 0  27.75 1 0  28.5 1 0  29.25 1 0  30 1 0  30.75 1 0  31.5 1 0  32.25 1 0  33 1 0  33.75 1 0  34.5 1 0  35.25 1 0  36 1 0  36.75 1 0  37.5 1 0  38.25 1 0  39 1 0  39.75 1 0  40.5 1 0  41.25 1 0  42 1 0  42.75 1 0  43.5 1 0  44.25 1 0  45 1 0  45.75 1 0  46.5 1 0  47.25 1 0  48 1 0  48.75 1 0  49.5 1 0  50.25 1 0  51 1 0  51.75 1 0  52.5 1 0  53.25 1 0  54 1 0  54.75 1 0  55.5 1 0  56.25 1 0  57 1 0  57.75 1 0  58.5 1 0  59.25 1 0  60 1 0  0 1.5 0  0.75 1.5 0  1.5 1.5 0  2.25 1.5 0  3 1.5 0  3.75 1.5 0  4.5 1.5 0  5.25 1.5 0  6 1.5 0  6.75 1.5 0  7.5 1.5 0  8.25 1.5 0  9 1.5 0  9.75 1.5 0  10.5 1.5 0  11.25 1.5 0  12 1.5 0  12.75 1.5 0  13.5 1.5 0  14.25 1.5 0  15 1.5 0  15.75 1.5 0  16.5 1.5 0  17.25 1.5 0  18 1.5 0  18.75 1.5 0  19.5 1.5 0  20.25 1.5 0  21 1.5 0  21.75 1.5 0  22.5 1.5 0  23.25 1.5 0  24 1.5 0  24.75 1.5 0  25.5 1.5 0  26.25 1.5 0  27 1.5 0  27.75 1.5 0  28.5 1.5 0  29.25 1.5 0  30 1.5 0  30.75 1.5 0  31.5 1.5 0  32.25 1.5 0  33 1.5 0  33.75 1.5 0  34.5 1.5 0  35.25 1.5 0  36 1.5 0  36.75 1.5 0  37.5 1.5 0  38.25 1.5 0  39 1.5 0  39.75 1.5 0  40.5 1.5 0  41.25 1.5 0  42 1.5 0  42.75 1.5 0  43.5 1.5 0  44.25 1.5 0  45 1.5 0  45.75 1.5 0  46.5 1.5 0  47.25 1.5 0  48 1.5 0  48.75 1.5 0  49.5 1.5 0  50.25 1.5 0  51 1.5 0  51.75 1.5 0  52.5 1.5 0  53.25 1.5 0  54 1.5 0  54.75 1.5 0  55.5 1.5 0  56.25 1.5 0  57 1.5 0  57.75 1.5 0  58.5 1.5 0  59.25 1.5 0  60 1.5 0  0 2 0  0.75 2 0  1.5 2 0  2.25 2 0  3 2 0  3.75 2 0  4.5 2 0  5.25 2 0  6 2 0  6.75 2 0  7.5 2 0  8.25 2 0  9 2 0  9.75 2 0  10.5 2 0  11.25 2 0  12 2 0  12.75 2 0  13.5 2 0  14.25 2 0  15 2 0  15.75 2 0  16.5 2 0  17.25 2 0  18 2 0  18.75 2 0  19.5 2 0  20.25 2 0  21 2 0  21.75 2 0  22.5 2 0  23.25 2 0  24 2 0  24.75 2 0  25.5 2 0  26.25 2 0  27 2 0  27.75 2 0  28.5 2 0  29.25 2 0  30 2 0  30.75 2 0  31.5 2 0  32.25 2 0  33 2 0  33.75 2 0  34.5 2 0  35.25 2 0  36 2 0  36.75 2 0  37.5 2 0  38.25 2 0  39 2 0  39.75 2 0  40.5 2 0  41.25 2 0  42 2 0  42.75 2 0  43.5 2 0  44.25 2 0  45 2 0  45.75 2 0  46.5 2 0  47.25 2 0  48 2 0  48.75 2 0  49.5 2 0  50.25 2 0  51 2 0  51.75 2 0  52.5 2 0  53.25 2 0  54 2 0  54.75 2 0  55.5 2 0  56.25 2 0  57 2 0  57.75 2 0  58.5 2 0  59.25 2 0  60 2 0  0 2.5 0  0.75 2.5 0  1.5 2.5 0  2.25 2.5 0  3 2.5 0  3.75 2.5 0  4.5 2.5 0  5.25 2.5 0  6 2.5 0  6.75 2.5 0  7.5 2.5 0  8.25 2.5 0  9 2.5 0  9.75 2.5 0  10.5 2.5 0  11.25 2.5 0  12 2.5 0  12.75 2.5 0  13.5 2.5 0  14.25 2.5 0  15 2.5 0  15.75 2.5 0  16.5 2.5 0  17.25 2.5 0  18 2.5 0  18.75 2.5 0  19.5 2.5 0  20.25 2.5 0  21 2.5 0  21.75 2.5 0  22.5 2.5 0  23.25 2.5 0  24 2.5 0  24.75 2.5 0  25.5 2.5 0  26.25 2.5 0  27 2.5 0  27.75 2.5 0  28.5 2.5 0  29.25 2.5 0  30 2.5 0  30.75 2.5 0  31.5 2.5 0  32.25 2.5 0  33 2.5 0  33.75 2.5 0  34.5 2.5 0  35.25 2.5 0  36 2.5 0  36.75 2.5 0  37.5 2.5 0  38.25 2.5 0  39 2.5 0  39.75 2.5 0  40.5 2.5 0  41.25 2.5 0  42 2.5 0  42.75 2.5 0  43.5 2.5 0  44.25 2.5 0  45 2.5 0  45.75 2.5 0  46.5 2.5 0  47.25 2.5 0  48 2.5 0  48.75 2.5 0  49.5 2.5 0  50.25 2.5 0  51 2.5 0  51.75 2.5 0  52.5 2.5 0  53.25 2.5 0  54 2.5 0  54.75 2.5 0  55.5 2.5 0  56.25 2.5 0  57 2.5 0  57.75 2.5 0  58.5 2.5 0  59.25 2.5 0  60 2.5 0  0 3 0  0.75 3 0  1.5 3 0  2.25 3 0  3 3 0  3.75 3 0  4.5 3 0  5.25 3 0  6 3 0  6.75 3 0  7.5 3 0  8.25 3 0  9 3 0  9.75 3 0  10.5 3 0  11.25 3 0  12 3 0  12.75 3 0  13.5 3 0  14.25 3 0  15 3 0  15.75 3 0  16.5 3 0  17.25 3 0  18 3 0  18.75 3 0  19.5 3 0  20.25 3 0  21 3 0  21.75 3 0  22.5 3 0  23.25 3 0  24 3 0  24.75 3 0  25.5 3 0  26.25 3 0  27 3 0  27.75 3 0  28.5 3 0  29.25 3 0  30 3 0  30.75 3 0  31.5 3 0  32.25 3 0  33 3 0  33.75 3 0  34.5 3 0  35.25 3 0  36 3 0  36.75 3 0  37.5 3 0  38.25 3 0  39 3 0  39.75 3 0  40.5 3 0  41.25 3 0  42 3 0  42.75 3 0  43.5 3 0  44.25 3 0  45 3 0  45.75 3 0  46.5 3 0  47.25 3 0  48 3 0  48.75 3 0  49.5 3 0  50.25 3 0  51 3 0  51.75 3 0  52.5 3 0  53.25 3 0  54 3 0  54.75 3 0  55.5 3 0  56.25 3 0  57 3 0  57.75 3 0  58.5 3 0  59.25 3 0  60 3 0  0 3.5 0  0.75 3.5 0  1.5 3.5 0  2.25 3.5 0  3 3.5 0  3.75 3.5 0  4.5 3.5 0  5.25 3.5 0  6 3.5 0  6.75 3.5 0  7.5 3.5 0  8.25 3.5 0  9 3.5 0  9.75 3.5 0  10.5 3.5 0  11.25 3.5 0  12 3.5 0  12.75 3.5 0  13.5 3.5 0  14.25 3.5 0  15 3.5 0  15.75 3.5 0  16.5 3.5 0  17.25 3.5 0  18 3.5 0  18.75 3.5 0  19.5 3.5 0  20.25 3.5 0  21 3.5 0  21.75 3.5 0  22.5 3.5 0  23.25 3.5 0  24 3.5 0  24.75 3.5 0  25.5 3.5 0  26.25 3.5 0  27 3.5 0  27.75 3.5 0  28.5 3.5 0  29.25 3.5 0  30 3.5 0  30.75 3.5 0  31.5 3.5 0  32.25 3.5 0  33 3.5 0  33.75 3.5 0  34.5 3.5 0  35.25 3.5 0  36 3.5 0  36.75 3.5 0  37.5 3.5 0  38.25 3.5 0  39 3.5 0  39.75 3.5 0  40.5 3.5 0  41.25 3.5 0  42 3.5 0  42.75 3.5 0  43.5 3.5 0  44.25 3.5 0  45 3.5 0  45.75 3.5 0  46.5 3.5 0  47.25 3.5 0  48 3.5 0  48.75 3.5 0  49.5 3.5 0  50.25 3.5 0  51 3.5 0  51.75 3.5 0  52.5 3.5 0  53.25 3.5 0  54 3.5 0  54.75 3.5 0  55.5 3.5 0  56.25 3.5 0  57 3.5 0  57.75 3.5 0  58.5 3.5 0  59.25 3.5 0  60 3.5 0  0 4 0  0.75 4 0  1.5 4 0  2.25 4 0  3 4 0  3.75 4 0  4.5 4 0  5.25 4 0  6 4 0  6.75 4 0  7.5 4 0  8.25 4 0  9 4 0  9.75 4 0  10.5 4 0  11.25 4 0  12 4 0  12.75 4 0  13.5 4 0  14.25 4 0  15 4 0  15.75 4 0  16.5 4 0  17.25 4 0  18 4 0  18.75 4 0  19.5 4 0  20.25 4 0  21 4 0  21.75 4 0  22.5 4 0  23.25 4 0  24 4 0  24.75 4 0  25.5 4 0  26.25 4 0  27 4 0  27.75 4 0  28.5 4 0  29.25 4 0  30 4 0  30.75 4 0  31.5 4 0  32.25 4 0  33 4 0  33.75 4 0  34.5 4 0  35.25 4 0  36 4 0  36.75 4 0  37.5 4 0  38.25 4 0  39 4 0  39.75 4 0  40.5 4 0  41.25 4 0  42 4 0  42.75 4 0  43.5 4 0  44.25 4 0  45 4 0  45.75 4 0  46.5 4 0  47.25 4 0  48 4 0  48.75 4 0  49.5 4 0  50.25 4 0  51 4 0  51.75 4 0  52.5 4 0  53.25 4 0  54 4 0  54.75 4 0  55.5 4 0  56.25 4 0  57 4 0  57.75 4 0  58.5 4 0  59.25 4 0  60 4 0  0.375 0.25 0  1.125 0.25 0  1.875 0.25 0  2.625 0.25 0  3.375 0.25 0  4.125 0.25 0  4.875 0.25 0  5.625 0.25 0  6.375 0.25 0  7.125 0.25 0  7.875 0.25 0  8.625 0.25 0  9.375 0.25 0  10.125 0.25 0  10.875 0.25 0  11.625 0.25 0  12.375 0.25 0  13.125 0.25 0  13.875 0.25 0  14.625 0.25 0  15.375 0.25 0  16.125 0.25 0  16.875 0.25 0  17.625 0.25 0  18.375 0.25 0  19.125 0.25 0  19.875 0.25 0  20.625 0.25 0  21.375 0.25 0  22.125 0.25 0  22.875 0.25 0  23.625 0.25 0  24.375 0.25 0  25.125 0.25 0  25.875 0.25 0  26.625 0.25 0  27.375 0.25 0  28.125 0.25 0  28.875 0.25 0  29.625 0.25 0  30.375 0.25 0  31.125 0.25 0  31.875 0.25 0  32.625 0.25 0  33.375 0.25 0  34.125 0.25 0  34.875 0.25 0  35.625 0.25 0  36.375 0.25 0  37.125 0.25 0  37.875 0.25 0  38.625 0.25 0  39.375 0.25 0  40.125 0.25 0  40.875 0.25 0  41.625 0.25 0  42.375 0.25 0  43.125 0.25 0  43.875 0.25 0  44.625 0.25 0  45.375 0.25 0  46.125 0.25 0  46.875 0.25 0  47.625 0.25 0  48.375 0.25 0  49.125 0.25 0  49.875 0.25 0  50.625 0.25 0  51.375 0.25 0  52.125 0.25 0  52.875 0.25 0  53.625 0.25 0  54.375 0.25 0  55.125 0.25 0  55.875 0.25 0  56.625 0.25 0  57.375 0.25 0  58.125 0.25 0  58.875 0.25 0  59.625 0.25 0  0.375 0.75 0  1.125 0.75 0  1.875 0.75 0  2.625 0.75 0  3.375 0.75 0  4.125 0.75 0  4.875 0.75 0  5.625 0.75 0  6.375 0.75 0  7.125 0.75 0  7.875 0.75 0  8.625 0.75 0  9.375 0.75 0  10.125 0.75 0  10.875 0.75 0  11.625 0.75 0  12.375 0.75 0  13.125 0.75 0  13.875 0.75 0  14.625 0.75 0  15.375 0.75 0  16.125 0.75 0  16.875 0.75 0  17.625 0.75 0  18.375 0.75 0  19.125 0.75 0  19.875 0.75 0  20.625 0.75 0  21.375 0.75 0  22.125 0.75 0  22.875 0.75 0  23.625 0.75 0  24.375 0.75 0  25.125 0.75 0  25.875 0.75 0  26.625 0.75 0  27.375 0.75 0  28.125 0.75 0  28.875 0.75 0  29.625 0.75 0  30.375 0.75 0  31.125 0.75 0  31.875 0.75 0  32.625 0.75 0  33.375 0.75 0  34.125 0.75 0  34.875 0.75 0  35.625 0.75 0  36.375 0.75 0  37.125 0.75 0  37.875 0.75 0  38.625 0.75 0  39.375 0.75 0  40.125 0.75 0  40
[...]
<PointData  Vectors="f_8-0"> 
<DataArray  type="Float64"  Name="f_8-0"  NumberOfComponents="3" format="ascii">0.0000000000000000e+00 0.0000000000000000e+00 0.0000000000000000e+00  0.0000000000000000e+00 0.0000000000000000e+00 0.0000000000000000e+00  0.0000000000000000e+00 0.0000000000000000e+00 0.0000000000000000e+00  0.0000000000000000e+00 0.0000000000000000e+00 0.0000000000000000e+00  0.0000000000000000e+00 0.0000000000000000e+00 0.0000000000000000e+00  0.0000000000000000e+00 0.0000000000000000e+00 0.0000000000000000e+00  0.0000000000000000e+00 0.0000000000000000e+00 0.0000000000000000e+00  0.0000000000000000e+00 0.0000000000000000e+00 0.0000000000000000e+00  0.0000000000000000e+00 0.0000000000000000e+00 0.0000000000000000e+00  0.0000000000000000e+00 0.0000000000000000e+00 0.0000000000000000e+00  0.0000000000000000e+00 0.0000000000000000e+00 0.0000000000000000e+00  0.0000000000000000e+00 0.0000000000000000e+00 0.0000000000000000e+00  0.0000000000000000e+00 0.0000000000000000e+00 0.0000000000000000e+00  0.0000000000000000e+00 0.0000000000000000e+00 0.0000000000000000e+00  0.0000000000000000e+00 0.0000000000000000e+00 0.0000000000000000e+00  0.0000000000000000e+00 0.0000000000000000e+00 0.0000000000000000e+00  0.0000000000000000e+00 0.0000000000000000e+00 0.0000000000000000e+00  0.0000000000000000e+00 0.0000000000000000e+00 0.0000000000000000e+00  0.0000000000000000e+00 0.0000000000000000e+00 0.0000000000000000e+00  0.0000000000000000e+00 0.0000000000000000e+00 0.0000000000000000e+00  0.0000000000000000e+00 0.0000000000000000e+00 0.0000000000000000e+00  0.0000000000000000e+00 0.0000000000000000e+00 0.0000000000000000e+00  0.0000000000000000e+00 0.0000000000000000e+00 0.0000000000000000e+00  0.0000000000000000e+00 0.0000000000000000e+00 0.0000000000000000e+00  0.0000000000000000e+00 0.0000000000000000e+00 0.0000000000000000e+00  0.0000000000000000e+00 0.0000000000000000e+00 0.0000000000000000e+00  0.0000000000000000e+00 0.0000000000000000e+00 0.0000000000000000e+00  0.0000000000000000e+00 0.0000000000000000e+00 0.0000000000000000e+00  0.0000000000000000e+00 0.0000000000000000e+00 0.0000000000000000e+00  0.0000000000000000e+00 0.0000000000000000e+00 0.0000000000000000e+00  0.0000000000000000e+00 0.0000000000000000e+00 0.0000000000000000e+00  0.0000000000000000e+00 0.0000000000000000e+00 0.0000000000000000e+00  0.0000000000000000e+00 0.0000000000000000e+00 0.0000000000000000e+00  0.0000000000000000e+00 0.0000000000000000e+00 0.0000000000000000e+00  0.0000000000000000e+00 0.0000000000000000e+00 0.0000000000000000e+00  0.0000000000000000e+00 0.0000000000000000e+00 0.0000000000000000e+00  0.0000000000000000e+00 0.0000000000000000e+00 0.0000000000000000e+00  0.0000000000000000e+00 0.0000000000000000e+00 0.0000000000000000e+00  0.0000000000000000e+00 0.0000000000000000e+00 0.0000000000000000e+00  0.0000000000000000e+00 0.0000000000000000e+00 0.0000000000000000e+00  0.0000000000000000e+00 0.0000000000000000e+00 0.0000000000000000e+00  0.0000000000000000e+00 0.0000000000000000e+00 0.0000000000000000e+00  0.0000000000000000e+00 0.0000000000000000e+00 0.0000000000000000e+00  0.0000000000000000e+00 0.0000000000000000e+00 0.0000000000000000e+00  0.0000000000000000e+00 0.0000000000000000e+00 0.0000000000000000e+00  0.0000000000000000e+00 0.0000000000000000e+00 0.0000000000000000e+00  0.0000000000000000e+00 0.0000000000000000e+00 0.0000000000000000e+00  0.0000000000000000e+00 0.0000000000000000e+00 0.0000000000000000e+00  0.0000000000000000e+00 0.0000000000000000e+00 0.0000000000000000e+00  0.0000000000000000e+00 0.0000000000000000e+00 0.0000000000000000e+00  0.0000000000000000e+00 0.0000000000000000e+00 0.0000000000000000e+00  0.0000000000000000e+00 0.0000000000000000e+00 0.0000000000000000e+00  0.0000000000000000e+00 0.0000000000000000e+00 0.0000000000000000e+00  0.0000000000000000e+00 0.0000000000000000e+00 0.0000000000000000e+00  0.0000000000000000e+00 0.0000000000000000e+00 0.0000000000000000e+00  0.0000000000000000e+00 0.0000000000000000e+00 0.0000000000000000e+00  0.0000000000000000e+00 0.0000000000000000e+00 0.0000000000000000e+00  0.0000000000000000e+00 0.0000000000000000e+00 0.0000000000000000e+00  0.0000000000000000e+00 0.0000000000000000e+00 0.0000000000000000e+00  0.0000000000000000e+00 0.0000000000000000e+00 0.0000000000000000e+00  0.0000000000000000e+00 0.0000000000000000e+00 0.0000000000000000e+00  0.0000000000000000e+00 0.0000000000000000e+00 0.0000000000000000e+00  0.0000000000000000e+00 0.0000000000000000e+00 0.0000000000000000e+00  0.0000000000000000e+00 0.0000000000000000e+00 0.0000000000000000e+00  0.0000000000000000e+00 0.0000000000000000e+00 0.0000000000000000e+00  0.0000000000000000e+00 0.0000000000000000e+00 0.0000000000000000e+00  0.0000000000000000e+00 0.0000000000000000e+00 0.0000000000000000e+00  0.0000000000000000e+00 0.0000000000000000e+00 0.0000000000000000e+00  0.0000000000000000e+00 0.0000000000000000e+00 0.0000000000000000e+00  0.0000000000000000e+00 0.0000000000000000e+00 0.0000000000000000e+00  0.0000000000000000e+00 0.0000000000000000e+00 0.0000000000000000e+00  0.0000000000000000e+00 0.0000000000000000e+00 0.0000000000000000e+00  0.0000000000000000e+00 0.0000000000000000e+00 0.0000000000000000e+00  0.0000000000000000e+00 0.0000000000000000e+00 0.0000000000000000e+00  0.0000000000000000e+00 0.0000000000000000e+00 0.0000000000000000e+00  0.0000000000000000e+00 0.0000000000000000e+00 0.0000000000000000e+00  0.0000000000000000e+00 0.0000000000000000e+00 0.0000000000000000e+00  0.0000000000000000e+00 0.0000000000000000e+00 0.0000000000000000e+00  0.0000000000000000e+00 0.0000000000000000e+00 0.0000000000000000e+00  0.0000000000000000e+00 0.0000000000000000e+00 0.0000000000000000e+00  0.0000000000000000e+00 0.0000000000000000e+00 0.0000000000000000e+00  -1.7224234764929424e+01 0.0000000000000000e+00 0.0000000000000000e+00  -1.7208668820737312e+01 1.4523836592523244e-03 0.0000000000000000e+00  -1.7163590811648820e+01 -2.0223217074313522e-02 0.0000000000000000e+00  -1.7052154932845443e+01 -5.2703655470542426e-02 0.0000000000000000e+00  -1.6895254153388937e+01 -7.2065269629547984e-02 0.0000000000000000e+00  -1.6741858008788721e+01 -6.7378577349231319e-02 0.0000000000000000e+00  -1.6630514928988433e+01 -4.7299208412380424e-02 0.0000000000000000e+00  -1.6572393808656287e+01 -2.3818321096034718e-02 0.0000000000000000e+00  -1.6559131651047462e+01 -4.9007508295831545e-03 0.0000000000000000e+00  -1.6575586906462842e+01 7.5422767727583362e-03 0.0000000000000000e+00  -1.6607916499354083e+01 1.4213226433406220e-02 0.0000000000000000e+00  -1.6646201691495438e+01 1.6910926148640468e-02 0.0000000000000000e+00  -1.6684340112733910e+01 1.7121888111632583e-02 0.0000000000000000e+00  -1.6719090714095383e+01 1.6026764423822514e-02 0.0000000000000000e+00  -1.6749055748518298e+01 1.4332361203258044e-02 0.0000000000000000e+00  -1.6773955739613523e+01 1.2496928797960367e-02 0.0000000000000000e+00  -1.6794082435946372e+01 1.0740311182664681e-02 0.0000000000000000e+00  -1.6810001288841601e+01 9.1802875592134434e-03 0.0000000000000000e+00  -1.6822348492668862e+01 7.8471848117257666e-03 0.0000000000000000e+00  -1.6831751386148756e+01 6.7433537601961600e-03 0.0000000000000000e+00  -1.6838766320196132e+01 5.8439737155920567e-03 0.0000000000000000e+00  -1.6843876909785791e+01 5.1250415744879306e-03 0.0000000000000000e+00  -1.6847489304342233e+01 4.5587533169981339e-03 0.0000000000000000e+00  -1.6849945165449959e+01 4.1215906983285326e-03 0.0000000000000000e+00  -1.6851520093712463e+01 3.7881953666612125e-03 0.0000000000000000e+00  -1.6852434221410871e+01 3.5377959715059732e-03 0.0000000000000000e+00  -1.6852860500791671e+01 3.3528742455150237e-03 0.0000000000000000e+00  -1.6852940189876186e+01 3.2221349555633305e-03 0.0000000000000000e+00  -1.6852790331487796e+01 3.1366140301448925e-03 0.0000000000000000e+00  -1.6852508715722067e+01 3.0889682007763943e-03 0.0000000000000000e+00  -1.6852172291263404e+01 3.0708395415125229e-03 0.0000000000000000e+00  -1.6851836811456394e+01 3.0737957868046152e-03 0.0000000000000000e+00  -1.6851536814599367e+01 3.0894365032287778e-03 0.0000000000000000e+00  -1.6851289131563245e+01 3.1109363269449788e-03 0.0000000000000000e+00  -1.6851097165450007e+01 3.1331899505390071e-03 0.0000000000000000e+00  -1.6850956151471699e+01 3.1532126380182570e-03 0.0000000000000000e+00  -1.6850857216817197e+01 3.1695548445491678e-03 0.0000000000000000e+00  -1.6850790598856278e+01 3.1820008863206683e-03 0.0000000000000000e+00  -1.6850747328528819e+01 3.1909282681619245e-03 0.0000000000000000e+00  -1.6850720135505409e+01 3.1970434230730541e-03 0.0000000000000000e+00  -1.6850703528585228e+01 3.2010496257840640e-03 0.0000000000000000e+00  -1.6850693649936041e+01 3.2035870768185341e-03 0.0000000000000000e+00  -1.6850687895504311e+01 3.2051364035169260e-03 0.0000000000000000e+00  -1.6850684602405078e+01 3.2060590672268506e-03 0.0000000000000000e+00  -1.6850682732364703e+01 3.2065907398024967e-03 0.0000000000000000e+00  -1.6850681669497508e+01 3.2068920298894705e-03 0.0000000000000000e+00  -1.6850681050594424e+01 3.2070571846667664e-03 0.0000000000000000e+00  -1.6850680673439598e+01 3.2071471595326220e-03 0.0000000000000000e+00  -1.6850680423411745e+01 3.2071942698557077e-03 0.0000000000000000e+00  -1.6850680240581930e+01 3.2072192387796192e-03 0.0000000000000000e+00  -1.6850680091614439e+01 3.2072317358207720e-03 0.0000000000000000e+00  -1.6850679960409614e+01 3.2072383410845732e-03 0.0000000000000000e+00  -1.6850679837897779e+01 3.2072415442908246e-03 0.0000000000000000e+00  -1.6850679720332820e+01 3.2072434115171422e-03 0.0000000000000000e+00  -1.6850679605506297e+01 3.2072444551471267e-03 0.0000000000000000e+00  -1.6850679493012620e+01 3.2072453958737236e-03 0.0000000000000000e+00  -1.6850679382734839e+01 3.2072463198381377e-03 0.0000000000000000e+00  -1.6850679275424714e+01 3.2072475834790740e-03 0.0000000000000000e+00  -1.6850679172054104e+01 3.2072492779464789e-03 0.0000000000000000e+00  -1.6850679074435853e+01 3.2072517301876399e-03 0.0000000000000000e+00  -1.6850678984755767e+01 3.2072551755175931e-03 0.0000000000000000e+00  -1.6850678907135357e+01 3.2072601235590913e-03 0.0000000000000000e+00  -1.6850678844159429e+01 3.2072669280019477e-03 0.0000000000000000e+00  -1.6850678810104970e+01 3.2072769717085932e-03 0.0000000000000000e+00  -1.6850678788552059e+01 3.2072890702565791e-03 0.0000000000000000e+00  -1.6850678876602224e+01 3.2073119156614317e-03 0.0000000000000000e+00  -1.6850678817806077e+01 3.2073220453130696e-03 0.0000000000000000e+00  -1.6850679490063534e+01 3.2074026196827897e-03 0.0000000000000000e+00  -1.6850678329939658e+01 3.2072972313869183e-03 0.0000000000000000e+00  -1.6850682891386892e+01 3.2077687305768544e-03 0.0000000000000000e+00  -1.6850672449028728e+01 3.2066430876767876e-03 0.0000000000000000e+00  -1.6850700768447822e+01 3.2092309601055823e-03 0.0000000000000000e+00  -1.6850639188638503e+01 3.2036653784156218e-03 0.0000000000000000e+00  -1.6850764274436877e+01 3.2050110899366634e-03 0.0000000000000000e+00  -1.6850562270255310e+01 3.2187415477898103e-03 0.0000000000000000e+00  -1.6850781849298436e+01 3.0494443891981651e-03 0.0000000000000000e+00  -1.6850851887538067e+01 3.2631591153533738e-03 0.0000000000000000e+00  -1.6850113151106193e+01 2.1064108329584960e-03 0.0000000000000000e+00  -1.6864115958827846e+01 1.6025740479010554e-02 0.0000000000000000e+00  -1.6875124667353138e+01 4.4187862459004475e-02 0.0000000000000000e+00  -1.6873203378803982e+01 0.0000000000000000e+00 0.0000000000000000e+00  -1.0432982145540148e+01 0.0000000000000000e+00 0.0000000000000000e+00  -1.0443501995838783e+01 -1.7012493835171325e-02 0.0000000000000000e+00  -1.0417741175699602e+01 -6.8947789882146920e-02 0.0000000000000000e+00  -1.0385247367397948e+01 -1.2087831330119947e-01 0.0000000000000000e+00  -1.0368412862071663e+01 -1.3714868044360734e-01 0.0000000000000000e+00  -1.0383254116134811e+01 -1.1016776619238829e-01 0.0000000000000000e+00  -1.0428794664986048e+01 -6.1930259418210155e-02 0.0000000000000000e+00  -1.0493923950345268e+01 -1.5249061042201500e-02 0.0000000000000000e+00  -1.0565569392271518e+01 1.7898396232377978e-02 0.0000000000000000e+00  -1.0634659482442082e+01 3.6608543414033315e-02 0.0000000000000000e+00  -1.0696150434789907e+01 4.3946510261010811e-02 0.0000000000000000e+00  -1.0748275678197960e+01 4.4154042485545691e-02 0.0000000000000000e+00  -1.0790938826841369e+01 4.0330966583545028e-02 0.0000000000000000e+00  -1.0825047362056168e+01 3.4801568903141067e-02 0.0000000000000000e+00  -1.0851794488895617e+01 2.8818385195494935e-02 0.0000000000000000e+00  -1.0872492223997769e+01 2.3181182046628404e-02 0.0000000000000000e+00  -1.0888316758290387e+01 1.8171185715553827e-02 0.0000000000000000e+00  -1.0900300668997319e+01 1.3932207008262918e-02 0.0000000000000000e+00  -1.0909277800310210e+01 1.0421671002544512e-02 0.0000000000000000e+00  -1.0915937492464968e+01 7.5880242992799780e-03 0.0000000000000000e+00  -1.0920811699745293e+01 5.3176926629035460e-03 0.0000000000000000e+00  -1.0924320004792438e+01 3.5315115594812068e-03 0.0000000000000000e+00  -1.0926783929943761e+01 2.1398040501604109e-03 0.0000000000000000e+00  -1.0928462653248818e+01 1.0784116659840670e-03 0.0000000000000000e+00  -1.0929555729104164e+01 2.7545615601788810e-04 0.0000000000000000e+00  -1.0930218162216555e+01 -3.2104807660068857e-04 0.0000000000000000e+00  -1.0930565089624118e+01 -7.5696365026259402e-04 0.0000000000000000e+00  -1.0930687603378802e+01 -1.0590805288743894e-03 0.0000000000000000e+00  -1.0930658526546104e+01 -1.2512302233487992e-03 0.0000000000000000e+00  -1.0930538991172547e+01 -1.3520085714457638e-03 0.0000000000000000e+00  -1.0930376920425241e+01 -1.3838675097194544e-03 0.0000000000000000e+00  -1.0930207735709645e+01 -1.3678296580545259e-03 0.0000000000000000e+00  -1.0930053464626086e+01 -1.3248186725840203e-03 0.0000000000000000e+00  -1.0929925385639557e+01 -1.2706251900441727e-03 0.0000000000000000e+00  -1.0929826265337550e+01 -1.2169465145149502e-03 0.0000000000000000e+00  -1.0929753975008683e+01 -1.1699262844938878e-03 0.0000000000000000e+00  -1.0929703759960642e+01 -1.1324172344410715e-03 0.0000000000000000e+00  -1.0929670394086054e+01 -1.1043240405400540e-03 0.0000000000000000e+00  -1.0929649029095733e+01 -1.0845111629472818e-03 0.0000000000000000e+00  -1.0929635825834650e+01 -1.0711061049054730e-03 0.0000000000000000e+00  -1.0929627894332963e+01 -1.0624489138790327e-03 0.0000000000000000e+00  -1.0929623265007894e+01 -1.0570164842650346e-03 0.0000000000000000e+00  -1.0929620614168222e+01 -1.0537433850896034e-03 0.0000000000000000e+00  -1.0929619127594730e+01 -1.0518064162856786e-03 0.0000000000000000e+00  -1.0929618296292716e+01 -1.0507056103748341e-03 0.0000000000000000e+00  -1.0929617832813435e+01 -1.0500831248864714e-03 0.0000000000000000e+00  -1.0929617564909570e+01 -1.0497476226813021e-03 0.0000000000000000e+00  -1.0929617403414555e+01 -1.0495638440009684e-03 0.0000000000000000e+00  -1.0929617295238401e+01 -1.0494700076688064e-03 0.0000000000000000e+00  -1.0929617215924083e+01 -1.0494191593439066e-03 0.0000000000000000e+00  -1.0929617150057702e+01 -1.0493948051466773e-03 0.0000000000000000e+00  -1.0929617091937232e+01 -1.0493810689707983e-03 0.0000000000000000e+00  -1.0929617037226938e+01 -1.0493748726089725e-03 0.0000000000000000e+00  -1.0929616985137450e+01 -1.0493705541980128e-03 0.0000000000000000e+00  -1.0929616934604040e+01 -1.0493682120493709e-03 0.0000000000000000e+00  -1.0929616886135342e+01 -1.0493654640051898e-03 0.0000000000000000e+00  -1.0929616839936731e+01 -1.0493627275060709e-03 0.0000000000000000e+00  -1.0929616797208354e+01 -1.0493586367348201e-03 0.0000000000000000e+00  -1.0929616759232539e+01 -1.0493532087037796e-03 0.0000000000000000e+00  -1.0929616728285248e+01 -1.0493452203191745e-03 0.0000000000000000e+00  -1.0929616707373929e+01 -1.0493339803972792e-03 0.0000000000000000e+00  -1.0929616700802127e+01 -1.0493179557219971e-03 0.0000000000000000e+00  -1.0929616715144439e+01 -1.0492950188813589e-03 0.0000000000000000e+00  -1.0929616757246299e+01 -1.0492640980995481e-03 0.0000000000000000e+00  -1.0929616844820270e+01 -1.0492162798256576e-03 0.0000000000000000e+00  -1.0929616973972777e+01 -1.0491665410654848e-03 0.0000000000000000e+00  -1.0929617231837549e+01 -1.0490439643268364e-03 0.0000000000000000e+00  -1.0929617437057139e+01 -1.0490572217299223e-03 0.0000000000000000e+00  -1.0929618280654667e+01 -1.0485103939152269e-03 0.0000000000000000e+00  -1.0929617840118864e+01 -1.0495360695700561e-03 0.0000000000000000e+00  -1.0929621921791783e+01 -1.0457595143256765e-03 0.0000000000000000e+00  -1.0929614702257867e+01 -1.0553744760768004e-03 0.0000000000000000e+00  -1.0929639009950213e+01 -1.0294032226761298e-03 0.0000000000000000e+00  -1.0929590690088615e+01 -1.0901743759169314e-03 0.0000000000000000e+00  -1.0929723940254721e+01 -9.5324962012743322e-04 0.0000000000000000e+00  -1.0929549616414365e+01 -1.1727818968580825e-03 0.0000000000000000e+00  -1.0930242424416450e+01 -6.6733634968884107e-04 0.0000000000000000e+00  -1.0930978871974473e+01 7.8343551723410079e-04 0.0000000000000000e+00  -1.0929542565065631e+01 1.0263064779654642e-02 0.0000000000000000e+00  -1.0906338367088443e+01 1.6764236887591209e-03 0.0000000000000000e+00  -1.0935860051718796e+01 0.0000000000000000e+00 0.0000000000000000e+00  -2.7524971891047523e+00 0.0000000000000000e+00 0.0000000000000000e+00  -2.7683763933517569e+00 -1.3103206769772804e-02 0.0000000000000000e+00  -2.8071470758588859e+00 -4.7753645558645398e-02 0.0000000000000000e+00  -2.8936080952570533e+00 -8.1684425447468775e-02 0.0000000000000000e+00  -3.0107736759815014e+00 -8.7886686776465509e-02 0.0000000000000000e+00  -3.1201440415011419e+00 -6.0809420651771320e-02 0.0000000000000000e+00  -3.1926183295638437e+00 -1.8046486727746468e-02 0.0000000000000000e+00  -3.2222574989083812e+00 2.0736609360567450e-02 0.0000000000000000e+00  -3.2187556986756949e+00 4.6073989928549358e-02 0.0000000000000000e+00  -3.1953041350782843e+00 5.7824552511242695e-02 0.0000000000000000e+00  -3.1627356281370855e+00 5.9618739520969910e-02 0.0000000000000000e+00  -3.1279859649716437e+00 5.5488195233464849e-02 0.0000000000000000e+00  -3.0949960978729205e+00 4.8477948359594389e-02 0.0000000000000000e+00  -3.0656217449727938e+00 4.0602566278370500e-02 0.0000000000000000e+00  -3.0405707528216124e+00 3.2985999255482928e-02 0.0000000000000000e+00  -3.0198386804280144e+00 2.6203867285512331e-02 0.0000000000000000e+00  -3.0031077064658387e+00 2.0441834780703837e-02 0.0000000000000000e+00  -2.9898809542259497e+00 1.5695262455218077e-02 0.0000000000000000e+00  -2.9796347429046066e+00 1.1862153586557369e-02 0.0000000000000000e+00  -2.9718449274172967e+00 8.8172984726239828e-03 0.0000000000000000e+00  -2.9660516681139533e+00 6.4192881885483041e-03 0.0000000000000000e+00  -2.9618487302728607e+00 4.5464826513895735e-03 0.0000000000000000e+00  -2.9588966843774944e+00 3.0981114396292043e-03 0.0000000000000000e+00  -2.9569058306747951e+00 1.9953394495859250e-03 0.0000000000000000e+00  -2.9556448243113911e+00 1.1664190264423680e-03 0.0000000000000000e+00  -2.9549284071313076e+00 5.5075062846160602e-04 0.0000000000000000e+00  -2.9546131263082551e+00 9.9898774966522186e-05 0.0000000000000000e+00  -2.9545808575846046e+00 -2.1865984452067630e-04 0.0000000000000000e+00  -2.9547340814850114e+00 -4.2806279396740050e-04 0.0000000000000000e+00  -2.9549905352666070e+00 -5.4700667120536760e-04 0.0000000000000000e+00  -2.9552862181010582e+00 -5.9517892620806318e-04 0.0000000000000000e+00  -2.9555750664380276e+00 -5.9293486451454376e-04 0.0000000000000000e+00  -2.9558295789789009e+00 -5.6010057456942091e-04 0.0000000000000000e+00  -2.9560370482459848e+00 -5.1309685945337934e-04 0.0000000000000000e+00  -2.9561960767771898e+00 -4.6391653598628593e-04 0.0000000000000000e+00  -2.9563116590640091e+00 -4.1967755140971588e-04 0.0000000000000000e+00  -2.9563919669130092e+00 -3.8367891826214968e-04 0.0000000000000000e+00  -2.956445