<?xml version="1.0"?>
<VTKFile type="UnstructuredGrid"  version="0.1"  >
<UnstructuredGrid>
<Piece  NumberOfPoints="1369" NumberOfCells="2560">
<Points>
<DataArray  type="Float64"  NumberOfComponents="3"  format="ascii">0 0 0  0.75 0 0  1.5 0 0  2.25 0 0  3 0 0  3.75 0 0  4.5 0 0  5.25 0 0  6 0 0  6.75 0 0  7.5 0 0  8.25 0 0  9 0 0  9.75 0 0  10.5 0 0  11.25 0 0  12 0 0  12.75 0 0  13.5 0 0  14.25 0 0  15 0 0  15.75 0 0  16.5 0 0  17.25 0 0  18 0 0  18.75 0 0  19.5 0 0  20.25 0 0  21 0 0  21.75 0 0  22.5 0 0  23.25 0 0  24 0 0  24.75 0 0  25.5 0 0  26.25 0 0  27 0 0  27.75 0 0  28.5 0 0  29.25 0 0  30 0 0  30.75 0 0  31.5 0 0  32.25 0 0  33 0 0  33.75 0 0  34.5 0 0  35.25 0 0  36 0 0  36.75 0 0  37.5 0 0  38.25 0 0  39 0 0  39.75 0 0  40.5 0 0  41.25 0 0  42 0 0  42.75 0 0  43.5 0 0  44.25 0 0  45 0 0  45.75 0 0  46.5 0 0  47.25 0 0  48 0 0  48.75 0 0  49.5 0 0  50.25 0 0  51 0 0  51.75 0 0  52.5 0 0  53.25 0 0  54 0 0  54.75 0 0  55.5 0 0  56.25 0 0  57 0 0  57.75 0 0  58.5 0 0  59.25 0 0  60 0 0  0 0.5 0  0.75 0.5 0  1.5 0.5 0  2.25 0.5 0  3 0.5 0  3.75 0.5 0  4.5 0.5 0  5.25 0.5 0  6 0.5 0  6.75 0.5 0  7.5 0.5 0  8.25 0.5 0  9 0.5 0  9.75 0.5 0  10.5 0.5 0  11.25 0.5 0  12 0.5 0  12.75 0.5 0  13.5 0.5 0  14.25 0.5 0  15 0.5 0  15.75 0.5 0  16.5 0.5 0  17.25 0.5 0  18 0.5 0  18.75 0.5 0  19.5 0.5 0  20.25 0.5 0  21 0.5 0  21.75 0.5 0  22.5 0.5 0  23.25 0.5 0  24 0.5 0  24.75 0.5 0  25.5 0.5 0  26.25 0.5 0  27 0.5 0  27.75 0.5 0  28.5 0.5 0  29.25 0.5 0  30 0.5 0  30.75 0.5 0  31.5 0.5 0  32.25 0.5 0  33 0.5 0  33.75 0.5 0  34.5 0.5 0  35.25 0.5 0  36 0.5 0  36.75 0.5 0  37.5 0.5 0  38.25 0.5 0  39 0.5 0  39.75 0.5 0  40.5 0.5 0  41.25 0.5 0  42 0.5 0  42.75 0.5 0  43.5 0.5 0  44.25 0.5 0  45 0.5 0  45.75 0.5 0  46.5 0.5 0  47.25 0.5 0  48 0.5 0  48.75 0.5 0  49.5 0.5 0  50.25 0.5 0  51 0.5 0  51.75 0.5 0  52.5 0.5 0  53.25 0.5 0  54 0.5 0  54.75 0.5 0  55.5 0.5 0  56.25 0.5 0  57 0.5 0  57.75 0.5 0  58.5 0.5 0  59.25 0.5 0  60 0.5 0  0 1 0  0.75 1 0  1.5 1 0  2.25 1 0  3 1 0  3.75 1 0  4.5 1 0  5.25 1 0  6 1 0  6.75 1 0  7.5 1 0  8.25 1 0  9 1 0  9.75 1 0  10.5 1 0  11.25 1 0  12 1 0  12.75 1 0  13.5 1 0  14.25 1 0  15 1 0  15.75 1 0  16.5 1 0  17.25 1 0  18 1 0  18.75 1 0  19.5 1 0  20.25 1 0  21 1 0  21.75 1 0  22.5 1 0  23.25 1 0  24 1 0  24.75 1 0  25.5 1 0  26.25 1 0  27 1 0  27.75 1 0  28.5 1 0  29.25 1 0  30 1 0  30.75 1 0  31.5 1 0  32.25 1 0  33 1 0  33.75 1 0  34.5 1 0  35.25 1 0  36 1 0  36.75 1 0  37.5 1 0  38.25 1 0  39 1 0  39.75 1 0  40.5 1 0  41.25 1 0  42 1 0  42.75 1 0  43.5 1 0  44.25 1 0  45 1 0  45.75 1 0  46.5 1 0  47.25 1 0  48 1 0  48.75 1 0  49.5 1 0  50.25 1 0  51 1 0  51.75 1 0  52.5 1 0  53.25 1 0  54 1 0  54.75 1 0  55.5 1 0  56.25 1 0  57 1 0  57.75 1 0  58.5 1 0  59.25 1 0  60 1 0  0 1.5 0  0.75 1.5 0  1.5 1.5 0  2.25 1.5 0  3 1.5 0  3.75 1.5 0  4.5 1.5 0  5.25 1.5 0  6 1.5 0  6.75 1.5 0  7.5 1.5 0  8.25 1.5 0  9 1.5 0  9.75 1.5 0  10.5 1.5 0  11.25 1.5 0  12 1.5 0  12.75 1.5 0  13.5 1.5 0  14.25 1.5 0  15 1.5 0  15.75 1.5 0  16.5 1.5 0  17.25 1.5 0  18 1.5 0  18.75 1.5 0  19.5 1.5 0  20.25 1.5 0  21 1.5 0  21.75 1.5 0  22.5 1.5 0  23.25 1.5 0  24 1.5 0  24.75 1.5 0  25.5 1.5 0  26.25 1.5 0  27 1.5 0  27.75 1.5 0  28.5 1.5 0  29.25 1.5 0  30 1.5 0  30.75 1.5 0  31.5 1.5 0  32.25 1.5 0  33 1.5 0  33.75 1.5 0  34.5 1.5 0  35.25 1.5 0  36 1.5 0  36.75 1.5 0  37.5 1.5 0  38.25 1.5 0  39 1.5 0  39.75 1.5 0  40.5 1.5 0  41.25 1.5 0  42 1.5 0  42.75 1.5 0  43.5 1.5 0  44.25 1.5 0  45 1.5 0  45.75 1.5 0  46.5 1.5 0  47.25 1.5 0  48 1.5 0  48.75 1.5 0  49.5 1.5 0  50.25 1.5 0  51 1.5 0  51.75 1.5 0  52.5 1.5 0  53.25 1.5 0  54 1.5 0  54.75 1.5 0  55.5 1.5 0  56.25 1.5 0  57 1.5 0  57.75 1.5 0  58.5 1.5 0  59.25 1.5 0  60 1.5 0  0 2 0  0.75 2 0  1.5 2 0  2.25 2 0  3 2 0  3.75 2 0  4.5 2 0  5.25 2 0  6 2 0  6.75 2 0  7.5 2 0  8.25 2 0  9 2 0  9.75 2 0  10.5 2 0  11.25 2 0  12 2 0  12.75 2 0  13.5 2 0  14.25 2 0  15 2 0  15.75 2 0  16.5 2 0  17.25 2 0  18 2 0  18.75 2 0  19.5 2 0  20.25 2 0  21 2 0  21.75 2 0  22.5 2 0  23.25 2 0  24 2 0  24.75 2 0  25.5 2 0  26.25 2 0  27 2 0  27.75 2 0  28.5 2 0  29.25 2 0  30 2 0  30.75 2 0  31.5 2 0  32.25 2 0  33 2 0  33.75 2 0  34.5 2 0  35.25 2 0  36 2 0  36.75 2 0  37.5 2 0  38.25 2 0  39 2 0  39.75 2 0  40.5 2 0  41.25 2 0  42 2 0  42.75 2 0  43.5 2 0  44.25 2 0  45 2 0  45.75 2 0  46.5 2 0  47.25 2 0  48 2 0  48.75 2 0  49.5 2 0  50.25 2 0  51 2 0  51.75 2 0  52.5 2 0  53.25 2 0  54 2 0  54.75 2 0  55.5 2 0  56.25 2 0  57 2 0  57.75 2 0  58.5 2 0  59.25 2 0  60 2 0  0 2.5 0  0.75 2.5 0  1.5 2.5 0  2.25 2.5 0  3 2.5 0  3.75 2.5 0  4.5 2.5 0  5.25 2.5 0  6 2.5 0  6.75 2.5 0  7.5 2.5 0  8.25 2.5 0  9 2.5 0  9.75 2.5 0  10.5 2.5 0  11.25 2.5 0  12 2.5 0  12.75 2.5 0  13.5 2.5 0  14.25 2.5 0  15 2.5 0  15.75 2.5 0  16.5 2.5 0  17.25 2.5 0  18 2.5 0  18.75 2.5 0  19.5 2.5 0  20.25 2.5 0  21 2.5 0  21.75 2.5 0  22.5 2.5 0  23.25 2.5 0  24 2.5 0  24.75 2.5 0  25.5 2.5 0  26.25 2.5 0  27 2.5 0  27.75 2.5 0  28.5 2.5 0  29.25 2.5 0  30 2.5 0  30.75 2.5 0  31.5 2.5 0  32.25 2.5 0  33 2.5 0  33.75 2.5 0  34.5 2.5 0  35.25 2.5 0  36 2.5 0  36.75 2.5 0  37.5 2.5 0  38.25 2.5 0  39 2.5 0  39.75 2.5 0  40.5 2.5 0  41.25 2.5 0  42 2.5 0  42.75 2.5 0  43.5 2.5 0  44.25 2.5 0  45 2.5 0  45.75 2.5 0  46.5 2.5 0  47.25 2.5 0  48 2.5 0  48.75 2.5 0  49.5 2.5 0  50.25 2.5 0  51 2.5 0  51.75 2.5 0  52.5 2.5 0  53.25 2.5 0  54 2.5 0  54.75 2.5 0  55.5 2.5 0  56.25 2.5 0  57 2.5 0  57.75 2.5 0  58.5 2.5 0  59.25 2.5 0  60 2.5 0  0 3 0  0.75 3 0  1.5 3 0  2.25 3 0  3 3 0  3.75 3 0  4.5 3 0  5.25 3 0  6 3 0  6.75 3 0  7.5 3 0  8.25 3 0  9 3 0  9.75 3 0  10.5 3 0  11.25 3 0  12 3 0  12.75 3 0  13.5 3 0  14.25 3 0  15 3 0  15.75 3 0  16.5 3 0  17.25 3 0  18 3 0  18.75 3 0  19.5 3 0  20.25 3 0  21 3 0  21.75 3 0  22.5 3 0  23.25 3 0  24 3 0  24.75 3 0  25.5 3 0  26.25 3 0  27 3 0  27.75 3 0  28.5 3 0  29.25 3 0  30 3 0  30.75 3 0  31.5 3 0  32.25 3 0  33 3 0  33.75 3 0  34.5 3 0  35.25 3 0  36 3 0  36.75 3 0  37.5 3 0  38.25 3 0  39 3 0  39.75 3 0  40.5 3 0  41.25 3 0  42 3 0  42.75 3 0  43.5 3 0  44.25 3 0  45 3 0  45.75 3 0  46.5 3 0  47.25 3 0  48 3 0  48.75 3 0  49.5 3 0  50.25 3 0  51 3 0  51.75 3 0  52.5 3 0  53.25 3 0  54 3 0  54.75 3 0  55.5 3 0  56.25 3 0  57 3 0  57.75 3 0  58.5 3 0  59.25 3 0  60 3 0  0 3.5 0  0.75 3.5 0  1.5 3.5 0  2.25 3.5 0  3 3.5 0  3.75 3.5 0  4.5 3.5 0  5.25 3.5 0  6 3.5 0  6.75 3.5 0  7.5 3.5 0  8.25 3.5 0  9 3.5 0  9.75 3.5 0  10.5 3.5 0  11.25 3.5 0  12 3.5 0  12.75 3.5 0  13.5 3.5 0  14.25 3.5 0  15 3.5 0  15.75 3.5 0  16.5 3.5 0  17.25 3.5 0  18 3.5 0  18.75 3.5 0  19.5 3.5 0  20.25 3.5 0  21 3.5 0  21.75 3.5 0  22.5 3.5 0  23.25 3.5 0  24 3.5 0  24.75 3.5 0  25.5 3.5 0  26.25 3.5 0  27 3.5 0  27.75 3.5 0  28.5 3.5 0  29.25 3.5 0  30 3.5 0  30.75 3.5 0  31.5 3.5 0  32.25 3.5 0  33 3.5 0  33.75 3.5 0  34.5 3.5 0  35.25 3.5 0  36 3.5 0  36.75 3.5 0  37.5 3.5 0  38.25 3.5 0  39 3.5 0  39.75 3.5 0  40.5 3.5 0  41.25 3.5 0  42 3.5 0  42.75 3.5 0  43.5 3.5 0  44.25 3.5 0  45 3.5 0  45.75 3.5 0  46.5 3.5 0  47.25 3.5 0  48 3.5 0  48.75 3.5 0  49.5 3.5 0  50.25 3.5 0  51 3.5 0  51.75 3.5 0  52.5 3.5 0  53.25 3.5 0  54 3.5 0  54.75 3.5 0  55.5 3.5 0  56.25 3.5 0  57 3.5 0  57.75 3.5 0  58.5 3.5 0  59.25 3.5 0  60 3.5 0  0 4 0  0.75 4 0  1.5 4 0  2.25 4 0  3 4 0  3.75 4 0  4.5 4 0  5.25 4 0  6 4 0  6.75 4 0  7.5 4 0  8.25 4 0  9 4 0  9.75 4 0  10.5 4 0  11.25 4 0  12 4 0  12.75 4 0  13.5 4 0  14.25 4 0  15 4 0  15.75 4 0  16.5 4 0  17.25 4 0  18 4 0  18.75 4 0  19.5 4 0  20.25 4 0  21 4 0  21.75 4 0  22.5 4 0  23.25 4 0  24 4 0  24.75 4 0  25.5 4 0  26.25 4 0  27 4 0  27.75 4 0  28.5 4 0  29.25 4 0  30 4 0  30.75 4 0  31.5 4 0  32.25 4 0  33 4 0  33.75 4 0  34.5 4 0  35.25 4 0  36 4 0  36.75 4 0  37.5 4 0  38.25 4 0  39 4 0  39.75 4 0  40.5 4 0  41.25 4 0  42 4 0  42.75 4 0  43.5 4 0  44.25 4 0  45 4 0  45.75 4 0  46.5 4 0  47.25 4 0  48 4 0  48.75 4 0  49.5 4 0  50.25 4 0  51 4 0  51.75 4 0  52.5 4 0  53.25 4 0  54 4 0  54.75 4 0  55.5 4 0  56.25 4 0  57 4 0  57.75 4 0  58.5 4 0  59.25 4 0  60 4 0  0.375 0.25 0  1.125 0.25 0  1.875 0.25 0  2.625 0.25 0  3.375 0.25 0  4.125 0.25 0  4.875 0.25 0  5.625 0.25 0  6.375 0.25 0  7.125 0.25 0  7.875 0.25 0  8.625 0.25 0  9.375 0.25 0  10.125 0.25 0  10.875 0.25 0  11.625 0.25 0  12.375 0.25 0  13.125 0.25 0  13.875 0.25 0  14.625 0.25 0  15.375 0.25 0  16.125 0.25 0  16.875 0.25 0  17.625 0.25 0  18.375 0.25 0  19.125 0.25 0  19.875 0.25 0  20.625 0.25 0  21.375 0.25 0  22.125 0.25 0  22.875 0.25 0  23.625 0.25 0  24.375 0.25 0  25.125 0.25 0  25.875 0.25 0  26.625 0.25 0  27.375 0.25 0  28.125 0.25 0  28.875 0.25 0  29.625 0.25 0  30.375 0.25 0  31.125 0.25 0  31.875 0.25 0  32.625 0.25 0  33.375 0.25 0  34.125 0.25 0  34.875 0.25 0  35.625 0.25 0  36.375 0.25 0  37.125 0.25 0  37.875 0.25 0  38.625 0.25 0  39.375 0.25 0  40.125 0.25 0  40.875 0.25 0  41.625 0.25 0  42.375 0.25 0  43.125 0.25 0  43.875 0.25 0  44.625 0.25 0  45.375 0.25 0  46.125 0.25 0  46.875 0.25 0  47.625 0.25 0  48.375 0.25 0  49.125 0.25 0  49.875 0.25 0  50.625 0.25 0  51.375 0.25 0  52.125 0.25 0  52.875 0.25 0  53.625 0.25 0  54.375 0.25 0  55.125 0.25 0  55.875 0.25 0  56.625 0.25 0  57.375 0.25 0  58.125 0.25 0  58.875 0.25 0  59.625 0.25 0  0.375 0.75 0  1.125 0.75 0  1.875 0.75 0  2.625 0.75 0  3.375 0.75 0  4.125 0.75 0  4.875 0.75 0  5.625 0.75 0  6.375 0.75 0  7.125 0.75 0  7.875 0.75 0  8.625 0.75 0  9.375 0.75 0  10.125 0.75 0  10.875 0.75 0  11.625 0.75 0  12.375 0.75 0  13.125 0.75 0  13.875 0.75 0  14.625 0.75 0  15.375 0.75 0  16.125 0.75 0  16.875 0.75 0  17.625 0.75 0  18.375 0.75 0  19.125 0.75 0  19.875 0.75 0  20.625 0.75 0  21.375 0.75 0  22.125 0.75 0  22.875 0.75 0  23.625 0.75 0  24.375 0.75 0  25.125 0.75 0  25.875 0.75 0  26.625 0.75 0  27.375 0.75 0  28.125 0.75 0  28.875 0.75 0  29.625 0.75 0  30.375 0.75 0  31.125 0.75 0  31.875 0.75 0  32.625 0.75 0  33.375 0.75 0  34.125 0.75 0  34.875 0.75 0  35.625 0.75 0  36.375 0.75 0  37.125 0.75 0  37.875 0.75 0  38.625 0.75 0  39.375 0.75 0  40.125 0.75 0  40
[...]
<PointData  Vectors="f_8-0"> 
<DataArray  type="Float64"  Name="f_8-0"  NumberOfComponents="3" format="ascii">0.0000000000000000e+00 0.0000000000000000e+00 0.0000000000000000e+00  0.0000000000000000e+00 0.0000000000000000e+00 0.0000000000000000e+00  0.0000000000000000e+00 0.0000000000000000e+00 0.0000000000000000e+00  0.0000000000000000e+00 0.0000000000000000e+00 0.0000000000000000e+00  0.0000000000000000e+00 0.0000000000000000e+00 0.0000000000000000e+00  0.0000000000000000e+00 0.0000000000000000e+00 0.0000000000000000e+00  0.0000000000000000e+00 0.0000000000000000e+00 0.0000000000000000e+00  0.0000000000000000e+00 0.0000000000000000e+00 0.0000000000000000e+00  0.0000000000000000e+00 0.0000000000000000e+00 0.0000000000000000e+00  0.0000000000000000e+00 0.0000000000000000e+00 0.0000000000000000e+00  0.0000000000000000e+00 0.0000000000000000e+00 0.0000000000000000e+00  0.0000000000000000e+00 0.0000000000000000e+00 0.0000000000000000e+00  0.0000000000000000e+00 0.0000000000000000e+00 0.0000000000000000e+00  0.0000000000000000e+00 0.0000000000000000e+00 0.0000000000000000e+00  0.0000000000000000e+00 0.0000000000000000e+00 0.0000000000000000e+00  0.0000000000000000e+00 0.0000000000000000e+00 0.0000000000000000e+00  0.0000000000000000e+00 0.0000000000000000e+00 0.0000000000000000e+00  0.0000000000000000e+00 0.0000000000000000e+00 0.0000000000000000e+00  0.0000000000000000e+00 0.0000000000000000e+00 0.0000000000000000e+00  0.0000000000000000e+00 0.0000000000000000e+00 0.0000000000000000e+00  0.0000000000000000e+00 0.0000000000000000e+00 0.0000000000000000e+00  0.0000000000000000e+00 0.0000000000000000e+00 0.0000000000000000e+00  0.0000000000000000e+00 0.0000000000000000e+00 0.0000000000000000e+00  0.0000000000000000e+00 0.0000000000000000e+00 0.0000000000000000e+00  0.0000000000000000e+00 0.0000000000000000e+00 0.0000000000000000e+00  0.0000000000000000e+00 0.0000000000000000e+00 0.0000000000000000e+00  0.0000000000000000e+00 0.0000000000000000e+00 0.0000000000000000e+00  0.0000000000000000e+00 0.0000000000000000e+00 0.0000000000000000e+00  0.0000000000000000e+00 0.0000000000000000e+00 0.0000000000000000e+00  0.0000000000000000e+00 0.0000000000000000e+00 0.0000000000000000e+00  0.0000000000000000e+00 0.0000000000000000e+00 0.0000000000000000e+00  0.0000000000000000e+00 0.0000000000000000e+00 0.0000000000000000e+00  0.0000000000000000e+00 0.0000000000000000e+00 0.0000000000000000e+00  0.0000000000000000e+00 0.0000000000000000e+00 0.0000000000000000e+00  0.0000000000000000e+00 0.0000000000000000e+00 0.0000000000000000e+00  0.0000000000000000e+00 0.0000000000000000e+00 0.0000000000000000e+00  0.0000000000000000e+00 0.0000000000000000e+00 0.0000000000000000e+00  0.0000000000000000e+00 0.0000000000000000e+00 0.0000000000000000e+00  0.0000000000000000e+00 0.0000000000000000e+00 0.0000000000000000e+00  0.0000000000000000e+00 0.0000000000000000e+00 0.0000000000000000e+00  0.0000000000000000e+00 0.0000000000000000e+00 0.0000000000000000e+00  0.0000000000000000e+00 0.0000000000000000e+00 0.0000000000000000e+00  0.0000000000000000e+00 0.0000000000000000e+00 0.0000000000000000e+00  0.0000000000000000e+00 0.0000000000000000e+00 0.0000000000000000e+00  0.0000000000000000e+00 0.0000000000000000e+00 0.0000000000000000e+00  0.0000000000000000e+00 0.0000000000000000e+00 0.0000000000000000e+00  0.0000000000000000e+00 0.0000000000000000e+00 0.0000000000000000e+00  0.0000000000000000e+00 0.0000000000000000e+00 0.0000000000000000e+00  0.0000000000000000e+00 0.0000000000000000e+00 0.0000000000000000e+00  0.0000000000000000e+00 0.0000000000000000e+00 0.0000000000000000e+00  0.0000000000000000e+00 0.0000000000000000e+00 0.0000000000000000e+00  0.0000000000000000e+00 0.0000000000000000e+00 0.0000000000000000e+00  0.0000000000000000e+00 0.0000000000000000e+00 0.0000000000000000e+00  0.0000000000000000e+00 0.0000000000000000e+00 0.0000000000000000e+00  0.0000000000000000e+00 0.0000000000000000e+00 0.0000000000000000e+00  0.0000000000000000e+00 0.0000000000000000e+00 0.0000000000000000e+00  0.0000000000000000e+00 0.0000000000000000e+00 0.0000000000000000e+00  0.0000000000000000e+00 0.0000000000000000e+00 0.0000000000000000e+00  0.0000000000000000e+00 0.0000000000000000e+00 0.0000000000000000e+00  0.0000000000000000e+00 0.0000000000000000e+00 0.0000000000000000e+00  0.0000000000000000e+00 0.0000000000000000e+00 0.0000000000000000e+00  0.0000000000000000e+00 0.0000000000000000e+00 0.0000000000000000e+00  0.0000000000000000e+00 0.0000000000000000e+00 0.0000000000000000e+00  0.0000000000000000e+00 0.0000000000000000e+00 0.0000000000000000e+00  0.0000000000000000e+00 0.0000000000000000e+00 0.0000000000000000e+00  0.0000000000000000e+00 0.0000000000000000e+00 0.0000000000000000e+00  0.0000000000000000e+00 0.0000000000000000e+00 0.0000000000000000e+00  0.0000000000000000e+00 0.0000000000000000e+00 0.0000000000000000e+00  0.0000000000000000e+00 0.0000000000000000e+00 0.0000000000000000e+00  0.0000000000000000e+00 0.0000000000000000e+00 0.0000000000000000e+00  0.0000000000000000e+00 0.0000000000000000e+00 0.0000000000000000e+00  0.0000000000000000e+00 0.0000000000000000e+00 0.0000000000000000e+00  0.0000000000000000e+00 0.0000000000000000e+00 0.0000000000000000e+00  0.0000000000000000e+00 0.0000000000000000e+00 0.0000000000000000e+00  0.0000000000000000e+00 0.0000000000000000e+00 0.0000000000000000e+00  0.0000000000000000e+00 0.0000000000000000e+00 0.0000000000000000e+00  0.0000000000000000e+00 0.0000000000000000e+00 0.0000000000000000e+00  0.0000000000000000e+00 0.0000000000000000e+00 0.0000000000000000e+00  0.0000000000000000e+00 0.0000000000000000e+00 0.0000000000000000e+00  0.0000000000000000e+00 0.0000000000000000e+00 0.0000000000000000e+00  0.0000000000000000e+00 0.0000000000000000e+00 0.0000000000000000e+00  -1.8914238776913734e+01 0.0000000000000000e+00 0.0000000000000000e+00  -1.8941682422369695e+01 4.3112139329589518e-03 0.0000000000000000e+00  -1.8963926560089945e+01 9.3577447884441358e-03 0.0000000000000000e+00  -1.8975822501348048e+01 9.4006548071781694e-03 0.0000000000000000e+00  -1.8983657791470023e+01 8.2823810529379562e-03 0.0000000000000000e+00  -1.8988325709130514e+01 7.0717260485749717e-03 0.0000000000000000e+00  -1.8990505854372227e+01 6.1065294588891822e-03 0.0000000000000000e+00  -1.8990914256533465e+01 5.4346741016212292e-03 0.0000000000000000e+00  -1.8990204180195050e+01 5.0379805057195236e-03 0.0000000000000000e+00  -1.8988842826937756e+01 4.7950067888142206e-03 0.0000000000000000e+00  -1.8987084194293626e+01 4.6661053747083540e-03 0.0000000000000000e+00  -1.8985260663528560e+01 4.6967059987133523e-03 0.0000000000000000e+00  -1.8983755076017513e+01 4.8617790050955369e-03 0.0000000000000000e+00  -1.8982747283273881e+01 5.0594907695852634e-03 0.0000000000000000e+00  -1.8982179953792716e+01 5.2151355557877050e-03 0.0000000000000000e+00  -1.8981901760447265e+01 5.3101446511994053e-03 0.0000000000000000e+00  -1.8981778717722943e+01 5.3589641671282322e-03 0.0000000000000000e+00  -1.8981727869426674e+01 5.3809622100354807e-03 0.0000000000000000e+00  -1.8981707237347898e+01 5.3900961019086625e-03 0.0000000000000000e+00  -1.8981698611397846e+01 5.3937169299356803e-03 0.0000000000000000e+00  -1.8981694709382605e+01 5.3951935364605465e-03 0.0000000000000000e+00  -1.8981692805090503e+01 5.3958235205781441e-03 0.0000000000000000e+00  -1.8981691794233846e+01 5.3961201632765033e-03 0.0000000000000000e+00  -1.8981691226597885e+01 5.3962629971525183e-03 0.0000000000000000e+00  -1.8981690873849850e+01 5.3963358793414993e-03 0.0000000000000000e+00  -1.8981690634288718e+01 5.3963719190961833e-03 0.0000000000000000e+00  -1.8981690448220604e+01 5.3963903012081479e-03 0.0000000000000000e+00  -1.8981690291096236e+01 5.3963992876341314e-03 0.0000000000000000e+00  -1.8981690146651836e+01 5.3964037247609042e-03 0.0000000000000000e+00  -1.8981690009435624e+01 5.3964058228222252e-03 0.0000000000000000e+00  -1.8981689874953460e+01 5.3964067485338602e-03 0.0000000000000000e+00  -1.8981689742195989e+01 5.3964071295869295e-03 0.0000000000000000e+00  -1.8981689609910763e+01 5.3964071968975440e-03 0.0000000000000000e+00  -1.8981689477993651e+01 5.3964071587841392e-03 0.0000000000000000e+00  -1.8981689346103746e+01 5.3964070281825776e-03 0.0000000000000000e+00  -1.8981689214270691e+01 5.3964068927169458e-03 0.0000000000000000e+00  -1.8981689082407762e+01 5.3964067267885541e-03 0.0000000000000000e+00  -1.8981688950538459e+01 5.3964065687186463e-03 0.0000000000000000e+00  -1.8981688818648358e+01 5.3964063963321211e-03 0.0000000000000000e+00  -1.8981688686744675e+01 5.3964062351336585e-03 0.0000000000000000e+00  -1.8981688554831305e+01 5.3964060661211176e-03 0.0000000000000000e+00  -1.8981688422909247e+01 5.3964059018548798e-03 0.0000000000000000e+00  -1.8981688290983790e+01 5.3964057351822189e-03 0.0000000000000000e+00  -1.8981688159055238e+01 5.3964055719878147e-03 0.0000000000000000e+00  -1.8981688027126566e+01 5.3964054064530300e-03 0.0000000000000000e+00  -1.8981687895202334e+01 5.3964052437162390e-03 0.0000000000000000e+00  -1.8981687763282750e+01 5.3964050821057640e-03 0.0000000000000000e+00  -1.8981687631369866e+01 5.3964049206700207e-03 0.0000000000000000e+00  -1.8981687499471303e+01 5.3964047613568383e-03 0.0000000000000000e+00  -1.8981687367590119e+01 5.3964046047652817e-03 0.0000000000000000e+00  -1.8981687235735667e+01 5.3964044508379681e-03 0.0000000000000000e+00  -1.8981687103922141e+01 5.3964043038000368e-03 0.0000000000000000e+00  -1.8981686972161576e+01 5.3964041633234707e-03 0.0000000000000000e+00  -1.8981686840479490e+01 5.3964040323035579e-03 0.0000000000000000e+00  -1.8981686708903350e+01 5.3964039142944580e-03 0.0000000000000000e+00  -1.8981686577465027e+01 5.3964038098217792e-03 0.0000000000000000e+00  -1.8981686446194733e+01 5.3964037197237616e-03 0.0000000000000000e+00  -1.8981686315101616e+01 5.3964036348064974e-03 0.0000000000000000e+00  -1.8981686184124321e+01 5.3964035290148720e-03 0.0000000000000000e+00  -1.8981686053034679e+01 5.3964033246955640e-03 0.0000000000000000e+00  -1.8981685921157904e+01 5.3964028587156921e-03 0.0000000000000000e+00  -1.8981685787069715e+01 5.3964017431648338e-03 0.0000000000000000e+00  -1.8981685646843847e+01 5.3963991632671252e-03 0.0000000000000000e+00  -1.8981685494655000e+01 5.3963934605465542e-03 0.0000000000000000e+00  -1.8981685308555964e+01 5.3963808438400509e-03 0.0000000000000000e+00  -1.8981685078606461e+01 5.3963554048118258e-03 0.0000000000000000e+00  -1.8981684658337890e+01 5.3962980478931138e-03 0.0000000000000000e+00  -1.8981684202295884e+01 5.3961997889494804e-03 0.0000000000000000e+00  -1.8981682462258380e+01 5.3959333416777715e-03 0.0000000000000000e+00  -1.8981682284541215e+01 5.3956643545176953e-03 0.0000000000000000e+00  -1.8981671681007061e+01 5.3942085652487828e-03 0.0000000000000000e+00  -1.8981683708600350e+01 5.3946480696612726e-03 0.0000000000000000e+00  -1.8981609138181671e+01 5.3847788512163186e-03 0.0000000000000000e+00  -1.8981744069340145e+01 5.3997713325281077e-03 0.0000000000000000e+00  -1.8981279291429896e+01 5.3372520573818916e-03 0.0000000000000000e+00  -1.8982123051991906e+01 5.4392105894727882e-03 0.0000000000000000e+00  -1.8980401090080793e+01 5.3574775642537212e-03 0.0000000000000000e+00  -1.8982861630038109e+01 5.1033571238846328e-03 0.0000000000000000e+00  -1.8991043983782689e+01 1.6523159889468713e-02 0.0000000000000000e+00  -1.8997998017657242e+01 7.0456090414272948e-02 0.0000000000000000e+00  -1.9024878245265960e+01 0.0000000000000000e+00 0.0000000000000000e+00  -1.5879462669077691e+01 0.0000000000000000e+00 0.0000000000000000e+00  -1.5893470947482106e+01 1.5675631381562583e-02 0.0000000000000000e+00  -1.5897120863920945e+01 9.8100530236827823e-03 0.0000000000000000e+00  -1.5899385790097689e+01 6.3846052387681491e-03 0.0000000000000000e+00  -1.5900347113255640e+01 3.3978865412255792e-03 0.0000000000000000e+00  -1.5900683630181870e+01 8.4583589170952552e-04 0.0000000000000000e+00  -1.5900632078309322e+01 -1.0760951503056490e-03 0.0000000000000000e+00  -1.5900325275125908e+01 -2.4222891395008304e-03 0.0000000000000000e+00  -1.5899783464161800e+01 -3.2222695082467089e-03 0.0000000000000000e+00  -1.5899125879783949e+01 -3.7198710109425394e-03 0.0000000000000000e+00  -1.5898294504593993e+01 -4.0245294186332025e-03 0.0000000000000000e+00  -1.5897284595561320e+01 -3.9518953441428683e-03 0.0000000000000000e+00  -1.5896344938002326e+01 -3.5283315315231250e-03 0.0000000000000000e+00  -1.5895677607787619e+01 -3.0264451139215371e-03 0.0000000000000000e+00  -1.5895290038972501e+01 -2.6404296947964740e-03 0.0000000000000000e+00  -1.5895094944613584e+01 -2.4096267644727583e-03 0.0000000000000000e+00  -1.5895006061531364e+01 -2.2927764359696096e-03 0.0000000000000000e+00  -1.5894968274033754e+01 -2.2406185667739743e-03 0.0000000000000000e+00  -1.5894952705846213e+01 -2.2190794877060462e-03 0.0000000000000000e+00  -1.5894946270519679e+01 -2.2105704418495927e-03 0.0000000000000000e+00  -1.5894943482014996e+01 -2.2071036977731979e-03 0.0000000000000000e+00  -1.5894942202778257e+01 -2.2056286611025168e-03 0.0000000000000000e+00  -1.5894941569959396e+01 -2.2049337331290393e-03 0.0000000000000000e+00  -1.5894941236522424e+01 -2.2046020042672957e-03 0.0000000000000000e+00  -1.5894941042326986e+01 -2.2044321705568413e-03 0.0000000000000000e+00  -1.5894940915794654e+01 -2.2043497070552945e-03 0.0000000000000000e+00  -1.5894940820582848e+01 -2.2043072874140227e-03 0.0000000000000000e+00  -1.5894940739814302e+01 -2.2042871748149725e-03 0.0000000000000000e+00  -1.5894940665222014e+01 -2.2042770332233335e-03 0.0000000000000000e+00  -1.5894940592814230e+01 -2.2042723721739125e-03 0.0000000000000000e+00  -1.5894940521105713e+01 -2.2042701359051269e-03 0.0000000000000000e+00  -1.5894940449191239e+01 -2.2042691171355443e-03 0.0000000000000000e+00  -1.5894940377047080e+01 -2.2042686820152413e-03 0.0000000000000000e+00  -1.5894940304479817e+01 -2.2042684410883292e-03 0.0000000000000000e+00  -1.5894940231671299e+01 -2.2042683475780862e-03 0.0000000000000000e+00  -1.5894940158579018e+01 -2.2042682398046238e-03 0.0000000000000000e+00  -1.5894940085346683e+01 -2.2042681765137087e-03 0.0000000000000000e+00  -1.5894940011957306e+01 -2.2042680757406209e-03 0.0000000000000000e+00  -1.5894939938493838e+01 -2.2042679938343249e-03 0.0000000000000000e+00  -1.5894939864953585e+01 -2.2042678808413640e-03 0.0000000000000000e+00  -1.5894939791378809e+01 -2.2042677774147981e-03 0.0000000000000000e+00  -1.5894939717767395e+01 -2.2042676582121013e-03 0.0000000000000000e+00  -1.5894939644137688e+01 -2.2042675439963885e-03 0.0000000000000000e+00  -1.5894939570491735e+01 -2.2042674202494283e-03 0.0000000000000000e+00  -1.5894939496845268e+01 -2.2042672962768787e-03 0.0000000000000000e+00  -1.5894939423194925e+01 -2.2042671665664444e-03 0.0000000000000000e+00  -1.5894939349544545e+01 -2.2042670344780131e-03 0.0000000000000000e+00  -1.5894939275900043e+01 -2.2042669002532789e-03 0.0000000000000000e+00  -1.5894939202270539e+01 -2.2042667587949261e-03 0.0000000000000000e+00  -1.5894939128658683e+01 -2.2042666089292576e-03 0.0000000000000000e+00  -1.5894939055078241e+01 -2.2042664483370882e-03 0.0000000000000000e+00  -1.5894938981538850e+01 -2.2042662733765968e-03 0.0000000000000000e+00  -1.5894938908059734e+01 -2.2042660741869230e-03 0.0000000000000000e+00  -1.5894938834671992e+01 -2.2042658457031667e-03 0.0000000000000000e+00  -1.5894938761410792e+01 -2.2042655803881221e-03 0.0000000000000000e+00  -1.5894938688328415e+01 -2.2042652741443274e-03 0.0000000000000000e+00  -1.5894938615481639e+01 -2.2042649273219762e-03 0.0000000000000000e+00  -1.5894938542943642e+01 -2.2042645750792065e-03 0.0000000000000000e+00  -1.5894938470773729e+01 -2.2042643048074398e-03 0.0000000000000000e+00  -1.5894938398981642e+01 -2.2042643691937082e-03 0.0000000000000000e+00  -1.5894938327386313e+01 -2.2042653051670552e-03 0.0000000000000000e+00  -1.5894938255383765e+01 -2.2042683773197003e-03 0.0000000000000000e+00  -1.5894938181503086e+01 -2.2042760845169497e-03 0.0000000000000000e+00  -1.5894938101591876e+01 -2.2042941991918027e-03 0.0000000000000000e+00  -1.5894938009497555e+01 -2.2043325545344833e-03 0.0000000000000000e+00  -1.5894937880995744e+01 -2.2044178527240417e-03 0.0000000000000000e+00  -1.5894937706903850e+01 -2.2045777309737924e-03 0.0000000000000000e+00  -1.5894937326435018e+01 -2.2049585614643315e-03 0.0000000000000000e+00  -1.5894936908482817e+01 -2.2055110965184632e-03 0.0000000000000000e+00  -1.5894935150601642e+01 -2.2073310876400591e-03 0.0000000000000000e+00  -1.5894934839526680e+01 -2.2083418014167220e-03 0.0000000000000000e+00  -1.5894924523624958e+01 -2.2188807944532288e-03 0.0000000000000000e+00  -1.5894933436594156e+01 -2.2107787374939037e-03 0.0000000000000000e+00  -1.5894867933508150e+01 -2.2832051824617327e-03 0.0000000000000000e+00  -1.5894965649091615e+01 -2.1487495935824065e-03 0.0000000000000000e+00  -1.5894602283150205e+01 -2.6118691772014720e-03 0.0000000000000000e+00  -1.5895243117590168e+01 -1.4008322993847326e-03 0.0000000000000000e+00  -1.5894041616255366e+01 -2.3891049276663434e-03 0.0000000000000000e+00  -1.5893850319376797e+01 8.5440015729078347e-03 0.0000000000000000e+00  -1.5857718901172117e+01 -6.0053824982287682e-03 0.0000000000000000e+00  -1.5902435091879941e+01 0.0000000000000000e+00 0.0000000000000000e+00  -1.2507120828759897e+01 0.0000000000000000e+00 0.0000000000000000e+00  -1.2497470144251585e+01 9.3920809985754417e-03 0.0000000000000000e+00  -1.2484781673365667e+01 7.8552445399613473e-03 0.0000000000000000e+00  -1.2475310500482188e+01 5.6104657314399852e-03 0.0000000000000000e+00  -1.2468789238602650e+01 3.5289117781090664e-03 0.0000000000000000e+00  -1.2464876059238522e+01 1.7601068277058459e-03 0.0000000000000000e+00  -1.2463043060951170e+01 4.0803840465957511e-04 0.0000000000000000e+00  -1.2462702410738743e+01 -5.7492226031977383e-04 0.0000000000000000e+00  -1.2463308118623413e+01 -1.2042397908246221e-03 0.0000000000000000e+00  -1.2464468161699658e+01 -1.5872627231899783e-03 0.0000000000000000e+00  -1.2465976344985123e+01 -1.9041290749983886e-03 0.0000000000000000e+00  -1.2467553214412748e+01 -1.9552571832154343e-03 0.0000000000000000e+00  -1.2468857008607312e+01 -1.6358775662273185e-03 0.0000000000000000e+00  -1.2469726790150348e+01 -1.1716860030622804e-03 0.0000000000000000e+00  -1.2470213198377529e+01 -7.8662252591349749e-04 0.0000000000000000e+00  -1.2470449943230692e+01 -5.4628236897573358e-04 0.0000000000000000e+00  -1.2470553648171174e+01 -4.2119196214202053e-04 0.0000000000000000e+00  -1.2470596148462146e+01 -3.6388843756349199e-04 0.0000000000000000e+00  -1.2470613252273528e+01 -3.3990278202463336e-04 0.0000000000000000e+00  -1.2470620420073361e+01 -3.3032958438691579e-04 0.0000000000000000e+00  -1.2470623653629330e+01 -3.2651006028293805e-04 0.0000000000000000e+00  -1.2470625221946337e+01 -3.2490689569083533e-04 0.0000000000000000e+00  -1.2470626002874329e+01 -3.2418975232966033e-04 0.0000000000000000e+00  -1.2470626387998170e+01 -3.2384917631302453e-04 0.0000000000000000e+00  -1.2470626562268405e+01 -3.2368499804637523e-04 0.0000000000000000e+00  -1.2470626625523717e+01 -3.2360486367125486e-04 0.0000000000000000e+00  -1.2470626627794513e+01 -3.2356719058117820e-04 0.0000000000000000e+00  -1.2470626597703689e+01 -3.2354964811038254e-04 0.0000000000000000e+00  -1.2470626549207600e+01 -3.2354221801988401e-04 0.0000000000000000e+00  -1.2470626490768213e+01 -3.2353928085550950e-04 0.0000000000000000e+00  -1.2470626426391293e+01 -3.2353846923588572e-04 0.0000000000000000e+00  -1.2470626358712961e+01 -3.2353848054345687e-04 0.0000000000000000e+00  -1.2470626288958309e+01 -3.2353878900049504e-04 0.0000000000000000e+00  -1.2470626218000820e+01 -3.2353915614257914e-04 0.0000000000000000e+00  -1.2470626146248277e+01 -3.2353947694631406e-04 0.0000000000000000e+00  -1.2470626074017625e+01 -3.2353974978786544e-04 0.0000000000000000e+00  -1.2470626001466783e+01 -3.2353994882760039e-04 0.0000000000