<?xml version="1.0"?>
<VTKFile type="UnstructuredGrid"  version="0.1"  >
<UnstructuredGrid>
<Piece  NumberOfPoints="1369" NumberOfCells="2560">
<Points>
<DataArray  type="Float64"  NumberOfComponents="3"  format="ascii">0 0 0  0.75 0 0  1.5 0 0  2.25 0 0  3 0 0  3.75 0 0  4.5 0 0  5.25 0 0  6 0 0  6.75 0 0  7.5 0 0  8.25 0 0  9 0 0  9.75 0 0  10.5 0 0  11.25 0 0  12 0 0  12.75 0 0  13.5 0 0  14.25 0 0  15 0 0  15.75 0 0  16.5 0 0  17.25 0 0  18 0 0  18.75 0 0  19.5 0 0  20.25 0 0  21 0 0  21.75 0 0  22.5 0 0  23.25 0 0  24 0 0  24.75 0 0  25.5 0 0  26.25 0 0  27 0 0  27.75 0 0  28.5 0 0  29.25 0 0  30 0 0  30.75 0 0  31.5 0 0  32.25 0 0  33 0 0  33.75 0 0  34.5 0 0  35.25 0 0  36 0 0  36.75 0 0  37.5 0 0  38.25 0 0  39 0 0  39.75 0 0  40.5 0 0  41.25 0 0  42 0 0  42.75 0 0  43.5 0 0  44.25 0 0  45 0 0  45.75 0 0  46.5 0 0  47.25 0 0  48 0 0  48.75 0 0  49.5 0 0  50.25 0 0  51 0 0  51.75 0 0  52.5 0 0  53.25 0 0  54 0 0  54.75 0 0  55.5 0 0  56.25 0 0  57 0 0  57.75 0 0  58.5 0 0  59.25 0 0  60 0 0  0 0.5 0  0.75 0.5 0  1.5 0.5 0  2.25 0.5 0  3 0.5 0  3.75 0.5 0  4.5 0.5 0  5.25 0.5 0  6 0.5 0  6.75 0.5 0  7.5 0.5 0  8.25 0.5 0  9 0.5 0  9.75 0.5 0  10.5 0.5 0  11.25 0.5 0  12 0.5 0  12.75 0.5 0  13.5 0.5 0  14.25 0.5 0  15 0.5 0  15.75 0.5 0  16.5 0.5 0  17.25 0.5 0  18 0.5 0  18.75 0.5 0  19.5 0.5 0  20.25 0.5 0  21 0.5 0  21.75 0.5 0  22.5 0.5 0  23.25 0.5 0  24 0.5 0  24.75 0.5 0  25.5 0.5 0  26.25 0.5 0  27 0.5 0  27.75 0.5 0  28.5 0.5 0  29.25 0.5 0  30 0.5 0  30.75 0.5 0  31.5 0.5 0  32.25 0.5 0  33 0.5 0  33.75 0.5 0  34.5 0.5 0  35.25 0.5 0  36 0.5 0  36.75 0.5 0  37.5 0.5 0  38.25 0.5 0  39 0.5 0  39.75 0.5 0  40.5 0.5 0  41.25 0.5 0  42 0.5 0  42.75 0.5 0  43.5 0.5 0  44.25 0.5 0  45 0.5 0  45.75 0.5 0  46.5 0.5 0  47.25 0.5 0  48 0.5 0  48.75 0.5 0  49.5 0.5 0  50.25 0.5 0  51 0.5 0  51.75 0.5 0  52.5 0.5 0  53.25 0.5 0  54 0.5 0  54.75 0.5 0  55.5 0.5 0  56.25 0.5 0  57 0.5 0  57.75 0.5 0  58.5 0.5 0  59.25 0.5 0  60 0.5 0  0 1 0  0.75 1 0  1.5 1 0  2.25 1 0  3 1 0  3.75 1 0  4.5 1 0  5.25 1 0  6 1 0  6.75 1 0  7.5 1 0  8.25 1 0  9 1 0  9.75 1 0  10.5 1 0  11.25 1 0  12 1 0  12.75 1 0  13.5 1 0  14.25 1 0  15 1 0  15.75 1 0  16.5 1 0  17.25 1 0  18 1 0  18.75 1 0  19.5 1 0  20.25 1 0  21 1 0  21.75 1 0  22.5 1 0  23.25 1 0  24 1 0  24.75 1 0  25.5 1 0  26.25 1 0  27 1 0  27.75 1 0  28.5 1 0  29.25 1 0  30 1 0  30.75 1 0  31.5 1 0  32.25 1 0  33 1 0  33.75 1 0  34.5 1 0  35.25 1 0  36 1 0  36.75 1 0  37.5 1 0  38.25 1 0  39 1 0  39.75 1 0  40.5 1 0  41.25 1 0  42 1 0  42.75 1 0  43.5 1 0  44.25 1 0  45 1 0  45.75 1 0  46.5 1 0  47.25 1 0  48 1 0  48.75 1 0  49.5 1 0  50.25 1 0  51 1 0  51.75 1 0  52.5 1 0  53.25 1 0  54 1 0  54.75 1 0  55.5 1 0  56.25 1 0  57 1 0  57.75 1 0  58.5 1 0  59.25 1 0  60 1 0  0 1.5 0  0.75 1.5 0  1.5 1.5 0  2.25 1.5 0  3 1.5 0  3.75 1.5 0  4.5 1.5 0  5.25 1.5 0  6 1.5 0  6.75 1.5 0  7.5 1.5 0  8.25 1.5 0  9 1.5 0  9.75 1.5 0  10.5 1.5 0  11.25 1.5 0  12 1.5 0  12.75 1.5 0  13.5 1.5 0  14.25 1.5 0  15 1.5 0  15.75 1.5 0  16.5 1.5 0  17.25 1.5 0  18 1.5 0  18.75 1.5 0  19.5 1.5 0  20.25 1.5 0  21 1.5 0  21.75 1.5 0  22.5 1.5 0  23.25 1.5 0  24 1.5 0  24.75 1.5 0  25.5 1.5 0  26.25 1.5 0  27 1.5 0  27.75 1.5 0  28.5 1.5 0  29.25 1.5 0  30 1.5 0  30.75 1.5 0  31.5 1.5 0  32.25 1.5 0  33 1.5 0  33.75 1.5 0  34.5 1.5 0  35.25 1.5 0  36 1.5 0  36.75 1.5 0  37.5 1.5 0  38.25 1.5 0  39 1.5 0  39.75 1.5 0  40.5 1.5 0  41.25 1.5 0  42 1.5 0  42.75 1.5 0  43.5 1.5 0  44.25 1.5 0  45 1.5 0  45.75 1.5 0  46.5 1.5 0  47.25 1.5 0  48 1.5 0  48.75 1.5 0  49.5 1.5 0  50.25 1.5 0  51 1.5 0  51.75 1.5 0  52.5 1.5 0  53.25 1.5 0  54 1.5 0  54.75 1.5 0  55.5 1.5 0  56.25 1.5 0  57 1.5 0  57.75 1.5 0  58.5 1.5 0  59.25 1.5 0  60 1.5 0  0 2 0  0.75 2 0  1.5 2 0  2.25 2 0  3 2 0  3.75 2 0  4.5 2 0  5.25 2 0  6 2 0  6.75 2 0  7.5 2 0  8.25 2 0  9 2 0  9.75 2 0  10.5 2 0  11.25 2 0  12 2 0  12.75 2 0  13.5 2 0  14.25 2 0  15 2 0  15.75 2 0  16.5 2 0  17.25 2 0  18 2 0  18.75 2 0  19.5 2 0  20.25 2 0  21 2 0  21.75 2 0  22.5 2 0  23.25 2 0  24 2 0  24.75 2 0  25.5 2 0  26.25 2 0  27 2 0  27.75 2 0  28.5 2 0  29.25 2 0  30 2 0  30.75 2 0  31.5 2 0  32.25 2 0  33 2 0  33.75 2 0  34.5 2 0  35.25 2 0  36 2 0  36.75 2 0  37.5 2 0  38.25 2 0  39 2 0  39.75 2 0  40.5 2 0  41.25 2 0  42 2 0  42.75 2 0  43.5 2 0  44.25 2 0  45 2 0  45.75 2 0  46.5 2 0  47.25 2 0  48 2 0  48.75 2 0  49.5 2 0  50.25 2 0  51 2 0  51.75 2 0  52.5 2 0  53.25 2 0  54 2 0  54.75 2 0  55.5 2 0  56.25 2 0  57 2 0  57.75 2 0  58.5 2 0  59.25 2 0  60 2 0  0 2.5 0  0.75 2.5 0  1.5 2.5 0  2.25 2.5 0  3 2.5 0  3.75 2.5 0  4.5 2.5 0  5.25 2.5 0  6 2.5 0  6.75 2.5 0  7.5 2.5 0  8.25 2.5 0  9 2.5 0  9.75 2.5 0  10.5 2.5 0  11.25 2.5 0  12 2.5 0  12.75 2.5 0  13.5 2.5 0  14.25 2.5 0  15 2.5 0  15.75 2.5 0  16.5 2.5 0  17.25 2.5 0  18 2.5 0  18.75 2.5 0  19.5 2.5 0  20.25 2.5 0  21 2.5 0  21.75 2.5 0  22.5 2.5 0  23.25 2.5 0  24 2.5 0  24.75 2.5 0  25.5 2.5 0  26.25 2.5 0  27 2.5 0  27.75 2.5 0  28.5 2.5 0  29.25 2.5 0  30 2.5 0  30.75 2.5 0  31.5 2.5 0  32.25 2.5 0  33 2.5 0  33.75 2.5 0  34.5 2.5 0  35.25 2.5 0  36 2.5 0  36.75 2.5 0  37.5 2.5 0  38.25 2.5 0  39 2.5 0  39.75 2.5 0  40.5 2.5 0  41.25 2.5 0  42 2.5 0  42.75 2.5 0  43.5 2.5 0  44.25 2.5 0  45 2.5 0  45.75 2.5 0  46.5 2.5 0  47.25 2.5 0  48 2.5 0  48.75 2.5 0  49.5 2.5 0  50.25 2.5 0  51 2.5 0  51.75 2.5 0  52.5 2.5 0  53.25 2.5 0  54 2.5 0  54.75 2.5 0  55.5 2.5 0  56.25 2.5 0  57 2.5 0  57.75 2.5 0  58.5 2.5 0  59.25 2.5 0  60 2.5 0  0 3 0  0.75 3 0  1.5 3 0  2.25 3 0  3 3 0  3.75 3 0  4.5 3 0  5.25 3 0  6 3 0  6.75 3 0  7.5 3 0  8.25 3 0  9 3 0  9.75 3 0  10.5 3 0  11.25 3 0  12 3 0  12.75 3 0  13.5 3 0  14.25 3 0  15 3 0  15.75 3 0  16.5 3 0  17.25 3 0  18 3 0  18.75 3 0  19.5 3 0  20.25 3 0  21 3 0  21.75 3 0  22.5 3 0  23.25 3 0  24 3 0  24.75 3 0  25.5 3 0  26.25 3 0  27 3 0  27.75 3 0  28.5 3 0  29.25 3 0  30 3 0  30.75 3 0  31.5 3 0  32.25 3 0  33 3 0  33.75 3 0  34.5 3 0  35.25 3 0  36 3 0  36.75 3 0  37.5 3 0  38.25 3 0  39 3 0  39.75 3 0  40.5 3 0  41.25 3 0  42 3 0  42.75 3 0  43.5 3 0  44.25 3 0  45 3 0  45.75 3 0  46.5 3 0  47.25 3 0  48 3 0  48.75 3 0  49.5 3 0  50.25 3 0  51 3 0  51.75 3 0  52.5 3 0  53.25 3 0  54 3 0  54.75 3 0  55.5 3 0  56.25 3 0  57 3 0  57.75 3 0  58.5 3 0  59.25 3 0  60 3 0  0 3.5 0  0.75 3.5 0  1.5 3.5 0  2.25 3.5 0  3 3.5 0  3.75 3.5 0  4.5 3.5 0  5.25 3.5 0  6 3.5 0  6.75 3.5 0  7.5 3.5 0  8.25 3.5 0  9 3.5 0  9.75 3.5 0  10.5 3.5 0  11.25 3.5 0  12 3.5 0  12.75 3.5 0  13.5 3.5 0  14.25 3.5 0  15 3.5 0  15.75 3.5 0  16.5 3.5 0  17.25 3.5 0  18 3.5 0  18.75 3.5 0  19.5 3.5 0  20.25 3.5 0  21 3.5 0  21.75 3.5 0  22.5 3.5 0  23.25 3.5 0  24 3.5 0  24.75 3.5 0  25.5 3.5 0  26.25 3.5 0  27 3.5 0  27.75 3.5 0  28.5 3.5 0  29.25 3.5 0  30 3.5 0  30.75 3.5 0  31.5 3.5 0  32.25 3.5 0  33 3.5 0  33.75 3.5 0  34.5 3.5 0  35.25 3.5 0  36 3.5 0  36.75 3.5 0  37.5 3.5 0  38.25 3.5 0  39 3.5 0  39.75 3.5 0  40.5 3.5 0  41.25 3.5 0  42 3.5 0  42.75 3.5 0  43.5 3.5 0  44.25 3.5 0  45 3.5 0  45.75 3.5 0  46.5 3.5 0  47.25 3.5 0  48 3.5 0  48.75 3.5 0  49.5 3.5 0  50.25 3.5 0  51 3.5 0  51.75 3.5 0  52.5 3.5 0  53.25 3.5 0  54 3.5 0  54.75 3.5 0  55.5 3.5 0  56.25 3.5 0  57 3.5 0  57.75 3.5 0  58.5 3.5 0  59.25 3.5 0  60 3.5 0  0 4 0  0.75 4 0  1.5 4 0  2.25 4 0  3 4 0  3.75 4 0  4.5 4 0  5.25 4 0  6 4 0  6.75 4 0  7.5 4 0  8.25 4 0  9 4 0  9.75 4 0  10.5 4 0  11.25 4 0  12 4 0  12.75 4 0  13.5 4 0  14.25 4 0  15 4 0  15.75 4 0  16.5 4 0  17.25 4 0  18 4 0  18.75 4 0  19.5 4 0  20.25 4 0  21 4 0  21.75 4 0  22.5 4 0  23.25 4 0  24 4 0  24.75 4 0  25.5 4 0  26.25 4 0  27 4 0  27.75 4 0  28.5 4 0  29.25 4 0  30 4 0  30.75 4 0  31.5 4 0  32.25 4 0  33 4 0  33.75 4 0  34.5 4 0  35.25 4 0  36 4 0  36.75 4 0  37.5 4 0  38.25 4 0  39 4 0  39.75 4 0  40.5 4 0  41.25 4 0  42 4 0  42.75 4 0  43.5 4 0  44.25 4 0  45 4 0  45.75 4 0  46.5 4 0  47.25 4 0  48 4 0  48.75 4 0  49.5 4 0  50.25 4 0  51 4 0  51.75 4 0  52.5 4 0  53.25 4 0  54 4 0  54.75 4 0  55.5 4 0  56.25 4 0  57 4 0  57.75 4 0  58.5 4 0  59.25 4 0  60 4 0  0.375 0.25 0  1.125 0.25 0  1.875 0.25 0  2.625 0.25 0  3.375 0.25 0  4.125 0.25 0  4.875 0.25 0  5.625 0.25 0  6.375 0.25 0  7.125 0.25 0  7.875 0.25 0  8.625 0.25 0  9.375 0.25 0  10.125 0.25 0  10.875 0.25 0  11.625 0.25 0  12.375 0.25 0  13.125 0.25 0  13.875 0.25 0  14.625 0.25 0  15.375 0.25 0  16.125 0.25 0  16.875 0.25 0  17.625 0.25 0  18.375 0.25 0  19.125 0.25 0  19.875 0.25 0  20.625 0.25 0  21.375 0.25 0  22.125 0.25 0  22.875 0.25 0  23.625 0.25 0  24.375 0.25 0  25.125 0.25 0  25.875 0.25 0  26.625 0.25 0  27.375 0.25 0  28.125 0.25 0  28.875 0.25 0  29.625 0.25 0  30.375 0.25 0  31.125 0.25 0  31.875 0.25 0  32.625 0.25 0  33.375 0.25 0  34.125 0.25 0  34.875 0.25 0  35.625 0.25 0  36.375 0.25 0  37.125 0.25 0  37.875 0.25 0  38.625 0.25 0  39.375 0.25 0  40.125 0.25 0  40.875 0.25 0  41.625 0.25 0  42.375 0.25 0  43.125 0.25 0  43.875 0.25 0  44.625 0.25 0  45.375 0.25 0  46.125 0.25 0  46.875 0.25 0  47.625 0.25 0  48.375 0.25 0  49.125 0.25 0  49.875 0.25 0  50.625 0.25 0  51.375 0.25 0  52.125 0.25 0  52.875 0.25 0  53.625 0.25 0  54.375 0.25 0  55.125 0.25 0  55.875 0.25 0  56.625 0.25 0  57.375 0.25 0  58.125 0.25 0  58.875 0.25 0  59.625 0.25 0  0.375 0.75 0  1.125 0.75 0  1.875 0.75 0  2.625 0.75 0  3.375 0.75 0  4.125 0.75 0  4.875 0.75 0  5.625 0.75 0  6.375 0.75 0  7.125 0.75 0  7.875 0.75 0  8.625 0.75 0  9.375 0.75 0  10.125 0.75 0  10.875 0.75 0  11.625 0.75 0  12.375 0.75 0  13.125 0.75 0  13.875 0.75 0  14.625 0.75 0  15.375 0.75 0  16.125 0.75 0  16.875 0.75 0  17.625 0.75 0  18.375 0.75 0  19.125 0.75 0  19.875 0.75 0  20.625 0.75 0  21.375 0.75 0  22.125 0.75 0  22.875 0.75 0  23.625 0.75 0  24.375 0.75 0  25.125 0.75 0  25.875 0.75 0  26.625 0.75 0  27.375 0.75 0  28.125 0.75 0  28.875 0.75 0  29.625 0.75 0  30.375 0.75 0  31.125 0.75 0  31.875 0.75 0  32.625 0.75 0  33.375 0.75 0  34.125 0.75 0  34.875 0.75 0  35.625 0.75 0  36.375 0.75 0  37.125 0.75 0  37.875 0.75 0  38.625 0.75 0  39.375 0.75 0  40.125 0.75 0  40
[...]
<PointData  Vectors="f_8-0"> 
<DataArray  type="Float64"  Name="f_8-0"  NumberOfComponents="3" format="ascii">0.0000000000000000e+00 0.0000000000000000e+00 0.0000000000000000e+00  0.0000000000000000e+00 0.0000000000000000e+00 0.0000000000000000e+00  0.0000000000000000e+00 0.0000000000000000e+00 0.0000000000000000e+00  0.0000000000000000e+00 0.0000000000000000e+00 0.0000000000000000e+00  0.0000000000000000e+00 0.0000000000000000e+00 0.0000000000000000e+00  0.0000000000000000e+00 0.0000000000000000e+00 0.0000000000000000e+00  0.0000000000000000e+00 0.0000000000000000e+00 0.0000000000000000e+00  0.0000000000000000e+00 0.0000000000000000e+00 0.0000000000000000e+00  0.0000000000000000e+00 0.0000000000000000e+00 0.0000000000000000e+00  0.0000000000000000e+00 0.0000000000000000e+00 0.0000000000000000e+00  0.0000000000000000e+00 0.0000000000000000e+00 0.0000000000000000e+00  0.0000000000000000e+00 0.0000000000000000e+00 0.0000000000000000e+00  0.0000000000000000e+00 0.0000000000000000e+00 0.0000000000000000e+00  0.0000000000000000e+00 0.0000000000000000e+00 0.0000000000000000e+00  0.0000000000000000e+00 0.0000000000000000e+00 0.0000000000000000e+00  0.0000000000000000e+00 0.0000000000000000e+00 0.0000000000000000e+00  0.0000000000000000e+00 0.0000000000000000e+00 0.0000000000000000e+00  0.0000000000000000e+00 0.0000000000000000e+00 0.0000000000000000e+00  0.0000000000000000e+00 0.0000000000000000e+00 0.0000000000000000e+00  0.0000000000000000e+00 0.0000000000000000e+00 0.0000000000000000e+00  0.0000000000000000e+00 0.0000000000000000e+00 0.0000000000000000e+00  0.0000000000000000e+00 0.0000000000000000e+00 0.0000000000000000e+00  0.0000000000000000e+00 0.0000000000000000e+00 0.0000000000000000e+00  0.0000000000000000e+00 0.0000000000000000e+00 0.0000000000000000e+00  0.0000000000000000e+00 0.0000000000000000e+00 0.0000000000000000e+00  0.0000000000000000e+00 0.0000000000000000e+00 0.0000000000000000e+00  0.0000000000000000e+00 0.0000000000000000e+00 0.0000000000000000e+00  0.0000000000000000e+00 0.0000000000000000e+00 0.0000000000000000e+00  0.0000000000000000e+00 0.0000000000000000e+00 0.0000000000000000e+00  0.0000000000000000e+00 0.0000000000000000e+00 0.0000000000000000e+00  0.0000000000000000e+00 0.0000000000000000e+00 0.0000000000000000e+00  0.0000000000000000e+00 0.0000000000000000e+00 0.0000000000000000e+00  0.0000000000000000e+00 0.0000000000000000e+00 0.0000000000000000e+00  0.0000000000000000e+00 0.0000000000000000e+00 0.0000000000000000e+00  0.0000000000000000e+00 0.0000000000000000e+00 0.0000000000000000e+00  0.0000000000000000e+00 0.0000000000000000e+00 0.0000000000000000e+00  0.0000000000000000e+00 0.0000000000000000e+00 0.0000000000000000e+00  0.0000000000000000e+00 0.0000000000000000e+00 0.0000000000000000e+00  0.0000000000000000e+00 0.0000000000000000e+00 0.0000000000000000e+00  0.0000000000000000e+00 0.0000000000000000e+00 0.0000000000000000e+00  0.0000000000000000e+00 0.0000000000000000e+00 0.0000000000000000e+00  0.0000000000000000e+00 0.0000000000000000e+00 0.0000000000000000e+00  0.0000000000000000e+00 0.0000000000000000e+00 0.0000000000000000e+00  0.0000000000000000e+00 0.0000000000000000e+00 0.0000000000000000e+00  0.0000000000000000e+00 0.0000000000000000e+00 0.0000000000000000e+00  0.0000000000000000e+00 0.0000000000000000e+00 0.0000000000000000e+00  0.0000000000000000e+00 0.0000000000000000e+00 0.0000000000000000e+00  0.0000000000000000e+00 0.0000000000000000e+00 0.0000000000000000e+00  0.0000000000000000e+00 0.0000000000000000e+00 0.0000000000000000e+00  0.0000000000000000e+00 0.0000000000000000e+00 0.0000000000000000e+00  0.0000000000000000e+00 0.0000000000000000e+00 0.0000000000000000e+00  0.0000000000000000e+00 0.0000000000000000e+00 0.0000000000000000e+00  0.0000000000000000e+00 0.0000000000000000e+00 0.0000000000000000e+00  0.0000000000000000e+00 0.0000000000000000e+00 0.0000000000000000e+00  0.0000000000000000e+00 0.0000000000000000e+00 0.0000000000000000e+00  0.0000000000000000e+00 0.0000000000000000e+00 0.0000000000000000e+00  0.0000000000000000e+00 0.0000000000000000e+00 0.0000000000000000e+00  0.0000000000000000e+00 0.0000000000000000e+00 0.0000000000000000e+00  0.0000000000000000e+00 0.0000000000000000e+00 0.0000000000000000e+00  0.0000000000000000e+00 0.0000000000000000e+00 0.0000000000000000e+00  0.0000000000000000e+00 0.0000000000000000e+00 0.0000000000000000e+00  0.0000000000000000e+00 0.0000000000000000e+00 0.0000000000000000e+00  0.0000000000000000e+00 0.0000000000000000e+00 0.0000000000000000e+00  0.0000000000000000e+00 0.0000000000000000e+00 0.0000000000000000e+00  0.0000000000000000e+00 0.0000000000000000e+00 0.0000000000000000e+00  0.0000000000000000e+00 0.0000000000000000e+00 0.0000000000000000e+00  0.0000000000000000e+00 0.0000000000000000e+00 0.0000000000000000e+00  0.0000000000000000e+00 0.0000000000000000e+00 0.0000000000000000e+00  0.0000000000000000e+00 0.0000000000000000e+00 0.0000000000000000e+00  0.0000000000000000e+00 0.0000000000000000e+00 0.0000000000000000e+00  0.0000000000000000e+00 0.0000000000000000e+00 0.0000000000000000e+00  0.0000000000000000e+00 0.0000000000000000e+00 0.0000000000000000e+00  0.0000000000000000e+00 0.0000000000000000e+00 0.0000000000000000e+00  0.0000000000000000e+00 0.0000000000000000e+00 0.0000000000000000e+00  0.0000000000000000e+00 0.0000000000000000e+00 0.0000000000000000e+00  0.0000000000000000e+00 0.0000000000000000e+00 0.0000000000000000e+00  0.0000000000000000e+00 0.0000000000000000e+00 0.0000000000000000e+00  0.0000000000000000e+00 0.0000000000000000e+00 0.0000000000000000e+00  0.0000000000000000e+00 0.0000000000000000e+00 0.0000000000000000e+00  0.0000000000000000e+00 0.0000000000000000e+00 0.0000000000000000e+00  0.0000000000000000e+00 0.0000000000000000e+00 0.0000000000000000e+00  2.4523959338739591e+01 0.0000000000000000e+00 0.0000000000000000e+00  2.4483420088778431e+01 9.4564978896689023e-02 0.0000000000000000e+00  2.4491949899238488e+01 2.5369639321240322e-02 0.0000000000000000e+00  2.4493257416652508e+01 -6.3328937094093195e-03 0.0000000000000000e+00  2.4520985175575536e+01 -6.9618130382134279e-03 0.0000000000000000e+00  2.4554233551496790e+01 -4.5918822479551992e-03 0.0000000000000000e+00  2.4572998124509734e+01 5.5897979175212201e-04 0.0000000000000000e+00  2.4582390685343405e+01 5.3385817988634348e-03 0.0000000000000000e+00  2.4579297178627712e+01 8.9413753772212626e-03 0.0000000000000000e+00  2.4569567195917678e+01 1.1033413979283521e-02 0.0000000000000000e+00  2.4555568833615691e+01 1.1900184531101326e-02 0.0000000000000000e+00  2.4540534773025055e+01 1.1905362795656089e-02 0.0000000000000000e+00  2.4526016179971531e+01 1.1426799636954695e-02 0.0000000000000000e+00  2.4513031843368783e+01 1.0724384794934198e-02 0.0000000000000000e+00  2.4501912558964968e+01 9.9707757245497547e-03 0.0000000000000000e+00  2.4492690632279462e+01 9.2558516462490914e-03 0.0000000000000000e+00  2.4485208470897444e+01 8.6210601525928132e-03 0.0000000000000000e+00  2.4479246009847071e+01 8.0779998329903024e-03 0.0000000000000000e+00  2.4474568531563605e+01 7.6246475823771179e-03 0.0000000000000000e+00  2.4470955733181043e+01 7.2526769073278027e-03 0.0000000000000000e+00  2.4468211125380645e+01 6.9517642093990277e-03 0.0000000000000000e+00  2.4466165061957426e+01 6.7115552858374172e-03 0.0000000000000000e+00  2.4464673428496553e+01 6.5225509233831783e-03 0.0000000000000000e+00  2.4463615450515114e+01 6.3760592844806551e-03 0.0000000000000000e+00  2.4462891674577293e+01 6.2641129954009679e-03 0.0000000000000000e+00  2.4462421915046313e+01 6.1796933282873929e-03 0.0000000000000000e+00  2.4462142425741703e+01 6.1171146393602027e-03 0.0000000000000000e+00  2.4462002410538549e+01 6.0721035227862029e-03 0.0000000000000000e+00  2.4461960763473332e+01 6.0414723931197815e-03 0.0000000000000000e+00  2.4461983874142309e+01 6.0225904405048656e-03 0.0000000000000000e+00  2.4462044647407428e+01 6.0129819324739190e-03 0.0000000000000000e+00  2.4462122253862969e+01 6.0101947514168818e-03 0.0000000000000000e+00  2.4462201952350508e+01 6.0119052351708330e-03 0.0000000000000000e+00  2.4462274552704265e+01 6.0161071037246943e-03 0.0000000000000000e+00  2.4462335442116004e+01 6.0212599537284141e-03 0.0000000000000000e+00  2.4462383352261362e+01 6.0263326543538399e-03 0.0000000000000000e+00  2.4462419123109271e+01 6.0307512808932384e-03 0.0000000000000000e+00  2.4462444664598557e+01 6.0342892226851203e-03 0.0000000000000000e+00  2.4462462211169161e+01 6.0369450374322623e-03 0.0000000000000000e+00  2.4462473868629424e+01 6.0388365079022798e-03 0.0000000000000000e+00  2.4462481395944671e+01 6.0401249822805625e-03 0.0000000000000000e+00  2.4462486145886437e+01 6.0409693959007880e-03 0.0000000000000000e+00  2.4462489095559491e+01 6.0415042289636393e-03 0.0000000000000000e+00  2.4462490915800160e+01 6.0418327836706132e-03 0.0000000000000000e+00  2.4462492047954051e+01 6.0420291462584871e-03 0.0000000000000000e+00  2.4462492771887369e+01 6.0421436013545398e-03 0.0000000000000000e+00  2.4462493259419386e+01 6.0422088239512539e-03 0.0000000000000000e+00  2.4462493613019628e+01 6.0422452401079256e-03 0.0000000000000000e+00  2.4462493892213555e+01 6.0422652238283749e-03 0.0000000000000000e+00  2.4462494130746091e+01 6.0422760490552339e-03 0.0000000000000000e+00  2.4462494347297156e+01 6.0422818957662060e-03 0.0000000000000000e+00  2.4462494551930273e+01 6.0422851139068428e-03 0.0000000000000000e+00  2.4462494749876903e+01 6.0422870121647522e-03 0.0000000000000000e+00  2.4462494943675225e+01 6.0422883194711004e-03 0.0000000000000000e+00  2.4462495134322140e+01 6.0422894595652567e-03 0.0000000000000000e+00  2.4462495321899148e+01 6.0422906970893807e-03 0.0000000000000000e+00  2.4462495505835694e+01 6.0422922495449189e-03 0.0000000000000000e+00  2.4462495685003621e+01 6.0422942992402568e-03 0.0000000000000000e+00  2.4462495857697601e+01 6.0422971033350613e-03 0.0000000000000000e+00  2.4462496021513907e+01 6.0423008665527519e-03 0.0000000000000000e+00  2.4462496173161579e+01 6.0423060812864237e-03 0.0000000000000000e+00  2.4462496308267468e+01 6.0423128977346195e-03 0.0000000000000000e+00  2.4462496420969394e+01 6.0423224146948229e-03 0.0000000000000000e+00  2.4462496503817356e+01 6.0423343463867117e-03 0.0000000000000000e+00  2.4462496546896684e+01 6.0423510730968537e-03 0.0000000000000000e+00  2.4462496538433079e+01 6.0423712688556517e-03 0.0000000000000000e+00  2.4462496463400541e+01 6.0423986798619767e-03 0.0000000000000000e+00  2.4462496306323651e+01 6.0424323529790387e-03 0.0000000000000000e+00  2.4462496049452849e+01 6.0424742588236196e-03 0.0000000000000000e+00  2.4462495666130344e+01 6.0425610515890535e-03 0.0000000000000000e+00  2.4462495038509125e+01 6.0427889088774589e-03 0.0000000000000000e+00  2.4462493529713175e+01 6.0440278231882116e-03 0.0000000000000000e+00  2.4462487845880862e+01 6.0486008261000186e-03 0.0000000000000000e+00  2.4462468943423961e+01 6.0606465183312679e-03 0.0000000000000000e+00  2.4462443807532239e+01 6.0501701582672167e-03 0.0000000000000000e+00  2.4462526524672196e+01 5.9743419124613168e-03 0.0000000000000000e+00  2.4462633156776871e+01 6.1573497162482347e-03 0.0000000000000000e+00  2.4461445355745536e+01 7.0169170913237811e-03 0.0000000000000000e+00  2.4456593979366563e+01 7.0962512870234645e-03 0.0000000000000000e+00  2.4439077978220624e+01 2.9965960611120987e-03 0.0000000000000000e+00  2.4411806332036534e+01 0.0000000000000000e+00 0.0000000000000000e+00  2.7544796036335210e+01 0.0000000000000000e+00 0.0000000000000000e+00  2.7466413668262749e+01 -2.2050312694188296e-02 0.0000000000000000e+00  2.7524027560278821e+01 5.7984992555535119e-03 0.0000000000000000e+00  2.7531535929582784e+01 -2.8717495897475302e-02 0.0000000000000000e+00  2.7552328444046005e+01 -3.3019525351964028e-02 0.0000000000000000e+00  2.7564598711636044e+01 -2.7431261189130998e-02 0.0000000000000000e+00  2.7574766533912669e+01 -1.4619215559432833e-02 0.0000000000000000e+00  2.7576076056725430e+01 -2.8685757058646327e-03 0.0000000000000000e+00  2.7572722252799505e+01 6.3411211336672395e-03 0.0000000000000000e+00  2.7565163786386336e+01 1.1631422306060749e-02 0.0000000000000000e+00  2.7556294848711463e+01 1.3799005289593588e-02 0.0000000000000000e+00  2.7547216202475205e+01 1.3751719660027636e-02 0.0000000000000000e+00  2.7538980179030304e+01 1.2460925906106205e-02 0.0000000000000000e+00  2.7531876291089286e+01 1.0618340581124174e-02 0.0000000000000000e+00  2.7525991953874382e+01 8.6623071934401729e-03 0.0000000000000000e+00  2.7521212361476682e+01 6.8237576710133410e-03 0.0000000000000000e+00  2.7517388640613127e+01 5.2002928826885538e-03 0.0000000000000000e+00  2.7514363091136048e+01 3.8165512029333737e-03 0.0000000000000000e+00  2.7511998196622841e+01 2.6630764567503271e-03 0.0000000000000000e+00  2.7510175135921433e+01 1.7169659265596231e-03 0.0000000000000000e+00  2.7508793184962173e+01 9.5128694134291451e-04 0.0000000000000000e+00  2.7507766446230651e+01 3.3966889640058381e-04 0.0000000000000000e+00  2.7507021940250443e+01 -1.4192371097585923e-04 0.0000000000000000e+00  2.7506498042405486e+01 -5.1537729264248915e-04 0.0000000000000000e+00  2.7506143670437055e+01 -8.0075697544066315e-04 0.0000000000000000e+00  2.7505917453069955e+01 -1.0158335105865768e-03 0.0000000000000000e+00  2.7505786464903853e+01 -1.1751376619441370e-03 0.0000000000000000e+00  2.7505724515966904e+01 -1.2896966640502710e-03 0.0000000000000000e+00  2.7505710527532326e+01 -1.3677657416167539e-03 0.0000000000000000e+00  2.7505727421756461e+01 -1.4161071987111545e-03 0.0000000000000000e+00  2.7505761613363870e+01 -1.4410020228234708e-03 0.0000000000000000e+00  2.7505802837873478e+01 -1.4486167453480548e-03 0.0000000000000000e+00  2.7505843996316063e+01 -1.4447795854586987e-03 0.0000000000000000e+00  2.7505880809830554e+01 -1.4345313433016449e-03 0.0000000000000000e+00  2.7505911270171591e+01 -1.4217595710465430e-03 0.0000000000000000e+00  2.7505934983069498e+01 -1.4090851015929637e-03 0.0000000000000000e+00  2.7505952536592030e+01 -1.3979840508334704e-03 0.0000000000000000e+00  2.7505964986608308e+01 -1.3890565165962563e-03 0.0000000000000000e+00  2.7505973499488583e+01 -1.3823293732978365e-03 0.0000000000000000e+00  2.7505979142813857e+01 -1.3775217191921807e-03 0.0000000000000000e+00  2.7505982791582696e+01 -1.3742361225996676e-03 0.0000000000000000e+00  2.7505985109282015e+01 -1.3720762421734543e-03 0.0000000000000000e+00  2.7505986569881276e+01 -1.3707041673420757e-03 0.0000000000000000e+00  2.7505987495801680e+01 -1.3698588782833313e-03 0.0000000000000000e+00  2.7505988097570359e+01 -1.3693523056457738e-03 0.0000000000000000e+00  2.7505988507797387e+01 -1.3690562685233127e-03 0.0000000000000000e+00  2.7505988807451565e+01 -1.3688871632934769e-03 0.0000000000000000e+00  2.7505989044563091e+01 -1.3687925451702026e-03 0.0000000000000000e+00  2.7505989246896473e+01 -1.3687405328717201e-03 0.0000000000000000e+00  2.7505989430079026e+01 -1.3687123186991740e-03 0.0000000000000000e+00  2.7505989602661863e+01 -1.3686970523428591e-03 0.0000000000000000e+00  2.7505989769122259e+01 -1.3686886044073335e-03 0.0000000000000000e+00  2.7505989931612934e+01 -1.3686835335203122e-03 0.0000000000000000e+00  2.7505990090921106e+01 -1.3686799006422394e-03 0.0000000000000000e+00  2.7505990246964803e+01 -1.3686765438815575e-03 0.0000000000000000e+00  2.7505990399017584e+01 -1.3686726885010082e-03 0.0000000000000000e+00  2.7505990545747657e+01 -1.3686676824664161e-03 0.0000000000000000e+00  2.7505990685160725e+01 -1.3686608886053246e-03 0.0000000000000000e+00  2.7505990814430231e+01 -1.3686515037648513e-03 0.0000000000000000e+00  2.7505990929684987e+01 -1.3686386445962569e-03 0.0000000000000000e+00  2.7505991025649379e+01 -1.3686209209126153e-03 0.0000000000000000e+00  2.7505991095319246e+01 -1.3685970908295583e-03 0.0000000000000000e+00  2.7505991129374813e+01 -1.3685645858574139e-03 0.0000000000000000e+00  2.7505991115722377e+01 -1.3685220008236973e-03 0.0000000000000000e+00  2.7505991038905290e+01 -1.3684648052095958e-03 0.0000000000000000e+00  2.7505990879010621e+01 -1.3683917687301881e-03 0.0000000000000000e+00  2.7505990612868221e+01 -1.3682969325477638e-03 0.0000000000000000e+00  2.7505990208839169e+01 -1.3681774694902621e-03 0.0000000000000000e+00  2.7505989638378843e+01 -1.3680295843573559e-03 0.0000000000000000e+00  2.7505988849979840e+01 -1.3678040245004221e-03 0.0000000000000000e+00  2.7505987834336601e+01 -1.3673143579093026e-03 0.0000000000000000e+00  2.7505986458820569e+01 -1.3653263058582127e-03 0.0000000000000000e+00  2.7505984728253082e+01 -1.3576234021311830e-03 0.0000000000000000e+00  2.7505982003307530e+01 -1.3369722513422945e-03 0.0000000000000000e+00  2.7505979699345708e+01 -1.3466375854886347e-03 0.0000000000000000e+00  2.7505979220060087e+01 -1.4921917263345636e-03 0.0000000000000000e+00  2.7505962864278786e+01 -1.1655166168516064e-03 0.0000000000000000e+00  2.7505662827466441e+01 8.5897618050884811e-04 0.0000000000000000e+00  2.7504540663167333e+01 3.5423926108085011e-03 0.0000000000000000e+00  2.7503564532466964e+01 8.4520454884085029e-03 0.0000000000000000e+00  2.7508767631585734e+01 0.0000000000000000e+00 0.0000000000000000e+00  2.8965020964236498e+01 0.0000000000000000e+00 0.0000000000000000e+00  2.8976212965142714e+01 5.9054330670902898e-03 0.0000000000000000e+00  2.8977570363537428e+01 -8.2950692063581723e-03 0.0000000000000000e+00  2.8967580045522805e+01 -2.5108093323154810e-02 0.0000000000000000e+00  2.8941733147273876e+01 -3.2257077620694602e-02 0.0000000000000000e+00  2.8921687754769248e+01 -2.4529416785389183e-02 0.0000000000000000e+00  2.8906249598793885e+01 -1.3204002649586953e-02 0.0000000000000000e+00  2.8901449544571602e+01 -1.6546525754806867e-03 0.0000000000000000e+00  2.8903699912669158e+01 6.6061379856104108e-03 0.0000000000000000e+00  2.8911804662009544e+01 1.1272504354540235e-02 0.0000000000000000e+00  2.8922745033269685e+01 1.2828263734630486e-02 0.0000000000000000e+00  2.8934925479012733e+01 1.2373348325802801e-02 0.0000000000000000e+00  2.8946887803605307e+01 1.0852380576588159e-02 0.0000000000000000e+00  2.8957885549886981e+01 8.9544295590808787e-03 0.0000000000000000e+00  2.8967470888828394e+01 7.0696406018951269e-03 0.0000000000000000e+00  2.8975520991427054e+01 5.3754092637224816e-03 0.0000000000000000e+00  2.8982079405070134e+01 3.9227858465047697e-03 0.0000000000000000e+00  2.8987299693487650e+01 2.7048765673372069e-03 0.0000000000000000e+00  2.8991374901595531e+01 1.6963041946264138e-03 0.0000000000000000e+00  2.8994503628126520e+01 8.6927717324836922e-04 0.0000000000000000e+00  2.8996867178533780e+01 1.9828600896650914e-04 0.0000000000000000e+00  2.8998621822975768e+01 -3.3922580477059269e-04 0.0000000000000000e+00  2.8999897812607667e+01 -7.6322447531174673e-04 0.0000000000000000e+00  2.9000802008061314e+01 -1.0920961023840033e-03 0.0000000000000000e+00  2.9001420793017743e+01 -1.3430881954778562e-03 0.0000000000000000e+00  2.9001822936579945e+01 -1.5317436369251310e-03 0.0000000000000000e+00  2.9002062716084609e+01 -1.6709011797630968e-03 0.0000000000000000e+00  2.9002183283430636e+01 -1.7703670544822873e-03 0.0000000000000000e+00  2.9002219604303278e+01 -1.8375394539428837e-03 0.0000000000000000e+00  2.9002200355581408e+01 -1.8785222642435976e-03 0.0000000000000000e+00  2.9002148726986697e+01 -1.8989948407799081e-03 0.0000000000000000e+00  2.9002082587033776e+01 -1.9045007999840520e-03 0.0000000000000000e+00  2.9002014600485264e+01 -1.9002299029784995e-03 0.0000000000000000e+00  2.9001952670768020e+01 -1.8906189823018368e-03 0.0000000000000000e+00  2.9001900769187941e+01 -1.8790457023779253e-03 0.0000000000000000e+00  2.9001859992388773e+01 -1.8677503261665263e-03 0.0000000000000000e+00  2.9001829624686827e+01 -1.8579639101734865e-03 0.0000000000000000e+00  2.9001808030367570e+01 -1.8501574519011724e-03 0.0000000000000000e+00  2.9001793294189596e+01 -1.8443139384976860e-03 0.0000000000000000e+00  2.9001783610557354e+01 -1.8401612581439566e-03 0.0000000000000