<?xml version="1.0"?>
<VTKFile type="UnstructuredGrid"  version="0.1"  >
<UnstructuredGrid>
<Piece  NumberOfPoints="1369" NumberOfCells="2560">
<Points>
<DataArray  type="Float64"  NumberOfComponents="3"  format="ascii">0 0 0  0.75 0 0  1.5 0 0  2.25 0 0  3 0 0  3.75 0 0  4.5 0 0  5.25 0 0  6 0 0  6.75 0 0  7.5 0 0  8.25 0 0  9 0 0  9.75 0 0  10.5 0 0  11.25 0 0  12 0 0  12.75 0 0  13.5 0 0  14.25 0 0  15 0 0  15.75 0 0  16.5 0 0  17.25 0 0  18 0 0  18.75 0 0  19.5 0 0  20.25 0 0  21 0 0  21.75 0 0  22.5 0 0  23.25 0 0  24 0 0  24.75 0 0  25.5 0 0  26.25 0 0  27 0 0  27.75 0 0  28.5 0 0  29.25 0 0  30 0 0  30.75 0 0  31.5 0 0  32.25 0 0  33 0 0  33.75 0 0  34.5 0 0  35.25 0 0  36 0 0  36.75 0 0  37.5 0 0  38.25 0 0  39 0 0  39.75 0 0  40.5 0 0  41.25 0 0  42 0 0  42.75 0 0  43.5 0 0  44.25 0 0  45 0 0  45.75 0 0  46.5 0 0  47.25 0 0  48 0 0  48.75 0 0  49.5 0 0  50.25 0 0  51 0 0  51.75 0 0  52.5 0 0  53.25 0 0  54 0 0  54.75 0 0  55.5 0 0  56.25 0 0  57 0 0  57.75 0 0  58.5 0 0  59.25 0 0  60 0 0  0 0.5 0  0.75 0.5 0  1.5 0.5 0  2.25 0.5 0  3 0.5 0  3.75 0.5 0  4.5 0.5 0  5.25 0.5 0  6 0.5 0  6.75 0.5 0  7.5 0.5 0  8.25 0.5 0  9 0.5 0  9.75 0.5 0  10.5 0.5 0  11.25 0.5 0  12 0.5 0  12.75 0.5 0  13.5 0.5 0  14.25 0.5 0  15 0.5 0  15.75 0.5 0  16.5 0.5 0  17.25 0.5 0  18 0.5 0  18.75 0.5 0  19.5 0.5 0  20.25 0.5 0  21 0.5 0  21.75 0.5 0  22.5 0.5 0  23.25 0.5 0  24 0.5 0  24.75 0.5 0  25.5 0.5 0  26.25 0.5 0  27 0.5 0  27.75 0.5 0  28.5 0.5 0  29.25 0.5 0  30 0.5 0  30.75 0.5 0  31.5 0.5 0  32.25 0.5 0  33 0.5 0  33.75 0.5 0  34.5 0.5 0  35.25 0.5 0  36 0.5 0  36.75 0.5 0  37.5 0.5 0  38.25 0.5 0  39 0.5 0  39.75 0.5 0  40.5 0.5 0  41.25 0.5 0  42 0.5 0  42.75 0.5 0  43.5 0.5 0  44.25 0.5 0  45 0.5 0  45.75 0.5 0  46.5 0.5 0  47.25 0.5 0  48 0.5 0  48.75 0.5 0  49.5 0.5 0  50.25 0.5 0  51 0.5 0  51.75 0.5 0  52.5 0.5 0  53.25 0.5 0  54 0.5 0  54.75 0.5 0  55.5 0.5 0  56.25 0.5 0  57 0.5 0  57.75 0.5 0  58.5 0.5 0  59.25 0.5 0  60 0.5 0  0 1 0  0.75 1 0  1.5 1 0  2.25 1 0  3 1 0  3.75 1 0  4.5 1 0  5.25 1 0  6 1 0  6.75 1 0  7.5 1 0  8.25 1 0  9 1 0  9.75 1 0  10.5 1 0  11.25 1 0  12 1 0  12.75 1 0  13.5 1 0  14.25 1 0  15 1 0  15.75 1 0  16.5 1 0  17.25 1 0  18 1 0  18.75 1 0  19.5 1 0  20.25 1 0  21 1 0  21.75 1 0  22.5 1 0  23.25 1 0  24 1 0  24.75 1 0  25.5 1 0  26.25 1 0  27 1 0  27.75 1 0  28.5 1 0  29.25 1 0  30 1 0  30.75 1 0  31.5 1 0  32.25 1 0  33 1 0  33.75 1 0  34.5 1 0  35.25 1 0  36 1 0  36.75 1 0  37.5 1 0  38.25 1 0  39 1 0  39.75 1 0  40.5 1 0  41.25 1 0  42 1 0  42.75 1 0  43.5 1 0  44.25 1 0  45 1 0  45.75 1 0  46.5 1 0  47.25 1 0  48 1 0  48.75 1 0  49.5 1 0  50.25 1 0  51 1 0  51.75 1 0  52.5 1 0  53.25 1 0  54 1 0  54.75 1 0  55.5 1 0  56.25 1 0  57 1 0  57.75 1 0  58.5 1 0  59.25 1 0  60 1 0  0 1.5 0  0.75 1.5 0  1.5 1.5 0  2.25 1.5 0  3 1.5 0  3.75 1.5 0  4.5 1.5 0  5.25 1.5 0  6 1.5 0  6.75 1.5 0  7.5 1.5 0  8.25 1.5 0  9 1.5 0  9.75 1.5 0  10.5 1.5 0  11.25 1.5 0  12 1.5 0  12.75 1.5 0  13.5 1.5 0  14.25 1.5 0  15 1.5 0  15.75 1.5 0  16.5 1.5 0  17.25 1.5 0  18 1.5 0  18.75 1.5 0  19.5 1.5 0  20.25 1.5 0  21 1.5 0  21.75 1.5 0  22.5 1.5 0  23.25 1.5 0  24 1.5 0  24.75 1.5 0  25.5 1.5 0  26.25 1.5 0  27 1.5 0  27.75 1.5 0  28.5 1.5 0  29.25 1.5 0  30 1.5 0  30.75 1.5 0  31.5 1.5 0  32.25 1.5 0  33 1.5 0  33.75 1.5 0  34.5 1.5 0  35.25 1.5 0  36 1.5 0  36.75 1.5 0  37.5 1.5 0  38.25 1.5 0  39 1.5 0  39.75 1.5 0  40.5 1.5 0  41.25 1.5 0  42 1.5 0  42.75 1.5 0  43.5 1.5 0  44.25 1.5 0  45 1.5 0  45.75 1.5 0  46.5 1.5 0  47.25 1.5 0  48 1.5 0  48.75 1.5 0  49.5 1.5 0  50.25 1.5 0  51 1.5 0  51.75 1.5 0  52.5 1.5 0  53.25 1.5 0  54 1.5 0  54.75 1.5 0  55.5 1.5 0  56.25 1.5 0  57 1.5 0  57.75 1.5 0  58.5 1.5 0  59.25 1.5 0  60 1.5 0  0 2 0  0.75 2 0  1.5 2 0  2.25 2 0  3 2 0  3.75 2 0  4.5 2 0  5.25 2 0  6 2 0  6.75 2 0  7.5 2 0  8.25 2 0  9 2 0  9.75 2 0  10.5 2 0  11.25 2 0  12 2 0  12.75 2 0  13.5 2 0  14.25 2 0  15 2 0  15.75 2 0  16.5 2 0  17.25 2 0  18 2 0  18.75 2 0  19.5 2 0  20.25 2 0  21 2 0  21.75 2 0  22.5 2 0  23.25 2 0  24 2 0  24.75 2 0  25.5 2 0  26.25 2 0  27 2 0  27.75 2 0  28.5 2 0  29.25 2 0  30 2 0  30.75 2 0  31.5 2 0  32.25 2 0  33 2 0  33.75 2 0  34.5 2 0  35.25 2 0  36 2 0  36.75 2 0  37.5 2 0  38.25 2 0  39 2 0  39.75 2 0  40.5 2 0  41.25 2 0  42 2 0  42.75 2 0  43.5 2 0  44.25 2 0  45 2 0  45.75 2 0  46.5 2 0  47.25 2 0  48 2 0  48.75 2 0  49.5 2 0  50.25 2 0  51 2 0  51.75 2 0  52.5 2 0  53.25 2 0  54 2 0  54.75 2 0  55.5 2 0  56.25 2 0  57 2 0  57.75 2 0  58.5 2 0  59.25 2 0  60 2 0  0 2.5 0  0.75 2.5 0  1.5 2.5 0  2.25 2.5 0  3 2.5 0  3.75 2.5 0  4.5 2.5 0  5.25 2.5 0  6 2.5 0  6.75 2.5 0  7.5 2.5 0  8.25 2.5 0  9 2.5 0  9.75 2.5 0  10.5 2.5 0  11.25 2.5 0  12 2.5 0  12.75 2.5 0  13.5 2.5 0  14.25 2.5 0  15 2.5 0  15.75 2.5 0  16.5 2.5 0  17.25 2.5 0  18 2.5 0  18.75 2.5 0  19.5 2.5 0  20.25 2.5 0  21 2.5 0  21.75 2.5 0  22.5 2.5 0  23.25 2.5 0  24 2.5 0  24.75 2.5 0  25.5 2.5 0  26.25 2.5 0  27 2.5 0  27.75 2.5 0  28.5 2.5 0  29.25 2.5 0  30 2.5 0  30.75 2.5 0  31.5 2.5 0  32.25 2.5 0  33 2.5 0  33.75 2.5 0  34.5 2.5 0  35.25 2.5 0  36 2.5 0  36.75 2.5 0  37.5 2.5 0  38.25 2.5 0  39 2.5 0  39.75 2.5 0  40.5 2.5 0  41.25 2.5 0  42 2.5 0  42.75 2.5 0  43.5 2.5 0  44.25 2.5 0  45 2.5 0  45.75 2.5 0  46.5 2.5 0  47.25 2.5 0  48 2.5 0  48.75 2.5 0  49.5 2.5 0  50.25 2.5 0  51 2.5 0  51.75 2.5 0  52.5 2.5 0  53.25 2.5 0  54 2.5 0  54.75 2.5 0  55.5 2.5 0  56.25 2.5 0  57 2.5 0  57.75 2.5 0  58.5 2.5 0  59.25 2.5 0  60 2.5 0  0 3 0  0.75 3 0  1.5 3 0  2.25 3 0  3 3 0  3.75 3 0  4.5 3 0  5.25 3 0  6 3 0  6.75 3 0  7.5 3 0  8.25 3 0  9 3 0  9.75 3 0  10.5 3 0  11.25 3 0  12 3 0  12.75 3 0  13.5 3 0  14.25 3 0  15 3 0  15.75 3 0  16.5 3 0  17.25 3 0  18 3 0  18.75 3 0  19.5 3 0  20.25 3 0  21 3 0  21.75 3 0  22.5 3 0  23.25 3 0  24 3 0  24.75 3 0  25.5 3 0  26.25 3 0  27 3 0  27.75 3 0  28.5 3 0  29.25 3 0  30 3 0  30.75 3 0  31.5 3 0  32.25 3 0  33 3 0  33.75 3 0  34.5 3 0  35.25 3 0  36 3 0  36.75 3 0  37.5 3 0  38.25 3 0  39 3 0  39.75 3 0  40.5 3 0  41.25 3 0  42 3 0  42.75 3 0  43.5 3 0  44.25 3 0  45 3 0  45.75 3 0  46.5 3 0  47.25 3 0  48 3 0  48.75 3 0  49.5 3 0  50.25 3 0  51 3 0  51.75 3 0  52.5 3 0  53.25 3 0  54 3 0  54.75 3 0  55.5 3 0  56.25 3 0  57 3 0  57.75 3 0  58.5 3 0  59.25 3 0  60 3 0  0 3.5 0  0.75 3.5 0  1.5 3.5 0  2.25 3.5 0  3 3.5 0  3.75 3.5 0  4.5 3.5 0  5.25 3.5 0  6 3.5 0  6.75 3.5 0  7.5 3.5 0  8.25 3.5 0  9 3.5 0  9.75 3.5 0  10.5 3.5 0  11.25 3.5 0  12 3.5 0  12.75 3.5 0  13.5 3.5 0  14.25 3.5 0  15 3.5 0  15.75 3.5 0  16.5 3.5 0  17.25 3.5 0  18 3.5 0  18.75 3.5 0  19.5 3.5 0  20.25 3.5 0  21 3.5 0  21.75 3.5 0  22.5 3.5 0  23.25 3.5 0  24 3.5 0  24.75 3.5 0  25.5 3.5 0  26.25 3.5 0  27 3.5 0  27.75 3.5 0  28.5 3.5 0  29.25 3.5 0  30 3.5 0  30.75 3.5 0  31.5 3.5 0  32.25 3.5 0  33 3.5 0  33.75 3.5 0  34.5 3.5 0  35.25 3.5 0  36 3.5 0  36.75 3.5 0  37.5 3.5 0  38.25 3.5 0  39 3.5 0  39.75 3.5 0  40.5 3.5 0  41.25 3.5 0  42 3.5 0  42.75 3.5 0  43.5 3.5 0  44.25 3.5 0  45 3.5 0  45.75 3.5 0  46.5 3.5 0  47.25 3.5 0  48 3.5 0  48.75 3.5 0  49.5 3.5 0  50.25 3.5 0  51 3.5 0  51.75 3.5 0  52.5 3.5 0  53.25 3.5 0  54 3.5 0  54.75 3.5 0  55.5 3.5 0  56.25 3.5 0  57 3.5 0  57.75 3.5 0  58.5 3.5 0  59.25 3.5 0  60 3.5 0  0 4 0  0.75 4 0  1.5 4 0  2.25 4 0  3 4 0  3.75 4 0  4.5 4 0  5.25 4 0  6 4 0  6.75 4 0  7.5 4 0  8.25 4 0  9 4 0  9.75 4 0  10.5 4 0  11.25 4 0  12 4 0  12.75 4 0  13.5 4 0  14.25 4 0  15 4 0  15.75 4 0  16.5 4 0  17.25 4 0  18 4 0  18.75 4 0  19.5 4 0  20.25 4 0  21 4 0  21.75 4 0  22.5 4 0  23.25 4 0  24 4 0  24.75 4 0  25.5 4 0  26.25 4 0  27 4 0  27.75 4 0  28.5 4 0  29.25 4 0  30 4 0  30.75 4 0  31.5 4 0  32.25 4 0  33 4 0  33.75 4 0  34.5 4 0  35.25 4 0  36 4 0  36.75 4 0  37.5 4 0  38.25 4 0  39 4 0  39.75 4 0  40.5 4 0  41.25 4 0  42 4 0  42.75 4 0  43.5 4 0  44.25 4 0  45 4 0  45.75 4 0  46.5 4 0  47.25 4 0  48 4 0  48.75 4 0  49.5 4 0  50.25 4 0  51 4 0  51.75 4 0  52.5 4 0  53.25 4 0  54 4 0  54.75 4 0  55.5 4 0  56.25 4 0  57 4 0  57.75 4 0  58.5 4 0  59.25 4 0  60 4 0  0.375 0.25 0  1.125 0.25 0  1.875 0.25 0  2.625 0.25 0  3.375 0.25 0  4.125 0.25 0  4.875 0.25 0  5.625 0.25 0  6.375 0.25 0  7.125 0.25 0  7.875 0.25 0  8.625 0.25 0  9.375 0.25 0  10.125 0.25 0  10.875 0.25 0  11.625 0.25 0  12.375 0.25 0  13.125 0.25 0  13.875 0.25 0  14.625 0.25 0  15.375 0.25 0  16.125 0.25 0  16.875 0.25 0  17.625 0.25 0  18.375 0.25 0  19.125 0.25 0  19.875 0.25 0  20.625 0.25 0  21.375 0.25 0  22.125 0.25 0  22.875 0.25 0  23.625 0.25 0  24.375 0.25 0  25.125 0.25 0  25.875 0.25 0  26.625 0.25 0  27.375 0.25 0  28.125 0.25 0  28.875 0.25 0  29.625 0.25 0  30.375 0.25 0  31.125 0.25 0  31.875 0.25 0  32.625 0.25 0  33.375 0.25 0  34.125 0.25 0  34.875 0.25 0  35.625 0.25 0  36.375 0.25 0  37.125 0.25 0  37.875 0.25 0  38.625 0.25 0  39.375 0.25 0  40.125 0.25 0  40.875 0.25 0  41.625 0.25 0  42.375 0.25 0  43.125 0.25 0  43.875 0.25 0  44.625 0.25 0  45.375 0.25 0  46.125 0.25 0  46.875 0.25 0  47.625 0.25 0  48.375 0.25 0  49.125 0.25 0  49.875 0.25 0  50.625 0.25 0  51.375 0.25 0  52.125 0.25 0  52.875 0.25 0  53.625 0.25 0  54.375 0.25 0  55.125 0.25 0  55.875 0.25 0  56.625 0.25 0  57.375 0.25 0  58.125 0.25 0  58.875 0.25 0  59.625 0.25 0  0.375 0.75 0  1.125 0.75 0  1.875 0.75 0  2.625 0.75 0  3.375 0.75 0  4.125 0.75 0  4.875 0.75 0  5.625 0.75 0  6.375 0.75 0  7.125 0.75 0  7.875 0.75 0  8.625 0.75 0  9.375 0.75 0  10.125 0.75 0  10.875 0.75 0  11.625 0.75 0  12.375 0.75 0  13.125 0.75 0  13.875 0.75 0  14.625 0.75 0  15.375 0.75 0  16.125 0.75 0  16.875 0.75 0  17.625 0.75 0  18.375 0.75 0  19.125 0.75 0  19.875 0.75 0  20.625 0.75 0  21.375 0.75 0  22.125 0.75 0  22.875 0.75 0  23.625 0.75 0  24.375 0.75 0  25.125 0.75 0  25.875 0.75 0  26.625 0.75 0  27.375 0.75 0  28.125 0.75 0  28.875 0.75 0  29.625 0.75 0  30.375 0.75 0  31.125 0.75 0  31.875 0.75 0  32.625 0.75 0  33.375 0.75 0  34.125 0.75 0  34.875 0.75 0  35.625 0.75 0  36.375 0.75 0  37.125 0.75 0  37.875 0.75 0  38.625 0.75 0  39.375 0.75 0  40.125 0.75 0  40
[...]
<PointData  Vectors="f_8-0"> 
<DataArray  type="Float64"  Name="f_8-0"  NumberOfComponents="3" format="ascii">0.0000000000000000e+00 0.0000000000000000e+00 0.0000000000000000e+00  0.0000000000000000e+00 0.0000000000000000e+00 0.0000000000000000e+00  0.0000000000000000e+00 0.0000000000000000e+00 0.0000000000000000e+00  0.0000000000000000e+00 0.0000000000000000e+00 0.0000000000000000e+00  0.0000000000000000e+00 0.0000000000000000e+00 0.0000000000000000e+00  0.0000000000000000e+00 0.0000000000000000e+00 0.0000000000000000e+00  0.0000000000000000e+00 0.0000000000000000e+00 0.0000000000000000e+00  0.0000000000000000e+00 0.0000000000000000e+00 0.0000000000000000e+00  0.0000000000000000e+00 0.0000000000000000e+00 0.0000000000000000e+00  0.0000000000000000e+00 0.0000000000000000e+00 0.0000000000000000e+00  0.0000000000000000e+00 0.0000000000000000e+00 0.0000000000000000e+00  0.0000000000000000e+00 0.0000000000000000e+00 0.0000000000000000e+00  0.0000000000000000e+00 0.0000000000000000e+00 0.0000000000000000e+00  0.0000000000000000e+00 0.0000000000000000e+00 0.0000000000000000e+00  0.0000000000000000e+00 0.0000000000000000e+00 0.0000000000000000e+00  0.0000000000000000e+00 0.0000000000000000e+00 0.0000000000000000e+00  0.0000000000000000e+00 0.0000000000000000e+00 0.0000000000000000e+00  0.0000000000000000e+00 0.0000000000000000e+00 0.0000000000000000e+00  0.0000000000000000e+00 0.0000000000000000e+00 0.0000000000000000e+00  0.0000000000000000e+00 0.0000000000000000e+00 0.0000000000000000e+00  0.0000000000000000e+00 0.0000000000000000e+00 0.0000000000000000e+00  0.0000000000000000e+00 0.0000000000000000e+00 0.0000000000000000e+00  0.0000000000000000e+00 0.0000000000000000e+00 0.0000000000000000e+00  0.0000000000000000e+00 0.0000000000000000e+00 0.0000000000000000e+00  0.0000000000000000e+00 0.0000000000000000e+00 0.0000000000000000e+00  0.0000000000000000e+00 0.0000000000000000e+00 0.0000000000000000e+00  0.0000000000000000e+00 0.0000000000000000e+00 0.0000000000000000e+00  0.0000000000000000e+00 0.0000000000000000e+00 0.0000000000000000e+00  0.0000000000000000e+00 0.0000000000000000e+00 0.0000000000000000e+00  0.0000000000000000e+00 0.0000000000000000e+00 0.0000000000000000e+00  0.0000000000000000e+00 0.0000000000000000e+00 0.0000000000000000e+00  0.0000000000000000e+00 0.0000000000000000e+00 0.0000000000000000e+00  0.0000000000000000e+00 0.0000000000000000e+00 0.0000000000000000e+00  0.0000000000000000e+00 0.0000000000000000e+00 0.0000000000000000e+00  0.0000000000000000e+00 0.0000000000000000e+00 0.0000000000000000e+00  0.0000000000000000e+00 0.0000000000000000e+00 0.0000000000000000e+00  0.0000000000000000e+00 0.0000000000000000e+00 0.0000000000000000e+00  0.0000000000000000e+00 0.0000000000000000e+00 0.0000000000000000e+00  0.0000000000000000e+00 0.0000000000000000e+00 0.0000000000000000e+00  0.0000000000000000e+00 0.0000000000000000e+00 0.0000000000000000e+00  0.0000000000000000e+00 0.0000000000000000e+00 0.0000000000000000e+00  0.0000000000000000e+00 0.0000000000000000e+00 0.0000000000000000e+00  0.0000000000000000e+00 0.0000000000000000e+00 0.0000000000000000e+00  0.0000000000000000e+00 0.0000000000000000e+00 0.0000000000000000e+00  0.0000000000000000e+00 0.0000000000000000e+00 0.0000000000000000e+00  0.0000000000000000e+00 0.0000000000000000e+00 0.0000000000000000e+00  0.0000000000000000e+00 0.0000000000000000e+00 0.0000000000000000e+00  0.0000000000000000e+00 0.0000000000000000e+00 0.0000000000000000e+00  0.0000000000000000e+00 0.0000000000000000e+00 0.0000000000000000e+00  0.0000000000000000e+00 0.0000000000000000e+00 0.0000000000000000e+00  0.0000000000000000e+00 0.0000000000000000e+00 0.0000000000000000e+00  0.0000000000000000e+00 0.0000000000000000e+00 0.0000000000000000e+00  0.0000000000000000e+00 0.0000000000000000e+00 0.0000000000000000e+00  0.0000000000000000e+00 0.0000000000000000e+00 0.0000000000000000e+00  0.0000000000000000e+00 0.0000000000000000e+00 0.0000000000000000e+00  0.0000000000000000e+00 0.0000000000000000e+00 0.0000000000000000e+00  0.0000000000000000e+00 0.0000000000000000e+00 0.0000000000000000e+00  0.0000000000000000e+00 0.0000000000000000e+00 0.0000000000000000e+00  0.0000000000000000e+00 0.0000000000000000e+00 0.0000000000000000e+00  0.0000000000000000e+00 0.0000000000000000e+00 0.0000000000000000e+00  0.0000000000000000e+00 0.0000000000000000e+00 0.0000000000000000e+00  0.0000000000000000e+00 0.0000000000000000e+00 0.0000000000000000e+00  0.0000000000000000e+00 0.0000000000000000e+00 0.0000000000000000e+00  0.0000000000000000e+00 0.0000000000000000e+00 0.0000000000000000e+00  0.0000000000000000e+00 0.0000000000000000e+00 0.0000000000000000e+00  0.0000000000000000e+00 0.0000000000000000e+00 0.0000000000000000e+00  0.0000000000000000e+00 0.0000000000000000e+00 0.0000000000000000e+00  0.0000000000000000e+00 0.0000000000000000e+00 0.0000000000000000e+00  0.0000000000000000e+00 0.0000000000000000e+00 0.0000000000000000e+00  0.0000000000000000e+00 0.0000000000000000e+00 0.0000000000000000e+00  0.0000000000000000e+00 0.0000000000000000e+00 0.0000000000000000e+00  0.0000000000000000e+00 0.0000000000000000e+00 0.0000000000000000e+00  0.0000000000000000e+00 0.0000000000000000e+00 0.0000000000000000e+00  0.0000000000000000e+00 0.0000000000000000e+00 0.0000000000000000e+00  0.0000000000000000e+00 0.0000000000000000e+00 0.0000000000000000e+00  0.0000000000000000e+00 0.0000000000000000e+00 0.0000000000000000e+00  0.0000000000000000e+00 0.0000000000000000e+00 0.0000000000000000e+00  0.0000000000000000e+00 0.0000000000000000e+00 0.0000000000000000e+00  0.0000000000000000e+00 0.0000000000000000e+00 0.0000000000000000e+00  0.0000000000000000e+00 0.0000000000000000e+00 0.0000000000000000e+00  0.0000000000000000e+00 0.0000000000000000e+00 0.0000000000000000e+00  -2.3309213946974584e+01 0.0000000000000000e+00 0.0000000000000000e+00  -2.3283663079731433e+01 -1.3613330001652493e-03 0.0000000000000000e+00  -2.3273071755411028e+01 -3.0052868540191026e-03 0.0000000000000000e+00  -2.3270798913876693e+01 -2.9581432678161012e-03 0.0000000000000000e+00  -2.3269760067305018e+01 -2.9031460138831647e-03 0.0000000000000000e+00  -2.3268958077447071e+01 -2.8755514740625323e-03 0.0000000000000000e+00  -2.3268267199937224e+01 -2.8313522684663898e-03 0.0000000000000000e+00  -2.3267726308719183e+01 -2.7673182596177448e-03 0.0000000000000000e+00  -2.3267346543726024e+01 -2.7031996064096129e-03 0.0000000000000000e+00  -2.3267101563735498e+01 -2.6515010118870110e-03 0.0000000000000000e+00  -2.3266953375870816e+01 -2.6154103258775653e-03 0.0000000000000000e+00  -2.3266868046486067e+01 -2.5924049107253141e-03 0.0000000000000000e+00  -2.3266820700454073e+01 -2.5787405838367024e-03 0.0000000000000000e+00  -2.3266795137358383e+01 -2.5709854474370315e-03 0.0000000000000000e+00  -2.3266781584397201e+01 -2.5667638920601481e-03 0.0000000000000000e+00  -2.3266774465413622e+01 -2.5645094701592414e-03 0.0000000000000000e+00  -2.3266770722878579e+01 -2.5633326465587104e-03 0.0000000000000000e+00  -2.3266768731484095e+01 -2.5627174967922614e-03 0.0000000000000000e+00  -2.3266767642924059e+01 -2.5624008037724555e-03 0.0000000000000000e+00  -2.3266767020564362e+01 -2.5622349993802643e-03 0.0000000000000000e+00  -2.3266766639723528e+01 -2.5621496169164399e-03 0.0000000000000000e+00  -2.3266766384993328e+01 -2.5621042904013266e-03 0.0000000000000000e+00  -2.3266766196459379e+01 -2.5620808226996332e-03 0.0000000000000000e+00  -2.3266766042978048e+01 -2.5620681354900990e-03 0.0000000000000000e+00  -2.3266765908096978e+01 -2.5620615509285485e-03 0.0000000000000000e+00  -2.3266765783172705e+01 -2.5620579268889787e-03 0.0000000000000000e+00  -2.3266765663555056e+01 -2.5620560579743454e-03 0.0000000000000000e+00  -2.3266765546794637e+01 -2.5620550142355044e-03 0.0000000000000000e+00  -2.3266765431552471e+01 -2.5620544846115447e-03 0.0000000000000000e+00  -2.3266765317126630e+01 -2.5620541875623426e-03 0.0000000000000000e+00  -2.3266765203129875e+01 -2.5620540417461424e-03 0.0000000000000000e+00  -2.3266765089362870e+01 -2.5620539610750250e-03 0.0000000000000000e+00  -2.3266764975713748e+01 -2.5620539228350366e-03 0.0000000000000000e+00  -2.3266764862129669e+01 -2.5620539052678640e-03 0.0000000000000000e+00  -2.3266764748576517e+01 -2.5620538964844044e-03 0.0000000000000000e+00  -2.3266764635047533e+01 -2.5620538967888761e-03 0.0000000000000000e+00  -2.3266764521524188e+01 -2.5620538915877896e-03 0.0000000000000000e+00  -2.3266764408028173e+01 -2.5620539015368039e-03 0.0000000000000000e+00  -2.3266764294514786e+01 -2.5620538845289331e-03 0.0000000000000000e+00  -2.3266764181073263e+01 -2.5620539166820995e-03 0.0000000000000000e+00  -2.3266764067541242e+01 -2.5620538559206823e-03 0.0000000000000000e+00  -2.3266763954231187e+01 -2.5620539649441961e-03 0.0000000000000000e+00  -2.3266763840575539e+01 -2.5620537547391730e-03 0.0000000000000000e+00  -2.3266763727631751e+01 -2.5620541282886421e-03 0.0000000000000000e+00  -2.3266763613485129e+01 -2.5620534297837207e-03 0.0000000000000000e+00  -2.3266763501631544e+01 -2.5620546668332234e-03 0.0000000000000000e+00  -2.3266763385822674e+01 -2.5620524169352875e-03 0.0000000000000000e+00  -2.3266763277221560e+01 -2.5620563580596241e-03 0.0000000000000000e+00  -2.3266763156236745e+01 -2.5620493705134453e-03 0.0000000000000000e+00  -2.3266763057081096e+01 -2.5620614060355529e-03 0.0000000000000000e+00  -2.3266762921002602e+01 -2.5620406073955512e-03 0.0000000000000000e+00  -2.3266762848037221e+01 -2.5620756884867464e-03 0.0000000000000000e+00  -2.3266762670640400e+01 -2.5620166871898999e-03 0.0000000000000000e+00  -2.3266762666200187e+01 -2.5621138135830720e-03 0.0000000000000000e+00  -2.3266762382931301e+01 -2.5619551329489187e-03 0.0000000000000000e+00  -2.3266762546270805e+01 -2.5622095242435984e-03 0.0000000000000000e+00  -2.3266762009250833e+01 -2.5618064712857290e-03 0.0000000000000000e+00  -2.3266762555544179e+01 -2.5624356599375257e-03 0.0000000000000000e+00  -2.3266761445688982e+01 -2.5614695938364932e-03 0.0000000000000000e+00  -2.3266762808234606e+01 -2.5629429929672470e-03 0.0000000000000000e+00  -2.3266760458470635e+01 -2.5607495091606617e-03 0.0000000000000000e+00  -2.3266763449832791e+01 -2.5640403195665356e-03 0.0000000000000000e+00  -2.3266758501460490e+01 -2.5592752937577202e-03 0.0000000000000000e+00  -2.3266764498063591e+01 -2.5662961952386482e-03 0.0000000000000000e+00  -2.3266754613479165e+01 -2.5562168801515970e-03 0.0000000000000000e+00  -2.3266765267201968e+01 -2.5701550137580092e-03 0.0000000000000000e+00  -2.3266747236527490e+01 -2.5497911508775917e-03 0.0000000000000000e+00  -2.3266752833525661e+01 -2.5776746913556319e-03 0.0000000000000000e+00  -2.3266688347786321e+01 -2.5567669119715619e-03 0.0000000000000000e+00  -2.3266522349687285e+01 -2.6582725154027285e-03 0.0000000000000000e+00  -2.3266028437485282e+01 -2.7797260236227181e-03 0.0000000000000000e+00  -2.3264859991358602e+01 -3.1228878423637954e-03 0.0000000000000000e+00  -2.3263062816166745e+01 -3.4143297579204766e-03 0.0000000000000000e+00  -2.3259978801110087e+01 -3.4054134049381671e-03 0.0000000000000000e+00  -2.3256726484379886e+01 -3.4385987750407297e-03 0.0000000000000000e+00  -2.3251531866133003e+01 -2.4411118615386379e-03 0.0000000000000000e+00  -2.3251267331857896e+01 -1.9968681477899935e-03 0.0000000000000000e+00  -2.3246614422412215e+01 -1.7962304171627462e-03 0.0000000000000000e+00  -2.3241754275051136e+01 -1.1534638647790368e-02 0.0000000000000000e+00  -2.3242522904679923e+01 -3.8701627133751797e-02 0.0000000000000000e+00  -2.3194304202235596e+01 0.0000000000000000e+00 0.0000000000000000e+00  -3.1526043700116315e+01 0.0000000000000000e+00 0.0000000000000000e+00  -3.1533968531096431e+01 -5.1104619456377191e-04 0.0000000000000000e+00  -3.1533556842053663e+01 1.5336808008472110e-03 0.0000000000000000e+00  -3.1532600528990766e+01 2.0399552770364758e-03 0.0000000000000000e+00  -3.1531990313612251e+01 2.1832514949702972e-03 0.0000000000000000e+00  -3.1531552440691705e+01 2.2801517348010796e-03 0.0000000000000000e+00  -3.1531289312339933e+01 2.4407518528174852e-03 0.0000000000000000e+00  -3.1531184410427866e+01 2.6190181833306379e-03 0.0000000000000000e+00  -3.1531164043864006e+01 2.7620716936827606e-03 0.0000000000000000e+00  -3.1531170581557351e+01 2.8618501285942255e-03 0.0000000000000000e+00  -3.1531180549813058e+01 2.9255965372542237e-03 0.0000000000000000e+00  -3.1531187712323359e+01 2.9643694305268834e-03 0.0000000000000000e+00  -3.1531191772884913e+01 2.9868804272139768e-03 0.0000000000000000e+00  -3.1531193790441449e+01 2.9995672165619132e-03 0.0000000000000000e+00  -3.1531194719644933e+01 3.0064256211221169e-03 0.0000000000000000e+00  -3.1531195105739176e+01 3.0100822836368639e-03 0.0000000000000000e+00  -3.1531195229143954e+01 3.0119791879480193e-03 0.0000000000000000e+00  -3.1531195220841788e+01 3.0129740985436709e-03 0.0000000000000000e+00  -3.1531195148520982e+01 3.0134838188686664e-03 0.0000000000000000e+00  -3.1531195043245901e+01 3.0137533520512589e-03 0.0000000000000000e+00  -3.1531194921856727e+01 3.0138910930627674e-03 0.0000000000000000e+00  -3.1531194791630703e+01 3.0139652847971658e-03 0.0000000000000000e+00  -3.1531194656880999e+01 3.0140030778278413e-03 0.0000000000000000e+00  -3.1531194519398664e+01 3.0140239152941432e-03 0.0000000000000000e+00  -3.1531194380437995e+01 3.0140344120437187e-03 0.0000000000000000e+00  -3.1531194240512558e+01 3.0140403561922545e-03 0.0000000000000000e+00  -3.1531194100041809e+01 3.0140432677163362e-03 0.0000000000000000e+00  -3.1531193959195480e+01 3.0140449645192262e-03 0.0000000000000000e+00  -3.1531193818126265e+01 3.0140457516024382e-03 0.0000000000000000e+00  -3.1531193676901147e+01 3.0140462211782943e-03 0.0000000000000000e+00  -3.1531193535578137e+01 3.0140464177756967e-03 0.0000000000000000e+00  -3.1531193394189298e+01 3.0140465342300038e-03 0.0000000000000000e+00  -3.1531193252758989e+01 3.0140465732717888e-03 0.0000000000000000e+00  -3.1531193111300510e+01 3.0140465925070276e-03 0.0000000000000000e+00  -3.1531192969833999e+01 3.0140465924416398e-03 0.0000000000000000e+00  -3.1531192828352680e+01 3.0140465924626525e-03 0.0000000000000000e+00  -3.1531192686897803e+01 3.0140465833720293e-03 0.0000000000000000e+00  -3.1531192545412122e+01 3.0140465904112800e-03 0.0000000000000000e+00  -3.1531192404022928e+01 3.0140465725060762e-03 0.0000000000000000e+00  -3.1531192262509581e+01 3.0140466119918667e-03 0.0000000000000000e+00  -3.1531192121303508e+01 3.0140465542977226e-03 0.0000000000000000e+00  -3.1531191979624310e+01 3.0140466918775286e-03 0.0000000000000000e+00  -3.1531191838928493e+01 3.0140464850039760e-03 0.0000000000000000e+00  -3.1531191696597794e+01 3.0140469317817098e-03 0.0000000000000000e+00  -3.1531191557390503e+01 3.0140462203935791e-03 0.0000000000000000e+00  -3.1531191412868854e+01 3.0140476333575705e-03 0.0000000000000000e+00  -3.1531191278021343e+01 3.0140453157627440e-03 0.0000000000000000e+00  -3.1531191126767965e+01 3.0140496643697038e-03 0.0000000000000000e+00  -3.1531191004311687e+01 3.0140424792865000e-03 0.0000000000000000e+00  -3.1531190833810701e+01 3.0140553925488557e-03 0.0000000000000000e+00  -3.1531190744840217e+01 3.0140341962781149e-03 0.0000000000000000e+00  -3.1531190523101976e+01 3.0140708763096171e-03 0.0000000000000000e+00  -3.1531190518822562e+01 3.0140115118292366e-03 0.0000000000000000e+00  -3.1531190171016284e+01 3.0141105473735336e-03 0.0000000000000000e+00  -3.1531190364342731e+01 3.0139531293222228e-03 0.0000000000000000e+00  -3.1531189732453388e+01 3.0142059207408246e-03 0.0000000000000000e+00  -3.1531190344928739e+01 3.0138113621021906e-03 0.0000000000000000e+00  -3.1531189130885164e+01 3.0144186152354889e-03 0.0000000000000000e+00  -3.1531190539106735e+01 3.0134831224251173e-03 0.0000000000000000e+00  -3.1531188238151213e+01 3.0148499388037457e-03 0.0000000000000000e+00  -3.1531190964689696e+01 3.0127438396840641e-03 0.0000000000000000e+00  -3.1531186786121179e+01 3.0156105364358451e-03 0.0000000000000000e+00  -3.1531191223128690e+01 3.0110947731738472e-03 0.0000000000000000e+00  -3.1531183956324519e+01 3.0166548247619971e-03 0.0000000000000000e+00  -3.1531188547893272e+01 3.0073570962056788e-03 0.0000000000000000e+00  -3.1531175054399352e+01 3.0164049194513513e-03 0.0000000000000000e+00  -3.1531163990649070e+01 2.9936876394743035e-03 0.0000000000000000e+00  -3.1531118076841842e+01 2.9873545226713353e-03 0.0000000000000000e+00  -3.1530990420301176e+01 2.8762569242140813e-03 0.0000000000000000e+00  -3.1530738229236150e+01 2.6753770579531063e-03 0.0000000000000000e+00  -3.1530095365714985e+01 2.1253785241940513e-03 0.0000000000000000e+00  -3.1529005621811592e+01 1.2754422708676281e-03 0.0000000000000000e+00  -3.1526481931623316e+01 -2.5906185262302836e-05 0.0000000000000000e+00  -3.1522099834573666e+01 -1.6544487695818700e-03 0.0000000000000000e+00  -3.1515399903237078e+01 -2.5099912387091666e-03 0.0000000000000000e+00  -3.1511358711361584e+01 -8.6220674848151680e-04 0.0000000000000000e+00  -3.1507704099057715e+01 1.4261607100237584e-03 0.0000000000000000e+00  -3.1508123500547484e+01 2.4798538412672197e-03 0.0000000000000000e+00  -3.1508909561921651e+01 -1.2862331422291815e-03 0.0000000000000000e+00  -3.1532618853490398e+01 2.2161899951234978e-02 0.0000000000000000e+00  -3.1523051524871381e+01 0.0000000000000000e+00 0.0000000000000000e+00  -3.1429399742313571e+01 0.0000000000000000e+00 0.0000000000000000e+00  -3.1434389944086174e+01 -1.3202301768032562e-03 0.0000000000000000e+00  -3.1436873791430049e+01 -4.6476388549358203e-04 0.0000000000000000e+00  -3.1437902624316497e+01 -1.2032808680933520e-05 0.0000000000000000e+00  -3.1438610466382009e+01 1.3353486872948888e-04 0.0000000000000000e+00  -3.1439254334816120e+01 2.5234738852402978e-04 0.0000000000000000e+00  -3.1439807481217048e+01 4.3626123742376464e-04 0.0000000000000000e+00  -3.1440223929261645e+01 6.1062368767613102e-04 0.0000000000000000e+00  -3.1440504122486139e+01 7.2604960727661396e-04 0.0000000000000000e+00  -3.1440678657221234e+01 7.9605263798786436e-04 0.0000000000000000e+00  -3.1440781851260983e+01 8.3764285520633065e-04 0.0000000000000000e+00  -3.1440840480959526e+01 8.6233268779485628e-04 0.0000000000000000e+00  -3.1440872796861342e+01 8.7656647891030026e-04 0.0000000000000000e+00  -3.1440890211275985e+01 8.8462100582939679e-04 0.0000000000000000e+00  -3.1440899415728190e+01 8.8898963666204207e-04 0.0000000000000000e+00  -3.1440904197869795e+01 8.9134237297543596e-04 0.0000000000000000e+00  -3.1440906632462358e+01 8.9256751579425446e-04 0.0000000000000000e+00  -3.1440907839887775e+01 8.9321587729048347e-04 0.0000000000000000e+00  -3.1440908406565018e+01 8.9354721305005336e-04 0.0000000000000000e+00  -3.1440908641155964e+01 8.9372335883035477e-04 0.0000000000000000e+00  -3.1440908701045327e+01 8.9381229790688461e-04 0.0000000000000000e+00  -3.1440908669620530e+01 8.9386032123413034e-04 0.0000000000000000e+00  -3.1440908589069949e+01 8.9388423074297384e-04 0.0000000000000000e+00  -3.1440908482571960e+01 8.9389741477494643e-04 0.0000000000000000e+00  -3.1440908361717486e+01 8.9390381319339677e-04 0.0000000000000000e+00  -3.1440908233259375e+01 8.9390742047500767e-04 0.0000000000000000e+00  -3.1440908100447601e+01 8.9390907547274787e-04 0.0000000000000000e+00  -3.1440907965341875e+01 8.9391002770967932e-04 0.0000000000000000e+00  -3.1440907828865480e+01 8.9391041590940233e-04 0.0000000000000000e+00  -3.1440907691674976e+01 8.9391064066683191e-04 0.0000000000000000e+00  -3.1440907554035874e+01 8.9391070752213142e-04 0.0000000000000000e+00  -3.1440907416169203e+01 8.9391074374255131e-04 0.0000000000000000e+00  -3.1440907278149371e+01 8.9391074202151990e-04 0.0000000000000000e+00  -3.1440907140060062e+01 8.9391073975848281e-04 0.0000000000000000e+00  -3.1440907001913793e+01 8.9391073515228631e-04 0.0000000000000000e+00  -3.1440906863763328e+01 8.9391073427914848e-04 0.0000000000000000e+00  -3.1440906725574727e+01 8.9391074282588049e-04 0.0000000000000000e+00  -3.