<?xml version="1.0"?>
<VTKFile type="UnstructuredGrid"  version="0.1"  >
<UnstructuredGrid>
<Piece  NumberOfPoints="1369" NumberOfCells="2560">
<Points>
<DataArray  type="Float64"  NumberOfComponents="3"  format="ascii">0 0 0  0.75 0 0  1.5 0 0  2.25 0 0  3 0 0  3.75 0 0  4.5 0 0  5.25 0 0  6 0 0  6.75 0 0  7.5 0 0  8.25 0 0  9 0 0  9.75 0 0  10.5 0 0  11.25 0 0  12 0 0  12.75 0 0  13.5 0 0  14.25 0 0  15 0 0  15.75 0 0  16.5 0 0  17.25 0 0  18 0 0  18.75 0 0  19.5 0 0  20.25 0 0  21 0 0  21.75 0 0  22.5 0 0  23.25 0 0  24 0 0  24.75 0 0  25.5 0 0  26.25 0 0  27 0 0  27.75 0 0  28.5 0 0  29.25 0 0  30 0 0  30.75 0 0  31.5 0 0  32.25 0 0  33 0 0  33.75 0 0  34.5 0 0  35.25 0 0  36 0 0  36.75 0 0  37.5 0 0  38.25 0 0  39 0 0  39.75 0 0  40.5 0 0  41.25 0 0  42 0 0  42.75 0 0  43.5 0 0  44.25 0 0  45 0 0  45.75 0 0  46.5 0 0  47.25 0 0  48 0 0  48.75 0 0  49.5 0 0  50.25 0 0  51 0 0  51.75 0 0  52.5 0 0  53.25 0 0  54 0 0  54.75 0 0  55.5 0 0  56.25 0 0  57 0 0  57.75 0 0  58.5 0 0  59.25 0 0  60 0 0  0 0.5 0  0.75 0.5 0  1.5 0.5 0  2.25 0.5 0  3 0.5 0  3.75 0.5 0  4.5 0.5 0  5.25 0.5 0  6 0.5 0  6.75 0.5 0  7.5 0.5 0  8.25 0.5 0  9 0.5 0  9.75 0.5 0  10.5 0.5 0  11.25 0.5 0  12 0.5 0  12.75 0.5 0  13.5 0.5 0  14.25 0.5 0  15 0.5 0  15.75 0.5 0  16.5 0.5 0  17.25 0.5 0  18 0.5 0  18.75 0.5 0  19.5 0.5 0  20.25 0.5 0  21 0.5 0  21.75 0.5 0  22.5 0.5 0  23.25 0.5 0  24 0.5 0  24.75 0.5 0  25.5 0.5 0  26.25 0.5 0  27 0.5 0  27.75 0.5 0  28.5 0.5 0  29.25 0.5 0  30 0.5 0  30.75 0.5 0  31.5 0.5 0  32.25 0.5 0  33 0.5 0  33.75 0.5 0  34.5 0.5 0  35.25 0.5 0  36 0.5 0  36.75 0.5 0  37.5 0.5 0  38.25 0.5 0  39 0.5 0  39.75 0.5 0  40.5 0.5 0  41.25 0.5 0  42 0.5 0  42.75 0.5 0  43.5 0.5 0  44.25 0.5 0  45 0.5 0  45.75 0.5 0  46.5 0.5 0  47.25 0.5 0  48 0.5 0  48.75 0.5 0  49.5 0.5 0  50.25 0.5 0  51 0.5 0  51.75 0.5 0  52.5 0.5 0  53.25 0.5 0  54 0.5 0  54.75 0.5 0  55.5 0.5 0  56.25 0.5 0  57 0.5 0  57.75 0.5 0  58.5 0.5 0  59.25 0.5 0  60 0.5 0  0 1 0  0.75 1 0  1.5 1 0  2.25 1 0  3 1 0  3.75 1 0  4.5 1 0  5.25 1 0  6 1 0  6.75 1 0  7.5 1 0  8.25 1 0  9 1 0  9.75 1 0  10.5 1 0  11.25 1 0  12 1 0  12.75 1 0  13.5 1 0  14.25 1 0  15 1 0  15.75 1 0  16.5 1 0  17.25 1 0  18 1 0  18.75 1 0  19.5 1 0  20.25 1 0  21 1 0  21.75 1 0  22.5 1 0  23.25 1 0  24 1 0  24.75 1 0  25.5 1 0  26.25 1 0  27 1 0  27.75 1 0  28.5 1 0  29.25 1 0  30 1 0  30.75 1 0  31.5 1 0  32.25 1 0  33 1 0  33.75 1 0  34.5 1 0  35.25 1 0  36 1 0  36.75 1 0  37.5 1 0  38.25 1 0  39 1 0  39.75 1 0  40.5 1 0  41.25 1 0  42 1 0  42.75 1 0  43.5 1 0  44.25 1 0  45 1 0  45.75 1 0  46.5 1 0  47.25 1 0  48 1 0  48.75 1 0  49.5 1 0  50.25 1 0  51 1 0  51.75 1 0  52.5 1 0  53.25 1 0  54 1 0  54.75 1 0  55.5 1 0  56.25 1 0  57 1 0  57.75 1 0  58.5 1 0  59.25 1 0  60 1 0  0 1.5 0  0.75 1.5 0  1.5 1.5 0  2.25 1.5 0  3 1.5 0  3.75 1.5 0  4.5 1.5 0  5.25 1.5 0  6 1.5 0  6.75 1.5 0  7.5 1.5 0  8.25 1.5 0  9 1.5 0  9.75 1.5 0  10.5 1.5 0  11.25 1.5 0  12 1.5 0  12.75 1.5 0  13.5 1.5 0  14.25 1.5 0  15 1.5 0  15.75 1.5 0  16.5 1.5 0  17.25 1.5 0  18 1.5 0  18.75 1.5 0  19.5 1.5 0  20.25 1.5 0  21 1.5 0  21.75 1.5 0  22.5 1.5 0  23.25 1.5 0  24 1.5 0  24.75 1.5 0  25.5 1.5 0  26.25 1.5 0  27 1.5 0  27.75 1.5 0  28.5 1.5 0  29.25 1.5 0  30 1.5 0  30.75 1.5 0  31.5 1.5 0  32.25 1.5 0  33 1.5 0  33.75 1.5 0  34.5 1.5 0  35.25 1.5 0  36 1.5 0  36.75 1.5 0  37.5 1.5 0  38.25 1.5 0  39 1.5 0  39.75 1.5 0  40.5 1.5 0  41.25 1.5 0  42 1.5 0  42.75 1.5 0  43.5 1.5 0  44.25 1.5 0  45 1.5 0  45.75 1.5 0  46.5 1.5 0  47.25 1.5 0  48 1.5 0  48.75 1.5 0  49.5 1.5 0  50.25 1.5 0  51 1.5 0  51.75 1.5 0  52.5 1.5 0  53.25 1.5 0  54 1.5 0  54.75 1.5 0  55.5 1.5 0  56.25 1.5 0  57 1.5 0  57.75 1.5 0  58.5 1.5 0  59.25 1.5 0  60 1.5 0  0 2 0  0.75 2 0  1.5 2 0  2.25 2 0  3 2 0  3.75 2 0  4.5 2 0  5.25 2 0  6 2 0  6.75 2 0  7.5 2 0  8.25 2 0  9 2 0  9.75 2 0  10.5 2 0  11.25 2 0  12 2 0  12.75 2 0  13.5 2 0  14.25 2 0  15 2 0  15.75 2 0  16.5 2 0  17.25 2 0  18 2 0  18.75 2 0  19.5 2 0  20.25 2 0  21 2 0  21.75 2 0  22.5 2 0  23.25 2 0  24 2 0  24.75 2 0  25.5 2 0  26.25 2 0  27 2 0  27.75 2 0  28.5 2 0  29.25 2 0  30 2 0  30.75 2 0  31.5 2 0  32.25 2 0  33 2 0  33.75 2 0  34.5 2 0  35.25 2 0  36 2 0  36.75 2 0  37.5 2 0  38.25 2 0  39 2 0  39.75 2 0  40.5 2 0  41.25 2 0  42 2 0  42.75 2 0  43.5 2 0  44.25 2 0  45 2 0  45.75 2 0  46.5 2 0  47.25 2 0  48 2 0  48.75 2 0  49.5 2 0  50.25 2 0  51 2 0  51.75 2 0  52.5 2 0  53.25 2 0  54 2 0  54.75 2 0  55.5 2 0  56.25 2 0  57 2 0  57.75 2 0  58.5 2 0  59.25 2 0  60 2 0  0 2.5 0  0.75 2.5 0  1.5 2.5 0  2.25 2.5 0  3 2.5 0  3.75 2.5 0  4.5 2.5 0  5.25 2.5 0  6 2.5 0  6.75 2.5 0  7.5 2.5 0  8.25 2.5 0  9 2.5 0  9.75 2.5 0  10.5 2.5 0  11.25 2.5 0  12 2.5 0  12.75 2.5 0  13.5 2.5 0  14.25 2.5 0  15 2.5 0  15.75 2.5 0  16.5 2.5 0  17.25 2.5 0  18 2.5 0  18.75 2.5 0  19.5 2.5 0  20.25 2.5 0  21 2.5 0  21.75 2.5 0  22.5 2.5 0  23.25 2.5 0  24 2.5 0  24.75 2.5 0  25.5 2.5 0  26.25 2.5 0  27 2.5 0  27.75 2.5 0  28.5 2.5 0  29.25 2.5 0  30 2.5 0  30.75 2.5 0  31.5 2.5 0  32.25 2.5 0  33 2.5 0  33.75 2.5 0  34.5 2.5 0  35.25 2.5 0  36 2.5 0  36.75 2.5 0  37.5 2.5 0  38.25 2.5 0  39 2.5 0  39.75 2.5 0  40.5 2.5 0  41.25 2.5 0  42 2.5 0  42.75 2.5 0  43.5 2.5 0  44.25 2.5 0  45 2.5 0  45.75 2.5 0  46.5 2.5 0  47.25 2.5 0  48 2.5 0  48.75 2.5 0  49.5 2.5 0  50.25 2.5 0  51 2.5 0  51.75 2.5 0  52.5 2.5 0  53.25 2.5 0  54 2.5 0  54.75 2.5 0  55.5 2.5 0  56.25 2.5 0  57 2.5 0  57.75 2.5 0  58.5 2.5 0  59.25 2.5 0  60 2.5 0  0 3 0  0.75 3 0  1.5 3 0  2.25 3 0  3 3 0  3.75 3 0  4.5 3 0  5.25 3 0  6 3 0  6.75 3 0  7.5 3 0  8.25 3 0  9 3 0  9.75 3 0  10.5 3 0  11.25 3 0  12 3 0  12.75 3 0  13.5 3 0  14.25 3 0  15 3 0  15.75 3 0  16.5 3 0  17.25 3 0  18 3 0  18.75 3 0  19.5 3 0  20.25 3 0  21 3 0  21.75 3 0  22.5 3 0  23.25 3 0  24 3 0  24.75 3 0  25.5 3 0  26.25 3 0  27 3 0  27.75 3 0  28.5 3 0  29.25 3 0  30 3 0  30.75 3 0  31.5 3 0  32.25 3 0  33 3 0  33.75 3 0  34.5 3 0  35.25 3 0  36 3 0  36.75 3 0  37.5 3 0  38.25 3 0  39 3 0  39.75 3 0  40.5 3 0  41.25 3 0  42 3 0  42.75 3 0  43.5 3 0  44.25 3 0  45 3 0  45.75 3 0  46.5 3 0  47.25 3 0  48 3 0  48.75 3 0  49.5 3 0  50.25 3 0  51 3 0  51.75 3 0  52.5 3 0  53.25 3 0  54 3 0  54.75 3 0  55.5 3 0  56.25 3 0  57 3 0  57.75 3 0  58.5 3 0  59.25 3 0  60 3 0  0 3.5 0  0.75 3.5 0  1.5 3.5 0  2.25 3.5 0  3 3.5 0  3.75 3.5 0  4.5 3.5 0  5.25 3.5 0  6 3.5 0  6.75 3.5 0  7.5 3.5 0  8.25 3.5 0  9 3.5 0  9.75 3.5 0  10.5 3.5 0  11.25 3.5 0  12 3.5 0  12.75 3.5 0  13.5 3.5 0  14.25 3.5 0  15 3.5 0  15.75 3.5 0  16.5 3.5 0  17.25 3.5 0  18 3.5 0  18.75 3.5 0  19.5 3.5 0  20.25 3.5 0  21 3.5 0  21.75 3.5 0  22.5 3.5 0  23.25 3.5 0  24 3.5 0  24.75 3.5 0  25.5 3.5 0  26.25 3.5 0  27 3.5 0  27.75 3.5 0  28.5 3.5 0  29.25 3.5 0  30 3.5 0  30.75 3.5 0  31.5 3.5 0  32.25 3.5 0  33 3.5 0  33.75 3.5 0  34.5 3.5 0  35.25 3.5 0  36 3.5 0  36.75 3.5 0  37.5 3.5 0  38.25 3.5 0  39 3.5 0  39.75 3.5 0  40.5 3.5 0  41.25 3.5 0  42 3.5 0  42.75 3.5 0  43.5 3.5 0  44.25 3.5 0  45 3.5 0  45.75 3.5 0  46.5 3.5 0  47.25 3.5 0  48 3.5 0  48.75 3.5 0  49.5 3.5 0  50.25 3.5 0  51 3.5 0  51.75 3.5 0  52.5 3.5 0  53.25 3.5 0  54 3.5 0  54.75 3.5 0  55.5 3.5 0  56.25 3.5 0  57 3.5 0  57.75 3.5 0  58.5 3.5 0  59.25 3.5 0  60 3.5 0  0 4 0  0.75 4 0  1.5 4 0  2.25 4 0  3 4 0  3.75 4 0  4.5 4 0  5.25 4 0  6 4 0  6.75 4 0  7.5 4 0  8.25 4 0  9 4 0  9.75 4 0  10.5 4 0  11.25 4 0  12 4 0  12.75 4 0  13.5 4 0  14.25 4 0  15 4 0  15.75 4 0  16.5 4 0  17.25 4 0  18 4 0  18.75 4 0  19.5 4 0  20.25 4 0  21 4 0  21.75 4 0  22.5 4 0  23.25 4 0  24 4 0  24.75 4 0  25.5 4 0  26.25 4 0  27 4 0  27.75 4 0  28.5 4 0  29.25 4 0  30 4 0  30.75 4 0  31.5 4 0  32.25 4 0  33 4 0  33.75 4 0  34.5 4 0  35.25 4 0  36 4 0  36.75 4 0  37.5 4 0  38.25 4 0  39 4 0  39.75 4 0  40.5 4 0  41.25 4 0  42 4 0  42.75 4 0  43.5 4 0  44.25 4 0  45 4 0  45.75 4 0  46.5 4 0  47.25 4 0  48 4 0  48.75 4 0  49.5 4 0  50.25 4 0  51 4 0  51.75 4 0  52.5 4 0  53.25 4 0  54 4 0  54.75 4 0  55.5 4 0  56.25 4 0  57 4 0  57.75 4 0  58.5 4 0  59.25 4 0  60 4 0  0.375 0.25 0  1.125 0.25 0  1.875 0.25 0  2.625 0.25 0  3.375 0.25 0  4.125 0.25 0  4.875 0.25 0  5.625 0.25 0  6.375 0.25 0  7.125 0.25 0  7.875 0.25 0  8.625 0.25 0  9.375 0.25 0  10.125 0.25 0  10.875 0.25 0  11.625 0.25 0  12.375 0.25 0  13.125 0.25 0  13.875 0.25 0  14.625 0.25 0  15.375 0.25 0  16.125 0.25 0  16.875 0.25 0  17.625 0.25 0  18.375 0.25 0  19.125 0.25 0  19.875 0.25 0  20.625 0.25 0  21.375 0.25 0  22.125 0.25 0  22.875 0.25 0  23.625 0.25 0  24.375 0.25 0  25.125 0.25 0  25.875 0.25 0  26.625 0.25 0  27.375 0.25 0  28.125 0.25 0  28.875 0.25 0  29.625 0.25 0  30.375 0.25 0  31.125 0.25 0  31.875 0.25 0  32.625 0.25 0  33.375 0.25 0  34.125 0.25 0  34.875 0.25 0  35.625 0.25 0  36.375 0.25 0  37.125 0.25 0  37.875 0.25 0  38.625 0.25 0  39.375 0.25 0  40.125 0.25 0  40.875 0.25 0  41.625 0.25 0  42.375 0.25 0  43.125 0.25 0  43.875 0.25 0  44.625 0.25 0  45.375 0.25 0  46.125 0.25 0  46.875 0.25 0  47.625 0.25 0  48.375 0.25 0  49.125 0.25 0  49.875 0.25 0  50.625 0.25 0  51.375 0.25 0  52.125 0.25 0  52.875 0.25 0  53.625 0.25 0  54.375 0.25 0  55.125 0.25 0  55.875 0.25 0  56.625 0.25 0  57.375 0.25 0  58.125 0.25 0  58.875 0.25 0  59.625 0.25 0  0.375 0.75 0  1.125 0.75 0  1.875 0.75 0  2.625 0.75 0  3.375 0.75 0  4.125 0.75 0  4.875 0.75 0  5.625 0.75 0  6.375 0.75 0  7.125 0.75 0  7.875 0.75 0  8.625 0.75 0  9.375 0.75 0  10.125 0.75 0  10.875 0.75 0  11.625 0.75 0  12.375 0.75 0  13.125 0.75 0  13.875 0.75 0  14.625 0.75 0  15.375 0.75 0  16.125 0.75 0  16.875 0.75 0  17.625 0.75 0  18.375 0.75 0  19.125 0.75 0  19.875 0.75 0  20.625 0.75 0  21.375 0.75 0  22.125 0.75 0  22.875 0.75 0  23.625 0.75 0  24.375 0.75 0  25.125 0.75 0  25.875 0.75 0  26.625 0.75 0  27.375 0.75 0  28.125 0.75 0  28.875 0.75 0  29.625 0.75 0  30.375 0.75 0  31.125 0.75 0  31.875 0.75 0  32.625 0.75 0  33.375 0.75 0  34.125 0.75 0  34.875 0.75 0  35.625 0.75 0  36.375 0.75 0  37.125 0.75 0  37.875 0.75 0  38.625 0.75 0  39.375 0.75 0  40.125 0.75 0  40
[...]
<PointData  Vectors="f_8-0"> 
<DataArray  type="Float64"  Name="f_8-0"  NumberOfComponents="3" format="ascii">0.0000000000000000e+00 0.0000000000000000e+00 0.0000000000000000e+00  0.0000000000000000e+00 0.0000000000000000e+00 0.0000000000000000e+00  0.0000000000000000e+00 0.0000000000000000e+00 0.0000000000000000e+00  0.0000000000000000e+00 0.0000000000000000e+00 0.0000000000000000e+00  0.0000000000000000e+00 0.0000000000000000e+00 0.0000000000000000e+00  0.0000000000000000e+00 0.0000000000000000e+00 0.0000000000000000e+00  0.0000000000000000e+00 0.0000000000000000e+00 0.0000000000000000e+00  0.0000000000000000e+00 0.0000000000000000e+00 0.0000000000000000e+00  0.0000000000000000e+00 0.0000000000000000e+00 0.0000000000000000e+00  0.0000000000000000e+00 0.0000000000000000e+00 0.0000000000000000e+00  0.0000000000000000e+00 0.0000000000000000e+00 0.0000000000000000e+00  0.0000000000000000e+00 0.0000000000000000e+00 0.0000000000000000e+00  0.0000000000000000e+00 0.0000000000000000e+00 0.0000000000000000e+00  0.0000000000000000e+00 0.0000000000000000e+00 0.0000000000000000e+00  0.0000000000000000e+00 0.0000000000000000e+00 0.0000000000000000e+00  0.0000000000000000e+00 0.0000000000000000e+00 0.0000000000000000e+00  0.0000000000000000e+00 0.0000000000000000e+00 0.0000000000000000e+00  0.0000000000000000e+00 0.0000000000000000e+00 0.0000000000000000e+00  0.0000000000000000e+00 0.0000000000000000e+00 0.0000000000000000e+00  0.0000000000000000e+00 0.0000000000000000e+00 0.0000000000000000e+00  0.0000000000000000e+00 0.0000000000000000e+00 0.0000000000000000e+00  0.0000000000000000e+00 0.0000000000000000e+00 0.0000000000000000e+00  0.0000000000000000e+00 0.0000000000000000e+00 0.0000000000000000e+00  0.0000000000000000e+00 0.0000000000000000e+00 0.0000000000000000e+00  0.0000000000000000e+00 0.0000000000000000e+00 0.0000000000000000e+00  0.0000000000000000e+00 0.0000000000000000e+00 0.0000000000000000e+00  0.0000000000000000e+00 0.0000000000000000e+00 0.0000000000000000e+00  0.0000000000000000e+00 0.0000000000000000e+00 0.0000000000000000e+00  0.0000000000000000e+00 0.0000000000000000e+00 0.0000000000000000e+00  0.0000000000000000e+00 0.0000000000000000e+00 0.0000000000000000e+00  0.0000000000000000e+00 0.0000000000000000e+00 0.0000000000000000e+00  0.0000000000000000e+00 0.0000000000000000e+00 0.0000000000000000e+00  0.0000000000000000e+00 0.0000000000000000e+00 0.0000000000000000e+00  0.0000000000000000e+00 0.0000000000000000e+00 0.0000000000000000e+00  0.0000000000000000e+00 0.0000000000000000e+00 0.0000000000000000e+00  0.0000000000000000e+00 0.0000000000000000e+00 0.0000000000000000e+00  0.0000000000000000e+00 0.0000000000000000e+00 0.0000000000000000e+00  0.0000000000000000e+00 0.0000000000000000e+00 0.0000000000000000e+00  0.0000000000000000e+00 0.0000000000000000e+00 0.0000000000000000e+00  0.0000000000000000e+00 0.0000000000000000e+00 0.0000000000000000e+00  0.0000000000000000e+00 0.0000000000000000e+00 0.0000000000000000e+00  0.0000000000000000e+00 0.0000000000000000e+00 0.0000000000000000e+00  0.0000000000000000e+00 0.0000000000000000e+00 0.0000000000000000e+00  0.0000000000000000e+00 0.0000000000000000e+00 0.0000000000000000e+00  0.0000000000000000e+00 0.0000000000000000e+00 0.0000000000000000e+00  0.0000000000000000e+00 0.0000000000000000e+00 0.0000000000000000e+00  0.0000000000000000e+00 0.0000000000000000e+00 0.0000000000000000e+00  0.0000000000000000e+00 0.0000000000000000e+00 0.0000000000000000e+00  0.0000000000000000e+00 0.0000000000000000e+00 0.0000000000000000e+00  0.0000000000000000e+00 0.0000000000000000e+00 0.0000000000000000e+00  0.0000000000000000e+00 0.0000000000000000e+00 0.0000000000000000e+00  0.0000000000000000e+00 0.0000000000000000e+00 0.0000000000000000e+00  0.0000000000000000e+00 0.0000000000000000e+00 0.0000000000000000e+00  0.0000000000000000e+00 0.0000000000000000e+00 0.0000000000000000e+00  0.0000000000000000e+00 0.0000000000000000e+00 0.0000000000000000e+00  0.0000000000000000e+00 0.0000000000000000e+00 0.0000000000000000e+00  0.0000000000000000e+00 0.0000000000000000e+00 0.0000000000000000e+00  0.0000000000000000e+00 0.0000000000000000e+00 0.0000000000000000e+00  0.0000000000000000e+00 0.0000000000000000e+00 0.0000000000000000e+00  0.0000000000000000e+00 0.0000000000000000e+00 0.0000000000000000e+00  0.0000000000000000e+00 0.0000000000000000e+00 0.0000000000000000e+00  0.0000000000000000e+00 0.0000000000000000e+00 0.0000000000000000e+00  0.0000000000000000e+00 0.0000000000000000e+00 0.0000000000000000e+00  0.0000000000000000e+00 0.0000000000000000e+00 0.0000000000000000e+00  0.0000000000000000e+00 0.0000000000000000e+00 0.0000000000000000e+00  0.0000000000000000e+00 0.0000000000000000e+00 0.0000000000000000e+00  0.0000000000000000e+00 0.0000000000000000e+00 0.0000000000000000e+00  0.0000000000000000e+00 0.0000000000000000e+00 0.0000000000000000e+00  0.0000000000000000e+00 0.0000000000000000e+00 0.0000000000000000e+00  0.0000000000000000e+00 0.0000000000000000e+00 0.0000000000000000e+00  0.0000000000000000e+00 0.0000000000000000e+00 0.0000000000000000e+00  0.0000000000000000e+00 0.0000000000000000e+00 0.0000000000000000e+00  0.0000000000000000e+00 0.0000000000000000e+00 0.0000000000000000e+00  0.0000000000000000e+00 0.0000000000000000e+00 0.0000000000000000e+00  0.0000000000000000e+00 0.0000000000000000e+00 0.0000000000000000e+00  0.0000000000000000e+00 0.0000000000000000e+00 0.0000000000000000e+00  0.0000000000000000e+00 0.0000000000000000e+00 0.0000000000000000e+00  0.0000000000000000e+00 0.0000000000000000e+00 0.0000000000000000e+00  0.0000000000000000e+00 0.0000000000000000e+00 0.0000000000000000e+00  0.0000000000000000e+00 0.0000000000000000e+00 0.0000000000000000e+00  0.0000000000000000e+00 0.0000000000000000e+00 0.0000000000000000e+00  -2.1867038265154292e+01 0.0000000000000000e+00 0.0000000000000000e+00  -2.1891205505330365e+01 5.3537677607130209e-03 0.0000000000000000e+00  -2.1912099824389475e+01 8.9113234952766067e-03 0.0000000000000000e+00  -2.1922473142618575e+01 8.4271052187126216e-03 0.0000000000000000e+00  -2.1928683363825712e+01 7.2496460909754505e-03 0.0000000000000000e+00  -2.1932044920061390e+01 6.1930224011440506e-03 0.0000000000000000e+00  -2.1933373607077066e+01 5.4022045780581169e-03 0.0000000000000000e+00  -2.1933325591254121e+01 4.8875420376580372e-03 0.0000000000000000e+00  -2.1932446692734541e+01 4.5799676484065402e-03 0.0000000000000000e+00  -2.1931066381489817e+01 4.3894641405207713e-03 0.0000000000000000e+00  -2.1929410675128793e+01 4.3074568334256162e-03 0.0000000000000000e+00  -2.1927796543729428e+01 4.3659864134607939e-03 0.0000000000000000e+00  -2.1926525405253436e+01 4.5231491373388154e-03 0.0000000000000000e+00  -2.1925697595730604e+01 4.6946016417126679e-03 0.0000000000000000e+00  -2.1925237112243849e+01 4.8249186752139734e-03 0.0000000000000000e+00  -2.1925010710202159e+01 4.9040899873460109e-03 0.0000000000000000e+00  -2.1924909196624746e+01 4.9450985371917913e-03 0.0000000000000000e+00  -2.1924866039310835e+01 4.9640762164274614e-03 0.0000000000000000e+00  -2.1924847892223472e+01 4.9722230772151878e-03 0.0000000000000000e+00  -2.1924839946534906e+01 4.9756208691626664e-03 0.0000000000000000e+00  -2.1924836227195645e+01 4.9770604007679242e-03 0.0000000000000000e+00  -2.1924834336799833e+01 4.9777026107537189e-03 0.0000000000000000e+00  -2.1924833312059768e+01 4.9780078304649715e-03 0.0000000000000000e+00  -2.1924832711660748e+01 4.9781586724218499e-03 0.0000000000000000e+00  -2.1924832331489181e+01 4.9782362091609338e-03 0.0000000000000000e+00  -2.1924832062889358e+01 4.9782753168704386e-03 0.0000000000000000e+00  -2.1924831852881457e+01 4.9782960840832648e-03 0.0000000000000000e+00  -2.1924831672193353e+01 4.9783061666813623e-03 0.0000000000000000e+00  -2.1924831506739523e+01 4.9783117758016842e-03 0.0000000000000000e+00  -2.1924831348760350e+01 4.9783142450380178e-03 0.0000000000000000e+00  -2.1924831194562682e+01 4.9783157677213211e-03 0.0000000000000000e+00  -2.1924831042186995e+01 4.9783163076859999e-03 0.0000000000000000e+00  -2.1924830890669934e+01 4.9783167228257472e-03 0.0000000000000000e+00  -2.1924830739569401e+01 4.9783168075408181e-03 0.0000000000000000e+00  -2.1924830588623927e+01 4.9783169187473603e-03 0.0000000000000000e+00  -2.1924830437762285e+01 4.9783169114726812e-03 0.0000000000000000e+00  -2.1924830286906509e+01 4.9783169362840555e-03 0.0000000000000000e+00  -2.1924830136062621e+01 4.9783169183618952e-03 0.0000000000000000e+00  -2.1924829985204823e+01 4.9783169172448408e-03 0.0000000000000000e+00  -2.1924829834345932e+01 4.9783169014876770e-03 0.0000000000000000e+00  -2.1924829683474616e+01 4.9783168923772606e-03 0.0000000000000000e+00  -2.1924829532604022e+01 4.9783168793392854e-03 0.0000000000000000e+00  -2.1924829381727317e+01 4.9783168703580061e-03 0.0000000000000000e+00  -2.1924829230850960e+01 4.9783168595361272e-03 0.0000000000000000e+00  -2.1924829079974565e+01 4.9783168497460339e-03 0.0000000000000000e+00  -2.1924828929102805e+01 4.9783168409517527e-03 0.0000000000000000e+00  -2.1924828778237185e+01 4.9783168332588647e-03 0.0000000000000000e+00  -2.1924828627381856e+01 4.9783168267428226e-03 0.0000000000000000e+00  -2.1924828476540828e+01 4.9783168224118426e-03 0.0000000000000000e+00  -2.1924828325722210e+01 4.9783168202118177e-03 0.0000000000000000e+00  -2.1924828174935858e+01 4.9783168238542574e-03 0.0000000000000000e+00  -2.1924828024196557e+01 4.9783168335833898e-03 0.0000000000000000e+00  -2.1924827873525121e+01 4.9783168513644355e-03 0.0000000000000000e+00  -2.1924827722948844e+01 4.9783168806354196e-03 0.0000000000000000e+00  -2.1924827572508686e+01 4.9783169269900325e-03 0.0000000000000000e+00  -2.1924827422254054e+01 4.9783169943480397e-03 0.0000000000000000e+00  -2.1924827272238151e+01 4.9783170889728607e-03 0.0000000000000000e+00  -2.1924827122530282e+01 4.9783172076790505e-03 0.0000000000000000e+00  -2.1924826973086354e+01 4.9783173376090895e-03 0.0000000000000000e+00  -2.1924826823984436e+01 4.9783174320494131e-03 0.0000000000000000e+00  -2.1924826674137517e+01 4.9783173587006155e-03 0.0000000000000000e+00  -2.1924826524438050e+01 4.9783168431154576e-03 0.0000000000000000e+00  -2.1924826365082442e+01 4.9783150946586391e-03 0.0000000000000000e+00  -2.1924826211527176e+01 4.9783111030489123e-03 0.0000000000000000e+00  -2.1924825979158470e+01 4.9782999953548639e-03 0.0000000000000000e+00  -2.1924825857785365e+01 4.9782819146225871e-03 0.0000000000000000e+00  -2.1924825105536531e+01 4.9782196261023140e-03 0.0000000000000000e+00  -2.1924825646206266e+01 4.9781704250554696e-03 0.0000000000000000e+00  -2.1924821161136986e+01 4.9777895429956925e-03 0.0000000000000000e+00  -2.1924828480636968e+01 4.9779083559767547e-03 0.0000000000000000e+00  -2.1924798515442383e+01 4.9752898374211532e-03 0.0000000000000000e+00  -2.1924855974453042e+01 4.9781487766516102e-03 0.0000000000000000e+00  -2.1924678570594324e+01 4.9611607980663405e-03 0.0000000000000000e+00  -2.1924996794906619e+01 4.9781869106124534e-03 0.0000000000000000e+00  -2.1924213407388908e+01 4.9082113988117805e-03 0.0000000000000000e+00  -2.1925277971657444e+01 4.8427612925757129e-03 0.0000000000000000e+00  -2.1923434666187376e+01 4.9335301255376300e-03 0.0000000000000000e+00  -2.1925783203087839e+01 4.9798547913983207e-03 0.0000000000000000e+00  -2.1942918523006984e+01 2.3700684604975729e-02 0.0000000000000000e+00  -2.1947371359516190e+01 7.8222387010760036e-02 0.0000000000000000e+00  -2.1965578822175925e+01 0.0000000000000000e+00 0.0000000000000000e+00  -2.0215109900905233e+01 0.0000000000000000e+00 0.0000000000000000e+00  -2.0221037199957255e+01 1.5121152472730713e-02 0.0000000000000000e+00  -2.0224349872182948e+01 9.9373645696864236e-03 0.0000000000000000e+00  -2.0226272228119822e+01 5.9294491829255261e-03 0.0000000000000000e+00  -2.0226921481756893e+01 2.9438900671144180e-03 0.0000000000000000e+00  -2.0226970904811537e+01 7.1905013527418795e-04 0.0000000000000000e+00  -2.0226698453697136e+01 -8.2673277885596296e-04 0.0000000000000000e+00  -2.0226214867520650e+01 -1.8408284463786674e-03 0.0000000000000000e+00  -2.0225579732123453e+01 -2.4289920696981509e-03 0.0000000000000000e+00  -2.0224862197329966e+01 -2.8133038687077165e-03 0.0000000000000000e+00  -2.0224005929022162e+01 -2.9834832356304295e-03 0.0000000000000000e+00  -2.0223098883455144e+01 -2.8037274769559103e-03 0.0000000000000000e+00  -2.0222358768843790e+01 -2.3801929122920533e-03 0.0000000000000000e+00  -2.0221886876355324e+01 -1.9492965800319748e-03 0.0000000000000000e+00  -2.0221636818786273e+01 -1.6403006964178927e-03 0.0000000000000000e+00  -2.0221520820032229e+01 -1.4622059308478522e-03 0.0000000000000000e+00  -2.0221471348930262e+01 -1.3734314055853180e-03 0.0000000000000000e+00  -2.0221451176637700e+01 -1.3337151410045950e-03 0.0000000000000000e+00  -2.0221442821735724e+01 -1.3169278073192489e-03 0.0000000000000000e+00  -2.0221439184690624e+01 -1.3100239767241102e-03 0.0000000000000000e+00  -2.0221437442758212e+01 -1.3070510621557691e-03 0.0000000000000000e+00  -2.0221436556725870e+01 -1.3057270225262014e-03 0.0000000000000000e+00  -2.0221436062785273e+01 -1.3050772981660051e-03 0.0000000000000000e+00  -2.0221435772546226e+01 -1.3047621509512796e-03 0.0000000000000000e+00  -2.0221435578251057e+01 -1.3045954685462320e-03 0.0000000000000000e+00  -2.0221435435494232e+01 -1.3045144436282230e-03 0.0000000000000000e+00  -2.0221435315274256e+01 -1.3044703942050378e-03 0.0000000000000000e+00  -2.0221435207137873e+01 -1.3044499231647871e-03 0.0000000000000000e+00  -2.0221435103420703e+01 -1.3044384841568672e-03 0.0000000000000000e+00  -2.0221435001965059e+01 -1.3044335881153318e-03 0.0000000000000000e+00  -2.0221434900933009e+01 -1.3044307228947348e-03 0.0000000000000000e+00  -2.0221434799998359e+01 -1.3044296425845272e-03 0.0000000000000000e+00  -2.0221434698842913e+01 -1.3044289608862020e-03 0.0000000000000000e+00  -2.0221434597460306e+01 -1.3044287316517911e-03 0.0000000000000000e+00  -2.0221434495878757e+01 -1.3044285663805452e-03 0.0000000000000000e+00  -2.0221434394108027e+01 -1.3044284983781611e-03 0.0000000000000000e+00  -2.0221434292223854e+01 -1.3044284391436644e-03 0.0000000000000000e+00  -2.0221434190229768e+01 -1.3044283831031072e-03 0.0000000000000000e+00  -2.0221434088179350e+01 -1.3044283317846137e-03 0.0000000000000000e+00  -2.0221433986071297e+01 -1.3044282707681272e-03 0.0000000000000000e+00  -2.0221433883934242e+01 -1.3044282130025345e-03 0.0000000000000000e+00  -2.0221433781770283e+01 -1.3044281466298650e-03 0.0000000000000000e+00  -2.0221433679595382e+01 -1.3044280802360466e-03 0.0000000000000000e+00  -2.0221433577407694e+01 -1.3044280081066103e-03 0.0000000000000000e+00  -2.0221433475216660e+01 -1.3044279343164616e-03 0.0000000000000000e+00  -2.0221433373025214e+01 -1.3044278564134208e-03 0.0000000000000000e+00  -2.0221433270842301e+01 -1.3044277765149883e-03 0.0000000000000000e+00  -2.0221433168667389e+01 -1.3044276902284013e-03 0.0000000000000000e+00  -2.0221433066509896e+01 -1.3044275985121311e-03 0.0000000000000000e+00  -2.0221432964376646e+01 -1.3044274984662899e-03 0.0000000000000000e+00  -2.0221432862280562e+01 -1.3044273813057452e-03 0.0000000000000000e+00  -2.0221432760239999e+01 -1.3044272443987379e-03 0.0000000000000000e+00  -2.0221432658280612e+01 -1.3044270814979138e-03 0.0000000000000000e+00  -2.0221432556437918e+01 -1.3044268775445503e-03 0.0000000000000000e+00  -2.0221432454763008e+01 -1.3044266215383382e-03 0.0000000000000000e+00  -2.0221432353321362e+01 -1.3044263016276033e-03 0.0000000000000000e+00  -2.0221432252206952e+01 -1.3044259032176572e-03 0.0000000000000000e+00  -2.0221432151518663e+01 -1.3044254453709050e-03 0.0000000000000000e+00  -2.0221432051393364e+01 -1.3044249737177251e-03 0.0000000000000000e+00  -2.0221431951804998e+01 -1.3044247194898533e-03 0.0000000000000000e+00  -2.0221431852976426e+01 -1.3044250393981010e-03 0.0000000000000000e+00  -2.0221431753302504e+01 -1.3044274386424597e-03 0.0000000000000000e+00  -2.0221431654572875e+01 -1.3044330890658333e-03 0.0000000000000000e+00  -2.0221431542045877e+01 -1.3044514077129757e-03 0.0000000000000000e+00  -2.0221431440283801e+01 -1.3044796156121256e-03 0.0000000000000000e+00  -2.0221431226685112e+01 -1.3045845103741738e-03 0.0000000000000000e+00  -2.0221431170713146e+01 -1.3046687978537017e-03 0.0000000000000000e+00  -2.0221430273770853e+01 -1.3052760414189609e-03 0.0000000000000000e+00  -2.0221430991095797e+01 -1.3051850296439847e-03 0.0000000000000000e+00  -2.0221425662366268e+01 -1.3090556239815274e-03 0.0000000000000000e+00  -2.0221433268338707e+01 -1.3049834782680946e-03 0.0000000000000000e+00  -2.0221401718707437e+01 -1.3309544701301343e-03 0.0000000000000000e+00  -2.0221452791546305e+01 -1.2906417513331098e-03 0.0000000000000000e+00  -2.0221293833136297e+01 -1.4505837248141929e-03 0.0000000000000000e+00  -2.0221543176934507e+01 -1.1917779247766194e-03 0.0000000000000000e+00  -2.0220972839608798e+01 -1.9068043559315332e-03 0.0000000000000000e+00  -2.0222046352169432e+01 -7.0781627397907153e-04 0.0000000000000000e+00  -2.0220510094283608e+01 7.6123551278445864e-04 0.0000000000000000e+00  -2.0217649775045302e+01 1.2827215778219095e-02 0.0000000000000000e+00  -2.0166810303585525e+01 -1.0290488179491219e-02 0.0000000000000000e+00  -2.0230504845753828e+01 0.0000000000000000e+00 0.0000000000000000e+00  -1.6931316755645401e+01 0.0000000000000000e+00 0.0000000000000000e+00  -1.6919999697889974e+01 9.0915811981302653e-03 0.0000000000000000e+00  -1.6907971329306182e+01 6.8247306765356472e-03 0.0000000000000000e+00  -1.6899869057761201e+01 4.0555203402452876e-03 0.0000000000000000e+00  -1.6894866200049091e+01 1.9016709737711816e-03 0.0000000000000000e+00  -1.6892165129602223e+01 3.0050840859006153e-04 0.0000000000000000e+00  -1.6891137373936576e+01 -8.1845170347825968e-04 0.0000000000000000e+00  -1.6891235780517494e+01 -1.5892185977140593e-03 0.0000000000000000e+00  -1.6892013218816640e+01 -2.0453770305891772e-03 0.0000000000000000e+00  -1.6893203409376010e+01 -2.3528438936628576e-03 0.0000000000000000e+00  -1.6894634478933355e+01 -2.5612551946517671e-03 0.0000000000000000e+00  -1.6896017350403802e+01 -2.4713632030500744e-03 0.0000000000000000e+00  -1.6897090483728540e+01 -2.1085447590807171e-03 0.0000000000000000e+00  -1.6897778670978788e+01 -1.7003709623770393e-03 0.0000000000000000e+00  -1.6898157864291655e+01 -1.3969578313421790e-03 0.0000000000000000e+00  -1.6898343259565500e+01 -1.2189389862478151e-03 0.0000000000000000e+00  -1.6898426588318550e+01 -1.1295772417298901e-03 0.0000000000000000e+00  -1.6898462175058405e+01 -1.0893701765144633e-03 0.0000000000000000e+00  -1.6898477333647641e+01 -1.0724823826106552e-03 0.0000000000000000e+00  -1.6898483974670668e+01 -1.0655677590469992e-03 0.0000000000000000e+00  -1.6898487072155550e+01 -1.0626659614655415e-03 0.0000000000000000e+00  -1.6898488562878590e+01 -1.0613788494358417e-03 0.0000000000000000e+00  -1.6898489301477230e+01 -1.0607699948120336e-03 0.0000000000000000e+00  -1.6898489645256046e+01 -1.0604709973178147e-03 0.0000000000000000e+00  -1.6898489790083833e+01 -1.0603209645193776e-03 0.0000000000000000e+00  -1.6898489822733207e+01 -1.0602462303989984e-03 0.0000000000000000e+00  -1.6898489798652530e+01 -1.0602092171910801e-03 0.0000000000000000e+00  -1.6898489741088735e+01 -1.0601914913464703e-03 0.0000000000000000e+00  -1.6898489666821117e+01 -1.0601831956677920e-03 0.0000000000000000e+00  -1.6898489582129841e+01 -1.0601796126892488e-03 0.0000000000000000e+00  -1.6898489492285368e+01 -1.0601781857718592e-03 0.0000000000000000e+00  -1.6898489399009986e+01 -1.0601777812365902e-03 0.0000000000000000e+00  -1.6898489304024217e+01 -1.0601777691695488e-03 0.0000000000000000e+00  -1.6898489207833858e+01 -1.0601779065255662e-03 0.0000000000000000e+00  -1.6898489111011411e+01 -1.0601780706115005e-03 0.0000000000000000e+00  -1.6898489013742683e+01 -1.0601782171927965e-03 0.0000000000000000e+00  -1.6898488916214898e+01 -1.0601783323448822e-03 0.0000000000