<?xml version="1.0"?>
<VTKFile type="UnstructuredGrid"  version="0.1"  >
<UnstructuredGrid>
<Piece  NumberOfPoints="1369" NumberOfCells="2560">
<Points>
<DataArray  type="Float64"  NumberOfComponents="3"  format="ascii">0 0 0  0.75 0 0  1.5 0 0  2.25 0 0  3 0 0  3.75 0 0  4.5 0 0  5.25 0 0  6 0 0  6.75 0 0  7.5 0 0  8.25 0 0  9 0 0  9.75 0 0  10.5 0 0  11.25 0 0  12 0 0  12.75 0 0  13.5 0 0  14.25 0 0  15 0 0  15.75 0 0  16.5 0 0  17.25 0 0  18 0 0  18.75 0 0  19.5 0 0  20.25 0 0  21 0 0  21.75 0 0  22.5 0 0  23.25 0 0  24 0 0  24.75 0 0  25.5 0 0  26.25 0 0  27 0 0  27.75 0 0  28.5 0 0  29.25 0 0  30 0 0  30.75 0 0  31.5 0 0  32.25 0 0  33 0 0  33.75 0 0  34.5 0 0  35.25 0 0  36 0 0  36.75 0 0  37.5 0 0  38.25 0 0  39 0 0  39.75 0 0  40.5 0 0  41.25 0 0  42 0 0  42.75 0 0  43.5 0 0  44.25 0 0  45 0 0  45.75 0 0  46.5 0 0  47.25 0 0  48 0 0  48.75 0 0  49.5 0 0  50.25 0 0  51 0 0  51.75 0 0  52.5 0 0  53.25 0 0  54 0 0  54.75 0 0  55.5 0 0  56.25 0 0  57 0 0  57.75 0 0  58.5 0 0  59.25 0 0  60 0 0  0 0.5 0  0.75 0.5 0  1.5 0.5 0  2.25 0.5 0  3 0.5 0  3.75 0.5 0  4.5 0.5 0  5.25 0.5 0  6 0.5 0  6.75 0.5 0  7.5 0.5 0  8.25 0.5 0  9 0.5 0  9.75 0.5 0  10.5 0.5 0  11.25 0.5 0  12 0.5 0  12.75 0.5 0  13.5 0.5 0  14.25 0.5 0  15 0.5 0  15.75 0.5 0  16.5 0.5 0  17.25 0.5 0  18 0.5 0  18.75 0.5 0  19.5 0.5 0  20.25 0.5 0  21 0.5 0  21.75 0.5 0  22.5 0.5 0  23.25 0.5 0  24 0.5 0  24.75 0.5 0  25.5 0.5 0  26.25 0.5 0  27 0.5 0  27.75 0.5 0  28.5 0.5 0  29.25 0.5 0  30 0.5 0  30.75 0.5 0  31.5 0.5 0  32.25 0.5 0  33 0.5 0  33.75 0.5 0  34.5 0.5 0  35.25 0.5 0  36 0.5 0  36.75 0.5 0  37.5 0.5 0  38.25 0.5 0  39 0.5 0  39.75 0.5 0  40.5 0.5 0  41.25 0.5 0  42 0.5 0  42.75 0.5 0  43.5 0.5 0  44.25 0.5 0  45 0.5 0  45.75 0.5 0  46.5 0.5 0  47.25 0.5 0  48 0.5 0  48.75 0.5 0  49.5 0.5 0  50.25 0.5 0  51 0.5 0  51.75 0.5 0  52.5 0.5 0  53.25 0.5 0  54 0.5 0  54.75 0.5 0  55.5 0.5 0  56.25 0.5 0  57 0.5 0  57.75 0.5 0  58.5 0.5 0  59.25 0.5 0  60 0.5 0  0 1 0  0.75 1 0  1.5 1 0  2.25 1 0  3 1 0  3.75 1 0  4.5 1 0  5.25 1 0  6 1 0  6.75 1 0  7.5 1 0  8.25 1 0  9 1 0  9.75 1 0  10.5 1 0  11.25 1 0  12 1 0  12.75 1 0  13.5 1 0  14.25 1 0  15 1 0  15.75 1 0  16.5 1 0  17.25 1 0  18 1 0  18.75 1 0  19.5 1 0  20.25 1 0  21 1 0  21.75 1 0  22.5 1 0  23.25 1 0  24 1 0  24.75 1 0  25.5 1 0  26.25 1 0  27 1 0  27.75 1 0  28.5 1 0  29.25 1 0  30 1 0  30.75 1 0  31.5 1 0  32.25 1 0  33 1 0  33.75 1 0  34.5 1 0  35.25 1 0  36 1 0  36.75 1 0  37.5 1 0  38.25 1 0  39 1 0  39.75 1 0  40.5 1 0  41.25 1 0  42 1 0  42.75 1 0  43.5 1 0  44.25 1 0  45 1 0  45.75 1 0  46.5 1 0  47.25 1 0  48 1 0  48.75 1 0  49.5 1 0  50.25 1 0  51 1 0  51.75 1 0  52.5 1 0  53.25 1 0  54 1 0  54.75 1 0  55.5 1 0  56.25 1 0  57 1 0  57.75 1 0  58.5 1 0  59.25 1 0  60 1 0  0 1.5 0  0.75 1.5 0  1.5 1.5 0  2.25 1.5 0  3 1.5 0  3.75 1.5 0  4.5 1.5 0  5.25 1.5 0  6 1.5 0  6.75 1.5 0  7.5 1.5 0  8.25 1.5 0  9 1.5 0  9.75 1.5 0  10.5 1.5 0  11.25 1.5 0  12 1.5 0  12.75 1.5 0  13.5 1.5 0  14.25 1.5 0  15 1.5 0  15.75 1.5 0  16.5 1.5 0  17.25 1.5 0  18 1.5 0  18.75 1.5 0  19.5 1.5 0  20.25 1.5 0  21 1.5 0  21.75 1.5 0  22.5 1.5 0  23.25 1.5 0  24 1.5 0  24.75 1.5 0  25.5 1.5 0  26.25 1.5 0  27 1.5 0  27.75 1.5 0  28.5 1.5 0  29.25 1.5 0  30 1.5 0  30.75 1.5 0  31.5 1.5 0  32.25 1.5 0  33 1.5 0  33.75 1.5 0  34.5 1.5 0  35.25 1.5 0  36 1.5 0  36.75 1.5 0  37.5 1.5 0  38.25 1.5 0  39 1.5 0  39.75 1.5 0  40.5 1.5 0  41.25 1.5 0  42 1.5 0  42.75 1.5 0  43.5 1.5 0  44.25 1.5 0  45 1.5 0  45.75 1.5 0  46.5 1.5 0  47.25 1.5 0  48 1.5 0  48.75 1.5 0  49.5 1.5 0  50.25 1.5 0  51 1.5 0  51.75 1.5 0  52.5 1.5 0  53.25 1.5 0  54 1.5 0  54.75 1.5 0  55.5 1.5 0  56.25 1.5 0  57 1.5 0  57.75 1.5 0  58.5 1.5 0  59.25 1.5 0  60 1.5 0  0 2 0  0.75 2 0  1.5 2 0  2.25 2 0  3 2 0  3.75 2 0  4.5 2 0  5.25 2 0  6 2 0  6.75 2 0  7.5 2 0  8.25 2 0  9 2 0  9.75 2 0  10.5 2 0  11.25 2 0  12 2 0  12.75 2 0  13.5 2 0  14.25 2 0  15 2 0  15.75 2 0  16.5 2 0  17.25 2 0  18 2 0  18.75 2 0  19.5 2 0  20.25 2 0  21 2 0  21.75 2 0  22.5 2 0  23.25 2 0  24 2 0  24.75 2 0  25.5 2 0  26.25 2 0  27 2 0  27.75 2 0  28.5 2 0  29.25 2 0  30 2 0  30.75 2 0  31.5 2 0  32.25 2 0  33 2 0  33.75 2 0  34.5 2 0  35.25 2 0  36 2 0  36.75 2 0  37.5 2 0  38.25 2 0  39 2 0  39.75 2 0  40.5 2 0  41.25 2 0  42 2 0  42.75 2 0  43.5 2 0  44.25 2 0  45 2 0  45.75 2 0  46.5 2 0  47.25 2 0  48 2 0  48.75 2 0  49.5 2 0  50.25 2 0  51 2 0  51.75 2 0  52.5 2 0  53.25 2 0  54 2 0  54.75 2 0  55.5 2 0  56.25 2 0  57 2 0  57.75 2 0  58.5 2 0  59.25 2 0  60 2 0  0 2.5 0  0.75 2.5 0  1.5 2.5 0  2.25 2.5 0  3 2.5 0  3.75 2.5 0  4.5 2.5 0  5.25 2.5 0  6 2.5 0  6.75 2.5 0  7.5 2.5 0  8.25 2.5 0  9 2.5 0  9.75 2.5 0  10.5 2.5 0  11.25 2.5 0  12 2.5 0  12.75 2.5 0  13.5 2.5 0  14.25 2.5 0  15 2.5 0  15.75 2.5 0  16.5 2.5 0  17.25 2.5 0  18 2.5 0  18.75 2.5 0  19.5 2.5 0  20.25 2.5 0  21 2.5 0  21.75 2.5 0  22.5 2.5 0  23.25 2.5 0  24 2.5 0  24.75 2.5 0  25.5 2.5 0  26.25 2.5 0  27 2.5 0  27.75 2.5 0  28.5 2.5 0  29.25 2.5 0  30 2.5 0  30.75 2.5 0  31.5 2.5 0  32.25 2.5 0  33 2.5 0  33.75 2.5 0  34.5 2.5 0  35.25 2.5 0  36 2.5 0  36.75 2.5 0  37.5 2.5 0  38.25 2.5 0  39 2.5 0  39.75 2.5 0  40.5 2.5 0  41.25 2.5 0  42 2.5 0  42.75 2.5 0  43.5 2.5 0  44.25 2.5 0  45 2.5 0  45.75 2.5 0  46.5 2.5 0  47.25 2.5 0  48 2.5 0  48.75 2.5 0  49.5 2.5 0  50.25 2.5 0  51 2.5 0  51.75 2.5 0  52.5 2.5 0  53.25 2.5 0  54 2.5 0  54.75 2.5 0  55.5 2.5 0  56.25 2.5 0  57 2.5 0  57.75 2.5 0  58.5 2.5 0  59.25 2.5 0  60 2.5 0  0 3 0  0.75 3 0  1.5 3 0  2.25 3 0  3 3 0  3.75 3 0  4.5 3 0  5.25 3 0  6 3 0  6.75 3 0  7.5 3 0  8.25 3 0  9 3 0  9.75 3 0  10.5 3 0  11.25 3 0  12 3 0  12.75 3 0  13.5 3 0  14.25 3 0  15 3 0  15.75 3 0  16.5 3 0  17.25 3 0  18 3 0  18.75 3 0  19.5 3 0  20.25 3 0  21 3 0  21.75 3 0  22.5 3 0  23.25 3 0  24 3 0  24.75 3 0  25.5 3 0  26.25 3 0  27 3 0  27.75 3 0  28.5 3 0  29.25 3 0  30 3 0  30.75 3 0  31.5 3 0  32.25 3 0  33 3 0  33.75 3 0  34.5 3 0  35.25 3 0  36 3 0  36.75 3 0  37.5 3 0  38.25 3 0  39 3 0  39.75 3 0  40.5 3 0  41.25 3 0  42 3 0  42.75 3 0  43.5 3 0  44.25 3 0  45 3 0  45.75 3 0  46.5 3 0  47.25 3 0  48 3 0  48.75 3 0  49.5 3 0  50.25 3 0  51 3 0  51.75 3 0  52.5 3 0  53.25 3 0  54 3 0  54.75 3 0  55.5 3 0  56.25 3 0  57 3 0  57.75 3 0  58.5 3 0  59.25 3 0  60 3 0  0 3.5 0  0.75 3.5 0  1.5 3.5 0  2.25 3.5 0  3 3.5 0  3.75 3.5 0  4.5 3.5 0  5.25 3.5 0  6 3.5 0  6.75 3.5 0  7.5 3.5 0  8.25 3.5 0  9 3.5 0  9.75 3.5 0  10.5 3.5 0  11.25 3.5 0  12 3.5 0  12.75 3.5 0  13.5 3.5 0  14.25 3.5 0  15 3.5 0  15.75 3.5 0  16.5 3.5 0  17.25 3.5 0  18 3.5 0  18.75 3.5 0  19.5 3.5 0  20.25 3.5 0  21 3.5 0  21.75 3.5 0  22.5 3.5 0  23.25 3.5 0  24 3.5 0  24.75 3.5 0  25.5 3.5 0  26.25 3.5 0  27 3.5 0  27.75 3.5 0  28.5 3.5 0  29.25 3.5 0  30 3.5 0  30.75 3.5 0  31.5 3.5 0  32.25 3.5 0  33 3.5 0  33.75 3.5 0  34.5 3.5 0  35.25 3.5 0  36 3.5 0  36.75 3.5 0  37.5 3.5 0  38.25 3.5 0  39 3.5 0  39.75 3.5 0  40.5 3.5 0  41.25 3.5 0  42 3.5 0  42.75 3.5 0  43.5 3.5 0  44.25 3.5 0  45 3.5 0  45.75 3.5 0  46.5 3.5 0  47.25 3.5 0  48 3.5 0  48.75 3.5 0  49.5 3.5 0  50.25 3.5 0  51 3.5 0  51.75 3.5 0  52.5 3.5 0  53.25 3.5 0  54 3.5 0  54.75 3.5 0  55.5 3.5 0  56.25 3.5 0  57 3.5 0  57.75 3.5 0  58.5 3.5 0  59.25 3.5 0  60 3.5 0  0 4 0  0.75 4 0  1.5 4 0  2.25 4 0  3 4 0  3.75 4 0  4.5 4 0  5.25 4 0  6 4 0  6.75 4 0  7.5 4 0  8.25 4 0  9 4 0  9.75 4 0  10.5 4 0  11.25 4 0  12 4 0  12.75 4 0  13.5 4 0  14.25 4 0  15 4 0  15.75 4 0  16.5 4 0  17.25 4 0  18 4 0  18.75 4 0  19.5 4 0  20.25 4 0  21 4 0  21.75 4 0  22.5 4 0  23.25 4 0  24 4 0  24.75 4 0  25.5 4 0  26.25 4 0  27 4 0  27.75 4 0  28.5 4 0  29.25 4 0  30 4 0  30.75 4 0  31.5 4 0  32.25 4 0  33 4 0  33.75 4 0  34.5 4 0  35.25 4 0  36 4 0  36.75 4 0  37.5 4 0  38.25 4 0  39 4 0  39.75 4 0  40.5 4 0  41.25 4 0  42 4 0  42.75 4 0  43.5 4 0  44.25 4 0  45 4 0  45.75 4 0  46.5 4 0  47.25 4 0  48 4 0  48.75 4 0  49.5 4 0  50.25 4 0  51 4 0  51.75 4 0  52.5 4 0  53.25 4 0  54 4 0  54.75 4 0  55.5 4 0  56.25 4 0  57 4 0  57.75 4 0  58.5 4 0  59.25 4 0  60 4 0  0.375 0.25 0  1.125 0.25 0  1.875 0.25 0  2.625 0.25 0  3.375 0.25 0  4.125 0.25 0  4.875 0.25 0  5.625 0.25 0  6.375 0.25 0  7.125 0.25 0  7.875 0.25 0  8.625 0.25 0  9.375 0.25 0  10.125 0.25 0  10.875 0.25 0  11.625 0.25 0  12.375 0.25 0  13.125 0.25 0  13.875 0.25 0  14.625 0.25 0  15.375 0.25 0  16.125 0.25 0  16.875 0.25 0  17.625 0.25 0  18.375 0.25 0  19.125 0.25 0  19.875 0.25 0  20.625 0.25 0  21.375 0.25 0  22.125 0.25 0  22.875 0.25 0  23.625 0.25 0  24.375 0.25 0  25.125 0.25 0  25.875 0.25 0  26.625 0.25 0  27.375 0.25 0  28.125 0.25 0  28.875 0.25 0  29.625 0.25 0  30.375 0.25 0  31.125 0.25 0  31.875 0.25 0  32.625 0.25 0  33.375 0.25 0  34.125 0.25 0  34.875 0.25 0  35.625 0.25 0  36.375 0.25 0  37.125 0.25 0  37.875 0.25 0  38.625 0.25 0  39.375 0.25 0  40.125 0.25 0  40.875 0.25 0  41.625 0.25 0  42.375 0.25 0  43.125 0.25 0  43.875 0.25 0  44.625 0.25 0  45.375 0.25 0  46.125 0.25 0  46.875 0.25 0  47.625 0.25 0  48.375 0.25 0  49.125 0.25 0  49.875 0.25 0  50.625 0.25 0  51.375 0.25 0  52.125 0.25 0  52.875 0.25 0  53.625 0.25 0  54.375 0.25 0  55.125 0.25 0  55.875 0.25 0  56.625 0.25 0  57.375 0.25 0  58.125 0.25 0  58.875 0.25 0  59.625 0.25 0  0.375 0.75 0  1.125 0.75 0  1.875 0.75 0  2.625 0.75 0  3.375 0.75 0  4.125 0.75 0  4.875 0.75 0  5.625 0.75 0  6.375 0.75 0  7.125 0.75 0  7.875 0.75 0  8.625 0.75 0  9.375 0.75 0  10.125 0.75 0  10.875 0.75 0  11.625 0.75 0  12.375 0.75 0  13.125 0.75 0  13.875 0.75 0  14.625 0.75 0  15.375 0.75 0  16.125 0.75 0  16.875 0.75 0  17.625 0.75 0  18.375 0.75 0  19.125 0.75 0  19.875 0.75 0  20.625 0.75 0  21.375 0.75 0  22.125 0.75 0  22.875 0.75 0  23.625 0.75 0  24.375 0.75 0  25.125 0.75 0  25.875 0.75 0  26.625 0.75 0  27.375 0.75 0  28.125 0.75 0  28.875 0.75 0  29.625 0.75 0  30.375 0.75 0  31.125 0.75 0  31.875 0.75 0  32.625 0.75 0  33.375 0.75 0  34.125 0.75 0  34.875 0.75 0  35.625 0.75 0  36.375 0.75 0  37.125 0.75 0  37.875 0.75 0  38.625 0.75 0  39.375 0.75 0  40.125 0.75 0  40
[...]
<PointData  Vectors="f_8-0"> 
<DataArray  type="Float64"  Name="f_8-0"  NumberOfComponents="3" format="ascii">0.0000000000000000e+00 0.0000000000000000e+00 0.0000000000000000e+00  0.0000000000000000e+00 0.0000000000000000e+00 0.0000000000000000e+00  0.0000000000000000e+00 0.0000000000000000e+00 0.0000000000000000e+00  0.0000000000000000e+00 0.0000000000000000e+00 0.0000000000000000e+00  0.0000000000000000e+00 0.0000000000000000e+00 0.0000000000000000e+00  0.0000000000000000e+00 0.0000000000000000e+00 0.0000000000000000e+00  0.0000000000000000e+00 0.0000000000000000e+00 0.0000000000000000e+00  0.0000000000000000e+00 0.0000000000000000e+00 0.0000000000000000e+00  0.0000000000000000e+00 0.0000000000000000e+00 0.0000000000000000e+00  0.0000000000000000e+00 0.0000000000000000e+00 0.0000000000000000e+00  0.0000000000000000e+00 0.0000000000000000e+00 0.0000000000000000e+00  0.0000000000000000e+00 0.0000000000000000e+00 0.0000000000000000e+00  0.0000000000000000e+00 0.0000000000000000e+00 0.0000000000000000e+00  0.0000000000000000e+00 0.0000000000000000e+00 0.0000000000000000e+00  0.0000000000000000e+00 0.0000000000000000e+00 0.0000000000000000e+00  0.0000000000000000e+00 0.0000000000000000e+00 0.0000000000000000e+00  0.0000000000000000e+00 0.0000000000000000e+00 0.0000000000000000e+00  0.0000000000000000e+00 0.0000000000000000e+00 0.0000000000000000e+00  0.0000000000000000e+00 0.0000000000000000e+00 0.0000000000000000e+00  0.0000000000000000e+00 0.0000000000000000e+00 0.0000000000000000e+00  0.0000000000000000e+00 0.0000000000000000e+00 0.0000000000000000e+00  0.0000000000000000e+00 0.0000000000000000e+00 0.0000000000000000e+00  0.0000000000000000e+00 0.0000000000000000e+00 0.0000000000000000e+00  0.0000000000000000e+00 0.0000000000000000e+00 0.0000000000000000e+00  0.0000000000000000e+00 0.0000000000000000e+00 0.0000000000000000e+00  0.0000000000000000e+00 0.0000000000000000e+00 0.0000000000000000e+00  0.0000000000000000e+00 0.0000000000000000e+00 0.0000000000000000e+00  0.0000000000000000e+00 0.0000000000000000e+00 0.0000000000000000e+00  0.0000000000000000e+00 0.0000000000000000e+00 0.0000000000000000e+00  0.0000000000000000e+00 0.0000000000000000e+00 0.0000000000000000e+00  0.0000000000000000e+00 0.0000000000000000e+00 0.0000000000000000e+00  0.0000000000000000e+00 0.0000000000000000e+00 0.0000000000000000e+00  0.0000000000000000e+00 0.0000000000000000e+00 0.0000000000000000e+00  0.0000000000000000e+00 0.0000000000000000e+00 0.0000000000000000e+00  0.0000000000000000e+00 0.0000000000000000e+00 0.0000000000000000e+00  0.0000000000000000e+00 0.0000000000000000e+00 0.0000000000000000e+00  0.0000000000000000e+00 0.0000000000000000e+00 0.0000000000000000e+00  0.0000000000000000e+00 0.0000000000000000e+00 0.0000000000000000e+00  0.0000000000000000e+00 0.0000000000000000e+00 0.0000000000000000e+00  0.0000000000000000e+00 0.0000000000000000e+00 0.0000000000000000e+00  0.0000000000000000e+00 0.0000000000000000e+00 0.0000000000000000e+00  0.0000000000000000e+00 0.0000000000000000e+00 0.0000000000000000e+00  0.0000000000000000e+00 0.0000000000000000e+00 0.0000000000000000e+00  0.0000000000000000e+00 0.0000000000000000e+00 0.0000000000000000e+00  0.0000000000000000e+00 0.0000000000000000e+00 0.0000000000000000e+00  0.0000000000000000e+00 0.0000000000000000e+00 0.0000000000000000e+00  0.0000000000000000e+00 0.0000000000000000e+00 0.0000000000000000e+00  0.0000000000000000e+00 0.0000000000000000e+00 0.0000000000000000e+00  0.0000000000000000e+00 0.0000000000000000e+00 0.0000000000000000e+00  0.0000000000000000e+00 0.0000000000000000e+00 0.0000000000000000e+00  0.0000000000000000e+00 0.0000000000000000e+00 0.0000000000000000e+00  0.0000000000000000e+00 0.0000000000000000e+00 0.0000000000000000e+00  0.0000000000000000e+00 0.0000000000000000e+00 0.0000000000000000e+00  0.0000000000000000e+00 0.0000000000000000e+00 0.0000000000000000e+00  0.0000000000000000e+00 0.0000000000000000e+00 0.0000000000000000e+00  0.0000000000000000e+00 0.0000000000000000e+00 0.0000000000000000e+00  0.0000000000000000e+00 0.0000000000000000e+00 0.0000000000000000e+00  0.0000000000000000e+00 0.0000000000000000e+00 0.0000000000000000e+00  0.0000000000000000e+00 0.0000000000000000e+00 0.0000000000000000e+00  0.0000000000000000e+00 0.0000000000000000e+00 0.0000000000000000e+00  0.0000000000000000e+00 0.0000000000000000e+00 0.0000000000000000e+00  0.0000000000000000e+00 0.0000000000000000e+00 0.0000000000000000e+00  0.0000000000000000e+00 0.0000000000000000e+00 0.0000000000000000e+00  0.0000000000000000e+00 0.0000000000000000e+00 0.0000000000000000e+00  0.0000000000000000e+00 0.0000000000000000e+00 0.0000000000000000e+00  0.0000000000000000e+00 0.0000000000000000e+00 0.0000000000000000e+00  0.0000000000000000e+00 0.0000000000000000e+00 0.0000000000000000e+00  0.0000000000000000e+00 0.0000000000000000e+00 0.0000000000000000e+00  0.0000000000000000e+00 0.0000000000000000e+00 0.0000000000000000e+00  0.0000000000000000e+00 0.0000000000000000e+00 0.0000000000000000e+00  0.0000000000000000e+00 0.0000000000000000e+00 0.0000000000000000e+00  0.0000000000000000e+00 0.0000000000000000e+00 0.0000000000000000e+00  0.0000000000000000e+00 0.0000000000000000e+00 0.0000000000000000e+00  0.0000000000000000e+00 0.0000000000000000e+00 0.0000000000000000e+00  0.0000000000000000e+00 0.0000000000000000e+00 0.0000000000000000e+00  0.0000000000000000e+00 0.0000000000000000e+00 0.0000000000000000e+00  0.0000000000000000e+00 0.0000000000000000e+00 0.0000000000000000e+00  0.0000000000000000e+00 0.0000000000000000e+00 0.0000000000000000e+00  0.0000000000000000e+00 0.0000000000000000e+00 0.0000000000000000e+00  0.0000000000000000e+00 0.0000000000000000e+00 0.0000000000000000e+00  0.0000000000000000e+00 0.0000000000000000e+00 0.0000000000000000e+00  2.8580946994297374e+01 0.0000000000000000e+00 0.0000000000000000e+00  2.8583714823121269e+01 3.1289251269266558e-02 0.0000000000000000e+00  2.8603926623631594e+01 2.1616486185372905e-02 0.0000000000000000e+00  2.8598183431960898e+01 1.0881049578325468e-02 0.0000000000000000e+00  2.8596538984405093e+01 7.4707186133258149e-03 0.0000000000000000e+00  2.8593656289896302e+01 9.9931182426382550e-04 0.0000000000000000e+00  2.8594134549567112e+01 1.7108406394554139e-03 0.0000000000000000e+00  2.8596186716529683e+01 1.1939679415788179e-03 0.0000000000000000e+00  2.8596566586937048e+01 2.1614205181785954e-03 0.0000000000000000e+00  2.8597208847783595e+01 1.9227256166883171e-03 0.0000000000000000e+00  2.8597095343562334e+01 2.1628171276351698e-03 0.0000000000000000e+00  2.8597288117134475e+01 2.0557918914909253e-03 0.0000000000000000e+00  2.8597209537165384e+01 2.1221350989178043e-03 0.0000000000000000e+00  2.8597285545105429e+01 2.0887481463574939e-03 0.0000000000000000e+00  2.8597251174598917e+01 2.1088480896551743e-03 0.0000000000000000e+00  2.8597279853230326e+01 2.0988637144788063e-03 0.0000000000000000e+00  2.8597267283162743e+01 2.1049895422151888e-03 0.0000000000000000e+00  2.8597276868547013e+01 2.1020193846029872e-03 0.0000000000000000e+00  2.8597272959651828e+01 2.1038266130096583e-03 0.0000000000000000e+00  2.8597275871542152e+01 2.1029762882086465e-03 0.0000000000000000e+00  2.8597274851438574e+01 2.1034823900965985e-03 0.0000000000000000e+00  2.8597275716333126e+01 2.1032530101463037e-03 0.0000000000000000e+00  2.8597275534176504e+01 2.1033870400172724e-03 0.0000000000000000e+00  2.8597275830591027e+01 2.1033289439309683e-03 0.0000000000000000e+00  2.8597275866489621e+01 2.1033626922777066e-03 0.0000000000000000e+00  2.8597276016070218e+01 2.1033488190108250e-03 0.0000000000000000e+00  2.8597276104034126e+01 2.1033569701187239e-03 0.0000000000000000e+00  2.8597276217624135e+01 2.1033538265617900e-03 0.0000000000000000e+00  2.8597276317198343e+01 2.1033557321989420e-03 0.0000000000000000e+00  2.8597276422326143e+01 2.1033550563800399e-03 0.0000000000000000e+00  2.8597276524371882e+01 2.1033554940364991e-03 0.0000000000000000e+00  2.8597276627595367e+01 2.1033553602814933e-03 0.0000000000000000e+00  2.8597276730166296e+01 2.1033554672037899e-03 0.0000000000000000e+00  2.8597276832985983e+01 2.1033554503136617e-03 0.0000000000000000e+00  2.8597276935670823e+01 2.1033554853729028e-03 0.0000000000000000e+00  2.8597277038406364e+01 2.1033555009716547e-03 0.0000000000000000e+00  2.8597277141097241e+01 2.1033555261932117e-03 0.0000000000000000e+00  2.8597277243783033e+01 2.1033555462102995e-03 0.0000000000000000e+00  2.8597277346445580e+01 2.1033555744139820e-03 0.0000000000000000e+00  2.8597277449076586e+01 2.1033556028034850e-03 0.0000000000000000e+00  2.8597277551665361e+01 2.1033556360804005e-03 0.0000000000000000e+00  2.8597277654209439e+01 2.1033556673808380e-03 0.0000000000000000e+00  2.8597277756704099e+01 2.1033557009258871e-03 0.0000000000000000e+00  2.8597277859147002e+01 2.1033557391002809e-03 0.0000000000000000e+00  2.8597277961525055e+01 2.1033557763613805e-03 0.0000000000000000e+00  2.8597278063840598e+01 2.1033558131970920e-03 0.0000000000000000e+00  2.8597278166087282e+01 2.1033558582437824e-03 0.0000000000000000e+00  2.8597278268258510e+01 2.1033558967122963e-03 0.0000000000000000e+00  2.8597278370346789e+01 2.1033559463527487e-03 0.0000000000000000e+00  2.8597278472344907e+01 2.1033559836343076e-03 0.0000000000000000e+00  2.8597278574249167e+01 2.1033560415424837e-03 0.0000000000000000e+00  2.8597278676035575e+01 2.1033560704719085e-03 0.0000000000000000e+00  2.8597278777721801e+01 2.1033561223489914e-03 0.0000000000000000e+00  2.8597278879284509e+01 2.1033560786312151e-03 0.0000000000000000e+00  2.8597278980883939e+01 2.1033559693689977e-03 0.0000000000000000e+00  2.8597279082690644e+01 2.1033554794684336e-03 0.0000000000000000e+00  2.8597279185590136e+01 2.1033543111319982e-03 0.0000000000000000e+00  2.8597279291142161e+01 2.1033512904322705e-03 0.0000000000000000e+00  2.8597279404105993e+01 2.1033440950215822e-03 0.0000000000000000e+00  2.8597279534311319e+01 2.1033271928015303e-03 0.0000000000000000e+00  2.8597279707229138e+01 2.1032872560817284e-03 0.0000000000000000e+00  2.8597279979463906e+01 2.1031953464139531e-03 0.0000000000000000e+00  2.8597280488685474e+01 2.1029804942325515e-03 0.0000000000000000e+00  2.8597281549882972e+01 2.1024880423575229e-03 0.0000000000000000e+00  2.8597283909240769e+01 2.1013506120709088e-03 0.0000000000000000e+00  2.8597289285707589e+01 2.0987737820990552e-03 0.0000000000000000e+00  2.8597301641010908e+01 2.0930202024366539e-03 0.0000000000000000e+00  2.8597329731732014e+01 2.0807192665442975e-03 0.0000000000000000e+00  2.8597391923880778e+01 2.0558565245645624e-03 0.0000000000000000e+00  2.8597523195532514e+01 2.0099169211807437e-03 0.0000000000000000e+00  2.8597781875265220e+01 1.9346829535053364e-03 0.0000000000000000e+00  2.8598245724105102e+01 1.8329253814681427e-03 0.0000000000000000e+00  2.8598977800400473e+01 1.7340082600148354e-03 0.0000000000000000e+00  2.8599947396886776e+01 1.6986171206294740e-03 0.0000000000000000e+00  2.8600965393738718e+01 1.7770959905843034e-03 0.0000000000000000e+00  2.8601752398979180e+01 1.9714128221783259e-03 0.0000000000000000e+00  2.8602035427205287e+01 2.2874022011014567e-03 0.0000000000000000e+00  2.8601409020730042e+01 2.7628706751759240e-03 0.0000000000000000e+00  2.8599067365204913e+01 3.1749695526957261e-03 0.0000000000000000e+00  2.8593416476731601e+01 2.2865123280842660e-03 0.0000000000000000e+00  2.8585656660963853e+01 0.0000000000000000e+00 0.0000000000000000e+00  3.3163720592647294e+01 0.0000000000000000e+00 0.0000000000000000e+00  3.3127529853529317e+01 -1.0062882561048016e-02 0.0000000000000000e+00  3.3146507675564067e+01 1.7296013938093865e-03 0.0000000000000000e+00  3.3157145830977797e+01 -2.7880712795286936e-03 0.0000000000000000e+00  3.3179501300090770e+01 -6.7380154319223698e-04 0.0000000000000000e+00  3.3186667446181538e+01 5.8211975954817715e-04 0.0000000000000000e+00  3.3190093751865582e+01 6.7642646479427866e-05 0.0000000000000000e+00  3.3189835686911429e+01 1.0998672887766721e-03 0.0000000000000000e+00  3.3190555630076240e+01 1.5455724757930461e-03 0.0000000000000000e+00  3.3190491418433467e+01 1.9166002776215617e-03 0.0000000000000000e+00  3.3190754554942508e+01 1.9994873591853602e-03 0.0000000000000000e+00  3.3190697150065731e+01 2.0430711171873306e-03 0.0000000000000000e+00  3.3190797015758271e+01 2.0612827186978475e-03 0.0000000000000000e+00  3.3190757671171426e+01 2.0652720953003036e-03 0.0000000000000000e+00  3.3190800914888023e+01 2.0722214655568127e-03 0.0000000000000000e+00  3.3190781049642773e+01 2.0730005074798630e-03 0.0000000000000000e+00  3.3190798498318713e+01 2.0751540569728263e-03 0.0000000000000000e+00  3.3190790528937512e+01 2.0756010780294781e-03 0.0000000000000000e+00  3.3190796722208354e+01 2.0761123765607246e-03 0.0000000000000000e+00  3.3190794087503960e+01 2.0763451684128551e-03 0.0000000000000000e+00  3.3190796083753646e+01 2.0764421559273682e-03 0.0000000000000000e+00  3.3190795377045525e+01 2.0765376364088187e-03 0.0000000000000000e+00  3.3190796017152280e+01 2.0765527343241932e-03 0.0000000000000000e+00  3.3190795907375382e+01 2.0765858251360798e-03 0.0000000000000000e+00  3.3190796155561138e+01 2.0765878878379242e-03 0.0000000000000000e+00  3.3190796210978696e+01 2.0765981087992997e-03 0.0000000000000000e+00  3.3190796355226524e+01 2.0765984411821536e-03 0.0000000000000000e+00  3.3190796452824337e+01 2.0766013369722469e-03 0.0000000000000000e+00  3.3190796571393598e+01 2.0766014206959763e-03 0.0000000000000000e+00  3.3190796679256039e+01 2.0766021832984045e-03 0.0000000000000000e+00  3.3190796791922018e+01 2.0766022094255879e-03 0.0000000000000000e+00  3.3190796902266875e+01 2.0766023993004259e-03 0.0000000000000000e+00  3.3190797013719482e+01 2.0766024152810234e-03 0.0000000000000000e+00  3.3190797124705220e+01 2.0766024747257928e-03 0.0000000000000000e+00  3.3190797235949290e+01 2.0766024983275601e-03 0.0000000000000000e+00  3.3190797347112422e+01 2.0766025447005168e-03 0.0000000000000000e+00  3.3190797458324305e+01 2.0766025915094342e-03 0.0000000000000000e+00  3.3190797569499168e+01 2.0766026451074669e-03 0.0000000000000000e+00  3.3190797680667501e+01 2.0766027070031980e-03 0.0000000000000000e+00  3.3190797791797586e+01 2.0766027824108539e-03 0.0000000000000000e+00  3.3190797902878565e+01 2.0766028647530009e-03 0.0000000000000000e+00  3.3190798013901187e+01 2.0766029570611954e-03 0.0000000000000000e+00  3.3190798124849721e+01 2.0766030503469243e-03 0.0000000000000000e+00  3.3190798235731791e+01 2.0766031512975472e-03 0.0000000000000000e+00  3.3190798346524112e+01 2.0766032632749745e-03 0.0000000000000000e+00  3.3190798457224936e+01 2.0766033730659798e-03 0.0000000000000000e+00  3.3190798567823201e+01 2.0766034978083798e-03 0.0000000000000000e+00  3.3190798678312312e+01 2.0766036240609030e-03 0.0000000000000000e+00  3.3190798788663628e+01 2.0766037701634120e-03 0.0000000000000000e+00  3.3190798898869531e+01 2.0766039114242449e-03 0.0000000000000000e+00  3.3190799008887652e+01 2.0766040980139096e-03 0.0000000000000000e+00  3.3190799118674178e+01 2.0766042677014505e-03 0.0000000000000000e+00  3.3190799228149864e+01 2.0766045067533720e-03 0.0000000000000000e+00  3.3190799337179051e+01 2.0766046621020135e-03 0.0000000000000000e+00  3.3190799445596539e+01 2.0766048059806539e-03 0.0000000000000000e+00  3.3190799553041607e+01 2.0766044811480781e-03 0.0000000000000000e+00  3.3190799659143686e+01 2.0766033540234956e-03 0.0000000000000000e+00  3.3190799762824703e+01 2.0765996327666201e-03 0.0000000000000000e+00  3.3190799863004379e+01 2.0765901508188094e-03 0.0000000000000000e+00  3.3190799956119712e+01 2.0765664750456159e-03 0.0000000000000000e+00  3.3190800037891613e+01 2.0765093562900593e-03 0.0000000000000000e+00  3.3190800094879791e+01 2.0763751479047875e-03 0.0000000000000000e+00  3.3190800105830014e+01 2.0760598656921754e-03 0.0000000000000000e+00  3.3190800006839858e+01 2.0753356133466584e-03 0.0000000000000000e+00  3.3190799660063171e+01 2.0736721736192704e-03 0.0000000000000000e+00  3.3190798688646218e+01 2.0699102222419496e-03 0.0000000000000000e+00  3.3190796307248526e+01 2.0614426601535387e-03 0.0000000000000000e+00  3.3190791068240529e+01 2.0428215015103946e-03 0.0000000000000000e+00  3.3190781651716840e+01 2.0031971626868327e-03 0.0000000000000000e+00  3.3190770106190975e+01 1.9238455701408460e-03 0.0000000000000000e+00  3.3190772280094350e+01 1.7777021644259461e-03 0.0000000000000000e+00  3.3190837624420652e+01 1.5434537118994666e-03 0.0000000000000000e+00  3.3191064112863096e+01 1.2510217415224300e-03 0.0000000000000000e+00  3.3191535542061381e+01 1.0448612675823289e-03 0.0000000000000000e+00  3.3192187399191319e+01 1.1038037383940508e-03 0.0000000000000000e+00  3.3192874066605569e+01 1.4325624535422524e-03 0.0000000000000000e+00  3.3193571065167134e+01 2.0007507087617983e-03 0.0000000000000000e+00  3.3194288584846191e+01 2.9783378302324689e-03 0.0000000000000000e+00  3.3195091742595203e+01 4.4667837270238615e-03 0.0000000000000000e+00  3.3196499051642881e+01 5.9102669141639563e-03 0.0000000000000000e+00  3.3200163390274675e+01 0.0000000000000000e+00 0.0000000000000000e+00  3.1481824746786753e+01 0.0000000000000000e+00 0.0000000000000000e+00  3.1483202916264805e+01 2.6589039999134830e-03 0.0000000000000000e+00  3.1481019929324784e+01 -3.7720092127315214e-03 0.0000000000000000e+00  3.1475323212426421e+01 -3.9075112761217008e-03 0.0000000000000000e+00  3.1465876570420299e+01 -6.9937904641282330e-03 0.0000000000000000e+00  3.1464102914447551e+01 -3.5126234232663437e-03 0.0000000000000000e+00  3.1461014770788896e+01 -2.4886440358682644e-03 0.0000000000000000e+00  3.1460713312062111e+01 -1.6591449230139155e-03 0.0000000000000000e+00  3.1459411776399719e+01 -1.1989963739035461e-03 0.0000000000000000e+00  3.1459562485035125e+01 -9.6921398228224406e-04 0.0000000000000000e+00  3.1459183847084059e+01 -8.7262693924245707e-04 0.0000000000000000e+00  3.1459309003593482e+01 -8.2750982254367242e-04 0.0000000000000000e+00  3.1459179388117555e+01 -8.1855756768699618e-04 0.0000000000000000e+00  3.1459233426248662e+01 -8.0308483721693177e-04 0.0000000000000000e+00  3.1459185862838080e+01 -8.0426472834419589e-04 0.0000000000000000e+00  3.1459206500082914e+01 -7.9793350221688745e-04 0.0000000000000000e+00  3.1459189789171717e+01 -7.9896036970671612e-04 0.0000000000000000e+00  3.1459197070215328e+01 -7.9675745942484175e-04 0.0000000000000000e+00  3.1459191649812468e+01 -7.9712361353858360e-04 0.0000000000000000e+00  3.1459194029978242e+01 -7.9646931529067937e-04 0.0000000000000000e+00  3.1459192445537411e+01 -7.9656156898858963e-04 0.0000000000000000e+00  3.1459193201427599e+01 -7.9638814027111957e-04 0.0000000000000000e+00  3.1459192819159679e+01 -7.9640532643493911e-04 0.0000000000000000e+00  3.1459193090403193e+01 -7.9636287213212715e-04 0.0000000000000000e+00  3.1459193058898762e+01 -7.9636490112645713e-04 0.0000000000000000e+00  3.1459193199419065e+01 -7.9635517500312527e-04 0.0000000000000000e+00  3.1459193264806164e+01 -7.9635519834686400e-04 0.0000000000000000e+00  3.1459193373524268e+01 -7.9635319004126579e-04 0.0000000000000000e+00  3.1459193464821823e+01 -7.9635321146998993e-04 0.0000000000000000e+00  3.1459193566753662e+01 -7.9635291637684773e-04 0.0000000000000000e+00  3.1459193664956789e+01 -7.9635300710793205e-04 0.0000000000000000e+00  3.1459193765767338e+01 -7.9635304231965535e-04 0.0000000000000000e+00  3.1459193865876156e+01 -7.9635312644055819e-04 0.0000000000000000e+00  3.1459193966639987e+01 -7.9635318238658573e-04 0.0000000000000000e+00  3.1459194067307049e+01 -7.9635322761986303e-04 0.0000000000000000e+00  3.1459194168140126e+01 -7.9635324360101151e-04 0.0000000000000000e+00  3.1459194268965490e+01 -7.9635323830169985e-04 0.0000000000000000e+00  3.1459194369820768e+01 -7.9635321598218675e-04 0.0000000000000000e+00  3.1459194470660389e+01 -7.9635317859749299e-04 0.0000000000000000e+00  3.1459194571484968e+01 -7.9635311593095426e-04 0.0000000000000000e+00  3.1459194672275935e+01 -7.9635303730261