<?xml version="1.0"?>
<VTKFile type="UnstructuredGrid"  version="0.1"  >
<UnstructuredGrid>
<Piece  NumberOfPoints="1369" NumberOfCells="2560">
<Points>
<DataArray  type="Float64"  NumberOfComponents="3"  format="ascii">0 0 0  0.75 0 0  1.5 0 0  2.25 0 0  3 0 0  3.75 0 0  4.5 0 0  5.25 0 0  6 0 0  6.75 0 0  7.5 0 0  8.25 0 0  9 0 0  9.75 0 0  10.5 0 0  11.25 0 0  12 0 0  12.75 0 0  13.5 0 0  14.25 0 0  15 0 0  15.75 0 0  16.5 0 0  17.25 0 0  18 0 0  18.75 0 0  19.5 0 0  20.25 0 0  21 0 0  21.75 0 0  22.5 0 0  23.25 0 0  24 0 0  24.75 0 0  25.5 0 0  26.25 0 0  27 0 0  27.75 0 0  28.5 0 0  29.25 0 0  30 0 0  30.75 0 0  31.5 0 0  32.25 0 0  33 0 0  33.75 0 0  34.5 0 0  35.25 0 0  36 0 0  36.75 0 0  37.5 0 0  38.25 0 0  39 0 0  39.75 0 0  40.5 0 0  41.25 0 0  42 0 0  42.75 0 0  43.5 0 0  44.25 0 0  45 0 0  45.75 0 0  46.5 0 0  47.25 0 0  48 0 0  48.75 0 0  49.5 0 0  50.25 0 0  51 0 0  51.75 0 0  52.5 0 0  53.25 0 0  54 0 0  54.75 0 0  55.5 0 0  56.25 0 0  57 0 0  57.75 0 0  58.5 0 0  59.25 0 0  60 0 0  0 0.5 0  0.75 0.5 0  1.5 0.5 0  2.25 0.5 0  3 0.5 0  3.75 0.5 0  4.5 0.5 0  5.25 0.5 0  6 0.5 0  6.75 0.5 0  7.5 0.5 0  8.25 0.5 0  9 0.5 0  9.75 0.5 0  10.5 0.5 0  11.25 0.5 0  12 0.5 0  12.75 0.5 0  13.5 0.5 0  14.25 0.5 0  15 0.5 0  15.75 0.5 0  16.5 0.5 0  17.25 0.5 0  18 0.5 0  18.75 0.5 0  19.5 0.5 0  20.25 0.5 0  21 0.5 0  21.75 0.5 0  22.5 0.5 0  23.25 0.5 0  24 0.5 0  24.75 0.5 0  25.5 0.5 0  26.25 0.5 0  27 0.5 0  27.75 0.5 0  28.5 0.5 0  29.25 0.5 0  30 0.5 0  30.75 0.5 0  31.5 0.5 0  32.25 0.5 0  33 0.5 0  33.75 0.5 0  34.5 0.5 0  35.25 0.5 0  36 0.5 0  36.75 0.5 0  37.5 0.5 0  38.25 0.5 0  39 0.5 0  39.75 0.5 0  40.5 0.5 0  41.25 0.5 0  42 0.5 0  42.75 0.5 0  43.5 0.5 0  44.25 0.5 0  45 0.5 0  45.75 0.5 0  46.5 0.5 0  47.25 0.5 0  48 0.5 0  48.75 0.5 0  49.5 0.5 0  50.25 0.5 0  51 0.5 0  51.75 0.5 0  52.5 0.5 0  53.25 0.5 0  54 0.5 0  54.75 0.5 0  55.5 0.5 0  56.25 0.5 0  57 0.5 0  57.75 0.5 0  58.5 0.5 0  59.25 0.5 0  60 0.5 0  0 1 0  0.75 1 0  1.5 1 0  2.25 1 0  3 1 0  3.75 1 0  4.5 1 0  5.25 1 0  6 1 0  6.75 1 0  7.5 1 0  8.25 1 0  9 1 0  9.75 1 0  10.5 1 0  11.25 1 0  12 1 0  12.75 1 0  13.5 1 0  14.25 1 0  15 1 0  15.75 1 0  16.5 1 0  17.25 1 0  18 1 0  18.75 1 0  19.5 1 0  20.25 1 0  21 1 0  21.75 1 0  22.5 1 0  23.25 1 0  24 1 0  24.75 1 0  25.5 1 0  26.25 1 0  27 1 0  27.75 1 0  28.5 1 0  29.25 1 0  30 1 0  30.75 1 0  31.5 1 0  32.25 1 0  33 1 0  33.75 1 0  34.5 1 0  35.25 1 0  36 1 0  36.75 1 0  37.5 1 0  38.25 1 0  39 1 0  39.75 1 0  40.5 1 0  41.25 1 0  42 1 0  42.75 1 0  43.5 1 0  44.25 1 0  45 1 0  45.75 1 0  46.5 1 0  47.25 1 0  48 1 0  48.75 1 0  49.5 1 0  50.25 1 0  51 1 0  51.75 1 0  52.5 1 0  53.25 1 0  54 1 0  54.75 1 0  55.5 1 0  56.25 1 0  57 1 0  57.75 1 0  58.5 1 0  59.25 1 0  60 1 0  0 1.5 0  0.75 1.5 0  1.5 1.5 0  2.25 1.5 0  3 1.5 0  3.75 1.5 0  4.5 1.5 0  5.25 1.5 0  6 1.5 0  6.75 1.5 0  7.5 1.5 0  8.25 1.5 0  9 1.5 0  9.75 1.5 0  10.5 1.5 0  11.25 1.5 0  12 1.5 0  12.75 1.5 0  13.5 1.5 0  14.25 1.5 0  15 1.5 0  15.75 1.5 0  16.5 1.5 0  17.25 1.5 0  18 1.5 0  18.75 1.5 0  19.5 1.5 0  20.25 1.5 0  21 1.5 0  21.75 1.5 0  22.5 1.5 0  23.25 1.5 0  24 1.5 0  24.75 1.5 0  25.5 1.5 0  26.25 1.5 0  27 1.5 0  27.75 1.5 0  28.5 1.5 0  29.25 1.5 0  30 1.5 0  30.75 1.5 0  31.5 1.5 0  32.25 1.5 0  33 1.5 0  33.75 1.5 0  34.5 1.5 0  35.25 1.5 0  36 1.5 0  36.75 1.5 0  37.5 1.5 0  38.25 1.5 0  39 1.5 0  39.75 1.5 0  40.5 1.5 0  41.25 1.5 0  42 1.5 0  42.75 1.5 0  43.5 1.5 0  44.25 1.5 0  45 1.5 0  45.75 1.5 0  46.5 1.5 0  47.25 1.5 0  48 1.5 0  48.75 1.5 0  49.5 1.5 0  50.25 1.5 0  51 1.5 0  51.75 1.5 0  52.5 1.5 0  53.25 1.5 0  54 1.5 0  54.75 1.5 0  55.5 1.5 0  56.25 1.5 0  57 1.5 0  57.75 1.5 0  58.5 1.5 0  59.25 1.5 0  60 1.5 0  0 2 0  0.75 2 0  1.5 2 0  2.25 2 0  3 2 0  3.75 2 0  4.5 2 0  5.25 2 0  6 2 0  6.75 2 0  7.5 2 0  8.25 2 0  9 2 0  9.75 2 0  10.5 2 0  11.25 2 0  12 2 0  12.75 2 0  13.5 2 0  14.25 2 0  15 2 0  15.75 2 0  16.5 2 0  17.25 2 0  18 2 0  18.75 2 0  19.5 2 0  20.25 2 0  21 2 0  21.75 2 0  22.5 2 0  23.25 2 0  24 2 0  24.75 2 0  25.5 2 0  26.25 2 0  27 2 0  27.75 2 0  28.5 2 0  29.25 2 0  30 2 0  30.75 2 0  31.5 2 0  32.25 2 0  33 2 0  33.75 2 0  34.5 2 0  35.25 2 0  36 2 0  36.75 2 0  37.5 2 0  38.25 2 0  39 2 0  39.75 2 0  40.5 2 0  41.25 2 0  42 2 0  42.75 2 0  43.5 2 0  44.25 2 0  45 2 0  45.75 2 0  46.5 2 0  47.25 2 0  48 2 0  48.75 2 0  49.5 2 0  50.25 2 0  51 2 0  51.75 2 0  52.5 2 0  53.25 2 0  54 2 0  54.75 2 0  55.5 2 0  56.25 2 0  57 2 0  57.75 2 0  58.5 2 0  59.25 2 0  60 2 0  0 2.5 0  0.75 2.5 0  1.5 2.5 0  2.25 2.5 0  3 2.5 0  3.75 2.5 0  4.5 2.5 0  5.25 2.5 0  6 2.5 0  6.75 2.5 0  7.5 2.5 0  8.25 2.5 0  9 2.5 0  9.75 2.5 0  10.5 2.5 0  11.25 2.5 0  12 2.5 0  12.75 2.5 0  13.5 2.5 0  14.25 2.5 0  15 2.5 0  15.75 2.5 0  16.5 2.5 0  17.25 2.5 0  18 2.5 0  18.75 2.5 0  19.5 2.5 0  20.25 2.5 0  21 2.5 0  21.75 2.5 0  22.5 2.5 0  23.25 2.5 0  24 2.5 0  24.75 2.5 0  25.5 2.5 0  26.25 2.5 0  27 2.5 0  27.75 2.5 0  28.5 2.5 0  29.25 2.5 0  30 2.5 0  30.75 2.5 0  31.5 2.5 0  32.25 2.5 0  33 2.5 0  33.75 2.5 0  34.5 2.5 0  35.25 2.5 0  36 2.5 0  36.75 2.5 0  37.5 2.5 0  38.25 2.5 0  39 2.5 0  39.75 2.5 0  40.5 2.5 0  41.25 2.5 0  42 2.5 0  42.75 2.5 0  43.5 2.5 0  44.25 2.5 0  45 2.5 0  45.75 2.5 0  46.5 2.5 0  47.25 2.5 0  48 2.5 0  48.75 2.5 0  49.5 2.5 0  50.25 2.5 0  51 2.5 0  51.75 2.5 0  52.5 2.5 0  53.25 2.5 0  54 2.5 0  54.75 2.5 0  55.5 2.5 0  56.25 2.5 0  57 2.5 0  57.75 2.5 0  58.5 2.5 0  59.25 2.5 0  60 2.5 0  0 3 0  0.75 3 0  1.5 3 0  2.25 3 0  3 3 0  3.75 3 0  4.5 3 0  5.25 3 0  6 3 0  6.75 3 0  7.5 3 0  8.25 3 0  9 3 0  9.75 3 0  10.5 3 0  11.25 3 0  12 3 0  12.75 3 0  13.5 3 0  14.25 3 0  15 3 0  15.75 3 0  16.5 3 0  17.25 3 0  18 3 0  18.75 3 0  19.5 3 0  20.25 3 0  21 3 0  21.75 3 0  22.5 3 0  23.25 3 0  24 3 0  24.75 3 0  25.5 3 0  26.25 3 0  27 3 0  27.75 3 0  28.5 3 0  29.25 3 0  30 3 0  30.75 3 0  31.5 3 0  32.25 3 0  33 3 0  33.75 3 0  34.5 3 0  35.25 3 0  36 3 0  36.75 3 0  37.5 3 0  38.25 3 0  39 3 0  39.75 3 0  40.5 3 0  41.25 3 0  42 3 0  42.75 3 0  43.5 3 0  44.25 3 0  45 3 0  45.75 3 0  46.5 3 0  47.25 3 0  48 3 0  48.75 3 0  49.5 3 0  50.25 3 0  51 3 0  51.75 3 0  52.5 3 0  53.25 3 0  54 3 0  54.75 3 0  55.5 3 0  56.25 3 0  57 3 0  57.75 3 0  58.5 3 0  59.25 3 0  60 3 0  0 3.5 0  0.75 3.5 0  1.5 3.5 0  2.25 3.5 0  3 3.5 0  3.75 3.5 0  4.5 3.5 0  5.25 3.5 0  6 3.5 0  6.75 3.5 0  7.5 3.5 0  8.25 3.5 0  9 3.5 0  9.75 3.5 0  10.5 3.5 0  11.25 3.5 0  12 3.5 0  12.75 3.5 0  13.5 3.5 0  14.25 3.5 0  15 3.5 0  15.75 3.5 0  16.5 3.5 0  17.25 3.5 0  18 3.5 0  18.75 3.5 0  19.5 3.5 0  20.25 3.5 0  21 3.5 0  21.75 3.5 0  22.5 3.5 0  23.25 3.5 0  24 3.5 0  24.75 3.5 0  25.5 3.5 0  26.25 3.5 0  27 3.5 0  27.75 3.5 0  28.5 3.5 0  29.25 3.5 0  30 3.5 0  30.75 3.5 0  31.5 3.5 0  32.25 3.5 0  33 3.5 0  33.75 3.5 0  34.5 3.5 0  35.25 3.5 0  36 3.5 0  36.75 3.5 0  37.5 3.5 0  38.25 3.5 0  39 3.5 0  39.75 3.5 0  40.5 3.5 0  41.25 3.5 0  42 3.5 0  42.75 3.5 0  43.5 3.5 0  44.25 3.5 0  45 3.5 0  45.75 3.5 0  46.5 3.5 0  47.25 3.5 0  48 3.5 0  48.75 3.5 0  49.5 3.5 0  50.25 3.5 0  51 3.5 0  51.75 3.5 0  52.5 3.5 0  53.25 3.5 0  54 3.5 0  54.75 3.5 0  55.5 3.5 0  56.25 3.5 0  57 3.5 0  57.75 3.5 0  58.5 3.5 0  59.25 3.5 0  60 3.5 0  0 4 0  0.75 4 0  1.5 4 0  2.25 4 0  3 4 0  3.75 4 0  4.5 4 0  5.25 4 0  6 4 0  6.75 4 0  7.5 4 0  8.25 4 0  9 4 0  9.75 4 0  10.5 4 0  11.25 4 0  12 4 0  12.75 4 0  13.5 4 0  14.25 4 0  15 4 0  15.75 4 0  16.5 4 0  17.25 4 0  18 4 0  18.75 4 0  19.5 4 0  20.25 4 0  21 4 0  21.75 4 0  22.5 4 0  23.25 4 0  24 4 0  24.75 4 0  25.5 4 0  26.25 4 0  27 4 0  27.75 4 0  28.5 4 0  29.25 4 0  30 4 0  30.75 4 0  31.5 4 0  32.25 4 0  33 4 0  33.75 4 0  34.5 4 0  35.25 4 0  36 4 0  36.75 4 0  37.5 4 0  38.25 4 0  39 4 0  39.75 4 0  40.5 4 0  41.25 4 0  42 4 0  42.75 4 0  43.5 4 0  44.25 4 0  45 4 0  45.75 4 0  46.5 4 0  47.25 4 0  48 4 0  48.75 4 0  49.5 4 0  50.25 4 0  51 4 0  51.75 4 0  52.5 4 0  53.25 4 0  54 4 0  54.75 4 0  55.5 4 0  56.25 4 0  57 4 0  57.75 4 0  58.5 4 0  59.25 4 0  60 4 0  0.375 0.25 0  1.125 0.25 0  1.875 0.25 0  2.625 0.25 0  3.375 0.25 0  4.125 0.25 0  4.875 0.25 0  5.625 0.25 0  6.375 0.25 0  7.125 0.25 0  7.875 0.25 0  8.625 0.25 0  9.375 0.25 0  10.125 0.25 0  10.875 0.25 0  11.625 0.25 0  12.375 0.25 0  13.125 0.25 0  13.875 0.25 0  14.625 0.25 0  15.375 0.25 0  16.125 0.25 0  16.875 0.25 0  17.625 0.25 0  18.375 0.25 0  19.125 0.25 0  19.875 0.25 0  20.625 0.25 0  21.375 0.25 0  22.125 0.25 0  22.875 0.25 0  23.625 0.25 0  24.375 0.25 0  25.125 0.25 0  25.875 0.25 0  26.625 0.25 0  27.375 0.25 0  28.125 0.25 0  28.875 0.25 0  29.625 0.25 0  30.375 0.25 0  31.125 0.25 0  31.875 0.25 0  32.625 0.25 0  33.375 0.25 0  34.125 0.25 0  34.875 0.25 0  35.625 0.25 0  36.375 0.25 0  37.125 0.25 0  37.875 0.25 0  38.625 0.25 0  39.375 0.25 0  40.125 0.25 0  40.875 0.25 0  41.625 0.25 0  42.375 0.25 0  43.125 0.25 0  43.875 0.25 0  44.625 0.25 0  45.375 0.25 0  46.125 0.25 0  46.875 0.25 0  47.625 0.25 0  48.375 0.25 0  49.125 0.25 0  49.875 0.25 0  50.625 0.25 0  51.375 0.25 0  52.125 0.25 0  52.875 0.25 0  53.625 0.25 0  54.375 0.25 0  55.125 0.25 0  55.875 0.25 0  56.625 0.25 0  57.375 0.25 0  58.125 0.25 0  58.875 0.25 0  59.625 0.25 0  0.375 0.75 0  1.125 0.75 0  1.875 0.75 0  2.625 0.75 0  3.375 0.75 0  4.125 0.75 0  4.875 0.75 0  5.625 0.75 0  6.375 0.75 0  7.125 0.75 0  7.875 0.75 0  8.625 0.75 0  9.375 0.75 0  10.125 0.75 0  10.875 0.75 0  11.625 0.75 0  12.375 0.75 0  13.125 0.75 0  13.875 0.75 0  14.625 0.75 0  15.375 0.75 0  16.125 0.75 0  16.875 0.75 0  17.625 0.75 0  18.375 0.75 0  19.125 0.75 0  19.875 0.75 0  20.625 0.75 0  21.375 0.75 0  22.125 0.75 0  22.875 0.75 0  23.625 0.75 0  24.375 0.75 0  25.125 0.75 0  25.875 0.75 0  26.625 0.75 0  27.375 0.75 0  28.125 0.75 0  28.875 0.75 0  29.625 0.75 0  30.375 0.75 0  31.125 0.75 0  31.875 0.75 0  32.625 0.75 0  33.375 0.75 0  34.125 0.75 0  34.875 0.75 0  35.625 0.75 0  36.375 0.75 0  37.125 0.75 0  37.875 0.75 0  38.625 0.75 0  39.375 0.75 0  40.125 0.75 0  40
[...]
<PointData  Vectors="f_8-0"> 
<DataArray  type="Float64"  Name="f_8-0"  NumberOfComponents="3" format="ascii">0.0000000000000000e+00 0.0000000000000000e+00 0.0000000000000000e+00  0.0000000000000000e+00 0.0000000000000000e+00 0.0000000000000000e+00  0.0000000000000000e+00 0.0000000000000000e+00 0.0000000000000000e+00  0.0000000000000000e+00 0.0000000000000000e+00 0.0000000000000000e+00  0.0000000000000000e+00 0.0000000000000000e+00 0.0000000000000000e+00  0.0000000000000000e+00 0.0000000000000000e+00 0.0000000000000000e+00  0.0000000000000000e+00 0.0000000000000000e+00 0.0000000000000000e+00  0.0000000000000000e+00 0.0000000000000000e+00 0.0000000000000000e+00  0.0000000000000000e+00 0.0000000000000000e+00 0.0000000000000000e+00  0.0000000000000000e+00 0.0000000000000000e+00 0.0000000000000000e+00  0.0000000000000000e+00 0.0000000000000000e+00 0.0000000000000000e+00  0.0000000000000000e+00 0.0000000000000000e+00 0.0000000000000000e+00  0.0000000000000000e+00 0.0000000000000000e+00 0.0000000000000000e+00  0.0000000000000000e+00 0.0000000000000000e+00 0.0000000000000000e+00  0.0000000000000000e+00 0.0000000000000000e+00 0.0000000000000000e+00  0.0000000000000000e+00 0.0000000000000000e+00 0.0000000000000000e+00  0.0000000000000000e+00 0.0000000000000000e+00 0.0000000000000000e+00  0.0000000000000000e+00 0.0000000000000000e+00 0.0000000000000000e+00  0.0000000000000000e+00 0.0000000000000000e+00 0.0000000000000000e+00  0.0000000000000000e+00 0.0000000000000000e+00 0.0000000000000000e+00  0.0000000000000000e+00 0.0000000000000000e+00 0.0000000000000000e+00  0.0000000000000000e+00 0.0000000000000000e+00 0.0000000000000000e+00  0.0000000000000000e+00 0.0000000000000000e+00 0.0000000000000000e+00  0.0000000000000000e+00 0.0000000000000000e+00 0.0000000000000000e+00  0.0000000000000000e+00 0.0000000000000000e+00 0.0000000000000000e+00  0.0000000000000000e+00 0.0000000000000000e+00 0.0000000000000000e+00  0.0000000000000000e+00 0.0000000000000000e+00 0.0000000000000000e+00  0.0000000000000000e+00 0.0000000000000000e+00 0.0000000000000000e+00  0.0000000000000000e+00 0.0000000000000000e+00 0.0000000000000000e+00  0.0000000000000000e+00 0.0000000000000000e+00 0.0000000000000000e+00  0.0000000000000000e+00 0.0000000000000000e+00 0.0000000000000000e+00  0.0000000000000000e+00 0.0000000000000000e+00 0.0000000000000000e+00  0.0000000000000000e+00 0.0000000000000000e+00 0.0000000000000000e+00  0.0000000000000000e+00 0.0000000000000000e+00 0.0000000000000000e+00  0.0000000000000000e+00 0.0000000000000000e+00 0.0000000000000000e+00  0.0000000000000000e+00 0.0000000000000000e+00 0.0000000000000000e+00  0.0000000000000000e+00 0.0000000000000000e+00 0.0000000000000000e+00  0.0000000000000000e+00 0.0000000000000000e+00 0.0000000000000000e+00  0.0000000000000000e+00 0.0000000000000000e+00 0.0000000000000000e+00  0.0000000000000000e+00 0.0000000000000000e+00 0.0000000000000000e+00  0.0000000000000000e+00 0.0000000000000000e+00 0.0000000000000000e+00  0.0000000000000000e+00 0.0000000000000000e+00 0.0000000000000000e+00  0.0000000000000000e+00 0.0000000000000000e+00 0.0000000000000000e+00  0.0000000000000000e+00 0.0000000000000000e+00 0.0000000000000000e+00  0.0000000000000000e+00 0.0000000000000000e+00 0.0000000000000000e+00  0.0000000000000000e+00 0.0000000000000000e+00 0.0000000000000000e+00  0.0000000000000000e+00 0.0000000000000000e+00 0.0000000000000000e+00  0.0000000000000000e+00 0.0000000000000000e+00 0.0000000000000000e+00  0.0000000000000000e+00 0.0000000000000000e+00 0.0000000000000000e+00  0.0000000000000000e+00 0.0000000000000000e+00 0.0000000000000000e+00  0.0000000000000000e+00 0.0000000000000000e+00 0.0000000000000000e+00  0.0000000000000000e+00 0.0000000000000000e+00 0.0000000000000000e+00  0.0000000000000000e+00 0.0000000000000000e+00 0.0000000000000000e+00  0.0000000000000000e+00 0.0000000000000000e+00 0.0000000000000000e+00  0.0000000000000000e+00 0.0000000000000000e+00 0.0000000000000000e+00  0.0000000000000000e+00 0.0000000000000000e+00 0.0000000000000000e+00  0.0000000000000000e+00 0.0000000000000000e+00 0.0000000000000000e+00  0.0000000000000000e+00 0.0000000000000000e+00 0.0000000000000000e+00  0.0000000000000000e+00 0.0000000000000000e+00 0.0000000000000000e+00  0.0000000000000000e+00 0.0000000000000000e+00 0.0000000000000000e+00  0.0000000000000000e+00 0.0000000000000000e+00 0.0000000000000000e+00  0.0000000000000000e+00 0.0000000000000000e+00 0.0000000000000000e+00  0.0000000000000000e+00 0.0000000000000000e+00 0.0000000000000000e+00  0.0000000000000000e+00 0.0000000000000000e+00 0.0000000000000000e+00  0.0000000000000000e+00 0.0000000000000000e+00 0.0000000000000000e+00  0.0000000000000000e+00 0.0000000000000000e+00 0.0000000000000000e+00  0.0000000000000000e+00 0.0000000000000000e+00 0.0000000000000000e+00  0.0000000000000000e+00 0.0000000000000000e+00 0.0000000000000000e+00  0.0000000000000000e+00 0.0000000000000000e+00 0.0000000000000000e+00  0.0000000000000000e+00 0.0000000000000000e+00 0.0000000000000000e+00  0.0000000000000000e+00 0.0000000000000000e+00 0.0000000000000000e+00  0.0000000000000000e+00 0.0000000000000000e+00 0.0000000000000000e+00  0.0000000000000000e+00 0.0000000000000000e+00 0.0000000000000000e+00  0.0000000000000000e+00 0.0000000000000000e+00 0.0000000000000000e+00  0.0000000000000000e+00 0.0000000000000000e+00 0.0000000000000000e+00  0.0000000000000000e+00 0.0000000000000000e+00 0.0000000000000000e+00  0.0000000000000000e+00 0.0000000000000000e+00 0.0000000000000000e+00  0.0000000000000000e+00 0.0000000000000000e+00 0.0000000000000000e+00  0.0000000000000000e+00 0.0000000000000000e+00 0.0000000000000000e+00  0.0000000000000000e+00 0.0000000000000000e+00 0.0000000000000000e+00  0.0000000000000000e+00 0.0000000000000000e+00 0.0000000000000000e+00  -1.3568690823960035e+01 0.0000000000000000e+00 0.0000000000000000e+00  -1.3507173915178624e+01 1.5192950771995668e-03 0.0000000000000000e+00  -1.3491733194105455e+01 -6.5403205969064371e-03 0.0000000000000000e+00  -1.3488134355751333e+01 -6.4979541915762915e-03 0.0000000000000000e+00  -1.3486698501045844e+01 -6.2202600675167136e-03 0.0000000000000000e+00  -1.3485993284131382e+01 -6.0342855984803889e-03 0.0000000000000000e+00  -1.3485586510075295e+01 -5.9321906023991951e-03 0.0000000000000000e+00  -1.3485337660019747e+01 -5.8734424346293867e-03 0.0000000000000000e+00  -1.3485184312827718e+01 -5.8377526839561537e-03 0.0000000000000000e+00  -1.3485091560825305e+01 -5.8156203325352689e-03 0.0000000000000000e+00  -1.3485036906012716e+01 -5.8021475613018632e-03 0.0000000000000000e+00  -1.3485005490049833e+01 -5.7941371031924723e-03 0.0000000000000000e+00  -1.3484987795210118e+01 -5.7895031270928619e-03 0.0000000000000000e+00  -1.3484977985547809e+01 -5.7868701456308220e-03 0.0000000000000000e+00  -1.3484972603687684e+01 -5.7854074423239286e-03 0.0000000000000000e+00  -1.3484969667269448e+01 -5.7846025452604590e-03 0.0000000000000000e+00  -1.3484968066266433e+01 -5.7841650836243574e-03 0.0000000000000000e+00  -1.3484967191312750e+01 -5.7839264963642457e-03 0.0000000000000000e+00  -1.3484966710537899e+01 -5.7837969617181234e-03 0.0000000000000000e+00  -1.3484966444563449e+01 -5.7837258194246930e-03 0.0000000000000000e+00  -1.3484966296111562e+01 -5.7836868365120885e-03 0.0000000000000000e+00  -1.3484966212410697e+01 -5.7836651552026106e-03 0.0000000000000000e+00  -1.3484966164596685e+01 -5.7836531033297498e-03 0.0000000000000000e+00  -1.3484966136800310e+01 -5.7836463041238857e-03 0.0000000000000000e+00  -1.3484966120230801e+01 -5.7836424461885994e-03 0.0000000000000000e+00  -1.3484966109985645e+01 -5.7836402290405648e-03 0.0000000000000000e+00  -1.3484966103319284e+01 -5.7836389259020415e-03 0.0000000000000000e+00  -1.3484966098679521e+01 -5.7836381494930861e-03 0.0000000000000000e+00  -1.3484966095195412e+01 -5.7836376589459693e-03 0.0000000000000000e+00  -1.3484966092373282e+01 -5.7836373423230097e-03 0.0000000000000000e+00  -1.3484966089931390e+01 -5.7836371112668372e-03 0.0000000000000000e+00  -1.3484966087720073e+01 -5.7836369407706454e-03 0.0000000000000000e+00  -1.3484966085643633e+01 -5.7836367895030601e-03 0.0000000000000000e+00  -1.3484966083680291e+01 -5.7836366682544361e-03 0.0000000000000000e+00  -1.3484966081773134e+01 -5.7836365258855825e-03 0.0000000000000000e+00  -1.3484966079981520e+01 -5.7836364313586701e-03 0.0000000000000000e+00  -1.3484966078188235e+01 -5.7836362598347657e-03 0.0000000000000000e+00  -1.3484966076608558e+01 -5.7836362167626408e-03 0.0000000000000000e+00  -1.3484966074886795e+01 -5.7836359475554591e-03 0.0000000000000000e+00  -1.3484966073650261e+01 -5.7836360573084904e-03 0.0000000000000000e+00  -1.3484966071858029e+01 -5.7836355202081071e-03 0.0000000000000000e+00  -1.3484966071276414e+01 -5.7836360564038868e-03 0.0000000000000000e+00  -1.3484966068998414e+01 -5.7836348130412083e-03 0.0000000000000000e+00  -1.3484966069808351e+01 -5.7836364731057533e-03 0.0000000000000000e+00  -1.3484966065987404e+01 -5.7836334356968083e-03 0.0000000000000000e+00  -1.3484966069903853e+01 -5.7836378773574630e-03 0.0000000000000000e+00  -1.3484966062090043e+01 -5.7836305466277080e-03 0.0000000000000000e+00  -1.3484966072882234e+01 -5.7836414599758542e-03 0.0000000000000000e+00  -1.3484966055879724e+01 -5.7836244618687865e-03 0.0000000000000000e+00  -1.3484966081223313e+01 -5.7836494465276665e-03 0.0000000000000000e+00  -1.3484966044950598e+01 -5.7836122092078130e-03 0.0000000000000000e+00  -1.3484966099050455e+01 -5.7836654869753189e-03 0.0000000000000000e+00  -1.3484966025918034e+01 -5.7835893653088539e-03 0.0000000000000000e+00  -1.3484966131780736e+01 -5.7836943880498638e-03 0.0000000000000000e+00  -1.3484965995337824e+01 -5.7835515706033246e-03 0.0000000000000000e+00  -1.3484966181456551e+01 -5.7837394011198877e-03 0.0000000000000000e+00  -1.3484965952183110e+01 -5.7835020512402016e-03 0.0000000000000000e+00  -1.3484966223317166e+01 -5.7837932042126812e-03 0.0000000000000000e+00  -1.3484965895861233e+01 -5.7834783217268907e-03 0.0000000000000000e+00  -1.3484966113333648e+01 -5.7838149173905021e-03 0.0000000000000000e+00  -1.3484965785572941e+01 -5.7836203921352745e-03 0.0000000000000000e+00  -1.3484965339743630e+01 -5.7836380739362198e-03 0.0000000000000000e+00  -1.3484965469380786e+01 -5.7842045838036775e-03 0.0000000000000000e+00  -1.3484962512119802e+01 -5.7825328796425575e-03 0.0000000000000000e+00  -1.3484963132455068e+01 -5.7860290060028083e-03 0.0000000000000000e+00  -1.3484944221366934e+01 -5.7820205665272909e-03 0.0000000000000000e+00  -1.3484911058437921e+01 -5.8078967638764507e-03 0.0000000000000000e+00  -1.3484737075247113e+01 -5.8366480403084734e-03 0.0000000000000000e+00  -1.3484358611629791e+01 -6.0006359840525745e-03 0.0000000000000000e+00  -1.3483345078977420e+01 -6.1935349943340089e-03 0.0000000000000000e+00  -1.3481659646557457e+01 -6.6546385823161762e-03 0.0000000000000000e+00  -1.3478643809850910e+01 -6.8564444468462212e-03 0.0000000000000000e+00  -1.3475294006288717e+01 -7.2394623021338148e-03 0.0000000000000000e+00  -1.3471701112412434e+01 -6.3421179850271410e-03 0.0000000000000000e+00  -1.3471244233083471e+01 -5.9634304277753044e-03 0.0000000000000000e+00  -1.3471323685868681e+01 -3.7646874158962103e-03 0.0000000000000000e+00  -1.3477119681203593e+01 -4.7701079243177577e-03 0.0000000000000000e+00  -1.3480454324785207e+01 -5.8921894193786472e-03 0.0000000000000000e+00  -1.3481621177209755e+01 -2.1718330583034729e-02 0.0000000000000000e+00  -1.3493359175538854e+01 -6.7367001865024631e-02 0.0000000000000000e+00  -1.3450635415930860e+01 0.0000000000000000e+00 0.0000000000000000e+00  -2.2741206334209114e+01 0.0000000000000000e+00 0.0000000000000000e+00  -2.2747907489915722e+01 -5.7418453564576678e-03 0.0000000000000000e+00  -2.2747642221169802e+01 -1.0826262402192424e-03 0.0000000000000000e+00  -2.2746937020747851e+01 5.4523960041021513e-04 0.0000000000000000e+00  -2.2746677125766873e+01 1.3118270451694595e-03 0.0000000000000000e+00  -2.2746573489419035e+01 1.6815555470217083e-03 0.0000000000000000e+00  -2.2746537126052900e+01 1.8721234470387574e-03 0.0000000000000000e+00  -2.2746523944686484e+01 1.9797339091707110e-03 0.0000000000000000e+00  -2.2746518834724689e+01 2.0445797492785189e-03 0.0000000000000000e+00  -2.2746516582833049e+01 2.0846140044984722e-03 0.0000000000000000e+00  -2.2746515433706502e+01 2.1087371519518884e-03 0.0000000000000000e+00  -2.2746514767176720e+01 2.1229981987302650e-03 0.0000000000000000e+00  -2.2746514350460014e+01 2.1312203381882435e-03 0.0000000000000000e+00  -2.2746514080636761e+01 2.1359138520944437e-03 0.0000000000000000e+00  -2.2746513908484822e+01 2.1385153223136212e-03 0.0000000000000000e+00  -2.2746513795856576e+01 2.1399485960878813e-03 0.0000000000000000e+00  -2.2746513718642539e+01 2.1407212246120563e-03 0.0000000000000000e+00  -2.2746513660162101e+01 2.1411437823661591e-03 0.0000000000000000e+00  -2.2746513612170602e+01 2.1413711759197289e-03 0.0000000000000000e+00  -2.2746513569455821e+01 2.1414971913970206e-03 0.0000000000000000e+00  -2.2746513529769373e+01 2.1415654413217289e-03 0.0000000000000000e+00  -2.2746513491501364e+01 2.1416038878413666e-03 0.0000000000000000e+00  -2.2746513454029529e+01 2.1416248247805689e-03 0.0000000000000000e+00  -2.2746513416840159e+01 2.1416367832948857e-03 0.0000000000000000e+00  -2.2746513379785323e+01 2.1416433064764479e-03 0.0000000000000000e+00  -2.2746513342713708e+01 2.1416470704735341e-03 0.0000000000000000e+00  -2.2746513305612915e+01 2.1416491149661835e-03 0.0000000000000000e+00  -2.2746513268448279e+01 2.1416502984963259e-03 0.0000000000000000e+00  -2.2746513231244855e+01 2.1416509341104320e-03 0.0000000000000000e+00  -2.2746513194001331e+01 2.1416513028296572e-03 0.0000000000000000e+00  -2.2746513156751679e+01 2.1416515004490108e-03 0.0000000000000000e+00  -2.2746513119495553e+01 2.1416516243559997e-03 0.0000000000000000e+00  -2.2746513082286782e+01 2.1416516927947344e-03 0.0000000000000000e+00  -2.2746513045089891e+01 2.1416517634780213e-03 0.0000000000000000e+00  -2.2746513008028291e+01 2.1416517964488570e-03 0.0000000000000000e+00  -2.2746512970939591e+01 2.1416518937906050e-03 0.0000000000000000e+00  -2.2746512934156204e+01 2.1416518936639697e-03 0.0000000000000000e+00  -2.2746512897158901e+01 2.1416520863435356e-03 0.0000000000000000e+00  -2.2746512860871743e+01 2.1416519736433570e-03 0.0000000000000000e+00  -2.2746512823779952e+01 2.1416524070542254e-03 0.0000000000000000e+00  -2.2746512788434291e+01 2.1416519510935200e-03 0.0000000000000000e+00  -2.2746512750689906e+01 2.1416529986182154e-03 0.0000000000000000e+00  -2.2746512717297229e+01 2.1416516070424797e-03 0.0000000000000000e+00  -2.2746512677517657e+01 2.1416542034972397e-03 0.0000000000000000e+00  -2.2746512648330235e+01 2.1416504549173943e-03 0.0000000000000000e+00  -2.2746512603484302e+01 2.1416567893449380e-03 0.0000000000000000e+00  -2.2746512583190125e+01 2.1416474937292623e-03 0.0000000000000000e+00  -2.2746512527302848e+01 2.1416623196718904e-03 0.0000000000000000e+00  -2.2746512524733205e+01 2.1416408576446777e-03 0.0000000000000000e+00  -2.2746512447486374e+01 2.1416736003210539e-03 0.0000000000000000e+00  -2.2746512477055902e+01 2.1416275252504661e-03 0.0000000000000000e+00  -2.2746512363943189e+01 2.1416948078711979e-03 0.0000000000000000e+00  -2.2746512443750081e+01 2.1416036972462657e-03 0.0000000000000000e+00  -2.2746512282857697e+01 2.1417297248098291e-03 0.0000000000000000e+00  -2.2746512419596584e+01 2.1415672832515924e-03 0.0000000000000000e+00  -2.2746512228712326e+01 2.1417727668202849e-03 0.0000000000000000e+00  -2.2746512359149630e+01 2.1415245071771593e-03 0.0000000000000000e+00  -2.2746512265335937e+01 2.1417750728314720e-03 0.0000000000000000e+00  -2.2746512068948125e+01 2.1414966072695143e-03 0.0000000000000000e+00  -2.2746512485895522e+01 2.1415342811555503e-03 0.0000000000000000e+00  -2.2746510846541096e+01 2.1414985162144357e-03 0.0000000000000000e+00  -2.2746512610010086e+01 2.1403854344327743e-03 0.0000000000000000e+00  -2.2746505744193300e+01 2.1412387745028856e-03 0.0000000000000000e+00  -2.2746507648805235e+01 2.1352369466248237e-03 0.0000000000000000e+00  -2.2746477099397584e+01 2.1334237951733019e-03 0.0000000000000000e+00  -2.2746448615064168e+01 2.0948303887791632e-03 0.0000000000000000e+00  -2.2746285396182746e+01 2.0307855856133619e-03 0.0000000000000000e+00  -2.2746027889468795e+01 1.7881793855489810e-03 0.0000000000000000e+00  -2.2745284141040528e+01 1.3794890998613471e-03 0.0000000000000000e+00  -2.2744142539007360e+01 4.8798626133385791e-04 0.0000000000000000e+00  -2.2741757480478629e+01 -5.5102478647455465e-04 0.0000000000000000e+00  -2.2738907177283327e+01 -1.8684376944699736e-03 0.0000000000000000e+00  -2.2735382145843367e+01 -1.5914178918086065e-03 0.0000000000000000e+00  -2.2734619496674032e+01 -2.4616477669900415e-04 0.0000000000000000e+00  -2.2733211841735958e+01 2.5835404493338627e-03 0.0000000000000000e+00  -2.2734386313975449e+01 4.4121061894265559e-03 0.0000000000000000e+00  -2.2732549592282162e+01 8.3941505392177360e-03 0.0000000000000000e+00  -2.2739923774319443e+01 1.0611384265702482e-02 0.0000000000000000e+00  -2.2740613288858746e+01 3.0290387721532350e-03 0.0000000000000000e+00  -2.2778181371135684e+01 3.5692930842587546e-02 0.0000000000000000e+00  -2.2738028502723999e+01 0.0000000000000000e+00 0.0000000000000000e+00  -2.4117988290377710e+01 0.0000000000000000e+00 0.0000000000000000e+00  -2.4131714433734437e+01 -3.3095524601900309e-03 0.0000000000000000e+00  -2.4137873982217879e+01 -1.3536894895763490e-03 0.0000000000000000e+00  -2.4140210179397393e+01 -4.2191424642614769e-05 0.0000000000000000e+00  -2.4141241915457982e+01 5.7603490281144800e-04 0.0000000000000000e+00  -2.4141779879864231e+01 8.7521477392594723e-04 0.0000000000000000e+00  -2.4142087241721544e+01 1.0186633995318401e-03 0.0000000000000000e+00  -2.4142271147617336e+01 1.0951726063545743e-03 0.0000000000000000e+00  -2.4142382328388251e+01 1.1398505089081749e-03 0.0000000000000000e+00  -2.4142448792062446e+01 1.1669486642769257e-03 0.0000000000000000e+00  -2.4142487718455513e+01 1.1830737565411275e-03 0.0000000000000000e+00  -2.4142510019386947e+01 1.1926531766233721e-03 0.0000000000000000e+00  -2.4142522537946096e+01 1.1982104926822940e-03 0.0000000000000000e+00  -2.4142529475629381e+01 1.2014061526098281e-03 0.0000000000000000e+00  -2.4142533280181272e+01 1.2031705980593325e-03 0.0000000000000000e+00  -2.4142535354269821e+01 1.2041444788026480e-03 0.0000000000000000e+00  -2.4142536473925535e+01 1.2046663149393936e-03 0.0000000000000000e+00  -2.4142537073456396e+01 1.2049531500188859e-03 0.0000000000000000e+00  -2.4142537386882786e+01 1.2051062403353719e-03 0.0000000000000000e+00  -2.4142537544607340e+01 1.2051916355348784e-03 0.0000000000000000e+00  -2.4142537615660842e+01 1.2052371747508521e-03 0.0000000000000000e+00  -2.4142537639102336e+01 1.2052629887025358e-03 0.0000000000000000e+00  -2.4142537635427590e+01 1.2052766843365793e-03 0.0000000000000000e+00  -2.4142537616672115e+01 1.2052845450583869e-03 0.0000000000000000e+00  -2.4142537589085102e+01 1.2052886616494239e-03 0.0000000000000000e+00  -2.4142537556543186e+01 1.2052910417143026e-03 0.0000000000000000e+00  -2.4142537521011157e+01 1.2052922526721809e-03 0.0000000000000000e+00  -2.4142537483793316e+01 1.2052929561104423e-03 0.0000000000000000e+00  -2.4142537445530049e+01 1.2052933038404971e-03 0.0000000000000000e+00  -2.4142537406685395e+01 1.2052935121431238e-03 0.0000000000000000e+00  -2.4142537367472038e+01 1.2052936272475309e-03 0.0000000000000000e+00  -2.4142537328089016e+01 1.2052937152882974e-03 0.0000000000000000e+00  -2.4142537288570541e+01 1.2052938000381918e-03 0.0000000000000000e+00  -2.4142537249081219e+01 1.2052938844051833e-03 0.0000000000000000e+00  -2.4142537209503484e+01 1.2052940047825441e-03 0.0000000000000000e+00  -2.4142537170140148e+01 1.2052941100642001e-03 0.0000000000000000e+00  -2.4142537130554100e+01 1.2052942985229717e-03 0.0000000000000000e+00  -2.4