<?xml version="1.0"?>
<VTKFile type="UnstructuredGrid"  version="0.1"  >
<UnstructuredGrid>
<Piece  NumberOfPoints="1369" NumberOfCells="2560">
<Points>
<DataArray  type="Float64"  NumberOfComponents="3"  format="ascii">0 0 0  0.75 0 0  1.5 0 0  2.25 0 0  3 0 0  3.75 0 0  4.5 0 0  5.25 0 0  6 0 0  6.75 0 0  7.5 0 0  8.25 0 0  9 0 0  9.75 0 0  10.5 0 0  11.25 0 0  12 0 0  12.75 0 0  13.5 0 0  14.25 0 0  15 0 0  15.75 0 0  16.5 0 0  17.25 0 0  18 0 0  18.75 0 0  19.5 0 0  20.25 0 0  21 0 0  21.75 0 0  22.5 0 0  23.25 0 0  24 0 0  24.75 0 0  25.5 0 0  26.25 0 0  27 0 0  27.75 0 0  28.5 0 0  29.25 0 0  30 0 0  30.75 0 0  31.5 0 0  32.25 0 0  33 0 0  33.75 0 0  34.5 0 0  35.25 0 0  36 0 0  36.75 0 0  37.5 0 0  38.25 0 0  39 0 0  39.75 0 0  40.5 0 0  41.25 0 0  42 0 0  42.75 0 0  43.5 0 0  44.25 0 0  45 0 0  45.75 0 0  46.5 0 0  47.25 0 0  48 0 0  48.75 0 0  49.5 0 0  50.25 0 0  51 0 0  51.75 0 0  52.5 0 0  53.25 0 0  54 0 0  54.75 0 0  55.5 0 0  56.25 0 0  57 0 0  57.75 0 0  58.5 0 0  59.25 0 0  60 0 0  0 0.5 0  0.75 0.5 0  1.5 0.5 0  2.25 0.5 0  3 0.5 0  3.75 0.5 0  4.5 0.5 0  5.25 0.5 0  6 0.5 0  6.75 0.5 0  7.5 0.5 0  8.25 0.5 0  9 0.5 0  9.75 0.5 0  10.5 0.5 0  11.25 0.5 0  12 0.5 0  12.75 0.5 0  13.5 0.5 0  14.25 0.5 0  15 0.5 0  15.75 0.5 0  16.5 0.5 0  17.25 0.5 0  18 0.5 0  18.75 0.5 0  19.5 0.5 0  20.25 0.5 0  21 0.5 0  21.75 0.5 0  22.5 0.5 0  23.25 0.5 0  24 0.5 0  24.75 0.5 0  25.5 0.5 0  26.25 0.5 0  27 0.5 0  27.75 0.5 0  28.5 0.5 0  29.25 0.5 0  30 0.5 0  30.75 0.5 0  31.5 0.5 0  32.25 0.5 0  33 0.5 0  33.75 0.5 0  34.5 0.5 0  35.25 0.5 0  36 0.5 0  36.75 0.5 0  37.5 0.5 0  38.25 0.5 0  39 0.5 0  39.75 0.5 0  40.5 0.5 0  41.25 0.5 0  42 0.5 0  42.75 0.5 0  43.5 0.5 0  44.25 0.5 0  45 0.5 0  45.75 0.5 0  46.5 0.5 0  47.25 0.5 0  48 0.5 0  48.75 0.5 0  49.5 0.5 0  50.25 0.5 0  51 0.5 0  51.75 0.5 0  52.5 0.5 0  53.25 0.5 0  54 0.5 0  54.75 0.5 0  55.5 0.5 0  56.25 0.5 0  57 0.5 0  57.75 0.5 0  58.5 0.5 0  59.25 0.5 0  60 0.5 0  0 1 0  0.75 1 0  1.5 1 0  2.25 1 0  3 1 0  3.75 1 0  4.5 1 0  5.25 1 0  6 1 0  6.75 1 0  7.5 1 0  8.25 1 0  9 1 0  9.75 1 0  10.5 1 0  11.25 1 0  12 1 0  12.75 1 0  13.5 1 0  14.25 1 0  15 1 0  15.75 1 0  16.5 1 0  17.25 1 0  18 1 0  18.75 1 0  19.5 1 0  20.25 1 0  21 1 0  21.75 1 0  22.5 1 0  23.25 1 0  24 1 0  24.75 1 0  25.5 1 0  26.25 1 0  27 1 0  27.75 1 0  28.5 1 0  29.25 1 0  30 1 0  30.75 1 0  31.5 1 0  32.25 1 0  33 1 0  33.75 1 0  34.5 1 0  35.25 1 0  36 1 0  36.75 1 0  37.5 1 0  38.25 1 0  39 1 0  39.75 1 0  40.5 1 0  41.25 1 0  42 1 0  42.75 1 0  43.5 1 0  44.25 1 0  45 1 0  45.75 1 0  46.5 1 0  47.25 1 0  48 1 0  48.75 1 0  49.5 1 0  50.25 1 0  51 1 0  51.75 1 0  52.5 1 0  53.25 1 0  54 1 0  54.75 1 0  55.5 1 0  56.25 1 0  57 1 0  57.75 1 0  58.5 1 0  59.25 1 0  60 1 0  0 1.5 0  0.75 1.5 0  1.5 1.5 0  2.25 1.5 0  3 1.5 0  3.75 1.5 0  4.5 1.5 0  5.25 1.5 0  6 1.5 0  6.75 1.5 0  7.5 1.5 0  8.25 1.5 0  9 1.5 0  9.75 1.5 0  10.5 1.5 0  11.25 1.5 0  12 1.5 0  12.75 1.5 0  13.5 1.5 0  14.25 1.5 0  15 1.5 0  15.75 1.5 0  16.5 1.5 0  17.25 1.5 0  18 1.5 0  18.75 1.5 0  19.5 1.5 0  20.25 1.5 0  21 1.5 0  21.75 1.5 0  22.5 1.5 0  23.25 1.5 0  24 1.5 0  24.75 1.5 0  25.5 1.5 0  26.25 1.5 0  27 1.5 0  27.75 1.5 0  28.5 1.5 0  29.25 1.5 0  30 1.5 0  30.75 1.5 0  31.5 1.5 0  32.25 1.5 0  33 1.5 0  33.75 1.5 0  34.5 1.5 0  35.25 1.5 0  36 1.5 0  36.75 1.5 0  37.5 1.5 0  38.25 1.5 0  39 1.5 0  39.75 1.5 0  40.5 1.5 0  41.25 1.5 0  42 1.5 0  42.75 1.5 0  43.5 1.5 0  44.25 1.5 0  45 1.5 0  45.75 1.5 0  46.5 1.5 0  47.25 1.5 0  48 1.5 0  48.75 1.5 0  49.5 1.5 0  50.25 1.5 0  51 1.5 0  51.75 1.5 0  52.5 1.5 0  53.25 1.5 0  54 1.5 0  54.75 1.5 0  55.5 1.5 0  56.25 1.5 0  57 1.5 0  57.75 1.5 0  58.5 1.5 0  59.25 1.5 0  60 1.5 0  0 2 0  0.75 2 0  1.5 2 0  2.25 2 0  3 2 0  3.75 2 0  4.5 2 0  5.25 2 0  6 2 0  6.75 2 0  7.5 2 0  8.25 2 0  9 2 0  9.75 2 0  10.5 2 0  11.25 2 0  12 2 0  12.75 2 0  13.5 2 0  14.25 2 0  15 2 0  15.75 2 0  16.5 2 0  17.25 2 0  18 2 0  18.75 2 0  19.5 2 0  20.25 2 0  21 2 0  21.75 2 0  22.5 2 0  23.25 2 0  24 2 0  24.75 2 0  25.5 2 0  26.25 2 0  27 2 0  27.75 2 0  28.5 2 0  29.25 2 0  30 2 0  30.75 2 0  31.5 2 0  32.25 2 0  33 2 0  33.75 2 0  34.5 2 0  35.25 2 0  36 2 0  36.75 2 0  37.5 2 0  38.25 2 0  39 2 0  39.75 2 0  40.5 2 0  41.25 2 0  42 2 0  42.75 2 0  43.5 2 0  44.25 2 0  45 2 0  45.75 2 0  46.5 2 0  47.25 2 0  48 2 0  48.75 2 0  49.5 2 0  50.25 2 0  51 2 0  51.75 2 0  52.5 2 0  53.25 2 0  54 2 0  54.75 2 0  55.5 2 0  56.25 2 0  57 2 0  57.75 2 0  58.5 2 0  59.25 2 0  60 2 0  0 2.5 0  0.75 2.5 0  1.5 2.5 0  2.25 2.5 0  3 2.5 0  3.75 2.5 0  4.5 2.5 0  5.25 2.5 0  6 2.5 0  6.75 2.5 0  7.5 2.5 0  8.25 2.5 0  9 2.5 0  9.75 2.5 0  10.5 2.5 0  11.25 2.5 0  12 2.5 0  12.75 2.5 0  13.5 2.5 0  14.25 2.5 0  15 2.5 0  15.75 2.5 0  16.5 2.5 0  17.25 2.5 0  18 2.5 0  18.75 2.5 0  19.5 2.5 0  20.25 2.5 0  21 2.5 0  21.75 2.5 0  22.5 2.5 0  23.25 2.5 0  24 2.5 0  24.75 2.5 0  25.5 2.5 0  26.25 2.5 0  27 2.5 0  27.75 2.5 0  28.5 2.5 0  29.25 2.5 0  30 2.5 0  30.75 2.5 0  31.5 2.5 0  32.25 2.5 0  33 2.5 0  33.75 2.5 0  34.5 2.5 0  35.25 2.5 0  36 2.5 0  36.75 2.5 0  37.5 2.5 0  38.25 2.5 0  39 2.5 0  39.75 2.5 0  40.5 2.5 0  41.25 2.5 0  42 2.5 0  42.75 2.5 0  43.5 2.5 0  44.25 2.5 0  45 2.5 0  45.75 2.5 0  46.5 2.5 0  47.25 2.5 0  48 2.5 0  48.75 2.5 0  49.5 2.5 0  50.25 2.5 0  51 2.5 0  51.75 2.5 0  52.5 2.5 0  53.25 2.5 0  54 2.5 0  54.75 2.5 0  55.5 2.5 0  56.25 2.5 0  57 2.5 0  57.75 2.5 0  58.5 2.5 0  59.25 2.5 0  60 2.5 0  0 3 0  0.75 3 0  1.5 3 0  2.25 3 0  3 3 0  3.75 3 0  4.5 3 0  5.25 3 0  6 3 0  6.75 3 0  7.5 3 0  8.25 3 0  9 3 0  9.75 3 0  10.5 3 0  11.25 3 0  12 3 0  12.75 3 0  13.5 3 0  14.25 3 0  15 3 0  15.75 3 0  16.5 3 0  17.25 3 0  18 3 0  18.75 3 0  19.5 3 0  20.25 3 0  21 3 0  21.75 3 0  22.5 3 0  23.25 3 0  24 3 0  24.75 3 0  25.5 3 0  26.25 3 0  27 3 0  27.75 3 0  28.5 3 0  29.25 3 0  30 3 0  30.75 3 0  31.5 3 0  32.25 3 0  33 3 0  33.75 3 0  34.5 3 0  35.25 3 0  36 3 0  36.75 3 0  37.5 3 0  38.25 3 0  39 3 0  39.75 3 0  40.5 3 0  41.25 3 0  42 3 0  42.75 3 0  43.5 3 0  44.25 3 0  45 3 0  45.75 3 0  46.5 3 0  47.25 3 0  48 3 0  48.75 3 0  49.5 3 0  50.25 3 0  51 3 0  51.75 3 0  52.5 3 0  53.25 3 0  54 3 0  54.75 3 0  55.5 3 0  56.25 3 0  57 3 0  57.75 3 0  58.5 3 0  59.25 3 0  60 3 0  0 3.5 0  0.75 3.5 0  1.5 3.5 0  2.25 3.5 0  3 3.5 0  3.75 3.5 0  4.5 3.5 0  5.25 3.5 0  6 3.5 0  6.75 3.5 0  7.5 3.5 0  8.25 3.5 0  9 3.5 0  9.75 3.5 0  10.5 3.5 0  11.25 3.5 0  12 3.5 0  12.75 3.5 0  13.5 3.5 0  14.25 3.5 0  15 3.5 0  15.75 3.5 0  16.5 3.5 0  17.25 3.5 0  18 3.5 0  18.75 3.5 0  19.5 3.5 0  20.25 3.5 0  21 3.5 0  21.75 3.5 0  22.5 3.5 0  23.25 3.5 0  24 3.5 0  24.75 3.5 0  25.5 3.5 0  26.25 3.5 0  27 3.5 0  27.75 3.5 0  28.5 3.5 0  29.25 3.5 0  30 3.5 0  30.75 3.5 0  31.5 3.5 0  32.25 3.5 0  33 3.5 0  33.75 3.5 0  34.5 3.5 0  35.25 3.5 0  36 3.5 0  36.75 3.5 0  37.5 3.5 0  38.25 3.5 0  39 3.5 0  39.75 3.5 0  40.5 3.5 0  41.25 3.5 0  42 3.5 0  42.75 3.5 0  43.5 3.5 0  44.25 3.5 0  45 3.5 0  45.75 3.5 0  46.5 3.5 0  47.25 3.5 0  48 3.5 0  48.75 3.5 0  49.5 3.5 0  50.25 3.5 0  51 3.5 0  51.75 3.5 0  52.5 3.5 0  53.25 3.5 0  54 3.5 0  54.75 3.5 0  55.5 3.5 0  56.25 3.5 0  57 3.5 0  57.75 3.5 0  58.5 3.5 0  59.25 3.5 0  60 3.5 0  0 4 0  0.75 4 0  1.5 4 0  2.25 4 0  3 4 0  3.75 4 0  4.5 4 0  5.25 4 0  6 4 0  6.75 4 0  7.5 4 0  8.25 4 0  9 4 0  9.75 4 0  10.5 4 0  11.25 4 0  12 4 0  12.75 4 0  13.5 4 0  14.25 4 0  15 4 0  15.75 4 0  16.5 4 0  17.25 4 0  18 4 0  18.75 4 0  19.5 4 0  20.25 4 0  21 4 0  21.75 4 0  22.5 4 0  23.25 4 0  24 4 0  24.75 4 0  25.5 4 0  26.25 4 0  27 4 0  27.75 4 0  28.5 4 0  29.25 4 0  30 4 0  30.75 4 0  31.5 4 0  32.25 4 0  33 4 0  33.75 4 0  34.5 4 0  35.25 4 0  36 4 0  36.75 4 0  37.5 4 0  38.25 4 0  39 4 0  39.75 4 0  40.5 4 0  41.25 4 0  42 4 0  42.75 4 0  43.5 4 0  44.25 4 0  45 4 0  45.75 4 0  46.5 4 0  47.25 4 0  48 4 0  48.75 4 0  49.5 4 0  50.25 4 0  51 4 0  51.75 4 0  52.5 4 0  53.25 4 0  54 4 0  54.75 4 0  55.5 4 0  56.25 4 0  57 4 0  57.75 4 0  58.5 4 0  59.25 4 0  60 4 0  0.375 0.25 0  1.125 0.25 0  1.875 0.25 0  2.625 0.25 0  3.375 0.25 0  4.125 0.25 0  4.875 0.25 0  5.625 0.25 0  6.375 0.25 0  7.125 0.25 0  7.875 0.25 0  8.625 0.25 0  9.375 0.25 0  10.125 0.25 0  10.875 0.25 0  11.625 0.25 0  12.375 0.25 0  13.125 0.25 0  13.875 0.25 0  14.625 0.25 0  15.375 0.25 0  16.125 0.25 0  16.875 0.25 0  17.625 0.25 0  18.375 0.25 0  19.125 0.25 0  19.875 0.25 0  20.625 0.25 0  21.375 0.25 0  22.125 0.25 0  22.875 0.25 0  23.625 0.25 0  24.375 0.25 0  25.125 0.25 0  25.875 0.25 0  26.625 0.25 0  27.375 0.25 0  28.125 0.25 0  28.875 0.25 0  29.625 0.25 0  30.375 0.25 0  31.125 0.25 0  31.875 0.25 0  32.625 0.25 0  33.375 0.25 0  34.125 0.25 0  34.875 0.25 0  35.625 0.25 0  36.375 0.25 0  37.125 0.25 0  37.875 0.25 0  38.625 0.25 0  39.375 0.25 0  40.125 0.25 0  40.875 0.25 0  41.625 0.25 0  42.375 0.25 0  43.125 0.25 0  43.875 0.25 0  44.625 0.25 0  45.375 0.25 0  46.125 0.25 0  46.875 0.25 0  47.625 0.25 0  48.375 0.25 0  49.125 0.25 0  49.875 0.25 0  50.625 0.25 0  51.375 0.25 0  52.125 0.25 0  52.875 0.25 0  53.625 0.25 0  54.375 0.25 0  55.125 0.25 0  55.875 0.25 0  56.625 0.25 0  57.375 0.25 0  58.125 0.25 0  58.875 0.25 0  59.625 0.25 0  0.375 0.75 0  1.125 0.75 0  1.875 0.75 0  2.625 0.75 0  3.375 0.75 0  4.125 0.75 0  4.875 0.75 0  5.625 0.75 0  6.375 0.75 0  7.125 0.75 0  7.875 0.75 0  8.625 0.75 0  9.375 0.75 0  10.125 0.75 0  10.875 0.75 0  11.625 0.75 0  12.375 0.75 0  13.125 0.75 0  13.875 0.75 0  14.625 0.75 0  15.375 0.75 0  16.125 0.75 0  16.875 0.75 0  17.625 0.75 0  18.375 0.75 0  19.125 0.75 0  19.875 0.75 0  20.625 0.75 0  21.375 0.75 0  22.125 0.75 0  22.875 0.75 0  23.625 0.75 0  24.375 0.75 0  25.125 0.75 0  25.875 0.75 0  26.625 0.75 0  27.375 0.75 0  28.125 0.75 0  28.875 0.75 0  29.625 0.75 0  30.375 0.75 0  31.125 0.75 0  31.875 0.75 0  32.625 0.75 0  33.375 0.75 0  34.125 0.75 0  34.875 0.75 0  35.625 0.75 0  36.375 0.75 0  37.125 0.75 0  37.875 0.75 0  38.625 0.75 0  39.375 0.75 0  40.125 0.75 0  40
[...]
<PointData  Vectors="f_8-0"> 
<DataArray  type="Float64"  Name="f_8-0"  NumberOfComponents="3" format="ascii">0.0000000000000000e+00 0.0000000000000000e+00 0.0000000000000000e+00  0.0000000000000000e+00 0.0000000000000000e+00 0.0000000000000000e+00  0.0000000000000000e+00 0.0000000000000000e+00 0.0000000000000000e+00  0.0000000000000000e+00 0.0000000000000000e+00 0.0000000000000000e+00  0.0000000000000000e+00 0.0000000000000000e+00 0.0000000000000000e+00  0.0000000000000000e+00 0.0000000000000000e+00 0.0000000000000000e+00  0.0000000000000000e+00 0.0000000000000000e+00 0.0000000000000000e+00  0.0000000000000000e+00 0.0000000000000000e+00 0.0000000000000000e+00  0.0000000000000000e+00 0.0000000000000000e+00 0.0000000000000000e+00  0.0000000000000000e+00 0.0000000000000000e+00 0.0000000000000000e+00  0.0000000000000000e+00 0.0000000000000000e+00 0.0000000000000000e+00  0.0000000000000000e+00 0.0000000000000000e+00 0.0000000000000000e+00  0.0000000000000000e+00 0.0000000000000000e+00 0.0000000000000000e+00  0.0000000000000000e+00 0.0000000000000000e+00 0.0000000000000000e+00  0.0000000000000000e+00 0.0000000000000000e+00 0.0000000000000000e+00  0.0000000000000000e+00 0.0000000000000000e+00 0.0000000000000000e+00  0.0000000000000000e+00 0.0000000000000000e+00 0.0000000000000000e+00  0.0000000000000000e+00 0.0000000000000000e+00 0.0000000000000000e+00  0.0000000000000000e+00 0.0000000000000000e+00 0.0000000000000000e+00  0.0000000000000000e+00 0.0000000000000000e+00 0.0000000000000000e+00  0.0000000000000000e+00 0.0000000000000000e+00 0.0000000000000000e+00  0.0000000000000000e+00 0.0000000000000000e+00 0.0000000000000000e+00  0.0000000000000000e+00 0.0000000000000000e+00 0.0000000000000000e+00  0.0000000000000000e+00 0.0000000000000000e+00 0.0000000000000000e+00  0.0000000000000000e+00 0.0000000000000000e+00 0.0000000000000000e+00  0.0000000000000000e+00 0.0000000000000000e+00 0.0000000000000000e+00  0.0000000000000000e+00 0.0000000000000000e+00 0.0000000000000000e+00  0.0000000000000000e+00 0.0000000000000000e+00 0.0000000000000000e+00  0.0000000000000000e+00 0.0000000000000000e+00 0.0000000000000000e+00  0.0000000000000000e+00 0.0000000000000000e+00 0.0000000000000000e+00  0.0000000000000000e+00 0.0000000000000000e+00 0.0000000000000000e+00  0.0000000000000000e+00 0.0000000000000000e+00 0.0000000000000000e+00  0.0000000000000000e+00 0.0000000000000000e+00 0.0000000000000000e+00  0.0000000000000000e+00 0.0000000000000000e+00 0.0000000000000000e+00  0.0000000000000000e+00 0.0000000000000000e+00 0.0000000000000000e+00  0.0000000000000000e+00 0.0000000000000000e+00 0.0000000000000000e+00  0.0000000000000000e+00 0.0000000000000000e+00 0.0000000000000000e+00  0.0000000000000000e+00 0.0000000000000000e+00 0.0000000000000000e+00  0.0000000000000000e+00 0.0000000000000000e+00 0.0000000000000000e+00  0.0000000000000000e+00 0.0000000000000000e+00 0.0000000000000000e+00  0.0000000000000000e+00 0.0000000000000000e+00 0.0000000000000000e+00  0.0000000000000000e+00 0.0000000000000000e+00 0.0000000000000000e+00  0.0000000000000000e+00 0.0000000000000000e+00 0.0000000000000000e+00  0.0000000000000000e+00 0.0000000000000000e+00 0.0000000000000000e+00  0.0000000000000000e+00 0.0000000000000000e+00 0.0000000000000000e+00  0.0000000000000000e+00 0.0000000000000000e+00 0.0000000000000000e+00  0.0000000000000000e+00 0.0000000000000000e+00 0.0000000000000000e+00  0.0000000000000000e+00 0.0000000000000000e+00 0.0000000000000000e+00  0.0000000000000000e+00 0.0000000000000000e+00 0.0000000000000000e+00  0.0000000000000000e+00 0.0000000000000000e+00 0.0000000000000000e+00  0.0000000000000000e+00 0.0000000000000000e+00 0.0000000000000000e+00  0.0000000000000000e+00 0.0000000000000000e+00 0.0000000000000000e+00  0.0000000000000000e+00 0.0000000000000000e+00 0.0000000000000000e+00  0.0000000000000000e+00 0.0000000000000000e+00 0.0000000000000000e+00  0.0000000000000000e+00 0.0000000000000000e+00 0.0000000000000000e+00  0.0000000000000000e+00 0.0000000000000000e+00 0.0000000000000000e+00  0.0000000000000000e+00 0.0000000000000000e+00 0.0000000000000000e+00  0.0000000000000000e+00 0.0000000000000000e+00 0.0000000000000000e+00  0.0000000000000000e+00 0.0000000000000000e+00 0.0000000000000000e+00  0.0000000000000000e+00 0.0000000000000000e+00 0.0000000000000000e+00  0.0000000000000000e+00 0.0000000000000000e+00 0.0000000000000000e+00  0.0000000000000000e+00 0.0000000000000000e+00 0.0000000000000000e+00  0.0000000000000000e+00 0.0000000000000000e+00 0.0000000000000000e+00  0.0000000000000000e+00 0.0000000000000000e+00 0.0000000000000000e+00  0.0000000000000000e+00 0.0000000000000000e+00 0.0000000000000000e+00  0.0000000000000000e+00 0.0000000000000000e+00 0.0000000000000000e+00  0.0000000000000000e+00 0.0000000000000000e+00 0.0000000000000000e+00  0.0000000000000000e+00 0.0000000000000000e+00 0.0000000000000000e+00  0.0000000000000000e+00 0.0000000000000000e+00 0.0000000000000000e+00  0.0000000000000000e+00 0.0000000000000000e+00 0.0000000000000000e+00  0.0000000000000000e+00 0.0000000000000000e+00 0.0000000000000000e+00  0.0000000000000000e+00 0.0000000000000000e+00 0.0000000000000000e+00  0.0000000000000000e+00 0.0000000000000000e+00 0.0000000000000000e+00  0.0000000000000000e+00 0.0000000000000000e+00 0.0000000000000000e+00  0.0000000000000000e+00 0.0000000000000000e+00 0.0000000000000000e+00  0.0000000000000000e+00 0.0000000000000000e+00 0.0000000000000000e+00  0.0000000000000000e+00 0.0000000000000000e+00 0.0000000000000000e+00  0.0000000000000000e+00 0.0000000000000000e+00 0.0000000000000000e+00  0.0000000000000000e+00 0.0000000000000000e+00 0.0000000000000000e+00  0.0000000000000000e+00 0.0000000000000000e+00 0.0000000000000000e+00  0.0000000000000000e+00 0.0000000000000000e+00 0.0000000000000000e+00  -1.0229446152332125e+01 0.0000000000000000e+00 0.0000000000000000e+00  -1.0280630485938843e+01 -7.7656664220857310e-03 0.0000000000000000e+00  -1.0303216850595613e+01 5.9523350894443777e-03 0.0000000000000000e+00  -1.0317242815025947e+01 7.4079742924578482e-03 0.0000000000000000e+00  -1.0330095696980385e+01 7.0216406217794109e-03 0.0000000000000000e+00  -1.0339651576918053e+01 5.5095170183332978e-03 0.0000000000000000e+00  -1.0345326174709756e+01 3.9223012870820209e-03 0.0000000000000000e+00  -1.0347961023523109e+01 2.7168981280527946e-03 0.0000000000000000e+00  -1.0348305462863348e+01 1.8885366717451325e-03 0.0000000000000000e+00  -1.0347307179034836e+01 1.4303625026353317e-03 0.0000000000000000e+00  -1.0345525225237084e+01 1.1805095133277026e-03 0.0000000000000000e+00  -1.0343344418373999e+01 1.0478677031774738e-03 0.0000000000000000e+00  -1.0340929772341442e+01 1.0175918175670353e-03 0.0000000000000000e+00  -1.0338646182434156e+01 1.1376180724028170e-03 0.0000000000000000e+00  -1.0336798603330212e+01 1.3517736523721683e-03 0.0000000000000000e+00  -1.0335526763065827e+01 1.5776564302500435e-03 0.0000000000000000e+00  -1.0334750429551407e+01 1.7504431422834714e-03 0.0000000000000000e+00  -1.0334322626680029e+01 1.8607678107151631e-03 0.0000000000000000e+00  -1.0334096342446134e+01 1.9206573692028854e-03 0.0000000000000000e+00  -1.0333978136207945e+01 1.9512371387804170e-03 0.0000000000000000e+00  -1.0333912059737978e+01 1.9658755295952940e-03 0.0000000000000000e+00  -1.0333872974417792e+01 1.9736057174529528e-03 0.0000000000000000e+00  -1.0333847696061015e+01 1.9778062185066263e-03 0.0000000000000000e+00  -1.0333831126238241e+01 1.9805665305584119e-03 0.0000000000000000e+00  -1.0333819863503861e+01 1.9823148651110989e-03 0.0000000000000000e+00  -1.0333812403549809e+01 1.9835669426833710e-03 0.0000000000000000e+00  -1.0333807373660056e+01 1.9843697249850643e-03 0.0000000000000000e+00  -1.0333804072902902e+01 1.9849362432744545e-03 0.0000000000000000e+00  -1.0333801858680488e+01 1.9852900296528858e-03 0.0000000000000000e+00  -1.0333800399726282e+01 1.9855373882723907e-03 0.0000000000000000e+00  -1.0333799414060266e+01 1.9856909823924357e-03 0.0000000000000000e+00  -1.0333798757585519e+01 1.9858005255512590e-03 0.0000000000000000e+00  -1.0333798313106897e+01 1.9858698629074373e-03 0.0000000000000000e+00  -1.0333798017980007e+01 1.9859207488020650e-03 0.0000000000000000e+00  -1.0333797822888393e+01 1.9859537587188156e-03 0.0000000000000000e+00  -1.0333797698470956e+01 1.9859783973351455e-03 0.0000000000000000e+00  -1.0333797623191463e+01 1.9859947926305424e-03 0.0000000000000000e+00  -1.0333797582592778e+01 1.9860072200529166e-03 0.0000000000000000e+00  -1.0333797567454955e+01 1.9860159833828507e-03 0.0000000000000000e+00  -1.0333797571023300e+01 1.9860230095056384e-03 0.0000000000000000e+00  -1.0333797589966460e+01 1.9860286153941188e-03 0.0000000000000000e+00  -1.0333797621513206e+01 1.9860335626877786e-03 0.0000000000000000e+00  -1.0333797664823202e+01 1.9860380507861980e-03 0.0000000000000000e+00  -1.0333797718883099e+01 1.9860423033076359e-03 0.0000000000000000e+00  -1.0333797783640595e+01 1.9860464282835670e-03 0.0000000000000000e+00  -1.0333797858733007e+01 1.9860504473691348e-03 0.0000000000000000e+00  -1.0333797944258039e+01 1.9860544203778520e-03 0.0000000000000000e+00  -1.0333798040017628e+01 1.9860583008820187e-03 0.0000000000000000e+00  -1.0333798145943611e+01 1.9860620694429538e-03 0.0000000000000000e+00  -1.0333798261625320e+01 1.9860656346641779e-03 0.0000000000000000e+00  -1.0333798386561668e+01 1.9860689530867767e-03 0.0000000000000000e+00  -1.0333798520024937e+01 1.9860719694554511e-03 0.0000000000000000e+00  -1.0333798661241810e+01 1.9860746687756971e-03 0.0000000000000000e+00  -1.0333798809315910e+01 1.9860770173439038e-03 0.0000000000000000e+00  -1.0333798963267336e+01 1.9860789950076679e-03 0.0000000000000000e+00  -1.0333799122025104e+01 1.9860805920534270e-03 0.0000000000000000e+00  -1.0333799284563414e+01 1.9860818439070278e-03 0.0000000000000000e+00  -1.0333799449986058e+01 1.9860828315894905e-03 0.0000000000000000e+00  -1.0333799617643281e+01 1.9860836405886061e-03 0.0000000000000000e+00  -1.0333799787100318e+01 1.9860843566837142e-03 0.0000000000000000e+00  -1.0333799958102622e+01 1.9860850435637319e-03 0.0000000000000000e+00  -1.0333800130559366e+01 1.9860857835897888e-03 0.0000000000000000e+00  -1.0333800304587079e+01 1.9860866721775321e-03 0.0000000000000000e+00  -1.0333800480587104e+01 1.9860878524108443e-03 0.0000000000000000e+00  -1.0333800659145993e+01 1.9860893644524326e-03 0.0000000000000000e+00  -1.0333800840554602e+01 1.9860910694917628e-03 0.0000000000000000e+00  -1.0333801023048551e+01 1.9860919519498312e-03 0.0000000000000000e+00  -1.0333801199401909e+01 1.9860894135428470e-03 0.0000000000000000e+00  -1.0333801341300525e+01 1.9860748476835384e-03 0.0000000000000000e+00  -1.0333801394263768e+01 1.9860334459888872e-03 0.0000000000000000e+00  -1.0333801087698424e+01 1.9858952670980382e-03 0.0000000000000000e+00  -1.0333800340191376e+01 1.9856783720664547e-03 0.0000000000000000e+00  -1.0333796020323458e+01 1.9845276365843129e-03 0.0000000000000000e+00  -1.0333794205934657e+01 1.9854069983395173e-03 0.0000000000000000e+00  -1.0333748476847815e+01 1.9719981258678127e-03 0.0000000000000000e+00  -1.0333817431950166e+01 2.0260406361692659e-03 0.0000000000000000e+00  -1.0333299146072724e+01 1.8166936808843204e-03 0.0000000000000000e+00  -1.0334785490522899e+01 2.9249382633771553e-03 0.0000000000000000e+00  -1.0330054741520360e+01 1.4523975135400621e-03 0.0000000000000000e+00  -1.0339489077904508e+01 1.9619955903885881e-02 0.0000000000000000e+00  -1.0340254775090040e+01 0.0000000000000000e+00 0.0000000000000000e+00  -3.4784901792249383e+00 0.0000000000000000e+00 0.0000000000000000e+00  -3.4903471531201204e+00 1.1741127594319979e-02 0.0000000000000000e+00  -3.4940734569001277e+00 1.0282744856503805e-02 0.0000000000000000e+00  -3.4965146961823028e+00 1.1283252826488527e-02 0.0000000000000000e+00  -3.4978694217390882e+00 8.9210329516095400e-03 0.0000000000000000e+00  -3.4979473909275720e+00 5.5826749526584861e-03 0.0000000000000000e+00  -3.4980446067402609e+00 2.3744466536300955e-03 0.0000000000000000e+00  -3.4977980033221407e+00 -9.2839125996464967e-05 0.0000000000000000e+00  -3.4976003080344999e+00 -1.7329622705403859e-03 0.0000000000000000e+00  -3.4971145869235643e+00 -2.7770535657054081e-03 0.0000000000000000e+00  -3.4965075166100270e+00 -3.2891977711911472e-03 0.0000000000000000e+00  -3.4957237224175457e+00 -3.6223609807982189e-03 0.0000000000000000e+00  -3.4947551426543351e+00 -3.7955567731642894e-03 0.0000000000000000e+00  -3.4935055432780748e+00 -3.6332248757226220e-03 0.0000000000000000e+00  -3.4922394788278468e+00 -3.1455067428046660e-03 0.0000000000000000e+00  -3.4911823556581032e+00 -2.5722729310084752e-03 0.0000000000000000e+00  -3.4904599771618079e+00 -2.0979448429277112e-03 0.0000000000000000e+00  -3.4900205819836461e+00 -1.7882412106313553e-03 0.0000000000000000e+00  -3.4897829288110169e+00 -1.6130934885445233e-03 0.0000000000000000e+00  -3.4896568046629901e+00 -1.5247377881209083e-03 0.0000000000000000e+00  -3.4895919502147033e+00 -1.4811152659549803e-03 0.0000000000000000e+00  -3.4895549584132040e+00 -1.4594811643266958e-03 0.0000000000000000e+00  -3.4895334122606712e+00 -1.4472764862027512e-03 0.0000000000000000e+00  -3.4895191121514486e+00 -1.4399322684419534e-03 0.0000000000000000e+00  -3.4895099436039732e+00 -1.4349495445563751e-03 0.0000000000000000e+00  -3.4895035829683665e+00 -1.4316484956151587e-03 0.0000000000000000e+00  -3.4894994924325031e+00 -1.4293520674095795e-03 0.0000000000000000e+00  -3.4894966971229087e+00 -1.4278530538924944e-03 0.0000000000000000e+00  -3.4894949306578349e+00 -1.4268353077665141e-03 0.0000000000000000e+00  -3.4894937392617780e+00 -1.4261837024451046e-03 0.0000000000000000e+00  -3.4894929909360517e+00 -1.4257429693166417e-03 0.0000000000000000e+00  -3.4894924887989696e+00 -1.4254580610238423e-03 0.0000000000000000e+00  -3.4894921750734840e+00 -1.4252613634104878e-03 0.0000000000000000e+00  -3.4894919694674473e+00 -1.4251308076234828e-03 0.0000000000000000e+00  -3.4894918462111209e+00 -1.4250387747458766e-03 0.0000000000000000e+00  -3.4894917730404225e+00 -1.4249762581177296e-03 0.0000000000000000e+00  -3.4894917369367402e+00 -1.4249316567246893e-03 0.0000000000000000e+00  -3.4894917250522357e+00 -1.4249004954587879e-03 0.0000000000000000e+00  -3.4894917304207831e+00 -1.4248774787000789e-03 0.0000000000000000e+00  -3.4894917486680566e+00 -1.4248599611114919e-03 0.0000000000000000e+00  -3.4894917766985860e+00 -1.4248455387562515e-03 0.0000000000000000e+00  -3.4894918140680264e+00 -1.4248328283868602e-03 0.0000000000000000e+00  -3.4894918599236138e+00 -1.4248209810295838e-03 0.0000000000000000e+00  -3.4894919151863464e+00 -1.4248094197643649e-03 0.0000000000000000e+00  -3.4894919799290967e+00 -1.4247979734024841e-03 0.0000000000000000e+00  -3.4894920552285180e+00 -1.4247864250584435e-03 0.0000000000000000e+00  -3.4894921414545315e+00 -1.4247748063174824e-03 0.0000000000000000e+00  -3.4894922395420358e+00 -1.4247630865306547e-03 0.0000000000000000e+00  -3.4894923499037973e+00 -1.4247514825160789e-03 0.0000000000000000e+00  -3.4894924730102241e+00 -1.4247401974186653e-03 0.0000000000000000e+00  -3.4894926087567195e+00 -1.4247295194035382e-03 0.0000000000000000e+00  -3.4894927568674019e+00 -1.4247195975609381e-03 0.0000000000000000e+00  -3.4894929167281594e+00 -1.4247105675809356e-03 0.0000000000000000e+00  -3.4894930876273653e+00 -1.4247025385418881e-03 0.0000000000000000e+00  -3.4894932685770321e+00 -1.4246956700806901e-03 0.0000000000000000e+00  -3.4894934583534347e+00 -1.4246900590514128e-03 0.0000000000000000e+00  -3.4894936554906475e+00 -1.4246856681419354e-03 0.0000000000000000e+00  -3.4894938585518958e+00 -1.4246822923288181e-03 0.0000000000000000e+00  -3.4894940663141938e+00 -1.4246796489080489e-03 0.0000000000000000e+00  -3.4894942778814695e+00 -1.4246774828653845e-03 0.0000000000000000e+00  -3.4894944926102989e+00 -1.4246755976758422e-03 0.0000000000000000e+00  -3.4894947100214453e+00 -1.4246738191771365e-03 0.0000000000000000e+00  -3.4894949297902191e+00 -1.4246718759541651e-03 0.0000000000000000e+00  -3.4894951518667421e+00 -1.4246694490335815e-03 0.0000000000000000e+00  -3.4894953767255315e+00 -1.4246662918721497e-03 0.0000000000000000e+00  -3.4894956052439623e+00 -1.4246630293969283e-03 0.0000000000000000e+00  -3.4894958384157571e+00 -1.4246623007831687e-03 0.0000000000000000e+00  -3.4894960751847428e+00 -1.4246733181138499e-03 0.0000000000000000e+00  -3.4894963082407502e+00 -1.4247193423236263e-03 0.0000000000000000e+00  -3.4894965083660257e+00 -1.4248699056554702e-03 0.0000000000000000e+00  -3.4894965955538635e+00 -1.4252702441143288e-03 0.0000000000000000e+00  -3.4894962997577026e+00 -1.4264514033649020e-03 0.0000000000000000e+00  -3.4894950999903038e+00 -1.4288958428237419e-03 0.0000000000000000e+00  -3.4894904214359430e+00 -1.4376490038259932e-03 0.0000000000000000e+00  -3.4894815358191762e+00 -1.4450048626389320e-03 0.0000000000000000e+00  -3.4894340826811092e+00 -1.5188221689194478e-03 0.0000000000000000e+00  -3.4894234409920886e+00 -1.4012917854349350e-03 0.0000000000000000e+00  -3.4887778463092665e+00 -2.1582248812958976e-03 0.0000000000000000e+00  -3.4894810473239501e+00 9.2327745022917969e-04 0.0000000000000000e+00  -3.4763485517475128e+00 -7.6081313909118599e-03 0.0000000000000000e+00  -3.4880810405239213e+00 0.0000000000000000e+00 0.0000000000000000e+00  6.5618576838944576e-01 0.0000000000000000e+00 0.0000000000000000e+00  6.6346755187752737e-01 6.5466654124751115e-03 0.0000000000000000e+00  6.7558385501817553e-01 7.9336978722097818e-03 0.0000000000000000e+00  6.8949496295745927e-01 7.4974330175825929e-03 0.0000000000000000e+00  7.0202841867316645e-01 6.3418467900058827e-03 0.0000000000000000e+00  7.1068067786311462e-01 4.4179597019995964e-03 0.0000000000000000e+00  7.1619449511048539e-01 2.5083407732873295e-03 0.0000000000000000e+00  7.1855868936694567e-01 1.0719248229294142e-03 0.0000000000000000e+00  7.1914240599986590e-01 3.6656507373200524e-05 0.0000000000000000e+00  7.1830649939784852e-01 -6.7149792502694638e-04 0.0000000000000000e+00  7.1686587898164011e-01 -1.0875066667007612e-03 0.0000000000000000e+00  7.1500572043875354e-01 -1.3184042509315423e-03 0.0000000000000000e+00  7.1295292031326374e-01 -1.5913842304956921e-03 0.0000000000000000e+00  7.1088740498421088e-01 -1.6334226763671555e-03 0.0000000000000000e+00  7.0920633185279813e-01 -1.3250796343634609e-03 0.0000000000000000e+00  7.0803243047500686e-01 -8.1728746117217823e-04 0.0000000000000000e+00  7.0733820253750868e-01 -3.4286787012355568e-04 0.0000000000000000e+00  7.0695826219374025e-01 -2.4466149745846907e-06 0.0000000000000000e+00  7.0676762745564659e-01 1.9864742022328893e-04 0.0000000000000000e+00  7.0666674199799973e-01 3.0578904349291987e-04 0.0000000000000000e+00  7.0661269861272891e-01 3.5819531845453266e-04 0.0000000000000000e+00  7.0657853873475684e-01 3.8460318059211799e-04 0.0000000000000000e+00  7.0655708642466752e-01 3.9830031768761697e-04 0.0000000000000000e+00  7.0654190192205002e-01 4.0659915824622228e-04 0.0000000000000000e+00  7.0653196536193807e-01 4.1178508116301301e-04 0.0000000000000000e+00  7.0652489949425801e-01 4.1538846523487871e-04 0.0000000000000000e+00  7.0652030465953897e-01 4.1776023286388354e-04 0.0000000000000000e+00  7.0651704208283961e-01 4.1940485278090011e-04 0.0000000000000000e+00  7.0651489162303871e-01 4.2046204148327485e-04 0.0000000000000000e+00  7.0651332855227311e-01 4.2117721641126706e-04 0.0000000000000000e+00  7.0651225590046496e-01 4.2163035543223392e-04 0.0000000000000000e+00  7.0651144697183343e-01 4.2193719174818970e-04 0.0000000000000000e+00  7.0651086276105013e-01 4.2213430359839486e-04 0.0000000000000000e+00  7.0651040588264147e-01 4.2227031368488106e-04 0.0000000000000000e+00  7.0651005803726996e-01 4.2235984499559305e-04 0.0000000000000000e+00  7.0650977580362606e-01 4.2242255669768149e-04 0.0000000000000000e+00  7.0650954832776147e-01 4.2246482070269276e-04 0.0000000000000000e+00  7.0650935573092755e-01 4.2249488065480883e-04 