<?xml version="1.0"?>
<VTKFile type="UnstructuredGrid"  version="0.1"  >
<UnstructuredGrid>
<Piece  NumberOfPoints="1369" NumberOfCells="2560">
<Points>
<DataArray  type="Float64"  NumberOfComponents="3"  format="ascii">0 0 0  0.75 0 0  1.5 0 0  2.25 0 0  3 0 0  3.75 0 0  4.5 0 0  5.25 0 0  6 0 0  6.75 0 0  7.5 0 0  8.25 0 0  9 0 0  9.75 0 0  10.5 0 0  11.25 0 0  12 0 0  12.75 0 0  13.5 0 0  14.25 0 0  15 0 0  15.75 0 0  16.5 0 0  17.25 0 0  18 0 0  18.75 0 0  19.5 0 0  20.25 0 0  21 0 0  21.75 0 0  22.5 0 0  23.25 0 0  24 0 0  24.75 0 0  25.5 0 0  26.25 0 0  27 0 0  27.75 0 0  28.5 0 0  29.25 0 0  30 0 0  30.75 0 0  31.5 0 0  32.25 0 0  33 0 0  33.75 0 0  34.5 0 0  35.25 0 0  36 0 0  36.75 0 0  37.5 0 0  38.25 0 0  39 0 0  39.75 0 0  40.5 0 0  41.25 0 0  42 0 0  42.75 0 0  43.5 0 0  44.25 0 0  45 0 0  45.75 0 0  46.5 0 0  47.25 0 0  48 0 0  48.75 0 0  49.5 0 0  50.25 0 0  51 0 0  51.75 0 0  52.5 0 0  53.25 0 0  54 0 0  54.75 0 0  55.5 0 0  56.25 0 0  57 0 0  57.75 0 0  58.5 0 0  59.25 0 0  60 0 0  0 0.5 0  0.75 0.5 0  1.5 0.5 0  2.25 0.5 0  3 0.5 0  3.75 0.5 0  4.5 0.5 0  5.25 0.5 0  6 0.5 0  6.75 0.5 0  7.5 0.5 0  8.25 0.5 0  9 0.5 0  9.75 0.5 0  10.5 0.5 0  11.25 0.5 0  12 0.5 0  12.75 0.5 0  13.5 0.5 0  14.25 0.5 0  15 0.5 0  15.75 0.5 0  16.5 0.5 0  17.25 0.5 0  18 0.5 0  18.75 0.5 0  19.5 0.5 0  20.25 0.5 0  21 0.5 0  21.75 0.5 0  22.5 0.5 0  23.25 0.5 0  24 0.5 0  24.75 0.5 0  25.5 0.5 0  26.25 0.5 0  27 0.5 0  27.75 0.5 0  28.5 0.5 0  29.25 0.5 0  30 0.5 0  30.75 0.5 0  31.5 0.5 0  32.25 0.5 0  33 0.5 0  33.75 0.5 0  34.5 0.5 0  35.25 0.5 0  36 0.5 0  36.75 0.5 0  37.5 0.5 0  38.25 0.5 0  39 0.5 0  39.75 0.5 0  40.5 0.5 0  41.25 0.5 0  42 0.5 0  42.75 0.5 0  43.5 0.5 0  44.25 0.5 0  45 0.5 0  45.75 0.5 0  46.5 0.5 0  47.25 0.5 0  48 0.5 0  48.75 0.5 0  49.5 0.5 0  50.25 0.5 0  51 0.5 0  51.75 0.5 0  52.5 0.5 0  53.25 0.5 0  54 0.5 0  54.75 0.5 0  55.5 0.5 0  56.25 0.5 0  57 0.5 0  57.75 0.5 0  58.5 0.5 0  59.25 0.5 0  60 0.5 0  0 1 0  0.75 1 0  1.5 1 0  2.25 1 0  3 1 0  3.75 1 0  4.5 1 0  5.25 1 0  6 1 0  6.75 1 0  7.5 1 0  8.25 1 0  9 1 0  9.75 1 0  10.5 1 0  11.25 1 0  12 1 0  12.75 1 0  13.5 1 0  14.25 1 0  15 1 0  15.75 1 0  16.5 1 0  17.25 1 0  18 1 0  18.75 1 0  19.5 1 0  20.25 1 0  21 1 0  21.75 1 0  22.5 1 0  23.25 1 0  24 1 0  24.75 1 0  25.5 1 0  26.25 1 0  27 1 0  27.75 1 0  28.5 1 0  29.25 1 0  30 1 0  30.75 1 0  31.5 1 0  32.25 1 0  33 1 0  33.75 1 0  34.5 1 0  35.25 1 0  36 1 0  36.75 1 0  37.5 1 0  38.25 1 0  39 1 0  39.75 1 0  40.5 1 0  41.25 1 0  42 1 0  42.75 1 0  43.5 1 0  44.25 1 0  45 1 0  45.75 1 0  46.5 1 0  47.25 1 0  48 1 0  48.75 1 0  49.5 1 0  50.25 1 0  51 1 0  51.75 1 0  52.5 1 0  53.25 1 0  54 1 0  54.75 1 0  55.5 1 0  56.25 1 0  57 1 0  57.75 1 0  58.5 1 0  59.25 1 0  60 1 0  0 1.5 0  0.75 1.5 0  1.5 1.5 0  2.25 1.5 0  3 1.5 0  3.75 1.5 0  4.5 1.5 0  5.25 1.5 0  6 1.5 0  6.75 1.5 0  7.5 1.5 0  8.25 1.5 0  9 1.5 0  9.75 1.5 0  10.5 1.5 0  11.25 1.5 0  12 1.5 0  12.75 1.5 0  13.5 1.5 0  14.25 1.5 0  15 1.5 0  15.75 1.5 0  16.5 1.5 0  17.25 1.5 0  18 1.5 0  18.75 1.5 0  19.5 1.5 0  20.25 1.5 0  21 1.5 0  21.75 1.5 0  22.5 1.5 0  23.25 1.5 0  24 1.5 0  24.75 1.5 0  25.5 1.5 0  26.25 1.5 0  27 1.5 0  27.75 1.5 0  28.5 1.5 0  29.25 1.5 0  30 1.5 0  30.75 1.5 0  31.5 1.5 0  32.25 1.5 0  33 1.5 0  33.75 1.5 0  34.5 1.5 0  35.25 1.5 0  36 1.5 0  36.75 1.5 0  37.5 1.5 0  38.25 1.5 0  39 1.5 0  39.75 1.5 0  40.5 1.5 0  41.25 1.5 0  42 1.5 0  42.75 1.5 0  43.5 1.5 0  44.25 1.5 0  45 1.5 0  45.75 1.5 0  46.5 1.5 0  47.25 1.5 0  48 1.5 0  48.75 1.5 0  49.5 1.5 0  50.25 1.5 0  51 1.5 0  51.75 1.5 0  52.5 1.5 0  53.25 1.5 0  54 1.5 0  54.75 1.5 0  55.5 1.5 0  56.25 1.5 0  57 1.5 0  57.75 1.5 0  58.5 1.5 0  59.25 1.5 0  60 1.5 0  0 2 0  0.75 2 0  1.5 2 0  2.25 2 0  3 2 0  3.75 2 0  4.5 2 0  5.25 2 0  6 2 0  6.75 2 0  7.5 2 0  8.25 2 0  9 2 0  9.75 2 0  10.5 2 0  11.25 2 0  12 2 0  12.75 2 0  13.5 2 0  14.25 2 0  15 2 0  15.75 2 0  16.5 2 0  17.25 2 0  18 2 0  18.75 2 0  19.5 2 0  20.25 2 0  21 2 0  21.75 2 0  22.5 2 0  23.25 2 0  24 2 0  24.75 2 0  25.5 2 0  26.25 2 0  27 2 0  27.75 2 0  28.5 2 0  29.25 2 0  30 2 0  30.75 2 0  31.5 2 0  32.25 2 0  33 2 0  33.75 2 0  34.5 2 0  35.25 2 0  36 2 0  36.75 2 0  37.5 2 0  38.25 2 0  39 2 0  39.75 2 0  40.5 2 0  41.25 2 0  42 2 0  42.75 2 0  43.5 2 0  44.25 2 0  45 2 0  45.75 2 0  46.5 2 0  47.25 2 0  48 2 0  48.75 2 0  49.5 2 0  50.25 2 0  51 2 0  51.75 2 0  52.5 2 0  53.25 2 0  54 2 0  54.75 2 0  55.5 2 0  56.25 2 0  57 2 0  57.75 2 0  58.5 2 0  59.25 2 0  60 2 0  0 2.5 0  0.75 2.5 0  1.5 2.5 0  2.25 2.5 0  3 2.5 0  3.75 2.5 0  4.5 2.5 0  5.25 2.5 0  6 2.5 0  6.75 2.5 0  7.5 2.5 0  8.25 2.5 0  9 2.5 0  9.75 2.5 0  10.5 2.5 0  11.25 2.5 0  12 2.5 0  12.75 2.5 0  13.5 2.5 0  14.25 2.5 0  15 2.5 0  15.75 2.5 0  16.5 2.5 0  17.25 2.5 0  18 2.5 0  18.75 2.5 0  19.5 2.5 0  20.25 2.5 0  21 2.5 0  21.75 2.5 0  22.5 2.5 0  23.25 2.5 0  24 2.5 0  24.75 2.5 0  25.5 2.5 0  26.25 2.5 0  27 2.5 0  27.75 2.5 0  28.5 2.5 0  29.25 2.5 0  30 2.5 0  30.75 2.5 0  31.5 2.5 0  32.25 2.5 0  33 2.5 0  33.75 2.5 0  34.5 2.5 0  35.25 2.5 0  36 2.5 0  36.75 2.5 0  37.5 2.5 0  38.25 2.5 0  39 2.5 0  39.75 2.5 0  40.5 2.5 0  41.25 2.5 0  42 2.5 0  42.75 2.5 0  43.5 2.5 0  44.25 2.5 0  45 2.5 0  45.75 2.5 0  46.5 2.5 0  47.25 2.5 0  48 2.5 0  48.75 2.5 0  49.5 2.5 0  50.25 2.5 0  51 2.5 0  51.75 2.5 0  52.5 2.5 0  53.25 2.5 0  54 2.5 0  54.75 2.5 0  55.5 2.5 0  56.25 2.5 0  57 2.5 0  57.75 2.5 0  58.5 2.5 0  59.25 2.5 0  60 2.5 0  0 3 0  0.75 3 0  1.5 3 0  2.25 3 0  3 3 0  3.75 3 0  4.5 3 0  5.25 3 0  6 3 0  6.75 3 0  7.5 3 0  8.25 3 0  9 3 0  9.75 3 0  10.5 3 0  11.25 3 0  12 3 0  12.75 3 0  13.5 3 0  14.25 3 0  15 3 0  15.75 3 0  16.5 3 0  17.25 3 0  18 3 0  18.75 3 0  19.5 3 0  20.25 3 0  21 3 0  21.75 3 0  22.5 3 0  23.25 3 0  24 3 0  24.75 3 0  25.5 3 0  26.25 3 0  27 3 0  27.75 3 0  28.5 3 0  29.25 3 0  30 3 0  30.75 3 0  31.5 3 0  32.25 3 0  33 3 0  33.75 3 0  34.5 3 0  35.25 3 0  36 3 0  36.75 3 0  37.5 3 0  38.25 3 0  39 3 0  39.75 3 0  40.5 3 0  41.25 3 0  42 3 0  42.75 3 0  43.5 3 0  44.25 3 0  45 3 0  45.75 3 0  46.5 3 0  47.25 3 0  48 3 0  48.75 3 0  49.5 3 0  50.25 3 0  51 3 0  51.75 3 0  52.5 3 0  53.25 3 0  54 3 0  54.75 3 0  55.5 3 0  56.25 3 0  57 3 0  57.75 3 0  58.5 3 0  59.25 3 0  60 3 0  0 3.5 0  0.75 3.5 0  1.5 3.5 0  2.25 3.5 0  3 3.5 0  3.75 3.5 0  4.5 3.5 0  5.25 3.5 0  6 3.5 0  6.75 3.5 0  7.5 3.5 0  8.25 3.5 0  9 3.5 0  9.75 3.5 0  10.5 3.5 0  11.25 3.5 0  12 3.5 0  12.75 3.5 0  13.5 3.5 0  14.25 3.5 0  15 3.5 0  15.75 3.5 0  16.5 3.5 0  17.25 3.5 0  18 3.5 0  18.75 3.5 0  19.5 3.5 0  20.25 3.5 0  21 3.5 0  21.75 3.5 0  22.5 3.5 0  23.25 3.5 0  24 3.5 0  24.75 3.5 0  25.5 3.5 0  26.25 3.5 0  27 3.5 0  27.75 3.5 0  28.5 3.5 0  29.25 3.5 0  30 3.5 0  30.75 3.5 0  31.5 3.5 0  32.25 3.5 0  33 3.5 0  33.75 3.5 0  34.5 3.5 0  35.25 3.5 0  36 3.5 0  36.75 3.5 0  37.5 3.5 0  38.25 3.5 0  39 3.5 0  39.75 3.5 0  40.5 3.5 0  41.25 3.5 0  42 3.5 0  42.75 3.5 0  43.5 3.5 0  44.25 3.5 0  45 3.5 0  45.75 3.5 0  46.5 3.5 0  47.25 3.5 0  48 3.5 0  48.75 3.5 0  49.5 3.5 0  50.25 3.5 0  51 3.5 0  51.75 3.5 0  52.5 3.5 0  53.25 3.5 0  54 3.5 0  54.75 3.5 0  55.5 3.5 0  56.25 3.5 0  57 3.5 0  57.75 3.5 0  58.5 3.5 0  59.25 3.5 0  60 3.5 0  0 4 0  0.75 4 0  1.5 4 0  2.25 4 0  3 4 0  3.75 4 0  4.5 4 0  5.25 4 0  6 4 0  6.75 4 0  7.5 4 0  8.25 4 0  9 4 0  9.75 4 0  10.5 4 0  11.25 4 0  12 4 0  12.75 4 0  13.5 4 0  14.25 4 0  15 4 0  15.75 4 0  16.5 4 0  17.25 4 0  18 4 0  18.75 4 0  19.5 4 0  20.25 4 0  21 4 0  21.75 4 0  22.5 4 0  23.25 4 0  24 4 0  24.75 4 0  25.5 4 0  26.25 4 0  27 4 0  27.75 4 0  28.5 4 0  29.25 4 0  30 4 0  30.75 4 0  31.5 4 0  32.25 4 0  33 4 0  33.75 4 0  34.5 4 0  35.25 4 0  36 4 0  36.75 4 0  37.5 4 0  38.25 4 0  39 4 0  39.75 4 0  40.5 4 0  41.25 4 0  42 4 0  42.75 4 0  43.5 4 0  44.25 4 0  45 4 0  45.75 4 0  46.5 4 0  47.25 4 0  48 4 0  48.75 4 0  49.5 4 0  50.25 4 0  51 4 0  51.75 4 0  52.5 4 0  53.25 4 0  54 4 0  54.75 4 0  55.5 4 0  56.25 4 0  57 4 0  57.75 4 0  58.5 4 0  59.25 4 0  60 4 0  0.375 0.25 0  1.125 0.25 0  1.875 0.25 0  2.625 0.25 0  3.375 0.25 0  4.125 0.25 0  4.875 0.25 0  5.625 0.25 0  6.375 0.25 0  7.125 0.25 0  7.875 0.25 0  8.625 0.25 0  9.375 0.25 0  10.125 0.25 0  10.875 0.25 0  11.625 0.25 0  12.375 0.25 0  13.125 0.25 0  13.875 0.25 0  14.625 0.25 0  15.375 0.25 0  16.125 0.25 0  16.875 0.25 0  17.625 0.25 0  18.375 0.25 0  19.125 0.25 0  19.875 0.25 0  20.625 0.25 0  21.375 0.25 0  22.125 0.25 0  22.875 0.25 0  23.625 0.25 0  24.375 0.25 0  25.125 0.25 0  25.875 0.25 0  26.625 0.25 0  27.375 0.25 0  28.125 0.25 0  28.875 0.25 0  29.625 0.25 0  30.375 0.25 0  31.125 0.25 0  31.875 0.25 0  32.625 0.25 0  33.375 0.25 0  34.125 0.25 0  34.875 0.25 0  35.625 0.25 0  36.375 0.25 0  37.125 0.25 0  37.875 0.25 0  38.625 0.25 0  39.375 0.25 0  40.125 0.25 0  40.875 0.25 0  41.625 0.25 0  42.375 0.25 0  43.125 0.25 0  43.875 0.25 0  44.625 0.25 0  45.375 0.25 0  46.125 0.25 0  46.875 0.25 0  47.625 0.25 0  48.375 0.25 0  49.125 0.25 0  49.875 0.25 0  50.625 0.25 0  51.375 0.25 0  52.125 0.25 0  52.875 0.25 0  53.625 0.25 0  54.375 0.25 0  55.125 0.25 0  55.875 0.25 0  56.625 0.25 0  57.375 0.25 0  58.125 0.25 0  58.875 0.25 0  59.625 0.25 0  0.375 0.75 0  1.125 0.75 0  1.875 0.75 0  2.625 0.75 0  3.375 0.75 0  4.125 0.75 0  4.875 0.75 0  5.625 0.75 0  6.375 0.75 0  7.125 0.75 0  7.875 0.75 0  8.625 0.75 0  9.375 0.75 0  10.125 0.75 0  10.875 0.75 0  11.625 0.75 0  12.375 0.75 0  13.125 0.75 0  13.875 0.75 0  14.625 0.75 0  15.375 0.75 0  16.125 0.75 0  16.875 0.75 0  17.625 0.75 0  18.375 0.75 0  19.125 0.75 0  19.875 0.75 0  20.625 0.75 0  21.375 0.75 0  22.125 0.75 0  22.875 0.75 0  23.625 0.75 0  24.375 0.75 0  25.125 0.75 0  25.875 0.75 0  26.625 0.75 0  27.375 0.75 0  28.125 0.75 0  28.875 0.75 0  29.625 0.75 0  30.375 0.75 0  31.125 0.75 0  31.875 0.75 0  32.625 0.75 0  33.375 0.75 0  34.125 0.75 0  34.875 0.75 0  35.625 0.75 0  36.375 0.75 0  37.125 0.75 0  37.875 0.75 0  38.625 0.75 0  39.375 0.75 0  40.125 0.75 0  40
[...]
<PointData  Vectors="f_8-0"> 
<DataArray  type="Float64"  Name="f_8-0"  NumberOfComponents="3" format="ascii">0.0000000000000000e+00 0.0000000000000000e+00 0.0000000000000000e+00  0.0000000000000000e+00 0.0000000000000000e+00 0.0000000000000000e+00  0.0000000000000000e+00 0.0000000000000000e+00 0.0000000000000000e+00  0.0000000000000000e+00 0.0000000000000000e+00 0.0000000000000000e+00  0.0000000000000000e+00 0.0000000000000000e+00 0.0000000000000000e+00  0.0000000000000000e+00 0.0000000000000000e+00 0.0000000000000000e+00  0.0000000000000000e+00 0.0000000000000000e+00 0.0000000000000000e+00  0.0000000000000000e+00 0.0000000000000000e+00 0.0000000000000000e+00  0.0000000000000000e+00 0.0000000000000000e+00 0.0000000000000000e+00  0.0000000000000000e+00 0.0000000000000000e+00 0.0000000000000000e+00  0.0000000000000000e+00 0.0000000000000000e+00 0.0000000000000000e+00  0.0000000000000000e+00 0.0000000000000000e+00 0.0000000000000000e+00  0.0000000000000000e+00 0.0000000000000000e+00 0.0000000000000000e+00  0.0000000000000000e+00 0.0000000000000000e+00 0.0000000000000000e+00  0.0000000000000000e+00 0.0000000000000000e+00 0.0000000000000000e+00  0.0000000000000000e+00 0.0000000000000000e+00 0.0000000000000000e+00  0.0000000000000000e+00 0.0000000000000000e+00 0.0000000000000000e+00  0.0000000000000000e+00 0.0000000000000000e+00 0.0000000000000000e+00  0.0000000000000000e+00 0.0000000000000000e+00 0.0000000000000000e+00  0.0000000000000000e+00 0.0000000000000000e+00 0.0000000000000000e+00  0.0000000000000000e+00 0.0000000000000000e+00 0.0000000000000000e+00  0.0000000000000000e+00 0.0000000000000000e+00 0.0000000000000000e+00  0.0000000000000000e+00 0.0000000000000000e+00 0.0000000000000000e+00  0.0000000000000000e+00 0.0000000000000000e+00 0.0000000000000000e+00  0.0000000000000000e+00 0.0000000000000000e+00 0.0000000000000000e+00  0.0000000000000000e+00 0.0000000000000000e+00 0.0000000000000000e+00  0.0000000000000000e+00 0.0000000000000000e+00 0.0000000000000000e+00  0.0000000000000000e+00 0.0000000000000000e+00 0.0000000000000000e+00  0.0000000000000000e+00 0.0000000000000000e+00 0.0000000000000000e+00  0.0000000000000000e+00 0.0000000000000000e+00 0.0000000000000000e+00  0.0000000000000000e+00 0.0000000000000000e+00 0.0000000000000000e+00  0.0000000000000000e+00 0.0000000000000000e+00 0.0000000000000000e+00  0.0000000000000000e+00 0.0000000000000000e+00 0.0000000000000000e+00  0.0000000000000000e+00 0.0000000000000000e+00 0.0000000000000000e+00  0.0000000000000000e+00 0.0000000000000000e+00 0.0000000000000000e+00  0.0000000000000000e+00 0.0000000000000000e+00 0.0000000000000000e+00  0.0000000000000000e+00 0.0000000000000000e+00 0.0000000000000000e+00  0.0000000000000000e+00 0.0000000000000000e+00 0.0000000000000000e+00  0.0000000000000000e+00 0.0000000000000000e+00 0.0000000000000000e+00  0.0000000000000000e+00 0.0000000000000000e+00 0.0000000000000000e+00  0.0000000000000000e+00 0.0000000000000000e+00 0.0000000000000000e+00  0.0000000000000000e+00 0.0000000000000000e+00 0.0000000000000000e+00  0.0000000000000000e+00 0.0000000000000000e+00 0.0000000000000000e+00  0.0000000000000000e+00 0.0000000000000000e+00 0.0000000000000000e+00  0.0000000000000000e+00 0.0000000000000000e+00 0.0000000000000000e+00  0.0000000000000000e+00 0.0000000000000000e+00 0.0000000000000000e+00  0.0000000000000000e+00 0.0000000000000000e+00 0.0000000000000000e+00  0.0000000000000000e+00 0.0000000000000000e+00 0.0000000000000000e+00  0.0000000000000000e+00 0.0000000000000000e+00 0.0000000000000000e+00  0.0000000000000000e+00 0.0000000000000000e+00 0.0000000000000000e+00  0.0000000000000000e+00 0.0000000000000000e+00 0.0000000000000000e+00  0.0000000000000000e+00 0.0000000000000000e+00 0.0000000000000000e+00  0.0000000000000000e+00 0.0000000000000000e+00 0.0000000000000000e+00  0.0000000000000000e+00 0.0000000000000000e+00 0.0000000000000000e+00  0.0000000000000000e+00 0.0000000000000000e+00 0.0000000000000000e+00  0.0000000000000000e+00 0.0000000000000000e+00 0.0000000000000000e+00  0.0000000000000000e+00 0.0000000000000000e+00 0.0000000000000000e+00  0.0000000000000000e+00 0.0000000000000000e+00 0.0000000000000000e+00  0.0000000000000000e+00 0.0000000000000000e+00 0.0000000000000000e+00  0.0000000000000000e+00 0.0000000000000000e+00 0.0000000000000000e+00  0.0000000000000000e+00 0.0000000000000000e+00 0.0000000000000000e+00  0.0000000000000000e+00 0.0000000000000000e+00 0.0000000000000000e+00  0.0000000000000000e+00 0.0000000000000000e+00 0.0000000000000000e+00  0.0000000000000000e+00 0.0000000000000000e+00 0.0000000000000000e+00  0.0000000000000000e+00 0.0000000000000000e+00 0.0000000000000000e+00  0.0000000000000000e+00 0.0000000000000000e+00 0.0000000000000000e+00  0.0000000000000000e+00 0.0000000000000000e+00 0.0000000000000000e+00  0.0000000000000000e+00 0.0000000000000000e+00 0.0000000000000000e+00  0.0000000000000000e+00 0.0000000000000000e+00 0.0000000000000000e+00  0.0000000000000000e+00 0.0000000000000000e+00 0.0000000000000000e+00  0.0000000000000000e+00 0.0000000000000000e+00 0.0000000000000000e+00  0.0000000000000000e+00 0.0000000000000000e+00 0.0000000000000000e+00  0.0000000000000000e+00 0.0000000000000000e+00 0.0000000000000000e+00  0.0000000000000000e+00 0.0000000000000000e+00 0.0000000000000000e+00  0.0000000000000000e+00 0.0000000000000000e+00 0.0000000000000000e+00  0.0000000000000000e+00 0.0000000000000000e+00 0.0000000000000000e+00  0.0000000000000000e+00 0.0000000000000000e+00 0.0000000000000000e+00  0.0000000000000000e+00 0.0000000000000000e+00 0.0000000000000000e+00  0.0000000000000000e+00 0.0000000000000000e+00 0.0000000000000000e+00  0.0000000000000000e+00 0.0000000000000000e+00 0.0000000000000000e+00  0.0000000000000000e+00 0.0000000000000000e+00 0.0000000000000000e+00  -2.4468428201856373e+01 0.0000000000000000e+00 0.0000000000000000e+00  -2.4486624879491359e+01 5.7050192090309466e-03 0.0000000000000000e+00  -2.4503856885579957e+01 7.8288360903380518e-03 0.0000000000000000e+00  -2.4512902842869046e+01 6.9652266966116596e-03 0.0000000000000000e+00  -2.4518065839046514e+01 5.7662360142482008e-03 0.0000000000000000e+00  -2.4520670166598670e+01 4.7911273274797864e-03 0.0000000000000000e+00  -2.4521560013630580e+01 4.1138724922462500e-03 0.0000000000000000e+00  -2.4521366916180416e+01 3.6888473768137710e-03 0.0000000000000000e+00  -2.4520530727344713e+01 3.4394270001711787e-03 0.0000000000000000e+00  -2.4519339140770267e+01 3.3059260951180274e-03 0.0000000000000000e+00  -2.4517960129217098e+01 3.2327541058065476e-03 0.0000000000000000e+00  -2.4516483404513501e+01 3.1964707930713680e-03 0.0000000000000000e+00  -2.4515009220945842e+01 3.2077240412933762e-03 0.0000000000000000e+00  -2.4513680584586758e+01 3.2788256196026274e-03 0.0000000000000000e+00  -2.4512619776520321e+01 3.3921026553713281e-03 0.0000000000000000e+00  -2.4511867025390615e+01 3.5133883648874190e-03 0.0000000000000000e+00  -2.4511383842897299e+01 3.6148628589083446e-03 0.0000000000000000e+00  -2.4511095386716676e+01 3.6863062452910985e-03 0.0000000000000000e+00  -2.4510928955668223e+01 3.7304084260722510e-03 0.0000000000000000e+00  -2.4510831472796763e+01 3.7552657639377597e-03 0.0000000000000000e+00  -2.4510770685618933e+01 3.7685755796588497e-03 0.0000000000000000e+00  -2.4510729449863764e+01 3.7758115639532010e-03 0.0000000000000000e+00  -2.4510699505606212e+01 3.7800818376072603e-03 0.0000000000000000e+00  -2.4510677006396662e+01 3.7829532709635545e-03 0.0000000000000000e+00  -2.4510660011475942e+01 3.7850796021527142e-03 0.0000000000000000e+00  -2.4510647292719003e+01 3.7867274676473108e-03 0.0000000000000000e+00  -2.4510637892075277e+01 3.7879934869896963e-03 0.0000000000000000e+00  -2.4510630993017301e+01 3.7889426735673347e-03 0.0000000000000000e+00  -2.4510625914305450e+01 3.7896280217058313e-03 0.0000000000000000e+00  -2.4510622114294048e+01 3.7901085141750384e-03 0.0000000000000000e+00  -2.4510619189246455e+01 3.7904363135028160e-03 0.0000000000000000e+00  -2.4510616853643786e+01 3.7906579882080967e-03 0.0000000000000000e+00  -2.4510614916868658e+01 3.7908085354508660e-03 0.0000000000000000e+00  -2.4510613257372736e+01 3.7909143880667253e-03 0.0000000000000000e+00  -2.4510611801764792e+01 3.7909929074905024e-03 0.0000000000000000e+00  -2.4510610506766994e+01 3.7910553409989862e-03 0.0000000000000000e+00  -2.4510609346722070e+01 3.7911078173551867e-03 0.0000000000000000e+00  -2.4510608304945364e+01 3.7911537060345930e-03 0.0000000000000000e+00  -2.4510607369316283e+01 3.7911945721114662e-03 0.0000000000000000e+00  -2.4510606529937434e+01 3.7912313272795060e-03 0.0000000000000000e+00  -2.4510605778512161e+01 3.7912645758514177e-03 0.0000000000000000e+00  -2.4510605108258027e+01 3.7912949788292535e-03 0.0000000000000000e+00  -2.4510604513847330e+01 3.7913230814979296e-03 0.0000000000000000e+00  -2.4510603990614172e+01 3.7913491215465366e-03 0.0000000000000000e+00  -2.4510603533593351e+01 3.7913729777215199e-03 0.0000000000000000e+00  -2.4510603137150156e+01 3.7913944777240830e-03 0.0000000000000000e+00  -2.4510602795443781e+01 3.7914136513787938e-03 0.0000000000000000e+00  -2.4510602502890308e+01 3.7914306687935563e-03 0.0000000000000000e+00  -2.4510602253884699e+01 3.7914455350320283e-03 0.0000000000000000e+00  -2.4510602042047132e+01 3.7914579737627972e-03 0.0000000000000000e+00  -2.4510601860031777e+01 3.7914677052594691e-03 0.0000000000000000e+00  -2.4510601700396876e+01 3.7914748162923072e-03 0.0000000000000000e+00  -2.4510601556912594e+01 3.7914798528841348e-03 0.0000000000000000e+00  -2.4510601425236853e+01 3.7914835071250438e-03 0.0000000000000000e+00  -2.4510601302304632e+01 3.7914862012394255e-03 0.0000000000000000e+00  -2.4510601185380150e+01 3.7914879285696353e-03 0.0000000000000000e+00  -2.4510601070804917e+01 3.7914885269436944e-03 0.0000000000000000e+00  -2.4510600956065883e+01 3.7914879917575750e-03 0.0000000000000000e+00  -2.4510600836283505e+01 3.7914869213828460e-03 0.0000000000000000e+00  -2.4510600718551114e+01 3.7914858596612717e-03 0.0000000000000000e+00  -2.4510600585271732e+01 3.7914863412357512e-03 0.0000000000000000e+00  -2.4510600495032012e+01 3.7914871423134666e-03 0.0000000000000000e+00  -2.4510600304801024e+01 3.7914924237567116e-03 0.0000000000000000e+00  -2.4510600410994936e+01 3.7914927739181679e-03 0.0000000000000000e+00  -2.4510599790460148e+01 3.7915076769233871e-03 0.0000000000000000e+00  -2.4510601070991513e+01 3.7914981398003071e-03 0.0000000000000000e+00  -2.4510597695735058e+01 3.7915350134316360e-03 0.0000000000000000e+00  -2.4510605540805386e+01 3.7914980878613570e-03 0.0000000000000000e+00  -2.4510587391783570e+01 3.7915762750819443e-03 0.0000000000000000e+00  -2.4510626375669794e+01 3.7912006136332737e-03 0.0000000000000000e+00  -2.4510544447821591e+01 3.7922329621611147e-03 0.0000000000000000e+00  -2.4510694605853949e+01 3.7840986107783824e-03 0.0000000000000000e+00  -2.4510409608264439e+01 3.8027669448023578e-03 0.0000000000000000e+00  -2.4510789301898939e+01 3.6885376024116535e-03 0.0000000000000000e+00  -2.4510017278182151e+01 3.8360654433383960e-03 0.0000000000000000e+00  -2.4510274018218308e+01 2.7709788428040031e-03 0.0000000000000000e+00  -2.4509330674035098e+01 4.2464152957008994e-03 0.0000000000000000e+00  -2.4514667838061605e+01 7.3460975562903040e-03 0.0000000000000000e+00  -2.4541483856177798e+01 3.4705041407076441e-02 0.0000000000000000e+00  -2.4529074309346445e+01 5.7181526720936383e-02 0.0000000000000000e+00  -2.4531389708637118e+01 0.0000000000000000e+00 0.0000000000000000e+00  -2.4299379597152438e+01 0.0000000000000000e+00 0.0000000000000000e+00  -2.4299900359155952e+01 1.3266096575385782e-02 0.0000000000000000e+00  -2.4301441836023454e+01 9.8869246086877392e-03 0.0000000000000000e+00  -2.4302262210625070e+01 6.3346504657503530e-03 0.0000000000000000e+00  -2.4302144783832812e+01 3.5956776469041351e-03 0.0000000000000000e+00  -2.4301581554636435e+01 1.6892222076203478e-03 0.0000000000000000e+00  -2.4300878603864913e+01 4.6222543717085494e-04 0.0000000000000000e+00  -2.4300162217150874e+01 -2.7514006746536283e-04 0.0000000000000000e+00  -2.4299457404486610e+01 -7.0619626748711240e-04 0.0000000000000000e+00  -2.4298746989489683e+01 -9.3304673549975841e-04 0.0000000000000000e+00  -2.4298041268685648e+01 -1.0596510258846802e-03 0.0000000000000000e+00  -2.4297319301941144e+01 -1.1215357200388392e-03 0.0000000000000000e+00  -2.4296586566768276e+01 -1.0626008368782528e-03 0.0000000000000000e+00  -2.4295924206976832e+01 -8.5019063162632960e-04 0.0000000000000000e+00  -2.4295419207963931e+01 -5.4804133984360083e-04 0.0000000000000000e+00  -2.4295091923109773e+01 -2.5074962163190002e-04 0.0000000000000000e+00  -2.4294906026767631e+01 -1.9690101273215813e-05 0.0000000000000000e+00  -2.4294808426030741e+01 1.3274274884834719e-04 0.0000000000000000e+00  -2.4294757197255691e+01 2.2172869210767383e-04 0.0000000000000000e+00  -2.4294727311522404e+01 2.6983283625087764e-04 0.0000000000000000e+00  -2.4294706881363499e+01 2.9511998208094314e-04 0.0000000000000000e+00  -2.4294691130182002e+01 3.0913507873445357e-04 0.0000000000000000e+00  -2.4294678510081365e+01 3.1786075831702722e-04 0.0000000000000000e+00  -2.4294668468889245e+01 3.2408095973145265e-04 0.0000000000000000e+00  -2.4294660684087120e+01 3.2884809241254536e-04 0.0000000000000000e+00  -2.4294654776156278e+01 3.3257428724099307e-04 0.0000000000000000e+00  -2.4294650346766762e+01 3.3541722904054680e-04 0.0000000000000000e+00  -2.4294647005311699e+01 3.3751872175920679e-04 0.0000000000000000e+00  -2.4294644426646634e+01 3.3901203576771835e-04 0.0000000000000000e+00  -2.4294642357315933e+01 3.4004332441134696e-04 0.0000000000000000e+00  -2.4294640620007957e+01 3.4073878790912899e-04 0.0000000000000000e+00  -2.4294639095612876e+01 3.4120609331273681e-04 0.0000000000000000e+00  -2.4294637710566576e+01 3.4152442601558973e-04 0.0000000000000000e+00  -2.4294636422207834e+01 3.4175190277020251e-04 0.0000000000000000e+00  -2.4294635209750329e+01 3.4192602742889514e-04 0.0000000000000000e+00  -2.4294634065153030e+01 3.4206990427461089e-04 0.0000000000000000e+00  -2.4294632986637641e+01 3.4219549452331455e-04 0.0000000000000000e+00  -2.4294631974447086e+01 3.4230886073723148e-04 0.0000000000000000e+00  -2.4294631029183723e+01 3.4241276083638576e-04 0.0000000000000000e+00  -2.4294630151354170e+01 3.4250879928319447e-04 0.0000000000000000e+00  -2.4294629341496893e+01 3.4259838689646918e-04 0.0000000000000000e+00  -2.4294628600878138e+01 3.4268314932957424e-04 0.0000000000000000e+00  -2.4294627931595251e+01 3.4276420666722442e-04 0.0000000000000000e+00  -2.4294627335468345e+01 3.4284139356025885e-04 0.0000000000000000e+00  -2.4294626812298556e+01 3.4291355820447817e-04 0.0000000000000000e+00  -2.4294626359488451e+01 3.4297979397287902e-04 0.0000000000000000e+00  -2.4294625973195426e+01 3.4304009868587666e-04 0.0000000000000000e+00  -2.4294625649457668e+01 3.4309466573351400e-04 0.0000000000000000e+00  -2.4294625383636603e+01 3.4314279797949189e-04 0.0000000000000000e+00  -2.4294625168915882e+01 3.4318294318672299e-04 0.0000000000000000e+00  -2.4294624995878255e+01 3.4321403360003014e-04 0.0000000000000000e+00  -2.4294624854219400e+01 3.4323670191780309e-04 0.0000000000000000e+00  -2.4294624735308343e+01 3.4325309335263976e-04 0.0000000000000000e+00  -2.4294624633413530e+01 3.4326538742020707e-04 0.0000000000000000e+00  -2.4294624544742785e+01 3.4327444464800019e-04 0.0000000000000000e+00  -2.4294624465185958e+01 3.4327970609798904e-04 0.0000000000000000e+00  -2.4294624389559463e+01 3.4328050173275415e-04 0.0000000000000000e+00  -2.4294624311147842e+01 3.4327717465380527e-04 0.0000000000000000e+00  -2.4294624227374683e+01 3.4327234388528222e-04 0.0000000000000000e+00  -2.4294624132154294e+01 3.4326788229781523e-04 0.0000000000000000e+00  -2.4294624042674741e+01 3.4327019494372751e-04 0.0000000000000000e+00  -2.4294623927148351e+01 3.4327026143073482e-04 0.0000000000000000e+00  -2.4294623891997027e+01 3.4329724505563746e-04 0.0000000000000000e+00  -2.4294623684411199e+01 3.4326819351997726e-04 0.0000000000000000e+00  -2.4294623966559264e+01 3.4340675305233900e-04 0.0000000000000000e+00  -2.4294623105091983e+01 3.4310228022697636e-04 0.0000000000000000e+00  -2.4294625050541125e+01 3.4396076512721509e-04 0.0000000000000000e+00  -2.4294620522398695e+01 3.4178856225180359e-04 0.0000000000000000e+00  -2.4294630356929886e+01 3.4698785794464799e-04 0.0000000000000000e+00  -2.4294609189792077e+01 3.3388390281498031e-04 0.0000000000000000e+00  -2.4294649225902432e+01 3.6082218912492894e-04 0.0000000000000000e+00  -2.4294569527869509e+01 2.9472166819252162e-04 0.0000000000000000e+00  -2.4294692247790739e+01 3.9864318726158548e-04 0.0000000000000000e+00  -2.4294467019972984e+01 1.2842992969076269e-04 0.0000000000000000e+00  -2.4294778339556405e+01 3.2889203287248214e-04 0.0000000000000000e+00  -2.4294459498333929e+01 -3.9927113422422639e-04 0.0000000000000000e+00  -2.4296276810824835e+01 1.0183898461641474e-03 0.0000000000000000e+00  -2.4291717521274087e+01 6.2474098969876601e-03 0.0000000000000000e+00  -2.4278166531993843e+01 1.2641028936001171e-02 0.0000000000000000e+00  -2.4230553229011527e+01 -1.2622440735017063e-02 0.0000000000000000e+00  -2.4293972876841600e+01 0.0000000000000000e+00 0.0000000000000000e+00  -2.0509991399155940e+01 0.0000000000000000e+00 0.0000000000000000e+00  -2.0498421352838875e+01 7.7291289319082138e-03 0.0000000000000000e+00  -2.0487635681858759e+01 5.4745528123259389e-03 0.0000000000000000e+00  -2.0480730075070525e+01 2.6529276507065887e-03 0.0000000000000000e+00  -2.0476745276413748e+01 5.7695941856638244e-04 0.0000000000000000e+00  -2.0474810221864093e+01 -8.0812914861371475e-04 0.0000000000000000e+00  -2.0474231894410295e+01 -1.6664799638375031e-03 0.0000000000000000e+00  -2.0474498702839611e+01 -2.1681204051296836e-03 0.0000000000000000e+00  -2.0475265746396840e+01 -2.4692331961510567e-03 0.0000000000000000e+00  -2.0476306333895256e+01 -2.6359959727924494e-03 0.0000000000000000e+00  -2.0477489274309125e+01 -2.7263728092196578e-03 0.0000000000000000e+00  -2.0478753049461698e+01 -2.7879618656330009e-03 0.0000000000000000e+00  -2.0480006396168751e+01 -2.7640097877729966e-03 0.0000000000000000e+00  -2.0481118636578845e+01 -2.5945749880960764e-03 0.0000000000000000e+00  -2.0481989192083457e+01 -2.3250527483013759e-03 0.0000000000000000e+00  -2.0482595701317997e+01 -2.0499376707212537e-03 0.0000000000000000e+00  -2.0482979569763231e+01 -1.8344480005701011e-03 0.0000000000000000e+00  -2.0483207084033090e+01 -1.6934584174523473e-03 0.0000000000000000e+00  -2.0483338401537125e+01 -1.6124945126982215e-03 0.0000000000000000e+00  -2.0483415941965756e+01 -1.5696954928647513e-03 0.0000000000000000e+00  -2.0483464807692606e+01 -1.5476771155439979e-03 0.0000000000000000e+00  -2.0483498189043548e+01 -1.5356463829229769e-03 0.0000000000000000e+00  -2.0483522382842818e+01 -1.5281300466674127e-03 0.0000000000000000e+00  -2.0483540373247241e+01 -1.5227017066259544e-03 0.0000000000000000e+00  -2.0483553703849864e+01 -1.5184804401873965e-03 0.0000000000000000e+00  -2.0483563403477348e+01 -1.5151556880718430e-03 0.0000000000000000e+00  -2.0483570284676993e+01 -1.5126102339227130e-03 0.0000000000000000e+00  -2.0483575044665773e+01 -1.5107331560481796e-03 0.0000000000000000e+00  -2.0483578256424600e+01 -1.5094062297283416e-03 0.0000000000000000e+00  -2.0483580374426612e+01 -1.5084982895900440e-03 0.0000000000000000e+00  -2.0483581735211487e+01 -1.5078928003306074e-03 0.0000000000000000e+00  -2.0483582577629623e+01 -1.5074921411281882e-03 0.0000000000000000e+00  -2.0483583060817686e+01 -1.5072235971772690e-03 0.0000000000000000e+00  -2.0483583288653179e+01 -1.5070332432102070e-03 0.0000000000000000e+00  -2.0483583328751312e+01 -1.5068848373558973e-03 0.0000000000000000e+00  -2.0483583228128115e+01 -1.5067562315940824e-03 0.0000000000000000e+00  -2.0483583021247043e+01 -1.5066365579461038e-03 0.0000000000000000e+00  -2.0483582735088927e+01 -1.5065210861497456e-03