<?xml version="1.0"?>
<VTKFile type="UnstructuredGrid"  version="0.1"  >
<UnstructuredGrid>
<Piece  NumberOfPoints="1369" NumberOfCells="2560">
<Points>
<DataArray  type="Float64"  NumberOfComponents="3"  format="ascii">0 0 0  0.75 0 0  1.5 0 0  2.25 0 0  3 0 0  3.75 0 0  4.5 0 0  5.25 0 0  6 0 0  6.75 0 0  7.5 0 0  8.25 0 0  9 0 0  9.75 0 0  10.5 0 0  11.25 0 0  12 0 0  12.75 0 0  13.5 0 0  14.25 0 0  15 0 0  15.75 0 0  16.5 0 0  17.25 0 0  18 0 0  18.75 0 0  19.5 0 0  20.25 0 0  21 0 0  21.75 0 0  22.5 0 0  23.25 0 0  24 0 0  24.75 0 0  25.5 0 0  26.25 0 0  27 0 0  27.75 0 0  28.5 0 0  29.25 0 0  30 0 0  30.75 0 0  31.5 0 0  32.25 0 0  33 0 0  33.75 0 0  34.5 0 0  35.25 0 0  36 0 0  36.75 0 0  37.5 0 0  38.25 0 0  39 0 0  39.75 0 0  40.5 0 0  41.25 0 0  42 0 0  42.75 0 0  43.5 0 0  44.25 0 0  45 0 0  45.75 0 0  46.5 0 0  47.25 0 0  48 0 0  48.75 0 0  49.5 0 0  50.25 0 0  51 0 0  51.75 0 0  52.5 0 0  53.25 0 0  54 0 0  54.75 0 0  55.5 0 0  56.25 0 0  57 0 0  57.75 0 0  58.5 0 0  59.25 0 0  60 0 0  0 0.5 0  0.75 0.5 0  1.5 0.5 0  2.25 0.5 0  3 0.5 0  3.75 0.5 0  4.5 0.5 0  5.25 0.5 0  6 0.5 0  6.75 0.5 0  7.5 0.5 0  8.25 0.5 0  9 0.5 0  9.75 0.5 0  10.5 0.5 0  11.25 0.5 0  12 0.5 0  12.75 0.5 0  13.5 0.5 0  14.25 0.5 0  15 0.5 0  15.75 0.5 0  16.5 0.5 0  17.25 0.5 0  18 0.5 0  18.75 0.5 0  19.5 0.5 0  20.25 0.5 0  21 0.5 0  21.75 0.5 0  22.5 0.5 0  23.25 0.5 0  24 0.5 0  24.75 0.5 0  25.5 0.5 0  26.25 0.5 0  27 0.5 0  27.75 0.5 0  28.5 0.5 0  29.25 0.5 0  30 0.5 0  30.75 0.5 0  31.5 0.5 0  32.25 0.5 0  33 0.5 0  33.75 0.5 0  34.5 0.5 0  35.25 0.5 0  36 0.5 0  36.75 0.5 0  37.5 0.5 0  38.25 0.5 0  39 0.5 0  39.75 0.5 0  40.5 0.5 0  41.25 0.5 0  42 0.5 0  42.75 0.5 0  43.5 0.5 0  44.25 0.5 0  45 0.5 0  45.75 0.5 0  46.5 0.5 0  47.25 0.5 0  48 0.5 0  48.75 0.5 0  49.5 0.5 0  50.25 0.5 0  51 0.5 0  51.75 0.5 0  52.5 0.5 0  53.25 0.5 0  54 0.5 0  54.75 0.5 0  55.5 0.5 0  56.25 0.5 0  57 0.5 0  57.75 0.5 0  58.5 0.5 0  59.25 0.5 0  60 0.5 0  0 1 0  0.75 1 0  1.5 1 0  2.25 1 0  3 1 0  3.75 1 0  4.5 1 0  5.25 1 0  6 1 0  6.75 1 0  7.5 1 0  8.25 1 0  9 1 0  9.75 1 0  10.5 1 0  11.25 1 0  12 1 0  12.75 1 0  13.5 1 0  14.25 1 0  15 1 0  15.75 1 0  16.5 1 0  17.25 1 0  18 1 0  18.75 1 0  19.5 1 0  20.25 1 0  21 1 0  21.75 1 0  22.5 1 0  23.25 1 0  24 1 0  24.75 1 0  25.5 1 0  26.25 1 0  27 1 0  27.75 1 0  28.5 1 0  29.25 1 0  30 1 0  30.75 1 0  31.5 1 0  32.25 1 0  33 1 0  33.75 1 0  34.5 1 0  35.25 1 0  36 1 0  36.75 1 0  37.5 1 0  38.25 1 0  39 1 0  39.75 1 0  40.5 1 0  41.25 1 0  42 1 0  42.75 1 0  43.5 1 0  44.25 1 0  45 1 0  45.75 1 0  46.5 1 0  47.25 1 0  48 1 0  48.75 1 0  49.5 1 0  50.25 1 0  51 1 0  51.75 1 0  52.5 1 0  53.25 1 0  54 1 0  54.75 1 0  55.5 1 0  56.25 1 0  57 1 0  57.75 1 0  58.5 1 0  59.25 1 0  60 1 0  0 1.5 0  0.75 1.5 0  1.5 1.5 0  2.25 1.5 0  3 1.5 0  3.75 1.5 0  4.5 1.5 0  5.25 1.5 0  6 1.5 0  6.75 1.5 0  7.5 1.5 0  8.25 1.5 0  9 1.5 0  9.75 1.5 0  10.5 1.5 0  11.25 1.5 0  12 1.5 0  12.75 1.5 0  13.5 1.5 0  14.25 1.5 0  15 1.5 0  15.75 1.5 0  16.5 1.5 0  17.25 1.5 0  18 1.5 0  18.75 1.5 0  19.5 1.5 0  20.25 1.5 0  21 1.5 0  21.75 1.5 0  22.5 1.5 0  23.25 1.5 0  24 1.5 0  24.75 1.5 0  25.5 1.5 0  26.25 1.5 0  27 1.5 0  27.75 1.5 0  28.5 1.5 0  29.25 1.5 0  30 1.5 0  30.75 1.5 0  31.5 1.5 0  32.25 1.5 0  33 1.5 0  33.75 1.5 0  34.5 1.5 0  35.25 1.5 0  36 1.5 0  36.75 1.5 0  37.5 1.5 0  38.25 1.5 0  39 1.5 0  39.75 1.5 0  40.5 1.5 0  41.25 1.5 0  42 1.5 0  42.75 1.5 0  43.5 1.5 0  44.25 1.5 0  45 1.5 0  45.75 1.5 0  46.5 1.5 0  47.25 1.5 0  48 1.5 0  48.75 1.5 0  49.5 1.5 0  50.25 1.5 0  51 1.5 0  51.75 1.5 0  52.5 1.5 0  53.25 1.5 0  54 1.5 0  54.75 1.5 0  55.5 1.5 0  56.25 1.5 0  57 1.5 0  57.75 1.5 0  58.5 1.5 0  59.25 1.5 0  60 1.5 0  0 2 0  0.75 2 0  1.5 2 0  2.25 2 0  3 2 0  3.75 2 0  4.5 2 0  5.25 2 0  6 2 0  6.75 2 0  7.5 2 0  8.25 2 0  9 2 0  9.75 2 0  10.5 2 0  11.25 2 0  12 2 0  12.75 2 0  13.5 2 0  14.25 2 0  15 2 0  15.75 2 0  16.5 2 0  17.25 2 0  18 2 0  18.75 2 0  19.5 2 0  20.25 2 0  21 2 0  21.75 2 0  22.5 2 0  23.25 2 0  24 2 0  24.75 2 0  25.5 2 0  26.25 2 0  27 2 0  27.75 2 0  28.5 2 0  29.25 2 0  30 2 0  30.75 2 0  31.5 2 0  32.25 2 0  33 2 0  33.75 2 0  34.5 2 0  35.25 2 0  36 2 0  36.75 2 0  37.5 2 0  38.25 2 0  39 2 0  39.75 2 0  40.5 2 0  41.25 2 0  42 2 0  42.75 2 0  43.5 2 0  44.25 2 0  45 2 0  45.75 2 0  46.5 2 0  47.25 2 0  48 2 0  48.75 2 0  49.5 2 0  50.25 2 0  51 2 0  51.75 2 0  52.5 2 0  53.25 2 0  54 2 0  54.75 2 0  55.5 2 0  56.25 2 0  57 2 0  57.75 2 0  58.5 2 0  59.25 2 0  60 2 0  0 2.5 0  0.75 2.5 0  1.5 2.5 0  2.25 2.5 0  3 2.5 0  3.75 2.5 0  4.5 2.5 0  5.25 2.5 0  6 2.5 0  6.75 2.5 0  7.5 2.5 0  8.25 2.5 0  9 2.5 0  9.75 2.5 0  10.5 2.5 0  11.25 2.5 0  12 2.5 0  12.75 2.5 0  13.5 2.5 0  14.25 2.5 0  15 2.5 0  15.75 2.5 0  16.5 2.5 0  17.25 2.5 0  18 2.5 0  18.75 2.5 0  19.5 2.5 0  20.25 2.5 0  21 2.5 0  21.75 2.5 0  22.5 2.5 0  23.25 2.5 0  24 2.5 0  24.75 2.5 0  25.5 2.5 0  26.25 2.5 0  27 2.5 0  27.75 2.5 0  28.5 2.5 0  29.25 2.5 0  30 2.5 0  30.75 2.5 0  31.5 2.5 0  32.25 2.5 0  33 2.5 0  33.75 2.5 0  34.5 2.5 0  35.25 2.5 0  36 2.5 0  36.75 2.5 0  37.5 2.5 0  38.25 2.5 0  39 2.5 0  39.75 2.5 0  40.5 2.5 0  41.25 2.5 0  42 2.5 0  42.75 2.5 0  43.5 2.5 0  44.25 2.5 0  45 2.5 0  45.75 2.5 0  46.5 2.5 0  47.25 2.5 0  48 2.5 0  48.75 2.5 0  49.5 2.5 0  50.25 2.5 0  51 2.5 0  51.75 2.5 0  52.5 2.5 0  53.25 2.5 0  54 2.5 0  54.75 2.5 0  55.5 2.5 0  56.25 2.5 0  57 2.5 0  57.75 2.5 0  58.5 2.5 0  59.25 2.5 0  60 2.5 0  0 3 0  0.75 3 0  1.5 3 0  2.25 3 0  3 3 0  3.75 3 0  4.5 3 0  5.25 3 0  6 3 0  6.75 3 0  7.5 3 0  8.25 3 0  9 3 0  9.75 3 0  10.5 3 0  11.25 3 0  12 3 0  12.75 3 0  13.5 3 0  14.25 3 0  15 3 0  15.75 3 0  16.5 3 0  17.25 3 0  18 3 0  18.75 3 0  19.5 3 0  20.25 3 0  21 3 0  21.75 3 0  22.5 3 0  23.25 3 0  24 3 0  24.75 3 0  25.5 3 0  26.25 3 0  27 3 0  27.75 3 0  28.5 3 0  29.25 3 0  30 3 0  30.75 3 0  31.5 3 0  32.25 3 0  33 3 0  33.75 3 0  34.5 3 0  35.25 3 0  36 3 0  36.75 3 0  37.5 3 0  38.25 3 0  39 3 0  39.75 3 0  40.5 3 0  41.25 3 0  42 3 0  42.75 3 0  43.5 3 0  44.25 3 0  45 3 0  45.75 3 0  46.5 3 0  47.25 3 0  48 3 0  48.75 3 0  49.5 3 0  50.25 3 0  51 3 0  51.75 3 0  52.5 3 0  53.25 3 0  54 3 0  54.75 3 0  55.5 3 0  56.25 3 0  57 3 0  57.75 3 0  58.5 3 0  59.25 3 0  60 3 0  0 3.5 0  0.75 3.5 0  1.5 3.5 0  2.25 3.5 0  3 3.5 0  3.75 3.5 0  4.5 3.5 0  5.25 3.5 0  6 3.5 0  6.75 3.5 0  7.5 3.5 0  8.25 3.5 0  9 3.5 0  9.75 3.5 0  10.5 3.5 0  11.25 3.5 0  12 3.5 0  12.75 3.5 0  13.5 3.5 0  14.25 3.5 0  15 3.5 0  15.75 3.5 0  16.5 3.5 0  17.25 3.5 0  18 3.5 0  18.75 3.5 0  19.5 3.5 0  20.25 3.5 0  21 3.5 0  21.75 3.5 0  22.5 3.5 0  23.25 3.5 0  24 3.5 0  24.75 3.5 0  25.5 3.5 0  26.25 3.5 0  27 3.5 0  27.75 3.5 0  28.5 3.5 0  29.25 3.5 0  30 3.5 0  30.75 3.5 0  31.5 3.5 0  32.25 3.5 0  33 3.5 0  33.75 3.5 0  34.5 3.5 0  35.25 3.5 0  36 3.5 0  36.75 3.5 0  37.5 3.5 0  38.25 3.5 0  39 3.5 0  39.75 3.5 0  40.5 3.5 0  41.25 3.5 0  42 3.5 0  42.75 3.5 0  43.5 3.5 0  44.25 3.5 0  45 3.5 0  45.75 3.5 0  46.5 3.5 0  47.25 3.5 0  48 3.5 0  48.75 3.5 0  49.5 3.5 0  50.25 3.5 0  51 3.5 0  51.75 3.5 0  52.5 3.5 0  53.25 3.5 0  54 3.5 0  54.75 3.5 0  55.5 3.5 0  56.25 3.5 0  57 3.5 0  57.75 3.5 0  58.5 3.5 0  59.25 3.5 0  60 3.5 0  0 4 0  0.75 4 0  1.5 4 0  2.25 4 0  3 4 0  3.75 4 0  4.5 4 0  5.25 4 0  6 4 0  6.75 4 0  7.5 4 0  8.25 4 0  9 4 0  9.75 4 0  10.5 4 0  11.25 4 0  12 4 0  12.75 4 0  13.5 4 0  14.25 4 0  15 4 0  15.75 4 0  16.5 4 0  17.25 4 0  18 4 0  18.75 4 0  19.5 4 0  20.25 4 0  21 4 0  21.75 4 0  22.5 4 0  23.25 4 0  24 4 0  24.75 4 0  25.5 4 0  26.25 4 0  27 4 0  27.75 4 0  28.5 4 0  29.25 4 0  30 4 0  30.75 4 0  31.5 4 0  32.25 4 0  33 4 0  33.75 4 0  34.5 4 0  35.25 4 0  36 4 0  36.75 4 0  37.5 4 0  38.25 4 0  39 4 0  39.75 4 0  40.5 4 0  41.25 4 0  42 4 0  42.75 4 0  43.5 4 0  44.25 4 0  45 4 0  45.75 4 0  46.5 4 0  47.25 4 0  48 4 0  48.75 4 0  49.5 4 0  50.25 4 0  51 4 0  51.75 4 0  52.5 4 0  53.25 4 0  54 4 0  54.75 4 0  55.5 4 0  56.25 4 0  57 4 0  57.75 4 0  58.5 4 0  59.25 4 0  60 4 0  0.375 0.25 0  1.125 0.25 0  1.875 0.25 0  2.625 0.25 0  3.375 0.25 0  4.125 0.25 0  4.875 0.25 0  5.625 0.25 0  6.375 0.25 0  7.125 0.25 0  7.875 0.25 0  8.625 0.25 0  9.375 0.25 0  10.125 0.25 0  10.875 0.25 0  11.625 0.25 0  12.375 0.25 0  13.125 0.25 0  13.875 0.25 0  14.625 0.25 0  15.375 0.25 0  16.125 0.25 0  16.875 0.25 0  17.625 0.25 0  18.375 0.25 0  19.125 0.25 0  19.875 0.25 0  20.625 0.25 0  21.375 0.25 0  22.125 0.25 0  22.875 0.25 0  23.625 0.25 0  24.375 0.25 0  25.125 0.25 0  25.875 0.25 0  26.625 0.25 0  27.375 0.25 0  28.125 0.25 0  28.875 0.25 0  29.625 0.25 0  30.375 0.25 0  31.125 0.25 0  31.875 0.25 0  32.625 0.25 0  33.375 0.25 0  34.125 0.25 0  34.875 0.25 0  35.625 0.25 0  36.375 0.25 0  37.125 0.25 0  37.875 0.25 0  38.625 0.25 0  39.375 0.25 0  40.125 0.25 0  40.875 0.25 0  41.625 0.25 0  42.375 0.25 0  43.125 0.25 0  43.875 0.25 0  44.625 0.25 0  45.375 0.25 0  46.125 0.25 0  46.875 0.25 0  47.625 0.25 0  48.375 0.25 0  49.125 0.25 0  49.875 0.25 0  50.625 0.25 0  51.375 0.25 0  52.125 0.25 0  52.875 0.25 0  53.625 0.25 0  54.375 0.25 0  55.125 0.25 0  55.875 0.25 0  56.625 0.25 0  57.375 0.25 0  58.125 0.25 0  58.875 0.25 0  59.625 0.25 0  0.375 0.75 0  1.125 0.75 0  1.875 0.75 0  2.625 0.75 0  3.375 0.75 0  4.125 0.75 0  4.875 0.75 0  5.625 0.75 0  6.375 0.75 0  7.125 0.75 0  7.875 0.75 0  8.625 0.75 0  9.375 0.75 0  10.125 0.75 0  10.875 0.75 0  11.625 0.75 0  12.375 0.75 0  13.125 0.75 0  13.875 0.75 0  14.625 0.75 0  15.375 0.75 0  16.125 0.75 0  16.875 0.75 0  17.625 0.75 0  18.375 0.75 0  19.125 0.75 0  19.875 0.75 0  20.625 0.75 0  21.375 0.75 0  22.125 0.75 0  22.875 0.75 0  23.625 0.75 0  24.375 0.75 0  25.125 0.75 0  25.875 0.75 0  26.625 0.75 0  27.375 0.75 0  28.125 0.75 0  28.875 0.75 0  29.625 0.75 0  30.375 0.75 0  31.125 0.75 0  31.875 0.75 0  32.625 0.75 0  33.375 0.75 0  34.125 0.75 0  34.875 0.75 0  35.625 0.75 0  36.375 0.75 0  37.125 0.75 0  37.875 0.75 0  38.625 0.75 0  39.375 0.75 0  40.125 0.75 0  40
[...]
<PointData  Vectors="f_8-0"> 
<DataArray  type="Float64"  Name="f_8-0"  NumberOfComponents="3" format="ascii">0.0000000000000000e+00 0.0000000000000000e+00 0.0000000000000000e+00  0.0000000000000000e+00 0.0000000000000000e+00 0.0000000000000000e+00  0.0000000000000000e+00 0.0000000000000000e+00 0.0000000000000000e+00  0.0000000000000000e+00 0.0000000000000000e+00 0.0000000000000000e+00  0.0000000000000000e+00 0.0000000000000000e+00 0.0000000000000000e+00  0.0000000000000000e+00 0.0000000000000000e+00 0.0000000000000000e+00  0.0000000000000000e+00 0.0000000000000000e+00 0.0000000000000000e+00  0.0000000000000000e+00 0.0000000000000000e+00 0.0000000000000000e+00  0.0000000000000000e+00 0.0000000000000000e+00 0.0000000000000000e+00  0.0000000000000000e+00 0.0000000000000000e+00 0.0000000000000000e+00  0.0000000000000000e+00 0.0000000000000000e+00 0.0000000000000000e+00  0.0000000000000000e+00 0.0000000000000000e+00 0.0000000000000000e+00  0.0000000000000000e+00 0.0000000000000000e+00 0.0000000000000000e+00  0.0000000000000000e+00 0.0000000000000000e+00 0.0000000000000000e+00  0.0000000000000000e+00 0.0000000000000000e+00 0.0000000000000000e+00  0.0000000000000000e+00 0.0000000000000000e+00 0.0000000000000000e+00  0.0000000000000000e+00 0.0000000000000000e+00 0.0000000000000000e+00  0.0000000000000000e+00 0.0000000000000000e+00 0.0000000000000000e+00  0.0000000000000000e+00 0.0000000000000000e+00 0.0000000000000000e+00  0.0000000000000000e+00 0.0000000000000000e+00 0.0000000000000000e+00  0.0000000000000000e+00 0.0000000000000000e+00 0.0000000000000000e+00  0.0000000000000000e+00 0.0000000000000000e+00 0.0000000000000000e+00  0.0000000000000000e+00 0.0000000000000000e+00 0.0000000000000000e+00  0.0000000000000000e+00 0.0000000000000000e+00 0.0000000000000000e+00  0.0000000000000000e+00 0.0000000000000000e+00 0.0000000000000000e+00  0.0000000000000000e+00 0.0000000000000000e+00 0.0000000000000000e+00  0.0000000000000000e+00 0.0000000000000000e+00 0.0000000000000000e+00  0.0000000000000000e+00 0.0000000000000000e+00 0.0000000000000000e+00  0.0000000000000000e+00 0.0000000000000000e+00 0.0000000000000000e+00  0.0000000000000000e+00 0.0000000000000000e+00 0.0000000000000000e+00  0.0000000000000000e+00 0.0000000000000000e+00 0.0000000000000000e+00  0.0000000000000000e+00 0.0000000000000000e+00 0.0000000000000000e+00  0.0000000000000000e+00 0.0000000000000000e+00 0.0000000000000000e+00  0.0000000000000000e+00 0.0000000000000000e+00 0.0000000000000000e+00  0.0000000000000000e+00 0.0000000000000000e+00 0.0000000000000000e+00  0.0000000000000000e+00 0.0000000000000000e+00 0.0000000000000000e+00  0.0000000000000000e+00 0.0000000000000000e+00 0.0000000000000000e+00  0.0000000000000000e+00 0.0000000000000000e+00 0.0000000000000000e+00  0.0000000000000000e+00 0.0000000000000000e+00 0.0000000000000000e+00  0.0000000000000000e+00 0.0000000000000000e+00 0.0000000000000000e+00  0.0000000000000000e+00 0.0000000000000000e+00 0.0000000000000000e+00  0.0000000000000000e+00 0.0000000000000000e+00 0.0000000000000000e+00  0.0000000000000000e+00 0.0000000000000000e+00 0.0000000000000000e+00  0.0000000000000000e+00 0.0000000000000000e+00 0.0000000000000000e+00  0.0000000000000000e+00 0.0000000000000000e+00 0.0000000000000000e+00  0.0000000000000000e+00 0.0000000000000000e+00 0.0000000000000000e+00  0.0000000000000000e+00 0.0000000000000000e+00 0.0000000000000000e+00  0.0000000000000000e+00 0.0000000000000000e+00 0.0000000000000000e+00  0.0000000000000000e+00 0.0000000000000000e+00 0.0000000000000000e+00  0.0000000000000000e+00 0.0000000000000000e+00 0.0000000000000000e+00  0.0000000000000000e+00 0.0000000000000000e+00 0.0000000000000000e+00  0.0000000000000000e+00 0.0000000000000000e+00 0.0000000000000000e+00  0.0000000000000000e+00 0.0000000000000000e+00 0.0000000000000000e+00  0.0000000000000000e+00 0.0000000000000000e+00 0.0000000000000000e+00  0.0000000000000000e+00 0.0000000000000000e+00 0.0000000000000000e+00  0.0000000000000000e+00 0.0000000000000000e+00 0.0000000000000000e+00  0.0000000000000000e+00 0.0000000000000000e+00 0.0000000000000000e+00  0.0000000000000000e+00 0.0000000000000000e+00 0.0000000000000000e+00  0.0000000000000000e+00 0.0000000000000000e+00 0.0000000000000000e+00  0.0000000000000000e+00 0.0000000000000000e+00 0.0000000000000000e+00  0.0000000000000000e+00 0.0000000000000000e+00 0.0000000000000000e+00  0.0000000000000000e+00 0.0000000000000000e+00 0.0000000000000000e+00  0.0000000000000000e+00 0.0000000000000000e+00 0.0000000000000000e+00  0.0000000000000000e+00 0.0000000000000000e+00 0.0000000000000000e+00  0.0000000000000000e+00 0.0000000000000000e+00 0.0000000000000000e+00  0.0000000000000000e+00 0.0000000000000000e+00 0.0000000000000000e+00  0.0000000000000000e+00 0.0000000000000000e+00 0.0000000000000000e+00  0.0000000000000000e+00 0.0000000000000000e+00 0.0000000000000000e+00  0.0000000000000000e+00 0.0000000000000000e+00 0.0000000000000000e+00  0.0000000000000000e+00 0.0000000000000000e+00 0.0000000000000000e+00  0.0000000000000000e+00 0.0000000000000000e+00 0.0000000000000000e+00  0.0000000000000000e+00 0.0000000000000000e+00 0.0000000000000000e+00  0.0000000000000000e+00 0.0000000000000000e+00 0.0000000000000000e+00  0.0000000000000000e+00 0.0000000000000000e+00 0.0000000000000000e+00  0.0000000000000000e+00 0.0000000000000000e+00 0.0000000000000000e+00  0.0000000000000000e+00 0.0000000000000000e+00 0.0000000000000000e+00  0.0000000000000000e+00 0.0000000000000000e+00 0.0000000000000000e+00  0.0000000000000000e+00 0.0000000000000000e+00 0.0000000000000000e+00  0.0000000000000000e+00 0.0000000000000000e+00 0.0000000000000000e+00  0.0000000000000000e+00 0.0000000000000000e+00 0.0000000000000000e+00  0.0000000000000000e+00 0.0000000000000000e+00 0.0000000000000000e+00  -2.3619021915311684e+01 0.0000000000000000e+00 0.0000000000000000e+00  -2.3593715352852822e+01 -1.4389354684240397e-03 0.0000000000000000e+00  -2.3583019682445524e+01 -3.0486258141943566e-03 0.0000000000000000e+00  -2.3580666081798046e+01 -2.9881172883453743e-03 0.0000000000000000e+00  -2.3579590310992614e+01 -2.9140105355930776e-03 0.0000000000000000e+00  -2.3578820897877730e+01 -2.8557798108493401e-03 0.0000000000000000e+00  -2.3578228890102999e+01 -2.7870042195059755e-03 0.0000000000000000e+00  -2.3577809904583503e+01 -2.7175892537399456e-03 0.0000000000000000e+00  -2.3577537291741688e+01 -2.6610071758802149e-03 0.0000000000000000e+00  -2.3577371497366737e+01 -2.6207177414686602e-03 0.0000000000000000e+00  -2.3577276077475343e+01 -2.5948804343547522e-03 0.0000000000000000e+00  -2.3577223527011853e+01 -2.5794235039631481e-03 0.0000000000000000e+00  -2.3577195566740446e+01 -2.5707022486604328e-03 0.0000000000000000e+00  -2.3577181087745753e+01 -2.5659657798855198e-03 0.0000000000000000e+00  -2.3577173733865060e+01 -2.5634952769773827e-03 0.0000000000000000e+00  -2.3577170037695470e+01 -2.5622291870630244e-03 0.0000000000000000e+00  -2.3577168174351424e+01 -2.5615986588412632e-03 0.0000000000000000e+00  -2.3577167214468695e+01 -2.5612844254820121e-03 0.0000000000000000e+00  -2.3577166693832400e+01 -2.5611323763339317e-03 0.0000000000000000e+00  -2.3577166385582764e+01 -2.5610574105621184e-03 0.0000000000000000e+00  -2.3577166179229970e+01 -2.5610219465272439e-03 0.0000000000000000e+00  -2.3577166021812815e+01 -2.5610044212531573e-03 0.0000000000000000e+00  -2.3577165887666261e+01 -2.5609963448112115e-03 0.0000000000000000e+00  -2.3577165764650470e+01 -2.5609922936716840e-03 0.0000000000000000e+00  -2.3577165646831723e+01 -2.5609905174323929e-03 0.0000000000000000e+00  -2.3577165531476105e+01 -2.5609895991874471e-03 0.0000000000000000e+00  -2.3577165417215614e+01 -2.5609892404448238e-03 0.0000000000000000e+00  -2.3577165303456596e+01 -2.5609890471226409e-03 0.0000000000000000e+00  -2.3577165189892014e+01 -2.5609889925601631e-03 0.0000000000000000e+00  -2.3577165076406331e+01 -2.5609889617120123e-03 0.0000000000000000e+00  -2.3577164962934457e+01 -2.5609889639702644e-03 0.0000000000000000e+00  -2.3577164849462839e+01 -2.5609889668245242e-03 0.0000000000000000e+00  -2.3577164735977867e+01 -2.5609889753610846e-03 0.0000000000000000e+00  -2.3577164622485064e+01 -2.5609889838891526e-03 0.0000000000000000e+00  -2.3577164508979383e+01 -2.5609889892023734e-03 0.0000000000000000e+00  -2.3577164395473961e+01 -2.5609889997358281e-03 0.0000000000000000e+00  -2.3577164281951404e+01 -2.5609889972551961e-03 0.0000000000000000e+00  -2.3577164168451500e+01 -2.5609890173089629e-03 0.0000000000000000e+00  -2.3577164054903193e+01 -2.5609889945571061e-03 0.0000000000000000e+00  -2.3577163941445075e+01 -2.5609890494245292e-03 0.0000000000000000e+00  -2.3577163827826311e+01 -2.5609889581461563e-03 0.0000000000000000e+00  -2.3577163714515855e+01 -2.5609891337982078e-03 0.0000000000000000e+00  -2.3577163600662665e+01 -2.5609888194636546e-03 0.0000000000000000e+00  -2.3577163487825871e+01 -2.5609893902697497e-03 0.0000000000000000e+00  -2.3577163373210237e+01 -2.5609883622333880e-03 0.0000000000000000e+00  -2.3577163261833924e+01 -2.5609901840823431e-03 0.0000000000000000e+00  -2.3577163144837115e+01 -2.5609869486923060e-03 0.0000000000000000e+00  -2.3577163037807683e+01 -2.5609925757196397e-03 0.0000000000000000e+00  -2.3577162913726234e+01 -2.5609827890897613e-03 0.0000000000000000e+00  -2.3577162819076374e+01 -2.5609994831902873e-03 0.0000000000000000e+00  -2.3577162675008228e+01 -2.5609711322840379e-03 0.0000000000000000e+00  -2.3577162613825852e+01 -2.5610184621201481e-03 0.0000000000000000e+00  -2.3577162416536179e+01 -2.5609401905529829e-03 0.0000000000000000e+00  -2.3577162440507088e+01 -2.5610677910493426e-03 0.0000000000000000e+00  -2.3577162109953711e+01 -2.5608628483219389e-03 0.0000000000000000e+00  -2.3577162336299509e+01 -2.5611887060676755e-03 0.0000000000000000e+00  -2.3577161691866380e+01 -2.5606816569743837e-03 0.0000000000000000e+00  -2.3577162365111057e+01 -2.5614687517148595e-03 0.0000000000000000e+00  -2.3577161018713294e+01 -2.5602846337848041e-03 0.0000000000000000e+00  -2.3577162606175179e+01 -2.5620880521532979e-03 0.0000000000000000e+00  -2.3577159739738288e+01 -2.5594696809556287e-03 0.0000000000000000e+00  -2.3577163044899716e+01 -2.5634165702005073e-03 0.0000000000000000e+00  -2.3577156964470284e+01 -2.5578857071434230e-03 0.0000000000000000e+00  -2.3577163127868857e+01 -2.5661394757256297e-03 0.0000000000000000e+00  -2.3577150778498567e+01 -2.5548009462059069e-03 0.0000000000000000e+00  -2.3577160293134359e+01 -2.5709281042140897e-03 0.0000000000000000e+00  -2.3577136070255381e+01 -2.5491298174386075e-03 0.0000000000000000e+00  -2.3577132127384324e+01 -2.5820261004724765e-03 0.0000000000000000e+00  -2.3577040465462339e+01 -2.5651365090292029e-03 0.0000000000000000e+00  -2.3576814375051377e+01 -2.6856867708864251e-03 0.0000000000000000e+00  -2.3576197150305951e+01 -2.8340595677920082e-03 0.0000000000000000e+00  -2.3574813334593141e+01 -3.2124484187301796e-03 0.0000000000000000e+00  -2.3572702716267433e+01 -3.5342263449114767e-03 0.0000000000000000e+00  -2.3569143391091991e+01 -3.5525228110700924e-03 0.0000000000000000e+00  -2.3565496434880139e+01 -3.5732669171138366e-03 0.0000000000000000e+00  -2.3560104449660844e+01 -2.4714476903537207e-03 0.0000000000000000e+00  -2.3559788108128490e+01 -2.0212825403508636e-03 0.0000000000000000e+00  -2.3554920646039459e+01 -1.8323243630264552e-03 0.0000000000000000e+00  -2.3549881170306797e+01 -1.1691558545666026e-02 0.0000000000000000e+00  -2.3550842688101699e+01 -3.8771663437529656e-02 0.0000000000000000e+00  -2.3502985298211630e+01 0.0000000000000000e+00 0.0000000000000000e+00  -3.2098245974297598e+01 0.0000000000000000e+00 0.0000000000000000e+00  -3.2106344788741907e+01 -5.5331992056459453e-04 0.0000000000000000e+00  -3.2105914317962387e+01 1.4909384874791495e-03 0.0000000000000000e+00  -3.2104955733434132e+01 2.0225462455535702e-03 0.0000000000000000e+00  -3.2104376377412891e+01 2.2211524484033606e-03 0.0000000000000000e+00  -3.2104025779299661e+01 2.3991225971369068e-03 0.0000000000000000e+00  -3.2103875242222564e+01 2.5974073743982164e-03 0.0000000000000000e+00  -3.2103844452729007e+01 2.7586501152845736e-03 0.0000000000000000e+00  -3.2103852235220465e+01 2.8694891719883990e-03 0.0000000000000000e+00  -3.2103864738524216e+01 2.9411192483628540e-03 0.0000000000000000e+00  -3.2103873937562014e+01 2.9844714343104685e-03 0.0000000000000000e+00  -3.2103879333602286e+01 3.0097106962689562e-03 0.0000000000000000e+00  -3.2103882107516213e+01 3.0238001648619037e-03 0.0000000000000000e+00  -3.2103883428359651e+01 3.0314402626498054e-03 0.0000000000000000e+00  -3.2103884019784068e+01 3.0353917801723761e-03 0.0000000000000000e+00  -3.2103884250125425e+01 3.0374067685203184e-03 0.0000000000000000e+00  -3.2103884298202786e+01 3.0383968608125498e-03 0.0000000000000000e+00  -3.2103884253392025e+01 3.0388902653846936e-03 0.0000000000000000e+00  -3.2103884161651514e+01 3.0391255833434067e-03 0.0000000000000000e+00  -3.2103884046234846e+01 3.0392427726373458e-03 0.0000000000000000e+00  -3.2103883918801657e+01 3.0392969545269322e-03 0.0000000000000000e+00  -3.2103883785112082e+01 3.0393242771335005e-03 0.0000000000000000e+00  -3.2103883648059238e+01 3.0393362700837792e-03 0.0000000000000000e+00  -3.2103883509121097e+01 3.0393425173197213e-03 0.0000000000000000e+00  -3.2103883369095151e+01 3.0393449704765462e-03 0.0000000000000000e+00  -3.2103883228419789e+01 3.0393463428745821e-03 0.0000000000000000e+00  -3.2103883087344599e+01 3.0393467437520054e-03 0.0000000000000000e+00  -3.2103882946022551e+01 3.0393470045272002e-03 0.0000000000000000e+00  -3.2103882804539133e+01 3.0393470110365302e-03 0.0000000000000000e+00  -3.2103882662953744e+01 3.0393470315078492e-03 0.0000000000000000e+00  -3.2103882521301379e+01 3.0393469881489369e-03 0.0000000000000000e+00  -3.2103882379605693e+01 3.0393469639168366e-03 0.0000000000000000e+00  -3.2103882237880804e+01 3.0393469273338443e-03 0.0000000000000000e+00  -3.2103882096132118e+01 3.0393469010892901e-03 0.0000000000000000e+00  -3.2103881954381109e+01 3.0393468728213001e-03 0.0000000000000000e+00  -3.2103881812604286e+01 3.0393468553215493e-03 0.0000000000000000e+00  -3.2103881670859806e+01 3.0393468275945251e-03 0.0000000000000000e+00  -3.2103881529047655e+01 3.0393468262831227e-03 0.0000000000000000e+00  -3.2103881387364780e+01 3.0393467799754870e-03 0.0000000000000000e+00  -3.2103881245454758e+01 3.0393468261615281e-03 0.0000000000000000e+00  -3.2103881103982538e+01 3.0393467098337066e-03 0.0000000000000000e+00  -3.2103880961753177e+01 3.0393469027908356e-03 0.0000000000000000e+00  -3.2103880820945093e+01 3.0393465457717950e-03 0.0000000000000000e+00  -3.2103880677681538e+01 3.0393472015842232e-03 0.0000000000000000e+00  -3.2103880538890593e+01 3.0393460716437986e-03 0.0000000000000000e+00  -3.2103880392435237e+01 3.0393481486191217e-03 0.0000000000000000e+00  -3.2103880259532446e+01 3.0393446392932670e-03 0.0000000000000000e+00  -3.2103880103744203e+01 3.0393509300245028e-03 0.0000000000000000e+00  -3.2103879987249066e+01 3.0393404214101726e-03 0.0000000000000000e+00  -3.2103879805724240e+01 3.0393586754166643e-03 0.0000000000000000e+00  -3.2103879732416331e+01 3.0393285686709333e-03 0.0000000000000000e+00  -3.2103879484455625e+01 3.0393791146094916e-03 0.0000000000000000e+00  -3.2103879517233324e+01 3.0392969712119012e-03 0.0000000000000000e+00  -3.2103879110125618e+01 3.0394298531712209e-03 0.0000000000000000e+00  -3.2103879382833171e+01 3.0392171171373392e-03 0.0000000000000000e+00  -3.2103878624788429e+01 3.0395469838148986e-03 0.0000000000000000e+00  -3.2103879389251198e+01 3.0390247971606465e-03 0.0000000000000000e+00  -3.2103877921376508e+01 3.0397937097512112e-03 0.0000000000000000e+00  -3.2103879580233837e+01 3.0385773175068223e-03 0.0000000000000000e+00  -3.2103876785080033e+01 3.0402490692419798e-03 0.0000000000000000e+00  -3.2103879824670656e+01 3.0375491122859636e-03 0.0000000000000000e+00  -3.2103874682294837e+01 3.0409077853395241e-03 0.0000000000000000e+00  -3.2103879193593379e+01 3.0351768761570351e-03 0.0000000000000000e+00  -3.2103869955274490e+01 3.0413151791624056e-03 0.0000000000000000e+00  -3.2103873073928327e+01 3.0294944747828378e-03 0.0000000000000000e+00  -3.2103854640032488e+01 3.0381985815501355e-03 0.0000000000000000e+00  -3.2103834867706126e+01 3.0084287694840330e-03 0.0000000000000000e+00  -3.2103770284965236e+01 2.9929105218076241e-03 0.0000000000000000e+00  -3.2103602617360060e+01 2.8516829754549238e-03 0.0000000000000000e+00  -3.2103272693016827e+01 2.5990564819405523e-03 0.0000000000000000e+00  -3.2102481685560399e+01 1.9525644919573578e-03 0.0000000000000000e+00  -3.2101123851460422e+01 9.7300807189074816e-04 0.0000000000000000e+00  -3.2098174195853929e+01 -4.7771855699037333e-04 0.0000000000000000e+00  -3.2093415644712273e+01 -2.1192590399864899e-03 0.0000000000000000e+00  -3.2086888061572225e+01 -2.6067420225974066e-03 0.0000000000000000e+00  -3.2083398183673502e+01 -7.6238974969295890e-04 0.0000000000000000e+00  -3.2079775079302898e+01 1.2885627050243193e-03 0.0000000000000000e+00  -3.2080406865441667e+01 2.5186613503349548e-03 0.0000000000000000e+00  -3.2081269748872501e+01 -1.4007584763182713e-03 0.0000000000000000e+00  -3.2105021768630110e+01 2.2237329039050568e-02 0.0000000000000000e+00  -3.2095947007152795e+01 0.0000000000000000e+00 0.0000000000000000e+00  -3.2177549203299534e+01 0.0000000000000000e+00 0.0000000000000000e+00  -3.2182461615195891e+01 -1.3461773082937972e-03 0.0000000000000000e+00  -3.2184992247691390e+01 -4.7059705347202055e-04 0.0000000000000000e+00  -3.2186061280784131e+01 8.9332955667635374e-06 0.0000000000000000e+00  -3.2186779511900610e+01 2.0704341253116563e-04 0.0000000000000000e+00  -3.2187374224815365e+01 4.0659319124875567e-04 0.0000000000000000e+00  -3.2187829579739955e+01 6.1236000038279953e-04 0.0000000000000000e+00  -3.2188139813450029e+01 7.4947593394262646e-04 0.0000000000000000e+00  -3.2188333786227723e+01 8.2767475110537498e-04 0.0000000000000000e+00  -3.2188448612026576e+01 8.7402026813876996e-04 0.0000000000000000e+00  -3.2188513745357099e+01 9.0116918888905832e-04 0.0000000000000000e+00  -3.2188549291325124e+01 9.1695361602137841e-04 0.0000000000000000e+00  -3.2188568119869728e+01 9.2579060318719530e-04 0.0000000000000000e+00  -3.2188577833716295e+01 9.3061292063579344e-04 0.0000000000000000e+00  -3.2188582717567009e+01 9.3310577790204480e-04 0.0000000000000000e+00  -3.2188585095378016e+01 9.3438434589253945e-04 0.0000000000000000e+00  -3.2188586202235854e+01 9.3501049238524391e-04 0.0000000000000000e+00  -3.2188586675095415e+01 9.3532418886714520e-04 0.0000000000000000e+00  -3.2188586835898427e+01 9.3547198586945172e-04 0.0000000000000000e+00  -3.2188586844181614e+01 9.3554571361519848e-04 0.0000000000000000e+00  -3.2188586777847384e+01 9.3557872583522293e-04 0.0000000000000000e+00  -3.2188586675104347e+01 9.3559526249704613e-04 0.0000000000000000e+00  -3.2188586554254790e+01 9.3560200718180247e-04 0.0000000000000000e+00  -3.2188586424553648e+01 9.3560544116388260e-04 0.0000000000000000e+00  -3.2188586290289400e+01 9.3560654503535090e-04 0.0000000000000000e+00  -3.2188586153815557e+01 9.3560713024388390e-04 0.0000000000000000e+00  -3.2188586016128482e+01 9.3560716432288438e-04 0.0000000000000000e+00  -3.2188585877870402e+01 9.3560718548138175e-04 0.0000000000000000e+00  -3.2188585739263466e+01 9.3560708807344370e-04 0.0000000000000000e+00  -3.2188585600501952e+01 9.3560703251078224e-04 0.0000000000000000e+00  -3.2188585461631376e+01 9.3560695887708381e-04 0.0000000000000000e+00  -3.2188585322717387e+01 9.3560691053119738e-04 0.0000000000000000e+00  -3.2188585183762569e+01 9.3560686841668639e-04 0.0000000000000000e+00  -3.2188585044801037e+01 9.3560683651233028e-04 0.0000000000000000e+00  -3.2188584905812043e+01 9.3560681441455453e-04 0.0000000000000000e+00  -3.2188584766846560e+01 9.3560679415529151e-04 0.0000000000000000e+00  -3.2188584627827346e+01 9.3560678658076489e-04 0.0000000000000000e+00  -3.2