<?xml version="1.0"?>
<VTKFile type="UnstructuredGrid"  version="0.1"  >
<UnstructuredGrid>
<Piece  NumberOfPoints="1369" NumberOfCells="2560">
<Points>
<DataArray  type="Float64"  NumberOfComponents="3"  format="ascii">0 0 0  0.75 0 0  1.5 0 0  2.25 0 0  3 0 0  3.75 0 0  4.5 0 0  5.25 0 0  6 0 0  6.75 0 0  7.5 0 0  8.25 0 0  9 0 0  9.75 0 0  10.5 0 0  11.25 0 0  12 0 0  12.75 0 0  13.5 0 0  14.25 0 0  15 0 0  15.75 0 0  16.5 0 0  17.25 0 0  18 0 0  18.75 0 0  19.5 0 0  20.25 0 0  21 0 0  21.75 0 0  22.5 0 0  23.25 0 0  24 0 0  24.75 0 0  25.5 0 0  26.25 0 0  27 0 0  27.75 0 0  28.5 0 0  29.25 0 0  30 0 0  30.75 0 0  31.5 0 0  32.25 0 0  33 0 0  33.75 0 0  34.5 0 0  35.25 0 0  36 0 0  36.75 0 0  37.5 0 0  38.25 0 0  39 0 0  39.75 0 0  40.5 0 0  41.25 0 0  42 0 0  42.75 0 0  43.5 0 0  44.25 0 0  45 0 0  45.75 0 0  46.5 0 0  47.25 0 0  48 0 0  48.75 0 0  49.5 0 0  50.25 0 0  51 0 0  51.75 0 0  52.5 0 0  53.25 0 0  54 0 0  54.75 0 0  55.5 0 0  56.25 0 0  57 0 0  57.75 0 0  58.5 0 0  59.25 0 0  60 0 0  0 0.5 0  0.75 0.5 0  1.5 0.5 0  2.25 0.5 0  3 0.5 0  3.75 0.5 0  4.5 0.5 0  5.25 0.5 0  6 0.5 0  6.75 0.5 0  7.5 0.5 0  8.25 0.5 0  9 0.5 0  9.75 0.5 0  10.5 0.5 0  11.25 0.5 0  12 0.5 0  12.75 0.5 0  13.5 0.5 0  14.25 0.5 0  15 0.5 0  15.75 0.5 0  16.5 0.5 0  17.25 0.5 0  18 0.5 0  18.75 0.5 0  19.5 0.5 0  20.25 0.5 0  21 0.5 0  21.75 0.5 0  22.5 0.5 0  23.25 0.5 0  24 0.5 0  24.75 0.5 0  25.5 0.5 0  26.25 0.5 0  27 0.5 0  27.75 0.5 0  28.5 0.5 0  29.25 0.5 0  30 0.5 0  30.75 0.5 0  31.5 0.5 0  32.25 0.5 0  33 0.5 0  33.75 0.5 0  34.5 0.5 0  35.25 0.5 0  36 0.5 0  36.75 0.5 0  37.5 0.5 0  38.25 0.5 0  39 0.5 0  39.75 0.5 0  40.5 0.5 0  41.25 0.5 0  42 0.5 0  42.75 0.5 0  43.5 0.5 0  44.25 0.5 0  45 0.5 0  45.75 0.5 0  46.5 0.5 0  47.25 0.5 0  48 0.5 0  48.75 0.5 0  49.5 0.5 0  50.25 0.5 0  51 0.5 0  51.75 0.5 0  52.5 0.5 0  53.25 0.5 0  54 0.5 0  54.75 0.5 0  55.5 0.5 0  56.25 0.5 0  57 0.5 0  57.75 0.5 0  58.5 0.5 0  59.25 0.5 0  60 0.5 0  0 1 0  0.75 1 0  1.5 1 0  2.25 1 0  3 1 0  3.75 1 0  4.5 1 0  5.25 1 0  6 1 0  6.75 1 0  7.5 1 0  8.25 1 0  9 1 0  9.75 1 0  10.5 1 0  11.25 1 0  12 1 0  12.75 1 0  13.5 1 0  14.25 1 0  15 1 0  15.75 1 0  16.5 1 0  17.25 1 0  18 1 0  18.75 1 0  19.5 1 0  20.25 1 0  21 1 0  21.75 1 0  22.5 1 0  23.25 1 0  24 1 0  24.75 1 0  25.5 1 0  26.25 1 0  27 1 0  27.75 1 0  28.5 1 0  29.25 1 0  30 1 0  30.75 1 0  31.5 1 0  32.25 1 0  33 1 0  33.75 1 0  34.5 1 0  35.25 1 0  36 1 0  36.75 1 0  37.5 1 0  38.25 1 0  39 1 0  39.75 1 0  40.5 1 0  41.25 1 0  42 1 0  42.75 1 0  43.5 1 0  44.25 1 0  45 1 0  45.75 1 0  46.5 1 0  47.25 1 0  48 1 0  48.75 1 0  49.5 1 0  50.25 1 0  51 1 0  51.75 1 0  52.5 1 0  53.25 1 0  54 1 0  54.75 1 0  55.5 1 0  56.25 1 0  57 1 0  57.75 1 0  58.5 1 0  59.25 1 0  60 1 0  0 1.5 0  0.75 1.5 0  1.5 1.5 0  2.25 1.5 0  3 1.5 0  3.75 1.5 0  4.5 1.5 0  5.25 1.5 0  6 1.5 0  6.75 1.5 0  7.5 1.5 0  8.25 1.5 0  9 1.5 0  9.75 1.5 0  10.5 1.5 0  11.25 1.5 0  12 1.5 0  12.75 1.5 0  13.5 1.5 0  14.25 1.5 0  15 1.5 0  15.75 1.5 0  16.5 1.5 0  17.25 1.5 0  18 1.5 0  18.75 1.5 0  19.5 1.5 0  20.25 1.5 0  21 1.5 0  21.75 1.5 0  22.5 1.5 0  23.25 1.5 0  24 1.5 0  24.75 1.5 0  25.5 1.5 0  26.25 1.5 0  27 1.5 0  27.75 1.5 0  28.5 1.5 0  29.25 1.5 0  30 1.5 0  30.75 1.5 0  31.5 1.5 0  32.25 1.5 0  33 1.5 0  33.75 1.5 0  34.5 1.5 0  35.25 1.5 0  36 1.5 0  36.75 1.5 0  37.5 1.5 0  38.25 1.5 0  39 1.5 0  39.75 1.5 0  40.5 1.5 0  41.25 1.5 0  42 1.5 0  42.75 1.5 0  43.5 1.5 0  44.25 1.5 0  45 1.5 0  45.75 1.5 0  46.5 1.5 0  47.25 1.5 0  48 1.5 0  48.75 1.5 0  49.5 1.5 0  50.25 1.5 0  51 1.5 0  51.75 1.5 0  52.5 1.5 0  53.25 1.5 0  54 1.5 0  54.75 1.5 0  55.5 1.5 0  56.25 1.5 0  57 1.5 0  57.75 1.5 0  58.5 1.5 0  59.25 1.5 0  60 1.5 0  0 2 0  0.75 2 0  1.5 2 0  2.25 2 0  3 2 0  3.75 2 0  4.5 2 0  5.25 2 0  6 2 0  6.75 2 0  7.5 2 0  8.25 2 0  9 2 0  9.75 2 0  10.5 2 0  11.25 2 0  12 2 0  12.75 2 0  13.5 2 0  14.25 2 0  15 2 0  15.75 2 0  16.5 2 0  17.25 2 0  18 2 0  18.75 2 0  19.5 2 0  20.25 2 0  21 2 0  21.75 2 0  22.5 2 0  23.25 2 0  24 2 0  24.75 2 0  25.5 2 0  26.25 2 0  27 2 0  27.75 2 0  28.5 2 0  29.25 2 0  30 2 0  30.75 2 0  31.5 2 0  32.25 2 0  33 2 0  33.75 2 0  34.5 2 0  35.25 2 0  36 2 0  36.75 2 0  37.5 2 0  38.25 2 0  39 2 0  39.75 2 0  40.5 2 0  41.25 2 0  42 2 0  42.75 2 0  43.5 2 0  44.25 2 0  45 2 0  45.75 2 0  46.5 2 0  47.25 2 0  48 2 0  48.75 2 0  49.5 2 0  50.25 2 0  51 2 0  51.75 2 0  52.5 2 0  53.25 2 0  54 2 0  54.75 2 0  55.5 2 0  56.25 2 0  57 2 0  57.75 2 0  58.5 2 0  59.25 2 0  60 2 0  0 2.5 0  0.75 2.5 0  1.5 2.5 0  2.25 2.5 0  3 2.5 0  3.75 2.5 0  4.5 2.5 0  5.25 2.5 0  6 2.5 0  6.75 2.5 0  7.5 2.5 0  8.25 2.5 0  9 2.5 0  9.75 2.5 0  10.5 2.5 0  11.25 2.5 0  12 2.5 0  12.75 2.5 0  13.5 2.5 0  14.25 2.5 0  15 2.5 0  15.75 2.5 0  16.5 2.5 0  17.25 2.5 0  18 2.5 0  18.75 2.5 0  19.5 2.5 0  20.25 2.5 0  21 2.5 0  21.75 2.5 0  22.5 2.5 0  23.25 2.5 0  24 2.5 0  24.75 2.5 0  25.5 2.5 0  26.25 2.5 0  27 2.5 0  27.75 2.5 0  28.5 2.5 0  29.25 2.5 0  30 2.5 0  30.75 2.5 0  31.5 2.5 0  32.25 2.5 0  33 2.5 0  33.75 2.5 0  34.5 2.5 0  35.25 2.5 0  36 2.5 0  36.75 2.5 0  37.5 2.5 0  38.25 2.5 0  39 2.5 0  39.75 2.5 0  40.5 2.5 0  41.25 2.5 0  42 2.5 0  42.75 2.5 0  43.5 2.5 0  44.25 2.5 0  45 2.5 0  45.75 2.5 0  46.5 2.5 0  47.25 2.5 0  48 2.5 0  48.75 2.5 0  49.5 2.5 0  50.25 2.5 0  51 2.5 0  51.75 2.5 0  52.5 2.5 0  53.25 2.5 0  54 2.5 0  54.75 2.5 0  55.5 2.5 0  56.25 2.5 0  57 2.5 0  57.75 2.5 0  58.5 2.5 0  59.25 2.5 0  60 2.5 0  0 3 0  0.75 3 0  1.5 3 0  2.25 3 0  3 3 0  3.75 3 0  4.5 3 0  5.25 3 0  6 3 0  6.75 3 0  7.5 3 0  8.25 3 0  9 3 0  9.75 3 0  10.5 3 0  11.25 3 0  12 3 0  12.75 3 0  13.5 3 0  14.25 3 0  15 3 0  15.75 3 0  16.5 3 0  17.25 3 0  18 3 0  18.75 3 0  19.5 3 0  20.25 3 0  21 3 0  21.75 3 0  22.5 3 0  23.25 3 0  24 3 0  24.75 3 0  25.5 3 0  26.25 3 0  27 3 0  27.75 3 0  28.5 3 0  29.25 3 0  30 3 0  30.75 3 0  31.5 3 0  32.25 3 0  33 3 0  33.75 3 0  34.5 3 0  35.25 3 0  36 3 0  36.75 3 0  37.5 3 0  38.25 3 0  39 3 0  39.75 3 0  40.5 3 0  41.25 3 0  42 3 0  42.75 3 0  43.5 3 0  44.25 3 0  45 3 0  45.75 3 0  46.5 3 0  47.25 3 0  48 3 0  48.75 3 0  49.5 3 0  50.25 3 0  51 3 0  51.75 3 0  52.5 3 0  53.25 3 0  54 3 0  54.75 3 0  55.5 3 0  56.25 3 0  57 3 0  57.75 3 0  58.5 3 0  59.25 3 0  60 3 0  0 3.5 0  0.75 3.5 0  1.5 3.5 0  2.25 3.5 0  3 3.5 0  3.75 3.5 0  4.5 3.5 0  5.25 3.5 0  6 3.5 0  6.75 3.5 0  7.5 3.5 0  8.25 3.5 0  9 3.5 0  9.75 3.5 0  10.5 3.5 0  11.25 3.5 0  12 3.5 0  12.75 3.5 0  13.5 3.5 0  14.25 3.5 0  15 3.5 0  15.75 3.5 0  16.5 3.5 0  17.25 3.5 0  18 3.5 0  18.75 3.5 0  19.5 3.5 0  20.25 3.5 0  21 3.5 0  21.75 3.5 0  22.5 3.5 0  23.25 3.5 0  24 3.5 0  24.75 3.5 0  25.5 3.5 0  26.25 3.5 0  27 3.5 0  27.75 3.5 0  28.5 3.5 0  29.25 3.5 0  30 3.5 0  30.75 3.5 0  31.5 3.5 0  32.25 3.5 0  33 3.5 0  33.75 3.5 0  34.5 3.5 0  35.25 3.5 0  36 3.5 0  36.75 3.5 0  37.5 3.5 0  38.25 3.5 0  39 3.5 0  39.75 3.5 0  40.5 3.5 0  41.25 3.5 0  42 3.5 0  42.75 3.5 0  43.5 3.5 0  44.25 3.5 0  45 3.5 0  45.75 3.5 0  46.5 3.5 0  47.25 3.5 0  48 3.5 0  48.75 3.5 0  49.5 3.5 0  50.25 3.5 0  51 3.5 0  51.75 3.5 0  52.5 3.5 0  53.25 3.5 0  54 3.5 0  54.75 3.5 0  55.5 3.5 0  56.25 3.5 0  57 3.5 0  57.75 3.5 0  58.5 3.5 0  59.25 3.5 0  60 3.5 0  0 4 0  0.75 4 0  1.5 4 0  2.25 4 0  3 4 0  3.75 4 0  4.5 4 0  5.25 4 0  6 4 0  6.75 4 0  7.5 4 0  8.25 4 0  9 4 0  9.75 4 0  10.5 4 0  11.25 4 0  12 4 0  12.75 4 0  13.5 4 0  14.25 4 0  15 4 0  15.75 4 0  16.5 4 0  17.25 4 0  18 4 0  18.75 4 0  19.5 4 0  20.25 4 0  21 4 0  21.75 4 0  22.5 4 0  23.25 4 0  24 4 0  24.75 4 0  25.5 4 0  26.25 4 0  27 4 0  27.75 4 0  28.5 4 0  29.25 4 0  30 4 0  30.75 4 0  31.5 4 0  32.25 4 0  33 4 0  33.75 4 0  34.5 4 0  35.25 4 0  36 4 0  36.75 4 0  37.5 4 0  38.25 4 0  39 4 0  39.75 4 0  40.5 4 0  41.25 4 0  42 4 0  42.75 4 0  43.5 4 0  44.25 4 0  45 4 0  45.75 4 0  46.5 4 0  47.25 4 0  48 4 0  48.75 4 0  49.5 4 0  50.25 4 0  51 4 0  51.75 4 0  52.5 4 0  53.25 4 0  54 4 0  54.75 4 0  55.5 4 0  56.25 4 0  57 4 0  57.75 4 0  58.5 4 0  59.25 4 0  60 4 0  0.375 0.25 0  1.125 0.25 0  1.875 0.25 0  2.625 0.25 0  3.375 0.25 0  4.125 0.25 0  4.875 0.25 0  5.625 0.25 0  6.375 0.25 0  7.125 0.25 0  7.875 0.25 0  8.625 0.25 0  9.375 0.25 0  10.125 0.25 0  10.875 0.25 0  11.625 0.25 0  12.375 0.25 0  13.125 0.25 0  13.875 0.25 0  14.625 0.25 0  15.375 0.25 0  16.125 0.25 0  16.875 0.25 0  17.625 0.25 0  18.375 0.25 0  19.125 0.25 0  19.875 0.25 0  20.625 0.25 0  21.375 0.25 0  22.125 0.25 0  22.875 0.25 0  23.625 0.25 0  24.375 0.25 0  25.125 0.25 0  25.875 0.25 0  26.625 0.25 0  27.375 0.25 0  28.125 0.25 0  28.875 0.25 0  29.625 0.25 0  30.375 0.25 0  31.125 0.25 0  31.875 0.25 0  32.625 0.25 0  33.375 0.25 0  34.125 0.25 0  34.875 0.25 0  35.625 0.25 0  36.375 0.25 0  37.125 0.25 0  37.875 0.25 0  38.625 0.25 0  39.375 0.25 0  40.125 0.25 0  40.875 0.25 0  41.625 0.25 0  42.375 0.25 0  43.125 0.25 0  43.875 0.25 0  44.625 0.25 0  45.375 0.25 0  46.125 0.25 0  46.875 0.25 0  47.625 0.25 0  48.375 0.25 0  49.125 0.25 0  49.875 0.25 0  50.625 0.25 0  51.375 0.25 0  52.125 0.25 0  52.875 0.25 0  53.625 0.25 0  54.375 0.25 0  55.125 0.25 0  55.875 0.25 0  56.625 0.25 0  57.375 0.25 0  58.125 0.25 0  58.875 0.25 0  59.625 0.25 0  0.375 0.75 0  1.125 0.75 0  1.875 0.75 0  2.625 0.75 0  3.375 0.75 0  4.125 0.75 0  4.875 0.75 0  5.625 0.75 0  6.375 0.75 0  7.125 0.75 0  7.875 0.75 0  8.625 0.75 0  9.375 0.75 0  10.125 0.75 0  10.875 0.75 0  11.625 0.75 0  12.375 0.75 0  13.125 0.75 0  13.875 0.75 0  14.625 0.75 0  15.375 0.75 0  16.125 0.75 0  16.875 0.75 0  17.625 0.75 0  18.375 0.75 0  19.125 0.75 0  19.875 0.75 0  20.625 0.75 0  21.375 0.75 0  22.125 0.75 0  22.875 0.75 0  23.625 0.75 0  24.375 0.75 0  25.125 0.75 0  25.875 0.75 0  26.625 0.75 0  27.375 0.75 0  28.125 0.75 0  28.875 0.75 0  29.625 0.75 0  30.375 0.75 0  31.125 0.75 0  31.875 0.75 0  32.625 0.75 0  33.375 0.75 0  34.125 0.75 0  34.875 0.75 0  35.625 0.75 0  36.375 0.75 0  37.125 0.75 0  37.875 0.75 0  38.625 0.75 0  39.375 0.75 0  40.125 0.75 0  40
[...]
<PointData  Vectors="f_8-0"> 
<DataArray  type="Float64"  Name="f_8-0"  NumberOfComponents="3" format="ascii">0.0000000000000000e+00 0.0000000000000000e+00 0.0000000000000000e+00  0.0000000000000000e+00 0.0000000000000000e+00 0.0000000000000000e+00  0.0000000000000000e+00 0.0000000000000000e+00 0.0000000000000000e+00  0.0000000000000000e+00 0.0000000000000000e+00 0.0000000000000000e+00  0.0000000000000000e+00 0.0000000000000000e+00 0.0000000000000000e+00  0.0000000000000000e+00 0.0000000000000000e+00 0.0000000000000000e+00  0.0000000000000000e+00 0.0000000000000000e+00 0.0000000000000000e+00  0.0000000000000000e+00 0.0000000000000000e+00 0.0000000000000000e+00  0.0000000000000000e+00 0.0000000000000000e+00 0.0000000000000000e+00  0.0000000000000000e+00 0.0000000000000000e+00 0.0000000000000000e+00  0.0000000000000000e+00 0.0000000000000000e+00 0.0000000000000000e+00  0.0000000000000000e+00 0.0000000000000000e+00 0.0000000000000000e+00  0.0000000000000000e+00 0.0000000000000000e+00 0.0000000000000000e+00  0.0000000000000000e+00 0.0000000000000000e+00 0.0000000000000000e+00  0.0000000000000000e+00 0.0000000000000000e+00 0.0000000000000000e+00  0.0000000000000000e+00 0.0000000000000000e+00 0.0000000000000000e+00  0.0000000000000000e+00 0.0000000000000000e+00 0.0000000000000000e+00  0.0000000000000000e+00 0.0000000000000000e+00 0.0000000000000000e+00  0.0000000000000000e+00 0.0000000000000000e+00 0.0000000000000000e+00  0.0000000000000000e+00 0.0000000000000000e+00 0.0000000000000000e+00  0.0000000000000000e+00 0.0000000000000000e+00 0.0000000000000000e+00  0.0000000000000000e+00 0.0000000000000000e+00 0.0000000000000000e+00  0.0000000000000000e+00 0.0000000000000000e+00 0.0000000000000000e+00  0.0000000000000000e+00 0.0000000000000000e+00 0.0000000000000000e+00  0.0000000000000000e+00 0.0000000000000000e+00 0.0000000000000000e+00  0.0000000000000000e+00 0.0000000000000000e+00 0.0000000000000000e+00  0.0000000000000000e+00 0.0000000000000000e+00 0.0000000000000000e+00  0.0000000000000000e+00 0.0000000000000000e+00 0.0000000000000000e+00  0.0000000000000000e+00 0.0000000000000000e+00 0.0000000000000000e+00  0.0000000000000000e+00 0.0000000000000000e+00 0.0000000000000000e+00  0.0000000000000000e+00 0.0000000000000000e+00 0.0000000000000000e+00  0.0000000000000000e+00 0.0000000000000000e+00 0.0000000000000000e+00  0.0000000000000000e+00 0.0000000000000000e+00 0.0000000000000000e+00  0.0000000000000000e+00 0.0000000000000000e+00 0.0000000000000000e+00  0.0000000000000000e+00 0.0000000000000000e+00 0.0000000000000000e+00  0.0000000000000000e+00 0.0000000000000000e+00 0.0000000000000000e+00  0.0000000000000000e+00 0.0000000000000000e+00 0.0000000000000000e+00  0.0000000000000000e+00 0.0000000000000000e+00 0.0000000000000000e+00  0.0000000000000000e+00 0.0000000000000000e+00 0.0000000000000000e+00  0.0000000000000000e+00 0.0000000000000000e+00 0.0000000000000000e+00  0.0000000000000000e+00 0.0000000000000000e+00 0.0000000000000000e+00  0.0000000000000000e+00 0.0000000000000000e+00 0.0000000000000000e+00  0.0000000000000000e+00 0.0000000000000000e+00 0.0000000000000000e+00  0.0000000000000000e+00 0.0000000000000000e+00 0.0000000000000000e+00  0.0000000000000000e+00 0.0000000000000000e+00 0.0000000000000000e+00  0.0000000000000000e+00 0.0000000000000000e+00 0.0000000000000000e+00  0.0000000000000000e+00 0.0000000000000000e+00 0.0000000000000000e+00  0.0000000000000000e+00 0.0000000000000000e+00 0.0000000000000000e+00  0.0000000000000000e+00 0.0000000000000000e+00 0.0000000000000000e+00  0.0000000000000000e+00 0.0000000000000000e+00 0.0000000000000000e+00  0.0000000000000000e+00 0.0000000000000000e+00 0.0000000000000000e+00  0.0000000000000000e+00 0.0000000000000000e+00 0.0000000000000000e+00  0.0000000000000000e+00 0.0000000000000000e+00 0.0000000000000000e+00  0.0000000000000000e+00 0.0000000000000000e+00 0.0000000000000000e+00  0.0000000000000000e+00 0.0000000000000000e+00 0.0000000000000000e+00  0.0000000000000000e+00 0.0000000000000000e+00 0.0000000000000000e+00  0.0000000000000000e+00 0.0000000000000000e+00 0.0000000000000000e+00  0.0000000000000000e+00 0.0000000000000000e+00 0.0000000000000000e+00  0.0000000000000000e+00 0.0000000000000000e+00 0.0000000000000000e+00  0.0000000000000000e+00 0.0000000000000000e+00 0.0000000000000000e+00  0.0000000000000000e+00 0.0000000000000000e+00 0.0000000000000000e+00  0.0000000000000000e+00 0.0000000000000000e+00 0.0000000000000000e+00  0.0000000000000000e+00 0.0000000000000000e+00 0.0000000000000000e+00  0.0000000000000000e+00 0.0000000000000000e+00 0.0000000000000000e+00  0.0000000000000000e+00 0.0000000000000000e+00 0.0000000000000000e+00  0.0000000000000000e+00 0.0000000000000000e+00 0.0000000000000000e+00  0.0000000000000000e+00 0.0000000000000000e+00 0.0000000000000000e+00  0.0000000000000000e+00 0.0000000000000000e+00 0.0000000000000000e+00  0.0000000000000000e+00 0.0000000000000000e+00 0.0000000000000000e+00  0.0000000000000000e+00 0.0000000000000000e+00 0.0000000000000000e+00  0.0000000000000000e+00 0.0000000000000000e+00 0.0000000000000000e+00  0.0000000000000000e+00 0.0000000000000000e+00 0.0000000000000000e+00  0.0000000000000000e+00 0.0000000000000000e+00 0.0000000000000000e+00  0.0000000000000000e+00 0.0000000000000000e+00 0.0000000000000000e+00  0.0000000000000000e+00 0.0000000000000000e+00 0.0000000000000000e+00  0.0000000000000000e+00 0.0000000000000000e+00 0.0000000000000000e+00  0.0000000000000000e+00 0.0000000000000000e+00 0.0000000000000000e+00  0.0000000000000000e+00 0.0000000000000000e+00 0.0000000000000000e+00  0.0000000000000000e+00 0.0000000000000000e+00 0.0000000000000000e+00  0.0000000000000000e+00 0.0000000000000000e+00 0.0000000000000000e+00  0.0000000000000000e+00 0.0000000000000000e+00 0.0000000000000000e+00  -1.5185940356854621e+01 0.0000000000000000e+00 0.0000000000000000e+00  -1.5220613128355575e+01 9.7655788737030622e-04 0.0000000000000000e+00  -1.5243620887836835e+01 8.5974312452334854e-03 0.0000000000000000e+00  -1.5256700648895590e+01 9.1475525470195006e-03 0.0000000000000000e+00  -1.5266451408445640e+01 8.2207446651967366e-03 0.0000000000000000e+00  -1.5272877541850900e+01 6.8436510621847357e-03 0.0000000000000000e+00  -1.5276284465646691e+01 5.6582262639806799e-03 0.0000000000000000e+00  -1.5277431024998734e+01 4.7780597927777613e-03 0.0000000000000000e+00  -1.5277034273629145e+01 4.2410297721740308e-03 0.0000000000000000e+00  -1.5275767704628121e+01 3.9303290974090589e-03 0.0000000000000000e+00  -1.5273961208925440e+01 3.7406077072764496e-03 0.0000000000000000e+00  -1.5271895744011260e+01 3.6993353195021927e-03 0.0000000000000000e+00  -1.5269989847802190e+01 3.8315268370707491e-03 0.0000000000000000e+00  -1.5268577573872262e+01 4.0492952447566000e-03 0.0000000000000000e+00  -1.5267705754512374e+01 4.2495272012936791e-03 0.0000000000000000e+00  -1.5267242766907739e+01 4.3852769458460417e-03 0.0000000000000000e+00  -1.5267022533503953e+01 4.4606573988464331e-03 0.0000000000000000e+00  -1.5266925979447432e+01 4.4967794739157237e-03 0.0000000000000000e+00  -1.5266884757059211e+01 4.5124564414390708e-03 0.0000000000000000e+00  -1.5266867032086100e+01 4.5189132921297148e-03 0.0000000000000000e+00  -1.5266858804261489e+01 4.5215936550087659e-03 0.0000000000000000e+00  -1.5266854784146046e+01 4.5227876778085431e-03 0.0000000000000000e+00  -1.5266852638607300e+01 4.5233610458943205e-03 0.0000000000000000e+00  -1.5266851496415649e+01 4.5236630954969565e-03 0.0000000000000000e+00  -1.5266850845679560e+01 4.5238205107016125e-03 0.0000000000000000e+00  -1.5266850484700434e+01 4.5239093989513073e-03 0.0000000000000000e+00  -1.5266850263502469e+01 4.5239540564075030e-03 0.0000000000000000e+00  -1.5266850127551427e+01 4.5239806007240551e-03 0.0000000000000000e+00  -1.5266850030376490e+01 4.5239926172170996e-03 0.0000000000000000e+00  -1.5266849957738023e+01 4.5240005863585939e-03 0.0000000000000000e+00  -1.5266849895480179e+01 4.5240035288280026e-03 0.0000000000000000e+00  -1.5266849840074235e+01 4.5240059649585863e-03 0.0000000000000000e+00  -1.5266849787387450e+01 4.5240065492180882e-03 0.0000000000000000e+00  -1.5266849736510737e+01 4.5240073037565581e-03 0.0000000000000000e+00  -1.5266849686360629e+01 4.5240073376492896e-03 0.0000000000000000e+00  -1.5266849636624370e+01 4.5240075592580514e-03 0.0000000000000000e+00  -1.5266849587100522e+01 4.5240074943413691e-03 0.0000000000000000e+00  -1.5266849537633780e+01 4.5240075363694541e-03 0.0000000000000000e+00  -1.5266849488242237e+01 4.5240074682339759e-03 0.0000000000000000e+00  -1.5266849438831484e+01 4.5240074508586751e-03 0.0000000000000000e+00  -1.5266849389453860e+01 4.5240073911111730e-03 0.0000000000000000e+00  -1.5266849340053678e+01 4.5240073518598278e-03 0.0000000000000000e+00  -1.5266849290671381e+01 4.5240072990505309e-03 0.0000000000000000e+00  -1.5266849241275688e+01 4.5240072531356999e-03 0.0000000000000000e+00  -1.5266849191892602e+01 4.5240072044758616e-03 0.0000000000000000e+00  -1.5266849142506192e+01 4.5240071572918783e-03 0.0000000000000000e+00  -1.5266849093130052e+01 4.5240071101630228e-03 0.0000000000000000e+00  -1.5266849043760839e+01 4.5240070649123915e-03 0.0000000000000000e+00  -1.5266848994406999e+01 4.5240070205635301e-03 0.0000000000000000e+00  -1.5266848945073139e+01 4.5240069787047185e-03 0.0000000000000000e+00  -1.5266848895764113e+01 4.5240069424151794e-03 0.0000000000000000e+00  -1.5266848846495005e+01 4.5240069088256741e-03 0.0000000000000000e+00  -1.5266848797279309e+01 4.5240068832595511e-03 0.0000000000000000e+00  -1.5266848748139269e+01 4.5240068676309338e-03 0.0000000000000000e+00  -1.5266848699106392e+01 4.5240068666123467e-03 0.0000000000000000e+00  -1.5266848650222894e+01 4.5240068846626492e-03 0.0000000000000000e+00  -1.5266848601542490e+01 4.5240069278293894e-03 0.0000000000000000e+00  -1.5266848553133221e+01 4.5240070021706266e-03 0.0000000000000000e+00  -1.5266848505059739e+01 4.5240071084590647e-03 0.0000000000000000e+00  -1.5266848457357989e+01 4.5240072282090394e-03 0.0000000000000000e+00  -1.5266848409919760e+01 4.5240073132886190e-03 0.0000000000000000e+00  -1.5266848362326007e+01 4.5240072024353645e-03 0.0000000000000000e+00  -1.5266848313277608e+01 4.5240065408431555e-03 0.0000000000000000e+00  -1.5266848259740502e+01 4.5240044843341759e-03 0.0000000000000000e+00  -1.5266848194155834e+01 4.5239992023889354e-03 0.0000000000000000e+00  -1.5266848101865721e+01 4.5239868825722044e-03 0.0000000000000000e+00  -1.5266847943389884e+01 4.5239589588299779e-03 0.0000000000000000e+00  -1.5266847668798453e+01 4.5239010002382915e-03 0.0000000000000000e+00  -1.5266847039275625e+01 4.5237698956722807e-03 0.0000000000000000e+00  -1.5266846119066660e+01 4.5235436632992286e-03 0.0000000000000000e+00  -1.5266842835409021e+01 4.5229103995478304e-03 0.0000000000000000e+00  -1.5266841625057586e+01 4.5224505832256786e-03 0.0000000000000000e+00  -1.5266819031585298e+01 4.5185475410618112e-03 0.0000000000000000e+00  -1.5266846176300675e+01 4.5240639641670310e-03 0.0000000000000000e+00  -1.5266662752353696e+01 4.4915722524909302e-03 0.0000000000000000e+00  -1.5267057884200108e+01 4.5959197556555594e-03 0.0000000000000000e+00  -1.5265844355232623e+01 4.4007348075431356e-03 0.0000000000000000e+00  -1.5268561136894304e+01 5.0328822886114306e-03 0.0000000000000000e+00  -1.5268745260127636e+01 1.0490261872802204e-02 0.0000000000000000e+00  -1.5274458112899884e+01 4.4325106122029945e-02 0.0000000000000000e+00  -1.5301434486163604e+01 0.0000000000000000e+00 0.0000000000000000e+00  -1.0589669280901186e+01 0.0000000000000000e+00 0.0000000000000000e+00  -1.0608801316083538e+01 1.4122501611390731e-02 0.0000000000000000e+00  -1.0611457082022163e+01 9.5807013159374260e-03 0.0000000000000000e+00  -1.0613901437429028e+01 7.8225398289913112e-03 0.0000000000000000e+00  -1.0615107698140111e+01 5.0735138164442403e-03 0.0000000000000000e+00  -1.0615616000839013e+01 2.2214126565447754e-03 0.0000000000000000e+00  -1.0615767702606753e+01 -1.9159181825357304e-04 0.0000000000000000e+00  -1.0615644678235546e+01 -1.9513548098769385e-03 0.0000000000000000e+00  -1.0615273046599620e+01 -3.0935874645710714e-03 0.0000000000000000e+00  -1.0614691788580023e+01 -3.7361404848452301e-03 0.0000000000000000e+00  -1.0613968884059270e+01 -4.1706455931433597e-03 0.0000000000000000e+00  -1.0612967967998516e+01 -4.3329063093532115e-03 0.0000000000000000e+00  -1.0611825038696159e+01 -4.0564982632704293e-03 0.0000000000000000e+00  -1.0610827862019894e+01 -3.5188294353663994e-03 0.0000000000000000e+00  -1.0610141388912067e+01 -3.0034375018005567e-03 0.0000000000000000e+00  -1.0609741307541492e+01 -2.6474368548970294e-03 0.0000000000000000e+00  -1.0609537184927223e+01 -2.4476649718490977e-03 0.0000000000000000e+00  -1.0609441421465165e+01 -2.3508699223600410e-03 0.0000000000000000e+00  -1.0609399614358534e+01 -2.3085364730112846e-03 0.0000000000000000e+00  -1.0609381433309721e+01 -2.2910263956709542e-03 0.0000000000000000e+00  -1.0609373601256602e+01 -2.2837770183798179e-03 0.0000000000000000e+00  -1.0609369901788236e+01 -2.2805901010919437e-03 0.0000000000000000e+00  -1.0609368159752538e+01 -2.2790667950808446e-03 0.0000000000000000e+00  -1.0609367234161805e+01 -2.2782830243499932e-03 0.0000000000000000e+00  -1.0609366784465724e+01 -2.2778666140425641e-03 0.0000000000000000e+00  -1.0609366536979232e+01 -2.2776415749590309e-03 0.0000000000000000e+00  -1.0609366425316052e+01 -2.2775216170119288e-03 0.0000000000000000e+00  -1.0609366366185045e+01 -2.2774570779544429e-03 0.0000000000000000e+00  -1.0609366346050084e+01 -2.2774235511489600e-03 0.0000000000000000e+00  -1.0609366338416468e+01 -2.2774056253793869e-03 0.0000000000000000e+00  -1.0609366341347227e+01 -2.2773966254992181e-03 0.0000000000000000e+00  -1.0609366346743778e+01 -2.2773918149366123e-03 0.0000000000000000e+00  -1.0609366354650147e+01 -2.2773895047155982e-03 0.0000000000000000e+00  -1.0609366362866085e+01 -2.2773882712070143e-03 0.0000000000000000e+00  -1.0609366371462206e+01 -2.2773877115875372e-03 0.0000000000000000e+00  -1.0609366380030728e+01 -2.2773874130820734e-03 0.0000000000000000e+00  -1.0609366388504469e+01 -2.2773872842577810e-03 0.0000000000000000e+00  -1.0609366396948602e+01 -2.2773872116171141e-03 0.0000000000000000e+00  -1.0609366405251913e+01 -2.2773871751874965e-03 0.0000000000000000e+00  -1.0609366413549701e+01 -2.2773871509572238e-03 0.0000000000000000e+00  -1.0609366421744594e+01 -2.2773871290757853e-03 0.0000000000000000e+00  -1.0609366429945348e+01 -2.2773871086969565e-03 0.0000000000000000e+00  -1.0609366438085784e+01 -2.2773870845197602e-03 0.0000000000000000e+00  -1.0609366446234789e+01 -2.2773870586340552e-03 0.0000000000000000e+00  -1.0609366454356936e+01 -2.2773870269759450e-03 0.0000000000000000e+00  -1.0609366462487763e+01 -2.2773869961606043e-03 0.0000000000000000e+00  -1.0609366470609626e+01 -2.2773869602243130e-03 0.0000000000000000e+00  -1.0609366478744649e+01 -2.2773869199522864e-03 0.0000000000000000e+00  -1.0609366486886005e+01 -2.2773868746506637e-03 0.0000000000000000e+00  -1.0609366495050010e+01 -2.2773868210271692e-03 0.0000000000000000e+00  -1.0609366503236204e+01 -2.2773867578617653e-03 0.0000000000000000e+00  -1.0609366511464712e+01 -2.2773866815003537e-03 0.0000000000000000e+00  -1.0609366519745590e+01 -2.2773865837211896e-03 0.0000000000000000e+00  -1.0609366528105147e+01 -2.2773864572480764e-03 0.0000000000000000e+00  -1.0609366536574644e+01 -2.2773862914105009e-03 0.0000000000000000e+00  -1.0609366545201429e+01 -2.2773860690303489e-03 0.0000000000000000e+00  -1.0609366554047206e+01 -2.2773857766709622e-03 0.0000000000000000e+00  -1.0609366563204759e+01 -2.2773853987532837e-03 0.0000000000000000e+00  -1.0609366572780326e+01 -2.2773849403366353e-03 0.0000000000000000e+00  -1.0609366582917175e+01 -2.2773844425690859e-03 0.0000000000000000e+00  -1.0609366593732503e+01 -2.2773840941118632e-03 0.0000000000000000e+00  -1.0609366605288058e+01 -2.2773843267697809e-03 0.0000000000000000e+00  -1.0609366617330283e+01 -2.2773862711315028e-03 0.0000000000000000e+00  -1.0609366628932246e+01 -2.2773923415839079e-03 0.0000000000000000e+00  -1.0609366637450261e+01 -2.2774079658174728e-03 0.0000000000000000e+00  -1.0609366636307652e+01 -2.2774446248736515e-03 0.0000000000000000e+00  -1.0609366611842457e+01 -2.2775253322150457e-03 0.0000000000000000e+00  -1.0609366528412327e+01 -2.2777032103833985e-03 0.0000000000000000e+00  -1.0609366335297093e+01 -2.2780588686744548e-03 0.0000000000000000e+00  -1.0609365821401845e+01 -2.2788763026117438e-03 0.0000000000000000e+00  -1.0609364961671050e+01 -2.2802097167121884e-03 0.0000000000000000e+00  -1.0609362049302327e+01 -2.2842877939322410e-03 0.0000000000000000e+00  -1.0609359794040659e+01 -2.2868142042505820e-03 0.0000000000000000e+00  -1.0609340305817859e+01 -2.3127661886334864e-03 0.0000000000000000e+00  -1.0609350677395099e+01 -2.2793973547756592e-03 0.0000000000000000e+00  -1.0609196350089594e+01 -2.4860905593769044e-03 0.0000000000000000e+00  -1.0609446669858265e+01 -1.8209331282300384e-03 0.0000000000000000e+00  -1.0608257907891709e+01 -3.2348469263198997e-03 0.0000000000000000e+00  -1.0609048964638987e+01 4.4868701286786290e-03 0.0000000000000000e+00  -1.0587112998479618e+01 -6.5832581900343188e-03 0.0000000000000000e+00  -1.0612074559191532e+01 0.0000000000000000e+00 0.0000000000000000e+00  -7.0347112558767053e+00 0.0000000000000000e+00 0.0000000000000000e+00  -7.0264642237656663e+00 8.4009199870967704e-03 0.0000000000000000e+00  -7.0138647672709729e+00 8.1649049579608449e-03 0.0000000000000000e+00  -7.0028116076642268e+00 6.7929018562327284e-03 0.0000000000000000e+00  -6.9941728889304748e+00 5.0129640267232043e-03 0.0000000000000000e+00  -6.9885594806031550e+00 3.1550587618131183e-03 0.0000000000000000e+00  -6.9854953497649612e+00 1.5511022814960946e-03 0.0000000000000000e+00  -6.9844590578128338e+00 3.6596032411708921e-04 0.0000000000000000e+00  -6.9847310648923600e+00 -4.9502816653465792e-04 0.0000000000000000e+00  -6.9858075423937152e+00 -9.8598821654237423e-04 0.0000000000000000e+00  -6.9873251664778842e+00 -1.3488972532423159e-03 0.0000000000000000e+00  -6.9891123537666351e+00 -1.6196022382513595e-03 0.0000000000000000e+00  -6.9907954731279904e+00 -1.5170718265170690e-03 0.0000000000000000e+00  -6.9920625234426623e+00 -1.0765663027184748e-03 0.0000000000000000e+00  -6.9928383681385977e+00 -5.8013954807266605e-04 0.0000000000000000e+00  -6.9932466571391689e+00 -2.0854799009516504e-04 0.0000000000000000e+00  -6.9934352368098498e+00 1.0891898529647967e-05 0.0000000000000000e+00  -6.9935166055273053e+00 1.2194495906963139e-04 0.0000000000000000e+00  -6.9935499254665503e+00 1.7210940766778767e-04 0.0000000000000000e+00  -6.9935645357865859e+00 1.9338544809309455e-04 0.0000000000000000e+00  -6.9935711530276370e+00 2.0216228758575665e-04 0.0000000000000000e+00  -6.9935746954899916e+00 2.0596184935777425e-04 0.0000000000000000e+00  -6.9935765199504587e+00 2.0769378260192210e-04 0.0000000000000000e+00  -6.9935776073921234e+00 2.0856814061136298e-04 0.0000000000000000e+00  -6.9935781729948374e+00 2.0901275692383523e-04 0.0000000000000000e+00  -6.9935785225129186e+00 2.0925456237336378e-04 0.0000000000000000e+00  -6.9935787012438153e+00 2.0937803788731489e-04 0.0000000000000000e+00  -6.9935788173464397e+00 2.0944536566843303e-04 0.0000000000000000e+00  -6.9935788771101572e+00 2.0947821681667727e-04 0.0000000000000000e+00  -6.9935789191223261e+00 2.0949587999201185e-04 0.0000000000000000e+00  -6.9935789421682113e+00 2.0950383961596995e-04 0.0000000000000000e+00  -6.9935789600238323e+00 2.0950799832763716e-04 0.0000000000000000e+00  -6.9935789713577297e+00 2.0950959380022742e-04 0.0000000000000000e+00  -6.9935789809635365e+00 2.0951033974434653e-04 0.0000000000000000e+00  -6.9935789883175561e+00 2.0951048647663994e-04 0.0000000000000000e+00  -6.9935789949471170e+00 2.0951048019965556e-04 0.0000000000000000e+00  -6.9935790008176832e+00 2.0951038300327020e-04 0.0000000000000000e+00  -6.9935790