<?xml version="1.0"?>
<VTKFile type="UnstructuredGrid"  version="0.1"  >
<UnstructuredGrid>
<Piece  NumberOfPoints="1369" NumberOfCells="2560">
<Points>
<DataArray  type="Float64"  NumberOfComponents="3"  format="ascii">0 0 0  0.75 0 0  1.5 0 0  2.25 0 0  3 0 0  3.75 0 0  4.5 0 0  5.25 0 0  6 0 0  6.75 0 0  7.5 0 0  8.25 0 0  9 0 0  9.75 0 0  10.5 0 0  11.25 0 0  12 0 0  12.75 0 0  13.5 0 0  14.25 0 0  15 0 0  15.75 0 0  16.5 0 0  17.25 0 0  18 0 0  18.75 0 0  19.5 0 0  20.25 0 0  21 0 0  21.75 0 0  22.5 0 0  23.25 0 0  24 0 0  24.75 0 0  25.5 0 0  26.25 0 0  27 0 0  27.75 0 0  28.5 0 0  29.25 0 0  30 0 0  30.75 0 0  31.5 0 0  32.25 0 0  33 0 0  33.75 0 0  34.5 0 0  35.25 0 0  36 0 0  36.75 0 0  37.5 0 0  38.25 0 0  39 0 0  39.75 0 0  40.5 0 0  41.25 0 0  42 0 0  42.75 0 0  43.5 0 0  44.25 0 0  45 0 0  45.75 0 0  46.5 0 0  47.25 0 0  48 0 0  48.75 0 0  49.5 0 0  50.25 0 0  51 0 0  51.75 0 0  52.5 0 0  53.25 0 0  54 0 0  54.75 0 0  55.5 0 0  56.25 0 0  57 0 0  57.75 0 0  58.5 0 0  59.25 0 0  60 0 0  0 0.5 0  0.75 0.5 0  1.5 0.5 0  2.25 0.5 0  3 0.5 0  3.75 0.5 0  4.5 0.5 0  5.25 0.5 0  6 0.5 0  6.75 0.5 0  7.5 0.5 0  8.25 0.5 0  9 0.5 0  9.75 0.5 0  10.5 0.5 0  11.25 0.5 0  12 0.5 0  12.75 0.5 0  13.5 0.5 0  14.25 0.5 0  15 0.5 0  15.75 0.5 0  16.5 0.5 0  17.25 0.5 0  18 0.5 0  18.75 0.5 0  19.5 0.5 0  20.25 0.5 0  21 0.5 0  21.75 0.5 0  22.5 0.5 0  23.25 0.5 0  24 0.5 0  24.75 0.5 0  25.5 0.5 0  26.25 0.5 0  27 0.5 0  27.75 0.5 0  28.5 0.5 0  29.25 0.5 0  30 0.5 0  30.75 0.5 0  31.5 0.5 0  32.25 0.5 0  33 0.5 0  33.75 0.5 0  34.5 0.5 0  35.25 0.5 0  36 0.5 0  36.75 0.5 0  37.5 0.5 0  38.25 0.5 0  39 0.5 0  39.75 0.5 0  40.5 0.5 0  41.25 0.5 0  42 0.5 0  42.75 0.5 0  43.5 0.5 0  44.25 0.5 0  45 0.5 0  45.75 0.5 0  46.5 0.5 0  47.25 0.5 0  48 0.5 0  48.75 0.5 0  49.5 0.5 0  50.25 0.5 0  51 0.5 0  51.75 0.5 0  52.5 0.5 0  53.25 0.5 0  54 0.5 0  54.75 0.5 0  55.5 0.5 0  56.25 0.5 0  57 0.5 0  57.75 0.5 0  58.5 0.5 0  59.25 0.5 0  60 0.5 0  0 1 0  0.75 1 0  1.5 1 0  2.25 1 0  3 1 0  3.75 1 0  4.5 1 0  5.25 1 0  6 1 0  6.75 1 0  7.5 1 0  8.25 1 0  9 1 0  9.75 1 0  10.5 1 0  11.25 1 0  12 1 0  12.75 1 0  13.5 1 0  14.25 1 0  15 1 0  15.75 1 0  16.5 1 0  17.25 1 0  18 1 0  18.75 1 0  19.5 1 0  20.25 1 0  21 1 0  21.75 1 0  22.5 1 0  23.25 1 0  24 1 0  24.75 1 0  25.5 1 0  26.25 1 0  27 1 0  27.75 1 0  28.5 1 0  29.25 1 0  30 1 0  30.75 1 0  31.5 1 0  32.25 1 0  33 1 0  33.75 1 0  34.5 1 0  35.25 1 0  36 1 0  36.75 1 0  37.5 1 0  38.25 1 0  39 1 0  39.75 1 0  40.5 1 0  41.25 1 0  42 1 0  42.75 1 0  43.5 1 0  44.25 1 0  45 1 0  45.75 1 0  46.5 1 0  47.25 1 0  48 1 0  48.75 1 0  49.5 1 0  50.25 1 0  51 1 0  51.75 1 0  52.5 1 0  53.25 1 0  54 1 0  54.75 1 0  55.5 1 0  56.25 1 0  57 1 0  57.75 1 0  58.5 1 0  59.25 1 0  60 1 0  0 1.5 0  0.75 1.5 0  1.5 1.5 0  2.25 1.5 0  3 1.5 0  3.75 1.5 0  4.5 1.5 0  5.25 1.5 0  6 1.5 0  6.75 1.5 0  7.5 1.5 0  8.25 1.5 0  9 1.5 0  9.75 1.5 0  10.5 1.5 0  11.25 1.5 0  12 1.5 0  12.75 1.5 0  13.5 1.5 0  14.25 1.5 0  15 1.5 0  15.75 1.5 0  16.5 1.5 0  17.25 1.5 0  18 1.5 0  18.75 1.5 0  19.5 1.5 0  20.25 1.5 0  21 1.5 0  21.75 1.5 0  22.5 1.5 0  23.25 1.5 0  24 1.5 0  24.75 1.5 0  25.5 1.5 0  26.25 1.5 0  27 1.5 0  27.75 1.5 0  28.5 1.5 0  29.25 1.5 0  30 1.5 0  30.75 1.5 0  31.5 1.5 0  32.25 1.5 0  33 1.5 0  33.75 1.5 0  34.5 1.5 0  35.25 1.5 0  36 1.5 0  36.75 1.5 0  37.5 1.5 0  38.25 1.5 0  39 1.5 0  39.75 1.5 0  40.5 1.5 0  41.25 1.5 0  42 1.5 0  42.75 1.5 0  43.5 1.5 0  44.25 1.5 0  45 1.5 0  45.75 1.5 0  46.5 1.5 0  47.25 1.5 0  48 1.5 0  48.75 1.5 0  49.5 1.5 0  50.25 1.5 0  51 1.5 0  51.75 1.5 0  52.5 1.5 0  53.25 1.5 0  54 1.5 0  54.75 1.5 0  55.5 1.5 0  56.25 1.5 0  57 1.5 0  57.75 1.5 0  58.5 1.5 0  59.25 1.5 0  60 1.5 0  0 2 0  0.75 2 0  1.5 2 0  2.25 2 0  3 2 0  3.75 2 0  4.5 2 0  5.25 2 0  6 2 0  6.75 2 0  7.5 2 0  8.25 2 0  9 2 0  9.75 2 0  10.5 2 0  11.25 2 0  12 2 0  12.75 2 0  13.5 2 0  14.25 2 0  15 2 0  15.75 2 0  16.5 2 0  17.25 2 0  18 2 0  18.75 2 0  19.5 2 0  20.25 2 0  21 2 0  21.75 2 0  22.5 2 0  23.25 2 0  24 2 0  24.75 2 0  25.5 2 0  26.25 2 0  27 2 0  27.75 2 0  28.5 2 0  29.25 2 0  30 2 0  30.75 2 0  31.5 2 0  32.25 2 0  33 2 0  33.75 2 0  34.5 2 0  35.25 2 0  36 2 0  36.75 2 0  37.5 2 0  38.25 2 0  39 2 0  39.75 2 0  40.5 2 0  41.25 2 0  42 2 0  42.75 2 0  43.5 2 0  44.25 2 0  45 2 0  45.75 2 0  46.5 2 0  47.25 2 0  48 2 0  48.75 2 0  49.5 2 0  50.25 2 0  51 2 0  51.75 2 0  52.5 2 0  53.25 2 0  54 2 0  54.75 2 0  55.5 2 0  56.25 2 0  57 2 0  57.75 2 0  58.5 2 0  59.25 2 0  60 2 0  0 2.5 0  0.75 2.5 0  1.5 2.5 0  2.25 2.5 0  3 2.5 0  3.75 2.5 0  4.5 2.5 0  5.25 2.5 0  6 2.5 0  6.75 2.5 0  7.5 2.5 0  8.25 2.5 0  9 2.5 0  9.75 2.5 0  10.5 2.5 0  11.25 2.5 0  12 2.5 0  12.75 2.5 0  13.5 2.5 0  14.25 2.5 0  15 2.5 0  15.75 2.5 0  16.5 2.5 0  17.25 2.5 0  18 2.5 0  18.75 2.5 0  19.5 2.5 0  20.25 2.5 0  21 2.5 0  21.75 2.5 0  22.5 2.5 0  23.25 2.5 0  24 2.5 0  24.75 2.5 0  25.5 2.5 0  26.25 2.5 0  27 2.5 0  27.75 2.5 0  28.5 2.5 0  29.25 2.5 0  30 2.5 0  30.75 2.5 0  31.5 2.5 0  32.25 2.5 0  33 2.5 0  33.75 2.5 0  34.5 2.5 0  35.25 2.5 0  36 2.5 0  36.75 2.5 0  37.5 2.5 0  38.25 2.5 0  39 2.5 0  39.75 2.5 0  40.5 2.5 0  41.25 2.5 0  42 2.5 0  42.75 2.5 0  43.5 2.5 0  44.25 2.5 0  45 2.5 0  45.75 2.5 0  46.5 2.5 0  47.25 2.5 0  48 2.5 0  48.75 2.5 0  49.5 2.5 0  50.25 2.5 0  51 2.5 0  51.75 2.5 0  52.5 2.5 0  53.25 2.5 0  54 2.5 0  54.75 2.5 0  55.5 2.5 0  56.25 2.5 0  57 2.5 0  57.75 2.5 0  58.5 2.5 0  59.25 2.5 0  60 2.5 0  0 3 0  0.75 3 0  1.5 3 0  2.25 3 0  3 3 0  3.75 3 0  4.5 3 0  5.25 3 0  6 3 0  6.75 3 0  7.5 3 0  8.25 3 0  9 3 0  9.75 3 0  10.5 3 0  11.25 3 0  12 3 0  12.75 3 0  13.5 3 0  14.25 3 0  15 3 0  15.75 3 0  16.5 3 0  17.25 3 0  18 3 0  18.75 3 0  19.5 3 0  20.25 3 0  21 3 0  21.75 3 0  22.5 3 0  23.25 3 0  24 3 0  24.75 3 0  25.5 3 0  26.25 3 0  27 3 0  27.75 3 0  28.5 3 0  29.25 3 0  30 3 0  30.75 3 0  31.5 3 0  32.25 3 0  33 3 0  33.75 3 0  34.5 3 0  35.25 3 0  36 3 0  36.75 3 0  37.5 3 0  38.25 3 0  39 3 0  39.75 3 0  40.5 3 0  41.25 3 0  42 3 0  42.75 3 0  43.5 3 0  44.25 3 0  45 3 0  45.75 3 0  46.5 3 0  47.25 3 0  48 3 0  48.75 3 0  49.5 3 0  50.25 3 0  51 3 0  51.75 3 0  52.5 3 0  53.25 3 0  54 3 0  54.75 3 0  55.5 3 0  56.25 3 0  57 3 0  57.75 3 0  58.5 3 0  59.25 3 0  60 3 0  0 3.5 0  0.75 3.5 0  1.5 3.5 0  2.25 3.5 0  3 3.5 0  3.75 3.5 0  4.5 3.5 0  5.25 3.5 0  6 3.5 0  6.75 3.5 0  7.5 3.5 0  8.25 3.5 0  9 3.5 0  9.75 3.5 0  10.5 3.5 0  11.25 3.5 0  12 3.5 0  12.75 3.5 0  13.5 3.5 0  14.25 3.5 0  15 3.5 0  15.75 3.5 0  16.5 3.5 0  17.25 3.5 0  18 3.5 0  18.75 3.5 0  19.5 3.5 0  20.25 3.5 0  21 3.5 0  21.75 3.5 0  22.5 3.5 0  23.25 3.5 0  24 3.5 0  24.75 3.5 0  25.5 3.5 0  26.25 3.5 0  27 3.5 0  27.75 3.5 0  28.5 3.5 0  29.25 3.5 0  30 3.5 0  30.75 3.5 0  31.5 3.5 0  32.25 3.5 0  33 3.5 0  33.75 3.5 0  34.5 3.5 0  35.25 3.5 0  36 3.5 0  36.75 3.5 0  37.5 3.5 0  38.25 3.5 0  39 3.5 0  39.75 3.5 0  40.5 3.5 0  41.25 3.5 0  42 3.5 0  42.75 3.5 0  43.5 3.5 0  44.25 3.5 0  45 3.5 0  45.75 3.5 0  46.5 3.5 0  47.25 3.5 0  48 3.5 0  48.75 3.5 0  49.5 3.5 0  50.25 3.5 0  51 3.5 0  51.75 3.5 0  52.5 3.5 0  53.25 3.5 0  54 3.5 0  54.75 3.5 0  55.5 3.5 0  56.25 3.5 0  57 3.5 0  57.75 3.5 0  58.5 3.5 0  59.25 3.5 0  60 3.5 0  0 4 0  0.75 4 0  1.5 4 0  2.25 4 0  3 4 0  3.75 4 0  4.5 4 0  5.25 4 0  6 4 0  6.75 4 0  7.5 4 0  8.25 4 0  9 4 0  9.75 4 0  10.5 4 0  11.25 4 0  12 4 0  12.75 4 0  13.5 4 0  14.25 4 0  15 4 0  15.75 4 0  16.5 4 0  17.25 4 0  18 4 0  18.75 4 0  19.5 4 0  20.25 4 0  21 4 0  21.75 4 0  22.5 4 0  23.25 4 0  24 4 0  24.75 4 0  25.5 4 0  26.25 4 0  27 4 0  27.75 4 0  28.5 4 0  29.25 4 0  30 4 0  30.75 4 0  31.5 4 0  32.25 4 0  33 4 0  33.75 4 0  34.5 4 0  35.25 4 0  36 4 0  36.75 4 0  37.5 4 0  38.25 4 0  39 4 0  39.75 4 0  40.5 4 0  41.25 4 0  42 4 0  42.75 4 0  43.5 4 0  44.25 4 0  45 4 0  45.75 4 0  46.5 4 0  47.25 4 0  48 4 0  48.75 4 0  49.5 4 0  50.25 4 0  51 4 0  51.75 4 0  52.5 4 0  53.25 4 0  54 4 0  54.75 4 0  55.5 4 0  56.25 4 0  57 4 0  57.75 4 0  58.5 4 0  59.25 4 0  60 4 0  0.375 0.25 0  1.125 0.25 0  1.875 0.25 0  2.625 0.25 0  3.375 0.25 0  4.125 0.25 0  4.875 0.25 0  5.625 0.25 0  6.375 0.25 0  7.125 0.25 0  7.875 0.25 0  8.625 0.25 0  9.375 0.25 0  10.125 0.25 0  10.875 0.25 0  11.625 0.25 0  12.375 0.25 0  13.125 0.25 0  13.875 0.25 0  14.625 0.25 0  15.375 0.25 0  16.125 0.25 0  16.875 0.25 0  17.625 0.25 0  18.375 0.25 0  19.125 0.25 0  19.875 0.25 0  20.625 0.25 0  21.375 0.25 0  22.125 0.25 0  22.875 0.25 0  23.625 0.25 0  24.375 0.25 0  25.125 0.25 0  25.875 0.25 0  26.625 0.25 0  27.375 0.25 0  28.125 0.25 0  28.875 0.25 0  29.625 0.25 0  30.375 0.25 0  31.125 0.25 0  31.875 0.25 0  32.625 0.25 0  33.375 0.25 0  34.125 0.25 0  34.875 0.25 0  35.625 0.25 0  36.375 0.25 0  37.125 0.25 0  37.875 0.25 0  38.625 0.25 0  39.375 0.25 0  40.125 0.25 0  40.875 0.25 0  41.625 0.25 0  42.375 0.25 0  43.125 0.25 0  43.875 0.25 0  44.625 0.25 0  45.375 0.25 0  46.125 0.25 0  46.875 0.25 0  47.625 0.25 0  48.375 0.25 0  49.125 0.25 0  49.875 0.25 0  50.625 0.25 0  51.375 0.25 0  52.125 0.25 0  52.875 0.25 0  53.625 0.25 0  54.375 0.25 0  55.125 0.25 0  55.875 0.25 0  56.625 0.25 0  57.375 0.25 0  58.125 0.25 0  58.875 0.25 0  59.625 0.25 0  0.375 0.75 0  1.125 0.75 0  1.875 0.75 0  2.625 0.75 0  3.375 0.75 0  4.125 0.75 0  4.875 0.75 0  5.625 0.75 0  6.375 0.75 0  7.125 0.75 0  7.875 0.75 0  8.625 0.75 0  9.375 0.75 0  10.125 0.75 0  10.875 0.75 0  11.625 0.75 0  12.375 0.75 0  13.125 0.75 0  13.875 0.75 0  14.625 0.75 0  15.375 0.75 0  16.125 0.75 0  16.875 0.75 0  17.625 0.75 0  18.375 0.75 0  19.125 0.75 0  19.875 0.75 0  20.625 0.75 0  21.375 0.75 0  22.125 0.75 0  22.875 0.75 0  23.625 0.75 0  24.375 0.75 0  25.125 0.75 0  25.875 0.75 0  26.625 0.75 0  27.375 0.75 0  28.125 0.75 0  28.875 0.75 0  29.625 0.75 0  30.375 0.75 0  31.125 0.75 0  31.875 0.75 0  32.625 0.75 0  33.375 0.75 0  34.125 0.75 0  34.875 0.75 0  35.625 0.75 0  36.375 0.75 0  37.125 0.75 0  37.875 0.75 0  38.625 0.75 0  39.375 0.75 0  40.125 0.75 0  40
[...]
<PointData  Vectors="f_8-0"> 
<DataArray  type="Float64"  Name="f_8-0"  NumberOfComponents="3" format="ascii">0.0000000000000000e+00 0.0000000000000000e+00 0.0000000000000000e+00  0.0000000000000000e+00 0.0000000000000000e+00 0.0000000000000000e+00  0.0000000000000000e+00 0.0000000000000000e+00 0.0000000000000000e+00  0.0000000000000000e+00 0.0000000000000000e+00 0.0000000000000000e+00  0.0000000000000000e+00 0.0000000000000000e+00 0.0000000000000000e+00  0.0000000000000000e+00 0.0000000000000000e+00 0.0000000000000000e+00  0.0000000000000000e+00 0.0000000000000000e+00 0.0000000000000000e+00  0.0000000000000000e+00 0.0000000000000000e+00 0.0000000000000000e+00  0.0000000000000000e+00 0.0000000000000000e+00 0.0000000000000000e+00  0.0000000000000000e+00 0.0000000000000000e+00 0.0000000000000000e+00  0.0000000000000000e+00 0.0000000000000000e+00 0.0000000000000000e+00  0.0000000000000000e+00 0.0000000000000000e+00 0.0000000000000000e+00  0.0000000000000000e+00 0.0000000000000000e+00 0.0000000000000000e+00  0.0000000000000000e+00 0.0000000000000000e+00 0.0000000000000000e+00  0.0000000000000000e+00 0.0000000000000000e+00 0.0000000000000000e+00  0.0000000000000000e+00 0.0000000000000000e+00 0.0000000000000000e+00  0.0000000000000000e+00 0.0000000000000000e+00 0.0000000000000000e+00  0.0000000000000000e+00 0.0000000000000000e+00 0.0000000000000000e+00  0.0000000000000000e+00 0.0000000000000000e+00 0.0000000000000000e+00  0.0000000000000000e+00 0.0000000000000000e+00 0.0000000000000000e+00  0.0000000000000000e+00 0.0000000000000000e+00 0.0000000000000000e+00  0.0000000000000000e+00 0.0000000000000000e+00 0.0000000000000000e+00  0.0000000000000000e+00 0.0000000000000000e+00 0.0000000000000000e+00  0.0000000000000000e+00 0.0000000000000000e+00 0.0000000000000000e+00  0.0000000000000000e+00 0.0000000000000000e+00 0.0000000000000000e+00  0.0000000000000000e+00 0.0000000000000000e+00 0.0000000000000000e+00  0.0000000000000000e+00 0.0000000000000000e+00 0.0000000000000000e+00  0.0000000000000000e+00 0.0000000000000000e+00 0.0000000000000000e+00  0.0000000000000000e+00 0.0000000000000000e+00 0.0000000000000000e+00  0.0000000000000000e+00 0.0000000000000000e+00 0.0000000000000000e+00  0.0000000000000000e+00 0.0000000000000000e+00 0.0000000000000000e+00  0.0000000000000000e+00 0.0000000000000000e+00 0.0000000000000000e+00  0.0000000000000000e+00 0.0000000000000000e+00 0.0000000000000000e+00  0.0000000000000000e+00 0.0000000000000000e+00 0.0000000000000000e+00  0.0000000000000000e+00 0.0000000000000000e+00 0.0000000000000000e+00  0.0000000000000000e+00 0.0000000000000000e+00 0.0000000000000000e+00  0.0000000000000000e+00 0.0000000000000000e+00 0.0000000000000000e+00  0.0000000000000000e+00 0.0000000000000000e+00 0.0000000000000000e+00  0.0000000000000000e+00 0.0000000000000000e+00 0.0000000000000000e+00  0.0000000000000000e+00 0.0000000000000000e+00 0.0000000000000000e+00  0.0000000000000000e+00 0.0000000000000000e+00 0.0000000000000000e+00  0.0000000000000000e+00 0.0000000000000000e+00 0.0000000000000000e+00  0.0000000000000000e+00 0.0000000000000000e+00 0.0000000000000000e+00  0.0000000000000000e+00 0.0000000000000000e+00 0.0000000000000000e+00  0.0000000000000000e+00 0.0000000000000000e+00 0.0000000000000000e+00  0.0000000000000000e+00 0.0000000000000000e+00 0.0000000000000000e+00  0.0000000000000000e+00 0.0000000000000000e+00 0.0000000000000000e+00  0.0000000000000000e+00 0.0000000000000000e+00 0.0000000000000000e+00  0.0000000000000000e+00 0.0000000000000000e+00 0.0000000000000000e+00  0.0000000000000000e+00 0.0000000000000000e+00 0.0000000000000000e+00  0.0000000000000000e+00 0.0000000000000000e+00 0.0000000000000000e+00  0.0000000000000000e+00 0.0000000000000000e+00 0.0000000000000000e+00  0.0000000000000000e+00 0.0000000000000000e+00 0.0000000000000000e+00  0.0000000000000000e+00 0.0000000000000000e+00 0.0000000000000000e+00  0.0000000000000000e+00 0.0000000000000000e+00 0.0000000000000000e+00  0.0000000000000000e+00 0.0000000000000000e+00 0.0000000000000000e+00  0.0000000000000000e+00 0.0000000000000000e+00 0.0000000000000000e+00  0.0000000000000000e+00 0.0000000000000000e+00 0.0000000000000000e+00  0.0000000000000000e+00 0.0000000000000000e+00 0.0000000000000000e+00  0.0000000000000000e+00 0.0000000000000000e+00 0.0000000000000000e+00  0.0000000000000000e+00 0.0000000000000000e+00 0.0000000000000000e+00  0.0000000000000000e+00 0.0000000000000000e+00 0.0000000000000000e+00  0.0000000000000000e+00 0.0000000000000000e+00 0.0000000000000000e+00  0.0000000000000000e+00 0.0000000000000000e+00 0.0000000000000000e+00  0.0000000000000000e+00 0.0000000000000000e+00 0.0000000000000000e+00  0.0000000000000000e+00 0.0000000000000000e+00 0.0000000000000000e+00  0.0000000000000000e+00 0.0000000000000000e+00 0.0000000000000000e+00  0.0000000000000000e+00 0.0000000000000000e+00 0.0000000000000000e+00  0.0000000000000000e+00 0.0000000000000000e+00 0.0000000000000000e+00  0.0000000000000000e+00 0.0000000000000000e+00 0.0000000000000000e+00  0.0000000000000000e+00 0.0000000000000000e+00 0.0000000000000000e+00  0.0000000000000000e+00 0.0000000000000000e+00 0.0000000000000000e+00  0.0000000000000000e+00 0.0000000000000000e+00 0.0000000000000000e+00  0.0000000000000000e+00 0.0000000000000000e+00 0.0000000000000000e+00  0.0000000000000000e+00 0.0000000000000000e+00 0.0000000000000000e+00  0.0000000000000000e+00 0.0000000000000000e+00 0.0000000000000000e+00  0.0000000000000000e+00 0.0000000000000000e+00 0.0000000000000000e+00  0.0000000000000000e+00 0.0000000000000000e+00 0.0000000000000000e+00  0.0000000000000000e+00 0.0000000000000000e+00 0.0000000000000000e+00  0.0000000000000000e+00 0.0000000000000000e+00 0.0000000000000000e+00  0.0000000000000000e+00 0.0000000000000000e+00 0.0000000000000000e+00  -2.3219473322366941e+01 0.0000000000000000e+00 0.0000000000000000e+00  -2.3240680048077273e+01 5.7575683854769752e-03 0.0000000000000000e+00  -2.3260329105899402e+01 8.6026932471152256e-03 0.0000000000000000e+00  -2.3270485103165413e+01 7.8889926690888981e-03 0.0000000000000000e+00  -2.3276537564131999e+01 6.6632700438744768e-03 0.0000000000000000e+00  -2.3279801557740232e+01 5.6074507635348473e-03 0.0000000000000000e+00  -2.3281112338009219e+01 4.8374133047386974e-03 0.0000000000000000e+00  -2.3281129089606054e+01 4.3357399446682871e-03 0.0000000000000000e+00  -2.3280353044462903e+01 4.0352336185736420e-03 0.0000000000000000e+00  -2.3279127367800580e+01 3.8687341277088140e-03 0.0000000000000000e+00  -2.3277649020676972e+01 3.7690960825666831e-03 0.0000000000000000e+00  -2.3276041799246247e+01 3.7301245055085391e-03 0.0000000000000000e+00  -2.3274487459488416e+01 3.7731559751526225e-03 0.0000000000000000e+00  -2.3273185586559137e+01 3.8900071311250262e-03 0.0000000000000000e+00  -2.3272242546043785e+01 4.0344244619371266e-03 0.0000000000000000e+00  -2.3271639953829560e+01 4.1623513603833489e-03 0.0000000000000000e+00  -2.3271290638865068e+01 4.2535080572851615e-03 0.0000000000000000e+00  -2.3271100021274709e+01 4.3094434742522759e-03 0.0000000000000000e+00  -2.3270997869051993e+01 4.3403100945378845e-03 0.0000000000000000e+00  -2.3270941542091627e+01 4.3564176539293816e-03 0.0000000000000000e+00  -2.3270908598718666e+01 4.3647408813794171e-03 0.0000000000000000e+00  -2.3270888020280243e+01 4.3692505988569092e-03 0.0000000000000000e+00  -2.3270874558980783e+01 4.3718768568828921e-03 0.0000000000000000e+00  -2.3270865519329604e+01 4.3735277049935925e-03 0.0000000000000000e+00  -2.3270859394775567e+01 4.3746097327592203e-03 0.0000000000000000e+00  -2.3270855218880918e+01 4.3753333644191731e-03 0.0000000000000000e+00  -2.3270852354101144e+01 4.3758161408333210e-03 0.0000000000000000e+00  -2.3270850358635059e+01 4.3761366188422319e-03 0.0000000000000000e+00  -2.3270848939328769e+01 4.3763482605691040e-03 0.0000000000000000e+00  -2.3270847898557481e+01 4.3764878878729445e-03 0.0000000000000000e+00  -2.3270847109352861e+01 4.3765808091321681e-03 0.0000000000000000e+00  -2.3270846487812804e+01 4.3766430352332117e-03 0.0000000000000000e+00  -2.3270845980165110e+01 4.3766854800590038e-03 0.0000000000000000e+00  -2.3270845550320473e+01 4.3767145577122231e-03 0.0000000000000000e+00  -2.3270845174555721e+01 4.3767348899654539e-03 0.0000000000000000e+00  -2.3270844836583191e+01 4.3767491151883268e-03 0.0000000000000000e+00  -2.3270844525536464e+01 4.3767593485429489e-03 0.0000000000000000e+00  -2.3270844234077760e+01 4.3767668063724331e-03 0.0000000000000000e+00  -2.3270843957510625e+01 4.3767725517047454e-03 0.0000000000000000e+00  -2.3270843692923169e+01 4.3767771725120195e-03 0.0000000000000000e+00  -2.3270843438634177e+01 4.3767811691160750e-03 0.0000000000000000e+00  -2.3270843193727131e+01 4.3767847786675600e-03 0.0000000000000000e+00  -2.3270842957734676e+01 4.3767881921783951e-03 0.0000000000000000e+00  -2.3270842730438435e+01 4.3767914780766040e-03 0.0000000000000000e+00  -2.3270842511731306e+01 4.3767946951183247e-03 0.0000000000000000e+00  -2.3270842301559064e+01 4.3767978530794482e-03 0.0000000000000000e+00  -2.3270842099847489e+01 4.3768009531930203e-03 0.0000000000000000e+00  -2.3270841906446130e+01 4.3768039589708353e-03 0.0000000000000000e+00  -2.3270841721052832e+01 4.3768068214764377e-03 0.0000000000000000e+00  -2.3270841543204391e+01 4.3768094828850216e-03 0.0000000000000000e+00  -2.3270841372298833e+01 4.3768119053912303e-03 0.0000000000000000e+00  -2.3270841207655682e+01 4.3768140658377776e-03 0.0000000000000000e+00  -2.3270841048530844e+01 4.3768159485003356e-03 0.0000000000000000e+00  -2.3270840894122319e+01 4.3768175352391168e-03 0.0000000000000000e+00  -2.3270840743579328e+01 4.3768188199776684e-03 0.0000000000000000e+00  -2.3270840596098250e+01 4.3768198256667369e-03 0.0000000000000000e+00  -2.3270840450956857e+01 4.3768206125850296e-03 0.0000000000000000e+00  -2.3270840307813462e+01 4.3768212628536160e-03 0.0000000000000000e+00  -2.3270840166043321e+01 4.3768218675122447e-03 0.0000000000000000e+00  -2.3270840026827443e+01 4.3768224980187597e-03 0.0000000000000000e+00  -2.3270839886725540e+01 4.3768232619884493e-03 0.0000000000000000e+00  -2.3270839757185630e+01 4.3768242674878622e-03 0.0000000000000000e+00  -2.3270839606448259e+01 4.3768256149656409e-03 0.0000000000000000e+00  -2.3270839531795986e+01 4.3768281233313982e-03 0.0000000000000000e+00  -2.3270839256410383e+01 4.3768289460707965e-03 0.0000000000000000e+00  -2.3270839574139064e+01 4.3768403165952872e-03 0.0000000000000000e+00  -2.3270838266021315e+01 4.3768151628682580e-03 0.0000000000000000e+00  -2.3270841356267908e+01 4.3769064528497454e-03 0.0000000000000000e+00  -2.3270832792500450e+01 4.3765937685219204e-03 0.0000000000000000e+00  -2.3270853301546886e+01 4.3773226228056659e-03 0.0000000000000000e+00  -2.3270802231345126e+01 4.3748391728635682e-03 0.0000000000000000e+00  -2.3270910799724206e+01 4.3783641151499166e-03 0.0000000000000000e+00  -2.3270668484582913e+01 4.3666936850408899e-03 0.0000000000000000e+00  -2.3271080247359698e+01 4.3556900384065554e-03 0.0000000000000000e+00  -2.3270264391231375e+01 4.3539854564345797e-03 0.0000000000000000e+00  -2.3271106582925846e+01 3.9448756820768980e-03 0.0000000000000000e+00  -2.3269608056894281e+01 4.3853975003861154e-03 0.0000000000000000e+00  -2.3272732082216397e+01 5.5479944183179624e-03 0.0000000000000000e+00  -2.3296402894889034e+01 3.0317481460027537e-02 0.0000000000000000e+00  -2.3294137500711727e+01 6.9811514619286794e-02 0.0000000000000000e+00  -2.3303916138039579e+01 0.0000000000000000e+00 0.0000000000000000e+00  -2.2099298756224812e+01 0.0000000000000000e+00 0.0000000000000000e+00  -2.2102094840020822e+01 1.4583669846464867e-02 0.0000000000000000e+00  -2.2104647589611115e+01 1.0453673235134558e-02 0.0000000000000000e+00  -2.2106129445195542e+01 6.5593983892694571e-03 0.0000000000000000e+00  -2.2106426408926644e+01 3.5835081704747016e-03 0.0000000000000000e+00  -2.2106152162613824e+01 1.4245542034423393e-03 0.0000000000000000e+00  -2.2105634544350512e+01 -2.6608161847362860e-05 0.0000000000000000e+00  -2.2105025011322375e+01 -9.4961453228881512e-04 0.0000000000000000e+00  -2.2104353190792697e+01 -1.5008486110470749e-03 0.0000000000000000e+00  -2.2103637200608109e+01 -1.8040847029981036e-03 0.0000000000000000e+00  -2.2102898388993570e+01 -1.9916915610056398e-03 0.0000000000000000e+00  -2.2102100735114924e+01 -2.0599117574518181e-03 0.0000000000000000e+00  -2.2101291383257902e+01 -1.9207371551578239e-03 0.0000000000000000e+00  -2.2100603670767146e+01 -1.6020942567840032e-03 0.0000000000000000e+00  -2.2100122108724808e+01 -1.2354316329903270e-03 0.0000000000000000e+00  -2.2099835147858421e+01 -9.3131841335368265e-04 0.0000000000000000e+00  -2.2099682788693030e+01 -7.2670960302237679e-04 0.0000000000000000e+00  -2.2099606332394423e+01 -6.0747683569450407e-04 0.0000000000000000e+00  -2.2099567375024524e+01 -5.4411076867333917e-04 0.0000000000000000e+00  -2.2099545790914910e+01 -5.1180233742012147e-04 0.0000000000000000e+00  -2.2099532497757568e+01 -4.9505155361643518e-04 0.0000000000000000e+00  -2.2099523652681050e+01 -4.8578890107635905e-04 0.0000000000000000e+00  -2.2099517568483645e+01 -4.8020449539145087e-04 0.0000000000000000e+00  -2.2099513354807662e+01 -4.7661395282274830e-04 0.0000000000000000e+00  -2.2099510443946087e+01 -4.7422067938303141e-04 0.0000000000000000e+00  -2.2099508429933181e+01 -4.7261830939292123e-04 0.0000000000000000e+00  -2.2099507020768961e+01 -4.7154803536829506e-04 0.0000000000000000e+00  -2.2099506010937322e+01 -4.7084164335230589e-04 0.0000000000000000e+00  -2.2099505261177583e+01 -4.7037574398880652e-04 0.0000000000000000e+00  -2.2099504680252341e+01 -4.7006945234555526e-04 0.0000000000000000e+00  -2.2099504209304786e+01 -4.6986551061138903e-04 0.0000000000000000e+00  -2.2099503810972251e+01 -4.6972898450704147e-04 0.0000000000000000e+00  -2.2099503460995070e+01 -4.6963586647413424e-04 0.0000000000000000e+00  -2.2099503143753267e+01 -4.6957204876605979e-04 0.0000000000000000e+00  -2.2099502848799876e+01 -4.6952751785174230e-04 0.0000000000000000e+00  -2.2099502569359370e+01 -4.6949627247236798e-04 0.0000000000000000e+00  -2.2099502300934347e+01 -4.6947374145974710e-04 0.0000000000000000e+00  -2.2099502040868902e+01 -4.6945700067779230e-04 0.0000000000000000e+00  -2.2099501787756672e+01 -4.6944374635983130e-04 0.0000000000000000e+00  -2.2099501541193980e+01 -4.6943253130838334e-04 0.0000000000000000e+00  -2.2099501301363535e+01 -4.6942233506435923e-04 0.0000000000000000e+00  -2.2099501068789245e+01 -4.6941260612569835e-04 0.0000000000000000e+00  -2.2099500844105375e+01 -4.6940301670388265e-04 0.0000000000000000e+00  -2.2099500627960442e+01 -4.6939342559453257e-04 0.0000000000000000e+00  -2.2099500420941766e+01 -4.6938377418972565e-04 0.0000000000000000e+00  -2.2099500223572658e+01 -4.6937406016441403e-04 0.0000000000000000e+00  -2.2099500036277945e+01 -4.6936435019966929e-04 0.0000000000000000e+00  -2.2099499859325924e+01 -4.6935479588131664e-04 0.0000000000000000e+00  -2.2099499692715831e+01 -4.6934561119424726e-04 0.0000000000000000e+00  -2.2099499536155445e+01 -4.6933699516114126e-04 0.0000000000000000e+00  -2.2099499389112637e+01 -4.6932908651191655e-04 0.0000000000000000e+00  -2.2099499250905669e+01 -4.6932197087965778e-04 0.0000000000000000e+00  -2.2099499120738237e+01 -4.6931573084390887e-04 0.0000000000000000e+00  -2.2099498997663900e+01 -4.6931045704633797e-04 0.0000000000000000e+00  -2.2099498880594570e+01 -4.6930618591429064e-04 0.0000000000000000e+00  -2.2099498768390664e+01 -4.6930284323833257e-04 0.0000000000000000e+00  -2.2099498660081597e+01 -4.6930020783858507e-04 0.0000000000000000e+00  -2.2099498554876892e+01 -4.6929802512556346e-04 0.0000000000000000e+00  -2.2099498452615716e+01 -4.6929596064303896e-04 0.0000000000000000e+00  -2.2099498352459683e+01 -4.6929398225052801e-04 0.0000000000000000e+00  -2.2099498256663200e+01 -4.6929116725244528e-04 0.0000000000000000e+00  -2.2099498159362454e+01 -4.6928915276504173e-04 0.0000000000000000e+00  -2.2099498079955765e+01 -4.6928120905763752e-04 0.0000000000000000e+00  -2.2099497966835354e+01 -4.6928584653160057e-04 0.0000000000000000e+00  -2.2099497972658241e+01 -4.6924593550425015e-04 0.0000000000000000e+00  -2.2099497679655990e+01 -4.6933401772422147e-04 0.0000000000000000e+00  -2.2099498224768915e+01 -4.6905789729663027e-04 0.0000000000000000e+00  -2.2099496572481662e+01 -4.6988039217358191e-04 0.0000000000000000e+00  -2.2099500431992197e+01 -4.6782296374746482e-04 0.0000000000000000e+00  -2.2099490407364339e+01 -4.7415767645326879e-04 0.0000000000000000e+00  -2.2099511871416183e+01 -4.6014689196754495e-04 0.0000000000000000e+00  -2.2099460310989294e+01 -5.0158465247821741e-04 0.0000000000000000e+00  -2.2099554988656710e+01 -4.2384035968024911e-04 0.0000000000000000e+00  -2.2099350231633444e+01 -6.4053076068534105e-04 0.0000000000000000e+00  -2.2099672292948597e+01 -3.4250637829126774e-04 0.0000000000000000e+00  -2.2099162876877159e+01 -1.0829067794498732e-03 0.0000000000000000e+00  -2.2100577612599146e+01 -7.1641384807264491e-05 0.0000000000000000e+00  -2.2098437270036889e+01 3.8144975242841565e-03 0.0000000000000000e+00  -2.2091334921936014e+01 1.4983847538400451e-02 0.0000000000000000e+00  -2.2038030783242526e+01 -1.2765541166491532e-02 0.0000000000000000e+00  -2.2105453311576806e+01 0.0000000000000000e+00 0.0000000000000000e+00  -1.8386658281960869e+01 0.0000000000000000e+00 0.0000000000000000e+00  -1.8375128019672523e+01 8.7870540175214607e-03 0.0000000000000000e+00  -1.8363345869096200e+01 6.4514421172176253e-03 0.0000000000000000e+00  -1.8355453684346365e+01 3.5503646967117125e-03 0.0000000000000000e+00  -1.8350650755895892e+01 1.3480846902859797e-03 0.0000000000000000e+00  -1.8348107436386282e+01 -2.1431227611068711e-04 0.0000000000000000e+00  -1.8347145480976710e+01 -1.2455958716186711e-03 0.0000000000000000e+00  -1.8347216472387633e+01 -1.8965810569323283e-03 0.0000000000000000e+00  -1.8347926768943797e+01 -2.3084983763265328e-03 0.0000000000000000e+00  -1.8348990055519746e+01 -2.5372437087541233e-03 0.0000000000000000e+00  -1.8350258976075299e+01 -2.6835520702606511e-03 0.0000000000000000e+00  -1.8351638034426415e+01 -2.7760126752560538e-03 0.0000000000000000e+00  -1.8352961119568448e+01 -2.6996603171032005e-03 0.0000000000000000e+00  -1.8354051239570587e+01 -2.4344158166827987e-03 0.0000000000000000e+00  -1.8354827613155425e+01 -2.0983121075675861e-03 0.0000000000000000e+00  -1.8355316801922314e+01 -1.8094478441352815e-03 0.0000000000000000e+00  -1.8355598136569093e+01 -1.6130076591452846e-03 0.0000000000000000e+00  -1.8355751353577819e+01 -1.4987312528266248e-03 0.0000000000000000e+00  -1.8355833880111661e+01 -1.4385904610515433e-03 0.0000000000000000e+00  -1.8355879733455641e+01 -1.4083415204942833e-03 0.0000000000000000e+00  -1.8355906752495290e+01 -1.3928862769870985e-03 0.0000000000000000e+00  -1.8355923633628425e+01 -1.3844097600289628e-03 0.0000000000000000e+00  -1.8355934616349039e+01 -1.3793107730885638e-03 0.0000000000000000e+00  -1.8355941885560110e+01 -1.3760155467274742e-03 0.0000000000000000e+00  -1.8355946711102732e+01 -1.3738107801990460e-03 0.0000000000000000e+00  -1.8355949895336003e+01 -1.3723271918905371e-03 0.0000000000000000e+00  -1.8355951980663757e+01 -1.3713371286842308e-03 0.0000000000000000e+00  -1.8355953331326841e+01 -1.3706840872956571e-03 0.0000000000000000e+00  -1.8355954194014238e+01 -1.3702566623995706e-03 0.0000000000000000e+00  -1.8355954730283411e+01 -1.3699773215847841e-03 0.0000000000000000e+00  -1.8355955047229397e+01 -1.3697936719969921e-03 0.0000000000000000e+00  -1.8355955214194690e+01 -1.3696717881493113e-03 0.0000000000000000e+00  -1.8355955277610825e+01 -1.3695899191364330e-03 0.0000000000000000e+00  -1.8355955268253247e+01 -1.3695343089807890e-03 0.0000000000000000e+00  -1.8355955207569995e+01 -1.3694960240996710e-03 0.0000000000000000e+00  -1.8355955110343199e+01 -1.3694692192726728e-03 0.0000000000000000e+00  -1.8355954987208214e+01 -1.3694498542391326e-03 0.000000000