<?xml version="1.0"?>
<VTKFile type="UnstructuredGrid"  version="0.1"  >
<UnstructuredGrid>
<Piece  NumberOfPoints="1369" NumberOfCells="2560">
<Points>
<DataArray  type="Float64"  NumberOfComponents="3"  format="ascii">0 0 0  0.75 0 0  1.5 0 0  2.25 0 0  3 0 0  3.75 0 0  4.5 0 0  5.25 0 0  6 0 0  6.75 0 0  7.5 0 0  8.25 0 0  9 0 0  9.75 0 0  10.5 0 0  11.25 0 0  12 0 0  12.75 0 0  13.5 0 0  14.25 0 0  15 0 0  15.75 0 0  16.5 0 0  17.25 0 0  18 0 0  18.75 0 0  19.5 0 0  20.25 0 0  21 0 0  21.75 0 0  22.5 0 0  23.25 0 0  24 0 0  24.75 0 0  25.5 0 0  26.25 0 0  27 0 0  27.75 0 0  28.5 0 0  29.25 0 0  30 0 0  30.75 0 0  31.5 0 0  32.25 0 0  33 0 0  33.75 0 0  34.5 0 0  35.25 0 0  36 0 0  36.75 0 0  37.5 0 0  38.25 0 0  39 0 0  39.75 0 0  40.5 0 0  41.25 0 0  42 0 0  42.75 0 0  43.5 0 0  44.25 0 0  45 0 0  45.75 0 0  46.5 0 0  47.25 0 0  48 0 0  48.75 0 0  49.5 0 0  50.25 0 0  51 0 0  51.75 0 0  52.5 0 0  53.25 0 0  54 0 0  54.75 0 0  55.5 0 0  56.25 0 0  57 0 0  57.75 0 0  58.5 0 0  59.25 0 0  60 0 0  0 0.5 0  0.75 0.5 0  1.5 0.5 0  2.25 0.5 0  3 0.5 0  3.75 0.5 0  4.5 0.5 0  5.25 0.5 0  6 0.5 0  6.75 0.5 0  7.5 0.5 0  8.25 0.5 0  9 0.5 0  9.75 0.5 0  10.5 0.5 0  11.25 0.5 0  12 0.5 0  12.75 0.5 0  13.5 0.5 0  14.25 0.5 0  15 0.5 0  15.75 0.5 0  16.5 0.5 0  17.25 0.5 0  18 0.5 0  18.75 0.5 0  19.5 0.5 0  20.25 0.5 0  21 0.5 0  21.75 0.5 0  22.5 0.5 0  23.25 0.5 0  24 0.5 0  24.75 0.5 0  25.5 0.5 0  26.25 0.5 0  27 0.5 0  27.75 0.5 0  28.5 0.5 0  29.25 0.5 0  30 0.5 0  30.75 0.5 0  31.5 0.5 0  32.25 0.5 0  33 0.5 0  33.75 0.5 0  34.5 0.5 0  35.25 0.5 0  36 0.5 0  36.75 0.5 0  37.5 0.5 0  38.25 0.5 0  39 0.5 0  39.75 0.5 0  40.5 0.5 0  41.25 0.5 0  42 0.5 0  42.75 0.5 0  43.5 0.5 0  44.25 0.5 0  45 0.5 0  45.75 0.5 0  46.5 0.5 0  47.25 0.5 0  48 0.5 0  48.75 0.5 0  49.5 0.5 0  50.25 0.5 0  51 0.5 0  51.75 0.5 0  52.5 0.5 0  53.25 0.5 0  54 0.5 0  54.75 0.5 0  55.5 0.5 0  56.25 0.5 0  57 0.5 0  57.75 0.5 0  58.5 0.5 0  59.25 0.5 0  60 0.5 0  0 1 0  0.75 1 0  1.5 1 0  2.25 1 0  3 1 0  3.75 1 0  4.5 1 0  5.25 1 0  6 1 0  6.75 1 0  7.5 1 0  8.25 1 0  9 1 0  9.75 1 0  10.5 1 0  11.25 1 0  12 1 0  12.75 1 0  13.5 1 0  14.25 1 0  15 1 0  15.75 1 0  16.5 1 0  17.25 1 0  18 1 0  18.75 1 0  19.5 1 0  20.25 1 0  21 1 0  21.75 1 0  22.5 1 0  23.25 1 0  24 1 0  24.75 1 0  25.5 1 0  26.25 1 0  27 1 0  27.75 1 0  28.5 1 0  29.25 1 0  30 1 0  30.75 1 0  31.5 1 0  32.25 1 0  33 1 0  33.75 1 0  34.5 1 0  35.25 1 0  36 1 0  36.75 1 0  37.5 1 0  38.25 1 0  39 1 0  39.75 1 0  40.5 1 0  41.25 1 0  42 1 0  42.75 1 0  43.5 1 0  44.25 1 0  45 1 0  45.75 1 0  46.5 1 0  47.25 1 0  48 1 0  48.75 1 0  49.5 1 0  50.25 1 0  51 1 0  51.75 1 0  52.5 1 0  53.25 1 0  54 1 0  54.75 1 0  55.5 1 0  56.25 1 0  57 1 0  57.75 1 0  58.5 1 0  59.25 1 0  60 1 0  0 1.5 0  0.75 1.5 0  1.5 1.5 0  2.25 1.5 0  3 1.5 0  3.75 1.5 0  4.5 1.5 0  5.25 1.5 0  6 1.5 0  6.75 1.5 0  7.5 1.5 0  8.25 1.5 0  9 1.5 0  9.75 1.5 0  10.5 1.5 0  11.25 1.5 0  12 1.5 0  12.75 1.5 0  13.5 1.5 0  14.25 1.5 0  15 1.5 0  15.75 1.5 0  16.5 1.5 0  17.25 1.5 0  18 1.5 0  18.75 1.5 0  19.5 1.5 0  20.25 1.5 0  21 1.5 0  21.75 1.5 0  22.5 1.5 0  23.25 1.5 0  24 1.5 0  24.75 1.5 0  25.5 1.5 0  26.25 1.5 0  27 1.5 0  27.75 1.5 0  28.5 1.5 0  29.25 1.5 0  30 1.5 0  30.75 1.5 0  31.5 1.5 0  32.25 1.5 0  33 1.5 0  33.75 1.5 0  34.5 1.5 0  35.25 1.5 0  36 1.5 0  36.75 1.5 0  37.5 1.5 0  38.25 1.5 0  39 1.5 0  39.75 1.5 0  40.5 1.5 0  41.25 1.5 0  42 1.5 0  42.75 1.5 0  43.5 1.5 0  44.25 1.5 0  45 1.5 0  45.75 1.5 0  46.5 1.5 0  47.25 1.5 0  48 1.5 0  48.75 1.5 0  49.5 1.5 0  50.25 1.5 0  51 1.5 0  51.75 1.5 0  52.5 1.5 0  53.25 1.5 0  54 1.5 0  54.75 1.5 0  55.5 1.5 0  56.25 1.5 0  57 1.5 0  57.75 1.5 0  58.5 1.5 0  59.25 1.5 0  60 1.5 0  0 2 0  0.75 2 0  1.5 2 0  2.25 2 0  3 2 0  3.75 2 0  4.5 2 0  5.25 2 0  6 2 0  6.75 2 0  7.5 2 0  8.25 2 0  9 2 0  9.75 2 0  10.5 2 0  11.25 2 0  12 2 0  12.75 2 0  13.5 2 0  14.25 2 0  15 2 0  15.75 2 0  16.5 2 0  17.25 2 0  18 2 0  18.75 2 0  19.5 2 0  20.25 2 0  21 2 0  21.75 2 0  22.5 2 0  23.25 2 0  24 2 0  24.75 2 0  25.5 2 0  26.25 2 0  27 2 0  27.75 2 0  28.5 2 0  29.25 2 0  30 2 0  30.75 2 0  31.5 2 0  32.25 2 0  33 2 0  33.75 2 0  34.5 2 0  35.25 2 0  36 2 0  36.75 2 0  37.5 2 0  38.25 2 0  39 2 0  39.75 2 0  40.5 2 0  41.25 2 0  42 2 0  42.75 2 0  43.5 2 0  44.25 2 0  45 2 0  45.75 2 0  46.5 2 0  47.25 2 0  48 2 0  48.75 2 0  49.5 2 0  50.25 2 0  51 2 0  51.75 2 0  52.5 2 0  53.25 2 0  54 2 0  54.75 2 0  55.5 2 0  56.25 2 0  57 2 0  57.75 2 0  58.5 2 0  59.25 2 0  60 2 0  0 2.5 0  0.75 2.5 0  1.5 2.5 0  2.25 2.5 0  3 2.5 0  3.75 2.5 0  4.5 2.5 0  5.25 2.5 0  6 2.5 0  6.75 2.5 0  7.5 2.5 0  8.25 2.5 0  9 2.5 0  9.75 2.5 0  10.5 2.5 0  11.25 2.5 0  12 2.5 0  12.75 2.5 0  13.5 2.5 0  14.25 2.5 0  15 2.5 0  15.75 2.5 0  16.5 2.5 0  17.25 2.5 0  18 2.5 0  18.75 2.5 0  19.5 2.5 0  20.25 2.5 0  21 2.5 0  21.75 2.5 0  22.5 2.5 0  23.25 2.5 0  24 2.5 0  24.75 2.5 0  25.5 2.5 0  26.25 2.5 0  27 2.5 0  27.75 2.5 0  28.5 2.5 0  29.25 2.5 0  30 2.5 0  30.75 2.5 0  31.5 2.5 0  32.25 2.5 0  33 2.5 0  33.75 2.5 0  34.5 2.5 0  35.25 2.5 0  36 2.5 0  36.75 2.5 0  37.5 2.5 0  38.25 2.5 0  39 2.5 0  39.75 2.5 0  40.5 2.5 0  41.25 2.5 0  42 2.5 0  42.75 2.5 0  43.5 2.5 0  44.25 2.5 0  45 2.5 0  45.75 2.5 0  46.5 2.5 0  47.25 2.5 0  48 2.5 0  48.75 2.5 0  49.5 2.5 0  50.25 2.5 0  51 2.5 0  51.75 2.5 0  52.5 2.5 0  53.25 2.5 0  54 2.5 0  54.75 2.5 0  55.5 2.5 0  56.25 2.5 0  57 2.5 0  57.75 2.5 0  58.5 2.5 0  59.25 2.5 0  60 2.5 0  0 3 0  0.75 3 0  1.5 3 0  2.25 3 0  3 3 0  3.75 3 0  4.5 3 0  5.25 3 0  6 3 0  6.75 3 0  7.5 3 0  8.25 3 0  9 3 0  9.75 3 0  10.5 3 0  11.25 3 0  12 3 0  12.75 3 0  13.5 3 0  14.25 3 0  15 3 0  15.75 3 0  16.5 3 0  17.25 3 0  18 3 0  18.75 3 0  19.5 3 0  20.25 3 0  21 3 0  21.75 3 0  22.5 3 0  23.25 3 0  24 3 0  24.75 3 0  25.5 3 0  26.25 3 0  27 3 0  27.75 3 0  28.5 3 0  29.25 3 0  30 3 0  30.75 3 0  31.5 3 0  32.25 3 0  33 3 0  33.75 3 0  34.5 3 0  35.25 3 0  36 3 0  36.75 3 0  37.5 3 0  38.25 3 0  39 3 0  39.75 3 0  40.5 3 0  41.25 3 0  42 3 0  42.75 3 0  43.5 3 0  44.25 3 0  45 3 0  45.75 3 0  46.5 3 0  47.25 3 0  48 3 0  48.75 3 0  49.5 3 0  50.25 3 0  51 3 0  51.75 3 0  52.5 3 0  53.25 3 0  54 3 0  54.75 3 0  55.5 3 0  56.25 3 0  57 3 0  57.75 3 0  58.5 3 0  59.25 3 0  60 3 0  0 3.5 0  0.75 3.5 0  1.5 3.5 0  2.25 3.5 0  3 3.5 0  3.75 3.5 0  4.5 3.5 0  5.25 3.5 0  6 3.5 0  6.75 3.5 0  7.5 3.5 0  8.25 3.5 0  9 3.5 0  9.75 3.5 0  10.5 3.5 0  11.25 3.5 0  12 3.5 0  12.75 3.5 0  13.5 3.5 0  14.25 3.5 0  15 3.5 0  15.75 3.5 0  16.5 3.5 0  17.25 3.5 0  18 3.5 0  18.75 3.5 0  19.5 3.5 0  20.25 3.5 0  21 3.5 0  21.75 3.5 0  22.5 3.5 0  23.25 3.5 0  24 3.5 0  24.75 3.5 0  25.5 3.5 0  26.25 3.5 0  27 3.5 0  27.75 3.5 0  28.5 3.5 0  29.25 3.5 0  30 3.5 0  30.75 3.5 0  31.5 3.5 0  32.25 3.5 0  33 3.5 0  33.75 3.5 0  34.5 3.5 0  35.25 3.5 0  36 3.5 0  36.75 3.5 0  37.5 3.5 0  38.25 3.5 0  39 3.5 0  39.75 3.5 0  40.5 3.5 0  41.25 3.5 0  42 3.5 0  42.75 3.5 0  43.5 3.5 0  44.25 3.5 0  45 3.5 0  45.75 3.5 0  46.5 3.5 0  47.25 3.5 0  48 3.5 0  48.75 3.5 0  49.5 3.5 0  50.25 3.5 0  51 3.5 0  51.75 3.5 0  52.5 3.5 0  53.25 3.5 0  54 3.5 0  54.75 3.5 0  55.5 3.5 0  56.25 3.5 0  57 3.5 0  57.75 3.5 0  58.5 3.5 0  59.25 3.5 0  60 3.5 0  0 4 0  0.75 4 0  1.5 4 0  2.25 4 0  3 4 0  3.75 4 0  4.5 4 0  5.25 4 0  6 4 0  6.75 4 0  7.5 4 0  8.25 4 0  9 4 0  9.75 4 0  10.5 4 0  11.25 4 0  12 4 0  12.75 4 0  13.5 4 0  14.25 4 0  15 4 0  15.75 4 0  16.5 4 0  17.25 4 0  18 4 0  18.75 4 0  19.5 4 0  20.25 4 0  21 4 0  21.75 4 0  22.5 4 0  23.25 4 0  24 4 0  24.75 4 0  25.5 4 0  26.25 4 0  27 4 0  27.75 4 0  28.5 4 0  29.25 4 0  30 4 0  30.75 4 0  31.5 4 0  32.25 4 0  33 4 0  33.75 4 0  34.5 4 0  35.25 4 0  36 4 0  36.75 4 0  37.5 4 0  38.25 4 0  39 4 0  39.75 4 0  40.5 4 0  41.25 4 0  42 4 0  42.75 4 0  43.5 4 0  44.25 4 0  45 4 0  45.75 4 0  46.5 4 0  47.25 4 0  48 4 0  48.75 4 0  49.5 4 0  50.25 4 0  51 4 0  51.75 4 0  52.5 4 0  53.25 4 0  54 4 0  54.75 4 0  55.5 4 0  56.25 4 0  57 4 0  57.75 4 0  58.5 4 0  59.25 4 0  60 4 0  0.375 0.25 0  1.125 0.25 0  1.875 0.25 0  2.625 0.25 0  3.375 0.25 0  4.125 0.25 0  4.875 0.25 0  5.625 0.25 0  6.375 0.25 0  7.125 0.25 0  7.875 0.25 0  8.625 0.25 0  9.375 0.25 0  10.125 0.25 0  10.875 0.25 0  11.625 0.25 0  12.375 0.25 0  13.125 0.25 0  13.875 0.25 0  14.625 0.25 0  15.375 0.25 0  16.125 0.25 0  16.875 0.25 0  17.625 0.25 0  18.375 0.25 0  19.125 0.25 0  19.875 0.25 0  20.625 0.25 0  21.375 0.25 0  22.125 0.25 0  22.875 0.25 0  23.625 0.25 0  24.375 0.25 0  25.125 0.25 0  25.875 0.25 0  26.625 0.25 0  27.375 0.25 0  28.125 0.25 0  28.875 0.25 0  29.625 0.25 0  30.375 0.25 0  31.125 0.25 0  31.875 0.25 0  32.625 0.25 0  33.375 0.25 0  34.125 0.25 0  34.875 0.25 0  35.625 0.25 0  36.375 0.25 0  37.125 0.25 0  37.875 0.25 0  38.625 0.25 0  39.375 0.25 0  40.125 0.25 0  40.875 0.25 0  41.625 0.25 0  42.375 0.25 0  43.125 0.25 0  43.875 0.25 0  44.625 0.25 0  45.375 0.25 0  46.125 0.25 0  46.875 0.25 0  47.625 0.25 0  48.375 0.25 0  49.125 0.25 0  49.875 0.25 0  50.625 0.25 0  51.375 0.25 0  52.125 0.25 0  52.875 0.25 0  53.625 0.25 0  54.375 0.25 0  55.125 0.25 0  55.875 0.25 0  56.625 0.25 0  57.375 0.25 0  58.125 0.25 0  58.875 0.25 0  59.625 0.25 0  0.375 0.75 0  1.125 0.75 0  1.875 0.75 0  2.625 0.75 0  3.375 0.75 0  4.125 0.75 0  4.875 0.75 0  5.625 0.75 0  6.375 0.75 0  7.125 0.75 0  7.875 0.75 0  8.625 0.75 0  9.375 0.75 0  10.125 0.75 0  10.875 0.75 0  11.625 0.75 0  12.375 0.75 0  13.125 0.75 0  13.875 0.75 0  14.625 0.75 0  15.375 0.75 0  16.125 0.75 0  16.875 0.75 0  17.625 0.75 0  18.375 0.75 0  19.125 0.75 0  19.875 0.75 0  20.625 0.75 0  21.375 0.75 0  22.125 0.75 0  22.875 0.75 0  23.625 0.75 0  24.375 0.75 0  25.125 0.75 0  25.875 0.75 0  26.625 0.75 0  27.375 0.75 0  28.125 0.75 0  28.875 0.75 0  29.625 0.75 0  30.375 0.75 0  31.125 0.75 0  31.875 0.75 0  32.625 0.75 0  33.375 0.75 0  34.125 0.75 0  34.875 0.75 0  35.625 0.75 0  36.375 0.75 0  37.125 0.75 0  37.875 0.75 0  38.625 0.75 0  39.375 0.75 0  40.125 0.75 0  40
[...]
<PointData  Vectors="f_8-0"> 
<DataArray  type="Float64"  Name="f_8-0"  NumberOfComponents="3" format="ascii">0.0000000000000000e+00 0.0000000000000000e+00 0.0000000000000000e+00  0.0000000000000000e+00 0.0000000000000000e+00 0.0000000000000000e+00  0.0000000000000000e+00 0.0000000000000000e+00 0.0000000000000000e+00  0.0000000000000000e+00 0.0000000000000000e+00 0.0000000000000000e+00  0.0000000000000000e+00 0.0000000000000000e+00 0.0000000000000000e+00  0.0000000000000000e+00 0.0000000000000000e+00 0.0000000000000000e+00  0.0000000000000000e+00 0.0000000000000000e+00 0.0000000000000000e+00  0.0000000000000000e+00 0.0000000000000000e+00 0.0000000000000000e+00  0.0000000000000000e+00 0.0000000000000000e+00 0.0000000000000000e+00  0.0000000000000000e+00 0.0000000000000000e+00 0.0000000000000000e+00  0.0000000000000000e+00 0.0000000000000000e+00 0.0000000000000000e+00  0.0000000000000000e+00 0.0000000000000000e+00 0.0000000000000000e+00  0.0000000000000000e+00 0.0000000000000000e+00 0.0000000000000000e+00  0.0000000000000000e+00 0.0000000000000000e+00 0.0000000000000000e+00  0.0000000000000000e+00 0.0000000000000000e+00 0.0000000000000000e+00  0.0000000000000000e+00 0.0000000000000000e+00 0.0000000000000000e+00  0.0000000000000000e+00 0.0000000000000000e+00 0.0000000000000000e+00  0.0000000000000000e+00 0.0000000000000000e+00 0.0000000000000000e+00  0.0000000000000000e+00 0.0000000000000000e+00 0.0000000000000000e+00  0.0000000000000000e+00 0.0000000000000000e+00 0.0000000000000000e+00  0.0000000000000000e+00 0.0000000000000000e+00 0.0000000000000000e+00  0.0000000000000000e+00 0.0000000000000000e+00 0.0000000000000000e+00  0.0000000000000000e+00 0.0000000000000000e+00 0.0000000000000000e+00  0.0000000000000000e+00 0.0000000000000000e+00 0.0000000000000000e+00  0.0000000000000000e+00 0.0000000000000000e+00 0.0000000000000000e+00  0.0000000000000000e+00 0.0000000000000000e+00 0.0000000000000000e+00  0.0000000000000000e+00 0.0000000000000000e+00 0.0000000000000000e+00  0.0000000000000000e+00 0.0000000000000000e+00 0.0000000000000000e+00  0.0000000000000000e+00 0.0000000000000000e+00 0.0000000000000000e+00  0.0000000000000000e+00 0.0000000000000000e+00 0.0000000000000000e+00  0.0000000000000000e+00 0.0000000000000000e+00 0.0000000000000000e+00  0.0000000000000000e+00 0.0000000000000000e+00 0.0000000000000000e+00  0.0000000000000000e+00 0.0000000000000000e+00 0.0000000000000000e+00  0.0000000000000000e+00 0.0000000000000000e+00 0.0000000000000000e+00  0.0000000000000000e+00 0.0000000000000000e+00 0.0000000000000000e+00  0.0000000000000000e+00 0.0000000000000000e+00 0.0000000000000000e+00  0.0000000000000000e+00 0.0000000000000000e+00 0.0000000000000000e+00  0.0000000000000000e+00 0.0000000000000000e+00 0.0000000000000000e+00  0.0000000000000000e+00 0.0000000000000000e+00 0.0000000000000000e+00  0.0000000000000000e+00 0.0000000000000000e+00 0.0000000000000000e+00  0.0000000000000000e+00 0.0000000000000000e+00 0.0000000000000000e+00  0.0000000000000000e+00 0.0000000000000000e+00 0.0000000000000000e+00  0.0000000000000000e+00 0.0000000000000000e+00 0.0000000000000000e+00  0.0000000000000000e+00 0.0000000000000000e+00 0.0000000000000000e+00  0.0000000000000000e+00 0.0000000000000000e+00 0.0000000000000000e+00  0.0000000000000000e+00 0.0000000000000000e+00 0.0000000000000000e+00  0.0000000000000000e+00 0.0000000000000000e+00 0.0000000000000000e+00  0.0000000000000000e+00 0.0000000000000000e+00 0.0000000000000000e+00  0.0000000000000000e+00 0.0000000000000000e+00 0.0000000000000000e+00  0.0000000000000000e+00 0.0000000000000000e+00 0.0000000000000000e+00  0.0000000000000000e+00 0.0000000000000000e+00 0.0000000000000000e+00  0.0000000000000000e+00 0.0000000000000000e+00 0.0000000000000000e+00  0.0000000000000000e+00 0.0000000000000000e+00 0.0000000000000000e+00  0.0000000000000000e+00 0.0000000000000000e+00 0.0000000000000000e+00  0.0000000000000000e+00 0.0000000000000000e+00 0.0000000000000000e+00  0.0000000000000000e+00 0.0000000000000000e+00 0.0000000000000000e+00  0.0000000000000000e+00 0.0000000000000000e+00 0.0000000000000000e+00  0.0000000000000000e+00 0.0000000000000000e+00 0.0000000000000000e+00  0.0000000000000000e+00 0.0000000000000000e+00 0.0000000000000000e+00  0.0000000000000000e+00 0.0000000000000000e+00 0.0000000000000000e+00  0.0000000000000000e+00 0.0000000000000000e+00 0.0000000000000000e+00  0.0000000000000000e+00 0.0000000000000000e+00 0.0000000000000000e+00  0.0000000000000000e+00 0.0000000000000000e+00 0.0000000000000000e+00  0.0000000000000000e+00 0.0000000000000000e+00 0.0000000000000000e+00  0.0000000000000000e+00 0.0000000000000000e+00 0.0000000000000000e+00  0.0000000000000000e+00 0.0000000000000000e+00 0.0000000000000000e+00  0.0000000000000000e+00 0.0000000000000000e+00 0.0000000000000000e+00  0.0000000000000000e+00 0.0000000000000000e+00 0.0000000000000000e+00  0.0000000000000000e+00 0.0000000000000000e+00 0.0000000000000000e+00  0.0000000000000000e+00 0.0000000000000000e+00 0.0000000000000000e+00  0.0000000000000000e+00 0.0000000000000000e+00 0.0000000000000000e+00  0.0000000000000000e+00 0.0000000000000000e+00 0.0000000000000000e+00  0.0000000000000000e+00 0.0000000000000000e+00 0.0000000000000000e+00  0.0000000000000000e+00 0.0000000000000000e+00 0.0000000000000000e+00  0.0000000000000000e+00 0.0000000000000000e+00 0.0000000000000000e+00  0.0000000000000000e+00 0.0000000000000000e+00 0.0000000000000000e+00  0.0000000000000000e+00 0.0000000000000000e+00 0.0000000000000000e+00  0.0000000000000000e+00 0.0000000000000000e+00 0.0000000000000000e+00  0.0000000000000000e+00 0.0000000000000000e+00 0.0000000000000000e+00  0.0000000000000000e+00 0.0000000000000000e+00 0.0000000000000000e+00  0.0000000000000000e+00 0.0000000000000000e+00 0.0000000000000000e+00  -2.5722473003992555e+01 0.0000000000000000e+00 0.0000000000000000e+00  -2.5707331128404991e+01 -8.1589348088246193e-04 0.0000000000000000e+00  -2.5700380867950710e+01 -1.4408500820331637e-03 0.0000000000000000e+00  -2.5699022708582653e+01 -1.4514660682171743e-03 0.0000000000000000e+00  -2.5698251884302117e+01 -1.4942248900513824e-03 0.0000000000000000e+00  -2.5697485766636632e+01 -1.5312171402264028e-03 0.0000000000000000e+00  -2.5696739157617717e+01 -1.5177009670393987e-03 0.0000000000000000e+00  -2.5696125639521320e+01 -1.4579019786427720e-03 0.0000000000000000e+00  -2.5695691931613400e+01 -1.3862442447816626e-03 0.0000000000000000e+00  -2.5695416217690809e+01 -1.3260941065040041e-03 0.0000000000000000e+00  -2.5695253687623531e+01 -1.2839214477661154e-03 0.0000000000000000e+00  -2.5695163224376696e+01 -1.2574754460086645e-03 0.0000000000000000e+00  -2.5695115075770229e+01 -1.2421905459191046e-03 0.0000000000000000e+00  -2.5695090282919534e+01 -1.2338423403084799e-03 0.0000000000000000e+00  -2.5695077806062894e+01 -1.2294650749131279e-03 0.0000000000000000e+00  -2.5695071605279857e+01 -1.2272326953696815e-03 0.0000000000000000e+00  -2.5695068531192081e+01 -1.2261185788122045e-03 0.0000000000000000e+00  -2.5695066987370911e+01 -1.2255712193689641e-03 0.0000000000000000e+00  -2.5695066186219609e+01 -1.2253047842837141e-03 0.0000000000000000e+00  -2.5695065742064028e+01 -1.2251762206382374e-03 0.0000000000000000e+00  -2.5695065469786893e+01 -1.2251140339280895e-03 0.0000000000000000e+00  -2.5695065279588487e+01 -1.2250842725043910e-03 0.0000000000000000e+00  -2.5695065129040753e+01 -1.2250697715677319e-03 0.0000000000000000e+00  -2.5695064997318646e+01 -1.2250629431136478e-03 0.0000000000000000e+00  -2.5695064874758252e+01 -1.2250595542311021e-03 0.0000000000000000e+00  -2.5695064756459107e+01 -1.2250580429666238e-03 0.0000000000000000e+00  -2.5695064640240123e+01 -1.2250572693590883e-03 0.0000000000000000e+00  -2.5695064524933350e+01 -1.2250569773863851e-03 0.0000000000000000e+00  -2.5695064410067527e+01 -1.2250568218137639e-03 0.0000000000000000e+00  -2.5695064295365103e+01 -1.2250567972456156e-03 0.0000000000000000e+00  -2.5695064180738015e+01 -1.2250567862339291e-03 0.0000000000000000e+00  -2.5695064066123408e+01 -1.2250568126753515e-03 0.0000000000000000e+00  -2.5695063951510903e+01 -1.2250568332537776e-03 0.0000000000000000e+00  -2.5695063836889542e+01 -1.2250568655483476e-03 0.0000000000000000e+00  -2.5695063722259246e+01 -1.2250568924960616e-03 0.0000000000000000e+00  -2.5695063607623439e+01 -1.2250569235950947e-03 0.0000000000000000e+00  -2.5695063492979010e+01 -1.2250569498830565e-03 0.0000000000000000e+00  -2.5695063378337466e+01 -1.2250569808850979e-03 0.0000000000000000e+00  -2.5695063263682631e+01 -1.2250570020309157e-03 0.0000000000000000e+00  -2.5695063149051464e+01 -1.2250570407116614e-03 0.0000000000000000e+00  -2.5695063034377522e+01 -1.2250570432847314e-03 0.0000000000000000e+00  -2.5695062919794918e+01 -1.2250571134542771e-03 0.0000000000000000e+00  -2.5695062805053350e+01 -1.2250570520220964e-03 0.0000000000000000e+00  -2.5695062690640306e+01 -1.2250572384052648e-03 0.0000000000000000e+00  -2.5695062575644325e+01 -1.2250569506165167e-03 0.0000000000000000e+00  -2.5695062461801431e+01 -1.2250575490517059e-03 0.0000000000000000e+00  -2.5695062345890495e+01 -1.2250564847471343e-03 0.0000000000000000e+00  -2.5695062233923494e+01 -1.2250584903980961e-03 0.0000000000000000e+00  -2.5695062114890668e+01 -1.2250548388574032e-03 0.0000000000000000e+00  -2.5695062008926101e+01 -1.2250614673908493e-03 0.0000000000000000e+00  -2.5695061879784490e+01 -1.2250495297723219e-03 0.0000000000000000e+00  -2.5695061792269847e+01 -1.2250707002465948e-03 0.0000000000000000e+00  -2.5695061632129661e+01 -1.2250333956133842e-03 0.0000000000000000e+00  -2.5695061598524145e+01 -1.2250981078306183e-03 0.0000000000000000e+00  -2.5695061348824783e+01 -1.2249870823004094e-03 0.0000000000000000e+00  -2.5695061463326976e+01 -1.2251751843385876e-03 0.0000000000000000e+00  -2.5695060971172797e+01 -1.2248620269867581e-03 0.0000000000000000e+00  -2.5695061464371062e+01 -1.2253796590517084e-03 0.0000000000000000e+00  -2.5695060358549600e+01 -1.2245455114348114e-03 0.0000000000000000e+00  -2.5695061746251877e+01 -1.2258928738474258e-03 0.0000000000000000e+00  -2.5695059178373445e+01 -1.2237929833796696e-03 0.0000000000000000e+00  -2.5695062518045646e+01 -1.2271277407220720e-03 0.0000000000000000e+00  -2.5695056609294806e+01 -1.2220867520668836e-03 0.0000000000000000e+00  -2.5695063935493813e+01 -1.2300151081351962e-03 0.0000000000000000e+00  -2.5695050645202784e+01 -1.2182397634389126e-03 0.0000000000000000e+00  -2.5695065671748175e+01 -1.2363850137063468e-03 0.0000000000000000e+00  -2.5695037116911816e+01 -1.2091976441486857e-03 0.0000000000000000e+00  -2.5695061877009696e+01 -1.2496632967631044e-03 0.0000000000000000e+00  -2.5694992119626054e+01 -1.1957115450435180e-03 0.0000000000000000e+00  -2.5694947156027919e+01 -1.3083313919162720e-03 0.0000000000000000e+00  -2.5694599212600657e+01 -1.2972525859095386e-03 0.0000000000000000e+00  -2.5693846172466490e+01 -1.7022894320762199e-03 0.0000000000000000e+00  -2.5692339999373928e+01 -1.8857257777424076e-03 0.0000000000000000e+00  -2.5689989257947484e+01 -2.1872795075167355e-03 0.0000000000000000e+00  -2.5687402514815052e+01 -1.6769902292065445e-03 0.0000000000000000e+00  -2.5682652936009099e+01 -1.0445074742976841e-03 0.0000000000000000e+00  -2.5680250740068509e+01 -3.5035862147926285e-04 0.0000000000000000e+00  -2.5675235452807431e+01 1.6321158066264665e-03 0.0000000000000000e+00  -2.5670979154435749e+01 -4.1165484349425978e-03 0.0000000000000000e+00  -2.5665813701330794e+01 -2.1673864013074980e-02 0.0000000000000000e+00  -2.5630480693837175e+01 0.0000000000000000e+00 0.0000000000000000e+00  -3.3389856526464044e+01 0.0000000000000000e+00 0.0000000000000000e+00  -3.3395611719894966e+01 1.0393909794414410e-03 0.0000000000000000e+00  -3.3394875197062923e+01 2.2542839461464738e-03 0.0000000000000000e+00  -3.3393855369611522e+01 2.3547162551495466e-03 0.0000000000000000e+00  -3.3393169462592986e+01 2.2826311967673097e-03 0.0000000000000000e+00  -3.3392642534334300e+01 2.2605249876011349e-03 0.0000000000000000e+00  -3.3392290744574183e+01 2.3831012582632861e-03 0.0000000000000000e+00  -3.3392134981933722e+01 2.5793771393105569e-03 0.0000000000000000e+00  -3.3392102298110991e+01 2.7499535714115633e-03 0.0000000000000000e+00  -3.3392112082963749e+01 2.8680580529105108e-03 0.0000000000000000e+00  -3.3392127380901599e+01 2.9424282720135857e-03 0.0000000000000000e+00  -3.3392138261555488e+01 2.9863200455139539e-03 0.0000000000000000e+00  -3.3392144485963200e+01 3.0107460616005817e-03 0.0000000000000000e+00  -3.3392147636431574e+01 3.0237873589075296e-03 0.0000000000000000e+00  -3.3392149125511246e+01 3.0305606830409791e-03 0.0000000000000000e+00  -3.3392149765382186e+01 3.0340059867100988e-03 0.0000000000000000e+00  -3.3392150005035880e+01 3.0357279027595891e-03 0.0000000000000000e+00  -3.3392150048793631e+01 3.0365734076881821e-03 0.0000000000000000e+00  -3.3392150002863026e+01 3.0369854318507941e-03 0.0000000000000000e+00  -3.3392149910838313e+01 3.0371833961210779e-03 0.0000000000000000e+00  -3.3392149797622174e+01 3.0372791277168444e-03 0.0000000000000000e+00  -3.3392149672471426e+01 3.0373244959191461e-03 0.0000000000000000e+00  -3.3392149541755138e+01 3.0373465984000259e-03 0.0000000000000000e+00  -3.3392149407552502e+01 3.0373567892884278e-03 0.0000000000000000e+00  -3.3392149271681227e+01 3.0373618568406346e-03 0.0000000000000000e+00  -3.3392149134656627e+01 3.0373640123213114e-03 0.0000000000000000e+00  -3.3392148997059167e+01 3.0373651257674631e-03 0.0000000000000000e+00  -3.3392148859037384e+01 3.0373655020512003e-03 0.0000000000000000e+00  -3.3392148720793550e+01 3.0373657114988418e-03 0.0000000000000000e+00  -3.3392148582380301e+01 3.0373657285804557e-03 0.0000000000000000e+00  -3.3392148443874561e+01 3.0373657428231773e-03 0.0000000000000000e+00  -3.3392148305299692e+01 3.0373657068396018e-03 0.0000000000000000e+00  -3.3392148166682524e+01 3.0373656866614566e-03 0.0000000000000000e+00  -3.3392148028035223e+01 3.0373656538190256e-03 0.0000000000000000e+00  -3.3392147889370193e+01 3.0373656310431255e-03 0.0000000000000000e+00  -3.3392147750690469e+01 3.0373656078916578e-03 0.0000000000000000e+00  -3.3392147612011101e+01 3.0373655878289272e-03 0.0000000000000000e+00  -3.3392147473313010e+01 3.0373655738282438e-03 0.0000000000000000e+00  -3.3392147334645806e+01 3.0373655529243788e-03 0.0000000000000000e+00  -3.3392147195922142e+01 3.0373655531137599e-03 0.0000000000000000e+00  -3.3392147057320521e+01 3.0373655196592000e-03 0.0000000000000000e+00  -3.3392146918512061e+01 3.0373655598297375e-03 0.0000000000000000e+00  -3.3392146780135604e+01 3.0373654709296713e-03 0.0000000000000000e+00  -3.3392146641007500e+01 3.0373656430985486e-03 0.0000000000000000e+00  -3.3392146503377582e+01 3.0373653455138942e-03 0.0000000000000000e+00  -3.3392146363101233e+01 3.0373659544846764e-03 0.0000000000000000e+00  -3.3392146227883231e+01 3.0373649295597147e-03 0.0000000000000000e+00  -3.3392146083727347e+01 3.0373669639959678e-03 0.0000000000000000e+00  -3.3392145956081848e+01 3.0373635200111005e-03 0.0000000000000000e+00  -3.3392145799546846e+01 3.0373700506585140e-03 0.0000000000000000e+00  -3.3392145694691884e+01 3.0373589469957561e-03 0.0000000000000000e+00  -3.3392145500986096e+01 3.0373790822765356e-03 0.0000000000000000e+00  -3.3392145461010408e+01 3.0373449462388195e-03 0.0000000000000000e+00  -3.3392145163033334e+01 3.0374042038933775e-03 0.0000000000000000e+00  -3.3392145295307955e+01 3.0373045154229220e-03 0.0000000000000000e+00  -3.3392144726811587e+01 3.0374699218196008e-03 0.0000000000000000e+00  -3.3392145278559326e+01 3.0371939809353608e-03 0.0000000000000000e+00  -3.3392144067983331e+01 3.0376294419370902e-03 0.0000000000000000e+00  -3.3392145539247316e+01 3.0369050213586968e-03 0.0000000000000000e+00  -3.3392142943086775e+01 3.0379824615448174e-03 0.0000000000000000e+00  -3.3392146193231618e+01 3.0361692584831368e-03 0.0000000000000000e+00  -3.3392140848677293e+01 3.0386747248952865e-03 0.0000000000000000e+00  -3.3392147071283311e+01 3.0343094228653289e-03 0.0000000000000000e+00  -3.3392136472288982e+01 3.0398167509121613e-03 0.0000000000000000e+00  -3.3392146619493609e+01 3.0296242671183429e-03 0.0000000000000000e+00  -3.3392125240236339e+01 3.0409691731247026e-03 0.0000000000000000e+00  -3.3392134940556680e+01 3.0163878321797662e-03 0.0000000000000000e+00  -3.3392082857354303e+01 3.0313272796278711e-03 0.0000000000000000e+00  -3.3392043104731897e+01 2.9451496684531771e-03 0.0000000000000000e+00  -3.3391854659735955e+01 2.8722520339737202e-03 0.0000000000000000e+00  -3.3391514325173048e+01 2.4458991092572192e-03 0.0000000000000000e+00  -3.3390789351077984e+01 1.8848428578990125e-03 0.0000000000000000e+00  -3.3389325148470832e+01 6.6772398803176974e-04 0.0000000000000000e+00  -3.3386131958263626e+01 -5.3643109159865908e-04 0.0000000000000000e+00  -3.3379677181785972e+01 -2.6258044883983984e-03 0.0000000000000000e+00  -3.3371673054629163e+01 -2.8631975371638555e-03 0.0000000000000000e+00  -3.3366150998186100e+01 -9.7192825701961126e-04 0.0000000000000000e+00  -3.3362422749648552e+01 3.7122687181145804e-04 0.0000000000000000e+00  -3.3361714483317243e+01 -1.5529072599474473e-03 0.0000000000000000e+00  -3.3376290576870744e+01 1.2695564094308059e-02 0.0000000000000000e+00  -3.3378296813060963e+01 0.0000000000000000e+00 0.0000000000000000e+00  -3.2917103346187858e+01 0.0000000000000000e+00 0.0000000000000000e+00  -3.2918110839946571e+01 -6.7951736296645358e-04 0.0000000000000000e+00  -3.2918902108265513e+01 -2.4972996452722206e-04 0.0000000000000000e+00  -3.2919332255630771e+01 -1.1920896404022135e-04 0.0000000000000000e+00  -3.2919852530959801e+01 -1.3438662915468447e-04 0.0000000000000000e+00  -3.2920482212623078e+01 -1.1180355992817689e-04 0.0000000000000000e+00  -3.2921087829289768e+01 4.9451994993310628e-05 0.0000000000000000e+00  -3.2921562610408522e+01 2.5658391394676924e-04 0.0000000000000000e+00  -3.2921883287679790e+01 4.0351820377029307e-04 0.0000000000000000e+00  -3.2922079376525808e+01 4.8934135157876135e-04 0.0000000000000000e+00  -3.2922191698825095e+01 5.3840945473738013e-04 0.0000000000000000e+00  -3.2922253367376960e+01 5.6589340224720260e-04 0.0000000000000000e+00  -3.2922285998729038e+01 5.8088029768954888e-04 0.0000000000000000e+00  -3.2922302792041563e+01 5.8889352849275352e-04 0.0000000000000000e+00  -3.2922311191488298e+01 5.9312002711525041e-04 0.0000000000000000e+00  -3.2922315310300185e+01 5.9529195359835400e-04 0.0000000000000000e+00  -3.2922317266305036e+01 5.9638677192097871e-04 0.0000000000000000e+00  -3.2922318162153758e+01 5.9692272434265785e-04 0.0000000000000000e+00  -3.2922318531248976e+01 5.9718394299437220e-04 0.0000000000000000e+00  -3.2922318646806396e+01 5.9730771504019550e-04 0.0000000000000000e+00  -3.2922318635413355e+01 5.9736722969297136e-04 0.0000000000000000e+00  -3.2922318563433826e+01 5.9739461042848966e-04 0.0000000000000000e+00  -3.2922318460373340e+01 5.9740769366671846e-04 0.0000000000000000e+00  -3.2922318342573611e+01 5.9741334007400193e-04 0.0000000000000000e+00  -3.2922318216907236e+01 5.9741599786351123e-04 0.0000000000000000e+00  -3.2922318087530833e+01 5.9741694136882342e-04 0.0000000000000000e+00  -3.2922317956062024e+01 5.9741735674530847e-04 0.0000000000000000e+00  -3.2922317823612126e+01 5.9741739208680198e-04 0.0000000000000000e+00  -3.2922317690572925e+01 5.9741737909867079e-04 0.0000000000000000e+00  -3.2922317557252036e+01 5.9741729740986317e-04 0.0000000000000000e+00  -3.2922317423755587e+01 5.9741723836671454e-04 0.0000000000000000e+00  -3.2922317290170817e+01 5.9741717464495230e-04 0.0000000000000000e+00  -3.2922317156530042e+01 5.9741713011844449e-04 0.0000000000000000e+00  -3.2922317022857122e+01 5.9741709303571589e-04 0.0000000000000000e+00  -3.2922316889163582e+01 5.9741706598682694e-04 0.0000000000000000e+00  -3.2922316755462880e+01 5.9741704541073132e-04 0.0000000000000000e+00  -3.2922316621747036e+01 5.9741703226414843e-04 0.0000000000000000e+00  -3.