<?xml version="1.0"?>
<VTKFile type="UnstructuredGrid"  version="0.1"  >
<UnstructuredGrid>
<Piece  NumberOfPoints="1369" NumberOfCells="2560">
<Points>
<DataArray  type="Float64"  NumberOfComponents="3"  format="ascii">0 0 0  0.75 0 0  1.5 0 0  2.25 0 0  3 0 0  3.75 0 0  4.5 0 0  5.25 0 0  6 0 0  6.75 0 0  7.5 0 0  8.25 0 0  9 0 0  9.75 0 0  10.5 0 0  11.25 0 0  12 0 0  12.75 0 0  13.5 0 0  14.25 0 0  15 0 0  15.75 0 0  16.5 0 0  17.25 0 0  18 0 0  18.75 0 0  19.5 0 0  20.25 0 0  21 0 0  21.75 0 0  22.5 0 0  23.25 0 0  24 0 0  24.75 0 0  25.5 0 0  26.25 0 0  27 0 0  27.75 0 0  28.5 0 0  29.25 0 0  30 0 0  30.75 0 0  31.5 0 0  32.25 0 0  33 0 0  33.75 0 0  34.5 0 0  35.25 0 0  36 0 0  36.75 0 0  37.5 0 0  38.25 0 0  39 0 0  39.75 0 0  40.5 0 0  41.25 0 0  42 0 0  42.75 0 0  43.5 0 0  44.25 0 0  45 0 0  45.75 0 0  46.5 0 0  47.25 0 0  48 0 0  48.75 0 0  49.5 0 0  50.25 0 0  51 0 0  51.75 0 0  52.5 0 0  53.25 0 0  54 0 0  54.75 0 0  55.5 0 0  56.25 0 0  57 0 0  57.75 0 0  58.5 0 0  59.25 0 0  60 0 0  0 0.5 0  0.75 0.5 0  1.5 0.5 0  2.25 0.5 0  3 0.5 0  3.75 0.5 0  4.5 0.5 0  5.25 0.5 0  6 0.5 0  6.75 0.5 0  7.5 0.5 0  8.25 0.5 0  9 0.5 0  9.75 0.5 0  10.5 0.5 0  11.25 0.5 0  12 0.5 0  12.75 0.5 0  13.5 0.5 0  14.25 0.5 0  15 0.5 0  15.75 0.5 0  16.5 0.5 0  17.25 0.5 0  18 0.5 0  18.75 0.5 0  19.5 0.5 0  20.25 0.5 0  21 0.5 0  21.75 0.5 0  22.5 0.5 0  23.25 0.5 0  24 0.5 0  24.75 0.5 0  25.5 0.5 0  26.25 0.5 0  27 0.5 0  27.75 0.5 0  28.5 0.5 0  29.25 0.5 0  30 0.5 0  30.75 0.5 0  31.5 0.5 0  32.25 0.5 0  33 0.5 0  33.75 0.5 0  34.5 0.5 0  35.25 0.5 0  36 0.5 0  36.75 0.5 0  37.5 0.5 0  38.25 0.5 0  39 0.5 0  39.75 0.5 0  40.5 0.5 0  41.25 0.5 0  42 0.5 0  42.75 0.5 0  43.5 0.5 0  44.25 0.5 0  45 0.5 0  45.75 0.5 0  46.5 0.5 0  47.25 0.5 0  48 0.5 0  48.75 0.5 0  49.5 0.5 0  50.25 0.5 0  51 0.5 0  51.75 0.5 0  52.5 0.5 0  53.25 0.5 0  54 0.5 0  54.75 0.5 0  55.5 0.5 0  56.25 0.5 0  57 0.5 0  57.75 0.5 0  58.5 0.5 0  59.25 0.5 0  60 0.5 0  0 1 0  0.75 1 0  1.5 1 0  2.25 1 0  3 1 0  3.75 1 0  4.5 1 0  5.25 1 0  6 1 0  6.75 1 0  7.5 1 0  8.25 1 0  9 1 0  9.75 1 0  10.5 1 0  11.25 1 0  12 1 0  12.75 1 0  13.5 1 0  14.25 1 0  15 1 0  15.75 1 0  16.5 1 0  17.25 1 0  18 1 0  18.75 1 0  19.5 1 0  20.25 1 0  21 1 0  21.75 1 0  22.5 1 0  23.25 1 0  24 1 0  24.75 1 0  25.5 1 0  26.25 1 0  27 1 0  27.75 1 0  28.5 1 0  29.25 1 0  30 1 0  30.75 1 0  31.5 1 0  32.25 1 0  33 1 0  33.75 1 0  34.5 1 0  35.25 1 0  36 1 0  36.75 1 0  37.5 1 0  38.25 1 0  39 1 0  39.75 1 0  40.5 1 0  41.25 1 0  42 1 0  42.75 1 0  43.5 1 0  44.25 1 0  45 1 0  45.75 1 0  46.5 1 0  47.25 1 0  48 1 0  48.75 1 0  49.5 1 0  50.25 1 0  51 1 0  51.75 1 0  52.5 1 0  53.25 1 0  54 1 0  54.75 1 0  55.5 1 0  56.25 1 0  57 1 0  57.75 1 0  58.5 1 0  59.25 1 0  60 1 0  0 1.5 0  0.75 1.5 0  1.5 1.5 0  2.25 1.5 0  3 1.5 0  3.75 1.5 0  4.5 1.5 0  5.25 1.5 0  6 1.5 0  6.75 1.5 0  7.5 1.5 0  8.25 1.5 0  9 1.5 0  9.75 1.5 0  10.5 1.5 0  11.25 1.5 0  12 1.5 0  12.75 1.5 0  13.5 1.5 0  14.25 1.5 0  15 1.5 0  15.75 1.5 0  16.5 1.5 0  17.25 1.5 0  18 1.5 0  18.75 1.5 0  19.5 1.5 0  20.25 1.5 0  21 1.5 0  21.75 1.5 0  22.5 1.5 0  23.25 1.5 0  24 1.5 0  24.75 1.5 0  25.5 1.5 0  26.25 1.5 0  27 1.5 0  27.75 1.5 0  28.5 1.5 0  29.25 1.5 0  30 1.5 0  30.75 1.5 0  31.5 1.5 0  32.25 1.5 0  33 1.5 0  33.75 1.5 0  34.5 1.5 0  35.25 1.5 0  36 1.5 0  36.75 1.5 0  37.5 1.5 0  38.25 1.5 0  39 1.5 0  39.75 1.5 0  40.5 1.5 0  41.25 1.5 0  42 1.5 0  42.75 1.5 0  43.5 1.5 0  44.25 1.5 0  45 1.5 0  45.75 1.5 0  46.5 1.5 0  47.25 1.5 0  48 1.5 0  48.75 1.5 0  49.5 1.5 0  50.25 1.5 0  51 1.5 0  51.75 1.5 0  52.5 1.5 0  53.25 1.5 0  54 1.5 0  54.75 1.5 0  55.5 1.5 0  56.25 1.5 0  57 1.5 0  57.75 1.5 0  58.5 1.5 0  59.25 1.5 0  60 1.5 0  0 2 0  0.75 2 0  1.5 2 0  2.25 2 0  3 2 0  3.75 2 0  4.5 2 0  5.25 2 0  6 2 0  6.75 2 0  7.5 2 0  8.25 2 0  9 2 0  9.75 2 0  10.5 2 0  11.25 2 0  12 2 0  12.75 2 0  13.5 2 0  14.25 2 0  15 2 0  15.75 2 0  16.5 2 0  17.25 2 0  18 2 0  18.75 2 0  19.5 2 0  20.25 2 0  21 2 0  21.75 2 0  22.5 2 0  23.25 2 0  24 2 0  24.75 2 0  25.5 2 0  26.25 2 0  27 2 0  27.75 2 0  28.5 2 0  29.25 2 0  30 2 0  30.75 2 0  31.5 2 0  32.25 2 0  33 2 0  33.75 2 0  34.5 2 0  35.25 2 0  36 2 0  36.75 2 0  37.5 2 0  38.25 2 0  39 2 0  39.75 2 0  40.5 2 0  41.25 2 0  42 2 0  42.75 2 0  43.5 2 0  44.25 2 0  45 2 0  45.75 2 0  46.5 2 0  47.25 2 0  48 2 0  48.75 2 0  49.5 2 0  50.25 2 0  51 2 0  51.75 2 0  52.5 2 0  53.25 2 0  54 2 0  54.75 2 0  55.5 2 0  56.25 2 0  57 2 0  57.75 2 0  58.5 2 0  59.25 2 0  60 2 0  0 2.5 0  0.75 2.5 0  1.5 2.5 0  2.25 2.5 0  3 2.5 0  3.75 2.5 0  4.5 2.5 0  5.25 2.5 0  6 2.5 0  6.75 2.5 0  7.5 2.5 0  8.25 2.5 0  9 2.5 0  9.75 2.5 0  10.5 2.5 0  11.25 2.5 0  12 2.5 0  12.75 2.5 0  13.5 2.5 0  14.25 2.5 0  15 2.5 0  15.75 2.5 0  16.5 2.5 0  17.25 2.5 0  18 2.5 0  18.75 2.5 0  19.5 2.5 0  20.25 2.5 0  21 2.5 0  21.75 2.5 0  22.5 2.5 0  23.25 2.5 0  24 2.5 0  24.75 2.5 0  25.5 2.5 0  26.25 2.5 0  27 2.5 0  27.75 2.5 0  28.5 2.5 0  29.25 2.5 0  30 2.5 0  30.75 2.5 0  31.5 2.5 0  32.25 2.5 0  33 2.5 0  33.75 2.5 0  34.5 2.5 0  35.25 2.5 0  36 2.5 0  36.75 2.5 0  37.5 2.5 0  38.25 2.5 0  39 2.5 0  39.75 2.5 0  40.5 2.5 0  41.25 2.5 0  42 2.5 0  42.75 2.5 0  43.5 2.5 0  44.25 2.5 0  45 2.5 0  45.75 2.5 0  46.5 2.5 0  47.25 2.5 0  48 2.5 0  48.75 2.5 0  49.5 2.5 0  50.25 2.5 0  51 2.5 0  51.75 2.5 0  52.5 2.5 0  53.25 2.5 0  54 2.5 0  54.75 2.5 0  55.5 2.5 0  56.25 2.5 0  57 2.5 0  57.75 2.5 0  58.5 2.5 0  59.25 2.5 0  60 2.5 0  0 3 0  0.75 3 0  1.5 3 0  2.25 3 0  3 3 0  3.75 3 0  4.5 3 0  5.25 3 0  6 3 0  6.75 3 0  7.5 3 0  8.25 3 0  9 3 0  9.75 3 0  10.5 3 0  11.25 3 0  12 3 0  12.75 3 0  13.5 3 0  14.25 3 0  15 3 0  15.75 3 0  16.5 3 0  17.25 3 0  18 3 0  18.75 3 0  19.5 3 0  20.25 3 0  21 3 0  21.75 3 0  22.5 3 0  23.25 3 0  24 3 0  24.75 3 0  25.5 3 0  26.25 3 0  27 3 0  27.75 3 0  28.5 3 0  29.25 3 0  30 3 0  30.75 3 0  31.5 3 0  32.25 3 0  33 3 0  33.75 3 0  34.5 3 0  35.25 3 0  36 3 0  36.75 3 0  37.5 3 0  38.25 3 0  39 3 0  39.75 3 0  40.5 3 0  41.25 3 0  42 3 0  42.75 3 0  43.5 3 0  44.25 3 0  45 3 0  45.75 3 0  46.5 3 0  47.25 3 0  48 3 0  48.75 3 0  49.5 3 0  50.25 3 0  51 3 0  51.75 3 0  52.5 3 0  53.25 3 0  54 3 0  54.75 3 0  55.5 3 0  56.25 3 0  57 3 0  57.75 3 0  58.5 3 0  59.25 3 0  60 3 0  0 3.5 0  0.75 3.5 0  1.5 3.5 0  2.25 3.5 0  3 3.5 0  3.75 3.5 0  4.5 3.5 0  5.25 3.5 0  6 3.5 0  6.75 3.5 0  7.5 3.5 0  8.25 3.5 0  9 3.5 0  9.75 3.5 0  10.5 3.5 0  11.25 3.5 0  12 3.5 0  12.75 3.5 0  13.5 3.5 0  14.25 3.5 0  15 3.5 0  15.75 3.5 0  16.5 3.5 0  17.25 3.5 0  18 3.5 0  18.75 3.5 0  19.5 3.5 0  20.25 3.5 0  21 3.5 0  21.75 3.5 0  22.5 3.5 0  23.25 3.5 0  24 3.5 0  24.75 3.5 0  25.5 3.5 0  26.25 3.5 0  27 3.5 0  27.75 3.5 0  28.5 3.5 0  29.25 3.5 0  30 3.5 0  30.75 3.5 0  31.5 3.5 0  32.25 3.5 0  33 3.5 0  33.75 3.5 0  34.5 3.5 0  35.25 3.5 0  36 3.5 0  36.75 3.5 0  37.5 3.5 0  38.25 3.5 0  39 3.5 0  39.75 3.5 0  40.5 3.5 0  41.25 3.5 0  42 3.5 0  42.75 3.5 0  43.5 3.5 0  44.25 3.5 0  45 3.5 0  45.75 3.5 0  46.5 3.5 0  47.25 3.5 0  48 3.5 0  48.75 3.5 0  49.5 3.5 0  50.25 3.5 0  51 3.5 0  51.75 3.5 0  52.5 3.5 0  53.25 3.5 0  54 3.5 0  54.75 3.5 0  55.5 3.5 0  56.25 3.5 0  57 3.5 0  57.75 3.5 0  58.5 3.5 0  59.25 3.5 0  60 3.5 0  0 4 0  0.75 4 0  1.5 4 0  2.25 4 0  3 4 0  3.75 4 0  4.5 4 0  5.25 4 0  6 4 0  6.75 4 0  7.5 4 0  8.25 4 0  9 4 0  9.75 4 0  10.5 4 0  11.25 4 0  12 4 0  12.75 4 0  13.5 4 0  14.25 4 0  15 4 0  15.75 4 0  16.5 4 0  17.25 4 0  18 4 0  18.75 4 0  19.5 4 0  20.25 4 0  21 4 0  21.75 4 0  22.5 4 0  23.25 4 0  24 4 0  24.75 4 0  25.5 4 0  26.25 4 0  27 4 0  27.75 4 0  28.5 4 0  29.25 4 0  30 4 0  30.75 4 0  31.5 4 0  32.25 4 0  33 4 0  33.75 4 0  34.5 4 0  35.25 4 0  36 4 0  36.75 4 0  37.5 4 0  38.25 4 0  39 4 0  39.75 4 0  40.5 4 0  41.25 4 0  42 4 0  42.75 4 0  43.5 4 0  44.25 4 0  45 4 0  45.75 4 0  46.5 4 0  47.25 4 0  48 4 0  48.75 4 0  49.5 4 0  50.25 4 0  51 4 0  51.75 4 0  52.5 4 0  53.25 4 0  54 4 0  54.75 4 0  55.5 4 0  56.25 4 0  57 4 0  57.75 4 0  58.5 4 0  59.25 4 0  60 4 0  0.375 0.25 0  1.125 0.25 0  1.875 0.25 0  2.625 0.25 0  3.375 0.25 0  4.125 0.25 0  4.875 0.25 0  5.625 0.25 0  6.375 0.25 0  7.125 0.25 0  7.875 0.25 0  8.625 0.25 0  9.375 0.25 0  10.125 0.25 0  10.875 0.25 0  11.625 0.25 0  12.375 0.25 0  13.125 0.25 0  13.875 0.25 0  14.625 0.25 0  15.375 0.25 0  16.125 0.25 0  16.875 0.25 0  17.625 0.25 0  18.375 0.25 0  19.125 0.25 0  19.875 0.25 0  20.625 0.25 0  21.375 0.25 0  22.125 0.25 0  22.875 0.25 0  23.625 0.25 0  24.375 0.25 0  25.125 0.25 0  25.875 0.25 0  26.625 0.25 0  27.375 0.25 0  28.125 0.25 0  28.875 0.25 0  29.625 0.25 0  30.375 0.25 0  31.125 0.25 0  31.875 0.25 0  32.625 0.25 0  33.375 0.25 0  34.125 0.25 0  34.875 0.25 0  35.625 0.25 0  36.375 0.25 0  37.125 0.25 0  37.875 0.25 0  38.625 0.25 0  39.375 0.25 0  40.125 0.25 0  40.875 0.25 0  41.625 0.25 0  42.375 0.25 0  43.125 0.25 0  43.875 0.25 0  44.625 0.25 0  45.375 0.25 0  46.125 0.25 0  46.875 0.25 0  47.625 0.25 0  48.375 0.25 0  49.125 0.25 0  49.875 0.25 0  50.625 0.25 0  51.375 0.25 0  52.125 0.25 0  52.875 0.25 0  53.625 0.25 0  54.375 0.25 0  55.125 0.25 0  55.875 0.25 0  56.625 0.25 0  57.375 0.25 0  58.125 0.25 0  58.875 0.25 0  59.625 0.25 0  0.375 0.75 0  1.125 0.75 0  1.875 0.75 0  2.625 0.75 0  3.375 0.75 0  4.125 0.75 0  4.875 0.75 0  5.625 0.75 0  6.375 0.75 0  7.125 0.75 0  7.875 0.75 0  8.625 0.75 0  9.375 0.75 0  10.125 0.75 0  10.875 0.75 0  11.625 0.75 0  12.375 0.75 0  13.125 0.75 0  13.875 0.75 0  14.625 0.75 0  15.375 0.75 0  16.125 0.75 0  16.875 0.75 0  17.625 0.75 0  18.375 0.75 0  19.125 0.75 0  19.875 0.75 0  20.625 0.75 0  21.375 0.75 0  22.125 0.75 0  22.875 0.75 0  23.625 0.75 0  24.375 0.75 0  25.125 0.75 0  25.875 0.75 0  26.625 0.75 0  27.375 0.75 0  28.125 0.75 0  28.875 0.75 0  29.625 0.75 0  30.375 0.75 0  31.125 0.75 0  31.875 0.75 0  32.625 0.75 0  33.375 0.75 0  34.125 0.75 0  34.875 0.75 0  35.625 0.75 0  36.375 0.75 0  37.125 0.75 0  37.875 0.75 0  38.625 0.75 0  39.375 0.75 0  40.125 0.75 0  40
[...]
<PointData  Vectors="f_8-0"> 
<DataArray  type="Float64"  Name="f_8-0"  NumberOfComponents="3" format="ascii">0.0000000000000000e+00 0.0000000000000000e+00 0.0000000000000000e+00  0.0000000000000000e+00 0.0000000000000000e+00 0.0000000000000000e+00  0.0000000000000000e+00 0.0000000000000000e+00 0.0000000000000000e+00  0.0000000000000000e+00 0.0000000000000000e+00 0.0000000000000000e+00  0.0000000000000000e+00 0.0000000000000000e+00 0.0000000000000000e+00  0.0000000000000000e+00 0.0000000000000000e+00 0.0000000000000000e+00  0.0000000000000000e+00 0.0000000000000000e+00 0.0000000000000000e+00  0.0000000000000000e+00 0.0000000000000000e+00 0.0000000000000000e+00  0.0000000000000000e+00 0.0000000000000000e+00 0.0000000000000000e+00  0.0000000000000000e+00 0.0000000000000000e+00 0.0000000000000000e+00  0.0000000000000000e+00 0.0000000000000000e+00 0.0000000000000000e+00  0.0000000000000000e+00 0.0000000000000000e+00 0.0000000000000000e+00  0.0000000000000000e+00 0.0000000000000000e+00 0.0000000000000000e+00  0.0000000000000000e+00 0.0000000000000000e+00 0.0000000000000000e+00  0.0000000000000000e+00 0.0000000000000000e+00 0.0000000000000000e+00  0.0000000000000000e+00 0.0000000000000000e+00 0.0000000000000000e+00  0.0000000000000000e+00 0.0000000000000000e+00 0.0000000000000000e+00  0.0000000000000000e+00 0.0000000000000000e+00 0.0000000000000000e+00  0.0000000000000000e+00 0.0000000000000000e+00 0.0000000000000000e+00  0.0000000000000000e+00 0.0000000000000000e+00 0.0000000000000000e+00  0.0000000000000000e+00 0.0000000000000000e+00 0.0000000000000000e+00  0.0000000000000000e+00 0.0000000000000000e+00 0.0000000000000000e+00  0.0000000000000000e+00 0.0000000000000000e+00 0.0000000000000000e+00  0.0000000000000000e+00 0.0000000000000000e+00 0.0000000000000000e+00  0.0000000000000000e+00 0.0000000000000000e+00 0.0000000000000000e+00  0.0000000000000000e+00 0.0000000000000000e+00 0.0000000000000000e+00  0.0000000000000000e+00 0.0000000000000000e+00 0.0000000000000000e+00  0.0000000000000000e+00 0.0000000000000000e+00 0.0000000000000000e+00  0.0000000000000000e+00 0.0000000000000000e+00 0.0000000000000000e+00  0.0000000000000000e+00 0.0000000000000000e+00 0.0000000000000000e+00  0.0000000000000000e+00 0.0000000000000000e+00 0.0000000000000000e+00  0.0000000000000000e+00 0.0000000000000000e+00 0.0000000000000000e+00  0.0000000000000000e+00 0.0000000000000000e+00 0.0000000000000000e+00  0.0000000000000000e+00 0.0000000000000000e+00 0.0000000000000000e+00  0.0000000000000000e+00 0.0000000000000000e+00 0.0000000000000000e+00  0.0000000000000000e+00 0.0000000000000000e+00 0.0000000000000000e+00  0.0000000000000000e+00 0.0000000000000000e+00 0.0000000000000000e+00  0.0000000000000000e+00 0.0000000000000000e+00 0.0000000000000000e+00  0.0000000000000000e+00 0.0000000000000000e+00 0.0000000000000000e+00  0.0000000000000000e+00 0.0000000000000000e+00 0.0000000000000000e+00  0.0000000000000000e+00 0.0000000000000000e+00 0.0000000000000000e+00  0.0000000000000000e+00 0.0000000000000000e+00 0.0000000000000000e+00  0.0000000000000000e+00 0.0000000000000000e+00 0.0000000000000000e+00  0.0000000000000000e+00 0.0000000000000000e+00 0.0000000000000000e+00  0.0000000000000000e+00 0.0000000000000000e+00 0.0000000000000000e+00  0.0000000000000000e+00 0.0000000000000000e+00 0.0000000000000000e+00  0.0000000000000000e+00 0.0000000000000000e+00 0.0000000000000000e+00  0.0000000000000000e+00 0.0000000000000000e+00 0.0000000000000000e+00  0.0000000000000000e+00 0.0000000000000000e+00 0.0000000000000000e+00  0.0000000000000000e+00 0.0000000000000000e+00 0.0000000000000000e+00  0.0000000000000000e+00 0.0000000000000000e+00 0.0000000000000000e+00  0.0000000000000000e+00 0.0000000000000000e+00 0.0000000000000000e+00  0.0000000000000000e+00 0.0000000000000000e+00 0.0000000000000000e+00  0.0000000000000000e+00 0.0000000000000000e+00 0.0000000000000000e+00  0.0000000000000000e+00 0.0000000000000000e+00 0.0000000000000000e+00  0.0000000000000000e+00 0.0000000000000000e+00 0.0000000000000000e+00  0.0000000000000000e+00 0.0000000000000000e+00 0.0000000000000000e+00  0.0000000000000000e+00 0.0000000000000000e+00 0.0000000000000000e+00  0.0000000000000000e+00 0.0000000000000000e+00 0.0000000000000000e+00  0.0000000000000000e+00 0.0000000000000000e+00 0.0000000000000000e+00  0.0000000000000000e+00 0.0000000000000000e+00 0.0000000000000000e+00  0.0000000000000000e+00 0.0000000000000000e+00 0.0000000000000000e+00  0.0000000000000000e+00 0.0000000000000000e+00 0.0000000000000000e+00  0.0000000000000000e+00 0.0000000000000000e+00 0.0000000000000000e+00  0.0000000000000000e+00 0.0000000000000000e+00 0.0000000000000000e+00  0.0000000000000000e+00 0.0000000000000000e+00 0.0000000000000000e+00  0.0000000000000000e+00 0.0000000000000000e+00 0.0000000000000000e+00  0.0000000000000000e+00 0.0000000000000000e+00 0.0000000000000000e+00  0.0000000000000000e+00 0.0000000000000000e+00 0.0000000000000000e+00  0.0000000000000000e+00 0.0000000000000000e+00 0.0000000000000000e+00  0.0000000000000000e+00 0.0000000000000000e+00 0.0000000000000000e+00  0.0000000000000000e+00 0.0000000000000000e+00 0.0000000000000000e+00  0.0000000000000000e+00 0.0000000000000000e+00 0.0000000000000000e+00  0.0000000000000000e+00 0.0000000000000000e+00 0.0000000000000000e+00  0.0000000000000000e+00 0.0000000000000000e+00 0.0000000000000000e+00  0.0000000000000000e+00 0.0000000000000000e+00 0.0000000000000000e+00  0.0000000000000000e+00 0.0000000000000000e+00 0.0000000000000000e+00  0.0000000000000000e+00 0.0000000000000000e+00 0.0000000000000000e+00  0.0000000000000000e+00 0.0000000000000000e+00 0.0000000000000000e+00  0.0000000000000000e+00 0.0000000000000000e+00 0.0000000000000000e+00  0.0000000000000000e+00 0.0000000000000000e+00 0.0000000000000000e+00  -2.3490769708934536e+01 0.0000000000000000e+00 0.0000000000000000e+00  -2.3465360753951138e+01 -1.4075034370813571e-03 0.0000000000000000e+00  -2.3454706970671680e+01 -3.0313358249588868e-03 0.0000000000000000e+00  -2.3452385607502169e+01 -2.9763418962626643e-03 0.0000000000000000e+00  -2.3451322099067081e+01 -2.9111922230748064e-03 0.0000000000000000e+00  -2.3450533954099551e+01 -2.8663932291669802e-03 0.0000000000000000e+00  -2.3449897295220211e+01 -2.8067645318606460e-03 0.0000000000000000e+00  -2.3449427773073239e+01 -2.7381320654468948e-03 0.0000000000000000e+00  -2.3449112969844602e+01 -2.6777013150201716e-03 0.0000000000000000e+00  -2.3448917012366604e+01 -2.6325929708924060e-03 0.0000000000000000e+00  -2.3448801967903158e+01 -2.6026978925899353e-03 0.0000000000000000e+00  -2.3448737467044037e+01 -2.5843606349915684e-03 0.0000000000000000e+00  -2.3448702566428324e+01 -2.5738010382628544e-03 0.0000000000000000e+00  -2.3448684190137911e+01 -2.5679637550252471e-03 0.0000000000000000e+00  -2.3448674698195216e+01 -2.5648659548783773e-03 0.0000000000000000e+00  -2.3448669846662956e+01 -2.5632517364397628e-03 0.0000000000000000e+00  -2.3448667364294359e+01 -2.5624324021829973e-03 0.0000000000000000e+00  -2.3448666073845104e+01 -2.5620162552560327e-03 0.0000000000000000e+00  -2.3448665376666487e+01 -2.5618098145689118e-03 0.0000000000000000e+00  -2.3448664973966284e+01 -2.5617056055819124e-03 0.0000000000000000e+00  -2.3448664716994191e+01 -2.5616545688570262e-03 0.0000000000000000e+00  -2.3448664532414181e+01 -2.5616286316764796e-03 0.0000000000000000e+00  -2.3448664383713009e+01 -2.5616160657228040e-03 0.0000000000000000e+00  -2.3448664252919780e+01 -2.5616095778268205e-03 0.0000000000000000e+00  -2.3448664130982625e+01 -2.5616064988642556e-03 0.0000000000000000e+00  -2.3448664013473060e+01 -2.5616048742010851e-03 0.0000000000000000e+00  -2.3448663898119975e+01 -2.5616041377981751e-03 0.0000000000000000e+00  -2.3448663783838221e+01 -2.5616037398931437e-03 0.0000000000000000e+00  -2.3448663670054025e+01 -2.5616035775778262e-03 0.0000000000000000e+00  -2.3448663556511434e+01 -2.5616034885381786e-03 0.0000000000000000e+00  -2.3448663443068856e+01 -2.5616034604981500e-03 0.0000000000000000e+00  -2.3448663329670723e+01 -2.5616034470932339e-03 0.0000000000000000e+00  -2.3448663216284494e+01 -2.5616034470098041e-03 0.0000000000000000e+00  -2.3448663102901627e+01 -2.5616034513242956e-03 0.0000000000000000e+00  -2.3448662989512950e+01 -2.5616034552166768e-03 0.0000000000000000e+00  -2.3448662876127116e+01 -2.5616034641755855e-03 0.0000000000000000e+00  -2.3448662762727427e+01 -2.5616034628382651e-03 0.0000000000000000e+00  -2.3448662649347018e+01 -2.5616034799508173e-03 0.0000000000000000e+00  -2.3448662535926783e+01 -2.5616034620977593e-03 0.0000000000000000e+00  -2.3448662422581858e+01 -2.5616035084546265e-03 0.0000000000000000e+00  -2.3448662309103383e+01 -2.5616034335246740e-03 0.0000000000000000e+00  -2.3448662195885834e+01 -2.5616035805603385e-03 0.0000000000000000e+00  -2.3448662082209143e+01 -2.5616033169696987e-03 0.0000000000000000e+00  -2.3448661969401922e+01 -2.5616037992854811e-03 0.0000000000000000e+00  -2.3448661855071212e+01 -2.5616029254912475e-03 0.0000000000000000e+00  -2.3448661743540942e+01 -2.5616044823322513e-03 0.0000000000000000e+00  -2.3448661627138556e+01 -2.5616016993057181e-03 0.0000000000000000e+00  -2.3448661519449100e+01 -2.5616065614339810e-03 0.0000000000000000e+00  -2.3448661396807722e+01 -2.5615980447243228e-03 0.0000000000000000e+00  -2.3448661300181538e+01 -2.5616126366433019e-03 0.0000000000000000e+00  -2.3448661159734840e+01 -2.5615876792798179e-03 0.0000000000000000e+00  -2.3448661093371733e+01 -2.5616295164780007e-03 0.0000000000000000e+00  -2.3448660905014304e+01 -2.5615598299180880e-03 0.0000000000000000e+00  -2.3448660916600623e+01 -2.5616738556808764e-03 0.0000000000000000e+00  -2.3448660607211615e+01 -2.5614893469134087e-03 0.0000000000000000e+00  -2.3448660806494630e+01 -2.5617835672255701e-03 0.0000000000000000e+00  -2.3448660210207827e+01 -2.5613220385090865e-03 0.0000000000000000e+00  -2.3448660830188423e+01 -2.5620396067106681e-03 0.0000000000000000e+00  -2.3448659590529957e+01 -2.5609499619231920e-03 0.0000000000000000e+00  -2.3448661087744970e+01 -2.5626086589816350e-03 0.0000000000000000e+00  -2.3448658457344312e+01 -2.5601721005205683e-03 0.0000000000000000e+00  -2.3448661650966589e+01 -2.5638319228352652e-03 0.0000000000000000e+00  -2.3448656096262095e+01 -2.5586235809919541e-03 0.0000000000000000e+00  -2.3448662259399697e+01 -2.5663378947002285e-03 0.0000000000000000e+00  -2.3448651076092972e+01 -2.5555183786603254e-03 0.0000000000000000e+00  -2.3448661272177159e+01 -2.5706828684176975e-03 0.0000000000000000e+00  -2.3448639998685511e+01 -2.5494400128475881e-03 0.0000000000000000e+00  -2.3448640639121958e+01 -2.5801142610413154e-03 0.0000000000000000e+00  -2.3448561397052785e+01 -2.5613636506492750e-03 0.0000000000000000e+00  -2.3448362124198592e+01 -2.6736273920213204e-03 0.0000000000000000e+00  -2.3447799028079526e+01 -2.8104448763014043e-03 0.0000000000000000e+00  -2.3446508592765515e+01 -3.1738411201559951e-03 0.0000000000000000e+00  -2.3444532367929568e+01 -3.4830921365296614e-03 0.0000000000000000e+00  -2.3441172041760829e+01 -3.4912321681138895e-03 0.0000000000000000e+00  -2.3437683852634450e+01 -3.5193583895294796e-03 0.0000000000000000e+00  -2.3432368909073311e+01 -2.4605488628151582e-03 0.0000000000000000e+00  -2.3432081338840188e+01 -2.0081630672640488e-03 0.0000000000000000e+00  -2.3427301023050308e+01 -1.8200711905045899e-03 0.0000000000000000e+00  -2.3422337859441257e+01 -1.1626430861209611e-02 0.0000000000000000e+00  -2.3423222446913972e+01 -3.8745338191384662e-02 0.0000000000000000e+00  -2.3375207309964029e+01 0.0000000000000000e+00 0.0000000000000000e+00  -3.1861360761663992e+01 0.0000000000000000e+00 0.0000000000000000e+00  -3.1869387142222809e+01 -5.3653574911717344e-04 0.0000000000000000e+00  -3.1868963960822242e+01 1.5075667345932303e-03 0.0000000000000000e+00  -3.1868005062595600e+01 2.0279192472746942e-03 0.0000000000000000e+00  -3.1867409494372808e+01 2.2002298240399697e-03 0.0000000000000000e+00  -3.1867018190939561e+01 2.3444502273403845e-03 0.0000000000000000e+00  -3.1866821352975435e+01 2.5319352286485258e-03 0.0000000000000000e+00  -3.1866764079729357e+01 2.7034241874195290e-03 0.0000000000000000e+00  -3.1866763462361526e+01 2.8279788054831664e-03 0.0000000000000000e+00  -3.1866774888564354e+01 2.9106738771829798e-03 0.0000000000000000e+00  -3.1866784831386653e+01 2.9617912774803890e-03 0.0000000000000000e+00  -3.1866791049694502e+01 2.9920822116495725e-03 0.0000000000000000e+00  -3.1866794361939064e+01 3.0092619279085226e-03 0.0000000000000000e+00  -3.1866795968549486e+01 3.0187263838580350e-03 0.0000000000000000e+00  -3.1866796701962091e+01 3.0237111167458241e-03 0.0000000000000000e+00  -3.1866797001600506e+01 3.0262993125685081e-03 0.0000000000000000e+00  -3.1866797085199810e+01 3.0275992166030976e-03 0.0000000000000000e+00  -3.1866797058571965e+01 3.0282602041884258e-03 0.0000000000000000e+00  -3.1866796976721091e+01 3.0285846966858166e-03 0.0000000000000000e+00  -3.1866796866598129e+01 3.0287501114109150e-03 0.0000000000000000e+00  -3.1866796742284844e+01 3.0288298517272020e-03 0.0000000000000000e+00  -3.1866796610416010e+01 3.0288710958704919e-03 0.0000000000000000e+00  -3.1866796474566826e+01 3.0288904512812778e-03 0.0000000000000000e+00  -3.1866796336428266e+01 3.0289007339623034e-03 0.0000000000000000e+00  -3.1866796197007993e+01 3.0289053113505206e-03 0.0000000000000000e+00  -3.1866796056798297e+01 3.0289078542439563e-03 0.0000000000000000e+00  -3.1866795916124193e+01 3.0289088619873290e-03 0.0000000000000000e+00  -3.1866795775152351e+01 3.0289094620890725e-03 0.0000000000000000e+00  -3.1866795633995487e+01 3.0289096381717006e-03 0.0000000000000000e+00  -3.1866795492717806e+01 3.0289097551729092e-03 0.0000000000000000e+00  -3.1866795351362505e+01 3.0289097581129632e-03 0.0000000000000000e+00  -3.1866795209955807e+01 3.0289097609871199e-03 0.0000000000000000e+00  -3.1866795068516360e+01 3.0289097365700348e-03 0.0000000000000000e+00  -3.1866794927052386e+01 3.0289097176989777e-03 0.0000000000000000e+00  -3.1866794785581504e+01 3.0289096931385758e-03 0.0000000000000000e+00  -3.1866794644087474e+01 3.0289096771186526e-03 0.0000000000000000e+00  -3.1866794502618234e+01 3.0289096511176613e-03 0.0000000000000000e+00  -3.1866794361092357e+01 3.0289096470810994e-03 0.0000000000000000e+00  -3.1866794219673491e+01 3.0289096074496897e-03 0.0000000000000000e+00  -3.1866794078067212e+01 3.0289096430027068e-03 0.0000000000000000e+00  -3.1866793936828934e+01 3.0289095459051733e-03 0.0000000000000000e+00  -3.1866793794954251e+01 3.0289097045137318e-03 0.0000000000000000e+00  -3.1866793654288024e+01 3.0289094084741328e-03 0.0000000000000000e+00  -3.1866793511532325e+01 3.0289099571763783e-03 0.0000000000000000e+00  -3.1866793372621313e+01 3.0289090116446134e-03 0.0000000000000000e+00  -3.1866793227105276e+01 3.0289107732434676e-03 0.0000000000000000e+00  -3.1866793093372024e+01 3.0289078028972365e-03 0.0000000000000000e+00  -3.1866792939673033e+01 3.0289131994137367e-03 0.0000000000000000e+00  -3.1866792820540596e+01 3.0289042018439793e-03 0.0000000000000000e+00  -3.1866792643988052e+01 3.0289200334877218e-03 0.0000000000000000e+00  -3.1866792563752803e+01 3.0288939672461464e-03 0.0000000000000000e+00  -3.1866792327509010e+01 3.0289382994342869e-03 0.0000000000000000e+00  -3.1866792344047091e+01 3.0288664375700629e-03 0.0000000000000000e+00  -3.1866791963306824e+01 3.0289843251916941e-03 0.0000000000000000e+00  -3.1866792201692924e+01 3.0287964470008190e-03 0.0000000000000000e+00  -3.1866791499672047e+01 3.0290926143329826e-03 0.0000000000000000e+00  -3.1866792199732810e+01 3.0286276022550504e-03 0.0000000000000000e+00  -3.1866790845040335e+01 3.0293270375590358e-03 0.0000000000000000e+00  -3.1866792401579438e+01 3.0282363874577175e-03 0.0000000000000000e+00  -3.1866789829361256e+01 3.0297804087984995e-03 0.0000000000000000e+00  -3.1866792753900924e+01 3.0273468862284342e-03 0.0000000000000000e+00  -3.1866788054751808e+01 3.0305086317973587e-03 0.0000000000000000e+00  -3.1866792591523051e+01 3.0253255780829640e-03 0.0000000000000000e+00  -3.1866784279355130e+01 3.0312586794037540e-03 0.0000000000000000e+00  -3.1866788175522142e+01 3.0205817869005374e-03 0.0000000000000000e+00  -3.1866772071872308e+01 3.0295424182530911e-03 0.0000000000000000e+00  -3.1866756362817604e+01 3.0029529913142869e-03 0.0000000000000000e+00  -3.1866700315395775e+01 2.9916311024233183e-03 0.0000000000000000e+00  -3.1866550478620464e+01 2.8636581941520931e-03 0.0000000000000000e+00  -3.1866254970702364e+01 2.6335318020138210e-03 0.0000000000000000e+00  -3.1865528535993629e+01 2.0284663961006922e-03 0.0000000000000000e+00  -3.1864285813303784e+01 1.1033243319745164e-03 0.0000000000000000e+00  -3.1861513441663813e+01 -2.8760103838932461e-04 0.0000000000000000e+00  -3.1856900513099632e+01 -1.9324107529502326e-03 0.0000000000000000e+00  -3.1850286945539381e+01 -2.5743786173372967e-03 0.0000000000000000e+00  -3.1846574306998868e+01 -7.9960881765854563e-04 0.0000000000000000e+00  -3.1842943521812053e+01 1.3500993995226431e-03 0.0000000000000000e+00  -3.1843483156057836e+01 2.5019748532065346e-03 0.0000000000000000e+00  -3.1844314940857366e+01 -1.3521080704901878e-03 0.0000000000000000e+00  -3.1868049807565185e+01 2.2209666825707960e-02 0.0000000000000000e+00  -3.1858765749966238e+01 0.0000000000000000e+00 0.0000000000000000e+00  -3.1867819415924867e+01 0.0000000000000000e+00 0.0000000000000000e+00  -3.1872764468693269e+01 -1.3359627971954462e-03 0.0000000000000000e+00  -3.1875276675579119e+01 -4.6929063797841025e-04 0.0000000000000000e+00  -3.1876330214635036e+01 -1.6292437606894551e-06 0.0000000000000000e+00  -3.1877047330160174e+01 1.7105922031070901e-04 0.0000000000000000e+00  -3.1877667103670106e+01 3.3755681318280010e-04 0.0000000000000000e+00  -3.1878165457830260e+01 5.4061245370457878e-04 0.0000000000000000e+00  -3.1878518990444391e+01 6.9587270574986138e-04 0.0000000000000000e+00  -3.1878746373042656e+01 7.8865301355598278e-04 0.0000000000000000e+00  -3.1878883600617844e+01 8.4372090154118259e-04 0.0000000000000000e+00  -3.1878962722156096e+01 8.7616622847243645e-04 0.0000000000000000e+00  -3.1879006611903598e+01 8.9521358191538931e-04 0.0000000000000000e+00  -3.1879030236884255e+01 9.0601249246195488e-04 0.0000000000000000e+00  -3.1879042643596204e+01 9.1199739310583120e-04 0.0000000000000000e+00  -3.1879049010072631e+01 9.1515350278465650e-04 0.0000000000000000e+00  -3.1879052195546777e+01 9.1680459400225885e-04 0.0000000000000000e+00  -3.1879053737445432e+01 9.1763339837643238e-04 0.0000000000000000e+00  -3.1879054444545837e+01 9.1805768286322734e-04 0.0000000000000000e+00  -3.1879054730887276e+01 9.1826433234911623e-04 0.0000000000000000e+00  -3.1879054807053496e+01 9.1837006864691926e-04 0.0000000000000000e+00  -3.1879054777352582e+01 9.1841992935691636e-04 0.0000000000000000e+00  -3.1879054694700574e+01 9.1844569376277037e-04 0.0000000000000000e+00  -3.1879054584870779e+01 9.1845725227780099e-04 0.0000000000000000e+00  -3.1879054461393533e+01 9.1846334332559474e-04 0.0000000000000000e+00  -3.1879054330682433e+01 9.1846581653918266e-04 0.0000000000000000e+00  -3.1879054196363562e+01 9.1846716048938433e-04 0.0000000000000000e+00  -3.1879054060034864e+01 9.1846757479013342e-04 0.0000000000000000e+00  -3.1879053922727262e+01 9.1846781320917140e-04 0.0000000000000000e+00  -3.1879053784834088e+01 9.1846781540732235e-04 0.0000000000000000e+00  -3.1879053646664698e+01 9.1846781805874961e-04 0.0000000000000000e+00  -3.1879053508313589e+01 9.1846776940944942e-04 0.0000000000000000e+00  -3.1879053369883369e+01 9.1846773737298284e-04 0.0000000000000000e+00  -3.1879053231391591e+01 9.1846769964040308e-04 0.0000000000000000e+00  -3.1879053092880035e+01 9.1846767268664918e-04 0.0000000000000000e+00  -3.1879052954337777e+01 9.1846765100106172e-04 0.0000000000000000e+00  -3.1879052815809874e+01 9.1846763140174020e-04 0.0000000000000000e+00  -3.1879052677236420e+01 9.1846762147313680e-04 0.0000000000000000e+00  -3.