<?xml version="1.0"?>
<VTKFile type="UnstructuredGrid"  version="0.1"  >
<UnstructuredGrid>
<Piece  NumberOfPoints="1369" NumberOfCells="2560">
<Points>
<DataArray  type="Float64"  NumberOfComponents="3"  format="ascii">0 0 0  0.75 0 0  1.5 0 0  2.25 0 0  3 0 0  3.75 0 0  4.5 0 0  5.25 0 0  6 0 0  6.75 0 0  7.5 0 0  8.25 0 0  9 0 0  9.75 0 0  10.5 0 0  11.25 0 0  12 0 0  12.75 0 0  13.5 0 0  14.25 0 0  15 0 0  15.75 0 0  16.5 0 0  17.25 0 0  18 0 0  18.75 0 0  19.5 0 0  20.25 0 0  21 0 0  21.75 0 0  22.5 0 0  23.25 0 0  24 0 0  24.75 0 0  25.5 0 0  26.25 0 0  27 0 0  27.75 0 0  28.5 0 0  29.25 0 0  30 0 0  30.75 0 0  31.5 0 0  32.25 0 0  33 0 0  33.75 0 0  34.5 0 0  35.25 0 0  36 0 0  36.75 0 0  37.5 0 0  38.25 0 0  39 0 0  39.75 0 0  40.5 0 0  41.25 0 0  42 0 0  42.75 0 0  43.5 0 0  44.25 0 0  45 0 0  45.75 0 0  46.5 0 0  47.25 0 0  48 0 0  48.75 0 0  49.5 0 0  50.25 0 0  51 0 0  51.75 0 0  52.5 0 0  53.25 0 0  54 0 0  54.75 0 0  55.5 0 0  56.25 0 0  57 0 0  57.75 0 0  58.5 0 0  59.25 0 0  60 0 0  0 0.5 0  0.75 0.5 0  1.5 0.5 0  2.25 0.5 0  3 0.5 0  3.75 0.5 0  4.5 0.5 0  5.25 0.5 0  6 0.5 0  6.75 0.5 0  7.5 0.5 0  8.25 0.5 0  9 0.5 0  9.75 0.5 0  10.5 0.5 0  11.25 0.5 0  12 0.5 0  12.75 0.5 0  13.5 0.5 0  14.25 0.5 0  15 0.5 0  15.75 0.5 0  16.5 0.5 0  17.25 0.5 0  18 0.5 0  18.75 0.5 0  19.5 0.5 0  20.25 0.5 0  21 0.5 0  21.75 0.5 0  22.5 0.5 0  23.25 0.5 0  24 0.5 0  24.75 0.5 0  25.5 0.5 0  26.25 0.5 0  27 0.5 0  27.75 0.5 0  28.5 0.5 0  29.25 0.5 0  30 0.5 0  30.75 0.5 0  31.5 0.5 0  32.25 0.5 0  33 0.5 0  33.75 0.5 0  34.5 0.5 0  35.25 0.5 0  36 0.5 0  36.75 0.5 0  37.5 0.5 0  38.25 0.5 0  39 0.5 0  39.75 0.5 0  40.5 0.5 0  41.25 0.5 0  42 0.5 0  42.75 0.5 0  43.5 0.5 0  44.25 0.5 0  45 0.5 0  45.75 0.5 0  46.5 0.5 0  47.25 0.5 0  48 0.5 0  48.75 0.5 0  49.5 0.5 0  50.25 0.5 0  51 0.5 0  51.75 0.5 0  52.5 0.5 0  53.25 0.5 0  54 0.5 0  54.75 0.5 0  55.5 0.5 0  56.25 0.5 0  57 0.5 0  57.75 0.5 0  58.5 0.5 0  59.25 0.5 0  60 0.5 0  0 1 0  0.75 1 0  1.5 1 0  2.25 1 0  3 1 0  3.75 1 0  4.5 1 0  5.25 1 0  6 1 0  6.75 1 0  7.5 1 0  8.25 1 0  9 1 0  9.75 1 0  10.5 1 0  11.25 1 0  12 1 0  12.75 1 0  13.5 1 0  14.25 1 0  15 1 0  15.75 1 0  16.5 1 0  17.25 1 0  18 1 0  18.75 1 0  19.5 1 0  20.25 1 0  21 1 0  21.75 1 0  22.5 1 0  23.25 1 0  24 1 0  24.75 1 0  25.5 1 0  26.25 1 0  27 1 0  27.75 1 0  28.5 1 0  29.25 1 0  30 1 0  30.75 1 0  31.5 1 0  32.25 1 0  33 1 0  33.75 1 0  34.5 1 0  35.25 1 0  36 1 0  36.75 1 0  37.5 1 0  38.25 1 0  39 1 0  39.75 1 0  40.5 1 0  41.25 1 0  42 1 0  42.75 1 0  43.5 1 0  44.25 1 0  45 1 0  45.75 1 0  46.5 1 0  47.25 1 0  48 1 0  48.75 1 0  49.5 1 0  50.25 1 0  51 1 0  51.75 1 0  52.5 1 0  53.25 1 0  54 1 0  54.75 1 0  55.5 1 0  56.25 1 0  57 1 0  57.75 1 0  58.5 1 0  59.25 1 0  60 1 0  0 1.5 0  0.75 1.5 0  1.5 1.5 0  2.25 1.5 0  3 1.5 0  3.75 1.5 0  4.5 1.5 0  5.25 1.5 0  6 1.5 0  6.75 1.5 0  7.5 1.5 0  8.25 1.5 0  9 1.5 0  9.75 1.5 0  10.5 1.5 0  11.25 1.5 0  12 1.5 0  12.75 1.5 0  13.5 1.5 0  14.25 1.5 0  15 1.5 0  15.75 1.5 0  16.5 1.5 0  17.25 1.5 0  18 1.5 0  18.75 1.5 0  19.5 1.5 0  20.25 1.5 0  21 1.5 0  21.75 1.5 0  22.5 1.5 0  23.25 1.5 0  24 1.5 0  24.75 1.5 0  25.5 1.5 0  26.25 1.5 0  27 1.5 0  27.75 1.5 0  28.5 1.5 0  29.25 1.5 0  30 1.5 0  30.75 1.5 0  31.5 1.5 0  32.25 1.5 0  33 1.5 0  33.75 1.5 0  34.5 1.5 0  35.25 1.5 0  36 1.5 0  36.75 1.5 0  37.5 1.5 0  38.25 1.5 0  39 1.5 0  39.75 1.5 0  40.5 1.5 0  41.25 1.5 0  42 1.5 0  42.75 1.5 0  43.5 1.5 0  44.25 1.5 0  45 1.5 0  45.75 1.5 0  46.5 1.5 0  47.25 1.5 0  48 1.5 0  48.75 1.5 0  49.5 1.5 0  50.25 1.5 0  51 1.5 0  51.75 1.5 0  52.5 1.5 0  53.25 1.5 0  54 1.5 0  54.75 1.5 0  55.5 1.5 0  56.25 1.5 0  57 1.5 0  57.75 1.5 0  58.5 1.5 0  59.25 1.5 0  60 1.5 0  0 2 0  0.75 2 0  1.5 2 0  2.25 2 0  3 2 0  3.75 2 0  4.5 2 0  5.25 2 0  6 2 0  6.75 2 0  7.5 2 0  8.25 2 0  9 2 0  9.75 2 0  10.5 2 0  11.25 2 0  12 2 0  12.75 2 0  13.5 2 0  14.25 2 0  15 2 0  15.75 2 0  16.5 2 0  17.25 2 0  18 2 0  18.75 2 0  19.5 2 0  20.25 2 0  21 2 0  21.75 2 0  22.5 2 0  23.25 2 0  24 2 0  24.75 2 0  25.5 2 0  26.25 2 0  27 2 0  27.75 2 0  28.5 2 0  29.25 2 0  30 2 0  30.75 2 0  31.5 2 0  32.25 2 0  33 2 0  33.75 2 0  34.5 2 0  35.25 2 0  36 2 0  36.75 2 0  37.5 2 0  38.25 2 0  39 2 0  39.75 2 0  40.5 2 0  41.25 2 0  42 2 0  42.75 2 0  43.5 2 0  44.25 2 0  45 2 0  45.75 2 0  46.5 2 0  47.25 2 0  48 2 0  48.75 2 0  49.5 2 0  50.25 2 0  51 2 0  51.75 2 0  52.5 2 0  53.25 2 0  54 2 0  54.75 2 0  55.5 2 0  56.25 2 0  57 2 0  57.75 2 0  58.5 2 0  59.25 2 0  60 2 0  0 2.5 0  0.75 2.5 0  1.5 2.5 0  2.25 2.5 0  3 2.5 0  3.75 2.5 0  4.5 2.5 0  5.25 2.5 0  6 2.5 0  6.75 2.5 0  7.5 2.5 0  8.25 2.5 0  9 2.5 0  9.75 2.5 0  10.5 2.5 0  11.25 2.5 0  12 2.5 0  12.75 2.5 0  13.5 2.5 0  14.25 2.5 0  15 2.5 0  15.75 2.5 0  16.5 2.5 0  17.25 2.5 0  18 2.5 0  18.75 2.5 0  19.5 2.5 0  20.25 2.5 0  21 2.5 0  21.75 2.5 0  22.5 2.5 0  23.25 2.5 0  24 2.5 0  24.75 2.5 0  25.5 2.5 0  26.25 2.5 0  27 2.5 0  27.75 2.5 0  28.5 2.5 0  29.25 2.5 0  30 2.5 0  30.75 2.5 0  31.5 2.5 0  32.25 2.5 0  33 2.5 0  33.75 2.5 0  34.5 2.5 0  35.25 2.5 0  36 2.5 0  36.75 2.5 0  37.5 2.5 0  38.25 2.5 0  39 2.5 0  39.75 2.5 0  40.5 2.5 0  41.25 2.5 0  42 2.5 0  42.75 2.5 0  43.5 2.5 0  44.25 2.5 0  45 2.5 0  45.75 2.5 0  46.5 2.5 0  47.25 2.5 0  48 2.5 0  48.75 2.5 0  49.5 2.5 0  50.25 2.5 0  51 2.5 0  51.75 2.5 0  52.5 2.5 0  53.25 2.5 0  54 2.5 0  54.75 2.5 0  55.5 2.5 0  56.25 2.5 0  57 2.5 0  57.75 2.5 0  58.5 2.5 0  59.25 2.5 0  60 2.5 0  0 3 0  0.75 3 0  1.5 3 0  2.25 3 0  3 3 0  3.75 3 0  4.5 3 0  5.25 3 0  6 3 0  6.75 3 0  7.5 3 0  8.25 3 0  9 3 0  9.75 3 0  10.5 3 0  11.25 3 0  12 3 0  12.75 3 0  13.5 3 0  14.25 3 0  15 3 0  15.75 3 0  16.5 3 0  17.25 3 0  18 3 0  18.75 3 0  19.5 3 0  20.25 3 0  21 3 0  21.75 3 0  22.5 3 0  23.25 3 0  24 3 0  24.75 3 0  25.5 3 0  26.25 3 0  27 3 0  27.75 3 0  28.5 3 0  29.25 3 0  30 3 0  30.75 3 0  31.5 3 0  32.25 3 0  33 3 0  33.75 3 0  34.5 3 0  35.25 3 0  36 3 0  36.75 3 0  37.5 3 0  38.25 3 0  39 3 0  39.75 3 0  40.5 3 0  41.25 3 0  42 3 0  42.75 3 0  43.5 3 0  44.25 3 0  45 3 0  45.75 3 0  46.5 3 0  47.25 3 0  48 3 0  48.75 3 0  49.5 3 0  50.25 3 0  51 3 0  51.75 3 0  52.5 3 0  53.25 3 0  54 3 0  54.75 3 0  55.5 3 0  56.25 3 0  57 3 0  57.75 3 0  58.5 3 0  59.25 3 0  60 3 0  0 3.5 0  0.75 3.5 0  1.5 3.5 0  2.25 3.5 0  3 3.5 0  3.75 3.5 0  4.5 3.5 0  5.25 3.5 0  6 3.5 0  6.75 3.5 0  7.5 3.5 0  8.25 3.5 0  9 3.5 0  9.75 3.5 0  10.5 3.5 0  11.25 3.5 0  12 3.5 0  12.75 3.5 0  13.5 3.5 0  14.25 3.5 0  15 3.5 0  15.75 3.5 0  16.5 3.5 0  17.25 3.5 0  18 3.5 0  18.75 3.5 0  19.5 3.5 0  20.25 3.5 0  21 3.5 0  21.75 3.5 0  22.5 3.5 0  23.25 3.5 0  24 3.5 0  24.75 3.5 0  25.5 3.5 0  26.25 3.5 0  27 3.5 0  27.75 3.5 0  28.5 3.5 0  29.25 3.5 0  30 3.5 0  30.75 3.5 0  31.5 3.5 0  32.25 3.5 0  33 3.5 0  33.75 3.5 0  34.5 3.5 0  35.25 3.5 0  36 3.5 0  36.75 3.5 0  37.5 3.5 0  38.25 3.5 0  39 3.5 0  39.75 3.5 0  40.5 3.5 0  41.25 3.5 0  42 3.5 0  42.75 3.5 0  43.5 3.5 0  44.25 3.5 0  45 3.5 0  45.75 3.5 0  46.5 3.5 0  47.25 3.5 0  48 3.5 0  48.75 3.5 0  49.5 3.5 0  50.25 3.5 0  51 3.5 0  51.75 3.5 0  52.5 3.5 0  53.25 3.5 0  54 3.5 0  54.75 3.5 0  55.5 3.5 0  56.25 3.5 0  57 3.5 0  57.75 3.5 0  58.5 3.5 0  59.25 3.5 0  60 3.5 0  0 4 0  0.75 4 0  1.5 4 0  2.25 4 0  3 4 0  3.75 4 0  4.5 4 0  5.25 4 0  6 4 0  6.75 4 0  7.5 4 0  8.25 4 0  9 4 0  9.75 4 0  10.5 4 0  11.25 4 0  12 4 0  12.75 4 0  13.5 4 0  14.25 4 0  15 4 0  15.75 4 0  16.5 4 0  17.25 4 0  18 4 0  18.75 4 0  19.5 4 0  20.25 4 0  21 4 0  21.75 4 0  22.5 4 0  23.25 4 0  24 4 0  24.75 4 0  25.5 4 0  26.25 4 0  27 4 0  27.75 4 0  28.5 4 0  29.25 4 0  30 4 0  30.75 4 0  31.5 4 0  32.25 4 0  33 4 0  33.75 4 0  34.5 4 0  35.25 4 0  36 4 0  36.75 4 0  37.5 4 0  38.25 4 0  39 4 0  39.75 4 0  40.5 4 0  41.25 4 0  42 4 0  42.75 4 0  43.5 4 0  44.25 4 0  45 4 0  45.75 4 0  46.5 4 0  47.25 4 0  48 4 0  48.75 4 0  49.5 4 0  50.25 4 0  51 4 0  51.75 4 0  52.5 4 0  53.25 4 0  54 4 0  54.75 4 0  55.5 4 0  56.25 4 0  57 4 0  57.75 4 0  58.5 4 0  59.25 4 0  60 4 0  0.375 0.25 0  1.125 0.25 0  1.875 0.25 0  2.625 0.25 0  3.375 0.25 0  4.125 0.25 0  4.875 0.25 0  5.625 0.25 0  6.375 0.25 0  7.125 0.25 0  7.875 0.25 0  8.625 0.25 0  9.375 0.25 0  10.125 0.25 0  10.875 0.25 0  11.625 0.25 0  12.375 0.25 0  13.125 0.25 0  13.875 0.25 0  14.625 0.25 0  15.375 0.25 0  16.125 0.25 0  16.875 0.25 0  17.625 0.25 0  18.375 0.25 0  19.125 0.25 0  19.875 0.25 0  20.625 0.25 0  21.375 0.25 0  22.125 0.25 0  22.875 0.25 0  23.625 0.25 0  24.375 0.25 0  25.125 0.25 0  25.875 0.25 0  26.625 0.25 0  27.375 0.25 0  28.125 0.25 0  28.875 0.25 0  29.625 0.25 0  30.375 0.25 0  31.125 0.25 0  31.875 0.25 0  32.625 0.25 0  33.375 0.25 0  34.125 0.25 0  34.875 0.25 0  35.625 0.25 0  36.375 0.25 0  37.125 0.25 0  37.875 0.25 0  38.625 0.25 0  39.375 0.25 0  40.125 0.25 0  40.875 0.25 0  41.625 0.25 0  42.375 0.25 0  43.125 0.25 0  43.875 0.25 0  44.625 0.25 0  45.375 0.25 0  46.125 0.25 0  46.875 0.25 0  47.625 0.25 0  48.375 0.25 0  49.125 0.25 0  49.875 0.25 0  50.625 0.25 0  51.375 0.25 0  52.125 0.25 0  52.875 0.25 0  53.625 0.25 0  54.375 0.25 0  55.125 0.25 0  55.875 0.25 0  56.625 0.25 0  57.375 0.25 0  58.125 0.25 0  58.875 0.25 0  59.625 0.25 0  0.375 0.75 0  1.125 0.75 0  1.875 0.75 0  2.625 0.75 0  3.375 0.75 0  4.125 0.75 0  4.875 0.75 0  5.625 0.75 0  6.375 0.75 0  7.125 0.75 0  7.875 0.75 0  8.625 0.75 0  9.375 0.75 0  10.125 0.75 0  10.875 0.75 0  11.625 0.75 0  12.375 0.75 0  13.125 0.75 0  13.875 0.75 0  14.625 0.75 0  15.375 0.75 0  16.125 0.75 0  16.875 0.75 0  17.625 0.75 0  18.375 0.75 0  19.125 0.75 0  19.875 0.75 0  20.625 0.75 0  21.375 0.75 0  22.125 0.75 0  22.875 0.75 0  23.625 0.75 0  24.375 0.75 0  25.125 0.75 0  25.875 0.75 0  26.625 0.75 0  27.375 0.75 0  28.125 0.75 0  28.875 0.75 0  29.625 0.75 0  30.375 0.75 0  31.125 0.75 0  31.875 0.75 0  32.625 0.75 0  33.375 0.75 0  34.125 0.75 0  34.875 0.75 0  35.625 0.75 0  36.375 0.75 0  37.125 0.75 0  37.875 0.75 0  38.625 0.75 0  39.375 0.75 0  40.125 0.75 0  40
[...]
<PointData  Vectors="f_8-0"> 
<DataArray  type="Float64"  Name="f_8-0"  NumberOfComponents="3" format="ascii">0.0000000000000000e+00 0.0000000000000000e+00 0.0000000000000000e+00  0.0000000000000000e+00 0.0000000000000000e+00 0.0000000000000000e+00  0.0000000000000000e+00 0.0000000000000000e+00 0.0000000000000000e+00  0.0000000000000000e+00 0.0000000000000000e+00 0.0000000000000000e+00  0.0000000000000000e+00 0.0000000000000000e+00 0.0000000000000000e+00  0.0000000000000000e+00 0.0000000000000000e+00 0.0000000000000000e+00  0.0000000000000000e+00 0.0000000000000000e+00 0.0000000000000000e+00  0.0000000000000000e+00 0.0000000000000000e+00 0.0000000000000000e+00  0.0000000000000000e+00 0.0000000000000000e+00 0.0000000000000000e+00  0.0000000000000000e+00 0.0000000000000000e+00 0.0000000000000000e+00  0.0000000000000000e+00 0.0000000000000000e+00 0.0000000000000000e+00  0.0000000000000000e+00 0.0000000000000000e+00 0.0000000000000000e+00  0.0000000000000000e+00 0.0000000000000000e+00 0.0000000000000000e+00  0.0000000000000000e+00 0.0000000000000000e+00 0.0000000000000000e+00  0.0000000000000000e+00 0.0000000000000000e+00 0.0000000000000000e+00  0.0000000000000000e+00 0.0000000000000000e+00 0.0000000000000000e+00  0.0000000000000000e+00 0.0000000000000000e+00 0.0000000000000000e+00  0.0000000000000000e+00 0.0000000000000000e+00 0.0000000000000000e+00  0.0000000000000000e+00 0.0000000000000000e+00 0.0000000000000000e+00  0.0000000000000000e+00 0.0000000000000000e+00 0.0000000000000000e+00  0.0000000000000000e+00 0.0000000000000000e+00 0.0000000000000000e+00  0.0000000000000000e+00 0.0000000000000000e+00 0.0000000000000000e+00  0.0000000000000000e+00 0.0000000000000000e+00 0.0000000000000000e+00  0.0000000000000000e+00 0.0000000000000000e+00 0.0000000000000000e+00  0.0000000000000000e+00 0.0000000000000000e+00 0.0000000000000000e+00  0.0000000000000000e+00 0.0000000000000000e+00 0.0000000000000000e+00  0.0000000000000000e+00 0.0000000000000000e+00 0.0000000000000000e+00  0.0000000000000000e+00 0.0000000000000000e+00 0.0000000000000000e+00  0.0000000000000000e+00 0.0000000000000000e+00 0.0000000000000000e+00  0.0000000000000000e+00 0.0000000000000000e+00 0.0000000000000000e+00  0.0000000000000000e+00 0.0000000000000000e+00 0.0000000000000000e+00  0.0000000000000000e+00 0.0000000000000000e+00 0.0000000000000000e+00  0.0000000000000000e+00 0.0000000000000000e+00 0.0000000000000000e+00  0.0000000000000000e+00 0.0000000000000000e+00 0.0000000000000000e+00  0.0000000000000000e+00 0.0000000000000000e+00 0.0000000000000000e+00  0.0000000000000000e+00 0.0000000000000000e+00 0.0000000000000000e+00  0.0000000000000000e+00 0.0000000000000000e+00 0.0000000000000000e+00  0.0000000000000000e+00 0.0000000000000000e+00 0.0000000000000000e+00  0.0000000000000000e+00 0.0000000000000000e+00 0.0000000000000000e+00  0.0000000000000000e+00 0.0000000000000000e+00 0.0000000000000000e+00  0.0000000000000000e+00 0.0000000000000000e+00 0.0000000000000000e+00  0.0000000000000000e+00 0.0000000000000000e+00 0.0000000000000000e+00  0.0000000000000000e+00 0.0000000000000000e+00 0.0000000000000000e+00  0.0000000000000000e+00 0.0000000000000000e+00 0.0000000000000000e+00  0.0000000000000000e+00 0.0000000000000000e+00 0.0000000000000000e+00  0.0000000000000000e+00 0.0000000000000000e+00 0.0000000000000000e+00  0.0000000000000000e+00 0.0000000000000000e+00 0.0000000000000000e+00  0.0000000000000000e+00 0.0000000000000000e+00 0.0000000000000000e+00  0.0000000000000000e+00 0.0000000000000000e+00 0.0000000000000000e+00  0.0000000000000000e+00 0.0000000000000000e+00 0.0000000000000000e+00  0.0000000000000000e+00 0.0000000000000000e+00 0.0000000000000000e+00  0.0000000000000000e+00 0.0000000000000000e+00 0.0000000000000000e+00  0.0000000000000000e+00 0.0000000000000000e+00 0.0000000000000000e+00  0.0000000000000000e+00 0.0000000000000000e+00 0.0000000000000000e+00  0.0000000000000000e+00 0.0000000000000000e+00 0.0000000000000000e+00  0.0000000000000000e+00 0.0000000000000000e+00 0.0000000000000000e+00  0.0000000000000000e+00 0.0000000000000000e+00 0.0000000000000000e+00  0.0000000000000000e+00 0.0000000000000000e+00 0.0000000000000000e+00  0.0000000000000000e+00 0.0000000000000000e+00 0.0000000000000000e+00  0.0000000000000000e+00 0.0000000000000000e+00 0.0000000000000000e+00  0.0000000000000000e+00 0.0000000000000000e+00 0.0000000000000000e+00  0.0000000000000000e+00 0.0000000000000000e+00 0.0000000000000000e+00  0.0000000000000000e+00 0.0000000000000000e+00 0.0000000000000000e+00  0.0000000000000000e+00 0.0000000000000000e+00 0.0000000000000000e+00  0.0000000000000000e+00 0.0000000000000000e+00 0.0000000000000000e+00  0.0000000000000000e+00 0.0000000000000000e+00 0.0000000000000000e+00  0.0000000000000000e+00 0.0000000000000000e+00 0.0000000000000000e+00  0.0000000000000000e+00 0.0000000000000000e+00 0.0000000000000000e+00  0.0000000000000000e+00 0.0000000000000000e+00 0.0000000000000000e+00  0.0000000000000000e+00 0.0000000000000000e+00 0.0000000000000000e+00  0.0000000000000000e+00 0.0000000000000000e+00 0.0000000000000000e+00  0.0000000000000000e+00 0.0000000000000000e+00 0.0000000000000000e+00  0.0000000000000000e+00 0.0000000000000000e+00 0.0000000000000000e+00  0.0000000000000000e+00 0.0000000000000000e+00 0.0000000000000000e+00  0.0000000000000000e+00 0.0000000000000000e+00 0.0000000000000000e+00  0.0000000000000000e+00 0.0000000000000000e+00 0.0000000000000000e+00  0.0000000000000000e+00 0.0000000000000000e+00 0.0000000000000000e+00  0.0000000000000000e+00 0.0000000000000000e+00 0.0000000000000000e+00  0.0000000000000000e+00 0.0000000000000000e+00 0.0000000000000000e+00  0.0000000000000000e+00 0.0000000000000000e+00 0.0000000000000000e+00  0.0000000000000000e+00 0.0000000000000000e+00 0.0000000000000000e+00  1.5287812011683648e+01 0.0000000000000000e+00 0.0000000000000000e+00  1.5340922355154071e+01 -7.2791449846994566e-02 0.0000000000000000e+00  1.5324291354284572e+01 -2.4085580737563884e-02 0.0000000000000000e+00  1.5322880787083509e+01 -6.4220156715650437e-03 0.0000000000000000e+00  1.5318188645198582e+01 -5.1603092558137140e-03 0.0000000000000000e+00  1.5311567995556532e+01 -3.8044317356120375e-03 0.0000000000000000e+00  1.5311489689557995e+01 -6.3290318383488094e-03 0.0000000000000000e+00  1.5311632127078155e+01 -6.4921639799764685e-03 0.0000000000000000e+00  1.5315339376220596e+01 -7.7997363704463930e-03 0.0000000000000000e+00  1.5319229669273973e+01 -7.7008803272296403e-03 0.0000000000000000e+00  1.5324104918964030e+01 -7.8437151459127986e-03 0.0000000000000000e+00  1.5327864651110636e+01 -7.2560046228735348e-03 0.0000000000000000e+00  1.5330759595727603e+01 -6.8959586005473972e-03 0.0000000000000000e+00  1.5332375119723837e+01 -6.4715739244057442e-03 0.0000000000000000e+00  1.5333317374306374e+01 -6.3032143443712066e-03 0.0000000000000000e+00  1.5333736408145057e+01 -6.1752220076288613e-03 0.0000000000000000e+00  1.5333970084822003e+01 -6.1451806608705736e-03 0.0000000000000000e+00  1.5334078362654111e+01 -6.1175665412683718e-03 0.0000000000000000e+00  1.5334152721535029e+01 -6.1124356021456149e-03 0.0000000000000000e+00  1.5334196569688716e+01 -6.1046186460708774e-03 0.0000000000000000e+00  1.5334228752333425e+01 -6.1013177445558547e-03 0.0000000000000000e+00  1.5334250226640608e+01 -6.0985258457500573e-03 0.0000000000000000e+00  1.5334264468992487e+01 -6.0960984175502733e-03 0.0000000000000000e+00  1.5334274813275755e+01 -6.0953336372244100e-03 0.0000000000000000e+00  1.5334280828920617e+01 -6.0938141376689738e-03 0.0000000000000000e+00  1.5334285815323062e+01 -6.0938048784498757e-03 0.0000000000000000e+00  1.5334288376177694e+01 -6.0929109069236534e-03 0.0000000000000000e+00  1.5334290898627598e+01 -6.0930820424593708e-03 0.0000000000000000e+00  1.5334292080084548e+01 -6.0925666773409253e-03 0.0000000000000000e+00  1.5334293440224750e+01 -6.0927223195519388e-03 0.0000000000000000e+00  1.5334294061735216e+01 -6.0924327724649341e-03 0.0000000000000000e+00  1.5334294843668880e+01 -6.0925353061760624e-03 0.0000000000000000e+00  1.5334295227728896e+01 -6.0923791681648963e-03 0.0000000000000000e+00  1.5334295714435454e+01 -6.0924376688819412e-03 0.0000000000000000e+00  1.5334295994689956e+01 -6.0923571708702759e-03 0.0000000000000000e+00  1.5334296330719209e+01 -6.0923870423093473e-03 0.0000000000000000e+00  1.5334296562583505e+01 -6.0923465872655923e-03 0.0000000000000000e+00  1.5334296819277974e+01 -6.0923595665623867e-03 0.0000000000000000e+00  1.5334297022332024e+01 -6.0923387637466962e-03 0.0000000000000000e+00  1.5334297231530968e+01 -6.0923424713636709e-03 0.0000000000000000e+00  1.5334297410212670e+01 -6.0923307343715930e-03 0.0000000000000000e+00  1.5334297584658358e+01 -6.0923297179766482e-03 0.0000000000000000e+00  1.5334297738481119e+01 -6.0923219470527361e-03 0.0000000000000000e+00  1.5334297882643318e+01 -6.0923186665041203e-03 0.0000000000000000e+00  1.5334298010074082e+01 -6.0923125746824101e-03 0.0000000000000000e+00  1.5334298125227576e+01 -6.0923083826687598e-03 0.0000000000000000e+00  1.5334298225452688e+01 -6.0923032308293507e-03 0.0000000000000000e+00  1.5334298312949381e+01 -6.0922990524001691e-03 0.0000000000000000e+00  1.5334298387279093e+01 -6.0922947547619429e-03 0.0000000000000000e+00  1.5334298449945374e+01 -6.0922911010390952e-03 0.0000000000000000e+00  1.5334298501547615e+01 -6.0922877229854025e-03 0.0000000000000000e+00  1.5334298543581383e+01 -6.0922849571856796e-03 0.0000000000000000e+00  1.5334298577351076e+01 -6.0922826827264935e-03 0.0000000000000000e+00  1.5334298604482028e+01 -6.0922809642959177e-03 0.0000000000000000e+00  1.5334298626349000e+01 -6.0922796690085221e-03 0.0000000000000000e+00  1.5334298644191284e+01 -6.0922787341841670e-03 0.0000000000000000e+00  1.5334298658983224e+01 -6.0922780984443980e-03 0.0000000000000000e+00  1.5334298671630984e+01 -6.0922777275862310e-03 0.0000000000000000e+00  1.5334298682958657e+01 -6.0922776255964376e-03 0.0000000000000000e+00  1.5334298693734157e+01 -6.0922776677080123e-03 0.0000000000000000e+00  1.5334298704458982e+01 -6.0922778448981810e-03 0.0000000000000000e+00  1.5334298715402920e+01 -6.0922779179227553e-03 0.0000000000000000e+00  1.5334298726534739e+01 -6.0922781653714739e-03 0.0000000000000000e+00  1.5334298738245336e+01 -6.0922786323793637e-03 0.0000000000000000e+00  1.5334298752041800e+01 -6.0922808768667323e-03 0.0000000000000000e+00  1.5334298773200196e+01 -6.0922869419069011e-03 0.0000000000000000e+00  1.5334298815049502e+01 -6.0923040027028906e-03 0.0000000000000000e+00  1.5334298909844840e+01 -6.0923459180831181e-03 0.0000000000000000e+00  1.5334299133951873e+01 -6.0924513273418425e-03 0.0000000000000000e+00  1.5334299667020636e+01 -6.0927063114859913e-03 0.0000000000000000e+00  1.5334300930345876e+01 -6.0933335487005158e-03 0.0000000000000000e+00  1.5334303930062729e+01 -6.0949067035404366e-03 0.0000000000000000e+00  1.5334311215288475e+01 -6.0989838572533513e-03 0.0000000000000000e+00  1.5334329400237069e+01 -6.1095624683378943e-03 0.0000000000000000e+00  1.5334375985694470e+01 -6.1368217982522618e-03 0.0000000000000000e+00  1.5334499853359230e+01 -6.2058142073207747e-03 0.0000000000000000e+00  1.5334847361463845e+01 -6.3688172042611953e-03 0.0000000000000000e+00  1.5335904711520932e+01 -6.6507321402893230e-03 0.0000000000000000e+00  1.5339276764091027e+01 -6.7043988415378571e-03 0.0000000000000000e+00  1.5355104088797022e+01 7.8170095364215036e-04 0.0000000000000000e+00  1.5413931242774286e+01 0.0000000000000000e+00 0.0000000000000000e+00  2.6148560571223467e+01 0.0000000000000000e+00 0.0000000000000000e+00  2.6186666906748556e+01 4.1630474230287637e-02 0.0000000000000000e+00  2.6149114079430422e+01 4.1951053807798592e-03 0.0000000000000000e+00  2.6149340351579433e+01 1.2511559714698429e-02 0.0000000000000000e+00  2.6141931184868788e+01 9.4261526182264407e-03 0.0000000000000000e+00  2.6144487769879156e+01 5.1215985856616101e-03 0.0000000000000000e+00  2.6142476882788426e+01 2.8950517912917145e-03 0.0000000000000000e+00  2.6144299320306008e+01 -1.9595990300835253e-04 0.0000000000000000e+00  2.6143932179590067e+01 -8.7788383933075809e-04 0.0000000000000000e+00  2.6145668286024701e+01 -2.5864560922606908e-03 0.0000000000000000e+00  2.6147727720261013e+01 -2.3721837377983111e-03 0.0000000000000000e+00  2.6151179705696119e+01 -1.7355599777074799e-03 0.0000000000000000e+00  2.6153796333433746e+01 -3.3290381265952546e-04 0.0000000000000000e+00  2.6155963056922211e+01 6.4391954999182645e-04 0.0000000000000000e+00  2.6157119805260457e+01 1.4244490731262884e-03 0.0000000000000000e+00  2.6157873578349989e+01 1.7795623715963047e-03 0.0000000000000000e+00  2.6158190810028657e+01 1.9993144492857192e-03 0.0000000000000000e+00  2.6158399272824344e+01 2.0728654654033653e-03 0.0000000000000000e+00  2.6158480578217141e+01 2.1251740285761242e-03 0.0000000000000000e+00  2.6158548343303025e+01 2.1426845858456109e-03 0.0000000000000000e+00  2.6158578564610366e+01 2.1599918537510482e-03 0.0000000000000000e+00  2.6158606839529927e+01 2.1682611028039610e-03 0.0000000000000000e+00  2.6158621406229681e+01 2.1754557446881637e-03 0.0000000000000000e+00  2.6158633731664299e+01 2.1800857207866058e-03 0.0000000000000000e+00  2.6158640948569012e+01 2.1828657452059525e-03 0.0000000000000000e+00  2.6158646092243728e+01 2.1853216667653457e-03 0.0000000000000000e+00  2.6158649725824045e+01 2.1862180812767698e-03 0.0000000000000000e+00  2.6158651861490508e+01 2.1875038693300619e-03 0.0000000000000000e+00  2.6158653816958864e+01 2.1877261836891915e-03 0.0000000000000000e+00  2.6158654783835910e+01 2.1884140274598743e-03 0.0000000000000000e+00  2.6158655930985862e+01 2.1884395905394879e-03 0.0000000000000000e+00  2.6158656458306172e+01 2.1888099160839321e-03 0.0000000000000000e+00  2.6158657190414150e+01 2.1887930439717746e-03 0.0000000000000000e+00  2.6158657555574155e+01 2.1889879282924979e-03 0.0000000000000000e+00  2.6158658068211000e+01 2.1889701845159673e-03 0.0000000000000000e+00  2.6158658377543276e+01 2.1890697745155837e-03 0.0000000000000000e+00  2.6158658775887247e+01 2.1890604472037866e-03 0.0000000000000000e+00  2.6158659067318244e+01 2.1891122327145065e-03 0.0000000000000000e+00  2.6158659404575705e+01 2.1891120517614723e-03 0.0000000000000000e+00  2.6158659685431275e+01 2.1891421523184216e-03 0.0000000000000000e+00  2.6158659984003478e+01 2.1891489629699669e-03 0.0000000000000000e+00  2.6158660249944361e+01 2.1891700980488154e-03 0.0000000000000000e+00  2.6158660516912661e+01 2.1891814220387890e-03 0.0000000000000000e+00  2.6158660761147150e+01 2.1891993706507017e-03 0.0000000000000000e+00  2.6158660996665137e+01 2.1892135397518064e-03 0.0000000000000000e+00  2.6158661212297762e+01 2.1892306035533275e-03 0.0000000000000000e+00  2.6158661413395638e+01 2.1892459405766186e-03 0.0000000000000000e+00  2.6158661595244865e+01 2.1892619375348532e-03 0.0000000000000000e+00  2.6158661760336340e+01 2.1892766215680219e-03 0.0000000000000000e+00  2.6158661907235544e+01 2.1892908684522081e-03 0.0000000000000000e+00  2.6158662037409094e+01 2.1893037812946658e-03 0.0000000000000000e+00  2.6158662151050073e+01 2.1893154242152123e-03 0.0000000000000000e+00  2.6158662249958436e+01 2.1893252394103078e-03 0.0000000000000000e+00  2.6158662335887737e+01 2.1893332686129165e-03 0.0000000000000000e+00  2.6158662411218042e+01 2.1893395778937673e-03 0.0000000000000000e+00  2.6158662477923439e+01 2.1893445333011517e-03 0.0000000000000000e+00  2.6158662537713045e+01 2.1893483249542200e-03 0.0000000000000000e+00  2.6158662591942541e+01 2.1893510949236457e-03 0.0000000000000000e+00  2.6158662641975067e+01 2.1893527778415103e-03 0.0000000000000000e+00  2.6158662689326952e+01 2.1893535588656979e-03 0.0000000000000000e+00  2.6158662735467711e+01 2.1893535653680100e-03 0.0000000000000000e+00  2.6158662781616975e+01 2.1893534374230633e-03 0.0000000000000000e+00  2.6158662828098016e+01 2.1893531380842005e-03 0.0000000000000000e+00  2.6158662874664362e+01 2.1893528178822778e-03 0.0000000000000000e+00  2.6158662919848489e+01 2.1893503631671809e-03 0.0000000000000000e+00  2.6158662962441063e+01 2.1893419135309710e-03 0.0000000000000000e+00  2.6158663000035975e+01 2.1893167304481791e-03 0.0000000000000000e+00  2.6158663032076745e+01 2.1892508397308294e-03 0.0000000000000000e+00  2.6158663056526347e+01 2.1890857266548625e-03 0.0000000000000000e+00  2.6158663074594337e+01 2.1886858410977289e-03 0.0000000000000000e+00  2.6158663074797811e+01 2.1877377832240355e-03 0.0000000000000000e+00  2.6158663050414003e+01 2.1853717612867877e-03 0.0000000000000000e+00  2.6158663041082281e+01 2.1791864823959483e-03 0.0000000000000000e+00  2.6158663302053835e+01 2.1630909401720117e-03 0.0000000000000000e+00  2.6158664597009881e+01 2.1218968658072192e-03 0.0000000000000000e+00  2.6158669639703277e+01 2.0150636935224665e-03 0.0000000000000000e+00  2.6158691373984315e+01 1.7367448295923077e-03 0.0000000000000000e+00  2.6158792649224246e+01 1.0374210901844714e-03 0.0000000000000000e+00  2.6159279901767270e+01 -5.3106003149106375e-04 0.0000000000000000e+00  2.6159255607513760e+01 -5.0593489805488201e-03 0.0000000000000000e+00  2.6150556124395802e+01 0.0000000000000000e+00 0.0000000000000000e+00  2.8617278267119236e+01 0.0000000000000000e+00 0.0000000000000000e+00  2.8579175415292024e+01 -2.0104181554714762e-02 0.0000000000000000e+00  2.8590923000839474e+01 2.3605871896345797e-03 0.0000000000000000e+00  2.8594196006927216e+01 -8.3243915124143228e-04 0.0000000000000000e+00  2.8612211388777055e+01 3.1774840541346949e-03 0.0000000000000000e+00  2.8614226802181509e+01 2.9107790943328077e-03 0.0000000000000000e+00  2.8619956181813979e+01 8.4845650460611995e-04 0.0000000000000000e+00  2.8616752518811957e+01 3.7379677304090274e-04 0.0000000000000000e+00  2.8615681149769195e+01 -8.8824044567849356e-04 0.0000000000000000e+00  2.8610592497371243e+01 -1.7999380460249838e-03 0.0000000000000000e+00  2.8606774437823329e+01 -2.9151577249250829e-03 0.0000000000000000e+00  2.8602396228094474e+01 -2.4056308378565144e-03 0.0000000000000000e+00  2.8599973067586745e+01 -1.4588789858062184e-03 0.0000000000000000e+00  2.8598082791243481e+01 -2.9795315765852192e-04 0.0000000000000000e+00  2.8597319238633979e+01 4.5290455913235794e-04 0.0000000000000000e+00  2.8596766925556949e+01 9.5464719476155463e-04 0.0000000000000000e+00  2.8596602390691572e+01 1.1838252012747322e-03 0.0000000000000000e+00  2.8596443456293716e+01 1.3135900745237712e-03 0.0000000000000000e+00  2.8596399344466800e+01 1.3642150515704619e-03 0.0000000000000000e+00  2.8596338171250910e+01 1.3972916240928316e-03 0.0000000000000000e+00  2.8596317862237754e+01 1.4124327580749085e-03 0.0000000000000000e+00  2.8596290886839210e+01 1.4245029900795503e-03 0.0000000000000000e+00  2.8596280428795993e+01 1.4316813148118714e-03 0.0000000000000000e+00  2.8596269000574658e+01 1.4368860590369952e-03 0.0000000000000000e+00  2.8596263718472386e+01 1.4405324378862947e-03 0.0000000000000000e+00  2.8596259196875696e+01 1.4426254585213701e-03 0.0000000000000000e+00  2.8596256454766539e+01 1.4443994007969007e-03 0.0000000000000000e+00  2.8596254780859073e+01 1.4451532207138027e-03 0.0000000000000000e+00  2.8596253308542330e+01 1.4460169575165871e-03 0.0000000000000000e+00  2.8596252765171783e+01 1.4462697550562198e-03 0.0000000000000000e+00  2.8596251992360951e+01 1.4467036419940134e-03 0.0000000000000000e+00  2.8596251895479416e+01 1.4467858104190135e-03 0.0000000000000000e+00  2.8596251536114451e+01 1.4470065934558329e-03 0.0000000000000000e+00  2.8596251614450420e+01 1.4470321123298440e-03 0.0000000000000000e+00  2.8596251501372151e+01 1.4471422715858552e-03 0.0000000000000000e+00  2.8596251648028698e+01 1.4471496668996789e-03 0.0000000000000000e+00  2.8596251679139495e+01 1.4472044352528588e-03 0.0000000000000000e+00  2.8596251853849616e+01 1.4472096185937917e-03 0.0000000000000000e+00  2.8596251966297828e+01 1.4472407377683599e-03 0.0000000000000000e+00  2.8596252152474754e+01 1.4472501862945433e-03 0.00000000