<?xml version="1.0"?>
<VTKFile type="UnstructuredGrid"  version="0.1"  >
<UnstructuredGrid>
<Piece  NumberOfPoints="1369" NumberOfCells="2560">
<Points>
<DataArray  type="Float64"  NumberOfComponents="3"  format="ascii">0 0 0  0.75 0 0  1.5 0 0  2.25 0 0  3 0 0  3.75 0 0  4.5 0 0  5.25 0 0  6 0 0  6.75 0 0  7.5 0 0  8.25 0 0  9 0 0  9.75 0 0  10.5 0 0  11.25 0 0  12 0 0  12.75 0 0  13.5 0 0  14.25 0 0  15 0 0  15.75 0 0  16.5 0 0  17.25 0 0  18 0 0  18.75 0 0  19.5 0 0  20.25 0 0  21 0 0  21.75 0 0  22.5 0 0  23.25 0 0  24 0 0  24.75 0 0  25.5 0 0  26.25 0 0  27 0 0  27.75 0 0  28.5 0 0  29.25 0 0  30 0 0  30.75 0 0  31.5 0 0  32.25 0 0  33 0 0  33.75 0 0  34.5 0 0  35.25 0 0  36 0 0  36.75 0 0  37.5 0 0  38.25 0 0  39 0 0  39.75 0 0  40.5 0 0  41.25 0 0  42 0 0  42.75 0 0  43.5 0 0  44.25 0 0  45 0 0  45.75 0 0  46.5 0 0  47.25 0 0  48 0 0  48.75 0 0  49.5 0 0  50.25 0 0  51 0 0  51.75 0 0  52.5 0 0  53.25 0 0  54 0 0  54.75 0 0  55.5 0 0  56.25 0 0  57 0 0  57.75 0 0  58.5 0 0  59.25 0 0  60 0 0  0 0.5 0  0.75 0.5 0  1.5 0.5 0  2.25 0.5 0  3 0.5 0  3.75 0.5 0  4.5 0.5 0  5.25 0.5 0  6 0.5 0  6.75 0.5 0  7.5 0.5 0  8.25 0.5 0  9 0.5 0  9.75 0.5 0  10.5 0.5 0  11.25 0.5 0  12 0.5 0  12.75 0.5 0  13.5 0.5 0  14.25 0.5 0  15 0.5 0  15.75 0.5 0  16.5 0.5 0  17.25 0.5 0  18 0.5 0  18.75 0.5 0  19.5 0.5 0  20.25 0.5 0  21 0.5 0  21.75 0.5 0  22.5 0.5 0  23.25 0.5 0  24 0.5 0  24.75 0.5 0  25.5 0.5 0  26.25 0.5 0  27 0.5 0  27.75 0.5 0  28.5 0.5 0  29.25 0.5 0  30 0.5 0  30.75 0.5 0  31.5 0.5 0  32.25 0.5 0  33 0.5 0  33.75 0.5 0  34.5 0.5 0  35.25 0.5 0  36 0.5 0  36.75 0.5 0  37.5 0.5 0  38.25 0.5 0  39 0.5 0  39.75 0.5 0  40.5 0.5 0  41.25 0.5 0  42 0.5 0  42.75 0.5 0  43.5 0.5 0  44.25 0.5 0  45 0.5 0  45.75 0.5 0  46.5 0.5 0  47.25 0.5 0  48 0.5 0  48.75 0.5 0  49.5 0.5 0  50.25 0.5 0  51 0.5 0  51.75 0.5 0  52.5 0.5 0  53.25 0.5 0  54 0.5 0  54.75 0.5 0  55.5 0.5 0  56.25 0.5 0  57 0.5 0  57.75 0.5 0  58.5 0.5 0  59.25 0.5 0  60 0.5 0  0 1 0  0.75 1 0  1.5 1 0  2.25 1 0  3 1 0  3.75 1 0  4.5 1 0  5.25 1 0  6 1 0  6.75 1 0  7.5 1 0  8.25 1 0  9 1 0  9.75 1 0  10.5 1 0  11.25 1 0  12 1 0  12.75 1 0  13.5 1 0  14.25 1 0  15 1 0  15.75 1 0  16.5 1 0  17.25 1 0  18 1 0  18.75 1 0  19.5 1 0  20.25 1 0  21 1 0  21.75 1 0  22.5 1 0  23.25 1 0  24 1 0  24.75 1 0  25.5 1 0  26.25 1 0  27 1 0  27.75 1 0  28.5 1 0  29.25 1 0  30 1 0  30.75 1 0  31.5 1 0  32.25 1 0  33 1 0  33.75 1 0  34.5 1 0  35.25 1 0  36 1 0  36.75 1 0  37.5 1 0  38.25 1 0  39 1 0  39.75 1 0  40.5 1 0  41.25 1 0  42 1 0  42.75 1 0  43.5 1 0  44.25 1 0  45 1 0  45.75 1 0  46.5 1 0  47.25 1 0  48 1 0  48.75 1 0  49.5 1 0  50.25 1 0  51 1 0  51.75 1 0  52.5 1 0  53.25 1 0  54 1 0  54.75 1 0  55.5 1 0  56.25 1 0  57 1 0  57.75 1 0  58.5 1 0  59.25 1 0  60 1 0  0 1.5 0  0.75 1.5 0  1.5 1.5 0  2.25 1.5 0  3 1.5 0  3.75 1.5 0  4.5 1.5 0  5.25 1.5 0  6 1.5 0  6.75 1.5 0  7.5 1.5 0  8.25 1.5 0  9 1.5 0  9.75 1.5 0  10.5 1.5 0  11.25 1.5 0  12 1.5 0  12.75 1.5 0  13.5 1.5 0  14.25 1.5 0  15 1.5 0  15.75 1.5 0  16.5 1.5 0  17.25 1.5 0  18 1.5 0  18.75 1.5 0  19.5 1.5 0  20.25 1.5 0  21 1.5 0  21.75 1.5 0  22.5 1.5 0  23.25 1.5 0  24 1.5 0  24.75 1.5 0  25.5 1.5 0  26.25 1.5 0  27 1.5 0  27.75 1.5 0  28.5 1.5 0  29.25 1.5 0  30 1.5 0  30.75 1.5 0  31.5 1.5 0  32.25 1.5 0  33 1.5 0  33.75 1.5 0  34.5 1.5 0  35.25 1.5 0  36 1.5 0  36.75 1.5 0  37.5 1.5 0  38.25 1.5 0  39 1.5 0  39.75 1.5 0  40.5 1.5 0  41.25 1.5 0  42 1.5 0  42.75 1.5 0  43.5 1.5 0  44.25 1.5 0  45 1.5 0  45.75 1.5 0  46.5 1.5 0  47.25 1.5 0  48 1.5 0  48.75 1.5 0  49.5 1.5 0  50.25 1.5 0  51 1.5 0  51.75 1.5 0  52.5 1.5 0  53.25 1.5 0  54 1.5 0  54.75 1.5 0  55.5 1.5 0  56.25 1.5 0  57 1.5 0  57.75 1.5 0  58.5 1.5 0  59.25 1.5 0  60 1.5 0  0 2 0  0.75 2 0  1.5 2 0  2.25 2 0  3 2 0  3.75 2 0  4.5 2 0  5.25 2 0  6 2 0  6.75 2 0  7.5 2 0  8.25 2 0  9 2 0  9.75 2 0  10.5 2 0  11.25 2 0  12 2 0  12.75 2 0  13.5 2 0  14.25 2 0  15 2 0  15.75 2 0  16.5 2 0  17.25 2 0  18 2 0  18.75 2 0  19.5 2 0  20.25 2 0  21 2 0  21.75 2 0  22.5 2 0  23.25 2 0  24 2 0  24.75 2 0  25.5 2 0  26.25 2 0  27 2 0  27.75 2 0  28.5 2 0  29.25 2 0  30 2 0  30.75 2 0  31.5 2 0  32.25 2 0  33 2 0  33.75 2 0  34.5 2 0  35.25 2 0  36 2 0  36.75 2 0  37.5 2 0  38.25 2 0  39 2 0  39.75 2 0  40.5 2 0  41.25 2 0  42 2 0  42.75 2 0  43.5 2 0  44.25 2 0  45 2 0  45.75 2 0  46.5 2 0  47.25 2 0  48 2 0  48.75 2 0  49.5 2 0  50.25 2 0  51 2 0  51.75 2 0  52.5 2 0  53.25 2 0  54 2 0  54.75 2 0  55.5 2 0  56.25 2 0  57 2 0  57.75 2 0  58.5 2 0  59.25 2 0  60 2 0  0 2.5 0  0.75 2.5 0  1.5 2.5 0  2.25 2.5 0  3 2.5 0  3.75 2.5 0  4.5 2.5 0  5.25 2.5 0  6 2.5 0  6.75 2.5 0  7.5 2.5 0  8.25 2.5 0  9 2.5 0  9.75 2.5 0  10.5 2.5 0  11.25 2.5 0  12 2.5 0  12.75 2.5 0  13.5 2.5 0  14.25 2.5 0  15 2.5 0  15.75 2.5 0  16.5 2.5 0  17.25 2.5 0  18 2.5 0  18.75 2.5 0  19.5 2.5 0  20.25 2.5 0  21 2.5 0  21.75 2.5 0  22.5 2.5 0  23.25 2.5 0  24 2.5 0  24.75 2.5 0  25.5 2.5 0  26.25 2.5 0  27 2.5 0  27.75 2.5 0  28.5 2.5 0  29.25 2.5 0  30 2.5 0  30.75 2.5 0  31.5 2.5 0  32.25 2.5 0  33 2.5 0  33.75 2.5 0  34.5 2.5 0  35.25 2.5 0  36 2.5 0  36.75 2.5 0  37.5 2.5 0  38.25 2.5 0  39 2.5 0  39.75 2.5 0  40.5 2.5 0  41.25 2.5 0  42 2.5 0  42.75 2.5 0  43.5 2.5 0  44.25 2.5 0  45 2.5 0  45.75 2.5 0  46.5 2.5 0  47.25 2.5 0  48 2.5 0  48.75 2.5 0  49.5 2.5 0  50.25 2.5 0  51 2.5 0  51.75 2.5 0  52.5 2.5 0  53.25 2.5 0  54 2.5 0  54.75 2.5 0  55.5 2.5 0  56.25 2.5 0  57 2.5 0  57.75 2.5 0  58.5 2.5 0  59.25 2.5 0  60 2.5 0  0 3 0  0.75 3 0  1.5 3 0  2.25 3 0  3 3 0  3.75 3 0  4.5 3 0  5.25 3 0  6 3 0  6.75 3 0  7.5 3 0  8.25 3 0  9 3 0  9.75 3 0  10.5 3 0  11.25 3 0  12 3 0  12.75 3 0  13.5 3 0  14.25 3 0  15 3 0  15.75 3 0  16.5 3 0  17.25 3 0  18 3 0  18.75 3 0  19.5 3 0  20.25 3 0  21 3 0  21.75 3 0  22.5 3 0  23.25 3 0  24 3 0  24.75 3 0  25.5 3 0  26.25 3 0  27 3 0  27.75 3 0  28.5 3 0  29.25 3 0  30 3 0  30.75 3 0  31.5 3 0  32.25 3 0  33 3 0  33.75 3 0  34.5 3 0  35.25 3 0  36 3 0  36.75 3 0  37.5 3 0  38.25 3 0  39 3 0  39.75 3 0  40.5 3 0  41.25 3 0  42 3 0  42.75 3 0  43.5 3 0  44.25 3 0  45 3 0  45.75 3 0  46.5 3 0  47.25 3 0  48 3 0  48.75 3 0  49.5 3 0  50.25 3 0  51 3 0  51.75 3 0  52.5 3 0  53.25 3 0  54 3 0  54.75 3 0  55.5 3 0  56.25 3 0  57 3 0  57.75 3 0  58.5 3 0  59.25 3 0  60 3 0  0 3.5 0  0.75 3.5 0  1.5 3.5 0  2.25 3.5 0  3 3.5 0  3.75 3.5 0  4.5 3.5 0  5.25 3.5 0  6 3.5 0  6.75 3.5 0  7.5 3.5 0  8.25 3.5 0  9 3.5 0  9.75 3.5 0  10.5 3.5 0  11.25 3.5 0  12 3.5 0  12.75 3.5 0  13.5 3.5 0  14.25 3.5 0  15 3.5 0  15.75 3.5 0  16.5 3.5 0  17.25 3.5 0  18 3.5 0  18.75 3.5 0  19.5 3.5 0  20.25 3.5 0  21 3.5 0  21.75 3.5 0  22.5 3.5 0  23.25 3.5 0  24 3.5 0  24.75 3.5 0  25.5 3.5 0  26.25 3.5 0  27 3.5 0  27.75 3.5 0  28.5 3.5 0  29.25 3.5 0  30 3.5 0  30.75 3.5 0  31.5 3.5 0  32.25 3.5 0  33 3.5 0  33.75 3.5 0  34.5 3.5 0  35.25 3.5 0  36 3.5 0  36.75 3.5 0  37.5 3.5 0  38.25 3.5 0  39 3.5 0  39.75 3.5 0  40.5 3.5 0  41.25 3.5 0  42 3.5 0  42.75 3.5 0  43.5 3.5 0  44.25 3.5 0  45 3.5 0  45.75 3.5 0  46.5 3.5 0  47.25 3.5 0  48 3.5 0  48.75 3.5 0  49.5 3.5 0  50.25 3.5 0  51 3.5 0  51.75 3.5 0  52.5 3.5 0  53.25 3.5 0  54 3.5 0  54.75 3.5 0  55.5 3.5 0  56.25 3.5 0  57 3.5 0  57.75 3.5 0  58.5 3.5 0  59.25 3.5 0  60 3.5 0  0 4 0  0.75 4 0  1.5 4 0  2.25 4 0  3 4 0  3.75 4 0  4.5 4 0  5.25 4 0  6 4 0  6.75 4 0  7.5 4 0  8.25 4 0  9 4 0  9.75 4 0  10.5 4 0  11.25 4 0  12 4 0  12.75 4 0  13.5 4 0  14.25 4 0  15 4 0  15.75 4 0  16.5 4 0  17.25 4 0  18 4 0  18.75 4 0  19.5 4 0  20.25 4 0  21 4 0  21.75 4 0  22.5 4 0  23.25 4 0  24 4 0  24.75 4 0  25.5 4 0  26.25 4 0  27 4 0  27.75 4 0  28.5 4 0  29.25 4 0  30 4 0  30.75 4 0  31.5 4 0  32.25 4 0  33 4 0  33.75 4 0  34.5 4 0  35.25 4 0  36 4 0  36.75 4 0  37.5 4 0  38.25 4 0  39 4 0  39.75 4 0  40.5 4 0  41.25 4 0  42 4 0  42.75 4 0  43.5 4 0  44.25 4 0  45 4 0  45.75 4 0  46.5 4 0  47.25 4 0  48 4 0  48.75 4 0  49.5 4 0  50.25 4 0  51 4 0  51.75 4 0  52.5 4 0  53.25 4 0  54 4 0  54.75 4 0  55.5 4 0  56.25 4 0  57 4 0  57.75 4 0  58.5 4 0  59.25 4 0  60 4 0  0.375 0.25 0  1.125 0.25 0  1.875 0.25 0  2.625 0.25 0  3.375 0.25 0  4.125 0.25 0  4.875 0.25 0  5.625 0.25 0  6.375 0.25 0  7.125 0.25 0  7.875 0.25 0  8.625 0.25 0  9.375 0.25 0  10.125 0.25 0  10.875 0.25 0  11.625 0.25 0  12.375 0.25 0  13.125 0.25 0  13.875 0.25 0  14.625 0.25 0  15.375 0.25 0  16.125 0.25 0  16.875 0.25 0  17.625 0.25 0  18.375 0.25 0  19.125 0.25 0  19.875 0.25 0  20.625 0.25 0  21.375 0.25 0  22.125 0.25 0  22.875 0.25 0  23.625 0.25 0  24.375 0.25 0  25.125 0.25 0  25.875 0.25 0  26.625 0.25 0  27.375 0.25 0  28.125 0.25 0  28.875 0.25 0  29.625 0.25 0  30.375 0.25 0  31.125 0.25 0  31.875 0.25 0  32.625 0.25 0  33.375 0.25 0  34.125 0.25 0  34.875 0.25 0  35.625 0.25 0  36.375 0.25 0  37.125 0.25 0  37.875 0.25 0  38.625 0.25 0  39.375 0.25 0  40.125 0.25 0  40.875 0.25 0  41.625 0.25 0  42.375 0.25 0  43.125 0.25 0  43.875 0.25 0  44.625 0.25 0  45.375 0.25 0  46.125 0.25 0  46.875 0.25 0  47.625 0.25 0  48.375 0.25 0  49.125 0.25 0  49.875 0.25 0  50.625 0.25 0  51.375 0.25 0  52.125 0.25 0  52.875 0.25 0  53.625 0.25 0  54.375 0.25 0  55.125 0.25 0  55.875 0.25 0  56.625 0.25 0  57.375 0.25 0  58.125 0.25 0  58.875 0.25 0  59.625 0.25 0  0.375 0.75 0  1.125 0.75 0  1.875 0.75 0  2.625 0.75 0  3.375 0.75 0  4.125 0.75 0  4.875 0.75 0  5.625 0.75 0  6.375 0.75 0  7.125 0.75 0  7.875 0.75 0  8.625 0.75 0  9.375 0.75 0  10.125 0.75 0  10.875 0.75 0  11.625 0.75 0  12.375 0.75 0  13.125 0.75 0  13.875 0.75 0  14.625 0.75 0  15.375 0.75 0  16.125 0.75 0  16.875 0.75 0  17.625 0.75 0  18.375 0.75 0  19.125 0.75 0  19.875 0.75 0  20.625 0.75 0  21.375 0.75 0  22.125 0.75 0  22.875 0.75 0  23.625 0.75 0  24.375 0.75 0  25.125 0.75 0  25.875 0.75 0  26.625 0.75 0  27.375 0.75 0  28.125 0.75 0  28.875 0.75 0  29.625 0.75 0  30.375 0.75 0  31.125 0.75 0  31.875 0.75 0  32.625 0.75 0  33.375 0.75 0  34.125 0.75 0  34.875 0.75 0  35.625 0.75 0  36.375 0.75 0  37.125 0.75 0  37.875 0.75 0  38.625 0.75 0  39.375 0.75 0  40.125 0.75 0  40
[...]
<PointData  Vectors="f_8-0"> 
<DataArray  type="Float64"  Name="f_8-0"  NumberOfComponents="3" format="ascii">0.0000000000000000e+00 0.0000000000000000e+00 0.0000000000000000e+00  0.0000000000000000e+00 0.0000000000000000e+00 0.0000000000000000e+00  0.0000000000000000e+00 0.0000000000000000e+00 0.0000000000000000e+00  0.0000000000000000e+00 0.0000000000000000e+00 0.0000000000000000e+00  0.0000000000000000e+00 0.0000000000000000e+00 0.0000000000000000e+00  0.0000000000000000e+00 0.0000000000000000e+00 0.0000000000000000e+00  0.0000000000000000e+00 0.0000000000000000e+00 0.0000000000000000e+00  0.0000000000000000e+00 0.0000000000000000e+00 0.0000000000000000e+00  0.0000000000000000e+00 0.0000000000000000e+00 0.0000000000000000e+00  0.0000000000000000e+00 0.0000000000000000e+00 0.0000000000000000e+00  0.0000000000000000e+00 0.0000000000000000e+00 0.0000000000000000e+00  0.0000000000000000e+00 0.0000000000000000e+00 0.0000000000000000e+00  0.0000000000000000e+00 0.0000000000000000e+00 0.0000000000000000e+00  0.0000000000000000e+00 0.0000000000000000e+00 0.0000000000000000e+00  0.0000000000000000e+00 0.0000000000000000e+00 0.0000000000000000e+00  0.0000000000000000e+00 0.0000000000000000e+00 0.0000000000000000e+00  0.0000000000000000e+00 0.0000000000000000e+00 0.0000000000000000e+00  0.0000000000000000e+00 0.0000000000000000e+00 0.0000000000000000e+00  0.0000000000000000e+00 0.0000000000000000e+00 0.0000000000000000e+00  0.0000000000000000e+00 0.0000000000000000e+00 0.0000000000000000e+00  0.0000000000000000e+00 0.0000000000000000e+00 0.0000000000000000e+00  0.0000000000000000e+00 0.0000000000000000e+00 0.0000000000000000e+00  0.0000000000000000e+00 0.0000000000000000e+00 0.0000000000000000e+00  0.0000000000000000e+00 0.0000000000000000e+00 0.0000000000000000e+00  0.0000000000000000e+00 0.0000000000000000e+00 0.0000000000000000e+00  0.0000000000000000e+00 0.0000000000000000e+00 0.0000000000000000e+00  0.0000000000000000e+00 0.0000000000000000e+00 0.0000000000000000e+00  0.0000000000000000e+00 0.0000000000000000e+00 0.0000000000000000e+00  0.0000000000000000e+00 0.0000000000000000e+00 0.0000000000000000e+00  0.0000000000000000e+00 0.0000000000000000e+00 0.0000000000000000e+00  0.0000000000000000e+00 0.0000000000000000e+00 0.0000000000000000e+00  0.0000000000000000e+00 0.0000000000000000e+00 0.0000000000000000e+00  0.0000000000000000e+00 0.0000000000000000e+00 0.0000000000000000e+00  0.0000000000000000e+00 0.0000000000000000e+00 0.0000000000000000e+00  0.0000000000000000e+00 0.0000000000000000e+00 0.0000000000000000e+00  0.0000000000000000e+00 0.0000000000000000e+00 0.0000000000000000e+00  0.0000000000000000e+00 0.0000000000000000e+00 0.0000000000000000e+00  0.0000000000000000e+00 0.0000000000000000e+00 0.0000000000000000e+00  0.0000000000000000e+00 0.0000000000000000e+00 0.0000000000000000e+00  0.0000000000000000e+00 0.0000000000000000e+00 0.0000000000000000e+00  0.0000000000000000e+00 0.0000000000000000e+00 0.0000000000000000e+00  0.0000000000000000e+00 0.0000000000000000e+00 0.0000000000000000e+00  0.0000000000000000e+00 0.0000000000000000e+00 0.0000000000000000e+00  0.0000000000000000e+00 0.0000000000000000e+00 0.0000000000000000e+00  0.0000000000000000e+00 0.0000000000000000e+00 0.0000000000000000e+00  0.0000000000000000e+00 0.0000000000000000e+00 0.0000000000000000e+00  0.0000000000000000e+00 0.0000000000000000e+00 0.0000000000000000e+00  0.0000000000000000e+00 0.0000000000000000e+00 0.0000000000000000e+00  0.0000000000000000e+00 0.0000000000000000e+00 0.0000000000000000e+00  0.0000000000000000e+00 0.0000000000000000e+00 0.0000000000000000e+00  0.0000000000000000e+00 0.0000000000000000e+00 0.0000000000000000e+00  0.0000000000000000e+00 0.0000000000000000e+00 0.0000000000000000e+00  0.0000000000000000e+00 0.0000000000000000e+00 0.0000000000000000e+00  0.0000000000000000e+00 0.0000000000000000e+00 0.0000000000000000e+00  0.0000000000000000e+00 0.0000000000000000e+00 0.0000000000000000e+00  0.0000000000000000e+00 0.0000000000000000e+00 0.0000000000000000e+00  0.0000000000000000e+00 0.0000000000000000e+00 0.0000000000000000e+00  0.0000000000000000e+00 0.0000000000000000e+00 0.0000000000000000e+00  0.0000000000000000e+00 0.0000000000000000e+00 0.0000000000000000e+00  0.0000000000000000e+00 0.0000000000000000e+00 0.0000000000000000e+00  0.0000000000000000e+00 0.0000000000000000e+00 0.0000000000000000e+00  0.0000000000000000e+00 0.0000000000000000e+00 0.0000000000000000e+00  0.0000000000000000e+00 0.0000000000000000e+00 0.0000000000000000e+00  0.0000000000000000e+00 0.0000000000000000e+00 0.0000000000000000e+00  0.0000000000000000e+00 0.0000000000000000e+00 0.0000000000000000e+00  0.0000000000000000e+00 0.0000000000000000e+00 0.0000000000000000e+00  0.0000000000000000e+00 0.0000000000000000e+00 0.0000000000000000e+00  0.0000000000000000e+00 0.0000000000000000e+00 0.0000000000000000e+00  0.0000000000000000e+00 0.0000000000000000e+00 0.0000000000000000e+00  0.0000000000000000e+00 0.0000000000000000e+00 0.0000000000000000e+00  0.0000000000000000e+00 0.0000000000000000e+00 0.0000000000000000e+00  0.0000000000000000e+00 0.0000000000000000e+00 0.0000000000000000e+00  0.0000000000000000e+00 0.0000000000000000e+00 0.0000000000000000e+00  0.0000000000000000e+00 0.0000000000000000e+00 0.0000000000000000e+00  0.0000000000000000e+00 0.0000000000000000e+00 0.0000000000000000e+00  0.0000000000000000e+00 0.0000000000000000e+00 0.0000000000000000e+00  0.0000000000000000e+00 0.0000000000000000e+00 0.0000000000000000e+00  0.0000000000000000e+00 0.0000000000000000e+00 0.0000000000000000e+00  0.0000000000000000e+00 0.0000000000000000e+00 0.0000000000000000e+00  0.0000000000000000e+00 0.0000000000000000e+00 0.0000000000000000e+00  0.0000000000000000e+00 0.0000000000000000e+00 0.0000000000000000e+00  -1.7689799055824768e+01 0.0000000000000000e+00 0.0000000000000000e+00  -1.7641008181382649e+01 -7.1507327466173930e-04 0.0000000000000000e+00  -1.7625445453437457e+01 -5.8203471139510361e-03 0.0000000000000000e+00  -1.7621882011731387e+01 -5.7265050901173535e-03 0.0000000000000000e+00  -1.7620544548260412e+01 -5.4628336578958553e-03 0.0000000000000000e+00  -1.7619912096701302e+01 -5.2906486872039415e-03 0.0000000000000000e+00  -1.7619562219614259e+01 -5.1952826044178091e-03 0.0000000000000000e+00  -1.7619357126633059e+01 -5.1410899119072005e-03 0.0000000000000000e+00  -1.7619236732682406e+01 -5.1091524621557543e-03 0.0000000000000000e+00  -1.7619167624993175e+01 -5.0904296989234135e-03 0.0000000000000000e+00  -1.7619129024713164e+01 -5.0796246757228080e-03 0.0000000000000000e+00  -1.7619108051491164e+01 -5.0735408588601007e-03 0.0000000000000000e+00  -1.7619096942448991e+01 -5.0702007599296847e-03 0.0000000000000000e+00  -1.7619091176254688e+01 -5.0684252789499019e-03 0.0000000000000000e+00  -1.7619088222652682e+01 -5.0674974192381336e-03 0.0000000000000000e+00  -1.7619086715472317e+01 -5.0670239817765866e-03 0.0000000000000000e+00  -1.7619085939392320e+01 -5.0667833346531672e-03 0.0000000000000000e+00  -1.7619085527029860e+01 -5.0666643110228232e-03 0.0000000000000000e+00  -1.7619085293919294e+01 -5.0666049179663546e-03 0.0000000000000000e+00  -1.7619085148069985e+01 -5.0665763760674529e-03 0.0000000000000000e+00  -1.7619085044553252e+01 -5.0665622238415054e-03 0.0000000000000000e+00  -1.7619084961230630e+01 -5.0665556418363509e-03 0.0000000000000000e+00  -1.7619084887586180e+01 -5.0665523373339605e-03 0.0000000000000000e+00  -1.7619084818410940e+01 -5.0665508783245463e-03 0.0000000000000000e+00  -1.7619084751341074e+01 -5.0665501068486232e-03 0.0000000000000000e+00  -1.7619084685174446e+01 -5.0665497925381697e-03 0.0000000000000000e+00  -1.7619084619414075e+01 -5.0665495997616527e-03 0.0000000000000000e+00  -1.7619084553793005e+01 -5.0665495220059541e-03 0.0000000000000000e+00  -1.7619084488224338e+01 -5.0665494512540385e-03 0.0000000000000000e+00  -1.7619084422652147e+01 -5.0665494137992831e-03 0.0000000000000000e+00  -1.7619084357067614e+01 -5.0665493670294347e-03 0.0000000000000000e+00  -1.7619084291472067e+01 -5.0665493311525716e-03 0.0000000000000000e+00  -1.7619084225854319e+01 -5.0665492827544787e-03 0.0000000000000000e+00  -1.7619084160240433e+01 -5.0665492513770278e-03 0.0000000000000000e+00  -1.7619084094591678e+01 -5.0665491878804318e-03 0.0000000000000000e+00  -1.7619084028988748e+01 -5.0665491761147487e-03 0.0000000000000000e+00  -1.7619083963290723e+01 -5.0665490727239207e-03 0.0000000000000000e+00  -1.7619083897754887e+01 -5.0665491258460905e-03 0.0000000000000000e+00  -1.7619083831937846e+01 -5.0665489045748566e-03 0.0000000000000000e+00  -1.7619083766609574e+01 -5.0665491601329131e-03 0.0000000000000000e+00  -1.7619083700459143e+01 -5.0665485933100440e-03 0.0000000000000000e+00  -1.7619083635723200e+01 -5.0665494196681406e-03 0.0000000000000000e+00  -1.7619083568642981e+01 -5.0665479031221528e-03 0.0000000000000000e+00  -1.7619083505503809e+01 -5.0665502775461349e-03 0.0000000000000000e+00  -1.7619083435956007e+01 -5.0665462404749263e-03 0.0000000000000000e+00  -1.7619083376909153e+01 -5.0665526376227421e-03 0.0000000000000000e+00  -1.7619083301143476e+01 -5.0665422302707697e-03 0.0000000000000000e+00  -1.7619083252038234e+01 -5.0665585349278378e-03 0.0000000000000000e+00  -1.7619083161482202e+01 -5.0665328882422986e-03 0.0000000000000000e+00  -1.7619083135088630e+01 -5.0665722345628779e-03 0.0000000000000000e+00  -1.7619083011476178e+01 -5.0665123003688301e-03 0.0000000000000000e+00  -1.7619083033507540e+01 -5.0666019424490090e-03 0.0000000000000000e+00  -1.7619082840610691e+01 -5.0664699430926904e-03 0.0000000000000000e+00  -1.7619082957989466e+01 -5.0666620303348175e-03 0.0000000000000000e+00  -1.7619082628668671e+01 -5.0663898299346350e-03 0.0000000000000000e+00  -1.7619082915714429e+01 -5.0667752812977437e-03 0.0000000000000000e+00  -1.7619082332153020e+01 -5.0662548091051597e-03 0.0000000000000000e+00  -1.7619082874146915e+01 -5.0669744178702880e-03 0.0000000000000000e+00  -1.7619081836761971e+01 -5.0660704375111625e-03 0.0000000000000000e+00  -1.7619082612672180e+01 -5.0673017956998027e-03 0.0000000000000000e+00  -1.7619080795759697e+01 -5.0659436337935565e-03 0.0000000000000000e+00  -1.7619081250050208e+01 -5.0677740832107687e-03 0.0000000000000000e+00  -1.7619078207164858e+01 -5.0662083164103458e-03 0.0000000000000000e+00  -1.7619076064187674e+01 -5.0680750264765996e-03 0.0000000000000000e+00  -1.7619070423401418e+01 -5.0677682055649898e-03 0.0000000000000000e+00  -1.7619053069862495e+01 -5.0690503683245699e-03 0.0000000000000000e+00  -1.7619016612541202e+01 -5.0845720423746844e-03 0.0000000000000000e+00  -1.7618867792967357e+01 -5.1120592596518065e-03 0.0000000000000000e+00  -1.7618531812332495e+01 -5.2465716677338710e-03 0.0000000000000000e+00  -1.7617612361267113e+01 -5.4356278836083308e-03 0.0000000000000000e+00  -1.7616023375738870e+01 -5.8904777054653188e-03 0.0000000000000000e+00  -1.7613044140218037e+01 -6.1516832842915302e-03 0.0000000000000000e+00  -1.7609471601556329e+01 -6.6434234950577273e-03 0.0000000000000000e+00  -1.7604849770396260e+01 -6.0098164730623127e-03 0.0000000000000000e+00  -1.7602861855839684e+01 -5.8485483850877736e-03 0.0000000000000000e+00  -1.7601282822410340e+01 -3.4706000937976887e-03 0.0000000000000000e+00  -1.7604436357701555e+01 -5.0558004222490570e-03 0.0000000000000000e+00  -1.7604917578361174e+01 -5.5233905688050373e-03 0.0000000000000000e+00  -1.7602978403245874e+01 -2.1443389783105084e-02 0.0000000000000000e+00  -1.7613581335220886e+01 -6.4003224243429399e-02 0.0000000000000000e+00  -1.7556600174313182e+01 0.0000000000000000e+00 0.0000000000000000e+00  -2.7119435638759711e+01 0.0000000000000000e+00 0.0000000000000000e+00  -2.7128250903367011e+01 -3.9697581724382871e-03 0.0000000000000000e+00  -2.7128105476942295e+01 -1.9955081926461131e-04 0.0000000000000000e+00  -2.7127380889884353e+01 1.1496227791948106e-03 0.0000000000000000e+00  -2.7127125849788982e+01 1.8175306143543922e-03 0.0000000000000000e+00  -2.7127054789133886e+01 2.1518368715620442e-03 0.0000000000000000e+00  -2.7127043056701655e+01 2.3218211914939409e-03 0.0000000000000000e+00  -2.7127043457154389e+01 2.4161965091572530e-03 0.0000000000000000e+00  -2.7127045896420576e+01 2.4714264395282811e-03 0.0000000000000000e+00  -2.7127047884479285e+01 2.5034874290439484e-03 0.0000000000000000e+00  -2.7127049076873469e+01 2.5219265328631948e-03 0.0000000000000000e+00  -2.7127049671030846e+01 2.5323622457078605e-03 0.0000000000000000e+00  -2.7127049961053284e+01 2.5380744082677434e-03 0.0000000000000000e+00  -2.7127050079914309e+01 2.5410786268240796e-03 0.0000000000000000e+00  -2.7127050108320219e+01 2.5426257564988052e-03 0.0000000000000000e+00  -2.7127050077701885e+01 2.5434080666209774e-03 0.0000000000000000e+00  -2.7127050017185905e+01 2.5438031283904843e-03 0.0000000000000000e+00  -2.7127049938235032e+01 2.5439980839660654e-03 0.0000000000000000e+00  -2.7127049851006930e+01 2.5440949397900993e-03 0.0000000000000000e+00  -2.7127049758185390e+01 2.5441412436326498e-03 0.0000000000000000e+00  -2.7127049662868224e+01 2.5441639581710355e-03 0.0000000000000000e+00  -2.7127049565564874e+01 2.5441743214028819e-03 0.0000000000000000e+00  -2.7127049467355619e+01 2.5441794125895898e-03 0.0000000000000000e+00  -2.7127049368356513e+01 2.5441815162557742e-03 0.0000000000000000e+00  -2.7127049268991517e+01 2.5441825709176507e-03 0.0000000000000000e+00  -2.7127049169293077e+01 2.5441828913895692e-03 0.0000000000000000e+00  -2.7127049069438261e+01 2.5441830583685333e-03 0.0000000000000000e+00  -2.7127048969437723e+01 2.5441830421298567e-03 0.0000000000000000e+00  -2.7127048869367808e+01 2.5441830296203788e-03 0.0000000000000000e+00  -2.7127048769229862e+01 2.5441829760660863e-03 0.0000000000000000e+00  -2.7127048669067122e+01 2.5441829363016394e-03 0.0000000000000000e+00  -2.7127048568862811e+01 2.5441828956249534e-03 0.0000000000000000e+00  -2.7127048468668736e+01 2.5441828540336661e-03 0.0000000000000000e+00  -2.7127048368417967e+01 2.5441828345367026e-03 0.0000000000000000e+00  -2.7127048268240475e+01 2.5441827812435788e-03 0.0000000000000000e+00  -2.7127048167921917e+01 2.5441828002290795e-03 0.0000000000000000e+00  -2.7127048067848047e+01 2.5441826982027711e-03 0.0000000000000000e+00  -2.7127047967358155e+01 2.5441828152698064e-03 0.0000000000000000e+00  -2.7127047867597295e+01 2.5441825608789126e-03 0.0000000000000000e+00  -2.7127047766629506e+01 2.5441829530513955e-03 0.0000000000000000e+00  -2.7127047667732157e+01 2.5441822549223786e-03 0.0000000000000000e+00  -2.7127047565459861e+01 2.5441834096774094e-03 0.0000000000000000e+00  -2.7127047468829502e+01 2.5441814899775420e-03 0.0000000000000000e+00  -2.7127047363179056e+01 2.5441846795745781e-03 0.0000000000000000e+00  -2.7127047272191007e+01 2.5441795537764146e-03 0.0000000000000000e+00  -2.7127047158295909e+01 2.5441879238075594e-03 0.0000000000000000e+00  -2.7127047080534382e+01 2.5441748064555531e-03 0.0000000000000000e+00  -2.7127046947826173e+01 2.5441956629154551e-03 0.0000000000000000e+00  -2.7127046898941344e+01 2.5441637392005501e-03 0.0000000000000000e+00  -2.7127046726479097e+01 2.5442129022338563e-03 0.0000000000000000e+00  -2.7127046735542553e+01 2.5441394230936751e-03 0.0000000000000000e+00  -2.7127046486161746e+01 2.5442483369923470e-03 0.0000000000000000e+00  -2.7127046599741760e+01 2.5440892026708305e-03 0.0000000000000000e+00  -2.7127046216202039e+01 2.5443137850570036e-03 0.0000000000000000e+00  -2.7127046490825798e+01 2.5439912723360155e-03 0.0000000000000000e+00  -2.7127045902459777e+01 2.5444146683138626e-03 0.0000000000000000e+00  -2.7127046352487664e+01 2.5438071227472251e-03 0.0000000000000000e+00  -2.7127045511944100e+01 2.5445073155745406e-03 0.0000000000000000e+00  -2.7127045910603574e+01 2.5434537644368591e-03 0.0000000000000000e+00  -2.7127044895618852e+01 2.5443509902453891e-03 0.0000000000000000e+00  -2.7127044130572550e+01 2.5426977841530611e-03 0.0000000000000000e+00  -2.7127043228115795e+01 2.5430732268579637e-03 0.0000000000000000e+00  -2.7127037175194122e+01 2.5406941391387856e-03 0.0000000000000000e+00  -2.7127034940398229e+01 2.5372435369799815e-03 0.0000000000000000e+00  -2.7127005926124649e+01 2.5305998747339295e-03 0.0000000000000000e+00  -2.7126976901639331e+01 2.5006943666588352e-03 0.0000000000000000e+00  -2.7126830150203332e+01 2.4410464607907277e-03 0.0000000000000000e+00  -2.7126601011406699e+01 2.2368299690658133e-03 0.0000000000000000e+00  -2.7125929338198297e+01 1.8605056123513870e-03 0.0000000000000000e+00  -2.7124883948896773e+01 1.0275275964037277e-03 0.0000000000000000e+00  -2.7122624254866118e+01 -5.3249860206016408e-05 0.0000000000000000e+00  -2.7119669184191430e+01 -1.5839075323397659e-03 0.0000000000000000e+00  -2.7115286637319148e+01 -2.0925337835843018e-03 0.0000000000000000e+00  -2.7113100572959826e+01 -1.4200868959572805e-03 0.0000000000000000e+00  -2.7111110917815104e+01 1.4156447013554312e-03 0.0000000000000000e+00  -2.7111629373496378e+01 2.8183529786232641e-03 0.0000000000000000e+00  -2.7109295469493141e+01 6.0949956648779823e-03 0.0000000000000000e+00  -2.7115752860335597e+01 8.4931709822822585e-03 0.0000000000000000e+00  -2.7116956790252981e+01 1.5579363984988377e-03 0.0000000000000000e+00  -2.7152551412062945e+01 3.5809989444358967e-02 0.0000000000000000e+00  -2.7121069367121382e+01 0.0000000000000000e+00 0.0000000000000000e+00  -2.8261276254914851e+01 0.0000000000000000e+00 0.0000000000000000e+00  -2.8272786267037596e+01 -2.6427252184331447e-03 0.0000000000000000e+00  -2.8278058355636198e+01 -9.6296948347389443e-04 0.0000000000000000e+00  -2.8280065522146085e+01 1.6738507695433473e-04 0.0000000000000000e+00  -2.8280956311033350e+01 7.2834483700073979e-04 0.0000000000000000e+00  -2.8281415425378661e+01 9.9668536761470081e-04 0.0000000000000000e+00  -2.8281669623595224e+01 1.1176862944935880e-03 0.0000000000000000e+00  -2.8281815886809451e+01 1.1815941032220355e-03 0.0000000000000000e+00  -2.8281900555678735e+01 1.2181962958335022e-03 0.0000000000000000e+00  -2.8281948730240348e+01 1.2390911672893806e-03 0.0000000000000000e+00  -2.8281975345908542e+01 1.2511633197854969e-03 0.0000000000000000e+00  -2.8281989732360589e+01 1.2580124048455622e-03 0.0000000000000000e+00  -2.8281997303422870e+01 1.2617384578587671e-03 0.0000000000000000e+00  -2.8282001198253933e+01 1.2636819311551116e-03 0.0000000000000000e+00  -2.8282003128775578e+01 1.2646834156556834e-03 0.0000000000000000e+00  -2.8282004052395198e+01 1.2651898110040069e-03 0.0000000000000000e+00  -2.8282004458875697e+01 1.2654463609873634e-03 0.0000000000000000e+00  -2.8282004610948800e+01 1.2655719784761877e-03 0.0000000000000000e+00  -2.8282004633935941e+01 1.2656340763604974e-03 0.0000000000000000e+00  -2.8282004594880139e+01 1.2656630291867012e-03 0.0000000000000000e+00  -2.8282004523911954e+01 1.2656769592656982e-03 0.0000000000000000e+00  -2.8282004437876605e+01 1.2656829543322371e-03 0.0000000000000000e+00  -2.8282004343859306e+01 1.2656857626686575e-03 0.0000000000000000e+00  -2.8282004246159811e+01 1.2656867379629052e-03 0.0000000000000000e+00  -2.8282004146411644e+01 1.2656871631254356e-03 0.0000000000000000e+00  -2.8282004045747318e+01 1.2656871798763492e-03 0.0000000000000000e+00  -2.8282003944534519e+01 1.2656871596229678e-03 0.0000000000000000e+00  -2.8282003843083935e+01 1.2656870595174653e-03 0.0000000000000000e+00  -2.8282003741475240e+01 1.2656869904904427e-03 0.0000000000000000e+00  -2.8282003639804913e+01 1.2656869143457077e-03 0.0000000000000000e+00  -2.8282003538078008e+01 1.2656868625668398e-03 0.0000000000000000e+00  -2.8282003436350376e+01 1.2656868139337705e-03 0.0000000000000000e+00  -2.8282003334571840e+01 1.2656867847828295e-03 0.0000000000000000e+00  -2.8282003232851661e+01 1.2656867489639718e-03 0.0000000000000000e+00  -2.8282003131012761e+01 1.2656867414551462e-03 0.0000000000000000e+00  -2.8282003029376941e+01 1.2656867011634951e-03 0.0000000000000000e+00  -2.8282002927390533e+01 1.2656867333355520e-03 0.0000000000000000e+00  -2.8