<?xml version="1.0"?>
<VTKFile type="UnstructuredGrid"  version="0.1"  >
<UnstructuredGrid>
<Piece  NumberOfPoints="1369" NumberOfCells="2560">
<Points>
<DataArray  type="Float64"  NumberOfComponents="3"  format="ascii">0 0 0  0.75 0 0  1.5 0 0  2.25 0 0  3 0 0  3.75 0 0  4.5 0 0  5.25 0 0  6 0 0  6.75 0 0  7.5 0 0  8.25 0 0  9 0 0  9.75 0 0  10.5 0 0  11.25 0 0  12 0 0  12.75 0 0  13.5 0 0  14.25 0 0  15 0 0  15.75 0 0  16.5 0 0  17.25 0 0  18 0 0  18.75 0 0  19.5 0 0  20.25 0 0  21 0 0  21.75 0 0  22.5 0 0  23.25 0 0  24 0 0  24.75 0 0  25.5 0 0  26.25 0 0  27 0 0  27.75 0 0  28.5 0 0  29.25 0 0  30 0 0  30.75 0 0  31.5 0 0  32.25 0 0  33 0 0  33.75 0 0  34.5 0 0  35.25 0 0  36 0 0  36.75 0 0  37.5 0 0  38.25 0 0  39 0 0  39.75 0 0  40.5 0 0  41.25 0 0  42 0 0  42.75 0 0  43.5 0 0  44.25 0 0  45 0 0  45.75 0 0  46.5 0 0  47.25 0 0  48 0 0  48.75 0 0  49.5 0 0  50.25 0 0  51 0 0  51.75 0 0  52.5 0 0  53.25 0 0  54 0 0  54.75 0 0  55.5 0 0  56.25 0 0  57 0 0  57.75 0 0  58.5 0 0  59.25 0 0  60 0 0  0 0.5 0  0.75 0.5 0  1.5 0.5 0  2.25 0.5 0  3 0.5 0  3.75 0.5 0  4.5 0.5 0  5.25 0.5 0  6 0.5 0  6.75 0.5 0  7.5 0.5 0  8.25 0.5 0  9 0.5 0  9.75 0.5 0  10.5 0.5 0  11.25 0.5 0  12 0.5 0  12.75 0.5 0  13.5 0.5 0  14.25 0.5 0  15 0.5 0  15.75 0.5 0  16.5 0.5 0  17.25 0.5 0  18 0.5 0  18.75 0.5 0  19.5 0.5 0  20.25 0.5 0  21 0.5 0  21.75 0.5 0  22.5 0.5 0  23.25 0.5 0  24 0.5 0  24.75 0.5 0  25.5 0.5 0  26.25 0.5 0  27 0.5 0  27.75 0.5 0  28.5 0.5 0  29.25 0.5 0  30 0.5 0  30.75 0.5 0  31.5 0.5 0  32.25 0.5 0  33 0.5 0  33.75 0.5 0  34.5 0.5 0  35.25 0.5 0  36 0.5 0  36.75 0.5 0  37.5 0.5 0  38.25 0.5 0  39 0.5 0  39.75 0.5 0  40.5 0.5 0  41.25 0.5 0  42 0.5 0  42.75 0.5 0  43.5 0.5 0  44.25 0.5 0  45 0.5 0  45.75 0.5 0  46.5 0.5 0  47.25 0.5 0  48 0.5 0  48.75 0.5 0  49.5 0.5 0  50.25 0.5 0  51 0.5 0  51.75 0.5 0  52.5 0.5 0  53.25 0.5 0  54 0.5 0  54.75 0.5 0  55.5 0.5 0  56.25 0.5 0  57 0.5 0  57.75 0.5 0  58.5 0.5 0  59.25 0.5 0  60 0.5 0  0 1 0  0.75 1 0  1.5 1 0  2.25 1 0  3 1 0  3.75 1 0  4.5 1 0  5.25 1 0  6 1 0  6.75 1 0  7.5 1 0  8.25 1 0  9 1 0  9.75 1 0  10.5 1 0  11.25 1 0  12 1 0  12.75 1 0  13.5 1 0  14.25 1 0  15 1 0  15.75 1 0  16.5 1 0  17.25 1 0  18 1 0  18.75 1 0  19.5 1 0  20.25 1 0  21 1 0  21.75 1 0  22.5 1 0  23.25 1 0  24 1 0  24.75 1 0  25.5 1 0  26.25 1 0  27 1 0  27.75 1 0  28.5 1 0  29.25 1 0  30 1 0  30.75 1 0  31.5 1 0  32.25 1 0  33 1 0  33.75 1 0  34.5 1 0  35.25 1 0  36 1 0  36.75 1 0  37.5 1 0  38.25 1 0  39 1 0  39.75 1 0  40.5 1 0  41.25 1 0  42 1 0  42.75 1 0  43.5 1 0  44.25 1 0  45 1 0  45.75 1 0  46.5 1 0  47.25 1 0  48 1 0  48.75 1 0  49.5 1 0  50.25 1 0  51 1 0  51.75 1 0  52.5 1 0  53.25 1 0  54 1 0  54.75 1 0  55.5 1 0  56.25 1 0  57 1 0  57.75 1 0  58.5 1 0  59.25 1 0  60 1 0  0 1.5 0  0.75 1.5 0  1.5 1.5 0  2.25 1.5 0  3 1.5 0  3.75 1.5 0  4.5 1.5 0  5.25 1.5 0  6 1.5 0  6.75 1.5 0  7.5 1.5 0  8.25 1.5 0  9 1.5 0  9.75 1.5 0  10.5 1.5 0  11.25 1.5 0  12 1.5 0  12.75 1.5 0  13.5 1.5 0  14.25 1.5 0  15 1.5 0  15.75 1.5 0  16.5 1.5 0  17.25 1.5 0  18 1.5 0  18.75 1.5 0  19.5 1.5 0  20.25 1.5 0  21 1.5 0  21.75 1.5 0  22.5 1.5 0  23.25 1.5 0  24 1.5 0  24.75 1.5 0  25.5 1.5 0  26.25 1.5 0  27 1.5 0  27.75 1.5 0  28.5 1.5 0  29.25 1.5 0  30 1.5 0  30.75 1.5 0  31.5 1.5 0  32.25 1.5 0  33 1.5 0  33.75 1.5 0  34.5 1.5 0  35.25 1.5 0  36 1.5 0  36.75 1.5 0  37.5 1.5 0  38.25 1.5 0  39 1.5 0  39.75 1.5 0  40.5 1.5 0  41.25 1.5 0  42 1.5 0  42.75 1.5 0  43.5 1.5 0  44.25 1.5 0  45 1.5 0  45.75 1.5 0  46.5 1.5 0  47.25 1.5 0  48 1.5 0  48.75 1.5 0  49.5 1.5 0  50.25 1.5 0  51 1.5 0  51.75 1.5 0  52.5 1.5 0  53.25 1.5 0  54 1.5 0  54.75 1.5 0  55.5 1.5 0  56.25 1.5 0  57 1.5 0  57.75 1.5 0  58.5 1.5 0  59.25 1.5 0  60 1.5 0  0 2 0  0.75 2 0  1.5 2 0  2.25 2 0  3 2 0  3.75 2 0  4.5 2 0  5.25 2 0  6 2 0  6.75 2 0  7.5 2 0  8.25 2 0  9 2 0  9.75 2 0  10.5 2 0  11.25 2 0  12 2 0  12.75 2 0  13.5 2 0  14.25 2 0  15 2 0  15.75 2 0  16.5 2 0  17.25 2 0  18 2 0  18.75 2 0  19.5 2 0  20.25 2 0  21 2 0  21.75 2 0  22.5 2 0  23.25 2 0  24 2 0  24.75 2 0  25.5 2 0  26.25 2 0  27 2 0  27.75 2 0  28.5 2 0  29.25 2 0  30 2 0  30.75 2 0  31.5 2 0  32.25 2 0  33 2 0  33.75 2 0  34.5 2 0  35.25 2 0  36 2 0  36.75 2 0  37.5 2 0  38.25 2 0  39 2 0  39.75 2 0  40.5 2 0  41.25 2 0  42 2 0  42.75 2 0  43.5 2 0  44.25 2 0  45 2 0  45.75 2 0  46.5 2 0  47.25 2 0  48 2 0  48.75 2 0  49.5 2 0  50.25 2 0  51 2 0  51.75 2 0  52.5 2 0  53.25 2 0  54 2 0  54.75 2 0  55.5 2 0  56.25 2 0  57 2 0  57.75 2 0  58.5 2 0  59.25 2 0  60 2 0  0 2.5 0  0.75 2.5 0  1.5 2.5 0  2.25 2.5 0  3 2.5 0  3.75 2.5 0  4.5 2.5 0  5.25 2.5 0  6 2.5 0  6.75 2.5 0  7.5 2.5 0  8.25 2.5 0  9 2.5 0  9.75 2.5 0  10.5 2.5 0  11.25 2.5 0  12 2.5 0  12.75 2.5 0  13.5 2.5 0  14.25 2.5 0  15 2.5 0  15.75 2.5 0  16.5 2.5 0  17.25 2.5 0  18 2.5 0  18.75 2.5 0  19.5 2.5 0  20.25 2.5 0  21 2.5 0  21.75 2.5 0  22.5 2.5 0  23.25 2.5 0  24 2.5 0  24.75 2.5 0  25.5 2.5 0  26.25 2.5 0  27 2.5 0  27.75 2.5 0  28.5 2.5 0  29.25 2.5 0  30 2.5 0  30.75 2.5 0  31.5 2.5 0  32.25 2.5 0  33 2.5 0  33.75 2.5 0  34.5 2.5 0  35.25 2.5 0  36 2.5 0  36.75 2.5 0  37.5 2.5 0  38.25 2.5 0  39 2.5 0  39.75 2.5 0  40.5 2.5 0  41.25 2.5 0  42 2.5 0  42.75 2.5 0  43.5 2.5 0  44.25 2.5 0  45 2.5 0  45.75 2.5 0  46.5 2.5 0  47.25 2.5 0  48 2.5 0  48.75 2.5 0  49.5 2.5 0  50.25 2.5 0  51 2.5 0  51.75 2.5 0  52.5 2.5 0  53.25 2.5 0  54 2.5 0  54.75 2.5 0  55.5 2.5 0  56.25 2.5 0  57 2.5 0  57.75 2.5 0  58.5 2.5 0  59.25 2.5 0  60 2.5 0  0 3 0  0.75 3 0  1.5 3 0  2.25 3 0  3 3 0  3.75 3 0  4.5 3 0  5.25 3 0  6 3 0  6.75 3 0  7.5 3 0  8.25 3 0  9 3 0  9.75 3 0  10.5 3 0  11.25 3 0  12 3 0  12.75 3 0  13.5 3 0  14.25 3 0  15 3 0  15.75 3 0  16.5 3 0  17.25 3 0  18 3 0  18.75 3 0  19.5 3 0  20.25 3 0  21 3 0  21.75 3 0  22.5 3 0  23.25 3 0  24 3 0  24.75 3 0  25.5 3 0  26.25 3 0  27 3 0  27.75 3 0  28.5 3 0  29.25 3 0  30 3 0  30.75 3 0  31.5 3 0  32.25 3 0  33 3 0  33.75 3 0  34.5 3 0  35.25 3 0  36 3 0  36.75 3 0  37.5 3 0  38.25 3 0  39 3 0  39.75 3 0  40.5 3 0  41.25 3 0  42 3 0  42.75 3 0  43.5 3 0  44.25 3 0  45 3 0  45.75 3 0  46.5 3 0  47.25 3 0  48 3 0  48.75 3 0  49.5 3 0  50.25 3 0  51 3 0  51.75 3 0  52.5 3 0  53.25 3 0  54 3 0  54.75 3 0  55.5 3 0  56.25 3 0  57 3 0  57.75 3 0  58.5 3 0  59.25 3 0  60 3 0  0 3.5 0  0.75 3.5 0  1.5 3.5 0  2.25 3.5 0  3 3.5 0  3.75 3.5 0  4.5 3.5 0  5.25 3.5 0  6 3.5 0  6.75 3.5 0  7.5 3.5 0  8.25 3.5 0  9 3.5 0  9.75 3.5 0  10.5 3.5 0  11.25 3.5 0  12 3.5 0  12.75 3.5 0  13.5 3.5 0  14.25 3.5 0  15 3.5 0  15.75 3.5 0  16.5 3.5 0  17.25 3.5 0  18 3.5 0  18.75 3.5 0  19.5 3.5 0  20.25 3.5 0  21 3.5 0  21.75 3.5 0  22.5 3.5 0  23.25 3.5 0  24 3.5 0  24.75 3.5 0  25.5 3.5 0  26.25 3.5 0  27 3.5 0  27.75 3.5 0  28.5 3.5 0  29.25 3.5 0  30 3.5 0  30.75 3.5 0  31.5 3.5 0  32.25 3.5 0  33 3.5 0  33.75 3.5 0  34.5 3.5 0  35.25 3.5 0  36 3.5 0  36.75 3.5 0  37.5 3.5 0  38.25 3.5 0  39 3.5 0  39.75 3.5 0  40.5 3.5 0  41.25 3.5 0  42 3.5 0  42.75 3.5 0  43.5 3.5 0  44.25 3.5 0  45 3.5 0  45.75 3.5 0  46.5 3.5 0  47.25 3.5 0  48 3.5 0  48.75 3.5 0  49.5 3.5 0  50.25 3.5 0  51 3.5 0  51.75 3.5 0  52.5 3.5 0  53.25 3.5 0  54 3.5 0  54.75 3.5 0  55.5 3.5 0  56.25 3.5 0  57 3.5 0  57.75 3.5 0  58.5 3.5 0  59.25 3.5 0  60 3.5 0  0 4 0  0.75 4 0  1.5 4 0  2.25 4 0  3 4 0  3.75 4 0  4.5 4 0  5.25 4 0  6 4 0  6.75 4 0  7.5 4 0  8.25 4 0  9 4 0  9.75 4 0  10.5 4 0  11.25 4 0  12 4 0  12.75 4 0  13.5 4 0  14.25 4 0  15 4 0  15.75 4 0  16.5 4 0  17.25 4 0  18 4 0  18.75 4 0  19.5 4 0  20.25 4 0  21 4 0  21.75 4 0  22.5 4 0  23.25 4 0  24 4 0  24.75 4 0  25.5 4 0  26.25 4 0  27 4 0  27.75 4 0  28.5 4 0  29.25 4 0  30 4 0  30.75 4 0  31.5 4 0  32.25 4 0  33 4 0  33.75 4 0  34.5 4 0  35.25 4 0  36 4 0  36.75 4 0  37.5 4 0  38.25 4 0  39 4 0  39.75 4 0  40.5 4 0  41.25 4 0  42 4 0  42.75 4 0  43.5 4 0  44.25 4 0  45 4 0  45.75 4 0  46.5 4 0  47.25 4 0  48 4 0  48.75 4 0  49.5 4 0  50.25 4 0  51 4 0  51.75 4 0  52.5 4 0  53.25 4 0  54 4 0  54.75 4 0  55.5 4 0  56.25 4 0  57 4 0  57.75 4 0  58.5 4 0  59.25 4 0  60 4 0  0.375 0.25 0  1.125 0.25 0  1.875 0.25 0  2.625 0.25 0  3.375 0.25 0  4.125 0.25 0  4.875 0.25 0  5.625 0.25 0  6.375 0.25 0  7.125 0.25 0  7.875 0.25 0  8.625 0.25 0  9.375 0.25 0  10.125 0.25 0  10.875 0.25 0  11.625 0.25 0  12.375 0.25 0  13.125 0.25 0  13.875 0.25 0  14.625 0.25 0  15.375 0.25 0  16.125 0.25 0  16.875 0.25 0  17.625 0.25 0  18.375 0.25 0  19.125 0.25 0  19.875 0.25 0  20.625 0.25 0  21.375 0.25 0  22.125 0.25 0  22.875 0.25 0  23.625 0.25 0  24.375 0.25 0  25.125 0.25 0  25.875 0.25 0  26.625 0.25 0  27.375 0.25 0  28.125 0.25 0  28.875 0.25 0  29.625 0.25 0  30.375 0.25 0  31.125 0.25 0  31.875 0.25 0  32.625 0.25 0  33.375 0.25 0  34.125 0.25 0  34.875 0.25 0  35.625 0.25 0  36.375 0.25 0  37.125 0.25 0  37.875 0.25 0  38.625 0.25 0  39.375 0.25 0  40.125 0.25 0  40.875 0.25 0  41.625 0.25 0  42.375 0.25 0  43.125 0.25 0  43.875 0.25 0  44.625 0.25 0  45.375 0.25 0  46.125 0.25 0  46.875 0.25 0  47.625 0.25 0  48.375 0.25 0  49.125 0.25 0  49.875 0.25 0  50.625 0.25 0  51.375 0.25 0  52.125 0.25 0  52.875 0.25 0  53.625 0.25 0  54.375 0.25 0  55.125 0.25 0  55.875 0.25 0  56.625 0.25 0  57.375 0.25 0  58.125 0.25 0  58.875 0.25 0  59.625 0.25 0  0.375 0.75 0  1.125 0.75 0  1.875 0.75 0  2.625 0.75 0  3.375 0.75 0  4.125 0.75 0  4.875 0.75 0  5.625 0.75 0  6.375 0.75 0  7.125 0.75 0  7.875 0.75 0  8.625 0.75 0  9.375 0.75 0  10.125 0.75 0  10.875 0.75 0  11.625 0.75 0  12.375 0.75 0  13.125 0.75 0  13.875 0.75 0  14.625 0.75 0  15.375 0.75 0  16.125 0.75 0  16.875 0.75 0  17.625 0.75 0  18.375 0.75 0  19.125 0.75 0  19.875 0.75 0  20.625 0.75 0  21.375 0.75 0  22.125 0.75 0  22.875 0.75 0  23.625 0.75 0  24.375 0.75 0  25.125 0.75 0  25.875 0.75 0  26.625 0.75 0  27.375 0.75 0  28.125 0.75 0  28.875 0.75 0  29.625 0.75 0  30.375 0.75 0  31.125 0.75 0  31.875 0.75 0  32.625 0.75 0  33.375 0.75 0  34.125 0.75 0  34.875 0.75 0  35.625 0.75 0  36.375 0.75 0  37.125 0.75 0  37.875 0.75 0  38.625 0.75 0  39.375 0.75 0  40.125 0.75 0  40
[...]
<PointData  Vectors="f_8-0"> 
<DataArray  type="Float64"  Name="f_8-0"  NumberOfComponents="3" format="ascii">0.0000000000000000e+00 0.0000000000000000e+00 0.0000000000000000e+00  0.0000000000000000e+00 0.0000000000000000e+00 0.0000000000000000e+00  0.0000000000000000e+00 0.0000000000000000e+00 0.0000000000000000e+00  0.0000000000000000e+00 0.0000000000000000e+00 0.0000000000000000e+00  0.0000000000000000e+00 0.0000000000000000e+00 0.0000000000000000e+00  0.0000000000000000e+00 0.0000000000000000e+00 0.0000000000000000e+00  0.0000000000000000e+00 0.0000000000000000e+00 0.0000000000000000e+00  0.0000000000000000e+00 0.0000000000000000e+00 0.0000000000000000e+00  0.0000000000000000e+00 0.0000000000000000e+00 0.0000000000000000e+00  0.0000000000000000e+00 0.0000000000000000e+00 0.0000000000000000e+00  0.0000000000000000e+00 0.0000000000000000e+00 0.0000000000000000e+00  0.0000000000000000e+00 0.0000000000000000e+00 0.0000000000000000e+00  0.0000000000000000e+00 0.0000000000000000e+00 0.0000000000000000e+00  0.0000000000000000e+00 0.0000000000000000e+00 0.0000000000000000e+00  0.0000000000000000e+00 0.0000000000000000e+00 0.0000000000000000e+00  0.0000000000000000e+00 0.0000000000000000e+00 0.0000000000000000e+00  0.0000000000000000e+00 0.0000000000000000e+00 0.0000000000000000e+00  0.0000000000000000e+00 0.0000000000000000e+00 0.0000000000000000e+00  0.0000000000000000e+00 0.0000000000000000e+00 0.0000000000000000e+00  0.0000000000000000e+00 0.0000000000000000e+00 0.0000000000000000e+00  0.0000000000000000e+00 0.0000000000000000e+00 0.0000000000000000e+00  0.0000000000000000e+00 0.0000000000000000e+00 0.0000000000000000e+00  0.0000000000000000e+00 0.0000000000000000e+00 0.0000000000000000e+00  0.0000000000000000e+00 0.0000000000000000e+00 0.0000000000000000e+00  0.0000000000000000e+00 0.0000000000000000e+00 0.0000000000000000e+00  0.0000000000000000e+00 0.0000000000000000e+00 0.0000000000000000e+00  0.0000000000000000e+00 0.0000000000000000e+00 0.0000000000000000e+00  0.0000000000000000e+00 0.0000000000000000e+00 0.0000000000000000e+00  0.0000000000000000e+00 0.0000000000000000e+00 0.0000000000000000e+00  0.0000000000000000e+00 0.0000000000000000e+00 0.0000000000000000e+00  0.0000000000000000e+00 0.0000000000000000e+00 0.0000000000000000e+00  0.0000000000000000e+00 0.0000000000000000e+00 0.0000000000000000e+00  0.0000000000000000e+00 0.0000000000000000e+00 0.0000000000000000e+00  0.0000000000000000e+00 0.0000000000000000e+00 0.0000000000000000e+00  0.0000000000000000e+00 0.0000000000000000e+00 0.0000000000000000e+00  0.0000000000000000e+00 0.0000000000000000e+00 0.0000000000000000e+00  0.0000000000000000e+00 0.0000000000000000e+00 0.0000000000000000e+00  0.0000000000000000e+00 0.0000000000000000e+00 0.0000000000000000e+00  0.0000000000000000e+00 0.0000000000000000e+00 0.0000000000000000e+00  0.0000000000000000e+00 0.0000000000000000e+00 0.0000000000000000e+00  0.0000000000000000e+00 0.0000000000000000e+00 0.0000000000000000e+00  0.0000000000000000e+00 0.0000000000000000e+00 0.0000000000000000e+00  0.0000000000000000e+00 0.0000000000000000e+00 0.0000000000000000e+00  0.0000000000000000e+00 0.0000000000000000e+00 0.0000000000000000e+00  0.0000000000000000e+00 0.0000000000000000e+00 0.0000000000000000e+00  0.0000000000000000e+00 0.0000000000000000e+00 0.0000000000000000e+00  0.0000000000000000e+00 0.0000000000000000e+00 0.0000000000000000e+00  0.0000000000000000e+00 0.0000000000000000e+00 0.0000000000000000e+00  0.0000000000000000e+00 0.0000000000000000e+00 0.0000000000000000e+00  0.0000000000000000e+00 0.0000000000000000e+00 0.0000000000000000e+00  0.0000000000000000e+00 0.0000000000000000e+00 0.0000000000000000e+00  0.0000000000000000e+00 0.0000000000000000e+00 0.0000000000000000e+00  0.0000000000000000e+00 0.0000000000000000e+00 0.0000000000000000e+00  0.0000000000000000e+00 0.0000000000000000e+00 0.0000000000000000e+00  0.0000000000000000e+00 0.0000000000000000e+00 0.0000000000000000e+00  0.0000000000000000e+00 0.0000000000000000e+00 0.0000000000000000e+00  0.0000000000000000e+00 0.0000000000000000e+00 0.0000000000000000e+00  0.0000000000000000e+00 0.0000000000000000e+00 0.0000000000000000e+00  0.0000000000000000e+00 0.0000000000000000e+00 0.0000000000000000e+00  0.0000000000000000e+00 0.0000000000000000e+00 0.0000000000000000e+00  0.0000000000000000e+00 0.0000000000000000e+00 0.0000000000000000e+00  0.0000000000000000e+00 0.0000000000000000e+00 0.0000000000000000e+00  0.0000000000000000e+00 0.0000000000000000e+00 0.0000000000000000e+00  0.0000000000000000e+00 0.0000000000000000e+00 0.0000000000000000e+00  0.0000000000000000e+00 0.0000000000000000e+00 0.0000000000000000e+00  0.0000000000000000e+00 0.0000000000000000e+00 0.0000000000000000e+00  0.0000000000000000e+00 0.0000000000000000e+00 0.0000000000000000e+00  0.0000000000000000e+00 0.0000000000000000e+00 0.0000000000000000e+00  0.0000000000000000e+00 0.0000000000000000e+00 0.0000000000000000e+00  0.0000000000000000e+00 0.0000000000000000e+00 0.0000000000000000e+00  0.0000000000000000e+00 0.0000000000000000e+00 0.0000000000000000e+00  0.0000000000000000e+00 0.0000000000000000e+00 0.0000000000000000e+00  0.0000000000000000e+00 0.0000000000000000e+00 0.0000000000000000e+00  0.0000000000000000e+00 0.0000000000000000e+00 0.0000000000000000e+00  0.0000000000000000e+00 0.0000000000000000e+00 0.0000000000000000e+00  0.0000000000000000e+00 0.0000000000000000e+00 0.0000000000000000e+00  0.0000000000000000e+00 0.0000000000000000e+00 0.0000000000000000e+00  0.0000000000000000e+00 0.0000000000000000e+00 0.0000000000000000e+00  0.0000000000000000e+00 0.0000000000000000e+00 0.0000000000000000e+00  0.0000000000000000e+00 0.0000000000000000e+00 0.0000000000000000e+00  0.0000000000000000e+00 0.0000000000000000e+00 0.0000000000000000e+00  2.6444119004113436e+01 0.0000000000000000e+00 0.0000000000000000e+00  2.6437407830100057e+01 5.9061131358109732e-02 0.0000000000000000e+00  2.6457226422047885e+01 3.6771370757584527e-02 0.0000000000000000e+00  2.6432360646645218e+01 9.5853758422782959e-03 0.0000000000000000e+00  2.6425285319614424e+01 5.2785106880136072e-03 0.0000000000000000e+00  2.6425833447160450e+01 2.1530320374528976e-03 0.0000000000000000e+00  2.6425974558769266e+01 3.8660874457507378e-03 0.0000000000000000e+00  2.6427072007690587e+01 3.5679970309838464e-03 0.0000000000000000e+00  2.6426711036835613e+01 3.8466704009424276e-03 0.0000000000000000e+00  2.6427106930582799e+01 3.7799310821591790e-03 0.0000000000000000e+00  2.6426917877500578e+01 3.8187007696801872e-03 0.0000000000000000e+00  2.6427048337127331e+01 3.8075100582434900e-03 0.0000000000000000e+00  2.6426989227726693e+01 3.8140333816343098e-03 0.0000000000000000e+00  2.6427023797070365e+01 3.8119711385297453e-03 0.0000000000000000e+00  2.6427009787302193e+01 3.8133422890262465e-03 0.0000000000000000e+00  2.6427017506275394e+01 3.8129127081692684e-03 0.0000000000000000e+00  2.6427014805150279e+01 3.8132173019081511e-03 0.0000000000000000e+00  2.6427016400214889e+01 3.8131293127212297e-03 0.0000000000000000e+00  2.6427016022121833e+01 3.8131931936284369e-03 0.0000000000000000e+00  2.6427016403982030e+01 3.8131764471358298e-03 0.0000000000000000e+00  2.6427016443769467e+01 3.8131886530170288e-03 0.0000000000000000e+00  2.6427016608119580e+01 3.8131855679667862e-03 0.0000000000000000e+00  2.6427016717160456e+01 3.8131876074129658e-03 0.0000000000000000e+00  2.6427016845860187e+01 3.8131869669272736e-03 0.0000000000000000e+00  2.6427016966332811e+01 3.8131871998781605e-03 0.0000000000000000e+00  2.6427017090035289e+01 3.8131870241488539e-03 0.0000000000000000e+00  2.6427017212744964e+01 3.8131870049306162e-03 0.0000000000000000e+00  2.6427017336110847e+01 3.8131869438820451e-03 0.0000000000000000e+00  2.6427017459465617e+01 3.8131869164879499e-03 0.0000000000000000e+00  2.6427017583013985e+01 3.8131868937992509e-03 0.0000000000000000e+00  2.6427017706634793e+01 3.8131868891101558e-03 0.0000000000000000e+00  2.6427017830330328e+01 3.8131868860203327e-03 0.0000000000000000e+00  2.6427017954072927e+01 3.8131868953127416e-03 0.0000000000000000e+00  2.6427018077848395e+01 3.8131869010020899e-03 0.0000000000000000e+00  2.6427018201648675e+01 3.8131869162280445e-03 0.0000000000000000e+00  2.6427018325460839e+01 3.8131869304265848e-03 0.0000000000000000e+00  2.6427018449287186e+01 3.8131869424714248e-03 0.0000000000000000e+00  2.6427018573119835e+01 3.8131869686297785e-03 0.0000000000000000e+00  2.6427018696950256e+01 3.8131869790392235e-03 0.0000000000000000e+00  2.6427018820788163e+01 3.8131870020482773e-03 0.0000000000000000e+00  2.6427018944620549e+01 3.8131870184262037e-03 0.0000000000000000e+00  2.6427019068453447e+01 3.8131870391657748e-03 0.0000000000000000e+00  2.6427019192282430e+01 3.8131870568686370e-03 0.0000000000000000e+00  2.6427019316103362e+01 3.8131870812923396e-03 0.0000000000000000e+00  2.6427019439916574e+01 3.8131870969543486e-03 0.0000000000000000e+00  2.6427019563714609e+01 3.8131871244610487e-03 0.0000000000000000e+00  2.6427019687504693e+01 3.8131871296716306e-03 0.0000000000000000e+00  2.6427019811279436e+01 3.8131871555177085e-03 0.0000000000000000e+00  2.6427019935056641e+01 3.8131871252315222e-03 0.0000000000000000e+00  2.6427020058872408e+01 3.8131871093557779e-03 0.0000000000000000e+00  2.6427020182814353e+01 3.8131869267425036e-03 0.0000000000000000e+00  2.6427020307116798e+01 3.8131866691459722e-03 0.0000000000000000e+00  2.6427020432211066e+01 3.8131858663814516e-03 0.0000000000000000e+00  2.6427020559158205e+01 3.8131844890163052e-03 0.0000000000000000e+00  2.6427020689906318e+01 3.8131811937846772e-03 0.0000000000000000e+00  2.6427020828916294e+01 3.8131749502368275e-03 0.0000000000000000e+00  2.6427020984556442e+01 3.8131614511802778e-03 0.0000000000000000e+00  2.6427021175168914e+01 3.8131345548457914e-03 0.0000000000000000e+00  2.6427021436314984e+01 3.8130779418167390e-03 0.0000000000000000e+00  2.6427021844974593e+01 3.8129604535882705e-03 0.0000000000000000e+00  2.6427022558782991e+01 3.8127077832361168e-03 0.0000000000000000e+00  2.6427023931620223e+01 3.8121529257396473e-03 0.0000000000000000e+00  2.6427026760694851e+01 3.8108929946619272e-03 0.0000000000000000e+00  2.6427032966726092e+01 3.8079791837288047e-03 0.0000000000000000e+00  2.6427047152738460e+01 3.8012574443686271e-03 0.0000000000000000e+00  2.6427080193491019e+01 3.7862495590331863e-03 0.0000000000000000e+00  2.6427155919854389e+01 3.7548676811383990e-03 0.0000000000000000e+00  2.6427321411194168e+01 3.6953720275281466e-03 0.0000000000000000e+00  2.6427655553476892e+01 3.5972737405776606e-03 0.0000000000000000e+00  2.6428261112434217e+01 3.4648198674068491e-03 0.0000000000000000e+00  2.6429214412367610e+01 3.3352842630971465e-03 0.0000000000000000e+00  2.6430473445356910e+01 3.2752538032504654e-03 0.0000000000000000e+00  2.6431824874344109e+01 3.3318330923071907e-03 0.0000000000000000e+00  2.6432987799357530e+01 3.4917201295474967e-03 0.0000000000000000e+00  2.6433742048516400e+01 3.7511501945945228e-03 0.0000000000000000e+00  2.6433827117283933e+01 4.1810174284900147e-03 0.0000000000000000e+00  2.6432773833892409e+01 4.8659487459409905e-03 0.0000000000000000e+00  2.6429815709785906e+01 5.8110485827937985e-03 0.0000000000000000e+00  2.6423413242033764e+01 6.6184921902266687e-03 0.0000000000000000e+00  2.6408523677484020e+01 4.9312456373760572e-03 0.0000000000000000e+00  2.6390698371037811e+01 0.0000000000000000e+00 0.0000000000000000e+00  2.7819605281207920e+01 0.0000000000000000e+00 0.0000000000000000e+00  2.7757191202008858e+01 -1.4458507105938326e-02 0.0000000000000000e+00  2.7801133178613103e+01 8.3161333911250506e-03 0.0000000000000000e+00  2.7819733481501075e+01 5.0006356301721148e-03 0.0000000000000000e+00  2.7830055101549018e+01 1.3454740638569585e-03 0.0000000000000000e+00  2.7828276875956714e+01 -4.8611449691353018e-04 0.0000000000000000e+00  2.7828898793045710e+01 2.2227552556424948e-04 0.0000000000000000e+00  2.7828529739995261e+01 2.4508449050391766e-04 0.0000000000000000e+00  2.7828876993765455e+01 6.0148019913588058e-04 0.0000000000000000e+00  2.7828725586010489e+01 5.0909801692375063e-04 0.0000000000000000e+00  2.7828863786470102e+01 6.0737901119471368e-04 0.0000000000000000e+00  2.7828800609590253e+01 5.7414489323260188e-04 0.0000000000000000e+00  2.7828845534764515e+01 5.9766172812481173e-04 0.0000000000000000e+00  2.7828826316390305e+01 5.9036526561740831e-04 0.0000000000000000e+00  2.7828838284899913e+01 5.9521433447656846e-04 0.0000000000000000e+00  2.7828833701879717e+01 5.9399686478252387e-04 0.0000000000000000e+00  2.7828836469754677e+01 5.9489813847303887e-04 0.0000000000000000e+00  2.7828835603542345e+01 5.9473905383093184e-04 0.0000000000000000e+00  2.7828836234008399e+01 5.9489636440985692e-04 0.0000000000000000e+00  2.7828836156641863e+01 5.9488138375471552e-04 0.0000000000000000e+00  2.7828836354209020e+01 5.9490733754482997e-04 0.0000000000000000e+00  2.7828836426336295e+01 5.9490647028494974e-04 0.0000000000000000e+00  2.7828836545997923e+01 5.9491015552487296e-04 0.0000000000000000e+00  2.7828836645461035e+01 5.9490984372977433e-04 0.0000000000000000e+00  2.7828836753197425e+01 5.9491001415816437e-04 0.0000000000000000e+00  2.7828836858237349e+01 5.9490970115752572e-04 0.0000000000000000e+00  2.7828836964934183e+01 5.9490949409951165e-04 0.0000000000000000e+00  2.7828837071499525e+01 5.9490929076736073e-04 0.0000000000000000e+00  2.7828837178504791e+01 5.9490914271268425e-04 0.0000000000000000e+00  2.7828837285648618e+01 5.9490904092941428e-04 0.0000000000000000e+00  2.7828837392960597e+01 5.9490897963492516e-04 0.0000000000000000e+00  2.7828837500362191e+01 5.9490894265796645e-04 0.0000000000000000e+00  2.7828837607838139e+01 5.9490893232180353e-04 0.0000000000000000e+00  2.7828837715357494e+01 5.9490892741127018e-04 0.0000000000000000e+00  2.7828837822917727e+01 5.9490894472374141e-04 0.0000000000000000e+00  2.7828837930493243e+01 5.9490895947929344e-04 0.0000000000000000e+00  2.7828838038086808e+01 5.9490898312893037e-04 0.0000000000000000e+00  2.7828838145693126e+01 5.9490902186474539e-04 0.0000000000000000e+00  2.7828838253287692e+01 5.9490904546585712e-04 0.0000000000000000e+00  2.7828838360898189e+01 5.9490908509350095e-04 0.0000000000000000e+00  2.7828838468489579e+01 5.9490912139923303e-04 0.0000000000000000e+00  2.7828838576080958e+01 5.9490916053640602e-04 0.0000000000000000e+00  2.7828838683654297e+01 5.9490920281368264e-04 0.0000000000000000e+00  2.7828838791209733e+01 5.9490924984768791e-04 0.0000000000000000e+00  2.7828838898730208e+01 5.9490930145133754e-04 0.0000000000000000e+00  2.7828839006205111e+01 5.9490936141827955e-04 0.0000000000000000e+00  2.7828839113608396e+01 5.9490941622163129e-04 0.0000000000000000e+00  2.7828839220911615e+01 5.9490949842743704e-04 0.0000000000000000e+00  2.7828839328065285e+01 5.9490952942810825e-04 0.0000000000000000e+00  2.7828839435004291e+01 5.9490958865339807e-04 0.0000000000000000e+00  2.7828839541655189e+01 5.9490942369010613e-04 0.0000000000000000e+00  2.7828839647877647e+01 5.9490917012747354e-04 0.0000000000000000e+00  2.7828839753591311e+01 5.9490803077811205e-04 0.0000000000000000e+00  2.7828839858551195e+01 5.9490604784632572e-04 0.0000000000000000e+00  2.7828839962815145e+01 5.9490065879390570e-04 0.0000000000000000e+00  2.7828840066124830e+01 5.9489056554728852e-04 0.0000000000000000e+00  2.7828840169391146e+01 5.9486724298509028e-04 0.0000000000000000e+00  2.7828840273245131e+01 5.9482166553813398e-04 0.0000000000000000e+00  2.7828840381938157e+01 5.9472244427729475e-04 0.0000000000000000e+00  2.7828840500253552e+01 5.9452137798546843e-04 0.0000000000000000e+00  2.7828840640797541e+01 5.9408632723513056e-04 0.0000000000000000e+00  2.7828840810676258e+01 5.9315931223010300e-04 0.0000000000000000e+00  2.7828841012935207e+01 5.9107265439237991e-04 0.0000000000000000e+00  2.7828841217114665e+01 5.8631140734111467e-04 0.0000000000000000e+00  2.7828841518345243e+01 5.7514931581413207e-04 0.0000000000000000e+00  2.7828842826207485e+01 5.4943912822116251e-04 0.0000000000000000e+00  2.7828849529390460e+01 4.9259335239644768e-04 0.0000000000000000e+00  2.7828876083698539e+01 3.7684700791237971e-04 0.0000000000000000e+00  2.7828959741711724e+01 1.6709299230259662e-04 0.0000000000000000e+00  2.7829172448106505e+01 -1.5148444541967075e-04 0.0000000000000000e+00  2.7829603048234699e+01 -5.1660261507174116e-04 0.0000000000000000e+00  2.7830270535236860e+01 -7.5242394282474720e-04 0.0000000000000000e+00  2.7831044267963460e+01 -6.9857801887482146e-04 0.0000000000000000e+00  2.7831773447703288e+01 -4.0201841767609296e-04 0.0000000000000000e+00  2.7832452615989247e+01 6.6183195679100839e-05 0.0000000000000000e+00  2.7833064238876368e+01 8.6633691909376626e-04 0.0000000000000000e+00  2.7833531411842582e+01 2.1862693270639126e-03 0.0000000000000000e+00  2.7833732995051115e+01 4.2645841313430693e-03 0.0000000000000000e+00  2.7833401118510643e+01 7.3263181148681480e-03 0.0000000000000000e+00  2.7833146915786205e+01 1.0999552359877519e-02 0.0000000000000000e+00  2.7836719001157807e+01 0.0000000000000000e+00 0.0000000000000000e+00  2.5109495039640674e+01 0.0000000000000000e+00 0.0000000000000000e+00  2.5104081899943910e+01 1.3848268538312520e-03 0.0000000000000000e+00  2.5101358111475754e+01 -6.5493147084716907e-03 0.0000000000000000e+00  2.5103150264813717e+01 -8.4804508100583167e-04 0.0000000000000000e+00  2.5101898399547252e+01 -2.2029676516587418e-03 0.0000000000000000e+00  2.5103002278542306e+01 -1.9461913477450685e-03 0.0000000000000000e+00  2.5101543382110570e+01 -2.0104290380294231e-03 0.0000000000000000e+00  2.5101684741357264e+01 -1.6620170820676103e-03 0.0000000000000000e+00  2.5101316665024974e+01 -1.6715485626776746e-03 0.0000000000000000e+00  2.5101400489980048e+01 -1.5601975025310842e-03 0.0000000000000000e+00  2.5101305968067940e+01 -1.5851638726144179e-03 0.0000000000000000e+00  2.5101334638119422e+01 -1.5542769421659907e-03 0.0000000000000000e+00  2.5101309320871547e+01 -1.5629842438608162e-03 0.0000000000000000e+00  2.5101317066792106e+01 -1.5552731159345059e-03 0.0000000000000000e+00  2.5101310737092238e+01 -1.5572645929536298e-03 0.0000000000000000e+00  2.5101312543692018e+01 -1.5555668336842885e-03 0.0000000000000000e+00  2.5101311140280767e+01 -1.5559231145075073e-03 0.0000000000000000e+00  2.5101311554245662e+01 -1.5555868678096363e-03 0.0000000000000000e+00  2.5101311320757780e+01 -1.5556407676070793e-03 0.0000000000000000e+00  2.5101311462012013e+01 -1.5555808658581029e-03 0.0000000000000000e+00  2.5101311487416051e+01 -1.5555893509902980e-03 0.0000000000000000e+00  2.5101311586290155e+01 -1.5555806984425089e-03 0.0000000000000000e+00  2.5101311667278548e+01 -1.5555830864138252e-03 0.0000000000000000e+00  2.5101311762577364e+01 -1.5555828067328795e-03 0.0000000000000000e+00  2.5101311855854366e+01 -1.5555840278700032e-03 0.0000000000000000e+00  2.5101311952092892e+01 -1.5555846514784654e-03 0.0000000000000000e+00  2.5101312048391861e+01 -1.5555853297202487e-03 0.0000000000000000e+00  2.5101312145400030e+01 -1.5555857842597183e-03 0.0000000000000000e+00  2.5101312242583941e+01 -1.5555861484825007e-03 0.0000000000000000e+00  2.5101312339969866e+01 -1.5555864172895838e-03 0.0000000000000000e+00  2.5101312437456588e+01 -1.5555866075689340e-03 0.0000000000000000e+00  2.5101312535019673e+01 -1.5555867556169265e-03 0.0000000000000000e+00  2.5101312632627522e+01 -1.5555868528579590e-03 0.0000000000000000e+00  2.5101312730268312e+01 -1.5555869419319010e-03 0.0000000000000000e+00  2.5101312827924918e+01 -1.5555870015902080e-03 0.0000000000000000e+00  2.5101312925598901e+01 -1.5555870498523297e-03 0.0000000000000000e+00  2.5101313023276923e+01 -1.5555870991695348e-03 0.0000000000000000e+00  2.5101313120959411e+01 -1.5555871154691778e-03 0.0000000000000000e+00  2.5101313218645650e+01 -1.5555871529982699e-03 0.0000000000000000e+00  2.5101313316319398e+01 -1.5555871718096425e-03 0.0000000000000000e+00  2.5101313413998049e+01 -1.555587183