<?xml version="1.0"?>
<VTKFile type="UnstructuredGrid"  version="0.1"  >
<UnstructuredGrid>
<Piece  NumberOfPoints="1369" NumberOfCells="2560">
<Points>
<DataArray  type="Float64"  NumberOfComponents="3"  format="ascii">0 0 0  0.75 0 0  1.5 0 0  2.25 0 0  3 0 0  3.75 0 0  4.5 0 0  5.25 0 0  6 0 0  6.75 0 0  7.5 0 0  8.25 0 0  9 0 0  9.75 0 0  10.5 0 0  11.25 0 0  12 0 0  12.75 0 0  13.5 0 0  14.25 0 0  15 0 0  15.75 0 0  16.5 0 0  17.25 0 0  18 0 0  18.75 0 0  19.5 0 0  20.25 0 0  21 0 0  21.75 0 0  22.5 0 0  23.25 0 0  24 0 0  24.75 0 0  25.5 0 0  26.25 0 0  27 0 0  27.75 0 0  28.5 0 0  29.25 0 0  30 0 0  30.75 0 0  31.5 0 0  32.25 0 0  33 0 0  33.75 0 0  34.5 0 0  35.25 0 0  36 0 0  36.75 0 0  37.5 0 0  38.25 0 0  39 0 0  39.75 0 0  40.5 0 0  41.25 0 0  42 0 0  42.75 0 0  43.5 0 0  44.25 0 0  45 0 0  45.75 0 0  46.5 0 0  47.25 0 0  48 0 0  48.75 0 0  49.5 0 0  50.25 0 0  51 0 0  51.75 0 0  52.5 0 0  53.25 0 0  54 0 0  54.75 0 0  55.5 0 0  56.25 0 0  57 0 0  57.75 0 0  58.5 0 0  59.25 0 0  60 0 0  0 0.5 0  0.75 0.5 0  1.5 0.5 0  2.25 0.5 0  3 0.5 0  3.75 0.5 0  4.5 0.5 0  5.25 0.5 0  6 0.5 0  6.75 0.5 0  7.5 0.5 0  8.25 0.5 0  9 0.5 0  9.75 0.5 0  10.5 0.5 0  11.25 0.5 0  12 0.5 0  12.75 0.5 0  13.5 0.5 0  14.25 0.5 0  15 0.5 0  15.75 0.5 0  16.5 0.5 0  17.25 0.5 0  18 0.5 0  18.75 0.5 0  19.5 0.5 0  20.25 0.5 0  21 0.5 0  21.75 0.5 0  22.5 0.5 0  23.25 0.5 0  24 0.5 0  24.75 0.5 0  25.5 0.5 0  26.25 0.5 0  27 0.5 0  27.75 0.5 0  28.5 0.5 0  29.25 0.5 0  30 0.5 0  30.75 0.5 0  31.5 0.5 0  32.25 0.5 0  33 0.5 0  33.75 0.5 0  34.5 0.5 0  35.25 0.5 0  36 0.5 0  36.75 0.5 0  37.5 0.5 0  38.25 0.5 0  39 0.5 0  39.75 0.5 0  40.5 0.5 0  41.25 0.5 0  42 0.5 0  42.75 0.5 0  43.5 0.5 0  44.25 0.5 0  45 0.5 0  45.75 0.5 0  46.5 0.5 0  47.25 0.5 0  48 0.5 0  48.75 0.5 0  49.5 0.5 0  50.25 0.5 0  51 0.5 0  51.75 0.5 0  52.5 0.5 0  53.25 0.5 0  54 0.5 0  54.75 0.5 0  55.5 0.5 0  56.25 0.5 0  57 0.5 0  57.75 0.5 0  58.5 0.5 0  59.25 0.5 0  60 0.5 0  0 1 0  0.75 1 0  1.5 1 0  2.25 1 0  3 1 0  3.75 1 0  4.5 1 0  5.25 1 0  6 1 0  6.75 1 0  7.5 1 0  8.25 1 0  9 1 0  9.75 1 0  10.5 1 0  11.25 1 0  12 1 0  12.75 1 0  13.5 1 0  14.25 1 0  15 1 0  15.75 1 0  16.5 1 0  17.25 1 0  18 1 0  18.75 1 0  19.5 1 0  20.25 1 0  21 1 0  21.75 1 0  22.5 1 0  23.25 1 0  24 1 0  24.75 1 0  25.5 1 0  26.25 1 0  27 1 0  27.75 1 0  28.5 1 0  29.25 1 0  30 1 0  30.75 1 0  31.5 1 0  32.25 1 0  33 1 0  33.75 1 0  34.5 1 0  35.25 1 0  36 1 0  36.75 1 0  37.5 1 0  38.25 1 0  39 1 0  39.75 1 0  40.5 1 0  41.25 1 0  42 1 0  42.75 1 0  43.5 1 0  44.25 1 0  45 1 0  45.75 1 0  46.5 1 0  47.25 1 0  48 1 0  48.75 1 0  49.5 1 0  50.25 1 0  51 1 0  51.75 1 0  52.5 1 0  53.25 1 0  54 1 0  54.75 1 0  55.5 1 0  56.25 1 0  57 1 0  57.75 1 0  58.5 1 0  59.25 1 0  60 1 0  0 1.5 0  0.75 1.5 0  1.5 1.5 0  2.25 1.5 0  3 1.5 0  3.75 1.5 0  4.5 1.5 0  5.25 1.5 0  6 1.5 0  6.75 1.5 0  7.5 1.5 0  8.25 1.5 0  9 1.5 0  9.75 1.5 0  10.5 1.5 0  11.25 1.5 0  12 1.5 0  12.75 1.5 0  13.5 1.5 0  14.25 1.5 0  15 1.5 0  15.75 1.5 0  16.5 1.5 0  17.25 1.5 0  18 1.5 0  18.75 1.5 0  19.5 1.5 0  20.25 1.5 0  21 1.5 0  21.75 1.5 0  22.5 1.5 0  23.25 1.5 0  24 1.5 0  24.75 1.5 0  25.5 1.5 0  26.25 1.5 0  27 1.5 0  27.75 1.5 0  28.5 1.5 0  29.25 1.5 0  30 1.5 0  30.75 1.5 0  31.5 1.5 0  32.25 1.5 0  33 1.5 0  33.75 1.5 0  34.5 1.5 0  35.25 1.5 0  36 1.5 0  36.75 1.5 0  37.5 1.5 0  38.25 1.5 0  39 1.5 0  39.75 1.5 0  40.5 1.5 0  41.25 1.5 0  42 1.5 0  42.75 1.5 0  43.5 1.5 0  44.25 1.5 0  45 1.5 0  45.75 1.5 0  46.5 1.5 0  47.25 1.5 0  48 1.5 0  48.75 1.5 0  49.5 1.5 0  50.25 1.5 0  51 1.5 0  51.75 1.5 0  52.5 1.5 0  53.25 1.5 0  54 1.5 0  54.75 1.5 0  55.5 1.5 0  56.25 1.5 0  57 1.5 0  57.75 1.5 0  58.5 1.5 0  59.25 1.5 0  60 1.5 0  0 2 0  0.75 2 0  1.5 2 0  2.25 2 0  3 2 0  3.75 2 0  4.5 2 0  5.25 2 0  6 2 0  6.75 2 0  7.5 2 0  8.25 2 0  9 2 0  9.75 2 0  10.5 2 0  11.25 2 0  12 2 0  12.75 2 0  13.5 2 0  14.25 2 0  15 2 0  15.75 2 0  16.5 2 0  17.25 2 0  18 2 0  18.75 2 0  19.5 2 0  20.25 2 0  21 2 0  21.75 2 0  22.5 2 0  23.25 2 0  24 2 0  24.75 2 0  25.5 2 0  26.25 2 0  27 2 0  27.75 2 0  28.5 2 0  29.25 2 0  30 2 0  30.75 2 0  31.5 2 0  32.25 2 0  33 2 0  33.75 2 0  34.5 2 0  35.25 2 0  36 2 0  36.75 2 0  37.5 2 0  38.25 2 0  39 2 0  39.75 2 0  40.5 2 0  41.25 2 0  42 2 0  42.75 2 0  43.5 2 0  44.25 2 0  45 2 0  45.75 2 0  46.5 2 0  47.25 2 0  48 2 0  48.75 2 0  49.5 2 0  50.25 2 0  51 2 0  51.75 2 0  52.5 2 0  53.25 2 0  54 2 0  54.75 2 0  55.5 2 0  56.25 2 0  57 2 0  57.75 2 0  58.5 2 0  59.25 2 0  60 2 0  0 2.5 0  0.75 2.5 0  1.5 2.5 0  2.25 2.5 0  3 2.5 0  3.75 2.5 0  4.5 2.5 0  5.25 2.5 0  6 2.5 0  6.75 2.5 0  7.5 2.5 0  8.25 2.5 0  9 2.5 0  9.75 2.5 0  10.5 2.5 0  11.25 2.5 0  12 2.5 0  12.75 2.5 0  13.5 2.5 0  14.25 2.5 0  15 2.5 0  15.75 2.5 0  16.5 2.5 0  17.25 2.5 0  18 2.5 0  18.75 2.5 0  19.5 2.5 0  20.25 2.5 0  21 2.5 0  21.75 2.5 0  22.5 2.5 0  23.25 2.5 0  24 2.5 0  24.75 2.5 0  25.5 2.5 0  26.25 2.5 0  27 2.5 0  27.75 2.5 0  28.5 2.5 0  29.25 2.5 0  30 2.5 0  30.75 2.5 0  31.5 2.5 0  32.25 2.5 0  33 2.5 0  33.75 2.5 0  34.5 2.5 0  35.25 2.5 0  36 2.5 0  36.75 2.5 0  37.5 2.5 0  38.25 2.5 0  39 2.5 0  39.75 2.5 0  40.5 2.5 0  41.25 2.5 0  42 2.5 0  42.75 2.5 0  43.5 2.5 0  44.25 2.5 0  45 2.5 0  45.75 2.5 0  46.5 2.5 0  47.25 2.5 0  48 2.5 0  48.75 2.5 0  49.5 2.5 0  50.25 2.5 0  51 2.5 0  51.75 2.5 0  52.5 2.5 0  53.25 2.5 0  54 2.5 0  54.75 2.5 0  55.5 2.5 0  56.25 2.5 0  57 2.5 0  57.75 2.5 0  58.5 2.5 0  59.25 2.5 0  60 2.5 0  0 3 0  0.75 3 0  1.5 3 0  2.25 3 0  3 3 0  3.75 3 0  4.5 3 0  5.25 3 0  6 3 0  6.75 3 0  7.5 3 0  8.25 3 0  9 3 0  9.75 3 0  10.5 3 0  11.25 3 0  12 3 0  12.75 3 0  13.5 3 0  14.25 3 0  15 3 0  15.75 3 0  16.5 3 0  17.25 3 0  18 3 0  18.75 3 0  19.5 3 0  20.25 3 0  21 3 0  21.75 3 0  22.5 3 0  23.25 3 0  24 3 0  24.75 3 0  25.5 3 0  26.25 3 0  27 3 0  27.75 3 0  28.5 3 0  29.25 3 0  30 3 0  30.75 3 0  31.5 3 0  32.25 3 0  33 3 0  33.75 3 0  34.5 3 0  35.25 3 0  36 3 0  36.75 3 0  37.5 3 0  38.25 3 0  39 3 0  39.75 3 0  40.5 3 0  41.25 3 0  42 3 0  42.75 3 0  43.5 3 0  44.25 3 0  45 3 0  45.75 3 0  46.5 3 0  47.25 3 0  48 3 0  48.75 3 0  49.5 3 0  50.25 3 0  51 3 0  51.75 3 0  52.5 3 0  53.25 3 0  54 3 0  54.75 3 0  55.5 3 0  56.25 3 0  57 3 0  57.75 3 0  58.5 3 0  59.25 3 0  60 3 0  0 3.5 0  0.75 3.5 0  1.5 3.5 0  2.25 3.5 0  3 3.5 0  3.75 3.5 0  4.5 3.5 0  5.25 3.5 0  6 3.5 0  6.75 3.5 0  7.5 3.5 0  8.25 3.5 0  9 3.5 0  9.75 3.5 0  10.5 3.5 0  11.25 3.5 0  12 3.5 0  12.75 3.5 0  13.5 3.5 0  14.25 3.5 0  15 3.5 0  15.75 3.5 0  16.5 3.5 0  17.25 3.5 0  18 3.5 0  18.75 3.5 0  19.5 3.5 0  20.25 3.5 0  21 3.5 0  21.75 3.5 0  22.5 3.5 0  23.25 3.5 0  24 3.5 0  24.75 3.5 0  25.5 3.5 0  26.25 3.5 0  27 3.5 0  27.75 3.5 0  28.5 3.5 0  29.25 3.5 0  30 3.5 0  30.75 3.5 0  31.5 3.5 0  32.25 3.5 0  33 3.5 0  33.75 3.5 0  34.5 3.5 0  35.25 3.5 0  36 3.5 0  36.75 3.5 0  37.5 3.5 0  38.25 3.5 0  39 3.5 0  39.75 3.5 0  40.5 3.5 0  41.25 3.5 0  42 3.5 0  42.75 3.5 0  43.5 3.5 0  44.25 3.5 0  45 3.5 0  45.75 3.5 0  46.5 3.5 0  47.25 3.5 0  48 3.5 0  48.75 3.5 0  49.5 3.5 0  50.25 3.5 0  51 3.5 0  51.75 3.5 0  52.5 3.5 0  53.25 3.5 0  54 3.5 0  54.75 3.5 0  55.5 3.5 0  56.25 3.5 0  57 3.5 0  57.75 3.5 0  58.5 3.5 0  59.25 3.5 0  60 3.5 0  0 4 0  0.75 4 0  1.5 4 0  2.25 4 0  3 4 0  3.75 4 0  4.5 4 0  5.25 4 0  6 4 0  6.75 4 0  7.5 4 0  8.25 4 0  9 4 0  9.75 4 0  10.5 4 0  11.25 4 0  12 4 0  12.75 4 0  13.5 4 0  14.25 4 0  15 4 0  15.75 4 0  16.5 4 0  17.25 4 0  18 4 0  18.75 4 0  19.5 4 0  20.25 4 0  21 4 0  21.75 4 0  22.5 4 0  23.25 4 0  24 4 0  24.75 4 0  25.5 4 0  26.25 4 0  27 4 0  27.75 4 0  28.5 4 0  29.25 4 0  30 4 0  30.75 4 0  31.5 4 0  32.25 4 0  33 4 0  33.75 4 0  34.5 4 0  35.25 4 0  36 4 0  36.75 4 0  37.5 4 0  38.25 4 0  39 4 0  39.75 4 0  40.5 4 0  41.25 4 0  42 4 0  42.75 4 0  43.5 4 0  44.25 4 0  45 4 0  45.75 4 0  46.5 4 0  47.25 4 0  48 4 0  48.75 4 0  49.5 4 0  50.25 4 0  51 4 0  51.75 4 0  52.5 4 0  53.25 4 0  54 4 0  54.75 4 0  55.5 4 0  56.25 4 0  57 4 0  57.75 4 0  58.5 4 0  59.25 4 0  60 4 0  0.375 0.25 0  1.125 0.25 0  1.875 0.25 0  2.625 0.25 0  3.375 0.25 0  4.125 0.25 0  4.875 0.25 0  5.625 0.25 0  6.375 0.25 0  7.125 0.25 0  7.875 0.25 0  8.625 0.25 0  9.375 0.25 0  10.125 0.25 0  10.875 0.25 0  11.625 0.25 0  12.375 0.25 0  13.125 0.25 0  13.875 0.25 0  14.625 0.25 0  15.375 0.25 0  16.125 0.25 0  16.875 0.25 0  17.625 0.25 0  18.375 0.25 0  19.125 0.25 0  19.875 0.25 0  20.625 0.25 0  21.375 0.25 0  22.125 0.25 0  22.875 0.25 0  23.625 0.25 0  24.375 0.25 0  25.125 0.25 0  25.875 0.25 0  26.625 0.25 0  27.375 0.25 0  28.125 0.25 0  28.875 0.25 0  29.625 0.25 0  30.375 0.25 0  31.125 0.25 0  31.875 0.25 0  32.625 0.25 0  33.375 0.25 0  34.125 0.25 0  34.875 0.25 0  35.625 0.25 0  36.375 0.25 0  37.125 0.25 0  37.875 0.25 0  38.625 0.25 0  39.375 0.25 0  40.125 0.25 0  40.875 0.25 0  41.625 0.25 0  42.375 0.25 0  43.125 0.25 0  43.875 0.25 0  44.625 0.25 0  45.375 0.25 0  46.125 0.25 0  46.875 0.25 0  47.625 0.25 0  48.375 0.25 0  49.125 0.25 0  49.875 0.25 0  50.625 0.25 0  51.375 0.25 0  52.125 0.25 0  52.875 0.25 0  53.625 0.25 0  54.375 0.25 0  55.125 0.25 0  55.875 0.25 0  56.625 0.25 0  57.375 0.25 0  58.125 0.25 0  58.875 0.25 0  59.625 0.25 0  0.375 0.75 0  1.125 0.75 0  1.875 0.75 0  2.625 0.75 0  3.375 0.75 0  4.125 0.75 0  4.875 0.75 0  5.625 0.75 0  6.375 0.75 0  7.125 0.75 0  7.875 0.75 0  8.625 0.75 0  9.375 0.75 0  10.125 0.75 0  10.875 0.75 0  11.625 0.75 0  12.375 0.75 0  13.125 0.75 0  13.875 0.75 0  14.625 0.75 0  15.375 0.75 0  16.125 0.75 0  16.875 0.75 0  17.625 0.75 0  18.375 0.75 0  19.125 0.75 0  19.875 0.75 0  20.625 0.75 0  21.375 0.75 0  22.125 0.75 0  22.875 0.75 0  23.625 0.75 0  24.375 0.75 0  25.125 0.75 0  25.875 0.75 0  26.625 0.75 0  27.375 0.75 0  28.125 0.75 0  28.875 0.75 0  29.625 0.75 0  30.375 0.75 0  31.125 0.75 0  31.875 0.75 0  32.625 0.75 0  33.375 0.75 0  34.125 0.75 0  34.875 0.75 0  35.625 0.75 0  36.375 0.75 0  37.125 0.75 0  37.875 0.75 0  38.625 0.75 0  39.375 0.75 0  40.125 0.75 0  40
[...]
<PointData  Vectors="f_8-0"> 
<DataArray  type="Float64"  Name="f_8-0"  NumberOfComponents="3" format="ascii">0.0000000000000000e+00 0.0000000000000000e+00 0.0000000000000000e+00  0.0000000000000000e+00 0.0000000000000000e+00 0.0000000000000000e+00  0.0000000000000000e+00 0.0000000000000000e+00 0.0000000000000000e+00  0.0000000000000000e+00 0.0000000000000000e+00 0.0000000000000000e+00  0.0000000000000000e+00 0.0000000000000000e+00 0.0000000000000000e+00  0.0000000000000000e+00 0.0000000000000000e+00 0.0000000000000000e+00  0.0000000000000000e+00 0.0000000000000000e+00 0.0000000000000000e+00  0.0000000000000000e+00 0.0000000000000000e+00 0.0000000000000000e+00  0.0000000000000000e+00 0.0000000000000000e+00 0.0000000000000000e+00  0.0000000000000000e+00 0.0000000000000000e+00 0.0000000000000000e+00  0.0000000000000000e+00 0.0000000000000000e+00 0.0000000000000000e+00  0.0000000000000000e+00 0.0000000000000000e+00 0.0000000000000000e+00  0.0000000000000000e+00 0.0000000000000000e+00 0.0000000000000000e+00  0.0000000000000000e+00 0.0000000000000000e+00 0.0000000000000000e+00  0.0000000000000000e+00 0.0000000000000000e+00 0.0000000000000000e+00  0.0000000000000000e+00 0.0000000000000000e+00 0.0000000000000000e+00  0.0000000000000000e+00 0.0000000000000000e+00 0.0000000000000000e+00  0.0000000000000000e+00 0.0000000000000000e+00 0.0000000000000000e+00  0.0000000000000000e+00 0.0000000000000000e+00 0.0000000000000000e+00  0.0000000000000000e+00 0.0000000000000000e+00 0.0000000000000000e+00  0.0000000000000000e+00 0.0000000000000000e+00 0.0000000000000000e+00  0.0000000000000000e+00 0.0000000000000000e+00 0.0000000000000000e+00  0.0000000000000000e+00 0.0000000000000000e+00 0.0000000000000000e+00  0.0000000000000000e+00 0.0000000000000000e+00 0.0000000000000000e+00  0.0000000000000000e+00 0.0000000000000000e+00 0.0000000000000000e+00  0.0000000000000000e+00 0.0000000000000000e+00 0.0000000000000000e+00  0.0000000000000000e+00 0.0000000000000000e+00 0.0000000000000000e+00  0.0000000000000000e+00 0.0000000000000000e+00 0.0000000000000000e+00  0.0000000000000000e+00 0.0000000000000000e+00 0.0000000000000000e+00  0.0000000000000000e+00 0.0000000000000000e+00 0.0000000000000000e+00  0.0000000000000000e+00 0.0000000000000000e+00 0.0000000000000000e+00  0.0000000000000000e+00 0.0000000000000000e+00 0.0000000000000000e+00  0.0000000000000000e+00 0.0000000000000000e+00 0.0000000000000000e+00  0.0000000000000000e+00 0.0000000000000000e+00 0.0000000000000000e+00  0.0000000000000000e+00 0.0000000000000000e+00 0.0000000000000000e+00  0.0000000000000000e+00 0.0000000000000000e+00 0.0000000000000000e+00  0.0000000000000000e+00 0.0000000000000000e+00 0.0000000000000000e+00  0.0000000000000000e+00 0.0000000000000000e+00 0.0000000000000000e+00  0.0000000000000000e+00 0.0000000000000000e+00 0.0000000000000000e+00  0.0000000000000000e+00 0.0000000000000000e+00 0.0000000000000000e+00  0.0000000000000000e+00 0.0000000000000000e+00 0.0000000000000000e+00  0.0000000000000000e+00 0.0000000000000000e+00 0.0000000000000000e+00  0.0000000000000000e+00 0.0000000000000000e+00 0.0000000000000000e+00  0.0000000000000000e+00 0.0000000000000000e+00 0.0000000000000000e+00  0.0000000000000000e+00 0.0000000000000000e+00 0.0000000000000000e+00  0.0000000000000000e+00 0.0000000000000000e+00 0.0000000000000000e+00  0.0000000000000000e+00 0.0000000000000000e+00 0.0000000000000000e+00  0.0000000000000000e+00 0.0000000000000000e+00 0.0000000000000000e+00  0.0000000000000000e+00 0.0000000000000000e+00 0.0000000000000000e+00  0.0000000000000000e+00 0.0000000000000000e+00 0.0000000000000000e+00  0.0000000000000000e+00 0.0000000000000000e+00 0.0000000000000000e+00  0.0000000000000000e+00 0.0000000000000000e+00 0.0000000000000000e+00  0.0000000000000000e+00 0.0000000000000000e+00 0.0000000000000000e+00  0.0000000000000000e+00 0.0000000000000000e+00 0.0000000000000000e+00  0.0000000000000000e+00 0.0000000000000000e+00 0.0000000000000000e+00  0.0000000000000000e+00 0.0000000000000000e+00 0.0000000000000000e+00  0.0000000000000000e+00 0.0000000000000000e+00 0.0000000000000000e+00  0.0000000000000000e+00 0.0000000000000000e+00 0.0000000000000000e+00  0.0000000000000000e+00 0.0000000000000000e+00 0.0000000000000000e+00  0.0000000000000000e+00 0.0000000000000000e+00 0.0000000000000000e+00  0.0000000000000000e+00 0.0000000000000000e+00 0.0000000000000000e+00  0.0000000000000000e+00 0.0000000000000000e+00 0.0000000000000000e+00  0.0000000000000000e+00 0.0000000000000000e+00 0.0000000000000000e+00  0.0000000000000000e+00 0.0000000000000000e+00 0.0000000000000000e+00  0.0000000000000000e+00 0.0000000000000000e+00 0.0000000000000000e+00  0.0000000000000000e+00 0.0000000000000000e+00 0.0000000000000000e+00  0.0000000000000000e+00 0.0000000000000000e+00 0.0000000000000000e+00  0.0000000000000000e+00 0.0000000000000000e+00 0.0000000000000000e+00  0.0000000000000000e+00 0.0000000000000000e+00 0.0000000000000000e+00  0.0000000000000000e+00 0.0000000000000000e+00 0.0000000000000000e+00  0.0000000000000000e+00 0.0000000000000000e+00 0.0000000000000000e+00  0.0000000000000000e+00 0.0000000000000000e+00 0.0000000000000000e+00  0.0000000000000000e+00 0.0000000000000000e+00 0.0000000000000000e+00  0.0000000000000000e+00 0.0000000000000000e+00 0.0000000000000000e+00  0.0000000000000000e+00 0.0000000000000000e+00 0.0000000000000000e+00  0.0000000000000000e+00 0.0000000000000000e+00 0.0000000000000000e+00  0.0000000000000000e+00 0.0000000000000000e+00 0.0000000000000000e+00  0.0000000000000000e+00 0.0000000000000000e+00 0.0000000000000000e+00  0.0000000000000000e+00 0.0000000000000000e+00 0.0000000000000000e+00  0.0000000000000000e+00 0.0000000000000000e+00 0.0000000000000000e+00  0.0000000000000000e+00 0.0000000000000000e+00 0.0000000000000000e+00  -2.2951105584907864e+01 0.0000000000000000e+00 0.0000000000000000e+00  -2.2945819661762947e+01 2.3534987498775111e-03 0.0000000000000000e+00  -2.2947444859326843e+01 2.1317217216468409e-03 0.0000000000000000e+00  -2.2950569902770152e+01 1.3740681825409324e-03 0.0000000000000000e+00  -2.2952166232844210e+01 5.9904064306471466e-04 0.0000000000000000e+00  -2.2952421103266371e+01 4.0196630635464842e-05 0.0000000000000000e+00  -2.2951837243124626e+01 -2.9282937806374821e-04 0.0000000000000000e+00  -2.2950835367208605e+01 -4.5316354394693022e-04 0.0000000000000000e+00  -2.2949682432283865e+01 -5.0964483921603181e-04 0.0000000000000000e+00  -2.2948511314242026e+01 -5.1455580089072536e-04 0.0000000000000000e+00  -2.2947373625810833e+01 -5.0020468422312333e-04 0.0000000000000000e+00  -2.2946282728592756e+01 -4.8081962107816845e-04 0.0000000000000000e+00  -2.2945235189546210e+01 -4.6389326609033558e-04 0.0000000000000000e+00  -2.2944226220279482e+01 -4.4858292847466450e-04 0.0000000000000000e+00  -2.2943267887998189e+01 -4.2733503640822191e-04 0.0000000000000000e+00  -2.2942392650158542e+01 -3.9196070214382801e-04 0.0000000000000000e+00  -2.2941638335511133e+01 -3.4166960737625786e-04 0.0000000000000000e+00  -2.2941028381363417e+01 -2.8309371588503609e-04 0.0000000000000000e+00  -2.2940562955569341e+01 -2.2576035856988476e-04 0.0000000000000000e+00  -2.2940222819628641e+01 -1.7689946500111327e-04 0.0000000000000000e+00  -2.2939979543453720e+01 -1.3962653157625080e-04 0.0000000000000000e+00  -2.2939804831297788e+01 -1.1344670803044901e-04 0.0000000000000000e+00  -2.2939675878925392e+01 -9.6031751138507976e-05 0.0000000000000000e+00  -2.2939576597773907e+01 -8.4718917433057730e-05 0.0000000000000000e+00  -2.2939496517054881e+01 -7.7370977459430913e-05 0.0000000000000000e+00  -2.2939429149458363e+01 -7.2471630636668447e-05 0.0000000000000000e+00  -2.2939370628401701e+01 -6.9044410742093168e-05 0.0000000000000000e+00  -2.2939318515113339e+01 -6.6575472479611200e-05 0.0000000000000000e+00  -2.2939270943588834e+01 -6.4870566161339850e-05 0.0000000000000000e+00  -2.2939226420719596e+01 -6.3771114169118288e-05 0.0000000000000000e+00  -2.2939184112326600e+01 -6.2994905859347047e-05 0.0000000000000000e+00  -2.2939143949881242e+01 -6.2237066327980388e-05 0.0000000000000000e+00  -2.2939106261545135e+01 -6.1358517513316642e-05 0.0000000000000000e+00  -2.2939071303888788e+01 -6.0394023264332367e-05 0.0000000000000000e+00  -2.2939039208157453e+01 -5.9375617418150304e-05 0.0000000000000000e+00  -2.2939010340516798e+01 -5.8185354731538041e-05 0.0000000000000000e+00  -2.2938985612801890e+01 -5.6600491982105100e-05 0.0000000000000000e+00  -2.2938966340368054e+01 -5.4477753043833488e-05 0.0000000000000000e+00  -2.2938953690444176e+01 -5.1898745223540880e-05 0.0000000000000000e+00  -2.2938948111189099e+01 -4.9157404198898016e-05 0.0000000000000000e+00  -2.2938949114202167e+01 -4.6614199461110604e-05 0.0000000000000000e+00  -2.2938955494050354e+01 -4.4533346394522307e-05 0.0000000000000000e+00  -2.2938965787168250e+01 -4.3003424557659219e-05 0.0000000000000000e+00  -2.2938978684696767e+01 -4.1964382374402622e-05 0.0000000000000000e+00  -2.2938993220633527e+01 -4.1294265534487127e-05 0.0000000000000000e+00  -2.2939008731729235e+01 -4.0890441459902559e-05 0.0000000000000000e+00  -2.2939024705137840e+01 -4.0704899847161149e-05 0.0000000000000000e+00  -2.2939040645024185e+01 -4.0732759638128044e-05 0.0000000000000000e+00  -2.2939056029145654e+01 -4.0978277008511818e-05 0.0000000000000000e+00  -2.2939070351368986e+01 -4.1425809050602985e-05 0.0000000000000000e+00  -2.2939083200043537e+01 -4.2030031040730047e-05 0.0000000000000000e+00  -2.2939094321530014e+01 -4.2725000425848940e-05 0.0000000000000000e+00  -2.2939103636719899e+01 -4.3441126724408595e-05 0.0000000000000000e+00  -2.2939111220706089e+01 -4.4121989822786682e-05 0.0000000000000000e+00  -2.2939117242287193e+01 -4.4729714364110988e-05 0.0000000000000000e+00  -2.2939121934977127e+01 -4.5250906236890694e-05 0.0000000000000000e+00  -2.2939125501685357e+01 -4.5678276044400078e-05 0.0000000000000000e+00  -2.2939128208399609e+01 -4.6033380620617900e-05 0.0000000000000000e+00  -2.2939130118339868e+01 -4.6297665265101241e-05 0.0000000000000000e+00  -2.2939131633287719e+01 -4.6545084284029296e-05 0.0000000000000000e+00  -2.2939132373699550e+01 -4.6654378965857770e-05 0.0000000000000000e+00  -2.2939133455392078e+01 -4.6902363342997724e-05 0.0000000000000000e+00  -2.2939133022368704e+01 -4.6752633021196180e-05 0.0000000000000000e+00  -2.2939134780981728e+01 -4.7292433690049117e-05 0.0000000000000000e+00  -2.2939132272834090e+01 -4.6395226316075484e-05 0.0000000000000000e+00  -2.2939136818396154e+01 -4.8211261560543687e-05 0.0000000000000000e+00  -2.2939129870632861e+01 -4.4689107614529943e-05 0.0000000000000000e+00  -2.2939141129320507e+01 -5.1179022183832678e-05 0.0000000000000000e+00  -2.2939125572742167e+01 -3.8090196325728552e-05 0.0000000000000000e+00  -2.2939152008371135e+01 -5.9998284419427914e-05 0.0000000000000000e+00  -2.2939116890741001e+01 -1.6251383841429755e-05 0.0000000000000000e+00  -2.2939156755617425e+01 -9.8088818889639000e-05 0.0000000000000000e+00  -2.2938964661101796e+01 -4.9136597944494657e-05 0.0000000000000000e+00  -2.2938542738203921e+01 -5.4927062219906325e-04 0.0000000000000000e+00  -2.2937674314235412e+01 -5.4850293900771477e-04 0.0000000000000000e+00  -2.2938121239001084e+01 3.2300744062734531e-04 0.0000000000000000e+00  -2.2943606032657790e+01 4.5239355640037783e-03 0.0000000000000000e+00  -2.2944694334921483e+01 4.9250242044778939e-03 0.0000000000000000e+00  -2.2945418624085992e+01 5.0971984930764354e-03 0.0000000000000000e+00  -2.2934923376969447e+01 -5.4070960300788787e-03 0.0000000000000000e+00  -2.2901524826654118e+01 0.0000000000000000e+00 0.0000000000000000e+00  -2.6044605671262659e+01 0.0000000000000000e+00 0.0000000000000000e+00  -2.6048569184185563e+01 6.3320399861330383e-03 0.0000000000000000e+00  -2.6048201957258005e+01 6.0308421642427607e-03 0.0000000000000000e+00  -2.6046951968205587e+01 4.3142404576772646e-03 0.0000000000000000e+00  -2.6045619772777705e+01 2.8761449299522096e-03 0.0000000000000000e+00  -2.6044404177288786e+01 1.9717194153494443e-03 0.0000000000000000e+00  -2.6043401365027496e+01 1.5080929046049098e-03 0.0000000000000000e+00  -2.6042608943234434e+01 1.3345004733340158e-03 0.0000000000000000e+00  -2.6041978151387667e+01 1.3074391902937910e-03 0.0000000000000000e+00  -2.6041440543618350e+01 1.3359061055943863e-03 0.0000000000000000e+00  -2.6040946054243136e+01 1.3782997371690985e-03 0.0000000000000000e+00  -2.6040470945152759e+01 1.4205886199934424e-03 0.0000000000000000e+00  -2.6040004251543813e+01 1.4544263936812141e-03 0.0000000000000000e+00  -2.6039543021759858e+01 1.4914648039360935e-03 0.0000000000000000e+00  -2.6039105800528166e+01 1.5560425442929999e-03 0.0000000000000000e+00  -2.6038725024871997e+01 1.6625018572003086e-03 0.0000000000000000e+00  -2.6038425747446041e+01 1.8012192719328304e-03 0.0000000000000000e+00  -2.6038211125792802e+01 1.9481282759675320e-03 0.0000000000000000e+00  -2.6038065949991125e+01 2.0800556287716887e-03 0.0000000000000000e+00  -2.6037967864956148e+01 2.1843806308561664e-03 0.0000000000000000e+00  -2.6037896994602228e+01 2.2591413741388593e-03 0.0000000000000000e+00  -2.6037839781277430e+01 2.3092397513865136e-03 0.0000000000000000e+00  -2.6037789092525863e+01 2.3417118641581021e-03 0.0000000000000000e+00  -2.6037741906055707e+01 2.3626753229143587e-03 0.0000000000000000e+00  -2.6037697004360489e+01 2.3764234737978463e-03 0.0000000000000000e+00  -2.6037653997359307e+01 2.3859150744606266e-03 0.0000000000000000e+00  -2.6037613145535953e+01 2.3929391416472314e-03 0.0000000000000000e+00  -2.6037574673891974e+01 2.3981664069555597e-03 0.0000000000000000e+00  -2.6037538232224378e+01 2.4017777099565860e-03 0.0000000000000000e+00  -2.6037503392326713e+01 2.4043132756361566e-03 0.0000000000000000e+00  -2.6037470537103314e+01 2.4066992381605902e-03 0.0000000000000000e+00  -2.6037440766720472e+01 2.4095522080072223e-03 0.0000000000000000e+00  -2.6037414887820368e+01 2.4127789523377859e-03 0.0000000000000000e+00  -2.6037392766562206e+01 2.4160059008755913e-03 0.0000000000000000e+00  -2.6037373818244767e+01 2.4192757034154620e-03 0.0000000000000000e+00  -2.6037358009953280e+01 2.4232054727692915e-03 0.0000000000000000e+00  -2.6037346263398558e+01 2.4284710985487037e-03 0.0000000000000000e+00  -2.6037339857603882e+01 2.4351648060853288e-03 0.0000000000000000e+00  -2.6037339403053505e+01 2.4426027164918410e-03 0.0000000000000000e+00  -2.6037344236700008e+01 2.4496860449418900e-03 0.0000000000000000e+00  -2.6037352629339104e+01 2.4554803161727927e-03 0.0000000000000000e+00  -2.6037362553812049e+01 2.4595996405653285e-03 0.0000000000000000e+00  -2.6037372458319851e+01 2.4622148572948964e-03 0.0000000000000000e+00  -2.6037381625257673e+01 2.4637838991120047e-03 0.0000000000000000e+00  -2.6037390047949785e+01 2.4647354904406586e-03 0.0000000000000000e+00  -2.6037398038275999e+01 2.4652880956172974e-03 0.0000000000000000e+00  -2.6037405848336650e+01 2.4654507493676765e-03 0.0000000000000000e+00  -2.6037413483231838e+01 2.4651382154844519e-03 0.0000000000000000e+00  -2.6037420722663228e+01 2.4642979529488408e-03 0.0000000000000000e+00  -2.6037427260081603e+01 2.4629781409656647e-03 0.0000000000000000e+00  -2.6037432848461194e+01 2.4613227643343586e-03 0.0000000000000000e+00  -2.6037437380022386e+01 2.4595208309452538e-03 0.0000000000000000e+00  -2.6037440893105007e+01 2.4577487497727205e-03 0.0000000000000000e+00  -2.6037443519874412e+01 2.4561321801277684e-03 0.0000000000000000e+00  -2.6037445441450345e+01 2.4547366377958412e-03 0.0000000000000000e+00  -2.6037446810169502e+01 2.4535758762004203e-03 0.0000000000000000e+00  -2.6037447795992311e+01 2.4526363462774076e-03 0.0000000000000000e+00  -2.6037448432729441e+01 2.4518820064092428e-03 0.0000000000000000e+00  -2.6037448940597201e+01 2.4512978139187873e-03 0.0000000000000000e+00  -2.6037449084556318e+01 2.4508202697092504e-03 0.0000000000000000e+00  -2.6037449489891845e+01 2.4505116488669028e-03 0.0000000000000000e+00  -2.6037449094115317e+01 2.4501694325276741e-03 0.0000000000000000e+00  -2.6037449968388160e+01 2.4501770564333740e-03 0.0000000000000000e+00  -2.6037448559262010e+01 2.4497014614697282e-03 0.0000000000000000e+00  -2.6037450924715888e+01 2.4503637357406538e-03 0.0000000000000000e+00  -2.6037447540150616e+01 2.4490851277538216e-03 0.0000000000000000e+00  -2.6037452561403871e+01 2.4513611702439001e-03 0.0000000000000000e+00  -2.6037446532777398e+01 2.4481779982893979e-03 0.0000000000000000e+00  -2.6037453644090714e+01 2.4533210369923402e-03 0.0000000000000000e+00  -2.6037443713441441e+01 2.4483858495227976e-03 0.0000000000000000e+00  -2.6037446547862967e+01 2.4466698486003760e-03 0.0000000000000000e+00  -2.6037403610043754e+01 2.4142888708575650e-03 0.0000000000000000e+00  -2.6037394075932493e+01 2.2270707527039480e-03 0.0000000000000000e+00  -2.6037342421222565e+01 1.9361399690134536e-03 0.0000000000000000e+00  -2.6037920703806464e+01 1.7907842439686627e-03 0.0000000000000000e+00  -2.6037782563488616e+01 3.9597261489435712e-03 0.0000000000000000e+00  -2.6032926500301315e+01 3.3258892765322301e-03 0.0000000000000000e+00  -2.6018825483977668e+01 -9.9882377524195746e-04 0.0000000000000000e+00  -2.6010810376433074e+01 -2.3561943835349408e-04 0.0000000000000000e+00  -2.6013324686445024e+01 6.9779891845684243e-03 0.0000000000000000e+00  -2.6027815359230086e+01 0.0000000000000000e+00 0.0000000000000000e+00  -2.2635552363541454e+01 0.0000000000000000e+00 0.0000000000000000e+00  -2.2632580059699368e+01 2.6293346281342465e-03 0.0000000000000000e+00  -2.2628681131601368e+01 1.7299612524548252e-03 0.0000000000000000e+00  -2.2626143702145217e+01 3.8492807608036882e-04 0.0000000000000000e+00  -2.2625111493530103e+01 -6.1365957783581556e-04 0.0000000000000000e+00  -2.2625137290243007e+01 -1.1688845340119905e-03 0.0000000000000000e+00  -2.2625763668516402e+01 -1.3994698327423432e-03 0.0000000000000000e+00  -2.2626664331614148e+01 -1.4439362007303872e-03 0.0000000000000000e+00  -2.2627647727320380e+01 -1.4106893486617912e-03 0.0000000000000000e+00  -2.2628627869042194e+01 -1.3668881187280473e-03 0.0000000000000000e+00  -2.2629573395603675e+01 -1.3285702951910811e-03 0.0000000000000000e+00  -2.2630478040034323e+01 -1.2959488974088739e-03 0.0000000000000000e+00  -2.2631346141585716e+01 -1.2727460313078406e-03 0.0000000000000000e+00  -2.2632180001028445e+01 -1.2472124975424731e-03 0.0000000000000000e+00  -2.2632964565654149e+01 -1.1928319258411137e-03 0.0000000000000000e+00  -2.2633668328335116e+01 -1.0962985244270867e-03 0.0000000000000000e+00  -2.2634259398066622e+01 -9.6924956005736392e-04 0.0000000000000000e+00  -2.2634722436524729e+01 -8.3720460759620721e-04 0.0000000000000000e+00  -2.2635062913951018e+01 -7.2207575650467843e-04 0.0000000000000000e+00  -2.2635301171309170e+01 -6.3425466501427824e-04 0.0000000000000000e+00  -2.2635462511175604e+01 -5.7384006800161882e-04 0.0000000000000000e+00  -2.2635569785671773e+01 -5.3508182864036300e-04 0.0000000000000000e+00  -2.2635640695898811e+01 -5.1064250939875176e-04 0.0000000000000000e+00  -2.2635687913281323e+01 -4.9499471946267499e-04 0.0000000000000000e+00  -2.2635719618061600e+01 -4.8474285904123287e-04 0.0000000000000000e+00  -2.2635740933848869e+01 -4.7733997948627688e-04 0.0000000000000000e+00  -2.2635755749034061e+01 -4.7104050748771422e-04 0.0000000000000000e+00  -2.2635767314819404e+01 -4.6562355251256480e-04 0.0000000000000000e+00  -2.2635777729512508e+01 -4.6153636174998692e-04 0.0000000000000000e+00  -2.2635788037188295e+01 -4.5830881519440877e-04 0.0000000000000000e+00  -2.2635799141668429e+01 -4.5456727406919005e-04 0.0000000000000000e+00  -2.2635812194193061e+01 -4.4957818324027333e-04 0.0000000000000000e+00  -2.2635827885053640e+01 -4.4403521901566055e-04 0.0000000000000000e+00  -2.2635845676193721e+01 -4.3908013113412819e-04 0.0000000000000000e+00  -2.2635864015222580e+01 -4.3485134242900170e-04 0.0000000000000000e+00  -2.2635881321199122e+01 -4.3024477619976601e-04 0.0000000000000000e+00  -2.2635896731325211e+01 -4.2400830352538394e-04 0.00000000