<?xml version="1.0"?>
<VTKFile type="UnstructuredGrid"  version="0.1"  >
<UnstructuredGrid>
<Piece  NumberOfPoints="1369" NumberOfCells="2560">
<Points>
<DataArray  type="Float64"  NumberOfComponents="3"  format="ascii">0 0 0  0.75 0 0  1.5 0 0  2.25 0 0  3 0 0  3.75 0 0  4.5 0 0  5.25 0 0  6 0 0  6.75 0 0  7.5 0 0  8.25 0 0  9 0 0  9.75 0 0  10.5 0 0  11.25 0 0  12 0 0  12.75 0 0  13.5 0 0  14.25 0 0  15 0 0  15.75 0 0  16.5 0 0  17.25 0 0  18 0 0  18.75 0 0  19.5 0 0  20.25 0 0  21 0 0  21.75 0 0  22.5 0 0  23.25 0 0  24 0 0  24.75 0 0  25.5 0 0  26.25 0 0  27 0 0  27.75 0 0  28.5 0 0  29.25 0 0  30 0 0  30.75 0 0  31.5 0 0  32.25 0 0  33 0 0  33.75 0 0  34.5 0 0  35.25 0 0  36 0 0  36.75 0 0  37.5 0 0  38.25 0 0  39 0 0  39.75 0 0  40.5 0 0  41.25 0 0  42 0 0  42.75 0 0  43.5 0 0  44.25 0 0  45 0 0  45.75 0 0  46.5 0 0  47.25 0 0  48 0 0  48.75 0 0  49.5 0 0  50.25 0 0  51 0 0  51.75 0 0  52.5 0 0  53.25 0 0  54 0 0  54.75 0 0  55.5 0 0  56.25 0 0  57 0 0  57.75 0 0  58.5 0 0  59.25 0 0  60 0 0  0 0.5 0  0.75 0.5 0  1.5 0.5 0  2.25 0.5 0  3 0.5 0  3.75 0.5 0  4.5 0.5 0  5.25 0.5 0  6 0.5 0  6.75 0.5 0  7.5 0.5 0  8.25 0.5 0  9 0.5 0  9.75 0.5 0  10.5 0.5 0  11.25 0.5 0  12 0.5 0  12.75 0.5 0  13.5 0.5 0  14.25 0.5 0  15 0.5 0  15.75 0.5 0  16.5 0.5 0  17.25 0.5 0  18 0.5 0  18.75 0.5 0  19.5 0.5 0  20.25 0.5 0  21 0.5 0  21.75 0.5 0  22.5 0.5 0  23.25 0.5 0  24 0.5 0  24.75 0.5 0  25.5 0.5 0  26.25 0.5 0  27 0.5 0  27.75 0.5 0  28.5 0.5 0  29.25 0.5 0  30 0.5 0  30.75 0.5 0  31.5 0.5 0  32.25 0.5 0  33 0.5 0  33.75 0.5 0  34.5 0.5 0  35.25 0.5 0  36 0.5 0  36.75 0.5 0  37.5 0.5 0  38.25 0.5 0  39 0.5 0  39.75 0.5 0  40.5 0.5 0  41.25 0.5 0  42 0.5 0  42.75 0.5 0  43.5 0.5 0  44.25 0.5 0  45 0.5 0  45.75 0.5 0  46.5 0.5 0  47.25 0.5 0  48 0.5 0  48.75 0.5 0  49.5 0.5 0  50.25 0.5 0  51 0.5 0  51.75 0.5 0  52.5 0.5 0  53.25 0.5 0  54 0.5 0  54.75 0.5 0  55.5 0.5 0  56.25 0.5 0  57 0.5 0  57.75 0.5 0  58.5 0.5 0  59.25 0.5 0  60 0.5 0  0 1 0  0.75 1 0  1.5 1 0  2.25 1 0  3 1 0  3.75 1 0  4.5 1 0  5.25 1 0  6 1 0  6.75 1 0  7.5 1 0  8.25 1 0  9 1 0  9.75 1 0  10.5 1 0  11.25 1 0  12 1 0  12.75 1 0  13.5 1 0  14.25 1 0  15 1 0  15.75 1 0  16.5 1 0  17.25 1 0  18 1 0  18.75 1 0  19.5 1 0  20.25 1 0  21 1 0  21.75 1 0  22.5 1 0  23.25 1 0  24 1 0  24.75 1 0  25.5 1 0  26.25 1 0  27 1 0  27.75 1 0  28.5 1 0  29.25 1 0  30 1 0  30.75 1 0  31.5 1 0  32.25 1 0  33 1 0  33.75 1 0  34.5 1 0  35.25 1 0  36 1 0  36.75 1 0  37.5 1 0  38.25 1 0  39 1 0  39.75 1 0  40.5 1 0  41.25 1 0  42 1 0  42.75 1 0  43.5 1 0  44.25 1 0  45 1 0  45.75 1 0  46.5 1 0  47.25 1 0  48 1 0  48.75 1 0  49.5 1 0  50.25 1 0  51 1 0  51.75 1 0  52.5 1 0  53.25 1 0  54 1 0  54.75 1 0  55.5 1 0  56.25 1 0  57 1 0  57.75 1 0  58.5 1 0  59.25 1 0  60 1 0  0 1.5 0  0.75 1.5 0  1.5 1.5 0  2.25 1.5 0  3 1.5 0  3.75 1.5 0  4.5 1.5 0  5.25 1.5 0  6 1.5 0  6.75 1.5 0  7.5 1.5 0  8.25 1.5 0  9 1.5 0  9.75 1.5 0  10.5 1.5 0  11.25 1.5 0  12 1.5 0  12.75 1.5 0  13.5 1.5 0  14.25 1.5 0  15 1.5 0  15.75 1.5 0  16.5 1.5 0  17.25 1.5 0  18 1.5 0  18.75 1.5 0  19.5 1.5 0  20.25 1.5 0  21 1.5 0  21.75 1.5 0  22.5 1.5 0  23.25 1.5 0  24 1.5 0  24.75 1.5 0  25.5 1.5 0  26.25 1.5 0  27 1.5 0  27.75 1.5 0  28.5 1.5 0  29.25 1.5 0  30 1.5 0  30.75 1.5 0  31.5 1.5 0  32.25 1.5 0  33 1.5 0  33.75 1.5 0  34.5 1.5 0  35.25 1.5 0  36 1.5 0  36.75 1.5 0  37.5 1.5 0  38.25 1.5 0  39 1.5 0  39.75 1.5 0  40.5 1.5 0  41.25 1.5 0  42 1.5 0  42.75 1.5 0  43.5 1.5 0  44.25 1.5 0  45 1.5 0  45.75 1.5 0  46.5 1.5 0  47.25 1.5 0  48 1.5 0  48.75 1.5 0  49.5 1.5 0  50.25 1.5 0  51 1.5 0  51.75 1.5 0  52.5 1.5 0  53.25 1.5 0  54 1.5 0  54.75 1.5 0  55.5 1.5 0  56.25 1.5 0  57 1.5 0  57.75 1.5 0  58.5 1.5 0  59.25 1.5 0  60 1.5 0  0 2 0  0.75 2 0  1.5 2 0  2.25 2 0  3 2 0  3.75 2 0  4.5 2 0  5.25 2 0  6 2 0  6.75 2 0  7.5 2 0  8.25 2 0  9 2 0  9.75 2 0  10.5 2 0  11.25 2 0  12 2 0  12.75 2 0  13.5 2 0  14.25 2 0  15 2 0  15.75 2 0  16.5 2 0  17.25 2 0  18 2 0  18.75 2 0  19.5 2 0  20.25 2 0  21 2 0  21.75 2 0  22.5 2 0  23.25 2 0  24 2 0  24.75 2 0  25.5 2 0  26.25 2 0  27 2 0  27.75 2 0  28.5 2 0  29.25 2 0  30 2 0  30.75 2 0  31.5 2 0  32.25 2 0  33 2 0  33.75 2 0  34.5 2 0  35.25 2 0  36 2 0  36.75 2 0  37.5 2 0  38.25 2 0  39 2 0  39.75 2 0  40.5 2 0  41.25 2 0  42 2 0  42.75 2 0  43.5 2 0  44.25 2 0  45 2 0  45.75 2 0  46.5 2 0  47.25 2 0  48 2 0  48.75 2 0  49.5 2 0  50.25 2 0  51 2 0  51.75 2 0  52.5 2 0  53.25 2 0  54 2 0  54.75 2 0  55.5 2 0  56.25 2 0  57 2 0  57.75 2 0  58.5 2 0  59.25 2 0  60 2 0  0 2.5 0  0.75 2.5 0  1.5 2.5 0  2.25 2.5 0  3 2.5 0  3.75 2.5 0  4.5 2.5 0  5.25 2.5 0  6 2.5 0  6.75 2.5 0  7.5 2.5 0  8.25 2.5 0  9 2.5 0  9.75 2.5 0  10.5 2.5 0  11.25 2.5 0  12 2.5 0  12.75 2.5 0  13.5 2.5 0  14.25 2.5 0  15 2.5 0  15.75 2.5 0  16.5 2.5 0  17.25 2.5 0  18 2.5 0  18.75 2.5 0  19.5 2.5 0  20.25 2.5 0  21 2.5 0  21.75 2.5 0  22.5 2.5 0  23.25 2.5 0  24 2.5 0  24.75 2.5 0  25.5 2.5 0  26.25 2.5 0  27 2.5 0  27.75 2.5 0  28.5 2.5 0  29.25 2.5 0  30 2.5 0  30.75 2.5 0  31.5 2.5 0  32.25 2.5 0  33 2.5 0  33.75 2.5 0  34.5 2.5 0  35.25 2.5 0  36 2.5 0  36.75 2.5 0  37.5 2.5 0  38.25 2.5 0  39 2.5 0  39.75 2.5 0  40.5 2.5 0  41.25 2.5 0  42 2.5 0  42.75 2.5 0  43.5 2.5 0  44.25 2.5 0  45 2.5 0  45.75 2.5 0  46.5 2.5 0  47.25 2.5 0  48 2.5 0  48.75 2.5 0  49.5 2.5 0  50.25 2.5 0  51 2.5 0  51.75 2.5 0  52.5 2.5 0  53.25 2.5 0  54 2.5 0  54.75 2.5 0  55.5 2.5 0  56.25 2.5 0  57 2.5 0  57.75 2.5 0  58.5 2.5 0  59.25 2.5 0  60 2.5 0  0 3 0  0.75 3 0  1.5 3 0  2.25 3 0  3 3 0  3.75 3 0  4.5 3 0  5.25 3 0  6 3 0  6.75 3 0  7.5 3 0  8.25 3 0  9 3 0  9.75 3 0  10.5 3 0  11.25 3 0  12 3 0  12.75 3 0  13.5 3 0  14.25 3 0  15 3 0  15.75 3 0  16.5 3 0  17.25 3 0  18 3 0  18.75 3 0  19.5 3 0  20.25 3 0  21 3 0  21.75 3 0  22.5 3 0  23.25 3 0  24 3 0  24.75 3 0  25.5 3 0  26.25 3 0  27 3 0  27.75 3 0  28.5 3 0  29.25 3 0  30 3 0  30.75 3 0  31.5 3 0  32.25 3 0  33 3 0  33.75 3 0  34.5 3 0  35.25 3 0  36 3 0  36.75 3 0  37.5 3 0  38.25 3 0  39 3 0  39.75 3 0  40.5 3 0  41.25 3 0  42 3 0  42.75 3 0  43.5 3 0  44.25 3 0  45 3 0  45.75 3 0  46.5 3 0  47.25 3 0  48 3 0  48.75 3 0  49.5 3 0  50.25 3 0  51 3 0  51.75 3 0  52.5 3 0  53.25 3 0  54 3 0  54.75 3 0  55.5 3 0  56.25 3 0  57 3 0  57.75 3 0  58.5 3 0  59.25 3 0  60 3 0  0 3.5 0  0.75 3.5 0  1.5 3.5 0  2.25 3.5 0  3 3.5 0  3.75 3.5 0  4.5 3.5 0  5.25 3.5 0  6 3.5 0  6.75 3.5 0  7.5 3.5 0  8.25 3.5 0  9 3.5 0  9.75 3.5 0  10.5 3.5 0  11.25 3.5 0  12 3.5 0  12.75 3.5 0  13.5 3.5 0  14.25 3.5 0  15 3.5 0  15.75 3.5 0  16.5 3.5 0  17.25 3.5 0  18 3.5 0  18.75 3.5 0  19.5 3.5 0  20.25 3.5 0  21 3.5 0  21.75 3.5 0  22.5 3.5 0  23.25 3.5 0  24 3.5 0  24.75 3.5 0  25.5 3.5 0  26.25 3.5 0  27 3.5 0  27.75 3.5 0  28.5 3.5 0  29.25 3.5 0  30 3.5 0  30.75 3.5 0  31.5 3.5 0  32.25 3.5 0  33 3.5 0  33.75 3.5 0  34.5 3.5 0  35.25 3.5 0  36 3.5 0  36.75 3.5 0  37.5 3.5 0  38.25 3.5 0  39 3.5 0  39.75 3.5 0  40.5 3.5 0  41.25 3.5 0  42 3.5 0  42.75 3.5 0  43.5 3.5 0  44.25 3.5 0  45 3.5 0  45.75 3.5 0  46.5 3.5 0  47.25 3.5 0  48 3.5 0  48.75 3.5 0  49.5 3.5 0  50.25 3.5 0  51 3.5 0  51.75 3.5 0  52.5 3.5 0  53.25 3.5 0  54 3.5 0  54.75 3.5 0  55.5 3.5 0  56.25 3.5 0  57 3.5 0  57.75 3.5 0  58.5 3.5 0  59.25 3.5 0  60 3.5 0  0 4 0  0.75 4 0  1.5 4 0  2.25 4 0  3 4 0  3.75 4 0  4.5 4 0  5.25 4 0  6 4 0  6.75 4 0  7.5 4 0  8.25 4 0  9 4 0  9.75 4 0  10.5 4 0  11.25 4 0  12 4 0  12.75 4 0  13.5 4 0  14.25 4 0  15 4 0  15.75 4 0  16.5 4 0  17.25 4 0  18 4 0  18.75 4 0  19.5 4 0  20.25 4 0  21 4 0  21.75 4 0  22.5 4 0  23.25 4 0  24 4 0  24.75 4 0  25.5 4 0  26.25 4 0  27 4 0  27.75 4 0  28.5 4 0  29.25 4 0  30 4 0  30.75 4 0  31.5 4 0  32.25 4 0  33 4 0  33.75 4 0  34.5 4 0  35.25 4 0  36 4 0  36.75 4 0  37.5 4 0  38.25 4 0  39 4 0  39.75 4 0  40.5 4 0  41.25 4 0  42 4 0  42.75 4 0  43.5 4 0  44.25 4 0  45 4 0  45.75 4 0  46.5 4 0  47.25 4 0  48 4 0  48.75 4 0  49.5 4 0  50.25 4 0  51 4 0  51.75 4 0  52.5 4 0  53.25 4 0  54 4 0  54.75 4 0  55.5 4 0  56.25 4 0  57 4 0  57.75 4 0  58.5 4 0  59.25 4 0  60 4 0  0.375 0.25 0  1.125 0.25 0  1.875 0.25 0  2.625 0.25 0  3.375 0.25 0  4.125 0.25 0  4.875 0.25 0  5.625 0.25 0  6.375 0.25 0  7.125 0.25 0  7.875 0.25 0  8.625 0.25 0  9.375 0.25 0  10.125 0.25 0  10.875 0.25 0  11.625 0.25 0  12.375 0.25 0  13.125 0.25 0  13.875 0.25 0  14.625 0.25 0  15.375 0.25 0  16.125 0.25 0  16.875 0.25 0  17.625 0.25 0  18.375 0.25 0  19.125 0.25 0  19.875 0.25 0  20.625 0.25 0  21.375 0.25 0  22.125 0.25 0  22.875 0.25 0  23.625 0.25 0  24.375 0.25 0  25.125 0.25 0  25.875 0.25 0  26.625 0.25 0  27.375 0.25 0  28.125 0.25 0  28.875 0.25 0  29.625 0.25 0  30.375 0.25 0  31.125 0.25 0  31.875 0.25 0  32.625 0.25 0  33.375 0.25 0  34.125 0.25 0  34.875 0.25 0  35.625 0.25 0  36.375 0.25 0  37.125 0.25 0  37.875 0.25 0  38.625 0.25 0  39.375 0.25 0  40.125 0.25 0  40.875 0.25 0  41.625 0.25 0  42.375 0.25 0  43.125 0.25 0  43.875 0.25 0  44.625 0.25 0  45.375 0.25 0  46.125 0.25 0  46.875 0.25 0  47.625 0.25 0  48.375 0.25 0  49.125 0.25 0  49.875 0.25 0  50.625 0.25 0  51.375 0.25 0  52.125 0.25 0  52.875 0.25 0  53.625 0.25 0  54.375 0.25 0  55.125 0.25 0  55.875 0.25 0  56.625 0.25 0  57.375 0.25 0  58.125 0.25 0  58.875 0.25 0  59.625 0.25 0  0.375 0.75 0  1.125 0.75 0  1.875 0.75 0  2.625 0.75 0  3.375 0.75 0  4.125 0.75 0  4.875 0.75 0  5.625 0.75 0  6.375 0.75 0  7.125 0.75 0  7.875 0.75 0  8.625 0.75 0  9.375 0.75 0  10.125 0.75 0  10.875 0.75 0  11.625 0.75 0  12.375 0.75 0  13.125 0.75 0  13.875 0.75 0  14.625 0.75 0  15.375 0.75 0  16.125 0.75 0  16.875 0.75 0  17.625 0.75 0  18.375 0.75 0  19.125 0.75 0  19.875 0.75 0  20.625 0.75 0  21.375 0.75 0  22.125 0.75 0  22.875 0.75 0  23.625 0.75 0  24.375 0.75 0  25.125 0.75 0  25.875 0.75 0  26.625 0.75 0  27.375 0.75 0  28.125 0.75 0  28.875 0.75 0  29.625 0.75 0  30.375 0.75 0  31.125 0.75 0  31.875 0.75 0  32.625 0.75 0  33.375 0.75 0  34.125 0.75 0  34.875 0.75 0  35.625 0.75 0  36.375 0.75 0  37.125 0.75 0  37.875 0.75 0  38.625 0.75 0  39.375 0.75 0  40.125 0.75 0  40
[...]
<PointData  Vectors="f_8-0"> 
<DataArray  type="Float64"  Name="f_8-0"  NumberOfComponents="3" format="ascii">0.0000000000000000e+00 0.0000000000000000e+00 0.0000000000000000e+00  0.0000000000000000e+00 0.0000000000000000e+00 0.0000000000000000e+00  0.0000000000000000e+00 0.0000000000000000e+00 0.0000000000000000e+00  0.0000000000000000e+00 0.0000000000000000e+00 0.0000000000000000e+00  0.0000000000000000e+00 0.0000000000000000e+00 0.0000000000000000e+00  0.0000000000000000e+00 0.0000000000000000e+00 0.0000000000000000e+00  0.0000000000000000e+00 0.0000000000000000e+00 0.0000000000000000e+00  0.0000000000000000e+00 0.0000000000000000e+00 0.0000000000000000e+00  0.0000000000000000e+00 0.0000000000000000e+00 0.0000000000000000e+00  0.0000000000000000e+00 0.0000000000000000e+00 0.0000000000000000e+00  0.0000000000000000e+00 0.0000000000000000e+00 0.0000000000000000e+00  0.0000000000000000e+00 0.0000000000000000e+00 0.0000000000000000e+00  0.0000000000000000e+00 0.0000000000000000e+00 0.0000000000000000e+00  0.0000000000000000e+00 0.0000000000000000e+00 0.0000000000000000e+00  0.0000000000000000e+00 0.0000000000000000e+00 0.0000000000000000e+00  0.0000000000000000e+00 0.0000000000000000e+00 0.0000000000000000e+00  0.0000000000000000e+00 0.0000000000000000e+00 0.0000000000000000e+00  0.0000000000000000e+00 0.0000000000000000e+00 0.0000000000000000e+00  0.0000000000000000e+00 0.0000000000000000e+00 0.0000000000000000e+00  0.0000000000000000e+00 0.0000000000000000e+00 0.0000000000000000e+00  0.0000000000000000e+00 0.0000000000000000e+00 0.0000000000000000e+00  0.0000000000000000e+00 0.0000000000000000e+00 0.0000000000000000e+00  0.0000000000000000e+00 0.0000000000000000e+00 0.0000000000000000e+00  0.0000000000000000e+00 0.0000000000000000e+00 0.0000000000000000e+00  0.0000000000000000e+00 0.0000000000000000e+00 0.0000000000000000e+00  0.0000000000000000e+00 0.0000000000000000e+00 0.0000000000000000e+00  0.0000000000000000e+00 0.0000000000000000e+00 0.0000000000000000e+00  0.0000000000000000e+00 0.0000000000000000e+00 0.0000000000000000e+00  0.0000000000000000e+00 0.0000000000000000e+00 0.0000000000000000e+00  0.0000000000000000e+00 0.0000000000000000e+00 0.0000000000000000e+00  0.0000000000000000e+00 0.0000000000000000e+00 0.0000000000000000e+00  0.0000000000000000e+00 0.0000000000000000e+00 0.0000000000000000e+00  0.0000000000000000e+00 0.0000000000000000e+00 0.0000000000000000e+00  0.0000000000000000e+00 0.0000000000000000e+00 0.0000000000000000e+00  0.0000000000000000e+00 0.0000000000000000e+00 0.0000000000000000e+00  0.0000000000000000e+00 0.0000000000000000e+00 0.0000000000000000e+00  0.0000000000000000e+00 0.0000000000000000e+00 0.0000000000000000e+00  0.0000000000000000e+00 0.0000000000000000e+00 0.0000000000000000e+00  0.0000000000000000e+00 0.0000000000000000e+00 0.0000000000000000e+00  0.0000000000000000e+00 0.0000000000000000e+00 0.0000000000000000e+00  0.0000000000000000e+00 0.0000000000000000e+00 0.0000000000000000e+00  0.0000000000000000e+00 0.0000000000000000e+00 0.0000000000000000e+00  0.0000000000000000e+00 0.0000000000000000e+00 0.0000000000000000e+00  0.0000000000000000e+00 0.0000000000000000e+00 0.0000000000000000e+00  0.0000000000000000e+00 0.0000000000000000e+00 0.0000000000000000e+00  0.0000000000000000e+00 0.0000000000000000e+00 0.0000000000000000e+00  0.0000000000000000e+00 0.0000000000000000e+00 0.0000000000000000e+00  0.0000000000000000e+00 0.0000000000000000e+00 0.0000000000000000e+00  0.0000000000000000e+00 0.0000000000000000e+00 0.0000000000000000e+00  0.0000000000000000e+00 0.0000000000000000e+00 0.0000000000000000e+00  0.0000000000000000e+00 0.0000000000000000e+00 0.0000000000000000e+00  0.0000000000000000e+00 0.0000000000000000e+00 0.0000000000000000e+00  0.0000000000000000e+00 0.0000000000000000e+00 0.0000000000000000e+00  0.0000000000000000e+00 0.0000000000000000e+00 0.0000000000000000e+00  0.0000000000000000e+00 0.0000000000000000e+00 0.0000000000000000e+00  0.0000000000000000e+00 0.0000000000000000e+00 0.0000000000000000e+00  0.0000000000000000e+00 0.0000000000000000e+00 0.0000000000000000e+00  0.0000000000000000e+00 0.0000000000000000e+00 0.0000000000000000e+00  0.0000000000000000e+00 0.0000000000000000e+00 0.0000000000000000e+00  0.0000000000000000e+00 0.0000000000000000e+00 0.0000000000000000e+00  0.0000000000000000e+00 0.0000000000000000e+00 0.0000000000000000e+00  0.0000000000000000e+00 0.0000000000000000e+00 0.0000000000000000e+00  0.0000000000000000e+00 0.0000000000000000e+00 0.0000000000000000e+00  0.0000000000000000e+00 0.0000000000000000e+00 0.0000000000000000e+00  0.0000000000000000e+00 0.0000000000000000e+00 0.0000000000000000e+00  0.0000000000000000e+00 0.0000000000000000e+00 0.0000000000000000e+00  0.0000000000000000e+00 0.0000000000000000e+00 0.0000000000000000e+00  0.0000000000000000e+00 0.0000000000000000e+00 0.0000000000000000e+00  0.0000000000000000e+00 0.0000000000000000e+00 0.0000000000000000e+00  0.0000000000000000e+00 0.0000000000000000e+00 0.0000000000000000e+00  0.0000000000000000e+00 0.0000000000000000e+00 0.0000000000000000e+00  0.0000000000000000e+00 0.0000000000000000e+00 0.0000000000000000e+00  0.0000000000000000e+00 0.0000000000000000e+00 0.0000000000000000e+00  0.0000000000000000e+00 0.0000000000000000e+00 0.0000000000000000e+00  0.0000000000000000e+00 0.0000000000000000e+00 0.0000000000000000e+00  0.0000000000000000e+00 0.0000000000000000e+00 0.0000000000000000e+00  0.0000000000000000e+00 0.0000000000000000e+00 0.0000000000000000e+00  0.0000000000000000e+00 0.0000000000000000e+00 0.0000000000000000e+00  0.0000000000000000e+00 0.0000000000000000e+00 0.0000000000000000e+00  0.0000000000000000e+00 0.0000000000000000e+00 0.0000000000000000e+00  0.0000000000000000e+00 0.0000000000000000e+00 0.0000000000000000e+00  -2.7994368040038491e+01 0.0000000000000000e+00 0.0000000000000000e+00  -2.7995723417540432e+01 1.2422313961646693e-03 0.0000000000000000e+00  -2.7997323359010277e+01 1.7515186736614971e-03 0.0000000000000000e+00  -2.7998492951134491e+01 1.4714634831085483e-03 0.0000000000000000e+00  -2.7998684047573576e+01 1.1386788204496105e-03 0.0000000000000000e+00  -2.7998250762070992e+01 9.0978261232617635e-04 0.0000000000000000e+00  -2.7997450197373528e+01 7.6807894734414828e-04 0.0000000000000000e+00  -2.7996488703121148e+01 7.1365777054527746e-04 0.0000000000000000e+00  -2.7995582535397947e+01 7.4800170846507988e-04 0.0000000000000000e+00  -2.7994881991664567e+01 8.3406523966649297e-04 0.0000000000000000e+00  -2.7994417450755549e+01 9.2504563730773360e-04 0.0000000000000000e+00  -2.7994142322713099e+01 9.9580919485229495e-04 0.0000000000000000e+00  -2.7993992276482651e+01 1.0418415858816053e-03 0.0000000000000000e+00  -2.7993915219462746e+01 1.0685090484834046e-03 0.0000000000000000e+00  -2.7993877240773251e+01 1.0827286181116127e-03 0.0000000000000000e+00  -2.7993858972850003e+01 1.0899231066366154e-03 0.0000000000000000e+00  -2.7993850262349458e+01 1.0934295409199455e-03 0.0000000000000000e+00  -2.7993846090731815e+01 1.0951140868057886e-03 0.0000000000000000e+00  -2.7993844055565031e+01 1.0959118989060149e-03 0.0000000000000000e+00  -2.7993843028439343e+01 1.0962933168338208e-03 0.0000000000000000e+00  -2.7993842479140891e+01 1.0964739439150164e-03 0.0000000000000000e+00  -2.7993842158872301e+01 1.0965617859940008e-03 0.0000000000000000e+00  -2.7993841949031069e+01 1.0966036549075844e-03 0.0000000000000000e+00  -2.7993841793107180e+01 1.0966245582405597e-03 0.0000000000000000e+00  -2.7993841663488993e+01 1.0966344743556548e-03 0.0000000000000000e+00  -2.7993841546855919e+01 1.0966395779085307e-03 0.0000000000000000e+00  -2.7993841436540897e+01 1.0966419133414326e-03 0.0000000000000000e+00  -2.7993841329335606e+01 1.0966431587227557e-03 0.0000000000000000e+00  -2.7993841223605166e+01 1.0966436733400560e-03 0.0000000000000000e+00  -2.7993841118580274e+01 1.0966439589707735e-03 0.0000000000000000e+00  -2.7993841013871279e+01 1.0966440456635406e-03 0.0000000000000000e+00  -2.7993840909301348e+01 1.0966440921005760e-03 0.0000000000000000e+00  -2.7993840804782877e+01 1.0966440848585201e-03 0.0000000000000000e+00  -2.7993840700280668e+01 1.0966440746997437e-03 0.0000000000000000e+00  -2.7993840595779609e+01 1.0966440499935992e-03 0.0000000000000000e+00  -2.7993840491272664e+01 1.0966440268756609e-03 0.0000000000000000e+00  -2.7993840386759722e+01 1.0966440007793997e-03 0.0000000000000000e+00  -2.7993840282242491e+01 1.0966439757366744e-03 0.0000000000000000e+00  -2.7993840177721047e+01 1.0966439499171549e-03 0.0000000000000000e+00  -2.7993840073199014e+01 1.0966439260599050e-03 0.0000000000000000e+00  -2.7993839968675132e+01 1.0966439022881275e-03 0.0000000000000000e+00  -2.7993839864156222e+01 1.0966438778687428e-03 0.0000000000000000e+00  -2.7993839759634810e+01 1.0966438562018117e-03 0.0000000000000000e+00  -2.7993839655131545e+01 1.0966438305804762e-03 0.0000000000000000e+00  -2.7993839550614492e+01 1.0966438186507329e-03 0.0000000000000000e+00  -2.7993839446163218e+01 1.0966437807601122e-03 0.0000000000000000e+00  -2.7993839341624394e+01 1.0966438032279063e-03 0.0000000000000000e+00  -2.7993839237349782e+01 1.0966437082992266e-03 0.0000000000000000e+00  -2.7993839132638382e+01 1.0966438710236989e-03 0.0000000000000000e+00  -2.7993839029001307e+01 1.0966435174838418e-03 0.0000000000000000e+00  -2.7993838923376856e+01 1.0966442513871237e-03 0.0000000000000000e+00  -2.7993838822169970e+01 1.0966427970251580e-03 0.0000000000000000e+00  -2.7993838712407552e+01 1.0966458208031785e-03 0.0000000000000000e+00  -2.7993838620560414e+01 1.0966399058793905e-03 0.0000000000000000e+00  -2.7993838493598286e+01 1.0966518350351000e-03 0.0000000000000000e+00  -2.7993838437128666e+01 1.0966286747622488e-03 0.0000000000000000e+00  -2.7993838243371592e+01 1.0966738177458119e-03 0.0000000000000000e+00  -2.7993838315173154e+01 1.0965873771072534e-03 0.0000000000000000e+00  -2.7993837879315198e+01 1.0967501161788951e-03 0.0000000000000000e+00  -2.7993838387857075e+01 1.0964445740098956e-03 0.0000000000000000e+00  -2.7993837141142478e+01 1.0969994757659299e-03 0.0000000000000000e+00  -2.7993839015364276e+01 1.0959809920408359e-03 0.0000000000000000e+00  -2.7993835297444708e+01 1.0977653402832936e-03 0.0000000000000000e+00  -2.7993841001479044e+01 1.0945587557495892e-03 0.0000000000000000e+00  -2.7993830537271048e+01 1.1000132656021515e-03 0.0000000000000000e+00  -2.7993845710063137e+01 1.0903674183639421e-03 0.0000000000000000e+00  -2.7993818785323089e+01 1.1066129304035885e-03 0.0000000000000000e+00  -2.7993854873290978e+01 1.0783495773168082e-03 0.0000000000000000e+00  -2.7993789781016289e+01 1.1263394987942395e-03 0.0000000000000000e+00  -2.7993864646234570e+01 1.0425582119710647e-03 0.0000000000000000e+00  -2.7993684652011538e+01 1.1674265888216033e-03 0.0000000000000000e+00  -2.7993708129870399e+01 8.7475115253118603e-04 0.0000000000000000e+00  -2.7992952569857721e+01 1.0308063076048517e-03 0.0000000000000000e+00  -2.7992032480428527e+01 2.6795992385586349e-05 0.0000000000000000e+00  -2.7990365583833160e+01 8.0429438273760679e-04 0.0000000000000000e+00  -2.7989776807697414e+01 1.1144408534022592e-03 0.0000000000000000e+00  -2.7991393725466441e+01 5.9478237230738704e-03 0.0000000000000000e+00  -2.7987831403022014e+01 6.9010812076254324e-03 0.0000000000000000e+00  -2.7989909751251730e+01 1.3710437111597234e-02 0.0000000000000000e+00  -2.7974008021165332e+01 1.4046902311116096e-02 0.0000000000000000e+00  -2.7961399537036140e+01 0.0000000000000000e+00 0.0000000000000000e+00  -3.3501044508757218e+01 0.0000000000000000e+00 0.0000000000000000e+00  -3.3500328064815839e+01 4.4236315240554032e-03 0.0000000000000000e+00  -3.3499030642574212e+01 3.8414510888753789e-03 0.0000000000000000e+00  -3.3498076483670545e+01 2.8860635451277224e-03 0.0000000000000000e+00  -3.3497324076993216e+01 2.2128483013190577e-03 0.0000000000000000e+00  -3.3496648476273307e+01 1.8084636164317689e-03 0.0000000000000000e+00  -3.3496008258949182e+01 1.5784848883911662e-03 0.0000000000000000e+00  -3.3495428729343821e+01 1.5601399971194839e-03 0.0000000000000000e+00  -3.3495022769596915e+01 1.7461143650929591e-03 0.0000000000000000e+00  -3.3494829059694560e+01 1.9993215012270660e-03 0.0000000000000000e+00  -3.3494773750178453e+01 2.2086063200517161e-03 0.0000000000000000e+00  -3.3494773853565427e+01 2.3473383547437839e-03 0.0000000000000000e+00  -3.3494785944796881e+01 2.4281325235995526e-03 0.0000000000000000e+00  -3.3494795801289641e+01 2.4716027228034987e-03 0.0000000000000000e+00  -3.3494801476088092e+01 2.4936668781061792e-03 0.0000000000000000e+00  -3.3494804206968148e+01 2.5045810675316804e-03 0.0000000000000000e+00  -3.3494805380768788e+01 2.5098505113835302e-03 0.0000000000000000e+00  -3.3494805826336822e+01 2.5124027040780315e-03 0.0000000000000000e+00  -3.3494805961141715e+01 2.5136150692731383e-03 0.0000000000000000e+00  -3.3494805959941417e+01 2.5142038301396814e-03 0.0000000000000000e+00  -3.3494805900763993e+01 2.5144813612883181e-03 0.0000000000000000e+00  -3.3494805813270695e+01 2.5146186039581389e-03 0.0000000000000000e+00  -3.3494805712633685e+01 2.5146827568164145e-03 0.0000000000000000e+00  -3.3494805604467302e+01 2.5147154712659350e-03 0.0000000000000000e+00  -3.3494805492515582e+01 2.5147303454261575e-03 0.0000000000000000e+00  -3.3494805378084486e+01 2.5147382460735807e-03 0.0000000000000000e+00  -3.3494805262332505e+01 2.5147415730191833e-03 0.0000000000000000e+00  -3.3494805145647909e+01 2.5147434459326977e-03 0.0000000000000000e+00  -3.3494805028436645e+01 2.5147440989377596e-03 0.0000000000000000e+00  -3.3494804910847314e+01 2.5147445018132005e-03 0.0000000000000000e+00  -3.3494804793033509e+01 2.5147445805588716e-03 0.0000000000000000e+00  -3.3494804675061069e+01 2.5147446379989035e-03 0.0000000000000000e+00  -3.3494804556985159e+01 2.5147446137928488e-03 0.0000000000000000e+00  -3.3494804438841435e+01 2.5147445979346161e-03 0.0000000000000000e+00  -3.3494804320651660e+01 2.5147445685362551e-03 0.0000000000000000e+00  -3.3494804202431922e+01 2.5147445421023662e-03 0.0000000000000000e+00  -3.3494804084190491e+01 2.5147445170059157e-03 0.0000000000000000e+00  -3.3494803965938033e+01 2.5147444953416381e-03 0.0000000000000000e+00  -3.3494803847675904e+01 2.5147444764769796e-03 0.0000000000000000e+00  -3.3494803729410961e+01 2.5147444591928753e-03 0.0000000000000000e+00  -3.3494803611147113e+01 2.5147444457071944e-03 0.0000000000000000e+00  -3.3494803492883293e+01 2.5147444324892928e-03 0.0000000000000000e+00  -3.3494803374637094e+01 2.5147444224532813e-03 0.0000000000000000e+00  -3.3494803256379093e+01 2.5147444201999596e-03 0.0000000000000000e+00  -3.3494803138190463e+01 2.5147444133433593e-03 0.0000000000000000e+00  -3.3494803019923374e+01 2.5147444349421320e-03 0.0000000000000000e+00  -3.3494802901925489e+01 2.5147444279456977e-03 0.0000000000000000e+00  -3.3494802783519930e+01 2.5147445194456950e-03 0.0000000000000000e+00  -3.3494802666177428e+01 2.5147444655805188e-03 0.0000000000000000e+00  -3.3494802546968607e+01 2.5147447828355856e-03 0.0000000000000000e+00  -3.3494802432016741e+01 2.5147444691058728e-03 0.0000000000000000e+00  -3.3494802309108614e+01 2.5147455466730246e-03 0.0000000000000000e+00  -3.3494802203019717e+01 2.5147440998474460e-03 0.0000000000000000e+00  -3.3494802064848592e+01 2.5147477310898708e-03 0.0000000000000000e+00  -3.3494801991083627e+01 2.5147419672888116e-03 0.0000000000000000e+00  -3.3494801794885980e+01 2.5147537996271759e-03 0.0000000000000000e+00  -3.3494801833974243e+01 2.5147332098996314e-03 0.0000000000000000e+00  -3.3494801434066886e+01 2.5147693509935372e-03 0.0000000000000000e+00  -3.3494801841084723e+01 2.5147027496524367e-03 0.0000000000000000e+00  -3.3494800788012284e+01 2.5148026726214633e-03 0.0000000000000000e+00  -3.3494802284652749e+01 2.5146069895817689e-03 0.0000000000000000e+00  -3.3494799355757884e+01 2.5148486321510555e-03 0.0000000000000000e+00  -3.3494803685399233e+01 2.5143159871203755e-03 0.0000000000000000e+00  -3.3494796042117081e+01 2.5148251332603815e-03 0.0000000000000000e+00  -3.3494806573249882e+01 2.5133787298796946e-03 0.0000000000000000e+00  -3.3494788626910207e+01 2.5144822842852114e-03 0.0000000000000000e+00  -3.3494810109904130e+01 2.5099875104439440e-03 0.0000000000000000e+00  -3.3494770642888497e+01 2.5132866861587943e-03 0.0000000000000000e+00  -3.3494806538783244e+01 2.4949612797231921e-03 0.0000000000000000e+00  -3.3494708517598028e+01 2.4988398929176175e-03 0.0000000000000000e+00  -3.3494742147766836e+01 2.3900025166282198e-03 0.0000000000000000e+00  -3.3494434653508506e+01 2.2822700884138607e-03 0.0000000000000000e+00  -3.3494384005869343e+01 1.6665567430939345e-03 0.0000000000000000e+00  -3.3493544267670877e+01 1.1632512550818280e-03 0.0000000000000000e+00  -3.3492775495474930e+01 1.8141040070683437e-04 0.0000000000000000e+00  -3.3486812060642443e+01 -2.2723473600773416e-04 0.0000000000000000e+00  -3.3475772297030467e+01 -2.8354709168427329e-03 0.0000000000000000e+00  -3.3459302994058433e+01 -2.9134440815963463e-03 0.0000000000000000e+00  -3.3452772291880564e+01 1.4100983587346410e-04 0.0000000000000000e+00  -3.3445577735864440e+01 -3.4421063969350628e-03 0.0000000000000000e+00  -3.3469878924133617e+01 0.0000000000000000e+00 0.0000000000000000e+00  -3.1976140044389087e+01 0.0000000000000000e+00 0.0000000000000000e+00  -3.1969517841853115e+01 1.0688950727563498e-03 0.0000000000000000e+00  -3.1966417077713537e+01 4.2227599448454078e-04 0.0000000000000000e+00  -3.1965247821264654e+01 -2.8677117060338749e-04 0.0000000000000000e+00  -3.1965127645418196e+01 -7.7120831584797755e-04 0.0000000000000000e+00  -3.1965555799672831e+01 -1.0503214505560036e-03 0.0000000000000000e+00  -3.1966279112554648e+01 -1.2101686052060517e-03 0.0000000000000000e+00  -3.1967105286511512e+01 -1.1946342072679213e-03 0.0000000000000000e+00  -3.1967841851821102e+01 -9.8510991835379477e-04 0.0000000000000000e+00  -3.1968383278533040e+01 -7.3264666878440903e-04 0.0000000000000000e+00  -3.1968727658988104e+01 -5.4827736004287183e-04 0.0000000000000000e+00  -3.1968925191979487e+01 -4.3985550051511829e-04 0.0000000000000000e+00  -3.1969030708252902e+01 -3.8260541429732420e-04 0.0000000000000000e+00  -3.1969084422451239e+01 -3.5383645718662174e-04 0.0000000000000000e+00  -3.1969110895135771e+01 -3.3979235332733142e-04 0.0000000000000000e+00  -3.1969123692224954e+01 -3.3291668068009264e-04 0.0000000000000000e+00  -3.1969129800087551e+01 -3.2957535312851772e-04 0.0000000000000000e+00  -3.1969132691689115e+01 -3.2793225060861477e-04 0.0000000000000000e+00  -3.1969134036660751e+01 -3.2714325492550563e-04 0.0000000000000000e+00  -3.1969134641160320e+01 -3.2675775588097332e-04 0.0000000000000000e+00  -3.1969134884807243e+01 -3.2657677978020636e-04 0.0000000000000000e+00  -3.1969134953469215e+01 -3.2648810619051997e-04 0.0000000000000000e+00  -3.1969134934276145e+01 -3.2644749412040063e-04 0.0000000000000000e+00  -3.1969134871862412e+01 -3.2642737244644609e-04 0.0000000000000000e+00  -3.1969134786857229e+01 -3.2641864910094523e-04 0.0000000000000000e+00  -3.1969134690674608e+01 -3.2641431423564550e-04 0.0000000000000000e+00  -3.1969134588331773e+01 -3.2641270619437272e-04 0.0000000000000000e+00  -3.1969134482965568e+01 -3.2641192989461858e-04 0.0000000000000000e+00  -3.1969134375808700e+01 -3.2641178961504992e-04 0.0000000000000000e+00  -3.1969134267786959e+01 -3.2641174590521051e-04 0.0000000000000000e+00  -3.1969134159206938e+01 -3.2641182639726418e-04 0.0000000000000000e+00  -3.1969134050360662e+01 -3.2641189181160073e-04 0.0000000000000000e+00  -3.1969133941324156e+01 -3.2641196389964709e-04 0.0000000000000000e+00  -3.1969133832197205e+01 -3.2641201461681659e-04 0.0000000000000000e+00  -3.1969133723003164e+01 -3.2641205455240485e-04 0.0000000000000000e+00  -3.1969133613774105e+01 -3.2641208506054367e-04 0.0000000000000000e+00  -3.1969133504519696e+01 -3.2641210428210963e-04 0.0000000000000000e+00  -3.1969133395250974e+01 -3.2641211602452695e-04 0.000