<?xml version="1.0"?>
<VTKFile type="UnstructuredGrid"  version="0.1"  >
<UnstructuredGrid>
<Piece  NumberOfPoints="1369" NumberOfCells="2560">
<Points>
<DataArray  type="Float64"  NumberOfComponents="3"  format="ascii">0 0 0  0.75 0 0  1.5 0 0  2.25 0 0  3 0 0  3.75 0 0  4.5 0 0  5.25 0 0  6 0 0  6.75 0 0  7.5 0 0  8.25 0 0  9 0 0  9.75 0 0  10.5 0 0  11.25 0 0  12 0 0  12.75 0 0  13.5 0 0  14.25 0 0  15 0 0  15.75 0 0  16.5 0 0  17.25 0 0  18 0 0  18.75 0 0  19.5 0 0  20.25 0 0  21 0 0  21.75 0 0  22.5 0 0  23.25 0 0  24 0 0  24.75 0 0  25.5 0 0  26.25 0 0  27 0 0  27.75 0 0  28.5 0 0  29.25 0 0  30 0 0  30.75 0 0  31.5 0 0  32.25 0 0  33 0 0  33.75 0 0  34.5 0 0  35.25 0 0  36 0 0  36.75 0 0  37.5 0 0  38.25 0 0  39 0 0  39.75 0 0  40.5 0 0  41.25 0 0  42 0 0  42.75 0 0  43.5 0 0  44.25 0 0  45 0 0  45.75 0 0  46.5 0 0  47.25 0 0  48 0 0  48.75 0 0  49.5 0 0  50.25 0 0  51 0 0  51.75 0 0  52.5 0 0  53.25 0 0  54 0 0  54.75 0 0  55.5 0 0  56.25 0 0  57 0 0  57.75 0 0  58.5 0 0  59.25 0 0  60 0 0  0 0.5 0  0.75 0.5 0  1.5 0.5 0  2.25 0.5 0  3 0.5 0  3.75 0.5 0  4.5 0.5 0  5.25 0.5 0  6 0.5 0  6.75 0.5 0  7.5 0.5 0  8.25 0.5 0  9 0.5 0  9.75 0.5 0  10.5 0.5 0  11.25 0.5 0  12 0.5 0  12.75 0.5 0  13.5 0.5 0  14.25 0.5 0  15 0.5 0  15.75 0.5 0  16.5 0.5 0  17.25 0.5 0  18 0.5 0  18.75 0.5 0  19.5 0.5 0  20.25 0.5 0  21 0.5 0  21.75 0.5 0  22.5 0.5 0  23.25 0.5 0  24 0.5 0  24.75 0.5 0  25.5 0.5 0  26.25 0.5 0  27 0.5 0  27.75 0.5 0  28.5 0.5 0  29.25 0.5 0  30 0.5 0  30.75 0.5 0  31.5 0.5 0  32.25 0.5 0  33 0.5 0  33.75 0.5 0  34.5 0.5 0  35.25 0.5 0  36 0.5 0  36.75 0.5 0  37.5 0.5 0  38.25 0.5 0  39 0.5 0  39.75 0.5 0  40.5 0.5 0  41.25 0.5 0  42 0.5 0  42.75 0.5 0  43.5 0.5 0  44.25 0.5 0  45 0.5 0  45.75 0.5 0  46.5 0.5 0  47.25 0.5 0  48 0.5 0  48.75 0.5 0  49.5 0.5 0  50.25 0.5 0  51 0.5 0  51.75 0.5 0  52.5 0.5 0  53.25 0.5 0  54 0.5 0  54.75 0.5 0  55.5 0.5 0  56.25 0.5 0  57 0.5 0  57.75 0.5 0  58.5 0.5 0  59.25 0.5 0  60 0.5 0  0 1 0  0.75 1 0  1.5 1 0  2.25 1 0  3 1 0  3.75 1 0  4.5 1 0  5.25 1 0  6 1 0  6.75 1 0  7.5 1 0  8.25 1 0  9 1 0  9.75 1 0  10.5 1 0  11.25 1 0  12 1 0  12.75 1 0  13.5 1 0  14.25 1 0  15 1 0  15.75 1 0  16.5 1 0  17.25 1 0  18 1 0  18.75 1 0  19.5 1 0  20.25 1 0  21 1 0  21.75 1 0  22.5 1 0  23.25 1 0  24 1 0  24.75 1 0  25.5 1 0  26.25 1 0  27 1 0  27.75 1 0  28.5 1 0  29.25 1 0  30 1 0  30.75 1 0  31.5 1 0  32.25 1 0  33 1 0  33.75 1 0  34.5 1 0  35.25 1 0  36 1 0  36.75 1 0  37.5 1 0  38.25 1 0  39 1 0  39.75 1 0  40.5 1 0  41.25 1 0  42 1 0  42.75 1 0  43.5 1 0  44.25 1 0  45 1 0  45.75 1 0  46.5 1 0  47.25 1 0  48 1 0  48.75 1 0  49.5 1 0  50.25 1 0  51 1 0  51.75 1 0  52.5 1 0  53.25 1 0  54 1 0  54.75 1 0  55.5 1 0  56.25 1 0  57 1 0  57.75 1 0  58.5 1 0  59.25 1 0  60 1 0  0 1.5 0  0.75 1.5 0  1.5 1.5 0  2.25 1.5 0  3 1.5 0  3.75 1.5 0  4.5 1.5 0  5.25 1.5 0  6 1.5 0  6.75 1.5 0  7.5 1.5 0  8.25 1.5 0  9 1.5 0  9.75 1.5 0  10.5 1.5 0  11.25 1.5 0  12 1.5 0  12.75 1.5 0  13.5 1.5 0  14.25 1.5 0  15 1.5 0  15.75 1.5 0  16.5 1.5 0  17.25 1.5 0  18 1.5 0  18.75 1.5 0  19.5 1.5 0  20.25 1.5 0  21 1.5 0  21.75 1.5 0  22.5 1.5 0  23.25 1.5 0  24 1.5 0  24.75 1.5 0  25.5 1.5 0  26.25 1.5 0  27 1.5 0  27.75 1.5 0  28.5 1.5 0  29.25 1.5 0  30 1.5 0  30.75 1.5 0  31.5 1.5 0  32.25 1.5 0  33 1.5 0  33.75 1.5 0  34.5 1.5 0  35.25 1.5 0  36 1.5 0  36.75 1.5 0  37.5 1.5 0  38.25 1.5 0  39 1.5 0  39.75 1.5 0  40.5 1.5 0  41.25 1.5 0  42 1.5 0  42.75 1.5 0  43.5 1.5 0  44.25 1.5 0  45 1.5 0  45.75 1.5 0  46.5 1.5 0  47.25 1.5 0  48 1.5 0  48.75 1.5 0  49.5 1.5 0  50.25 1.5 0  51 1.5 0  51.75 1.5 0  52.5 1.5 0  53.25 1.5 0  54 1.5 0  54.75 1.5 0  55.5 1.5 0  56.25 1.5 0  57 1.5 0  57.75 1.5 0  58.5 1.5 0  59.25 1.5 0  60 1.5 0  0 2 0  0.75 2 0  1.5 2 0  2.25 2 0  3 2 0  3.75 2 0  4.5 2 0  5.25 2 0  6 2 0  6.75 2 0  7.5 2 0  8.25 2 0  9 2 0  9.75 2 0  10.5 2 0  11.25 2 0  12 2 0  12.75 2 0  13.5 2 0  14.25 2 0  15 2 0  15.75 2 0  16.5 2 0  17.25 2 0  18 2 0  18.75 2 0  19.5 2 0  20.25 2 0  21 2 0  21.75 2 0  22.5 2 0  23.25 2 0  24 2 0  24.75 2 0  25.5 2 0  26.25 2 0  27 2 0  27.75 2 0  28.5 2 0  29.25 2 0  30 2 0  30.75 2 0  31.5 2 0  32.25 2 0  33 2 0  33.75 2 0  34.5 2 0  35.25 2 0  36 2 0  36.75 2 0  37.5 2 0  38.25 2 0  39 2 0  39.75 2 0  40.5 2 0  41.25 2 0  42 2 0  42.75 2 0  43.5 2 0  44.25 2 0  45 2 0  45.75 2 0  46.5 2 0  47.25 2 0  48 2 0  48.75 2 0  49.5 2 0  50.25 2 0  51 2 0  51.75 2 0  52.5 2 0  53.25 2 0  54 2 0  54.75 2 0  55.5 2 0  56.25 2 0  57 2 0  57.75 2 0  58.5 2 0  59.25 2 0  60 2 0  0 2.5 0  0.75 2.5 0  1.5 2.5 0  2.25 2.5 0  3 2.5 0  3.75 2.5 0  4.5 2.5 0  5.25 2.5 0  6 2.5 0  6.75 2.5 0  7.5 2.5 0  8.25 2.5 0  9 2.5 0  9.75 2.5 0  10.5 2.5 0  11.25 2.5 0  12 2.5 0  12.75 2.5 0  13.5 2.5 0  14.25 2.5 0  15 2.5 0  15.75 2.5 0  16.5 2.5 0  17.25 2.5 0  18 2.5 0  18.75 2.5 0  19.5 2.5 0  20.25 2.5 0  21 2.5 0  21.75 2.5 0  22.5 2.5 0  23.25 2.5 0  24 2.5 0  24.75 2.5 0  25.5 2.5 0  26.25 2.5 0  27 2.5 0  27.75 2.5 0  28.5 2.5 0  29.25 2.5 0  30 2.5 0  30.75 2.5 0  31.5 2.5 0  32.25 2.5 0  33 2.5 0  33.75 2.5 0  34.5 2.5 0  35.25 2.5 0  36 2.5 0  36.75 2.5 0  37.5 2.5 0  38.25 2.5 0  39 2.5 0  39.75 2.5 0  40.5 2.5 0  41.25 2.5 0  42 2.5 0  42.75 2.5 0  43.5 2.5 0  44.25 2.5 0  45 2.5 0  45.75 2.5 0  46.5 2.5 0  47.25 2.5 0  48 2.5 0  48.75 2.5 0  49.5 2.5 0  50.25 2.5 0  51 2.5 0  51.75 2.5 0  52.5 2.5 0  53.25 2.5 0  54 2.5 0  54.75 2.5 0  55.5 2.5 0  56.25 2.5 0  57 2.5 0  57.75 2.5 0  58.5 2.5 0  59.25 2.5 0  60 2.5 0  0 3 0  0.75 3 0  1.5 3 0  2.25 3 0  3 3 0  3.75 3 0  4.5 3 0  5.25 3 0  6 3 0  6.75 3 0  7.5 3 0  8.25 3 0  9 3 0  9.75 3 0  10.5 3 0  11.25 3 0  12 3 0  12.75 3 0  13.5 3 0  14.25 3 0  15 3 0  15.75 3 0  16.5 3 0  17.25 3 0  18 3 0  18.75 3 0  19.5 3 0  20.25 3 0  21 3 0  21.75 3 0  22.5 3 0  23.25 3 0  24 3 0  24.75 3 0  25.5 3 0  26.25 3 0  27 3 0  27.75 3 0  28.5 3 0  29.25 3 0  30 3 0  30.75 3 0  31.5 3 0  32.25 3 0  33 3 0  33.75 3 0  34.5 3 0  35.25 3 0  36 3 0  36.75 3 0  37.5 3 0  38.25 3 0  39 3 0  39.75 3 0  40.5 3 0  41.25 3 0  42 3 0  42.75 3 0  43.5 3 0  44.25 3 0  45 3 0  45.75 3 0  46.5 3 0  47.25 3 0  48 3 0  48.75 3 0  49.5 3 0  50.25 3 0  51 3 0  51.75 3 0  52.5 3 0  53.25 3 0  54 3 0  54.75 3 0  55.5 3 0  56.25 3 0  57 3 0  57.75 3 0  58.5 3 0  59.25 3 0  60 3 0  0 3.5 0  0.75 3.5 0  1.5 3.5 0  2.25 3.5 0  3 3.5 0  3.75 3.5 0  4.5 3.5 0  5.25 3.5 0  6 3.5 0  6.75 3.5 0  7.5 3.5 0  8.25 3.5 0  9 3.5 0  9.75 3.5 0  10.5 3.5 0  11.25 3.5 0  12 3.5 0  12.75 3.5 0  13.5 3.5 0  14.25 3.5 0  15 3.5 0  15.75 3.5 0  16.5 3.5 0  17.25 3.5 0  18 3.5 0  18.75 3.5 0  19.5 3.5 0  20.25 3.5 0  21 3.5 0  21.75 3.5 0  22.5 3.5 0  23.25 3.5 0  24 3.5 0  24.75 3.5 0  25.5 3.5 0  26.25 3.5 0  27 3.5 0  27.75 3.5 0  28.5 3.5 0  29.25 3.5 0  30 3.5 0  30.75 3.5 0  31.5 3.5 0  32.25 3.5 0  33 3.5 0  33.75 3.5 0  34.5 3.5 0  35.25 3.5 0  36 3.5 0  36.75 3.5 0  37.5 3.5 0  38.25 3.5 0  39 3.5 0  39.75 3.5 0  40.5 3.5 0  41.25 3.5 0  42 3.5 0  42.75 3.5 0  43.5 3.5 0  44.25 3.5 0  45 3.5 0  45.75 3.5 0  46.5 3.5 0  47.25 3.5 0  48 3.5 0  48.75 3.5 0  49.5 3.5 0  50.25 3.5 0  51 3.5 0  51.75 3.5 0  52.5 3.5 0  53.25 3.5 0  54 3.5 0  54.75 3.5 0  55.5 3.5 0  56.25 3.5 0  57 3.5 0  57.75 3.5 0  58.5 3.5 0  59.25 3.5 0  60 3.5 0  0 4 0  0.75 4 0  1.5 4 0  2.25 4 0  3 4 0  3.75 4 0  4.5 4 0  5.25 4 0  6 4 0  6.75 4 0  7.5 4 0  8.25 4 0  9 4 0  9.75 4 0  10.5 4 0  11.25 4 0  12 4 0  12.75 4 0  13.5 4 0  14.25 4 0  15 4 0  15.75 4 0  16.5 4 0  17.25 4 0  18 4 0  18.75 4 0  19.5 4 0  20.25 4 0  21 4 0  21.75 4 0  22.5 4 0  23.25 4 0  24 4 0  24.75 4 0  25.5 4 0  26.25 4 0  27 4 0  27.75 4 0  28.5 4 0  29.25 4 0  30 4 0  30.75 4 0  31.5 4 0  32.25 4 0  33 4 0  33.75 4 0  34.5 4 0  35.25 4 0  36 4 0  36.75 4 0  37.5 4 0  38.25 4 0  39 4 0  39.75 4 0  40.5 4 0  41.25 4 0  42 4 0  42.75 4 0  43.5 4 0  44.25 4 0  45 4 0  45.75 4 0  46.5 4 0  47.25 4 0  48 4 0  48.75 4 0  49.5 4 0  50.25 4 0  51 4 0  51.75 4 0  52.5 4 0  53.25 4 0  54 4 0  54.75 4 0  55.5 4 0  56.25 4 0  57 4 0  57.75 4 0  58.5 4 0  59.25 4 0  60 4 0  0.375 0.25 0  1.125 0.25 0  1.875 0.25 0  2.625 0.25 0  3.375 0.25 0  4.125 0.25 0  4.875 0.25 0  5.625 0.25 0  6.375 0.25 0  7.125 0.25 0  7.875 0.25 0  8.625 0.25 0  9.375 0.25 0  10.125 0.25 0  10.875 0.25 0  11.625 0.25 0  12.375 0.25 0  13.125 0.25 0  13.875 0.25 0  14.625 0.25 0  15.375 0.25 0  16.125 0.25 0  16.875 0.25 0  17.625 0.25 0  18.375 0.25 0  19.125 0.25 0  19.875 0.25 0  20.625 0.25 0  21.375 0.25 0  22.125 0.25 0  22.875 0.25 0  23.625 0.25 0  24.375 0.25 0  25.125 0.25 0  25.875 0.25 0  26.625 0.25 0  27.375 0.25 0  28.125 0.25 0  28.875 0.25 0  29.625 0.25 0  30.375 0.25 0  31.125 0.25 0  31.875 0.25 0  32.625 0.25 0  33.375 0.25 0  34.125 0.25 0  34.875 0.25 0  35.625 0.25 0  36.375 0.25 0  37.125 0.25 0  37.875 0.25 0  38.625 0.25 0  39.375 0.25 0  40.125 0.25 0  40.875 0.25 0  41.625 0.25 0  42.375 0.25 0  43.125 0.25 0  43.875 0.25 0  44.625 0.25 0  45.375 0.25 0  46.125 0.25 0  46.875 0.25 0  47.625 0.25 0  48.375 0.25 0  49.125 0.25 0  49.875 0.25 0  50.625 0.25 0  51.375 0.25 0  52.125 0.25 0  52.875 0.25 0  53.625 0.25 0  54.375 0.25 0  55.125 0.25 0  55.875 0.25 0  56.625 0.25 0  57.375 0.25 0  58.125 0.25 0  58.875 0.25 0  59.625 0.25 0  0.375 0.75 0  1.125 0.75 0  1.875 0.75 0  2.625 0.75 0  3.375 0.75 0  4.125 0.75 0  4.875 0.75 0  5.625 0.75 0  6.375 0.75 0  7.125 0.75 0  7.875 0.75 0  8.625 0.75 0  9.375 0.75 0  10.125 0.75 0  10.875 0.75 0  11.625 0.75 0  12.375 0.75 0  13.125 0.75 0  13.875 0.75 0  14.625 0.75 0  15.375 0.75 0  16.125 0.75 0  16.875 0.75 0  17.625 0.75 0  18.375 0.75 0  19.125 0.75 0  19.875 0.75 0  20.625 0.75 0  21.375 0.75 0  22.125 0.75 0  22.875 0.75 0  23.625 0.75 0  24.375 0.75 0  25.125 0.75 0  25.875 0.75 0  26.625 0.75 0  27.375 0.75 0  28.125 0.75 0  28.875 0.75 0  29.625 0.75 0  30.375 0.75 0  31.125 0.75 0  31.875 0.75 0  32.625 0.75 0  33.375 0.75 0  34.125 0.75 0  34.875 0.75 0  35.625 0.75 0  36.375 0.75 0  37.125 0.75 0  37.875 0.75 0  38.625 0.75 0  39.375 0.75 0  40.125 0.75 0  40
[...]
<PointData  Vectors="f_8-0"> 
<DataArray  type="Float64"  Name="f_8-0"  NumberOfComponents="3" format="ascii">0.0000000000000000e+00 0.0000000000000000e+00 0.0000000000000000e+00  0.0000000000000000e+00 0.0000000000000000e+00 0.0000000000000000e+00  0.0000000000000000e+00 0.0000000000000000e+00 0.0000000000000000e+00  0.0000000000000000e+00 0.0000000000000000e+00 0.0000000000000000e+00  0.0000000000000000e+00 0.0000000000000000e+00 0.0000000000000000e+00  0.0000000000000000e+00 0.0000000000000000e+00 0.0000000000000000e+00  0.0000000000000000e+00 0.0000000000000000e+00 0.0000000000000000e+00  0.0000000000000000e+00 0.0000000000000000e+00 0.0000000000000000e+00  0.0000000000000000e+00 0.0000000000000000e+00 0.0000000000000000e+00  0.0000000000000000e+00 0.0000000000000000e+00 0.0000000000000000e+00  0.0000000000000000e+00 0.0000000000000000e+00 0.0000000000000000e+00  0.0000000000000000e+00 0.0000000000000000e+00 0.0000000000000000e+00  0.0000000000000000e+00 0.0000000000000000e+00 0.0000000000000000e+00  0.0000000000000000e+00 0.0000000000000000e+00 0.0000000000000000e+00  0.0000000000000000e+00 0.0000000000000000e+00 0.0000000000000000e+00  0.0000000000000000e+00 0.0000000000000000e+00 0.0000000000000000e+00  0.0000000000000000e+00 0.0000000000000000e+00 0.0000000000000000e+00  0.0000000000000000e+00 0.0000000000000000e+00 0.0000000000000000e+00  0.0000000000000000e+00 0.0000000000000000e+00 0.0000000000000000e+00  0.0000000000000000e+00 0.0000000000000000e+00 0.0000000000000000e+00  0.0000000000000000e+00 0.0000000000000000e+00 0.0000000000000000e+00  0.0000000000000000e+00 0.0000000000000000e+00 0.0000000000000000e+00  0.0000000000000000e+00 0.0000000000000000e+00 0.0000000000000000e+00  0.0000000000000000e+00 0.0000000000000000e+00 0.0000000000000000e+00  0.0000000000000000e+00 0.0000000000000000e+00 0.0000000000000000e+00  0.0000000000000000e+00 0.0000000000000000e+00 0.0000000000000000e+00  0.0000000000000000e+00 0.0000000000000000e+00 0.0000000000000000e+00  0.0000000000000000e+00 0.0000000000000000e+00 0.0000000000000000e+00  0.0000000000000000e+00 0.0000000000000000e+00 0.0000000000000000e+00  0.0000000000000000e+00 0.0000000000000000e+00 0.0000000000000000e+00  0.0000000000000000e+00 0.0000000000000000e+00 0.0000000000000000e+00  0.0000000000000000e+00 0.0000000000000000e+00 0.0000000000000000e+00  0.0000000000000000e+00 0.0000000000000000e+00 0.0000000000000000e+00  0.0000000000000000e+00 0.0000000000000000e+00 0.0000000000000000e+00  0.0000000000000000e+00 0.0000000000000000e+00 0.0000000000000000e+00  0.0000000000000000e+00 0.0000000000000000e+00 0.0000000000000000e+00  0.0000000000000000e+00 0.0000000000000000e+00 0.0000000000000000e+00  0.0000000000000000e+00 0.0000000000000000e+00 0.0000000000000000e+00  0.0000000000000000e+00 0.0000000000000000e+00 0.0000000000000000e+00  0.0000000000000000e+00 0.0000000000000000e+00 0.0000000000000000e+00  0.0000000000000000e+00 0.0000000000000000e+00 0.0000000000000000e+00  0.0000000000000000e+00 0.0000000000000000e+00 0.0000000000000000e+00  0.0000000000000000e+00 0.0000000000000000e+00 0.0000000000000000e+00  0.0000000000000000e+00 0.0000000000000000e+00 0.0000000000000000e+00  0.0000000000000000e+00 0.0000000000000000e+00 0.0000000000000000e+00  0.0000000000000000e+00 0.0000000000000000e+00 0.0000000000000000e+00  0.0000000000000000e+00 0.0000000000000000e+00 0.0000000000000000e+00  0.0000000000000000e+00 0.0000000000000000e+00 0.0000000000000000e+00  0.0000000000000000e+00 0.0000000000000000e+00 0.0000000000000000e+00  0.0000000000000000e+00 0.0000000000000000e+00 0.0000000000000000e+00  0.0000000000000000e+00 0.0000000000000000e+00 0.0000000000000000e+00  0.0000000000000000e+00 0.0000000000000000e+00 0.0000000000000000e+00  0.0000000000000000e+00 0.0000000000000000e+00 0.0000000000000000e+00  0.0000000000000000e+00 0.0000000000000000e+00 0.0000000000000000e+00  0.0000000000000000e+00 0.0000000000000000e+00 0.0000000000000000e+00  0.0000000000000000e+00 0.0000000000000000e+00 0.0000000000000000e+00  0.0000000000000000e+00 0.0000000000000000e+00 0.0000000000000000e+00  0.0000000000000000e+00 0.0000000000000000e+00 0.0000000000000000e+00  0.0000000000000000e+00 0.0000000000000000e+00 0.0000000000000000e+00  0.0000000000000000e+00 0.0000000000000000e+00 0.0000000000000000e+00  0.0000000000000000e+00 0.0000000000000000e+00 0.0000000000000000e+00  0.0000000000000000e+00 0.0000000000000000e+00 0.0000000000000000e+00  0.0000000000000000e+00 0.0000000000000000e+00 0.0000000000000000e+00  0.0000000000000000e+00 0.0000000000000000e+00 0.0000000000000000e+00  0.0000000000000000e+00 0.0000000000000000e+00 0.0000000000000000e+00  0.0000000000000000e+00 0.0000000000000000e+00 0.0000000000000000e+00  0.0000000000000000e+00 0.0000000000000000e+00 0.0000000000000000e+00  0.0000000000000000e+00 0.0000000000000000e+00 0.0000000000000000e+00  0.0000000000000000e+00 0.0000000000000000e+00 0.0000000000000000e+00  0.0000000000000000e+00 0.0000000000000000e+00 0.0000000000000000e+00  0.0000000000000000e+00 0.0000000000000000e+00 0.0000000000000000e+00  0.0000000000000000e+00 0.0000000000000000e+00 0.0000000000000000e+00  0.0000000000000000e+00 0.0000000000000000e+00 0.0000000000000000e+00  0.0000000000000000e+00 0.0000000000000000e+00 0.0000000000000000e+00  0.0000000000000000e+00 0.0000000000000000e+00 0.0000000000000000e+00  0.0000000000000000e+00 0.0000000000000000e+00 0.0000000000000000e+00  0.0000000000000000e+00 0.0000000000000000e+00 0.0000000000000000e+00  0.0000000000000000e+00 0.0000000000000000e+00 0.0000000000000000e+00  0.0000000000000000e+00 0.0000000000000000e+00 0.0000000000000000e+00  0.0000000000000000e+00 0.0000000000000000e+00 0.0000000000000000e+00  0.0000000000000000e+00 0.0000000000000000e+00 0.0000000000000000e+00  -2.6394561375795934e+01 0.0000000000000000e+00 0.0000000000000000e+00  -2.6408488272167070e+01 4.4687546083934694e-03 0.0000000000000000e+00  -2.6420665499643828e+01 5.7295984314778715e-03 0.0000000000000000e+00  -2.6426542371964789e+01 4.9160785573544872e-03 0.0000000000000000e+00  -2.6429388798163664e+01 4.0054457875211532e-03 0.0000000000000000e+00  -2.6430460770540684e+01 3.3488135267680927e-03 0.0000000000000000e+00  -2.6430456962778532e+01 2.9317930352352555e-03 0.0000000000000000e+00  -2.6429814131307072e+01 2.6839273798426508e-03 0.0000000000000000e+00  -2.6428805733973970e+01 2.5424859141910693e-03 0.0000000000000000e+00  -2.6427585335231470e+01 2.4572472077919387e-03 0.0000000000000000e+00  -2.6426267229891746e+01 2.4255167561818996e-03 0.0000000000000000e+00  -2.6425007422456719e+01 2.4612431444628303e-03 0.0000000000000000e+00  -2.6423960281207950e+01 2.5545559393234888e-03 0.0000000000000000e+00  -2.6423200065304208e+01 2.6690781821043603e-03 0.0000000000000000e+00  -2.6422708101206133e+01 2.7712607498270991e-03 0.0000000000000000e+00  -2.6422416562855613e+01 2.8454899734019034e-03 0.0000000000000000e+00  -2.6422253119024528e+01 2.8923583074244325e-03 0.0000000000000000e+00  -2.6422163247969053e+01 2.9191719238533488e-03 0.0000000000000000e+00  -2.6422112933868974e+01 2.9336988217735218e-03 0.0000000000000000e+00  -2.6422083483464615e+01 2.9414419440086320e-03 0.0000000000000000e+00  -2.6422065297834859e+01 2.9456917416492250e-03 0.0000000000000000e+00  -2.6422053575145387e+01 2.9481491664531765e-03 0.0000000000000000e+00  -2.6422045805077598e+01 2.9496625407328396e-03 0.0000000000000000e+00  -2.6422040582354690e+01 2.9506336517340797e-03 0.0000000000000000e+00  -2.6422037037954681e+01 2.9512731148727688e-03 0.0000000000000000e+00  -2.6422034610020038e+01 2.9516958028519120e-03 0.0000000000000000e+00  -2.6422032920423810e+01 2.9519754745871607e-03 0.0000000000000000e+00  -2.6422031718887503e+01 2.9521598033972751e-03 0.0000000000000000e+00  -2.6422030838656251e+01 2.9522815371557519e-03 0.0000000000000000e+00  -2.6422030171704311e+01 2.9523623685759072e-03 0.0000000000000000e+00  -2.6422029647060796e+01 2.9524165202694502e-03 0.0000000000000000e+00  -2.6422029218829515e+01 2.9524532743150896e-03 0.0000000000000000e+00  -2.6422028856434910e+01 2.9524784461381851e-03 0.0000000000000000e+00  -2.6422028539688700e+01 2.9524959426639329e-03 0.0000000000000000e+00  -2.6422028254871108e+01 2.9525081986197617e-03 0.0000000000000000e+00  -2.6422027992838693e+01 2.9525169765231879e-03 0.0000000000000000e+00  -2.6422027747480445e+01 2.9525234032854023e-03 0.0000000000000000e+00  -2.6422027514920561e+01 2.9525283493646312e-03 0.0000000000000000e+00  -2.6422027292778022e+01 2.9525323587446077e-03 0.0000000000000000e+00  -2.6422027079702616e+01 2.9525358335611884e-03 0.0000000000000000e+00  -2.6422026874966118e+01 2.9525389930348590e-03 0.0000000000000000e+00  -2.6422026678215207e+01 2.9525419887896603e-03 0.0000000000000000e+00  -2.6422026489288019e+01 2.9525448885408387e-03 0.0000000000000000e+00  -2.6422026308115154e+01 2.9525477337377691e-03 0.0000000000000000e+00  -2.6422026134656811e+01 2.9525505360239023e-03 0.0000000000000000e+00  -2.6422025968852157e+01 2.9525532929858471e-03 0.0000000000000000e+00  -2.6422025810549073e+01 2.9525559676902217e-03 0.0000000000000000e+00  -2.6422025659457663e+01 2.9525585143926141e-03 0.0000000000000000e+00  -2.6422025515138984e+01 2.9525608821024864e-03 0.0000000000000000e+00  -2.6422025377046300e+01 2.9525630374679260e-03 0.0000000000000000e+00  -2.6422025244534993e+01 2.9525649595664818e-03 0.0000000000000000e+00  -2.6422025116970740e+01 2.9525666261853729e-03 0.0000000000000000e+00  -2.6422024993500937e+01 2.9525680394790941e-03 0.0000000000000000e+00  -2.6422024873660018e+01 2.9525691466106450e-03 0.0000000000000000e+00  -2.6422024755978107e+01 2.9525700935388662e-03 0.0000000000000000e+00  -2.6422024641776421e+01 2.9525706370849402e-03 0.0000000000000000e+00  -2.6422024525922449e+01 2.9525715831105574e-03 0.0000000000000000e+00  -2.6422024420088800e+01 2.9525712504257983e-03 0.0000000000000000e+00  -2.6422024295222705e+01 2.9525739231000539e-03 0.0000000000000000e+00  -2.6422024222506888e+01 2.9525697768815816e-03 0.0000000000000000e+00  -2.6422024032015369e+01 2.9525819790374992e-03 0.0000000000000000e+00  -2.6422024129170911e+01 2.9525579896317712e-03 0.0000000000000000e+00  -2.6422023572255590e+01 2.9526168515161206e-03 0.0000000000000000e+00  -2.6422024521783992e+01 2.9524957533183216e-03 0.0000000000000000e+00  -2.6422022149075715e+01 2.9527690077694644e-03 0.0000000000000000e+00  -2.6422026985735485e+01 2.9522037224445855e-03 0.0000000000000000e+00  -2.6422016754812525e+01 2.9534290752546728e-03 0.0000000000000000e+00  -2.6422036850879977e+01 2.9508617023424142e-03 0.0000000000000000e+00  -2.6421998322386639e+01 2.9564616485352655e-03 0.0000000000000000e+00  -2.6422066140588434e+01 2.9440476581255801e-03 0.0000000000000000e+00  -2.6421947602915260e+01 2.9713115373878815e-03 0.0000000000000000e+00  -2.6422118005788786e+01 2.9035202653490645e-03 0.0000000000000000e+00  -2.6421803884454853e+01 3.0261550075176961e-03 0.0000000000000000e+00  -2.6422011202519183e+01 2.6168989569694922e-03 0.0000000000000000e+00  -2.6420968929856425e+01 2.9429510589924343e-03 0.0000000000000000e+00  -2.6420461586860871e+01 1.1366002439058694e-03 0.0000000000000000e+00  -2.6421607751741846e+01 5.5178633560630554e-03 0.0000000000000000e+00  -2.6430479874363272e+01 1.1475799586420601e-02 0.0000000000000000e+00  -2.6448169262664049e+01 2.9571828436727982e-02 0.0000000000000000e+00  -2.6428512602946952e+01 4.5147478217262886e-02 0.0000000000000000e+00  -2.6426244656894337e+01 0.0000000000000000e+00 0.0000000000000000e+00  -2.8254299358343037e+01 0.0000000000000000e+00 0.0000000000000000e+00  -2.8251673779176446e+01 1.0252299227907378e-02 0.0000000000000000e+00  -2.8251545272539509e+01 7.3781641751815633e-03 0.0000000000000000e+00  -2.8251434486469950e+01 4.6205442000680887e-03 0.0000000000000000e+00  -2.8250954063972106e+01 2.7041944024134745e-03 0.0000000000000000e+00  -2.8250331771676073e+01 1.4916001472511664e-03 0.0000000000000000e+00  -2.8249670970859878e+01 7.5446253896646240e-04 0.0000000000000000e+00  -2.8248993528389629e+01 3.2426760331992190e-04 0.0000000000000000e+00  -2.8248311298344607e+01 8.2731771839106305e-05 0.0000000000000000e+00  -2.8247625273455363e+01 -6.4846149567766709e-05 0.0000000000000000e+00  -2.8246927941207765e+01 -8.9533908974026864e-05 0.0000000000000000e+00  -2.8246297685711724e+01 6.0570724474544596e-05 0.0000000000000000e+00  -2.8245832292014988e+01 3.3544396313280863e-04 0.0000000000000000e+00  -2.8245553318617990e+01 6.2604687752908098e-04 0.0000000000000000e+00  -2.8245413342376718e+01 8.5734050084140334e-04 0.0000000000000000e+00  -2.8245351736733259e+01 1.0104216532557861e-03 0.0000000000000000e+00  -2.8245325497963975e+01 1.1001116156168415e-03 0.0000000000000000e+00  -2.8245312790116515e+01 1.1488166388508273e-03 0.0000000000000000e+00  -2.8245304868466675e+01 1.1745335823802995e-03 0.0000000000000000e+00  -2.8245299053359933e+01 1.1883190743716473e-03 0.0000000000000000e+00  -2.8245294619997320e+01 1.1961171329631871e-03 0.0000000000000000e+00  -2.8245291333468970e+01 1.2008176494191333e-03 0.0000000000000000e+00  -2.8245288964996739e+01 1.2038102621616772e-03 0.0000000000000000e+00  -2.8245287293289362e+01 1.2057704396952816e-03 0.0000000000000000e+00  -2.8245286109098608e+01 1.2070691626506955e-03 0.0000000000000000e+00  -2.8245285254569922e+01 1.2079277408711775e-03 0.0000000000000000e+00  -2.8245284613361640e+01 1.2084934807342846e-03 0.0000000000000000e+00  -2.8245284110210743e+01 1.2088654458541686e-03 0.0000000000000000e+00  -2.8245283695561401e+01 1.2091107560135981e-03 0.0000000000000000e+00  -2.8245283339091031e+01 1.2092739171979904e-03 0.0000000000000000e+00  -2.8245283021138942e+01 1.2093834944424812e-03 0.0000000000000000e+00  -2.8245282729302865e+01 1.2094580867848678e-03 0.0000000000000000e+00  -2.8245282455286159e+01 1.2095093321379288e-03 0.0000000000000000e+00  -2.8245282193677248e+01 1.2095450635269053e-03 0.0000000000000000e+00  -2.8245281940931584e+01 1.2095702819114049e-03 0.0000000000000000e+00  -2.8245281694883392e+01 1.2095886115216870e-03 0.0000000000000000e+00  -2.8245281454436093e+01 1.2096024776907595e-03 0.0000000000000000e+00  -2.8245281219296881e+01 1.2096137021859244e-03 0.0000000000000000e+00  -2.8245280989751070e+01 1.2096234404932336e-03 0.0000000000000000e+00  -2.8245280766374705e+01 1.2096324697475039e-03 0.0000000000000000e+00  -2.8245280549866298e+01 1.2096412041841173e-03 0.0000000000000000e+00  -2.8245280340897772e+01 1.2096498816375743e-03 0.0000000000000000e+00  -2.8245280140080578e+01 1.2096585913954701e-03 0.0000000000000000e+00  -2.8245279947925425e+01 1.2096673707503234e-03 0.0000000000000000e+00  -2.8245279764856008e+01 1.2096761948695704e-03 0.0000000000000000e+00  -2.8245279591163829e+01 1.2096849818741861e-03 0.0000000000000000e+00  -2.8245279426942030e+01 1.2096935712346954e-03 0.0000000000000000e+00  -2.8245279272012066e+01 1.2097017669886632e-03 0.0000000000000000e+00  -2.8245279125941774e+01 1.2097093963827745e-03 0.0000000000000000e+00  -2.8245278988108407e+01 1.2097163522090230e-03 0.0000000000000000e+00  -2.8245278857812107e+01 1.2097225586162525e-03 0.0000000000000000e+00  -2.8245278734177333e+01 1.2097279391296595e-03 0.0000000000000000e+00  -2.8245278616401500e+01 1.2097324356629910e-03 0.0000000000000000e+00  -2.8245278503121362e+01 1.2097360181243890e-03 0.0000000000000000e+00  -2.8245278394218143e+01 1.2097388696669451e-03 0.0000000000000000e+00  -2.8245278286836758e+01 1.2097410270543445e-03 0.0000000000000000e+00  -2.8245278185710330e+01 1.2097432672366197e-03 0.0000000000000000e+00  -2.8245278078114278e+01 1.2097444614963670e-03 0.0000000000000000e+00  -2.8245277994470719e+01 1.2097485511787980e-03 0.0000000000000000e+00  -2.8245277863269990e+01 1.2097460648124376e-03 0.0000000000000000e+00  -2.8245277853740941e+01 1.2097630089050145e-03 0.0000000000000000e+00  -2.8245277579921932e+01 1.2097341294212841e-03 0.0000000000000000e+00  -2.8245277918626975e+01 1.2098268187412456e-03 0.0000000000000000e+00  -2.8245276941433659e+01 1.2096263906824088e-03 0.0000000000000000e+00  -2.8245278804052852e+01 1.2101407553321700e-03 0.0000000000000000e+00  -2.8245274825457830e+01 1.2089690356257700e-03 0.0000000000000000e+00  -2.8245282483319397e+01 1.2116099399201521e-03 0.0000000000000000e+00  -2.8245267781919701e+01 1.2057238043543107e-03 0.0000000000000000e+00  -2.8245293208621366e+01 1.2173518839614353e-03 0.0000000000000000e+00  -2.8245248056635791e+01 1.1925294701433055e-03 0.0000000000000000e+00  -2.8245312352145813e+01 1.2311885848398615e-03 0.0000000000000000e+00  -2.8245198436950943e+01 1.1432639427960477e-03 0.0000000000000000e+00  -2.8245314681397502e+01 1.1959469613158501e-03 0.0000000000000000e+00  -2.8245051876034974e+01 8.8465487306482369e-04 0.0000000000000000e+00  -2.8245432400323647e+01 5.9578900875215839e-04 0.0000000000000000e+00  -2.8245055631846107e+01 4.2946067860265394e-04 0.0000000000000000e+00  -2.8246220791966945e+01 2.8701053178384409e-03 0.0000000000000000e+00  -2.8232321247248883e+01 5.0019847248279816e-03 0.0000000000000000e+00  -2.8212906543340456e+01 3.3225943105998925e-03 0.0000000000000000e+00  -2.8180767998473122e+01 -1.0033815893703689e-02 0.0000000000000000e+00  -2.8232425740332193e+01 0.0000000000000000e+00 0.0000000000000000e+00  -2.5198488747878773e+01 0.0000000000000000e+00 0.0000000000000000e+00  -2.5186979246316959e+01 5.2083072749988298e-03 0.0000000000000000e+00  -2.5178824664236309e+01 3.1535321043027024e-03 0.0000000000000000e+00  -2.5174421464272591e+01 9.9007652330464538e-04 0.0000000000000000e+00  -2.5172338847423763e+01 -4.5504450227062758e-04 0.0000000000000000e+00  -2.5171641875889357e+01 -1.3298844161429581e-03 0.0000000000000000e+00  -2.5171778849196851e+01 -1.8531673612327058e-03 0.0000000000000000e+00  -2.5172405439441267e+01 -2.1660082622984257e-03 0.0000000000000000e+00  -2.5173304757708809e+01 -2.3379711972021312e-03 0.0000000000000000e+00  -2.5174366651114923e+01 -2.4505233797452917e-03 0.0000000000000000e+00  -2.5175497041629995e+01 -2.4823203688947837e-03 0.0000000000000000e+00  -2.5176551265496400e+01 -2.3522746895734740e-03 0.0000000000000000e+00  -2.5177402028096360e+01 -2.0956906392841940e-03 0.0000000000000000e+00  -2.5178003048163397e+01 -1.8241833012583241e-03 0.0000000000000000e+00  -2.5178383873672800e+01 -1.6138712361662845e-03 0.0000000000000000e+00  -2.5178606596154186e+01 -1.4798136794172624e-03 0.0000000000000000e+00  -2.5178730953987184e+01 -1.4044311368995809e-03 0.0000000000000000e+00  -2.5178799647236577e+01 -1.3649357007937258e-03 0.0000000000000000e+00  -2.5178838508480315e+01 -1.3445813289848325e-03 0.0000000000000000e+00  -2.5178861490727662e+01 -1.3337134263560300e-03 0.0000000000000000e+00  -2.5178875748014573e+01 -1.3274853335050198e-03 0.0000000000000000e+00  -2.5178884899866652e+01 -1.3236442002093731e-03 0.0000000000000000e+00  -2.5178890886087075e+01 -1.3211525921054653e-03 0.0000000000000000e+00  -2.5178894818641695e+01 -1.3194998649855893e-03 0.0000000000000000e+00  -2.5178897396135664e+01 -1.3184009846188660e-03 0.0000000000000000e+00  -2.5178899071340872e+01 -1.3176752353610383e-03 0.0000000000000000e+00  -2.5178900147657139e+01 -1.3171998087224814e-03 0.0000000000000000e+00  -2.5178900824913178e+01 -1.3168894938009657e-03 0.0000000000000000e+00  -2.5178901235963661e+01 -1.3166865824655160e-03 0.0000000000000000e+00  -2.5178901467359001e+01 -1.3165527966852069e-03 0.0000000000000000e+00  -2.5178901576414439e+01 -1.3164637163241390e-03 0.0000000000000000e+00  -2.5178901600866034e+01 -1.3164036504187272e-03 0.0000000000000000e+00  -2.5178901566310934e+01 -1.3163626720611888e-03 0.0000000000000000e+00  -2.5178901490243895e+01 -1.3163342285690402e-03 0.0000000000000000e+00  -2.5178901384969702e+01 -1.3163140080020639e-03 0.0000000000000000e+00  -2.5178901259198081e+01 -1.3162989511380811e-03 0.0000000000000000e+00  -2.5178901119247115e+01 -1.3162868516057231e-03 0.0000000000000000e+00  -2.5178900969826898e+01 -1.3162760926582059e-03 0.00000