<?xml version="1.0"?>
<VTKFile type="UnstructuredGrid"  version="0.1"  >
<UnstructuredGrid>
<Piece  NumberOfPoints="1369" NumberOfCells="2560">
<Points>
<DataArray  type="Float64"  NumberOfComponents="3"  format="ascii">0 0 0  0.75 0 0  1.5 0 0  2.25 0 0  3 0 0  3.75 0 0  4.5 0 0  5.25 0 0  6 0 0  6.75 0 0  7.5 0 0  8.25 0 0  9 0 0  9.75 0 0  10.5 0 0  11.25 0 0  12 0 0  12.75 0 0  13.5 0 0  14.25 0 0  15 0 0  15.75 0 0  16.5 0 0  17.25 0 0  18 0 0  18.75 0 0  19.5 0 0  20.25 0 0  21 0 0  21.75 0 0  22.5 0 0  23.25 0 0  24 0 0  24.75 0 0  25.5 0 0  26.25 0 0  27 0 0  27.75 0 0  28.5 0 0  29.25 0 0  30 0 0  30.75 0 0  31.5 0 0  32.25 0 0  33 0 0  33.75 0 0  34.5 0 0  35.25 0 0  36 0 0  36.75 0 0  37.5 0 0  38.25 0 0  39 0 0  39.75 0 0  40.5 0 0  41.25 0 0  42 0 0  42.75 0 0  43.5 0 0  44.25 0 0  45 0 0  45.75 0 0  46.5 0 0  47.25 0 0  48 0 0  48.75 0 0  49.5 0 0  50.25 0 0  51 0 0  51.75 0 0  52.5 0 0  53.25 0 0  54 0 0  54.75 0 0  55.5 0 0  56.25 0 0  57 0 0  57.75 0 0  58.5 0 0  59.25 0 0  60 0 0  0 0.5 0  0.75 0.5 0  1.5 0.5 0  2.25 0.5 0  3 0.5 0  3.75 0.5 0  4.5 0.5 0  5.25 0.5 0  6 0.5 0  6.75 0.5 0  7.5 0.5 0  8.25 0.5 0  9 0.5 0  9.75 0.5 0  10.5 0.5 0  11.25 0.5 0  12 0.5 0  12.75 0.5 0  13.5 0.5 0  14.25 0.5 0  15 0.5 0  15.75 0.5 0  16.5 0.5 0  17.25 0.5 0  18 0.5 0  18.75 0.5 0  19.5 0.5 0  20.25 0.5 0  21 0.5 0  21.75 0.5 0  22.5 0.5 0  23.25 0.5 0  24 0.5 0  24.75 0.5 0  25.5 0.5 0  26.25 0.5 0  27 0.5 0  27.75 0.5 0  28.5 0.5 0  29.25 0.5 0  30 0.5 0  30.75 0.5 0  31.5 0.5 0  32.25 0.5 0  33 0.5 0  33.75 0.5 0  34.5 0.5 0  35.25 0.5 0  36 0.5 0  36.75 0.5 0  37.5 0.5 0  38.25 0.5 0  39 0.5 0  39.75 0.5 0  40.5 0.5 0  41.25 0.5 0  42 0.5 0  42.75 0.5 0  43.5 0.5 0  44.25 0.5 0  45 0.5 0  45.75 0.5 0  46.5 0.5 0  47.25 0.5 0  48 0.5 0  48.75 0.5 0  49.5 0.5 0  50.25 0.5 0  51 0.5 0  51.75 0.5 0  52.5 0.5 0  53.25 0.5 0  54 0.5 0  54.75 0.5 0  55.5 0.5 0  56.25 0.5 0  57 0.5 0  57.75 0.5 0  58.5 0.5 0  59.25 0.5 0  60 0.5 0  0 1 0  0.75 1 0  1.5 1 0  2.25 1 0  3 1 0  3.75 1 0  4.5 1 0  5.25 1 0  6 1 0  6.75 1 0  7.5 1 0  8.25 1 0  9 1 0  9.75 1 0  10.5 1 0  11.25 1 0  12 1 0  12.75 1 0  13.5 1 0  14.25 1 0  15 1 0  15.75 1 0  16.5 1 0  17.25 1 0  18 1 0  18.75 1 0  19.5 1 0  20.25 1 0  21 1 0  21.75 1 0  22.5 1 0  23.25 1 0  24 1 0  24.75 1 0  25.5 1 0  26.25 1 0  27 1 0  27.75 1 0  28.5 1 0  29.25 1 0  30 1 0  30.75 1 0  31.5 1 0  32.25 1 0  33 1 0  33.75 1 0  34.5 1 0  35.25 1 0  36 1 0  36.75 1 0  37.5 1 0  38.25 1 0  39 1 0  39.75 1 0  40.5 1 0  41.25 1 0  42 1 0  42.75 1 0  43.5 1 0  44.25 1 0  45 1 0  45.75 1 0  46.5 1 0  47.25 1 0  48 1 0  48.75 1 0  49.5 1 0  50.25 1 0  51 1 0  51.75 1 0  52.5 1 0  53.25 1 0  54 1 0  54.75 1 0  55.5 1 0  56.25 1 0  57 1 0  57.75 1 0  58.5 1 0  59.25 1 0  60 1 0  0 1.5 0  0.75 1.5 0  1.5 1.5 0  2.25 1.5 0  3 1.5 0  3.75 1.5 0  4.5 1.5 0  5.25 1.5 0  6 1.5 0  6.75 1.5 0  7.5 1.5 0  8.25 1.5 0  9 1.5 0  9.75 1.5 0  10.5 1.5 0  11.25 1.5 0  12 1.5 0  12.75 1.5 0  13.5 1.5 0  14.25 1.5 0  15 1.5 0  15.75 1.5 0  16.5 1.5 0  17.25 1.5 0  18 1.5 0  18.75 1.5 0  19.5 1.5 0  20.25 1.5 0  21 1.5 0  21.75 1.5 0  22.5 1.5 0  23.25 1.5 0  24 1.5 0  24.75 1.5 0  25.5 1.5 0  26.25 1.5 0  27 1.5 0  27.75 1.5 0  28.5 1.5 0  29.25 1.5 0  30 1.5 0  30.75 1.5 0  31.5 1.5 0  32.25 1.5 0  33 1.5 0  33.75 1.5 0  34.5 1.5 0  35.25 1.5 0  36 1.5 0  36.75 1.5 0  37.5 1.5 0  38.25 1.5 0  39 1.5 0  39.75 1.5 0  40.5 1.5 0  41.25 1.5 0  42 1.5 0  42.75 1.5 0  43.5 1.5 0  44.25 1.5 0  45 1.5 0  45.75 1.5 0  46.5 1.5 0  47.25 1.5 0  48 1.5 0  48.75 1.5 0  49.5 1.5 0  50.25 1.5 0  51 1.5 0  51.75 1.5 0  52.5 1.5 0  53.25 1.5 0  54 1.5 0  54.75 1.5 0  55.5 1.5 0  56.25 1.5 0  57 1.5 0  57.75 1.5 0  58.5 1.5 0  59.25 1.5 0  60 1.5 0  0 2 0  0.75 2 0  1.5 2 0  2.25 2 0  3 2 0  3.75 2 0  4.5 2 0  5.25 2 0  6 2 0  6.75 2 0  7.5 2 0  8.25 2 0  9 2 0  9.75 2 0  10.5 2 0  11.25 2 0  12 2 0  12.75 2 0  13.5 2 0  14.25 2 0  15 2 0  15.75 2 0  16.5 2 0  17.25 2 0  18 2 0  18.75 2 0  19.5 2 0  20.25 2 0  21 2 0  21.75 2 0  22.5 2 0  23.25 2 0  24 2 0  24.75 2 0  25.5 2 0  26.25 2 0  27 2 0  27.75 2 0  28.5 2 0  29.25 2 0  30 2 0  30.75 2 0  31.5 2 0  32.25 2 0  33 2 0  33.75 2 0  34.5 2 0  35.25 2 0  36 2 0  36.75 2 0  37.5 2 0  38.25 2 0  39 2 0  39.75 2 0  40.5 2 0  41.25 2 0  42 2 0  42.75 2 0  43.5 2 0  44.25 2 0  45 2 0  45.75 2 0  46.5 2 0  47.25 2 0  48 2 0  48.75 2 0  49.5 2 0  50.25 2 0  51 2 0  51.75 2 0  52.5 2 0  53.25 2 0  54 2 0  54.75 2 0  55.5 2 0  56.25 2 0  57 2 0  57.75 2 0  58.5 2 0  59.25 2 0  60 2 0  0 2.5 0  0.75 2.5 0  1.5 2.5 0  2.25 2.5 0  3 2.5 0  3.75 2.5 0  4.5 2.5 0  5.25 2.5 0  6 2.5 0  6.75 2.5 0  7.5 2.5 0  8.25 2.5 0  9 2.5 0  9.75 2.5 0  10.5 2.5 0  11.25 2.5 0  12 2.5 0  12.75 2.5 0  13.5 2.5 0  14.25 2.5 0  15 2.5 0  15.75 2.5 0  16.5 2.5 0  17.25 2.5 0  18 2.5 0  18.75 2.5 0  19.5 2.5 0  20.25 2.5 0  21 2.5 0  21.75 2.5 0  22.5 2.5 0  23.25 2.5 0  24 2.5 0  24.75 2.5 0  25.5 2.5 0  26.25 2.5 0  27 2.5 0  27.75 2.5 0  28.5 2.5 0  29.25 2.5 0  30 2.5 0  30.75 2.5 0  31.5 2.5 0  32.25 2.5 0  33 2.5 0  33.75 2.5 0  34.5 2.5 0  35.25 2.5 0  36 2.5 0  36.75 2.5 0  37.5 2.5 0  38.25 2.5 0  39 2.5 0  39.75 2.5 0  40.5 2.5 0  41.25 2.5 0  42 2.5 0  42.75 2.5 0  43.5 2.5 0  44.25 2.5 0  45 2.5 0  45.75 2.5 0  46.5 2.5 0  47.25 2.5 0  48 2.5 0  48.75 2.5 0  49.5 2.5 0  50.25 2.5 0  51 2.5 0  51.75 2.5 0  52.5 2.5 0  53.25 2.5 0  54 2.5 0  54.75 2.5 0  55.5 2.5 0  56.25 2.5 0  57 2.5 0  57.75 2.5 0  58.5 2.5 0  59.25 2.5 0  60 2.5 0  0 3 0  0.75 3 0  1.5 3 0  2.25 3 0  3 3 0  3.75 3 0  4.5 3 0  5.25 3 0  6 3 0  6.75 3 0  7.5 3 0  8.25 3 0  9 3 0  9.75 3 0  10.5 3 0  11.25 3 0  12 3 0  12.75 3 0  13.5 3 0  14.25 3 0  15 3 0  15.75 3 0  16.5 3 0  17.25 3 0  18 3 0  18.75 3 0  19.5 3 0  20.25 3 0  21 3 0  21.75 3 0  22.5 3 0  23.25 3 0  24 3 0  24.75 3 0  25.5 3 0  26.25 3 0  27 3 0  27.75 3 0  28.5 3 0  29.25 3 0  30 3 0  30.75 3 0  31.5 3 0  32.25 3 0  33 3 0  33.75 3 0  34.5 3 0  35.25 3 0  36 3 0  36.75 3 0  37.5 3 0  38.25 3 0  39 3 0  39.75 3 0  40.5 3 0  41.25 3 0  42 3 0  42.75 3 0  43.5 3 0  44.25 3 0  45 3 0  45.75 3 0  46.5 3 0  47.25 3 0  48 3 0  48.75 3 0  49.5 3 0  50.25 3 0  51 3 0  51.75 3 0  52.5 3 0  53.25 3 0  54 3 0  54.75 3 0  55.5 3 0  56.25 3 0  57 3 0  57.75 3 0  58.5 3 0  59.25 3 0  60 3 0  0 3.5 0  0.75 3.5 0  1.5 3.5 0  2.25 3.5 0  3 3.5 0  3.75 3.5 0  4.5 3.5 0  5.25 3.5 0  6 3.5 0  6.75 3.5 0  7.5 3.5 0  8.25 3.5 0  9 3.5 0  9.75 3.5 0  10.5 3.5 0  11.25 3.5 0  12 3.5 0  12.75 3.5 0  13.5 3.5 0  14.25 3.5 0  15 3.5 0  15.75 3.5 0  16.5 3.5 0  17.25 3.5 0  18 3.5 0  18.75 3.5 0  19.5 3.5 0  20.25 3.5 0  21 3.5 0  21.75 3.5 0  22.5 3.5 0  23.25 3.5 0  24 3.5 0  24.75 3.5 0  25.5 3.5 0  26.25 3.5 0  27 3.5 0  27.75 3.5 0  28.5 3.5 0  29.25 3.5 0  30 3.5 0  30.75 3.5 0  31.5 3.5 0  32.25 3.5 0  33 3.5 0  33.75 3.5 0  34.5 3.5 0  35.25 3.5 0  36 3.5 0  36.75 3.5 0  37.5 3.5 0  38.25 3.5 0  39 3.5 0  39.75 3.5 0  40.5 3.5 0  41.25 3.5 0  42 3.5 0  42.75 3.5 0  43.5 3.5 0  44.25 3.5 0  45 3.5 0  45.75 3.5 0  46.5 3.5 0  47.25 3.5 0  48 3.5 0  48.75 3.5 0  49.5 3.5 0  50.25 3.5 0  51 3.5 0  51.75 3.5 0  52.5 3.5 0  53.25 3.5 0  54 3.5 0  54.75 3.5 0  55.5 3.5 0  56.25 3.5 0  57 3.5 0  57.75 3.5 0  58.5 3.5 0  59.25 3.5 0  60 3.5 0  0 4 0  0.75 4 0  1.5 4 0  2.25 4 0  3 4 0  3.75 4 0  4.5 4 0  5.25 4 0  6 4 0  6.75 4 0  7.5 4 0  8.25 4 0  9 4 0  9.75 4 0  10.5 4 0  11.25 4 0  12 4 0  12.75 4 0  13.5 4 0  14.25 4 0  15 4 0  15.75 4 0  16.5 4 0  17.25 4 0  18 4 0  18.75 4 0  19.5 4 0  20.25 4 0  21 4 0  21.75 4 0  22.5 4 0  23.25 4 0  24 4 0  24.75 4 0  25.5 4 0  26.25 4 0  27 4 0  27.75 4 0  28.5 4 0  29.25 4 0  30 4 0  30.75 4 0  31.5 4 0  32.25 4 0  33 4 0  33.75 4 0  34.5 4 0  35.25 4 0  36 4 0  36.75 4 0  37.5 4 0  38.25 4 0  39 4 0  39.75 4 0  40.5 4 0  41.25 4 0  42 4 0  42.75 4 0  43.5 4 0  44.25 4 0  45 4 0  45.75 4 0  46.5 4 0  47.25 4 0  48 4 0  48.75 4 0  49.5 4 0  50.25 4 0  51 4 0  51.75 4 0  52.5 4 0  53.25 4 0  54 4 0  54.75 4 0  55.5 4 0  56.25 4 0  57 4 0  57.75 4 0  58.5 4 0  59.25 4 0  60 4 0  0.375 0.25 0  1.125 0.25 0  1.875 0.25 0  2.625 0.25 0  3.375 0.25 0  4.125 0.25 0  4.875 0.25 0  5.625 0.25 0  6.375 0.25 0  7.125 0.25 0  7.875 0.25 0  8.625 0.25 0  9.375 0.25 0  10.125 0.25 0  10.875 0.25 0  11.625 0.25 0  12.375 0.25 0  13.125 0.25 0  13.875 0.25 0  14.625 0.25 0  15.375 0.25 0  16.125 0.25 0  16.875 0.25 0  17.625 0.25 0  18.375 0.25 0  19.125 0.25 0  19.875 0.25 0  20.625 0.25 0  21.375 0.25 0  22.125 0.25 0  22.875 0.25 0  23.625 0.25 0  24.375 0.25 0  25.125 0.25 0  25.875 0.25 0  26.625 0.25 0  27.375 0.25 0  28.125 0.25 0  28.875 0.25 0  29.625 0.25 0  30.375 0.25 0  31.125 0.25 0  31.875 0.25 0  32.625 0.25 0  33.375 0.25 0  34.125 0.25 0  34.875 0.25 0  35.625 0.25 0  36.375 0.25 0  37.125 0.25 0  37.875 0.25 0  38.625 0.25 0  39.375 0.25 0  40.125 0.25 0  40.875 0.25 0  41.625 0.25 0  42.375 0.25 0  43.125 0.25 0  43.875 0.25 0  44.625 0.25 0  45.375 0.25 0  46.125 0.25 0  46.875 0.25 0  47.625 0.25 0  48.375 0.25 0  49.125 0.25 0  49.875 0.25 0  50.625 0.25 0  51.375 0.25 0  52.125 0.25 0  52.875 0.25 0  53.625 0.25 0  54.375 0.25 0  55.125 0.25 0  55.875 0.25 0  56.625 0.25 0  57.375 0.25 0  58.125 0.25 0  58.875 0.25 0  59.625 0.25 0  0.375 0.75 0  1.125 0.75 0  1.875 0.75 0  2.625 0.75 0  3.375 0.75 0  4.125 0.75 0  4.875 0.75 0  5.625 0.75 0  6.375 0.75 0  7.125 0.75 0  7.875 0.75 0  8.625 0.75 0  9.375 0.75 0  10.125 0.75 0  10.875 0.75 0  11.625 0.75 0  12.375 0.75 0  13.125 0.75 0  13.875 0.75 0  14.625 0.75 0  15.375 0.75 0  16.125 0.75 0  16.875 0.75 0  17.625 0.75 0  18.375 0.75 0  19.125 0.75 0  19.875 0.75 0  20.625 0.75 0  21.375 0.75 0  22.125 0.75 0  22.875 0.75 0  23.625 0.75 0  24.375 0.75 0  25.125 0.75 0  25.875 0.75 0  26.625 0.75 0  27.375 0.75 0  28.125 0.75 0  28.875 0.75 0  29.625 0.75 0  30.375 0.75 0  31.125 0.75 0  31.875 0.75 0  32.625 0.75 0  33.375 0.75 0  34.125 0.75 0  34.875 0.75 0  35.625 0.75 0  36.375 0.75 0  37.125 0.75 0  37.875 0.75 0  38.625 0.75 0  39.375 0.75 0  40.125 0.75 0  40
[...]
<PointData  Vectors="f_8-0"> 
<DataArray  type="Float64"  Name="f_8-0"  NumberOfComponents="3" format="ascii">0.0000000000000000e+00 0.0000000000000000e+00 0.0000000000000000e+00  0.0000000000000000e+00 0.0000000000000000e+00 0.0000000000000000e+00  0.0000000000000000e+00 0.0000000000000000e+00 0.0000000000000000e+00  0.0000000000000000e+00 0.0000000000000000e+00 0.0000000000000000e+00  0.0000000000000000e+00 0.0000000000000000e+00 0.0000000000000000e+00  0.0000000000000000e+00 0.0000000000000000e+00 0.0000000000000000e+00  0.0000000000000000e+00 0.0000000000000000e+00 0.0000000000000000e+00  0.0000000000000000e+00 0.0000000000000000e+00 0.0000000000000000e+00  0.0000000000000000e+00 0.0000000000000000e+00 0.0000000000000000e+00  0.0000000000000000e+00 0.0000000000000000e+00 0.0000000000000000e+00  0.0000000000000000e+00 0.0000000000000000e+00 0.0000000000000000e+00  0.0000000000000000e+00 0.0000000000000000e+00 0.0000000000000000e+00  0.0000000000000000e+00 0.0000000000000000e+00 0.0000000000000000e+00  0.0000000000000000e+00 0.0000000000000000e+00 0.0000000000000000e+00  0.0000000000000000e+00 0.0000000000000000e+00 0.0000000000000000e+00  0.0000000000000000e+00 0.0000000000000000e+00 0.0000000000000000e+00  0.0000000000000000e+00 0.0000000000000000e+00 0.0000000000000000e+00  0.0000000000000000e+00 0.0000000000000000e+00 0.0000000000000000e+00  0.0000000000000000e+00 0.0000000000000000e+00 0.0000000000000000e+00  0.0000000000000000e+00 0.0000000000000000e+00 0.0000000000000000e+00  0.0000000000000000e+00 0.0000000000000000e+00 0.0000000000000000e+00  0.0000000000000000e+00 0.0000000000000000e+00 0.0000000000000000e+00  0.0000000000000000e+00 0.0000000000000000e+00 0.0000000000000000e+00  0.0000000000000000e+00 0.0000000000000000e+00 0.0000000000000000e+00  0.0000000000000000e+00 0.0000000000000000e+00 0.0000000000000000e+00  0.0000000000000000e+00 0.0000000000000000e+00 0.0000000000000000e+00  0.0000000000000000e+00 0.0000000000000000e+00 0.0000000000000000e+00  0.0000000000000000e+00 0.0000000000000000e+00 0.0000000000000000e+00  0.0000000000000000e+00 0.0000000000000000e+00 0.0000000000000000e+00  0.0000000000000000e+00 0.0000000000000000e+00 0.0000000000000000e+00  0.0000000000000000e+00 0.0000000000000000e+00 0.0000000000000000e+00  0.0000000000000000e+00 0.0000000000000000e+00 0.0000000000000000e+00  0.0000000000000000e+00 0.0000000000000000e+00 0.0000000000000000e+00  0.0000000000000000e+00 0.0000000000000000e+00 0.0000000000000000e+00  0.0000000000000000e+00 0.0000000000000000e+00 0.0000000000000000e+00  0.0000000000000000e+00 0.0000000000000000e+00 0.0000000000000000e+00  0.0000000000000000e+00 0.0000000000000000e+00 0.0000000000000000e+00  0.0000000000000000e+00 0.0000000000000000e+00 0.0000000000000000e+00  0.0000000000000000e+00 0.0000000000000000e+00 0.0000000000000000e+00  0.0000000000000000e+00 0.0000000000000000e+00 0.0000000000000000e+00  0.0000000000000000e+00 0.0000000000000000e+00 0.0000000000000000e+00  0.0000000000000000e+00 0.0000000000000000e+00 0.0000000000000000e+00  0.0000000000000000e+00 0.0000000000000000e+00 0.0000000000000000e+00  0.0000000000000000e+00 0.0000000000000000e+00 0.0000000000000000e+00  0.0000000000000000e+00 0.0000000000000000e+00 0.0000000000000000e+00  0.0000000000000000e+00 0.0000000000000000e+00 0.0000000000000000e+00  0.0000000000000000e+00 0.0000000000000000e+00 0.0000000000000000e+00  0.0000000000000000e+00 0.0000000000000000e+00 0.0000000000000000e+00  0.0000000000000000e+00 0.0000000000000000e+00 0.0000000000000000e+00  0.0000000000000000e+00 0.0000000000000000e+00 0.0000000000000000e+00  0.0000000000000000e+00 0.0000000000000000e+00 0.0000000000000000e+00  0.0000000000000000e+00 0.0000000000000000e+00 0.0000000000000000e+00  0.0000000000000000e+00 0.0000000000000000e+00 0.0000000000000000e+00  0.0000000000000000e+00 0.0000000000000000e+00 0.0000000000000000e+00  0.0000000000000000e+00 0.0000000000000000e+00 0.0000000000000000e+00  0.0000000000000000e+00 0.0000000000000000e+00 0.0000000000000000e+00  0.0000000000000000e+00 0.0000000000000000e+00 0.0000000000000000e+00  0.0000000000000000e+00 0.0000000000000000e+00 0.0000000000000000e+00  0.0000000000000000e+00 0.0000000000000000e+00 0.0000000000000000e+00  0.0000000000000000e+00 0.0000000000000000e+00 0.0000000000000000e+00  0.0000000000000000e+00 0.0000000000000000e+00 0.0000000000000000e+00  0.0000000000000000e+00 0.0000000000000000e+00 0.0000000000000000e+00  0.0000000000000000e+00 0.0000000000000000e+00 0.0000000000000000e+00  0.0000000000000000e+00 0.0000000000000000e+00 0.0000000000000000e+00  0.0000000000000000e+00 0.0000000000000000e+00 0.0000000000000000e+00  0.0000000000000000e+00 0.0000000000000000e+00 0.0000000000000000e+00  0.0000000000000000e+00 0.0000000000000000e+00 0.0000000000000000e+00  0.0000000000000000e+00 0.0000000000000000e+00 0.0000000000000000e+00  0.0000000000000000e+00 0.0000000000000000e+00 0.0000000000000000e+00  0.0000000000000000e+00 0.0000000000000000e+00 0.0000000000000000e+00  0.0000000000000000e+00 0.0000000000000000e+00 0.0000000000000000e+00  0.0000000000000000e+00 0.0000000000000000e+00 0.0000000000000000e+00  0.0000000000000000e+00 0.0000000000000000e+00 0.0000000000000000e+00  0.0000000000000000e+00 0.0000000000000000e+00 0.0000000000000000e+00  0.0000000000000000e+00 0.0000000000000000e+00 0.0000000000000000e+00  0.0000000000000000e+00 0.0000000000000000e+00 0.0000000000000000e+00  0.0000000000000000e+00 0.0000000000000000e+00 0.0000000000000000e+00  0.0000000000000000e+00 0.0000000000000000e+00 0.0000000000000000e+00  0.0000000000000000e+00 0.0000000000000000e+00 0.0000000000000000e+00  0.0000000000000000e+00 0.0000000000000000e+00 0.0000000000000000e+00  0.0000000000000000e+00 0.0000000000000000e+00 0.0000000000000000e+00  2.4654343895630646e+01 0.0000000000000000e+00 0.0000000000000000e+00  2.4642389455758011e+01 7.0228359563761916e-02 0.0000000000000000e+00  2.4651805491827517e+01 3.4891657005818859e-02 0.0000000000000000e+00  2.4625697462050034e+01 6.3195255767214123e-03 0.0000000000000000e+00  2.4621766405761910e+01 4.6834852363886754e-03 0.0000000000000000e+00  2.4623473531783155e+01 3.6573581998437569e-03 0.0000000000000000e+00  2.4622801001403019e+01 4.4140587524328445e-03 0.0000000000000000e+00  2.4623818274297427e+01 4.3587773510579105e-03 0.0000000000000000e+00  2.4623372936620829e+01 4.4213529815427541e-03 0.0000000000000000e+00  2.4623704330543916e+01 4.4257333921760471e-03 0.0000000000000000e+00  2.4623569278491328e+01 4.4295811346579325e-03 0.0000000000000000e+00  2.4623649924522123e+01 4.4318291271093621e-03 0.0000000000000000e+00  2.4623622005456955e+01 4.4324802990232818e-03 0.0000000000000000e+00  2.4623637989609225e+01 4.4329315526158136e-03 0.0000000000000000e+00  2.4623633623417263e+01 4.4331611464702991e-03 0.0000000000000000e+00  2.4623636517721742e+01 4.4332485402312225e-03 0.0000000000000000e+00  2.4623636082868874e+01 4.4333148603084363e-03 0.0000000000000000e+00  2.4623636675631840e+01 4.4333347019375044e-03 0.0000000000000000e+00  2.4623636764137526e+01 4.4333506397633057e-03 0.0000000000000000e+00  2.4623636978839308e+01 4.4333553648258587e-03 0.0000000000000000e+00  2.4623637119753088e+01 4.4333586813858411e-03 0.0000000000000000e+00  2.4623637273850893e+01 4.4333596382966686e-03 0.0000000000000000e+00  2.4623637417413306e+01 4.4333601653776273e-03 0.0000000000000000e+00  2.4623637562201118e+01 4.4333602442996360e-03 0.0000000000000000e+00  2.4623637705671204e+01 4.4333602199237831e-03 0.0000000000000000e+00  2.4623637849394751e+01 4.4333601449600578e-03 0.0000000000000000e+00  2.4623637993089776e+01 4.4333600618832623e-03 0.0000000000000000e+00  2.4623638136924903e+01 4.4333599725170690e-03 0.0000000000000000e+00  2.4623638280867144e+01 4.4333598963483033e-03 0.0000000000000000e+00  2.4623638424902271e+01 4.4333598305772871e-03 0.0000000000000000e+00  2.4623638569002310e+01 4.4333597682560608e-03 0.0000000000000000e+00  2.4623638713164571e+01 4.4333597184356343e-03 0.0000000000000000e+00  2.4623638857357857e+01 4.4333596654276674e-03 0.0000000000000000e+00  2.4623639001583026e+01 4.4333596200975501e-03 0.0000000000000000e+00  2.4623639145823429e+01 4.4333595766868870e-03 0.0000000000000000e+00  2.4623639290069537e+01 4.4333595335361827e-03 0.0000000000000000e+00  2.4623639434331256e+01 4.4333594935501049e-03 0.0000000000000000e+00  2.4623639578592449e+01 4.4333594524067019e-03 0.0000000000000000e+00  2.4623639722855344e+01 4.4333594108156580e-03 0.0000000000000000e+00  2.4623639867125959e+01 4.4333593730289268e-03 0.0000000000000000e+00  2.4623640011392087e+01 4.4333593364762934e-03 0.0000000000000000e+00  2.4623640155652868e+01 4.4333592955501855e-03 0.0000000000000000e+00  2.4623640299906782e+01 4.4333592612274221e-03 0.0000000000000000e+00  2.4623640444155772e+01 4.4333592204969892e-03 0.0000000000000000e+00  2.4623640588388838e+01 4.4333591915587120e-03 0.0000000000000000e+00  2.4623640732597721e+01 4.4333591497813058e-03 0.0000000000000000e+00  2.4623640876788389e+01 4.4333591177361624e-03 0.0000000000000000e+00  2.4623641020946771e+01 4.4333590665480115e-03 0.0000000000000000e+00  2.4623641165095453e+01 4.4333590227062904e-03 0.0000000000000000e+00  2.4623641309223185e+01 4.4333589152688244e-03 0.0000000000000000e+00  2.4623641453472715e+01 4.4333587531893140e-03 0.0000000000000000e+00  2.4623641597933833e+01 4.4333583880358067e-03 0.0000000000000000e+00  2.4623641743238757e+01 4.4333576560220229e-03 0.0000000000000000e+00  2.4623641890099588e+01 4.4333561312243355e-03 0.0000000000000000e+00  2.4623642041081009e+01 4.4333528664795181e-03 0.0000000000000000e+00  2.4623642200050284e+01 4.4333462485965985e-03 0.0000000000000000e+00  2.4623642377411315e+01 4.4333320053885515e-03 0.0000000000000000e+00  2.4623642591402465e+01 4.4333031139621119e-03 0.0000000000000000e+00  2.4623642885034531e+01 4.4332407772992100e-03 0.0000000000000000e+00  2.4623643341120996e+01 4.4331107356717818e-03 0.0000000000000000e+00  2.4623644149712899e+01 4.4328204955342105e-03 0.0000000000000000e+00  2.4623645725249929e+01 4.4321668189374608e-03 0.0000000000000000e+00  2.4623649097439543e+01 4.4305978993479369e-03 0.0000000000000000e+00  2.4623656836269610e+01 4.4268065069540024e-03 0.0000000000000000e+00  2.4623675526324273e+01 4.4176590243033362e-03 0.0000000000000000e+00  2.4623721001434994e+01 4.3967993329520425e-03 0.0000000000000000e+00  2.4623828227973913e+01 4.3529399456695810e-03 0.0000000000000000e+00  2.4624064177203056e+01 4.2715924374310292e-03 0.0000000000000000e+00  2.4624534455699436e+01 4.1437598068398964e-03 0.0000000000000000e+00  2.4625356909892783e+01 3.9873825117551793e-03 0.0000000000000000e+00  2.4626576056122385e+01 3.8628781117857965e-03 0.0000000000000000e+00  2.4628051972215445e+01 3.8495731611098830e-03 0.0000000000000000e+00  2.4629477771802172e+01 3.9690448518541459e-03 0.0000000000000000e+00  2.4630566191895081e+01 4.1901395940679475e-03 0.0000000000000000e+00  2.4631089705941196e+01 4.5412932434506295e-03 0.0000000000000000e+00  2.4630673798748642e+01 5.1229947713709902e-03 0.0000000000000000e+00  2.4628744195497212e+01 5.9790269646222164e-03 0.0000000000000000e+00  2.4624465096651836e+01 7.0821422442884016e-03 0.0000000000000000e+00  2.4616217321605035e+01 7.8857093975100694e-03 0.0000000000000000e+00  2.4597850186816149e+01 5.4447219456018091e-03 0.0000000000000000e+00  2.4576490544528394e+01 0.0000000000000000e+00 0.0000000000000000e+00  2.4595979973078553e+01 0.0000000000000000e+00 0.0000000000000000e+00  2.4525238763023800e+01 -1.5491185438658239e-02 0.0000000000000000e+00  2.4580170014193385e+01 1.4300561016231287e-02 0.0000000000000000e+00  2.4590822383894082e+01 4.0998555811242142e-03 0.0000000000000000e+00  2.4595095372697486e+01 3.5439234630742695e-05 0.0000000000000000e+00  2.4593417104685710e+01 -1.0739573057679060e-03 0.0000000000000000e+00  2.4594082363089150e+01 -1.8832514666468811e-04 0.0000000000000000e+00  2.4593721714151179e+01 -4.5547284681124261e-04 0.0000000000000000e+00  2.4594015828642856e+01 -1.6360621083479600e-04 0.0000000000000000e+00  2.4593894583440029e+01 -2.5112639581792727e-04 0.0000000000000000e+00  2.4593982198185767e+01 -1.8660335594898229e-04 0.0000000000000000e+00  2.4593950866256204e+01 -2.0328936422326269e-04 0.0000000000000000e+00  2.4593971530771189e+01 -1.9117786897644836e-04 0.0000000000000000e+00  2.4593965490776306e+01 -1.9329755951808634e-04 0.0000000000000000e+00  2.4593969698207623e+01 -1.9116829651773449e-04 0.0000000000000000e+00  2.4593968860244019e+01 -1.9128283639691888e-04 0.0000000000000000e+00  2.4593969705345003e+01 -1.9090345751999303e-04 0.0000000000000000e+00  2.4593969700298583e+01 -1.9086923396154012e-04 0.0000000000000000e+00  2.4593969933027736e+01 -1.9079830793007228e-04 0.0000000000000000e+00  2.4593970032599263e+01 -1.9078276859576244e-04 0.0000000000000000e+00  2.4593970161716957e+01 -1.9076928878143979e-04 0.0000000000000000e+00  2.4593970271323588e+01 -1.9076536207265042e-04 0.0000000000000000e+00  2.4593970384566774e+01 -1.9076307931533527e-04 0.0000000000000000e+00  2.4593970495439603e+01 -1.9076248640483243e-04 0.0000000000000000e+00  2.4593970607076770e+01 -1.9076230950275538e-04 0.0000000000000000e+00  2.4593970718728098e+01 -1.9076239082719428e-04 0.0000000000000000e+00  2.4593970830728171e+01 -1.9076251541494862e-04 0.0000000000000000e+00  2.4593970942926227e+01 -1.9076262693349947e-04 0.0000000000000000e+00  2.4593971055321610e+01 -1.9076272853335130e-04 0.0000000000000000e+00  2.4593971167851713e+01 -1.9076280005743082e-04 0.0000000000000000e+00  2.4593971280485874e+01 -1.9076283407039814e-04 0.0000000000000000e+00  2.4593971393197005e+01 -1.9076286516335556e-04 0.0000000000000000e+00  2.4593971505958272e+01 -1.9076286687222345e-04 0.0000000000000000e+00  2.4593971618756967e+01 -1.9076287013944173e-04 0.0000000000000000e+00  2.4593971731574900e+01 -1.9076285446644595e-04 0.0000000000000000e+00  2.4593971844408866e+01 -1.9076282864946158e-04 0.0000000000000000e+00  2.4593971957252897e+01 -1.9076281771689900e-04 0.0000000000000000e+00  2.4593972070094690e+01 -1.9076278379092973e-04 0.0000000000000000e+00  2.4593972182939087e+01 -1.9076275489627545e-04 0.0000000000000000e+00  2.4593972295785328e+01 -1.9076272958162160e-04 0.0000000000000000e+00  2.4593972408622591e+01 -1.9076269101407005e-04 0.0000000000000000e+00  2.4593972521448208e+01 -1.9076265619016712e-04 0.0000000000000000e+00  2.4593972634247027e+01 -1.9076260889486788e-04 0.0000000000000000e+00  2.4593972747022910e+01 -1.9076256900351694e-04 0.0000000000000000e+00  2.4593972859743403e+01 -1.9076250462812835e-04 0.0000000000000000e+00  2.4593972972403691e+01 -1.9076244560809367e-04 0.0000000000000000e+00  2.4593973084946409e+01 -1.9076235459056622e-04 0.0000000000000000e+00  2.4593973197366619e+01 -1.9076228332437647e-04 0.0000000000000000e+00  2.4593973309555437e+01 -1.9076217627863253e-04 0.0000000000000000e+00  2.4593973421475944e+01 -1.9076212877960636e-04 0.0000000000000000e+00  2.4593973532955193e+01 -1.9076213565323821e-04 0.0000000000000000e+00  2.4593973643910974e+01 -1.9076243252765036e-04 0.0000000000000000e+00  2.4593973754157307e+01 -1.9076330363831644e-04 0.0000000000000000e+00  2.4593973863557753e+01 -1.9076553923476970e-04 0.0000000000000000e+00  2.4593973972269218e+01 -1.9077078263334921e-04 0.0000000000000000e+00  2.4593974080462822e+01 -1.9078225259487071e-04 0.0000000000000000e+00  2.4593974190305111e+01 -1.9080752734790347e-04 0.0000000000000000e+00  2.4593974304563915e+01 -1.9086057705156251e-04 0.0000000000000000e+00  2.4593974434297245e+01 -1.9097518365845947e-04 0.0000000000000000e+00  2.4593974595002290e+01 -1.9121611387729797e-04 0.0000000000000000e+00  2.4593974830304735e+01 -1.9174482905597240e-04 0.0000000000000000e+00  2.4593975204312020e+01 -1.9291966648946784e-04 0.0000000000000000e+00  2.4593975891402636e+01 -1.9569399612565851e-04 0.0000000000000000e+00  2.4593977300561171e+01 -2.0242612157498225e-04 0.0000000000000000e+00  2.4593980859895073e+01 -2.1901713859071422e-04 0.0000000000000000e+00  2.4593990938782955e+01 -2.5841894283196436e-04 0.0000000000000000e+00  2.4594020269431002e+01 -3.4576837816338417e-04 0.0000000000000000e+00  2.4594099728895614e+01 -5.1901914402290885e-04 0.0000000000000000e+00  2.4594291922167315e+01 -8.1421242962133637e-04 0.0000000000000000e+00  2.4594687305039994e+01 -1.2137984165820203e-03 0.0000000000000000e+00  2.4595343580490276e+01 -1.5800021288750880e-03 0.0000000000000000e+00  2.4596170514005372e+01 -1.6868677192675543e-03 0.0000000000000000e+00  2.4596966474385390e+01 -1.4626020631701674e-03 0.0000000000000000e+00  2.4597662550044401e+01 -1.0408808870474736e-03 0.0000000000000000e+00  2.4598288477201660e+01 -3.7965724624827247e-04 0.0000000000000000e+00  2.4598761552749185e+01 7.4376653096626844e-04 0.0000000000000000e+00  2.4599000902096435e+01 2.4723786259927662e-03 0.0000000000000000e+00  2.4598776067943504e+01 5.0604915065482065e-03 0.0000000000000000e+00  2.4597636333419711e+01 8.7208928089223120e-03 0.0000000000000000e+00  2.4595983055831198e+01 1.2985648704484905e-02 0.0000000000000000e+00  2.4596637625243744e+01 0.0000000000000000e+00 0.0000000000000000e+00  2.1617058144952619e+01 0.0000000000000000e+00 0.0000000000000000e+00  2.1611420406316821e+01 8.0060633057102090e-04 0.0000000000000000e+00  2.1611687071519519e+01 -4.0943079910695139e-03 0.0000000000000000e+00  2.1617263005971928e+01 4.9324991636621053e-04 0.0000000000000000e+00  2.1616804316646139e+01 -1.8151909377409072e-03 0.0000000000000000e+00  2.1617312089129260e+01 -1.7167937930548090e-03 0.0000000000000000e+00  2.1616545361093216e+01 -1.8696526903095826e-03 0.0000000000000000e+00  2.1616608576996335e+01 -1.6118419057249945e-03 0.0000000000000000e+00  2.1616425069990463e+01 -1.6550403169604756e-03 0.0000000000000000e+00  2.1616448251151898e+01 -1.5837317387181037e-03 0.0000000000000000e+00  2.1616404718667049e+01 -1.5967081962073840e-03 0.0000000000000000e+00  2.1616409493924579e+01 -1.5805702991759396e-03 0.0000000000000000e+00  2.1616399429431400e+01 -1.5827028080895877e-03 0.0000000000000000e+00  2.1616399902927615e+01 -1.5793778732971829e-03 0.0000000000000000e+00  2.1616397716404865e+01 -1.5794966648938317e-03 0.0000000000000000e+00  2.1616397669681682e+01 -1.5788387486921646e-03 0.0000000000000000e+00  2.1616397261012704e+01 -1.5787854134233776e-03 0.0000000000000000e+00  2.1616397270093003e+01 -1.5786570224952982e-03 0.0000000000000000e+00  2.1616397255353945e+01 -1.5786333668297173e-03 0.0000000000000000e+00  2.1616397323242239e+01 -1.5786095189106789e-03 0.0000000000000000e+00  2.1616397398051848e+01 -1.5786040090882893e-03 0.0000000000000000e+00  2.1616397490443138e+01 -1.5786005614524966e-03 0.0000000000000000e+00  2.1616397587066281e+01 -1.5786001968234782e-03 0.0000000000000000e+00  2.1616397687927066e+01 -1.5786003300799728e-03 0.0000000000000000e+00  2.1616397790424639e+01 -1.5786008374317534e-03 0.0000000000000000e+00  2.1616397894108811e+01 -1.5786013477274215e-03 0.0000000000000000e+00  2.1616397998387612e+01 -1.5786017854785128e-03 0.0000000000000000e+00  2.1616398103049004e+01 -1.5786021253203499e-03 0.0000000000000000e+00  2.1616398207930850e+01 -1.5786024079065151e-03 0.0000000000000000e+00  2.1616398312949954e+01 -1.5786026164688516e-03 0.0000000000000000e+00  2.1616398418054985e+01 -1.5786027717003741e-03 0.0000000000000000e+00  2.1616398523216457e+01 -1.5786029020304891e-03 0.0000000000000000e+00  2.1616398628413204e+01 -1.5786029935776187e-03 0.0000000000000000e+00  2.1616398733632245e+01 -1.5786030712198948e-03 0.0000000000000000e+00  2.1616398838866363e+01 -1.5786031263226783e-03 0.0000000000000000e+00  2.1616398944112863e+01 -1.5786031764380324e-03 0.0000000000000000e+00  2.1616399049355710e+01 -1.5786032239139141e-03 0.0000000000000000e+00  2.1616399154602789e+01 -1.5786032508236128e-03 0.0000000000000000e+00  2.1616399259848034e+01 -1.5786032859620670e-03 0.0000000000000000e+00  2.1616399365083286e+01 -1.5786033208008774e