<?xml version="1.0"?>
<VTKFile type="UnstructuredGrid"  version="0.1"  >
<UnstructuredGrid>
<Piece  NumberOfPoints="1369" NumberOfCells="2560">
<Points>
<DataArray  type="Float64"  NumberOfComponents="3"  format="ascii">0 0 0  0.75 0 0  1.5 0 0  2.25 0 0  3 0 0  3.75 0 0  4.5 0 0  5.25 0 0  6 0 0  6.75 0 0  7.5 0 0  8.25 0 0  9 0 0  9.75 0 0  10.5 0 0  11.25 0 0  12 0 0  12.75 0 0  13.5 0 0  14.25 0 0  15 0 0  15.75 0 0  16.5 0 0  17.25 0 0  18 0 0  18.75 0 0  19.5 0 0  20.25 0 0  21 0 0  21.75 0 0  22.5 0 0  23.25 0 0  24 0 0  24.75 0 0  25.5 0 0  26.25 0 0  27 0 0  27.75 0 0  28.5 0 0  29.25 0 0  30 0 0  30.75 0 0  31.5 0 0  32.25 0 0  33 0 0  33.75 0 0  34.5 0 0  35.25 0 0  36 0 0  36.75 0 0  37.5 0 0  38.25 0 0  39 0 0  39.75 0 0  40.5 0 0  41.25 0 0  42 0 0  42.75 0 0  43.5 0 0  44.25 0 0  45 0 0  45.75 0 0  46.5 0 0  47.25 0 0  48 0 0  48.75 0 0  49.5 0 0  50.25 0 0  51 0 0  51.75 0 0  52.5 0 0  53.25 0 0  54 0 0  54.75 0 0  55.5 0 0  56.25 0 0  57 0 0  57.75 0 0  58.5 0 0  59.25 0 0  60 0 0  0 0.5 0  0.75 0.5 0  1.5 0.5 0  2.25 0.5 0  3 0.5 0  3.75 0.5 0  4.5 0.5 0  5.25 0.5 0  6 0.5 0  6.75 0.5 0  7.5 0.5 0  8.25 0.5 0  9 0.5 0  9.75 0.5 0  10.5 0.5 0  11.25 0.5 0  12 0.5 0  12.75 0.5 0  13.5 0.5 0  14.25 0.5 0  15 0.5 0  15.75 0.5 0  16.5 0.5 0  17.25 0.5 0  18 0.5 0  18.75 0.5 0  19.5 0.5 0  20.25 0.5 0  21 0.5 0  21.75 0.5 0  22.5 0.5 0  23.25 0.5 0  24 0.5 0  24.75 0.5 0  25.5 0.5 0  26.25 0.5 0  27 0.5 0  27.75 0.5 0  28.5 0.5 0  29.25 0.5 0  30 0.5 0  30.75 0.5 0  31.5 0.5 0  32.25 0.5 0  33 0.5 0  33.75 0.5 0  34.5 0.5 0  35.25 0.5 0  36 0.5 0  36.75 0.5 0  37.5 0.5 0  38.25 0.5 0  39 0.5 0  39.75 0.5 0  40.5 0.5 0  41.25 0.5 0  42 0.5 0  42.75 0.5 0  43.5 0.5 0  44.25 0.5 0  45 0.5 0  45.75 0.5 0  46.5 0.5 0  47.25 0.5 0  48 0.5 0  48.75 0.5 0  49.5 0.5 0  50.25 0.5 0  51 0.5 0  51.75 0.5 0  52.5 0.5 0  53.25 0.5 0  54 0.5 0  54.75 0.5 0  55.5 0.5 0  56.25 0.5 0  57 0.5 0  57.75 0.5 0  58.5 0.5 0  59.25 0.5 0  60 0.5 0  0 1 0  0.75 1 0  1.5 1 0  2.25 1 0  3 1 0  3.75 1 0  4.5 1 0  5.25 1 0  6 1 0  6.75 1 0  7.5 1 0  8.25 1 0  9 1 0  9.75 1 0  10.5 1 0  11.25 1 0  12 1 0  12.75 1 0  13.5 1 0  14.25 1 0  15 1 0  15.75 1 0  16.5 1 0  17.25 1 0  18 1 0  18.75 1 0  19.5 1 0  20.25 1 0  21 1 0  21.75 1 0  22.5 1 0  23.25 1 0  24 1 0  24.75 1 0  25.5 1 0  26.25 1 0  27 1 0  27.75 1 0  28.5 1 0  29.25 1 0  30 1 0  30.75 1 0  31.5 1 0  32.25 1 0  33 1 0  33.75 1 0  34.5 1 0  35.25 1 0  36 1 0  36.75 1 0  37.5 1 0  38.25 1 0  39 1 0  39.75 1 0  40.5 1 0  41.25 1 0  42 1 0  42.75 1 0  43.5 1 0  44.25 1 0  45 1 0  45.75 1 0  46.5 1 0  47.25 1 0  48 1 0  48.75 1 0  49.5 1 0  50.25 1 0  51 1 0  51.75 1 0  52.5 1 0  53.25 1 0  54 1 0  54.75 1 0  55.5 1 0  56.25 1 0  57 1 0  57.75 1 0  58.5 1 0  59.25 1 0  60 1 0  0 1.5 0  0.75 1.5 0  1.5 1.5 0  2.25 1.5 0  3 1.5 0  3.75 1.5 0  4.5 1.5 0  5.25 1.5 0  6 1.5 0  6.75 1.5 0  7.5 1.5 0  8.25 1.5 0  9 1.5 0  9.75 1.5 0  10.5 1.5 0  11.25 1.5 0  12 1.5 0  12.75 1.5 0  13.5 1.5 0  14.25 1.5 0  15 1.5 0  15.75 1.5 0  16.5 1.5 0  17.25 1.5 0  18 1.5 0  18.75 1.5 0  19.5 1.5 0  20.25 1.5 0  21 1.5 0  21.75 1.5 0  22.5 1.5 0  23.25 1.5 0  24 1.5 0  24.75 1.5 0  25.5 1.5 0  26.25 1.5 0  27 1.5 0  27.75 1.5 0  28.5 1.5 0  29.25 1.5 0  30 1.5 0  30.75 1.5 0  31.5 1.5 0  32.25 1.5 0  33 1.5 0  33.75 1.5 0  34.5 1.5 0  35.25 1.5 0  36 1.5 0  36.75 1.5 0  37.5 1.5 0  38.25 1.5 0  39 1.5 0  39.75 1.5 0  40.5 1.5 0  41.25 1.5 0  42 1.5 0  42.75 1.5 0  43.5 1.5 0  44.25 1.5 0  45 1.5 0  45.75 1.5 0  46.5 1.5 0  47.25 1.5 0  48 1.5 0  48.75 1.5 0  49.5 1.5 0  50.25 1.5 0  51 1.5 0  51.75 1.5 0  52.5 1.5 0  53.25 1.5 0  54 1.5 0  54.75 1.5 0  55.5 1.5 0  56.25 1.5 0  57 1.5 0  57.75 1.5 0  58.5 1.5 0  59.25 1.5 0  60 1.5 0  0 2 0  0.75 2 0  1.5 2 0  2.25 2 0  3 2 0  3.75 2 0  4.5 2 0  5.25 2 0  6 2 0  6.75 2 0  7.5 2 0  8.25 2 0  9 2 0  9.75 2 0  10.5 2 0  11.25 2 0  12 2 0  12.75 2 0  13.5 2 0  14.25 2 0  15 2 0  15.75 2 0  16.5 2 0  17.25 2 0  18 2 0  18.75 2 0  19.5 2 0  20.25 2 0  21 2 0  21.75 2 0  22.5 2 0  23.25 2 0  24 2 0  24.75 2 0  25.5 2 0  26.25 2 0  27 2 0  27.75 2 0  28.5 2 0  29.25 2 0  30 2 0  30.75 2 0  31.5 2 0  32.25 2 0  33 2 0  33.75 2 0  34.5 2 0  35.25 2 0  36 2 0  36.75 2 0  37.5 2 0  38.25 2 0  39 2 0  39.75 2 0  40.5 2 0  41.25 2 0  42 2 0  42.75 2 0  43.5 2 0  44.25 2 0  45 2 0  45.75 2 0  46.5 2 0  47.25 2 0  48 2 0  48.75 2 0  49.5 2 0  50.25 2 0  51 2 0  51.75 2 0  52.5 2 0  53.25 2 0  54 2 0  54.75 2 0  55.5 2 0  56.25 2 0  57 2 0  57.75 2 0  58.5 2 0  59.25 2 0  60 2 0  0 2.5 0  0.75 2.5 0  1.5 2.5 0  2.25 2.5 0  3 2.5 0  3.75 2.5 0  4.5 2.5 0  5.25 2.5 0  6 2.5 0  6.75 2.5 0  7.5 2.5 0  8.25 2.5 0  9 2.5 0  9.75 2.5 0  10.5 2.5 0  11.25 2.5 0  12 2.5 0  12.75 2.5 0  13.5 2.5 0  14.25 2.5 0  15 2.5 0  15.75 2.5 0  16.5 2.5 0  17.25 2.5 0  18 2.5 0  18.75 2.5 0  19.5 2.5 0  20.25 2.5 0  21 2.5 0  21.75 2.5 0  22.5 2.5 0  23.25 2.5 0  24 2.5 0  24.75 2.5 0  25.5 2.5 0  26.25 2.5 0  27 2.5 0  27.75 2.5 0  28.5 2.5 0  29.25 2.5 0  30 2.5 0  30.75 2.5 0  31.5 2.5 0  32.25 2.5 0  33 2.5 0  33.75 2.5 0  34.5 2.5 0  35.25 2.5 0  36 2.5 0  36.75 2.5 0  37.5 2.5 0  38.25 2.5 0  39 2.5 0  39.75 2.5 0  40.5 2.5 0  41.25 2.5 0  42 2.5 0  42.75 2.5 0  43.5 2.5 0  44.25 2.5 0  45 2.5 0  45.75 2.5 0  46.5 2.5 0  47.25 2.5 0  48 2.5 0  48.75 2.5 0  49.5 2.5 0  50.25 2.5 0  51 2.5 0  51.75 2.5 0  52.5 2.5 0  53.25 2.5 0  54 2.5 0  54.75 2.5 0  55.5 2.5 0  56.25 2.5 0  57 2.5 0  57.75 2.5 0  58.5 2.5 0  59.25 2.5 0  60 2.5 0  0 3 0  0.75 3 0  1.5 3 0  2.25 3 0  3 3 0  3.75 3 0  4.5 3 0  5.25 3 0  6 3 0  6.75 3 0  7.5 3 0  8.25 3 0  9 3 0  9.75 3 0  10.5 3 0  11.25 3 0  12 3 0  12.75 3 0  13.5 3 0  14.25 3 0  15 3 0  15.75 3 0  16.5 3 0  17.25 3 0  18 3 0  18.75 3 0  19.5 3 0  20.25 3 0  21 3 0  21.75 3 0  22.5 3 0  23.25 3 0  24 3 0  24.75 3 0  25.5 3 0  26.25 3 0  27 3 0  27.75 3 0  28.5 3 0  29.25 3 0  30 3 0  30.75 3 0  31.5 3 0  32.25 3 0  33 3 0  33.75 3 0  34.5 3 0  35.25 3 0  36 3 0  36.75 3 0  37.5 3 0  38.25 3 0  39 3 0  39.75 3 0  40.5 3 0  41.25 3 0  42 3 0  42.75 3 0  43.5 3 0  44.25 3 0  45 3 0  45.75 3 0  46.5 3 0  47.25 3 0  48 3 0  48.75 3 0  49.5 3 0  50.25 3 0  51 3 0  51.75 3 0  52.5 3 0  53.25 3 0  54 3 0  54.75 3 0  55.5 3 0  56.25 3 0  57 3 0  57.75 3 0  58.5 3 0  59.25 3 0  60 3 0  0 3.5 0  0.75 3.5 0  1.5 3.5 0  2.25 3.5 0  3 3.5 0  3.75 3.5 0  4.5 3.5 0  5.25 3.5 0  6 3.5 0  6.75 3.5 0  7.5 3.5 0  8.25 3.5 0  9 3.5 0  9.75 3.5 0  10.5 3.5 0  11.25 3.5 0  12 3.5 0  12.75 3.5 0  13.5 3.5 0  14.25 3.5 0  15 3.5 0  15.75 3.5 0  16.5 3.5 0  17.25 3.5 0  18 3.5 0  18.75 3.5 0  19.5 3.5 0  20.25 3.5 0  21 3.5 0  21.75 3.5 0  22.5 3.5 0  23.25 3.5 0  24 3.5 0  24.75 3.5 0  25.5 3.5 0  26.25 3.5 0  27 3.5 0  27.75 3.5 0  28.5 3.5 0  29.25 3.5 0  30 3.5 0  30.75 3.5 0  31.5 3.5 0  32.25 3.5 0  33 3.5 0  33.75 3.5 0  34.5 3.5 0  35.25 3.5 0  36 3.5 0  36.75 3.5 0  37.5 3.5 0  38.25 3.5 0  39 3.5 0  39.75 3.5 0  40.5 3.5 0  41.25 3.5 0  42 3.5 0  42.75 3.5 0  43.5 3.5 0  44.25 3.5 0  45 3.5 0  45.75 3.5 0  46.5 3.5 0  47.25 3.5 0  48 3.5 0  48.75 3.5 0  49.5 3.5 0  50.25 3.5 0  51 3.5 0  51.75 3.5 0  52.5 3.5 0  53.25 3.5 0  54 3.5 0  54.75 3.5 0  55.5 3.5 0  56.25 3.5 0  57 3.5 0  57.75 3.5 0  58.5 3.5 0  59.25 3.5 0  60 3.5 0  0 4 0  0.75 4 0  1.5 4 0  2.25 4 0  3 4 0  3.75 4 0  4.5 4 0  5.25 4 0  6 4 0  6.75 4 0  7.5 4 0  8.25 4 0  9 4 0  9.75 4 0  10.5 4 0  11.25 4 0  12 4 0  12.75 4 0  13.5 4 0  14.25 4 0  15 4 0  15.75 4 0  16.5 4 0  17.25 4 0  18 4 0  18.75 4 0  19.5 4 0  20.25 4 0  21 4 0  21.75 4 0  22.5 4 0  23.25 4 0  24 4 0  24.75 4 0  25.5 4 0  26.25 4 0  27 4 0  27.75 4 0  28.5 4 0  29.25 4 0  30 4 0  30.75 4 0  31.5 4 0  32.25 4 0  33 4 0  33.75 4 0  34.5 4 0  35.25 4 0  36 4 0  36.75 4 0  37.5 4 0  38.25 4 0  39 4 0  39.75 4 0  40.5 4 0  41.25 4 0  42 4 0  42.75 4 0  43.5 4 0  44.25 4 0  45 4 0  45.75 4 0  46.5 4 0  47.25 4 0  48 4 0  48.75 4 0  49.5 4 0  50.25 4 0  51 4 0  51.75 4 0  52.5 4 0  53.25 4 0  54 4 0  54.75 4 0  55.5 4 0  56.25 4 0  57 4 0  57.75 4 0  58.5 4 0  59.25 4 0  60 4 0  0.375 0.25 0  1.125 0.25 0  1.875 0.25 0  2.625 0.25 0  3.375 0.25 0  4.125 0.25 0  4.875 0.25 0  5.625 0.25 0  6.375 0.25 0  7.125 0.25 0  7.875 0.25 0  8.625 0.25 0  9.375 0.25 0  10.125 0.25 0  10.875 0.25 0  11.625 0.25 0  12.375 0.25 0  13.125 0.25 0  13.875 0.25 0  14.625 0.25 0  15.375 0.25 0  16.125 0.25 0  16.875 0.25 0  17.625 0.25 0  18.375 0.25 0  19.125 0.25 0  19.875 0.25 0  20.625 0.25 0  21.375 0.25 0  22.125 0.25 0  22.875 0.25 0  23.625 0.25 0  24.375 0.25 0  25.125 0.25 0  25.875 0.25 0  26.625 0.25 0  27.375 0.25 0  28.125 0.25 0  28.875 0.25 0  29.625 0.25 0  30.375 0.25 0  31.125 0.25 0  31.875 0.25 0  32.625 0.25 0  33.375 0.25 0  34.125 0.25 0  34.875 0.25 0  35.625 0.25 0  36.375 0.25 0  37.125 0.25 0  37.875 0.25 0  38.625 0.25 0  39.375 0.25 0  40.125 0.25 0  40.875 0.25 0  41.625 0.25 0  42.375 0.25 0  43.125 0.25 0  43.875 0.25 0  44.625 0.25 0  45.375 0.25 0  46.125 0.25 0  46.875 0.25 0  47.625 0.25 0  48.375 0.25 0  49.125 0.25 0  49.875 0.25 0  50.625 0.25 0  51.375 0.25 0  52.125 0.25 0  52.875 0.25 0  53.625 0.25 0  54.375 0.25 0  55.125 0.25 0  55.875 0.25 0  56.625 0.25 0  57.375 0.25 0  58.125 0.25 0  58.875 0.25 0  59.625 0.25 0  0.375 0.75 0  1.125 0.75 0  1.875 0.75 0  2.625 0.75 0  3.375 0.75 0  4.125 0.75 0  4.875 0.75 0  5.625 0.75 0  6.375 0.75 0  7.125 0.75 0  7.875 0.75 0  8.625 0.75 0  9.375 0.75 0  10.125 0.75 0  10.875 0.75 0  11.625 0.75 0  12.375 0.75 0  13.125 0.75 0  13.875 0.75 0  14.625 0.75 0  15.375 0.75 0  16.125 0.75 0  16.875 0.75 0  17.625 0.75 0  18.375 0.75 0  19.125 0.75 0  19.875 0.75 0  20.625 0.75 0  21.375 0.75 0  22.125 0.75 0  22.875 0.75 0  23.625 0.75 0  24.375 0.75 0  25.125 0.75 0  25.875 0.75 0  26.625 0.75 0  27.375 0.75 0  28.125 0.75 0  28.875 0.75 0  29.625 0.75 0  30.375 0.75 0  31.125 0.75 0  31.875 0.75 0  32.625 0.75 0  33.375 0.75 0  34.125 0.75 0  34.875 0.75 0  35.625 0.75 0  36.375 0.75 0  37.125 0.75 0  37.875 0.75 0  38.625 0.75 0  39.375 0.75 0  40.125 0.75 0  40
[...]
<PointData  Vectors="f_8-0"> 
<DataArray  type="Float64"  Name="f_8-0"  NumberOfComponents="3" format="ascii">0.0000000000000000e+00 0.0000000000000000e+00 0.0000000000000000e+00  0.0000000000000000e+00 0.0000000000000000e+00 0.0000000000000000e+00  0.0000000000000000e+00 0.0000000000000000e+00 0.0000000000000000e+00  0.0000000000000000e+00 0.0000000000000000e+00 0.0000000000000000e+00  0.0000000000000000e+00 0.0000000000000000e+00 0.0000000000000000e+00  0.0000000000000000e+00 0.0000000000000000e+00 0.0000000000000000e+00  0.0000000000000000e+00 0.0000000000000000e+00 0.0000000000000000e+00  0.0000000000000000e+00 0.0000000000000000e+00 0.0000000000000000e+00  0.0000000000000000e+00 0.0000000000000000e+00 0.0000000000000000e+00  0.0000000000000000e+00 0.0000000000000000e+00 0.0000000000000000e+00  0.0000000000000000e+00 0.0000000000000000e+00 0.0000000000000000e+00  0.0000000000000000e+00 0.0000000000000000e+00 0.0000000000000000e+00  0.0000000000000000e+00 0.0000000000000000e+00 0.0000000000000000e+00  0.0000000000000000e+00 0.0000000000000000e+00 0.0000000000000000e+00  0.0000000000000000e+00 0.0000000000000000e+00 0.0000000000000000e+00  0.0000000000000000e+00 0.0000000000000000e+00 0.0000000000000000e+00  0.0000000000000000e+00 0.0000000000000000e+00 0.0000000000000000e+00  0.0000000000000000e+00 0.0000000000000000e+00 0.0000000000000000e+00  0.0000000000000000e+00 0.0000000000000000e+00 0.0000000000000000e+00  0.0000000000000000e+00 0.0000000000000000e+00 0.0000000000000000e+00  0.0000000000000000e+00 0.0000000000000000e+00 0.0000000000000000e+00  0.0000000000000000e+00 0.0000000000000000e+00 0.0000000000000000e+00  0.0000000000000000e+00 0.0000000000000000e+00 0.0000000000000000e+00  0.0000000000000000e+00 0.0000000000000000e+00 0.0000000000000000e+00  0.0000000000000000e+00 0.0000000000000000e+00 0.0000000000000000e+00  0.0000000000000000e+00 0.0000000000000000e+00 0.0000000000000000e+00  0.0000000000000000e+00 0.0000000000000000e+00 0.0000000000000000e+00  0.0000000000000000e+00 0.0000000000000000e+00 0.0000000000000000e+00  0.0000000000000000e+00 0.0000000000000000e+00 0.0000000000000000e+00  0.0000000000000000e+00 0.0000000000000000e+00 0.0000000000000000e+00  0.0000000000000000e+00 0.0000000000000000e+00 0.0000000000000000e+00  0.0000000000000000e+00 0.0000000000000000e+00 0.0000000000000000e+00  0.0000000000000000e+00 0.0000000000000000e+00 0.0000000000000000e+00  0.0000000000000000e+00 0.0000000000000000e+00 0.0000000000000000e+00  0.0000000000000000e+00 0.0000000000000000e+00 0.0000000000000000e+00  0.0000000000000000e+00 0.0000000000000000e+00 0.0000000000000000e+00  0.0000000000000000e+00 0.0000000000000000e+00 0.0000000000000000e+00  0.0000000000000000e+00 0.0000000000000000e+00 0.0000000000000000e+00  0.0000000000000000e+00 0.0000000000000000e+00 0.0000000000000000e+00  0.0000000000000000e+00 0.0000000000000000e+00 0.0000000000000000e+00  0.0000000000000000e+00 0.0000000000000000e+00 0.0000000000000000e+00  0.0000000000000000e+00 0.0000000000000000e+00 0.0000000000000000e+00  0.0000000000000000e+00 0.0000000000000000e+00 0.0000000000000000e+00  0.0000000000000000e+00 0.0000000000000000e+00 0.0000000000000000e+00  0.0000000000000000e+00 0.0000000000000000e+00 0.0000000000000000e+00  0.0000000000000000e+00 0.0000000000000000e+00 0.0000000000000000e+00  0.0000000000000000e+00 0.0000000000000000e+00 0.0000000000000000e+00  0.0000000000000000e+00 0.0000000000000000e+00 0.0000000000000000e+00  0.0000000000000000e+00 0.0000000000000000e+00 0.0000000000000000e+00  0.0000000000000000e+00 0.0000000000000000e+00 0.0000000000000000e+00  0.0000000000000000e+00 0.0000000000000000e+00 0.0000000000000000e+00  0.0000000000000000e+00 0.0000000000000000e+00 0.0000000000000000e+00  0.0000000000000000e+00 0.0000000000000000e+00 0.0000000000000000e+00  0.0000000000000000e+00 0.0000000000000000e+00 0.0000000000000000e+00  0.0000000000000000e+00 0.0000000000000000e+00 0.0000000000000000e+00  0.0000000000000000e+00 0.0000000000000000e+00 0.0000000000000000e+00  0.0000000000000000e+00 0.0000000000000000e+00 0.0000000000000000e+00  0.0000000000000000e+00 0.0000000000000000e+00 0.0000000000000000e+00  0.0000000000000000e+00 0.0000000000000000e+00 0.0000000000000000e+00  0.0000000000000000e+00 0.0000000000000000e+00 0.0000000000000000e+00  0.0000000000000000e+00 0.0000000000000000e+00 0.0000000000000000e+00  0.0000000000000000e+00 0.0000000000000000e+00 0.0000000000000000e+00  0.0000000000000000e+00 0.0000000000000000e+00 0.0000000000000000e+00  0.0000000000000000e+00 0.0000000000000000e+00 0.0000000000000000e+00  0.0000000000000000e+00 0.0000000000000000e+00 0.0000000000000000e+00  0.0000000000000000e+00 0.0000000000000000e+00 0.0000000000000000e+00  0.0000000000000000e+00 0.0000000000000000e+00 0.0000000000000000e+00  0.0000000000000000e+00 0.0000000000000000e+00 0.0000000000000000e+00  0.0000000000000000e+00 0.0000000000000000e+00 0.0000000000000000e+00  0.0000000000000000e+00 0.0000000000000000e+00 0.0000000000000000e+00  0.0000000000000000e+00 0.0000000000000000e+00 0.0000000000000000e+00  0.0000000000000000e+00 0.0000000000000000e+00 0.0000000000000000e+00  0.0000000000000000e+00 0.0000000000000000e+00 0.0000000000000000e+00  0.0000000000000000e+00 0.0000000000000000e+00 0.0000000000000000e+00  0.0000000000000000e+00 0.0000000000000000e+00 0.0000000000000000e+00  0.0000000000000000e+00 0.0000000000000000e+00 0.0000000000000000e+00  0.0000000000000000e+00 0.0000000000000000e+00 0.0000000000000000e+00  0.0000000000000000e+00 0.0000000000000000e+00 0.0000000000000000e+00  0.0000000000000000e+00 0.0000000000000000e+00 0.0000000000000000e+00  0.0000000000000000e+00 0.0000000000000000e+00 0.0000000000000000e+00  0.0000000000000000e+00 0.0000000000000000e+00 0.0000000000000000e+00  9.9661500989186713e+00 0.0000000000000000e+00 0.0000000000000000e+00  9.9876209516457468e+00 -6.6951431381419860e-02 0.0000000000000000e+00  9.9742879627928449e+00 -2.0101406068948106e-02 0.0000000000000000e+00  9.9694597612110272e+00 -5.1399626881067579e-03 0.0000000000000000e+00  9.9625119111396980e+00 -3.9328836184017628e-03 0.0000000000000000e+00  9.9543814119319567e+00 -3.3100549879574539e-03 0.0000000000000000e+00  9.9521943465301899e+00 -5.5522684939287598e-03 0.0000000000000000e+00  9.9512629992485078e+00 -6.0805319776960102e-03 0.0000000000000000e+00  9.9536412724838321e+00 -7.2483321781792454e-03 0.0000000000000000e+00  9.9566788561365964e+00 -7.2887220140451965e-03 0.0000000000000000e+00  9.9604401442040160e+00 -7.2975309589849375e-03 0.0000000000000000e+00  9.9631646347598064e+00 -6.7963041377993938e-03 0.0000000000000000e+00  9.9650586968537649e+00 -6.4951229433630239e-03 0.0000000000000000e+00  9.9659872822493547e+00 -6.1986607113729631e-03 0.0000000000000000e+00  9.9664655265252318e+00 -6.0980165934182012e-03 0.0000000000000000e+00  9.9666259517859803e+00 -6.0257873487247664e-03 0.0000000000000000e+00  9.9667024879285826e+00 -6.0184335536145675e-03 0.0000000000000000e+00  9.9667186850613270e+00 -6.0059732414129673e-03 0.0000000000000000e+00  9.9667318278606487e+00 -6.0084197985400337e-03 0.0000000000000000e+00  9.9667335436885196e+00 -6.0053625635545635e-03 0.0000000000000000e+00  9.9667369844583096e+00 -6.0063412980026721e-03 0.0000000000000000e+00  9.9667373682151723e+00 -6.0054291764919188e-03 0.0000000000000000e+00  9.9667382085524228e+00 -6.0056160144878294e-03 0.0000000000000000e+00  9.9667383397784288e+00 -6.0054498385588928e-03 0.0000000000000000e+00  9.9667383825275326e+00 -6.0053972658606408e-03 0.0000000000000000e+00  9.9667384416897171e+00 -6.0054490947803766e-03 0.0000000000000000e+00  9.9667382919217982e+00 -6.0053529276520847e-03 0.0000000000000000e+00  9.9667383057757615e+00 -6.0054350975346990e-03 0.0000000000000000e+00  9.9667381398957158e+00 -6.0053568322893216e-03 0.0000000000000000e+00  9.9667381150765628e+00 -6.0054192274275340e-03 0.0000000000000000e+00  9.9667379708349966e+00 -6.0053689171964868e-03 0.0000000000000000e+00  9.9667379171917947e+00 -6.0054071045115426e-03 0.0000000000000000e+00  9.9667377943933140e+00 -6.0053787326996566e-03 0.0000000000000000e+00  9.9667377222185554e+00 -6.0053994986488477e-03 0.0000000000000000e+00  9.9667376136334411e+00 -6.0053849313332691e-03 0.0000000000000000e+00  9.9667375308167969e+00 -6.0053953317525041e-03 0.0000000000000000e+00  9.9667374302417393e+00 -6.0053884196058938e-03 0.0000000000000000e+00  9.9667373418530225e+00 -6.0053933178095291e-03 0.0000000000000000e+00  9.9667372453554410e+00 -6.0053902800876330e-03 0.0000000000000000e+00  9.9667371542736269e+00 -6.0053924925751630e-03 0.0000000000000000e+00  9.9667370596973726e+00 -6.0053912746705820e-03 0.0000000000000000e+00  9.9667369673905437e+00 -6.0053922651192512e-03 0.0000000000000000e+00  9.9667368736605919e+00 -6.0053918486337315e-03 0.0000000000000000e+00  9.9667367808354754e+00 -6.0053923161868536e-03 0.0000000000000000e+00  9.9667366874533467e+00 -6.0053922317417447e-03 0.0000000000000000e+00  9.9667365944150639e+00 -6.0053924862170016e-03 0.0000000000000000e+00  9.9667365011660287e+00 -6.0053925336619671e-03 0.0000000000000000e+00  9.9667364080355441e+00 -6.0053927035505130e-03 0.0000000000000000e+00  9.9667363148269335e+00 -6.0053927989904658e-03 0.0000000000000000e+00  9.9667362216485049e+00 -6.0053929357271676e-03 0.0000000000000000e+00  9.9667361284325455e+00 -6.0053930463150823e-03 0.0000000000000000e+00  9.9667360352091503e+00 -6.0053931669382943e-03 0.0000000000000000e+00  9.9667359419513470e+00 -6.0053932805614217e-03 0.0000000000000000e+00  9.9667358486698685e+00 -6.0053933925842701e-03 0.0000000000000000e+00  9.9667357553563605e+00 -6.0053935172073034e-03 0.0000000000000000e+00  9.9667356620438436e+00 -6.0053936458372434e-03 0.0000000000000000e+00  9.9667355687912611e+00 -6.0053938502808010e-03 0.0000000000000000e+00  9.9667354757985898e+00 -6.0053941448552361e-03 0.0000000000000000e+00  9.9667353834672667e+00 -6.0053947736759417e-03 0.0000000000000000e+00  9.9667352927720714e+00 -6.0053959513185181e-03 0.0000000000000000e+00  9.9667352057403313e+00 -6.0053985570387262e-03 0.0000000000000000e+00  9.9667351267761575e+00 -6.0054038186613638e-03 0.0000000000000000e+00  9.9667350649964757e+00 -6.0054150852029619e-03 0.0000000000000000e+00  9.9667350393712617e+00 -6.0054380195118263e-03 0.0000000000000000e+00  9.9667350886063417e+00 -6.0054855734407069e-03 0.0000000000000000e+00  9.9667352909756186e+00 -6.0055810651173502e-03 0.0000000000000000e+00  9.9667358026509252e+00 -6.0057731026417491e-03 0.0000000000000000e+00  9.9667369306427336e+00 -6.0061505808516914e-03 0.0000000000000000e+00  9.9667392692574595e+00 -6.0068898449916345e-03 0.0000000000000000e+00  9.9667439518637000e+00 -6.0083199439407318e-03 0.0000000000000000e+00  9.9667531147269006e+00 -6.0110780482645794e-03 0.0000000000000000e+00  9.9667707267130492e+00 -6.0163603303694463e-03 0.0000000000000000e+00  9.9668041409911545e+00 -6.0265608308698211e-03 0.0000000000000000e+00  9.9668673530553793e+00 -6.0468308467253934e-03 0.0000000000000000e+00  9.9669888123502925e+00 -6.0889954573320471e-03 0.0000000000000000e+00  9.9672317847075966e+00 -6.1795106043318095e-03 0.0000000000000000e+00  9.9677510828303291e+00 -6.3734678636978917e-03 0.0000000000000000e+00  9.9690044119954173e+00 -6.6753578698515561e-03 0.0000000000000000e+00  9.9722166328818478e+00 -6.7931287708421582e-03 0.0000000000000000e+00  9.9856463184946822e+00 4.6372014207553538e-03 0.0000000000000000e+00  1.0057113077600928e+01 0.0000000000000000e+00 0.0000000000000000e+00  1.9542224101531463e+01 0.0000000000000000e+00 0.0000000000000000e+00  1.9585737962700868e+01 3.4388525523490400e-02 0.0000000000000000e+00  1.9549307698168075e+01 5.1907046784535130e-03 0.0000000000000000e+00  1.9549421336451790e+01 1.3049181826283816e-02 0.0000000000000000e+00  1.9542000254462415e+01 1.0325545058745521e-02 0.0000000000000000e+00  1.9544012450413952e+01 6.4058979899398695e-03 0.0000000000000000e+00  1.9541977045374725e+01 3.5889714159021121e-03 0.0000000000000000e+00  1.9543313617066971e+01 6.6732906460231485e-04 0.0000000000000000e+00  1.9542912269079650e+01 -5.5940764545432079e-04 0.0000000000000000e+00  1.9544540905351436e+01 -2.1839504279091864e-03 0.0000000000000000e+00  1.9546706567849313e+01 -1.9008086464014473e-03 0.0000000000000000e+00  1.9549646978393664e+01 -1.0834296026224579e-03 0.0000000000000000e+00  1.9551603586445079e+01 1.1090424038733434e-04 0.0000000000000000e+00  1.9553012716701208e+01 8.4284937299271734e-04 0.0000000000000000e+00  1.9553664739310189e+01 1.3488242436290657e-03 0.0000000000000000e+00  1.9554053919319081e+01 1.5442526162748025e-03 0.0000000000000000e+00  1.9554180219870588e+01 1.6557063623001257e-03 0.0000000000000000e+00  1.9554260572126999e+01 1.6796088143394543e-03 0.0000000000000000e+00  1.9554274571248648e+01 1.6995242838173026e-03 0.0000000000000000e+00  1.9554291884372045e+01 1.7000371015227869e-03 0.0000000000000000e+00  1.9554291826813202e+01 1.7048063319713045e-03 0.0000000000000000e+00  1.9554296599158171e+01 1.7043396661691745e-03 0.0000000000000000e+00  1.9554295898114052e+01 1.7057073556227902e-03 0.0000000000000000e+00  1.9554297267772530e+01 1.7055909754843243e-03 0.0000000000000000e+00  1.9554296950246318e+01 1.7058924636472628e-03 0.0000000000000000e+00  1.9554297228893709e+01 1.7059437338998297e-03 0.0000000000000000e+00  1.9554297139993601e+01 1.7059350644008965e-03 0.0000000000000000e+00  1.9554297094740878e+01 1.7060229722697024e-03 0.0000000000000000e+00  1.9554297081290333e+01 1.7059553069953431e-03 0.0000000000000000e+00  1.9554296966659916e+01 1.7060279981520594e-03 0.0000000000000000e+00  1.9554296959067674e+01 1.7059708078349485e-03 0.0000000000000000e+00  1.9554296848173379e+01 1.7060181884729841e-03 0.0000000000000000e+00  1.9554296826107937e+01 1.7059820704116314e-03 0.0000000000000000e+00  1.9554296732577267e+01 1.7060090437370163e-03 0.0000000000000000e+00  1.9554296695339719e+01 1.7059892317813458e-03 0.0000000000000000e+00  1.9554296616363857e+01 1.7060031839097232e-03 0.0000000000000000e+00  1.9554296568453776e+01 1.7059932997852616e-03 0.0000000000000000e+00  1.9554296498690562e+01 1.7059999842063663e-03 0.0000000000000000e+00  1.9554296444508005e+01 1.7059954106674699e-03 0.0000000000000000e+00  1.9554296379807322e+01 1.7059984181100048e-03 0.0000000000000000e+00  1.9554296322346399e+01 1.7059964384149189e-03 0.0000000000000000e+00  1.9554296260165728e+01 1.7059977237797038e-03 0.0000000000000000e+00  1.9554296201138392e+01 1.7059969231279421e-03 0.0000000000000000e+00  1.9554296140116985e+01 1.7059974524716291e-03 0.0000000000000000e+00  1.9554296080396547e+01 1.7059971562585791e-03 0.0000000000000000e+00  1.9554296019874212e+01 1.7059973781338377e-03 0.0000000000000000e+00  1.9554295959859793e+01 1.7059972851181436e-03 0.0000000000000000e+00  1.9554295899535273e+01 1.7059973895753367e-03 0.0000000000000000e+00  1.9554295839396005e+01 1.7059973801076373e-03 0.0000000000000000e+00  1.9554295779135472e+01 1.7059974453582361e-03 0.0000000000000000e+00  1.9554295718931062e+01 1.7059974738621306e-03 0.0000000000000000e+00  1.9554295658668696e+01 1.7059975359609027e-03 0.0000000000000000e+00  1.9554295598400682e+01 1.7059975886539354e-03 0.0000000000000000e+00  1.9554295538080954e+01 1.7059976605598248e-03 0.0000000000000000e+00  1.9554295477705150e+01 1.7059977208187754e-03 0.0000000000000000e+00  1.9554295417246426e+01 1.7059977750014900e-03 0.0000000000000000e+00  1.9554295356655167e+01 1.7059977383355371e-03 0.0000000000000000e+00  1.9554295295907227e+01 1.7059975330018836e-03 0.0000000000000000e+00  1.9554295234892269e+01 1.7059968452881997e-03 0.0000000000000000e+00  1.9554295173594699e+01 1.7059951482109122e-03 0.0000000000000000e+00  1.9554295111827422e+01 1.7059911919795252e-03 0.0000000000000000e+00  1.9554295049677428e+01 1.7059823981677592e-03 0.0000000000000000e+00  1.9554294986985273e+01 1.7059635703212601e-03 0.0000000000000000e+00  1.9554294924460933e+01 1.7059235224721691e-03 0.0000000000000000e+00  1.9554294862849126e+01 1.7058409901041524e-03 0.0000000000000000e+00  1.9554294805607807e+01 1.7056718842582545e-03 0.0000000000000000e+00  1.9554294757583438e+01 1.7053346628766771e-03 0.0000000000000000e+00  1.9554294731271504e+01 1.7046670108533857e-03 0.0000000000000000e+00  1.9554294747084374e+01 1.7033656856202644e-03 0.0000000000000000e+00  1.9554294858224811e+01 1.7008185110803683e-03 0.0000000000000000e+00  1.9554295171417568e+01 1.6958874950978127e-03 0.0000000000000000e+00  1.9554295893753814e+01 1.6864527090287582e-03 0.0000000000000000e+00  1.9554297326056822e+01 1.6686079275791208e-03 0.0000000000000000e+00  1.9554300062233178e+01 1.6337646281253404e-03 0.0000000000000000e+00  1.9554305611019185e+01 1.5622933563696696e-03 0.0000000000000000e+00  1.9554318427346221e+01 1.4071816820413752e-03 0.0000000000000000e+00  1.9554353221872187e+01 1.0518599501745333e-03 0.0000000000000000e+00  1.9554460698428851e+01 1.9207025566535371e-04 0.0000000000000000e+00  1.9555027007691752e+01 -1.7091105683876631e-03 0.0000000000000000e+00  1.9555510269216807e+01 -7.1545460416364863e-03 0.0000000000000000e+00  1.9550768751879247e+01 0.0000000000000000e+00 0.0000000000000000e+00  2.1685832962044849e+01 0.0000000000000000e+00 0.0000000000000000e+00  2.1658049536868820e+01 -1.2802898358757284e-02 0.0000000000000000e+00  2.1671148908409375e+01 4.0082530936817826e-03 0.0000000000000000e+00  2.1678664448231437e+01 1.2786627673982908e-03 0.0000000000000000e+00  2.1696522651501585e+01 4.5208136060101113e-03 0.0000000000000000e+00  2.1701236516859929e+01 3.5738760470043298e-03 0.0000000000000000e+00  2.1707414802550989e+01 1.5691214234782676e-03 0.0000000000000000e+00  2.1706222921539094e+01 6.8726694070586917e-04 0.0000000000000000e+00  2.1705778033047050e+01 -5.9007819873352699e-04 0.0000000000000000e+00  2.1701964099879156e+01 -1.8474168470324875e-03 0.0000000000000000e+00  2.1698941283483542e+01 -2.5610454023276526e-03 0.0000000000000000e+00  2.1695831751020766e+01 -1.7684065416913746e-03 0.0000000000000000e+00  2.1694269281977977e+01 -7.5698624972655234e-04 0.0000000000000000e+00  2.1693163483115420e+01 1.6442726026319484e-04 0.0000000000000000e+00  2.1692800737905884e+01 6.7648811454554573e-04 0.0000000000000000e+00  2.1692548516572554e+01 9.7556532204477601e-04 0.0000000000000000e+00  2.1692515224764623e+01 1.0916077970310333e-03 0.0000000000000000e+00  2.1692462479116625e+01 1.1517598108229622e-03 0.0000000000000000e+00  2.1692468007298022e+01 1.1677383626771179e-03 0.0000000000000000e+00  2.1692452423737226e+01 1.1785734050929609e-03 0.0000000000000000e+00  2.1692456435886228e+01 1.1802247135258336e-03 0.0000000000000000e+00  2.1692450731668742e+01 1.1826844362618069e-03 0.0000000000000000e+00  2.1692452446176105e+01 1.1828844565264873e-03 0.0000000000000000e+00  2.1692450412857415e+01 1.1835010635208685e-03 0.0000000000000000e+00  2.1692450969121989e+01 1.1835756730732908e-03 0.0000000000000000e+00  2.1692450326649830e+01 1.1836798704959865e-03 0.0000000000000000e+00  2.1692450393172027e+01 1.1837451922510952e-03 0.0000000000000000e+00  2.1692450230888696e+01 1.1837204898177726e-03 0.0000000000000000e+00  2.1692450137321799e+01 1.1837739489818139e-03 0.0000000000000000e+00  2.1692450110943639e+01 1.1837334433749723e-03 0.0000000000000000e+00  2.1692449990657966e+01 1.1837700933488248e-03 0.0000000000000000e+00  2.1692449983964725e+01 1.1837403720173472e-03 0.0000000000000000e+00  2.1692449877658341e+01 1.1837622816414509e-03 0.0000000000000000e+00  2.1692449859605702e+01 1.1837447662394042e-03 0.0000000000000000e+00  2.1692449772642558e+01 1.1837565806814818e-03 0.0000000000000000e+00  2.1692449740248346e+01 1.1837474095353290e-03 0.0000000000000000e+00  2.1692449667877899e+01 1.1837532780645114e-03 0.0000000000000000e+00  2.1692449625174596e+01 1.1837488540481598e-03 0.0000000000000000e+00  2.1692449561721624e+01 1.1837515720216636e-03 0.0000000000000000e+00  2.1692449512973614e+01 1.1837495765720497e-03 0.000000000000