<?xml version="1.0"?>
<VTKFile type="UnstructuredGrid"  version="0.1"  >
<UnstructuredGrid>
<Piece  NumberOfPoints="1369" NumberOfCells="2560">
<Points>
<DataArray  type="Float64"  NumberOfComponents="3"  format="ascii">0 0 0  0.75 0 0  1.5 0 0  2.25 0 0  3 0 0  3.75 0 0  4.5 0 0  5.25 0 0  6 0 0  6.75 0 0  7.5 0 0  8.25 0 0  9 0 0  9.75 0 0  10.5 0 0  11.25 0 0  12 0 0  12.75 0 0  13.5 0 0  14.25 0 0  15 0 0  15.75 0 0  16.5 0 0  17.25 0 0  18 0 0  18.75 0 0  19.5 0 0  20.25 0 0  21 0 0  21.75 0 0  22.5 0 0  23.25 0 0  24 0 0  24.75 0 0  25.5 0 0  26.25 0 0  27 0 0  27.75 0 0  28.5 0 0  29.25 0 0  30 0 0  30.75 0 0  31.5 0 0  32.25 0 0  33 0 0  33.75 0 0  34.5 0 0  35.25 0 0  36 0 0  36.75 0 0  37.5 0 0  38.25 0 0  39 0 0  39.75 0 0  40.5 0 0  41.25 0 0  42 0 0  42.75 0 0  43.5 0 0  44.25 0 0  45 0 0  45.75 0 0  46.5 0 0  47.25 0 0  48 0 0  48.75 0 0  49.5 0 0  50.25 0 0  51 0 0  51.75 0 0  52.5 0 0  53.25 0 0  54 0 0  54.75 0 0  55.5 0 0  56.25 0 0  57 0 0  57.75 0 0  58.5 0 0  59.25 0 0  60 0 0  0 0.5 0  0.75 0.5 0  1.5 0.5 0  2.25 0.5 0  3 0.5 0  3.75 0.5 0  4.5 0.5 0  5.25 0.5 0  6 0.5 0  6.75 0.5 0  7.5 0.5 0  8.25 0.5 0  9 0.5 0  9.75 0.5 0  10.5 0.5 0  11.25 0.5 0  12 0.5 0  12.75 0.5 0  13.5 0.5 0  14.25 0.5 0  15 0.5 0  15.75 0.5 0  16.5 0.5 0  17.25 0.5 0  18 0.5 0  18.75 0.5 0  19.5 0.5 0  20.25 0.5 0  21 0.5 0  21.75 0.5 0  22.5 0.5 0  23.25 0.5 0  24 0.5 0  24.75 0.5 0  25.5 0.5 0  26.25 0.5 0  27 0.5 0  27.75 0.5 0  28.5 0.5 0  29.25 0.5 0  30 0.5 0  30.75 0.5 0  31.5 0.5 0  32.25 0.5 0  33 0.5 0  33.75 0.5 0  34.5 0.5 0  35.25 0.5 0  36 0.5 0  36.75 0.5 0  37.5 0.5 0  38.25 0.5 0  39 0.5 0  39.75 0.5 0  40.5 0.5 0  41.25 0.5 0  42 0.5 0  42.75 0.5 0  43.5 0.5 0  44.25 0.5 0  45 0.5 0  45.75 0.5 0  46.5 0.5 0  47.25 0.5 0  48 0.5 0  48.75 0.5 0  49.5 0.5 0  50.25 0.5 0  51 0.5 0  51.75 0.5 0  52.5 0.5 0  53.25 0.5 0  54 0.5 0  54.75 0.5 0  55.5 0.5 0  56.25 0.5 0  57 0.5 0  57.75 0.5 0  58.5 0.5 0  59.25 0.5 0  60 0.5 0  0 1 0  0.75 1 0  1.5 1 0  2.25 1 0  3 1 0  3.75 1 0  4.5 1 0  5.25 1 0  6 1 0  6.75 1 0  7.5 1 0  8.25 1 0  9 1 0  9.75 1 0  10.5 1 0  11.25 1 0  12 1 0  12.75 1 0  13.5 1 0  14.25 1 0  15 1 0  15.75 1 0  16.5 1 0  17.25 1 0  18 1 0  18.75 1 0  19.5 1 0  20.25 1 0  21 1 0  21.75 1 0  22.5 1 0  23.25 1 0  24 1 0  24.75 1 0  25.5 1 0  26.25 1 0  27 1 0  27.75 1 0  28.5 1 0  29.25 1 0  30 1 0  30.75 1 0  31.5 1 0  32.25 1 0  33 1 0  33.75 1 0  34.5 1 0  35.25 1 0  36 1 0  36.75 1 0  37.5 1 0  38.25 1 0  39 1 0  39.75 1 0  40.5 1 0  41.25 1 0  42 1 0  42.75 1 0  43.5 1 0  44.25 1 0  45 1 0  45.75 1 0  46.5 1 0  47.25 1 0  48 1 0  48.75 1 0  49.5 1 0  50.25 1 0  51 1 0  51.75 1 0  52.5 1 0  53.25 1 0  54 1 0  54.75 1 0  55.5 1 0  56.25 1 0  57 1 0  57.75 1 0  58.5 1 0  59.25 1 0  60 1 0  0 1.5 0  0.75 1.5 0  1.5 1.5 0  2.25 1.5 0  3 1.5 0  3.75 1.5 0  4.5 1.5 0  5.25 1.5 0  6 1.5 0  6.75 1.5 0  7.5 1.5 0  8.25 1.5 0  9 1.5 0  9.75 1.5 0  10.5 1.5 0  11.25 1.5 0  12 1.5 0  12.75 1.5 0  13.5 1.5 0  14.25 1.5 0  15 1.5 0  15.75 1.5 0  16.5 1.5 0  17.25 1.5 0  18 1.5 0  18.75 1.5 0  19.5 1.5 0  20.25 1.5 0  21 1.5 0  21.75 1.5 0  22.5 1.5 0  23.25 1.5 0  24 1.5 0  24.75 1.5 0  25.5 1.5 0  26.25 1.5 0  27 1.5 0  27.75 1.5 0  28.5 1.5 0  29.25 1.5 0  30 1.5 0  30.75 1.5 0  31.5 1.5 0  32.25 1.5 0  33 1.5 0  33.75 1.5 0  34.5 1.5 0  35.25 1.5 0  36 1.5 0  36.75 1.5 0  37.5 1.5 0  38.25 1.5 0  39 1.5 0  39.75 1.5 0  40.5 1.5 0  41.25 1.5 0  42 1.5 0  42.75 1.5 0  43.5 1.5 0  44.25 1.5 0  45 1.5 0  45.75 1.5 0  46.5 1.5 0  47.25 1.5 0  48 1.5 0  48.75 1.5 0  49.5 1.5 0  50.25 1.5 0  51 1.5 0  51.75 1.5 0  52.5 1.5 0  53.25 1.5 0  54 1.5 0  54.75 1.5 0  55.5 1.5 0  56.25 1.5 0  57 1.5 0  57.75 1.5 0  58.5 1.5 0  59.25 1.5 0  60 1.5 0  0 2 0  0.75 2 0  1.5 2 0  2.25 2 0  3 2 0  3.75 2 0  4.5 2 0  5.25 2 0  6 2 0  6.75 2 0  7.5 2 0  8.25 2 0  9 2 0  9.75 2 0  10.5 2 0  11.25 2 0  12 2 0  12.75 2 0  13.5 2 0  14.25 2 0  15 2 0  15.75 2 0  16.5 2 0  17.25 2 0  18 2 0  18.75 2 0  19.5 2 0  20.25 2 0  21 2 0  21.75 2 0  22.5 2 0  23.25 2 0  24 2 0  24.75 2 0  25.5 2 0  26.25 2 0  27 2 0  27.75 2 0  28.5 2 0  29.25 2 0  30 2 0  30.75 2 0  31.5 2 0  32.25 2 0  33 2 0  33.75 2 0  34.5 2 0  35.25 2 0  36 2 0  36.75 2 0  37.5 2 0  38.25 2 0  39 2 0  39.75 2 0  40.5 2 0  41.25 2 0  42 2 0  42.75 2 0  43.5 2 0  44.25 2 0  45 2 0  45.75 2 0  46.5 2 0  47.25 2 0  48 2 0  48.75 2 0  49.5 2 0  50.25 2 0  51 2 0  51.75 2 0  52.5 2 0  53.25 2 0  54 2 0  54.75 2 0  55.5 2 0  56.25 2 0  57 2 0  57.75 2 0  58.5 2 0  59.25 2 0  60 2 0  0 2.5 0  0.75 2.5 0  1.5 2.5 0  2.25 2.5 0  3 2.5 0  3.75 2.5 0  4.5 2.5 0  5.25 2.5 0  6 2.5 0  6.75 2.5 0  7.5 2.5 0  8.25 2.5 0  9 2.5 0  9.75 2.5 0  10.5 2.5 0  11.25 2.5 0  12 2.5 0  12.75 2.5 0  13.5 2.5 0  14.25 2.5 0  15 2.5 0  15.75 2.5 0  16.5 2.5 0  17.25 2.5 0  18 2.5 0  18.75 2.5 0  19.5 2.5 0  20.25 2.5 0  21 2.5 0  21.75 2.5 0  22.5 2.5 0  23.25 2.5 0  24 2.5 0  24.75 2.5 0  25.5 2.5 0  26.25 2.5 0  27 2.5 0  27.75 2.5 0  28.5 2.5 0  29.25 2.5 0  30 2.5 0  30.75 2.5 0  31.5 2.5 0  32.25 2.5 0  33 2.5 0  33.75 2.5 0  34.5 2.5 0  35.25 2.5 0  36 2.5 0  36.75 2.5 0  37.5 2.5 0  38.25 2.5 0  39 2.5 0  39.75 2.5 0  40.5 2.5 0  41.25 2.5 0  42 2.5 0  42.75 2.5 0  43.5 2.5 0  44.25 2.5 0  45 2.5 0  45.75 2.5 0  46.5 2.5 0  47.25 2.5 0  48 2.5 0  48.75 2.5 0  49.5 2.5 0  50.25 2.5 0  51 2.5 0  51.75 2.5 0  52.5 2.5 0  53.25 2.5 0  54 2.5 0  54.75 2.5 0  55.5 2.5 0  56.25 2.5 0  57 2.5 0  57.75 2.5 0  58.5 2.5 0  59.25 2.5 0  60 2.5 0  0 3 0  0.75 3 0  1.5 3 0  2.25 3 0  3 3 0  3.75 3 0  4.5 3 0  5.25 3 0  6 3 0  6.75 3 0  7.5 3 0  8.25 3 0  9 3 0  9.75 3 0  10.5 3 0  11.25 3 0  12 3 0  12.75 3 0  13.5 3 0  14.25 3 0  15 3 0  15.75 3 0  16.5 3 0  17.25 3 0  18 3 0  18.75 3 0  19.5 3 0  20.25 3 0  21 3 0  21.75 3 0  22.5 3 0  23.25 3 0  24 3 0  24.75 3 0  25.5 3 0  26.25 3 0  27 3 0  27.75 3 0  28.5 3 0  29.25 3 0  30 3 0  30.75 3 0  31.5 3 0  32.25 3 0  33 3 0  33.75 3 0  34.5 3 0  35.25 3 0  36 3 0  36.75 3 0  37.5 3 0  38.25 3 0  39 3 0  39.75 3 0  40.5 3 0  41.25 3 0  42 3 0  42.75 3 0  43.5 3 0  44.25 3 0  45 3 0  45.75 3 0  46.5 3 0  47.25 3 0  48 3 0  48.75 3 0  49.5 3 0  50.25 3 0  51 3 0  51.75 3 0  52.5 3 0  53.25 3 0  54 3 0  54.75 3 0  55.5 3 0  56.25 3 0  57 3 0  57.75 3 0  58.5 3 0  59.25 3 0  60 3 0  0 3.5 0  0.75 3.5 0  1.5 3.5 0  2.25 3.5 0  3 3.5 0  3.75 3.5 0  4.5 3.5 0  5.25 3.5 0  6 3.5 0  6.75 3.5 0  7.5 3.5 0  8.25 3.5 0  9 3.5 0  9.75 3.5 0  10.5 3.5 0  11.25 3.5 0  12 3.5 0  12.75 3.5 0  13.5 3.5 0  14.25 3.5 0  15 3.5 0  15.75 3.5 0  16.5 3.5 0  17.25 3.5 0  18 3.5 0  18.75 3.5 0  19.5 3.5 0  20.25 3.5 0  21 3.5 0  21.75 3.5 0  22.5 3.5 0  23.25 3.5 0  24 3.5 0  24.75 3.5 0  25.5 3.5 0  26.25 3.5 0  27 3.5 0  27.75 3.5 0  28.5 3.5 0  29.25 3.5 0  30 3.5 0  30.75 3.5 0  31.5 3.5 0  32.25 3.5 0  33 3.5 0  33.75 3.5 0  34.5 3.5 0  35.25 3.5 0  36 3.5 0  36.75 3.5 0  37.5 3.5 0  38.25 3.5 0  39 3.5 0  39.75 3.5 0  40.5 3.5 0  41.25 3.5 0  42 3.5 0  42.75 3.5 0  43.5 3.5 0  44.25 3.5 0  45 3.5 0  45.75 3.5 0  46.5 3.5 0  47.25 3.5 0  48 3.5 0  48.75 3.5 0  49.5 3.5 0  50.25 3.5 0  51 3.5 0  51.75 3.5 0  52.5 3.5 0  53.25 3.5 0  54 3.5 0  54.75 3.5 0  55.5 3.5 0  56.25 3.5 0  57 3.5 0  57.75 3.5 0  58.5 3.5 0  59.25 3.5 0  60 3.5 0  0 4 0  0.75 4 0  1.5 4 0  2.25 4 0  3 4 0  3.75 4 0  4.5 4 0  5.25 4 0  6 4 0  6.75 4 0  7.5 4 0  8.25 4 0  9 4 0  9.75 4 0  10.5 4 0  11.25 4 0  12 4 0  12.75 4 0  13.5 4 0  14.25 4 0  15 4 0  15.75 4 0  16.5 4 0  17.25 4 0  18 4 0  18.75 4 0  19.5 4 0  20.25 4 0  21 4 0  21.75 4 0  22.5 4 0  23.25 4 0  24 4 0  24.75 4 0  25.5 4 0  26.25 4 0  27 4 0  27.75 4 0  28.5 4 0  29.25 4 0  30 4 0  30.75 4 0  31.5 4 0  32.25 4 0  33 4 0  33.75 4 0  34.5 4 0  35.25 4 0  36 4 0  36.75 4 0  37.5 4 0  38.25 4 0  39 4 0  39.75 4 0  40.5 4 0  41.25 4 0  42 4 0  42.75 4 0  43.5 4 0  44.25 4 0  45 4 0  45.75 4 0  46.5 4 0  47.25 4 0  48 4 0  48.75 4 0  49.5 4 0  50.25 4 0  51 4 0  51.75 4 0  52.5 4 0  53.25 4 0  54 4 0  54.75 4 0  55.5 4 0  56.25 4 0  57 4 0  57.75 4 0  58.5 4 0  59.25 4 0  60 4 0  0.375 0.25 0  1.125 0.25 0  1.875 0.25 0  2.625 0.25 0  3.375 0.25 0  4.125 0.25 0  4.875 0.25 0  5.625 0.25 0  6.375 0.25 0  7.125 0.25 0  7.875 0.25 0  8.625 0.25 0  9.375 0.25 0  10.125 0.25 0  10.875 0.25 0  11.625 0.25 0  12.375 0.25 0  13.125 0.25 0  13.875 0.25 0  14.625 0.25 0  15.375 0.25 0  16.125 0.25 0  16.875 0.25 0  17.625 0.25 0  18.375 0.25 0  19.125 0.25 0  19.875 0.25 0  20.625 0.25 0  21.375 0.25 0  22.125 0.25 0  22.875 0.25 0  23.625 0.25 0  24.375 0.25 0  25.125 0.25 0  25.875 0.25 0  26.625 0.25 0  27.375 0.25 0  28.125 0.25 0  28.875 0.25 0  29.625 0.25 0  30.375 0.25 0  31.125 0.25 0  31.875 0.25 0  32.625 0.25 0  33.375 0.25 0  34.125 0.25 0  34.875 0.25 0  35.625 0.25 0  36.375 0.25 0  37.125 0.25 0  37.875 0.25 0  38.625 0.25 0  39.375 0.25 0  40.125 0.25 0  40.875 0.25 0  41.625 0.25 0  42.375 0.25 0  43.125 0.25 0  43.875 0.25 0  44.625 0.25 0  45.375 0.25 0  46.125 0.25 0  46.875 0.25 0  47.625 0.25 0  48.375 0.25 0  49.125 0.25 0  49.875 0.25 0  50.625 0.25 0  51.375 0.25 0  52.125 0.25 0  52.875 0.25 0  53.625 0.25 0  54.375 0.25 0  55.125 0.25 0  55.875 0.25 0  56.625 0.25 0  57.375 0.25 0  58.125 0.25 0  58.875 0.25 0  59.625 0.25 0  0.375 0.75 0  1.125 0.75 0  1.875 0.75 0  2.625 0.75 0  3.375 0.75 0  4.125 0.75 0  4.875 0.75 0  5.625 0.75 0  6.375 0.75 0  7.125 0.75 0  7.875 0.75 0  8.625 0.75 0  9.375 0.75 0  10.125 0.75 0  10.875 0.75 0  11.625 0.75 0  12.375 0.75 0  13.125 0.75 0  13.875 0.75 0  14.625 0.75 0  15.375 0.75 0  16.125 0.75 0  16.875 0.75 0  17.625 0.75 0  18.375 0.75 0  19.125 0.75 0  19.875 0.75 0  20.625 0.75 0  21.375 0.75 0  22.125 0.75 0  22.875 0.75 0  23.625 0.75 0  24.375 0.75 0  25.125 0.75 0  25.875 0.75 0  26.625 0.75 0  27.375 0.75 0  28.125 0.75 0  28.875 0.75 0  29.625 0.75 0  30.375 0.75 0  31.125 0.75 0  31.875 0.75 0  32.625 0.75 0  33.375 0.75 0  34.125 0.75 0  34.875 0.75 0  35.625 0.75 0  36.375 0.75 0  37.125 0.75 0  37.875 0.75 0  38.625 0.75 0  39.375 0.75 0  40.125 0.75 0  40
[...]
<PointData  Vectors="f_8-0"> 
<DataArray  type="Float64"  Name="f_8-0"  NumberOfComponents="3" format="ascii">0.0000000000000000e+00 0.0000000000000000e+00 0.0000000000000000e+00  0.0000000000000000e+00 0.0000000000000000e+00 0.0000000000000000e+00  0.0000000000000000e+00 0.0000000000000000e+00 0.0000000000000000e+00  0.0000000000000000e+00 0.0000000000000000e+00 0.0000000000000000e+00  0.0000000000000000e+00 0.0000000000000000e+00 0.0000000000000000e+00  0.0000000000000000e+00 0.0000000000000000e+00 0.0000000000000000e+00  0.0000000000000000e+00 0.0000000000000000e+00 0.0000000000000000e+00  0.0000000000000000e+00 0.0000000000000000e+00 0.0000000000000000e+00  0.0000000000000000e+00 0.0000000000000000e+00 0.0000000000000000e+00  0.0000000000000000e+00 0.0000000000000000e+00 0.0000000000000000e+00  0.0000000000000000e+00 0.0000000000000000e+00 0.0000000000000000e+00  0.0000000000000000e+00 0.0000000000000000e+00 0.0000000000000000e+00  0.0000000000000000e+00 0.0000000000000000e+00 0.0000000000000000e+00  0.0000000000000000e+00 0.0000000000000000e+00 0.0000000000000000e+00  0.0000000000000000e+00 0.0000000000000000e+00 0.0000000000000000e+00  0.0000000000000000e+00 0.0000000000000000e+00 0.0000000000000000e+00  0.0000000000000000e+00 0.0000000000000000e+00 0.0000000000000000e+00  0.0000000000000000e+00 0.0000000000000000e+00 0.0000000000000000e+00  0.0000000000000000e+00 0.0000000000000000e+00 0.0000000000000000e+00  0.0000000000000000e+00 0.0000000000000000e+00 0.0000000000000000e+00  0.0000000000000000e+00 0.0000000000000000e+00 0.0000000000000000e+00  0.0000000000000000e+00 0.0000000000000000e+00 0.0000000000000000e+00  0.0000000000000000e+00 0.0000000000000000e+00 0.0000000000000000e+00  0.0000000000000000e+00 0.0000000000000000e+00 0.0000000000000000e+00  0.0000000000000000e+00 0.0000000000000000e+00 0.0000000000000000e+00  0.0000000000000000e+00 0.0000000000000000e+00 0.0000000000000000e+00  0.0000000000000000e+00 0.0000000000000000e+00 0.0000000000000000e+00  0.0000000000000000e+00 0.0000000000000000e+00 0.0000000000000000e+00  0.0000000000000000e+00 0.0000000000000000e+00 0.0000000000000000e+00  0.0000000000000000e+00 0.0000000000000000e+00 0.0000000000000000e+00  0.0000000000000000e+00 0.0000000000000000e+00 0.0000000000000000e+00  0.0000000000000000e+00 0.0000000000000000e+00 0.0000000000000000e+00  0.0000000000000000e+00 0.0000000000000000e+00 0.0000000000000000e+00  0.0000000000000000e+00 0.0000000000000000e+00 0.0000000000000000e+00  0.0000000000000000e+00 0.0000000000000000e+00 0.0000000000000000e+00  0.0000000000000000e+00 0.0000000000000000e+00 0.0000000000000000e+00  0.0000000000000000e+00 0.0000000000000000e+00 0.0000000000000000e+00  0.0000000000000000e+00 0.0000000000000000e+00 0.0000000000000000e+00  0.0000000000000000e+00 0.0000000000000000e+00 0.0000000000000000e+00  0.0000000000000000e+00 0.0000000000000000e+00 0.0000000000000000e+00  0.0000000000000000e+00 0.0000000000000000e+00 0.0000000000000000e+00  0.0000000000000000e+00 0.0000000000000000e+00 0.0000000000000000e+00  0.0000000000000000e+00 0.0000000000000000e+00 0.0000000000000000e+00  0.0000000000000000e+00 0.0000000000000000e+00 0.0000000000000000e+00  0.0000000000000000e+00 0.0000000000000000e+00 0.0000000000000000e+00  0.0000000000000000e+00 0.0000000000000000e+00 0.0000000000000000e+00  0.0000000000000000e+00 0.0000000000000000e+00 0.0000000000000000e+00  0.0000000000000000e+00 0.0000000000000000e+00 0.0000000000000000e+00  0.0000000000000000e+00 0.0000000000000000e+00 0.0000000000000000e+00  0.0000000000000000e+00 0.0000000000000000e+00 0.0000000000000000e+00  0.0000000000000000e+00 0.0000000000000000e+00 0.0000000000000000e+00  0.0000000000000000e+00 0.0000000000000000e+00 0.0000000000000000e+00  0.0000000000000000e+00 0.0000000000000000e+00 0.0000000000000000e+00  0.0000000000000000e+00 0.0000000000000000e+00 0.0000000000000000e+00  0.0000000000000000e+00 0.0000000000000000e+00 0.0000000000000000e+00  0.0000000000000000e+00 0.0000000000000000e+00 0.0000000000000000e+00  0.0000000000000000e+00 0.0000000000000000e+00 0.0000000000000000e+00  0.0000000000000000e+00 0.0000000000000000e+00 0.0000000000000000e+00  0.0000000000000000e+00 0.0000000000000000e+00 0.0000000000000000e+00  0.0000000000000000e+00 0.0000000000000000e+00 0.0000000000000000e+00  0.0000000000000000e+00 0.0000000000000000e+00 0.0000000000000000e+00  0.0000000000000000e+00 0.0000000000000000e+00 0.0000000000000000e+00  0.0000000000000000e+00 0.0000000000000000e+00 0.0000000000000000e+00  0.0000000000000000e+00 0.0000000000000000e+00 0.0000000000000000e+00  0.0000000000000000e+00 0.0000000000000000e+00 0.0000000000000000e+00  0.0000000000000000e+00 0.0000000000000000e+00 0.0000000000000000e+00  0.0000000000000000e+00 0.0000000000000000e+00 0.0000000000000000e+00  0.0000000000000000e+00 0.0000000000000000e+00 0.0000000000000000e+00  0.0000000000000000e+00 0.0000000000000000e+00 0.0000000000000000e+00  0.0000000000000000e+00 0.0000000000000000e+00 0.0000000000000000e+00  0.0000000000000000e+00 0.0000000000000000e+00 0.0000000000000000e+00  0.0000000000000000e+00 0.0000000000000000e+00 0.0000000000000000e+00  0.0000000000000000e+00 0.0000000000000000e+00 0.0000000000000000e+00  0.0000000000000000e+00 0.0000000000000000e+00 0.0000000000000000e+00  0.0000000000000000e+00 0.0000000000000000e+00 0.0000000000000000e+00  0.0000000000000000e+00 0.0000000000000000e+00 0.0000000000000000e+00  0.0000000000000000e+00 0.0000000000000000e+00 0.0000000000000000e+00  0.0000000000000000e+00 0.0000000000000000e+00 0.0000000000000000e+00  0.0000000000000000e+00 0.0000000000000000e+00 0.0000000000000000e+00  0.0000000000000000e+00 0.0000000000000000e+00 0.0000000000000000e+00  0.0000000000000000e+00 0.0000000000000000e+00 0.0000000000000000e+00  -2.7915125070568177e+01 0.0000000000000000e+00 0.0000000000000000e+00  -2.7916498113841872e+01 1.2755865666442085e-03 0.0000000000000000e+00  -2.7918166294109906e+01 1.7816249107331667e-03 0.0000000000000000e+00  -2.7919389198934990e+01 1.4930104486534257e-03 0.0000000000000000e+00  -2.7919616228880749e+01 1.1523311156082666e-03 0.0000000000000000e+00  -2.7919206389346702e+01 9.1890647257006548e-04 0.0000000000000000e+00  -2.7918420323283488e+01 7.7329435859995789e-04 0.0000000000000000e+00  -2.7917455820474668e+01 7.1041110257894868e-04 0.0000000000000000e+00  -2.7916522878936934e+01 7.3533867216702699e-04 0.0000000000000000e+00  -2.7915782184111226e+01 8.1734105983688867e-04 0.0000000000000000e+00  -2.7915279357395100e+01 9.0985984692510183e-04 0.0000000000000000e+00  -2.7914975676416809e+01 9.8462658690965017e-04 0.0000000000000000e+00  -2.7914807325423705e+01 1.0345743324768977e-03 0.0000000000000000e+00  -2.7914719628543185e+01 1.0641012054821474e-03 0.0000000000000000e+00  -2.7914675843240097e+01 1.0801003198678374e-03 0.0000000000000000e+00  -2.7914654518148183e+01 1.0883040720949390e-03 0.0000000000000000e+00  -2.7914644220804394e+01 1.0923502238369865e-03 0.0000000000000000e+00  -2.7914639223884905e+01 1.0943165203168583e-03 0.0000000000000000e+00  -2.7914636754898588e+01 1.0952598570694108e-03 0.0000000000000000e+00  -2.7914635496573279e+01 1.0957173460121451e-03 0.0000000000000000e+00  -2.7914634822588134e+01 1.0959379575628256e-03 0.0000000000000000e+00  -2.7914634434428024e+01 1.0960472869033736e-03 0.0000000000000000e+00  -2.7914634187408655e+01 1.0961007062726248e-03 0.0000000000000000e+00  -2.7914634011013533e+01 1.0961279390285250e-03 0.0000000000000000e+00  -2.7914633870081563e+01 1.0961412928841441e-03 0.0000000000000000e+00  -2.7914633747139430e+01 1.0961482921100771e-03 0.0000000000000000e+00  -2.7914633633260681e+01 1.0961516546349624e-03 0.0000000000000000e+00  -2.7914633523984470e+01 1.0961534665933658e-03 0.0000000000000000e+00  -2.7914633416997294e+01 1.0961542849330676e-03 0.0000000000000000e+00  -2.7914633311159385e+01 1.0961547384662120e-03 0.0000000000000000e+00  -2.7914633205873400e+01 1.0961549120570408e-03 0.0000000000000000e+00  -2.7914633100854335e+01 1.0961550081641381e-03 0.0000000000000000e+00  -2.7914632995955852e+01 1.0961550245729263e-03 0.0000000000000000e+00  -2.7914632891109971e+01 1.0961550279993707e-03 0.0000000000000000e+00  -2.7914632786283185e+01 1.0961550108403513e-03 0.0000000000000000e+00  -2.7914632681462134e+01 1.0961549907466234e-03 0.0000000000000000e+00  -2.7914632576640816e+01 1.0961549656267663e-03 0.0000000000000000e+00  -2.7914632471817434e+01 1.0961549413243056e-03 0.0000000000000000e+00  -2.7914632366991665e+01 1.0961549161546758e-03 0.0000000000000000e+00  -2.7914632262165600e+01 1.0961548917474476e-03 0.0000000000000000e+00  -2.7914632157338787e+01 1.0961548673448171e-03 0.0000000000000000e+00  -2.7914632052516019e+01 1.0961548418967871e-03 0.0000000000000000e+00  -2.7914631947692374e+01 1.0961548208195050e-03 0.0000000000000000e+00  -2.7914631842885559e+01 1.0961547947011870e-03 0.0000000000000000e+00  -2.7914631738067136e+01 1.0961547811624852e-03 0.0000000000000000e+00  -2.7914631633310243e+01 1.0961547446945604e-03 0.0000000000000000e+00  -2.7914631528476558e+01 1.0961547629047472e-03 0.0000000000000000e+00  -2.7914631423886181e+01 1.0961546750149840e-03 0.0000000000000000e+00  -2.7914631318900053e+01 1.0961548216373018e-03 0.0000000000000000e+00  -2.7914631214909690e+01 1.0961545001535252e-03 0.0000000000000000e+00  -2.7914631109091442e+01 1.0961551703607701e-03 0.0000000000000000e+00  -2.7914631007390955e+01 1.0961538432382079e-03 0.0000000000000000e+00  -2.7914630897743422e+01 1.0961566280930043e-03 0.0000000000000000e+00  -2.7914630804896003e+01 1.0961511897433706e-03 0.0000000000000000e+00  -2.7914630679155827e+01 1.0961622513035792e-03 0.0000000000000000e+00  -2.7914630619987417e+01 1.0961407962709474e-03 0.0000000000000000e+00  -2.7914630431195778e+01 1.0961829451814709e-03 0.0000000000000000e+00  -2.7914630495008875e+01 1.0961022780247448e-03 0.0000000000000000e+00  -2.7914630075911383e+01 1.0962552926476877e-03 0.0000000000000000e+00  -2.7914630561696818e+01 1.0959681498369086e-03 0.0000000000000000e+00  -2.7914629365968661e+01 1.0964935739443929e-03 0.0000000000000000e+00  -2.7914631182007920e+01 1.0955300093880172e-03 0.0000000000000000e+00  -2.7914627606010626e+01 1.0972314439674218e-03 0.0000000000000000e+00  -2.7914633183928053e+01 1.0941784222335061e-03 0.0000000000000000e+00  -2.7914623085677981e+01 1.0994154568955063e-03 0.0000000000000000e+00  -2.7914638041299344e+01 1.0901745627540170e-03 0.0000000000000000e+00  -2.7914612017769358e+01 1.1058773824920399e-03 0.0000000000000000e+00  -2.7914647842489202e+01 1.0786303109914907e-03 0.0000000000000000e+00  -2.7914584997692202e+01 1.1253393133176500e-03 0.0000000000000000e+00  -2.7914660152319655e+01 1.0441165845399680e-03 0.0000000000000000e+00  -2.7914486831949404e+01 1.1668435364575692e-03 0.0000000000000000e+00  -2.7914517965862991e+01 8.8187020054741373e-04 0.0000000000000000e+00  -2.7913786059335195e+01 1.0377610851872389e-03 0.0000000000000000e+00  -2.7912900467519062e+01 4.6388040868211813e-05 0.0000000000000000e+00  -2.7911264404806747e+01 8.0390304072498861e-04 0.0000000000000000e+00  -2.7910749254471366e+01 1.1189344217568654e-03 0.0000000000000000e+00  -2.7912514041950395e+01 5.9711974729777066e-03 0.0000000000000000e+00  -2.7909089814142366e+01 6.9047175507119737e-03 0.0000000000000000e+00  -2.7911223223519158e+01 1.3709212613610168e-02 0.0000000000000000e+00  -2.7895369633347745e+01 1.3954535188825841e-02 0.0000000000000000e+00  -2.7882425366624989e+01 0.0000000000000000e+00 0.0000000000000000e+00  -3.3354937590853936e+01 0.0000000000000000e+00 0.0000000000000000e+00  -3.3354255860223041e+01 4.4800647249997969e-03 0.0000000000000000e+00  -3.3352975227577708e+01 3.8884062485936214e-03 0.0000000000000000e+00  -3.3352027977875878e+01 2.9174826483840373e-03 0.0000000000000000e+00  -3.3351279426164027e+01 2.2298277543365513e-03 0.0000000000000000e+00  -3.3350604832714616e+01 1.8174008719582793e-03 0.0000000000000000e+00  -3.3349964622745802e+01 1.5768728175462974e-03 0.0000000000000000e+00  -3.3349372461078346e+01 1.5329547882282149e-03 0.0000000000000000e+00  -3.3348935621671799e+01 1.6976776344643511e-03 0.0000000000000000e+00  -3.3348710767332214e+01 1.9492951835048443e-03 0.0000000000000000e+00  -3.3348637234402098e+01 2.1687105810167277e-03 0.0000000000000000e+00  -3.3348630310888268e+01 2.3189226929783546e-03 0.0000000000000000e+00  -3.3348640805432773e+01 2.4082898810771649e-03 0.0000000000000000e+00  -3.3348650786428806e+01 2.4571343627672838e-03 0.0000000000000000e+00  -3.3348656840619732e+01 2.4822422352502550e-03 0.0000000000000000e+00  -3.3348659824791206e+01 2.4947940717500033e-03 0.0000000000000000e+00  -3.3348661119516500e+01 2.5009201329846110e-03 0.0000000000000000e+00  -3.3348661610858962e+01 2.5039207112310903e-03 0.0000000000000000e+00  -3.3348661760671703e+01 2.5053676056984784e-03 0.0000000000000000e+00  -3.3348661763424317e+01 2.5060812554536702e-03 0.0000000000000000e+00  -3.3348661705404574e+01 2.5064251817474262e-03 0.0000000000000000e+00  -3.3348661618230487e+01 2.5065985271875944e-03 0.0000000000000000e+00  -3.3348661517871491e+01 2.5066820922719315e-03 0.0000000000000000e+00  -3.3348661409872399e+01 2.5067255048972577e-03 0.0000000000000000e+00  -3.3348661298077559e+01 2.5067461457229513e-03 0.0000000000000000e+00  -3.3348661183729526e+01 2.5067572417855600e-03 0.0000000000000000e+00  -3.3348661068028868e+01 2.5067622776797911e-03 0.0000000000000000e+00  -3.3348660951347455e+01 2.5067650978796412e-03 0.0000000000000000e+00  -3.3348660834118967e+01 2.5067662529485381e-03 0.0000000000000000e+00  -3.3348660716491665e+01 2.5067669350578516e-03 0.0000000000000000e+00  -3.3348660598624079e+01 2.5067671556709878e-03 0.0000000000000000e+00  -3.3348660480586517e+01 2.5067672926321919e-03 0.0000000000000000e+00  -3.3348660362440512e+01 2.5067673077397855e-03 0.0000000000000000e+00  -3.3348660244222032e+01 2.5067673149397011e-03 0.0000000000000000e+00  -3.3348660125952506e+01 2.5067672947465731e-03 0.0000000000000000e+00  -3.3348660007651077e+01 2.5067672755038186e-03 0.0000000000000000e+00  -3.3348659889326882e+01 2.5067672539135348e-03 0.0000000000000000e+00  -3.3348659770991055e+01 2.5067672333417873e-03 0.0000000000000000e+00  -3.3348659652645338e+01 2.5067672155384439e-03 0.0000000000000000e+00  -3.3348659534295329e+01 2.5067671976810508e-03 0.0000000000000000e+00  -3.3348659415947218e+01 2.5067671833048297e-03 0.0000000000000000e+00  -3.3348659297596051e+01 2.5067671709890467e-03 0.0000000000000000e+00  -3.3348659179264189e+01 2.5067671606453490e-03 0.0000000000000000e+00  -3.3348659060922884e+01 2.5067671573191655e-03 0.0000000000000000e+00  -3.3348658942646935e+01 2.5067671524022605e-03 0.0000000000000000e+00  -3.3348658824302092e+01 2.5067671718534451e-03 0.0000000000000000e+00  -3.3348658706203942e+01 2.5067671677921526e-03 0.0000000000000000e+00  -3.3348658587741348e+01 2.5067672521287862e-03 0.0000000000000000e+00  -3.3348658470255820e+01 2.5067672126370352e-03 0.0000000000000000e+00  -3.3348658351074469e+01 2.5067675055112340e-03 0.0000000000000000e+00  -3.3348658235820956e+01 2.5067672468492546e-03 0.0000000000000000e+00  -3.3348658113261273e+01 2.5067682384348820e-03 0.0000000000000000e+00  -3.3348658006309506e+01 2.5067669986299393e-03 0.0000000000000000e+00  -3.3348657869625711e+01 2.5067703286649652e-03 0.0000000000000000e+00  -3.3348657793119486e+01 2.5067653124450006e-03 0.0000000000000000e+00  -3.3348657602210274e+01 2.5067761519966241e-03 0.0000000000000000e+00  -3.3348657632747994e+01 2.5067581259662895e-03 0.0000000000000000e+00  -3.3348657249864019e+01 2.5067911884110515e-03 0.0000000000000000e+00  -3.3348657632142661e+01 2.5067329827904673e-03 0.0000000000000000e+00  -3.3348656629073609e+01 2.5068240516443606e-03 0.0000000000000000e+00  -3.3348658061995344e+01 2.5066547302204801e-03 0.0000000000000000e+00  -3.3348655266242602e+01 2.5068727716382093e-03 0.0000000000000000e+00  -3.3348659456380375e+01 2.5064201911971862e-03 0.0000000000000000e+00  -3.3348652134386803e+01 2.5068698409380671e-03 0.0000000000000000e+00  -3.3348662422090293e+01 2.5056601022501778e-03 0.0000000000000000e+00  -3.3348645201076806e+01 2.5066153573473555e-03 0.0000000000000000e+00  -3.3348666382513606e+01 2.5027985322213508e-03 0.0000000000000000e+00  -3.3348628591928041e+01 2.5057482407710488e-03 0.0000000000000000e+00  -3.3348664419603352e+01 2.4893696472496674e-03 0.0000000000000000e+00  -3.3348570787896705e+01 2.4930134689224019e-03 0.0000000000000000e+00  -3.3348606370720560e+01 2.3908188684980780e-03 0.0000000000000000e+00  -3.3348310956805634e+01 2.2873828171972497e-03 0.0000000000000000e+00  -3.3348271985682629e+01 1.6922889552866195e-03 0.0000000000000000e+00  -3.3347469347937306e+01 1.2004133025518054e-03 0.0000000000000000e+00  -3.3346789905047324e+01 2.5998619570674608e-04 0.0000000000000000e+00  -3.3341021687779737e+01 -8.2353696116421168e-05 0.0000000000000000e+00  -3.3330086776110200e+01 -2.6996305622722667e-03 0.0000000000000000e+00  -3.3313460911870429e+01 -2.9153676968240198e-03 0.0000000000000000e+00  -3.3306876268885212e+01 2.1190512682153190e-04 0.0000000000000000e+00  -3.3299615282571509e+01 -3.2981324062725127e-03 0.0000000000000000e+00  -3.3324020819163408e+01 0.0000000000000000e+00 0.0000000000000000e+00  -3.1785234961454158e+01 0.0000000000000000e+00 0.0000000000000000e+00  -3.1778631473263722e+01 1.1075263186303326e-03 0.0000000000000000e+00  -3.1775494709101537e+01 4.5307196380339027e-04 0.0000000000000000e+00  -3.1774291176361249e+01 -2.6720424537216567e-04 0.0000000000000000e+00  -3.1774146271899962e+01 -7.6185982752274362e-04 0.0000000000000000e+00  -3.1774557979604882e+01 -1.0474338110835865e-03 0.0000000000000000e+00  -3.1775271283178789e+01 -1.2146066311668549e-03 0.0000000000000000e+00  -3.1776104936832862e+01 -1.2244436301076184e-03 0.0000000000000000e+00  -3.1776869162894915e+01 -1.0361585225225069e-03 0.0000000000000000e+00  -3.1777446180036986e+01 -7.8185532857179057e-04 0.0000000000000000e+00  -3.1777821765806845e+01 -5.8473286459868803e-04 0.0000000000000000e+00  -3.1778041276357317e+01 -4.6479885583487778e-04 0.0000000000000000e+00  -3.1778160304176073e+01 -4.0023027547245578e-04 0.0000000000000000e+00  -3.1778221668758281e+01 -3.6739578606160189e-04 0.0000000000000000e+00  -3.1778252263460100e+01 -3.5122966459192950e-04 0.0000000000000000e+00  -3.1778267230923905e+01 -3.4326048977527103e-04 0.0000000000000000e+00  -3.1778274473274539e+01 -3.3935254409220804e-04 0.0000000000000000e+00  -3.1778277962349012e+01 -3.3740863962846720e-04 0.0000000000000000e+00  -3.1778279624656133e+01 -3.3645890880094176e-04 0.0000000000000000e+00  -3.1778280400127034e+01 -3.3598616884567830e-04 0.0000000000000000e+00  -3.1778280736371705e+01 -3.3575830106176202e-04 0.0000000000000000e+00  -3.1778280855746754e+01 -3.3564399644694985e-04 0.0000000000000000e+00  -3.1778280864269931e+01 -3.3558961918421710e-04 0.0000000000000000e+00  -3.1778280817141230e+01 -3.3556192670585740e-04 0.0000000000000000e+00  -3.1778280740499742e+01 -3.3554914949265928e-04 0.0000000000000000e+00  -3.1778280648950552e+01 -3.3554258011167038e-04 0.0000000000000000e+00  -3.1778280549142718e+01 -3.3553978923543844e-04 0.0000000000000000e+00  -3.1778280445188436e+01 -3.3553836108701443e-04 0.0000000000000000e+00  -3.1778280338804297e+01 -3.3553788383745099e-04 0.0000000000000000e+00  -3.1778280231220517e+01 -3.3553765346543943e-04 0.0000000000000000e+00  -3.1778280122881061e+01 -3.3553764447071948e-04 0.0000000000000000e+00  -3.1778280014173131e+01 -3.3553765786119641e-04 0.0000000000000000e+00  -3.1778279905214568e+01 -3.3553770693725820e-04 0.0000000000000000e+00  -3.1778279796132921e+01 -3.3553774496680543e-04 0.0000000000000000e+00  -3.1778279686965668e+01 -3.3553778027422854e-04 0.0000000000000000e+00  -3.1778279577752130e+01 -3.3553780838531177e-04 0.0000000000000000e+00  -3.1778279468506234e+01 -3.3553782477304620e-04 0.0000000000000000e+00  -3.1778279359244820e+01 -3.3553783628685255e-04 0.000