<?xml version="1.0"?>
<VTKFile type="UnstructuredGrid"  version="0.1"  >
<UnstructuredGrid>
<Piece  NumberOfPoints="1369" NumberOfCells="2560">
<Points>
<DataArray  type="Float64"  NumberOfComponents="3"  format="ascii">0 0 0  0.75 0 0  1.5 0 0  2.25 0 0  3 0 0  3.75 0 0  4.5 0 0  5.25 0 0  6 0 0  6.75 0 0  7.5 0 0  8.25 0 0  9 0 0  9.75 0 0  10.5 0 0  11.25 0 0  12 0 0  12.75 0 0  13.5 0 0  14.25 0 0  15 0 0  15.75 0 0  16.5 0 0  17.25 0 0  18 0 0  18.75 0 0  19.5 0 0  20.25 0 0  21 0 0  21.75 0 0  22.5 0 0  23.25 0 0  24 0 0  24.75 0 0  25.5 0 0  26.25 0 0  27 0 0  27.75 0 0  28.5 0 0  29.25 0 0  30 0 0  30.75 0 0  31.5 0 0  32.25 0 0  33 0 0  33.75 0 0  34.5 0 0  35.25 0 0  36 0 0  36.75 0 0  37.5 0 0  38.25 0 0  39 0 0  39.75 0 0  40.5 0 0  41.25 0 0  42 0 0  42.75 0 0  43.5 0 0  44.25 0 0  45 0 0  45.75 0 0  46.5 0 0  47.25 0 0  48 0 0  48.75 0 0  49.5 0 0  50.25 0 0  51 0 0  51.75 0 0  52.5 0 0  53.25 0 0  54 0 0  54.75 0 0  55.5 0 0  56.25 0 0  57 0 0  57.75 0 0  58.5 0 0  59.25 0 0  60 0 0  0 0.5 0  0.75 0.5 0  1.5 0.5 0  2.25 0.5 0  3 0.5 0  3.75 0.5 0  4.5 0.5 0  5.25 0.5 0  6 0.5 0  6.75 0.5 0  7.5 0.5 0  8.25 0.5 0  9 0.5 0  9.75 0.5 0  10.5 0.5 0  11.25 0.5 0  12 0.5 0  12.75 0.5 0  13.5 0.5 0  14.25 0.5 0  15 0.5 0  15.75 0.5 0  16.5 0.5 0  17.25 0.5 0  18 0.5 0  18.75 0.5 0  19.5 0.5 0  20.25 0.5 0  21 0.5 0  21.75 0.5 0  22.5 0.5 0  23.25 0.5 0  24 0.5 0  24.75 0.5 0  25.5 0.5 0  26.25 0.5 0  27 0.5 0  27.75 0.5 0  28.5 0.5 0  29.25 0.5 0  30 0.5 0  30.75 0.5 0  31.5 0.5 0  32.25 0.5 0  33 0.5 0  33.75 0.5 0  34.5 0.5 0  35.25 0.5 0  36 0.5 0  36.75 0.5 0  37.5 0.5 0  38.25 0.5 0  39 0.5 0  39.75 0.5 0  40.5 0.5 0  41.25 0.5 0  42 0.5 0  42.75 0.5 0  43.5 0.5 0  44.25 0.5 0  45 0.5 0  45.75 0.5 0  46.5 0.5 0  47.25 0.5 0  48 0.5 0  48.75 0.5 0  49.5 0.5 0  50.25 0.5 0  51 0.5 0  51.75 0.5 0  52.5 0.5 0  53.25 0.5 0  54 0.5 0  54.75 0.5 0  55.5 0.5 0  56.25 0.5 0  57 0.5 0  57.75 0.5 0  58.5 0.5 0  59.25 0.5 0  60 0.5 0  0 1 0  0.75 1 0  1.5 1 0  2.25 1 0  3 1 0  3.75 1 0  4.5 1 0  5.25 1 0  6 1 0  6.75 1 0  7.5 1 0  8.25 1 0  9 1 0  9.75 1 0  10.5 1 0  11.25 1 0  12 1 0  12.75 1 0  13.5 1 0  14.25 1 0  15 1 0  15.75 1 0  16.5 1 0  17.25 1 0  18 1 0  18.75 1 0  19.5 1 0  20.25 1 0  21 1 0  21.75 1 0  22.5 1 0  23.25 1 0  24 1 0  24.75 1 0  25.5 1 0  26.25 1 0  27 1 0  27.75 1 0  28.5 1 0  29.25 1 0  30 1 0  30.75 1 0  31.5 1 0  32.25 1 0  33 1 0  33.75 1 0  34.5 1 0  35.25 1 0  36 1 0  36.75 1 0  37.5 1 0  38.25 1 0  39 1 0  39.75 1 0  40.5 1 0  41.25 1 0  42 1 0  42.75 1 0  43.5 1 0  44.25 1 0  45 1 0  45.75 1 0  46.5 1 0  47.25 1 0  48 1 0  48.75 1 0  49.5 1 0  50.25 1 0  51 1 0  51.75 1 0  52.5 1 0  53.25 1 0  54 1 0  54.75 1 0  55.5 1 0  56.25 1 0  57 1 0  57.75 1 0  58.5 1 0  59.25 1 0  60 1 0  0 1.5 0  0.75 1.5 0  1.5 1.5 0  2.25 1.5 0  3 1.5 0  3.75 1.5 0  4.5 1.5 0  5.25 1.5 0  6 1.5 0  6.75 1.5 0  7.5 1.5 0  8.25 1.5 0  9 1.5 0  9.75 1.5 0  10.5 1.5 0  11.25 1.5 0  12 1.5 0  12.75 1.5 0  13.5 1.5 0  14.25 1.5 0  15 1.5 0  15.75 1.5 0  16.5 1.5 0  17.25 1.5 0  18 1.5 0  18.75 1.5 0  19.5 1.5 0  20.25 1.5 0  21 1.5 0  21.75 1.5 0  22.5 1.5 0  23.25 1.5 0  24 1.5 0  24.75 1.5 0  25.5 1.5 0  26.25 1.5 0  27 1.5 0  27.75 1.5 0  28.5 1.5 0  29.25 1.5 0  30 1.5 0  30.75 1.5 0  31.5 1.5 0  32.25 1.5 0  33 1.5 0  33.75 1.5 0  34.5 1.5 0  35.25 1.5 0  36 1.5 0  36.75 1.5 0  37.5 1.5 0  38.25 1.5 0  39 1.5 0  39.75 1.5 0  40.5 1.5 0  41.25 1.5 0  42 1.5 0  42.75 1.5 0  43.5 1.5 0  44.25 1.5 0  45 1.5 0  45.75 1.5 0  46.5 1.5 0  47.25 1.5 0  48 1.5 0  48.75 1.5 0  49.5 1.5 0  50.25 1.5 0  51 1.5 0  51.75 1.5 0  52.5 1.5 0  53.25 1.5 0  54 1.5 0  54.75 1.5 0  55.5 1.5 0  56.25 1.5 0  57 1.5 0  57.75 1.5 0  58.5 1.5 0  59.25 1.5 0  60 1.5 0  0 2 0  0.75 2 0  1.5 2 0  2.25 2 0  3 2 0  3.75 2 0  4.5 2 0  5.25 2 0  6 2 0  6.75 2 0  7.5 2 0  8.25 2 0  9 2 0  9.75 2 0  10.5 2 0  11.25 2 0  12 2 0  12.75 2 0  13.5 2 0  14.25 2 0  15 2 0  15.75 2 0  16.5 2 0  17.25 2 0  18 2 0  18.75 2 0  19.5 2 0  20.25 2 0  21 2 0  21.75 2 0  22.5 2 0  23.25 2 0  24 2 0  24.75 2 0  25.5 2 0  26.25 2 0  27 2 0  27.75 2 0  28.5 2 0  29.25 2 0  30 2 0  30.75 2 0  31.5 2 0  32.25 2 0  33 2 0  33.75 2 0  34.5 2 0  35.25 2 0  36 2 0  36.75 2 0  37.5 2 0  38.25 2 0  39 2 0  39.75 2 0  40.5 2 0  41.25 2 0  42 2 0  42.75 2 0  43.5 2 0  44.25 2 0  45 2 0  45.75 2 0  46.5 2 0  47.25 2 0  48 2 0  48.75 2 0  49.5 2 0  50.25 2 0  51 2 0  51.75 2 0  52.5 2 0  53.25 2 0  54 2 0  54.75 2 0  55.5 2 0  56.25 2 0  57 2 0  57.75 2 0  58.5 2 0  59.25 2 0  60 2 0  0 2.5 0  0.75 2.5 0  1.5 2.5 0  2.25 2.5 0  3 2.5 0  3.75 2.5 0  4.5 2.5 0  5.25 2.5 0  6 2.5 0  6.75 2.5 0  7.5 2.5 0  8.25 2.5 0  9 2.5 0  9.75 2.5 0  10.5 2.5 0  11.25 2.5 0  12 2.5 0  12.75 2.5 0  13.5 2.5 0  14.25 2.5 0  15 2.5 0  15.75 2.5 0  16.5 2.5 0  17.25 2.5 0  18 2.5 0  18.75 2.5 0  19.5 2.5 0  20.25 2.5 0  21 2.5 0  21.75 2.5 0  22.5 2.5 0  23.25 2.5 0  24 2.5 0  24.75 2.5 0  25.5 2.5 0  26.25 2.5 0  27 2.5 0  27.75 2.5 0  28.5 2.5 0  29.25 2.5 0  30 2.5 0  30.75 2.5 0  31.5 2.5 0  32.25 2.5 0  33 2.5 0  33.75 2.5 0  34.5 2.5 0  35.25 2.5 0  36 2.5 0  36.75 2.5 0  37.5 2.5 0  38.25 2.5 0  39 2.5 0  39.75 2.5 0  40.5 2.5 0  41.25 2.5 0  42 2.5 0  42.75 2.5 0  43.5 2.5 0  44.25 2.5 0  45 2.5 0  45.75 2.5 0  46.5 2.5 0  47.25 2.5 0  48 2.5 0  48.75 2.5 0  49.5 2.5 0  50.25 2.5 0  51 2.5 0  51.75 2.5 0  52.5 2.5 0  53.25 2.5 0  54 2.5 0  54.75 2.5 0  55.5 2.5 0  56.25 2.5 0  57 2.5 0  57.75 2.5 0  58.5 2.5 0  59.25 2.5 0  60 2.5 0  0 3 0  0.75 3 0  1.5 3 0  2.25 3 0  3 3 0  3.75 3 0  4.5 3 0  5.25 3 0  6 3 0  6.75 3 0  7.5 3 0  8.25 3 0  9 3 0  9.75 3 0  10.5 3 0  11.25 3 0  12 3 0  12.75 3 0  13.5 3 0  14.25 3 0  15 3 0  15.75 3 0  16.5 3 0  17.25 3 0  18 3 0  18.75 3 0  19.5 3 0  20.25 3 0  21 3 0  21.75 3 0  22.5 3 0  23.25 3 0  24 3 0  24.75 3 0  25.5 3 0  26.25 3 0  27 3 0  27.75 3 0  28.5 3 0  29.25 3 0  30 3 0  30.75 3 0  31.5 3 0  32.25 3 0  33 3 0  33.75 3 0  34.5 3 0  35.25 3 0  36 3 0  36.75 3 0  37.5 3 0  38.25 3 0  39 3 0  39.75 3 0  40.5 3 0  41.25 3 0  42 3 0  42.75 3 0  43.5 3 0  44.25 3 0  45 3 0  45.75 3 0  46.5 3 0  47.25 3 0  48 3 0  48.75 3 0  49.5 3 0  50.25 3 0  51 3 0  51.75 3 0  52.5 3 0  53.25 3 0  54 3 0  54.75 3 0  55.5 3 0  56.25 3 0  57 3 0  57.75 3 0  58.5 3 0  59.25 3 0  60 3 0  0 3.5 0  0.75 3.5 0  1.5 3.5 0  2.25 3.5 0  3 3.5 0  3.75 3.5 0  4.5 3.5 0  5.25 3.5 0  6 3.5 0  6.75 3.5 0  7.5 3.5 0  8.25 3.5 0  9 3.5 0  9.75 3.5 0  10.5 3.5 0  11.25 3.5 0  12 3.5 0  12.75 3.5 0  13.5 3.5 0  14.25 3.5 0  15 3.5 0  15.75 3.5 0  16.5 3.5 0  17.25 3.5 0  18 3.5 0  18.75 3.5 0  19.5 3.5 0  20.25 3.5 0  21 3.5 0  21.75 3.5 0  22.5 3.5 0  23.25 3.5 0  24 3.5 0  24.75 3.5 0  25.5 3.5 0  26.25 3.5 0  27 3.5 0  27.75 3.5 0  28.5 3.5 0  29.25 3.5 0  30 3.5 0  30.75 3.5 0  31.5 3.5 0  32.25 3.5 0  33 3.5 0  33.75 3.5 0  34.5 3.5 0  35.25 3.5 0  36 3.5 0  36.75 3.5 0  37.5 3.5 0  38.25 3.5 0  39 3.5 0  39.75 3.5 0  40.5 3.5 0  41.25 3.5 0  42 3.5 0  42.75 3.5 0  43.5 3.5 0  44.25 3.5 0  45 3.5 0  45.75 3.5 0  46.5 3.5 0  47.25 3.5 0  48 3.5 0  48.75 3.5 0  49.5 3.5 0  50.25 3.5 0  51 3.5 0  51.75 3.5 0  52.5 3.5 0  53.25 3.5 0  54 3.5 0  54.75 3.5 0  55.5 3.5 0  56.25 3.5 0  57 3.5 0  57.75 3.5 0  58.5 3.5 0  59.25 3.5 0  60 3.5 0  0 4 0  0.75 4 0  1.5 4 0  2.25 4 0  3 4 0  3.75 4 0  4.5 4 0  5.25 4 0  6 4 0  6.75 4 0  7.5 4 0  8.25 4 0  9 4 0  9.75 4 0  10.5 4 0  11.25 4 0  12 4 0  12.75 4 0  13.5 4 0  14.25 4 0  15 4 0  15.75 4 0  16.5 4 0  17.25 4 0  18 4 0  18.75 4 0  19.5 4 0  20.25 4 0  21 4 0  21.75 4 0  22.5 4 0  23.25 4 0  24 4 0  24.75 4 0  25.5 4 0  26.25 4 0  27 4 0  27.75 4 0  28.5 4 0  29.25 4 0  30 4 0  30.75 4 0  31.5 4 0  32.25 4 0  33 4 0  33.75 4 0  34.5 4 0  35.25 4 0  36 4 0  36.75 4 0  37.5 4 0  38.25 4 0  39 4 0  39.75 4 0  40.5 4 0  41.25 4 0  42 4 0  42.75 4 0  43.5 4 0  44.25 4 0  45 4 0  45.75 4 0  46.5 4 0  47.25 4 0  48 4 0  48.75 4 0  49.5 4 0  50.25 4 0  51 4 0  51.75 4 0  52.5 4 0  53.25 4 0  54 4 0  54.75 4 0  55.5 4 0  56.25 4 0  57 4 0  57.75 4 0  58.5 4 0  59.25 4 0  60 4 0  0.375 0.25 0  1.125 0.25 0  1.875 0.25 0  2.625 0.25 0  3.375 0.25 0  4.125 0.25 0  4.875 0.25 0  5.625 0.25 0  6.375 0.25 0  7.125 0.25 0  7.875 0.25 0  8.625 0.25 0  9.375 0.25 0  10.125 0.25 0  10.875 0.25 0  11.625 0.25 0  12.375 0.25 0  13.125 0.25 0  13.875 0.25 0  14.625 0.25 0  15.375 0.25 0  16.125 0.25 0  16.875 0.25 0  17.625 0.25 0  18.375 0.25 0  19.125 0.25 0  19.875 0.25 0  20.625 0.25 0  21.375 0.25 0  22.125 0.25 0  22.875 0.25 0  23.625 0.25 0  24.375 0.25 0  25.125 0.25 0  25.875 0.25 0  26.625 0.25 0  27.375 0.25 0  28.125 0.25 0  28.875 0.25 0  29.625 0.25 0  30.375 0.25 0  31.125 0.25 0  31.875 0.25 0  32.625 0.25 0  33.375 0.25 0  34.125 0.25 0  34.875 0.25 0  35.625 0.25 0  36.375 0.25 0  37.125 0.25 0  37.875 0.25 0  38.625 0.25 0  39.375 0.25 0  40.125 0.25 0  40.875 0.25 0  41.625 0.25 0  42.375 0.25 0  43.125 0.25 0  43.875 0.25 0  44.625 0.25 0  45.375 0.25 0  46.125 0.25 0  46.875 0.25 0  47.625 0.25 0  48.375 0.25 0  49.125 0.25 0  49.875 0.25 0  50.625 0.25 0  51.375 0.25 0  52.125 0.25 0  52.875 0.25 0  53.625 0.25 0  54.375 0.25 0  55.125 0.25 0  55.875 0.25 0  56.625 0.25 0  57.375 0.25 0  58.125 0.25 0  58.875 0.25 0  59.625 0.25 0  0.375 0.75 0  1.125 0.75 0  1.875 0.75 0  2.625 0.75 0  3.375 0.75 0  4.125 0.75 0  4.875 0.75 0  5.625 0.75 0  6.375 0.75 0  7.125 0.75 0  7.875 0.75 0  8.625 0.75 0  9.375 0.75 0  10.125 0.75 0  10.875 0.75 0  11.625 0.75 0  12.375 0.75 0  13.125 0.75 0  13.875 0.75 0  14.625 0.75 0  15.375 0.75 0  16.125 0.75 0  16.875 0.75 0  17.625 0.75 0  18.375 0.75 0  19.125 0.75 0  19.875 0.75 0  20.625 0.75 0  21.375 0.75 0  22.125 0.75 0  22.875 0.75 0  23.625 0.75 0  24.375 0.75 0  25.125 0.75 0  25.875 0.75 0  26.625 0.75 0  27.375 0.75 0  28.125 0.75 0  28.875 0.75 0  29.625 0.75 0  30.375 0.75 0  31.125 0.75 0  31.875 0.75 0  32.625 0.75 0  33.375 0.75 0  34.125 0.75 0  34.875 0.75 0  35.625 0.75 0  36.375 0.75 0  37.125 0.75 0  37.875 0.75 0  38.625 0.75 0  39.375 0.75 0  40.125 0.75 0  40
[...]
<PointData  Vectors="f_8-0"> 
<DataArray  type="Float64"  Name="f_8-0"  NumberOfComponents="3" format="ascii">0.0000000000000000e+00 0.0000000000000000e+00 0.0000000000000000e+00  0.0000000000000000e+00 0.0000000000000000e+00 0.0000000000000000e+00  0.0000000000000000e+00 0.0000000000000000e+00 0.0000000000000000e+00  0.0000000000000000e+00 0.0000000000000000e+00 0.0000000000000000e+00  0.0000000000000000e+00 0.0000000000000000e+00 0.0000000000000000e+00  0.0000000000000000e+00 0.0000000000000000e+00 0.0000000000000000e+00  0.0000000000000000e+00 0.0000000000000000e+00 0.0000000000000000e+00  0.0000000000000000e+00 0.0000000000000000e+00 0.0000000000000000e+00  0.0000000000000000e+00 0.0000000000000000e+00 0.0000000000000000e+00  0.0000000000000000e+00 0.0000000000000000e+00 0.0000000000000000e+00  0.0000000000000000e+00 0.0000000000000000e+00 0.0000000000000000e+00  0.0000000000000000e+00 0.0000000000000000e+00 0.0000000000000000e+00  0.0000000000000000e+00 0.0000000000000000e+00 0.0000000000000000e+00  0.0000000000000000e+00 0.0000000000000000e+00 0.0000000000000000e+00  0.0000000000000000e+00 0.0000000000000000e+00 0.0000000000000000e+00  0.0000000000000000e+00 0.0000000000000000e+00 0.0000000000000000e+00  0.0000000000000000e+00 0.0000000000000000e+00 0.0000000000000000e+00  0.0000000000000000e+00 0.0000000000000000e+00 0.0000000000000000e+00  0.0000000000000000e+00 0.0000000000000000e+00 0.0000000000000000e+00  0.0000000000000000e+00 0.0000000000000000e+00 0.0000000000000000e+00  0.0000000000000000e+00 0.0000000000000000e+00 0.0000000000000000e+00  0.0000000000000000e+00 0.0000000000000000e+00 0.0000000000000000e+00  0.0000000000000000e+00 0.0000000000000000e+00 0.0000000000000000e+00  0.0000000000000000e+00 0.0000000000000000e+00 0.0000000000000000e+00  0.0000000000000000e+00 0.0000000000000000e+00 0.0000000000000000e+00  0.0000000000000000e+00 0.0000000000000000e+00 0.0000000000000000e+00  0.0000000000000000e+00 0.0000000000000000e+00 0.0000000000000000e+00  0.0000000000000000e+00 0.0000000000000000e+00 0.0000000000000000e+00  0.0000000000000000e+00 0.0000000000000000e+00 0.0000000000000000e+00  0.0000000000000000e+00 0.0000000000000000e+00 0.0000000000000000e+00  0.0000000000000000e+00 0.0000000000000000e+00 0.0000000000000000e+00  0.0000000000000000e+00 0.0000000000000000e+00 0.0000000000000000e+00  0.0000000000000000e+00 0.0000000000000000e+00 0.0000000000000000e+00  0.0000000000000000e+00 0.0000000000000000e+00 0.0000000000000000e+00  0.0000000000000000e+00 0.0000000000000000e+00 0.0000000000000000e+00  0.0000000000000000e+00 0.0000000000000000e+00 0.0000000000000000e+00  0.0000000000000000e+00 0.0000000000000000e+00 0.0000000000000000e+00  0.0000000000000000e+00 0.0000000000000000e+00 0.0000000000000000e+00  0.0000000000000000e+00 0.0000000000000000e+00 0.0000000000000000e+00  0.0000000000000000e+00 0.0000000000000000e+00 0.0000000000000000e+00  0.0000000000000000e+00 0.0000000000000000e+00 0.0000000000000000e+00  0.0000000000000000e+00 0.0000000000000000e+00 0.0000000000000000e+00  0.0000000000000000e+00 0.0000000000000000e+00 0.0000000000000000e+00  0.0000000000000000e+00 0.0000000000000000e+00 0.0000000000000000e+00  0.0000000000000000e+00 0.0000000000000000e+00 0.0000000000000000e+00  0.0000000000000000e+00 0.0000000000000000e+00 0.0000000000000000e+00  0.0000000000000000e+00 0.0000000000000000e+00 0.0000000000000000e+00  0.0000000000000000e+00 0.0000000000000000e+00 0.0000000000000000e+00  0.0000000000000000e+00 0.0000000000000000e+00 0.0000000000000000e+00  0.0000000000000000e+00 0.0000000000000000e+00 0.0000000000000000e+00  0.0000000000000000e+00 0.0000000000000000e+00 0.0000000000000000e+00  0.0000000000000000e+00 0.0000000000000000e+00 0.0000000000000000e+00  0.0000000000000000e+00 0.0000000000000000e+00 0.0000000000000000e+00  0.0000000000000000e+00 0.0000000000000000e+00 0.0000000000000000e+00  0.0000000000000000e+00 0.0000000000000000e+00 0.0000000000000000e+00  0.0000000000000000e+00 0.0000000000000000e+00 0.0000000000000000e+00  0.0000000000000000e+00 0.0000000000000000e+00 0.0000000000000000e+00  0.0000000000000000e+00 0.0000000000000000e+00 0.0000000000000000e+00  0.0000000000000000e+00 0.0000000000000000e+00 0.0000000000000000e+00  0.0000000000000000e+00 0.0000000000000000e+00 0.0000000000000000e+00  0.0000000000000000e+00 0.0000000000000000e+00 0.0000000000000000e+00  0.0000000000000000e+00 0.0000000000000000e+00 0.0000000000000000e+00  0.0000000000000000e+00 0.0000000000000000e+00 0.0000000000000000e+00  0.0000000000000000e+00 0.0000000000000000e+00 0.0000000000000000e+00  0.0000000000000000e+00 0.0000000000000000e+00 0.0000000000000000e+00  0.0000000000000000e+00 0.0000000000000000e+00 0.0000000000000000e+00  0.0000000000000000e+00 0.0000000000000000e+00 0.0000000000000000e+00  0.0000000000000000e+00 0.0000000000000000e+00 0.0000000000000000e+00  0.0000000000000000e+00 0.0000000000000000e+00 0.0000000000000000e+00  0.0000000000000000e+00 0.0000000000000000e+00 0.0000000000000000e+00  0.0000000000000000e+00 0.0000000000000000e+00 0.0000000000000000e+00  0.0000000000000000e+00 0.0000000000000000e+00 0.0000000000000000e+00  0.0000000000000000e+00 0.0000000000000000e+00 0.0000000000000000e+00  0.0000000000000000e+00 0.0000000000000000e+00 0.0000000000000000e+00  0.0000000000000000e+00 0.0000000000000000e+00 0.0000000000000000e+00  0.0000000000000000e+00 0.0000000000000000e+00 0.0000000000000000e+00  0.0000000000000000e+00 0.0000000000000000e+00 0.0000000000000000e+00  0.0000000000000000e+00 0.0000000000000000e+00 0.0000000000000000e+00  0.0000000000000000e+00 0.0000000000000000e+00 0.0000000000000000e+00  0.0000000000000000e+00 0.0000000000000000e+00 0.0000000000000000e+00  0.0000000000000000e+00 0.0000000000000000e+00 0.0000000000000000e+00  1.3960499630645156e+01 0.0000000000000000e+00 0.0000000000000000e+00  1.4006119687156509e+01 -6.8864010950864876e-02 0.0000000000000000e+00  1.3993025385253853e+01 -2.2407141112724994e-02 0.0000000000000000e+00  1.3991774924350525e+01 -6.0564168453521271e-03 0.0000000000000000e+00  1.3988104272388142e+01 -4.8329311310033058e-03 0.0000000000000000e+00  1.3981949996048600e+01 -3.7922014345955790e-03 0.0000000000000000e+00  1.3981905038151245e+01 -6.0393779568832726e-03 0.0000000000000000e+00  1.3982173829286904e+01 -6.3637940462782363e-03 0.0000000000000000e+00  1.3985770623231330e+01 -7.4442269541754496e-03 0.0000000000000000e+00  1.3989422381602839e+01 -7.1548149945489308e-03 0.0000000000000000e+00  1.3993074021269722e+01 -6.9986108049858893e-03 0.0000000000000000e+00  1.3995330224116916e+01 -6.4644960162521716e-03 0.0000000000000000e+00  1.3996773658567863e+01 -6.2112167968798940e-03 0.0000000000000000e+00  1.3997390518408963e+01 -5.9834569160068995e-03 0.0000000000000000e+00  1.3997693030076306e+01 -5.9272694402678948e-03 0.0000000000000000e+00  1.3997778186696587e+01 -5.8833328661797414e-03 0.0000000000000000e+00  1.3997821792500526e+01 -5.8833954287300276e-03 0.0000000000000000e+00  1.3997829761174486e+01 -5.8766353328693309e-03 0.0000000000000000e+00  1.3997837812968838e+01 -5.8781504207948030e-03 0.0000000000000000e+00  1.3997839639586010e+01 -5.8768524658905537e-03 0.0000000000000000e+00  1.3997841506589904e+01 -5.8767745607298909e-03 0.0000000000000000e+00  1.3997842482788162e+01 -5.8768083702512167e-03 0.0000000000000000e+00  1.3997842626977688e+01 -5.8763686652788692e-03 0.0000000000000000e+00  1.3997843214918978e+01 -5.8767085283282245e-03 0.0000000000000000e+00  1.3997842983748468e+01 -5.8763197963231052e-03 0.0000000000000000e+00  1.3997843341729732e+01 -5.8766217655422011e-03 0.0000000000000000e+00  1.3997843123141323e+01 -5.8763601250704373e-03 0.0000000000000000e+00  1.3997843332272447e+01 -5.8765577965413564e-03 0.0000000000000000e+00  1.3997843192686931e+01 -5.8764044578691246e-03 0.0000000000000000e+00  1.3997843308250980e+01 -5.8765165507909623e-03 0.0000000000000000e+00  1.3997843232823000e+01 -5.8764349071464403e-03 0.0000000000000000e+00  1.3997843293675809e+01 -5.8764927438998311e-03 0.0000000000000000e+00  1.3997843257796783e+01 -5.8764525090268345e-03 0.0000000000000000e+00  1.3997843289032280e+01 -5.8764802308328666e-03 0.0000000000000000e+00  1.3997843274510842e+01 -5.8764617039785841e-03 0.0000000000000000e+00  1.3997843290857590e+01 -5.8764741951681781e-03 0.0000000000000000e+00  1.3997843286864523e+01 -5.8764661894373021e-03 0.0000000000000000e+00  1.3997843296230394e+01 -5.8764715398724708e-03 0.0000000000000000e+00  1.3997843297054498e+01 -5.8764682946776383e-03 0.0000000000000000e+00  1.3997843303356122e+01 -5.8764705067518071e-03 0.0000000000000000e+00  1.3997843306247896e+01 -5.8764692900514972e-03 0.0000000000000000e+00  1.3997843311278677e+01 -5.8764701991686390e-03 0.0000000000000000e+00  1.3997843315012341e+01 -5.8764698027256920e-03 0.0000000000000000e+00  1.3997843319542588e+01 -5.8764701975918387e-03 0.0000000000000000e+00  1.3997843323598985e+01 -5.8764701158093256e-03 0.0000000000000000e+00  1.3997843327938883e+01 -5.8764703172726031e-03 0.0000000000000000e+00  1.3997843332107752e+01 -5.8764703499902806e-03 0.0000000000000000e+00  1.3997843336370734e+01 -5.8764704795046850e-03 0.0000000000000000e+00  1.3997843340568927e+01 -5.8764705511094298e-03 0.0000000000000000e+00  1.3997843344790539e+01 -5.8764706544261851e-03 0.0000000000000000e+00  1.3997843348978156e+01 -5.8764707363210380e-03 0.0000000000000000e+00  1.3997843353156719e+01 -5.8764708268862608e-03 0.0000000000000000e+00  1.3997843357302514e+01 -5.8764709107535966e-03 0.0000000000000000e+00  1.3997843361427428e+01 -5.8764709984944780e-03 0.0000000000000000e+00  1.3997843365538124e+01 -5.8764711008214105e-03 0.0000000000000000e+00  1.3997843369676094e+01 -5.8764712292790171e-03 0.0000000000000000e+00  1.3997843373949109e+01 -5.8764714522698694e-03 0.0000000000000000e+00  1.3997843378636535e+01 -5.8764718395927333e-03 0.0000000000000000e+00  1.3997843384325893e+01 -5.8764726876919188e-03 0.0000000000000000e+00  1.3997843392379586e+01 -5.8764743668567347e-03 0.0000000000000000e+00  1.3997843405641957e+01 -5.8764780885132116e-03 0.0000000000000000e+00  1.3997843430260490e+01 -5.8764856213034851e-03 0.0000000000000000e+00  1.3997843478944779e+01 -5.8765018259356195e-03 0.0000000000000000e+00  1.3997843578304499e+01 -5.8765345381325291e-03 0.0000000000000000e+00  1.3997843782441494e+01 -5.8766028313856546e-03 0.0000000000000000e+00  1.3997844201605407e+01 -5.8767393712833710e-03 0.0000000000000000e+00  1.3997845054622697e+01 -5.8770161467598721e-03 0.0000000000000000e+00  1.3997846773007065e+01 -5.8775585200467606e-03 0.0000000000000000e+00  1.3997850185095542e+01 -5.8786181705835121e-03 0.0000000000000000e+00  1.3997856852087047e+01 -5.8806262397183987e-03 0.0000000000000000e+00  1.3997869637291831e+01 -5.8844148971697475e-03 0.0000000000000000e+00  1.3997893710412077e+01 -5.8914455320775742e-03 0.0000000000000000e+00  1.3997938228612448e+01 -5.9045097825832973e-03 0.0000000000000000e+00  1.3998019381078525e+01 -5.9287894004186239e-03 0.0000000000000000e+00  1.3998167038765908e+01 -5.9755208473291615e-03 0.0000000000000000e+00  1.3998443565094181e+01 -6.0689997149620577e-03 0.0000000000000000e+00  1.3999003353728913e+01 -6.2583197613930025e-03 0.0000000000000000e+00  1.4000322238498910e+01 -6.5615773775469953e-03 0.0000000000000000e+00  1.4003911752329286e+01 -6.6307954735110551e-03 0.0000000000000000e+00  1.4019576493010554e+01 1.2724244501644993e-03 0.0000000000000000e+00  1.4080470996203903e+01 0.0000000000000000e+00 0.0000000000000000e+00  2.3683634003046599e+01 0.0000000000000000e+00 0.0000000000000000e+00  2.3723550462808102e+01 3.7254073456597744e-02 0.0000000000000000e+00  2.3685931067767513e+01 3.3290913234012821e-03 0.0000000000000000e+00  2.3685513945583441e+01 1.1140985298785407e-02 0.0000000000000000e+00  2.3678074355002511e+01 8.7484940348879249e-03 0.0000000000000000e+00  2.3680031398827122e+01 4.6365905958574332e-03 0.0000000000000000e+00  2.3678659494745006e+01 2.6656968195948806e-03 0.0000000000000000e+00  2.3680214915118341e+01 -6.5476207598139113e-05 0.0000000000000000e+00  2.3680410346719057e+01 -1.4155966560264182e-03 0.0000000000000000e+00  2.3683459280233766e+01 -2.2915571217337321e-03 0.0000000000000000e+00  2.3686407747058968e+01 -1.1940126355033788e-03 0.0000000000000000e+00  2.3689305429248506e+01 -9.8357363986157587e-05 0.0000000000000000e+00  2.3690890165579567e+01 1.0114738745992237e-03 0.0000000000000000e+00  2.3691963840331201e+01 1.5824874067373236e-03 0.0000000000000000e+00  2.3692393743945441e+01 1.9443977098034843e-03 0.0000000000000000e+00  2.3692658165780628e+01 2.0619303381472511e-03 0.0000000000000000e+00  2.3692727209389421e+01 2.1306141700322633e-03 0.0000000000000000e+00  2.3692781191673937e+01 2.1415155341891097e-03 0.0000000000000000e+00  2.3692786601427134e+01 2.1535503362079332e-03 0.0000000000000000e+00  2.3692799221735964e+01 2.1539514067030691e-03 0.0000000000000000e+00  2.3692798775167649e+01 2.1565847473985749e-03 0.0000000000000000e+00  2.3692802142340899e+01 2.1569269238401701e-03 0.0000000000000000e+00  2.3692802009455551e+01 2.1572974150194596e-03 0.0000000000000000e+00  2.3692802719156091e+01 2.1577296420818293e-03 0.0000000000000000e+00  2.3692802915732454e+01 2.1575344059169498e-03 0.0000000000000000e+00  2.3692802895714561e+01 2.1578870399300613e-03 0.0000000000000000e+00  2.3692803157304688e+01 2.1576437724753132e-03 0.0000000000000000e+00  2.3692803014300736e+01 2.1578784383166679e-03 0.0000000000000000e+00  2.3692803230761118e+01 2.1577070899612637e-03 0.0000000000000000e+00  2.3692803123792569e+01 2.1578443036306219e-03 0.0000000000000000e+00  2.3692803277036873e+01 2.1577448411030137e-03 0.0000000000000000e+00  2.3692803225947031e+01 2.1578177306611629e-03 0.0000000000000000e+00  2.3692803329707349e+01 2.1577661169999846e-03 0.0000000000000000e+00  2.3692803320203939e+01 2.1578019218391679e-03 0.0000000000000000e+00  2.3692803392704761e+01 2.1577772530999794e-03 0.0000000000000000e+00  2.3692803408101305e+01 2.1577936930366592e-03 0.0000000000000000e+00  2.3692803463297661e+01 2.1577826786421720e-03 0.0000000000000000e+00  2.3692803491853290e+01 2.1577897927640833e-03 0.0000000000000000e+00  2.3692803538378218e+01 2.1577851626436921e-03 0.0000000000000000e+00  2.3692803573279413e+01 2.1577880871880731e-03 0.0000000000000000e+00  2.3692803615801626e+01 2.1577862502673321e-03 0.0000000000000000e+00  2.3692803653540018e+01 2.1577874038234109e-03 0.0000000000000000e+00  2.3692803694340544e+01 2.1577867179448113e-03 0.0000000000000000e+00  2.3692803733274477e+01 2.1577871649903842e-03 0.0000000000000000e+00  2.3692803773378493e+01 2.1577869316852850e-03 0.0000000000000000e+00  2.3692803812785328e+01 2.1577871120402512e-03 0.0000000000000000e+00  2.3692803852618837e+01 2.1577870508158016e-03 0.0000000000000000e+00  2.3692803892199450e+01 2.1577871385587539e-03 0.0000000000000000e+00  2.3692803931923020e+01 2.1577871423658413e-03 0.0000000000000000e+00  2.3692803971551925e+01 2.1577872014449813e-03 0.0000000000000000e+00  2.3692804011219106e+01 2.1577872343844329e-03 0.0000000000000000e+00  2.3692804050839342e+01 2.1577872976195739e-03 0.0000000000000000e+00  2.3692804090444454e+01 2.1577873472989071e-03 0.0000000000000000e+00  2.3692804129997068e+01 2.1577874269706645e-03 0.0000000000000000e+00  2.3692804169482041e+01 2.1577874579149841e-03 0.0000000000000000e+00  2.3692804208872644e+01 2.1577875059578351e-03 0.0000000000000000e+00  2.3692804248114218e+01 2.1577873477202809e-03 0.0000000000000000e+00  2.3692804287160826e+01 2.1577870460322652e-03 0.0000000000000000e+00  2.3692804325887199e+01 2.1577858599343873e-03 0.0000000000000000e+00  2.3692804364212204e+01 2.1577835539402430e-03 0.0000000000000000e+00  2.3692804401871786e+01 2.1577775682460787e-03 0.0000000000000000e+00  2.3692804438717982e+01 2.1577657324279745e-03 0.0000000000000000e+00  2.3692804474193416e+01 2.1577387151228648e-03 0.0000000000000000e+00  2.3692804508061673e+01 2.1576848473133453e-03 0.0000000000000000e+00  2.3692804539341324e+01 2.1575688159646751e-03 0.0000000000000000e+00  2.3692804568385561e+01 2.1573370269798242e-03 0.0000000000000000e+00  2.3692804594951863e+01 2.1568575900207118e-03 0.0000000000000000e+00  2.3692804622837851e+01 2.1559170570137473e-03 0.0000000000000000e+00  2.3692804652402771e+01 2.1540699629476038e-03 0.0000000000000000e+00  2.3692804687275146e+01 2.1506003207957159e-03 0.0000000000000000e+00  2.3692804730994137e+01 2.1440608355817290e-03 0.0000000000000000e+00  2.3692804848094365e+01 2.1319129995765185e-03 0.0000000000000000e+00  2.3692805154914410e+01 2.1093109741486893e-03 0.0000000000000000e+00  2.3692805977542307e+01 2.0678700219387064e-03 0.0000000000000000e+00  2.3692808674430484e+01 1.9890657526893409e-03 0.0000000000000000e+00  2.3692817996036361e+01 1.8309603026750406e-03 0.0000000000000000e+00  2.3692851696173083e+01 1.4866690872506773e-03 0.0000000000000000e+00  2.3692988619841014e+01 6.9719689164573823e-04 0.0000000000000000e+00  2.3693580889142616e+01 -9.9340501671649662e-04 0.0000000000000000e+00  2.3693793947312319e+01 -5.6443286663972799e-03 0.0000000000000000e+00  2.3686634804143122e+01 0.0000000000000000e+00 0.0000000000000000e+00  2.5391513317087572e+01 0.0000000000000000e+00 0.0000000000000000e+00  2.5356844054460097e+01 -1.6456359564874880e-02 0.0000000000000000e+00  2.5368799503423904e+01 3.0603151997512781e-03 0.0000000000000000e+00  2.5372695564599464e+01 -4.6717978372789522e-05 0.0000000000000000e+00  2.5388677210374485e+01 3.6229011954142429e-03 0.0000000000000000e+00  2.5390533555738870e+01 2.5597271521192572e-03 0.0000000000000000e+00  2.5395009442329087e+01 7.4612697896132753e-04 0.0000000000000000e+00  2.5392277418701106e+01 2.5252017357229776e-04 0.0000000000000000e+00  2.5390541083590080e+01 -1.7680933733869079e-03 0.0000000000000000e+00  2.5385734637780434e+01 -2.7620163243674807e-03 0.0000000000000000e+00  2.5382759504045858e+01 -2.4914776930966293e-03 0.0000000000000000e+00  2.5380047052753795e+01 -1.1970412352309292e-03 0.0000000000000000e+00  2.5378917668104364e+01 -1.6362984857988416e-04 0.0000000000000000e+00  2.5378093112931147e+01 5.9171295775748312e-04 0.0000000000000000e+00  2.5377889524087163e+01 9.5621861287680898e-04 0.0000000000000000e+00  2.5377712744016602e+01 1.1536937839114714e-03 0.0000000000000000e+00  2.5377707245110432e+01 1.2221701033164210e-03 0.0000000000000000e+00  2.5377666820974174e+01 1.2574964844579209e-03 0.0000000000000000e+00  2.5377674456191951e+01 1.2664303404429991e-03 0.0000000000000000e+00  2.5377661805804607e+01 1.2725949264402532e-03 0.0000000000000000e+00  2.5377665174656720e+01 1.2740684915484321e-03 0.0000000000000000e+00  2.5377661151308523e+01 1.2752537174828857e-03 0.0000000000000000e+00  2.5377662070414122e+01 1.2758135596252821e-03 0.0000000000000000e+00  2.5377661141284385e+01 1.2759001946578074e-03 0.0000000000000000e+00  2.5377661139464191e+01 1.2762247588965856e-03 0.0000000000000000e+00  2.5377661175636927e+01 1.2760897319507732e-03 0.0000000000000000e+00  2.5377660951946744e+01 1.2762876245934842e-03 0.0000000000000000e+00  2.5377661191853800e+01 1.2761592672496003e-03 0.0000000000000000e+00  2.5377660994808192e+01 1.2762734352299411e-03 0.0000000000000000e+00  2.5377661213315665e+01 1.2761912965180407e-03 0.0000000000000000e+00  2.5377661096077599e+01 1.2762524540994038e-03 0.0000000000000000e+00  2.5377661252849375e+01 1.2762076647522267e-03 0.0000000000000000e+00  2.5377661203752034e+01 1.2762381835076542e-03 0.0000000000000000e+00  2.5377661310267992e+01 1.2762160174576952e-03 0.0000000000000000e+00  2.5377661305548354e+01 1.2762302980856230e-03 0.0000000000000000e+00  2.5377661380691549e+01 1.2762200878255214e-03 0.0000000000000000e+00  2.5377661400995986e+01 1.2762263886820144e-03 0.0000000000000000e+00  2.5377661459132870e+01 1.2762219594512831e-03 0.0000000000000000e+00  2.5377661492182536e+01 1.2762245965806968e-03 0.0000000000000000e+00  2.5377661541976856e+01 1.2762227748333522e-03 0.0000000000