<?xml version="1.0"?>
<VTKFile type="UnstructuredGrid"  version="0.1"  >
<UnstructuredGrid>
<Piece  NumberOfPoints="1369" NumberOfCells="2560">
<Points>
<DataArray  type="Float64"  NumberOfComponents="3"  format="ascii">0 0 0  0.75 0 0  1.5 0 0  2.25 0 0  3 0 0  3.75 0 0  4.5 0 0  5.25 0 0  6 0 0  6.75 0 0  7.5 0 0  8.25 0 0  9 0 0  9.75 0 0  10.5 0 0  11.25 0 0  12 0 0  12.75 0 0  13.5 0 0  14.25 0 0  15 0 0  15.75 0 0  16.5 0 0  17.25 0 0  18 0 0  18.75 0 0  19.5 0 0  20.25 0 0  21 0 0  21.75 0 0  22.5 0 0  23.25 0 0  24 0 0  24.75 0 0  25.5 0 0  26.25 0 0  27 0 0  27.75 0 0  28.5 0 0  29.25 0 0  30 0 0  30.75 0 0  31.5 0 0  32.25 0 0  33 0 0  33.75 0 0  34.5 0 0  35.25 0 0  36 0 0  36.75 0 0  37.5 0 0  38.25 0 0  39 0 0  39.75 0 0  40.5 0 0  41.25 0 0  42 0 0  42.75 0 0  43.5 0 0  44.25 0 0  45 0 0  45.75 0 0  46.5 0 0  47.25 0 0  48 0 0  48.75 0 0  49.5 0 0  50.25 0 0  51 0 0  51.75 0 0  52.5 0 0  53.25 0 0  54 0 0  54.75 0 0  55.5 0 0  56.25 0 0  57 0 0  57.75 0 0  58.5 0 0  59.25 0 0  60 0 0  0 0.5 0  0.75 0.5 0  1.5 0.5 0  2.25 0.5 0  3 0.5 0  3.75 0.5 0  4.5 0.5 0  5.25 0.5 0  6 0.5 0  6.75 0.5 0  7.5 0.5 0  8.25 0.5 0  9 0.5 0  9.75 0.5 0  10.5 0.5 0  11.25 0.5 0  12 0.5 0  12.75 0.5 0  13.5 0.5 0  14.25 0.5 0  15 0.5 0  15.75 0.5 0  16.5 0.5 0  17.25 0.5 0  18 0.5 0  18.75 0.5 0  19.5 0.5 0  20.25 0.5 0  21 0.5 0  21.75 0.5 0  22.5 0.5 0  23.25 0.5 0  24 0.5 0  24.75 0.5 0  25.5 0.5 0  26.25 0.5 0  27 0.5 0  27.75 0.5 0  28.5 0.5 0  29.25 0.5 0  30 0.5 0  30.75 0.5 0  31.5 0.5 0  32.25 0.5 0  33 0.5 0  33.75 0.5 0  34.5 0.5 0  35.25 0.5 0  36 0.5 0  36.75 0.5 0  37.5 0.5 0  38.25 0.5 0  39 0.5 0  39.75 0.5 0  40.5 0.5 0  41.25 0.5 0  42 0.5 0  42.75 0.5 0  43.5 0.5 0  44.25 0.5 0  45 0.5 0  45.75 0.5 0  46.5 0.5 0  47.25 0.5 0  48 0.5 0  48.75 0.5 0  49.5 0.5 0  50.25 0.5 0  51 0.5 0  51.75 0.5 0  52.5 0.5 0  53.25 0.5 0  54 0.5 0  54.75 0.5 0  55.5 0.5 0  56.25 0.5 0  57 0.5 0  57.75 0.5 0  58.5 0.5 0  59.25 0.5 0  60 0.5 0  0 1 0  0.75 1 0  1.5 1 0  2.25 1 0  3 1 0  3.75 1 0  4.5 1 0  5.25 1 0  6 1 0  6.75 1 0  7.5 1 0  8.25 1 0  9 1 0  9.75 1 0  10.5 1 0  11.25 1 0  12 1 0  12.75 1 0  13.5 1 0  14.25 1 0  15 1 0  15.75 1 0  16.5 1 0  17.25 1 0  18 1 0  18.75 1 0  19.5 1 0  20.25 1 0  21 1 0  21.75 1 0  22.5 1 0  23.25 1 0  24 1 0  24.75 1 0  25.5 1 0  26.25 1 0  27 1 0  27.75 1 0  28.5 1 0  29.25 1 0  30 1 0  30.75 1 0  31.5 1 0  32.25 1 0  33 1 0  33.75 1 0  34.5 1 0  35.25 1 0  36 1 0  36.75 1 0  37.5 1 0  38.25 1 0  39 1 0  39.75 1 0  40.5 1 0  41.25 1 0  42 1 0  42.75 1 0  43.5 1 0  44.25 1 0  45 1 0  45.75 1 0  46.5 1 0  47.25 1 0  48 1 0  48.75 1 0  49.5 1 0  50.25 1 0  51 1 0  51.75 1 0  52.5 1 0  53.25 1 0  54 1 0  54.75 1 0  55.5 1 0  56.25 1 0  57 1 0  57.75 1 0  58.5 1 0  59.25 1 0  60 1 0  0 1.5 0  0.75 1.5 0  1.5 1.5 0  2.25 1.5 0  3 1.5 0  3.75 1.5 0  4.5 1.5 0  5.25 1.5 0  6 1.5 0  6.75 1.5 0  7.5 1.5 0  8.25 1.5 0  9 1.5 0  9.75 1.5 0  10.5 1.5 0  11.25 1.5 0  12 1.5 0  12.75 1.5 0  13.5 1.5 0  14.25 1.5 0  15 1.5 0  15.75 1.5 0  16.5 1.5 0  17.25 1.5 0  18 1.5 0  18.75 1.5 0  19.5 1.5 0  20.25 1.5 0  21 1.5 0  21.75 1.5 0  22.5 1.5 0  23.25 1.5 0  24 1.5 0  24.75 1.5 0  25.5 1.5 0  26.25 1.5 0  27 1.5 0  27.75 1.5 0  28.5 1.5 0  29.25 1.5 0  30 1.5 0  30.75 1.5 0  31.5 1.5 0  32.25 1.5 0  33 1.5 0  33.75 1.5 0  34.5 1.5 0  35.25 1.5 0  36 1.5 0  36.75 1.5 0  37.5 1.5 0  38.25 1.5 0  39 1.5 0  39.75 1.5 0  40.5 1.5 0  41.25 1.5 0  42 1.5 0  42.75 1.5 0  43.5 1.5 0  44.25 1.5 0  45 1.5 0  45.75 1.5 0  46.5 1.5 0  47.25 1.5 0  48 1.5 0  48.75 1.5 0  49.5 1.5 0  50.25 1.5 0  51 1.5 0  51.75 1.5 0  52.5 1.5 0  53.25 1.5 0  54 1.5 0  54.75 1.5 0  55.5 1.5 0  56.25 1.5 0  57 1.5 0  57.75 1.5 0  58.5 1.5 0  59.25 1.5 0  60 1.5 0  0 2 0  0.75 2 0  1.5 2 0  2.25 2 0  3 2 0  3.75 2 0  4.5 2 0  5.25 2 0  6 2 0  6.75 2 0  7.5 2 0  8.25 2 0  9 2 0  9.75 2 0  10.5 2 0  11.25 2 0  12 2 0  12.75 2 0  13.5 2 0  14.25 2 0  15 2 0  15.75 2 0  16.5 2 0  17.25 2 0  18 2 0  18.75 2 0  19.5 2 0  20.25 2 0  21 2 0  21.75 2 0  22.5 2 0  23.25 2 0  24 2 0  24.75 2 0  25.5 2 0  26.25 2 0  27 2 0  27.75 2 0  28.5 2 0  29.25 2 0  30 2 0  30.75 2 0  31.5 2 0  32.25 2 0  33 2 0  33.75 2 0  34.5 2 0  35.25 2 0  36 2 0  36.75 2 0  37.5 2 0  38.25 2 0  39 2 0  39.75 2 0  40.5 2 0  41.25 2 0  42 2 0  42.75 2 0  43.5 2 0  44.25 2 0  45 2 0  45.75 2 0  46.5 2 0  47.25 2 0  48 2 0  48.75 2 0  49.5 2 0  50.25 2 0  51 2 0  51.75 2 0  52.5 2 0  53.25 2 0  54 2 0  54.75 2 0  55.5 2 0  56.25 2 0  57 2 0  57.75 2 0  58.5 2 0  59.25 2 0  60 2 0  0 2.5 0  0.75 2.5 0  1.5 2.5 0  2.25 2.5 0  3 2.5 0  3.75 2.5 0  4.5 2.5 0  5.25 2.5 0  6 2.5 0  6.75 2.5 0  7.5 2.5 0  8.25 2.5 0  9 2.5 0  9.75 2.5 0  10.5 2.5 0  11.25 2.5 0  12 2.5 0  12.75 2.5 0  13.5 2.5 0  14.25 2.5 0  15 2.5 0  15.75 2.5 0  16.5 2.5 0  17.25 2.5 0  18 2.5 0  18.75 2.5 0  19.5 2.5 0  20.25 2.5 0  21 2.5 0  21.75 2.5 0  22.5 2.5 0  23.25 2.5 0  24 2.5 0  24.75 2.5 0  25.5 2.5 0  26.25 2.5 0  27 2.5 0  27.75 2.5 0  28.5 2.5 0  29.25 2.5 0  30 2.5 0  30.75 2.5 0  31.5 2.5 0  32.25 2.5 0  33 2.5 0  33.75 2.5 0  34.5 2.5 0  35.25 2.5 0  36 2.5 0  36.75 2.5 0  37.5 2.5 0  38.25 2.5 0  39 2.5 0  39.75 2.5 0  40.5 2.5 0  41.25 2.5 0  42 2.5 0  42.75 2.5 0  43.5 2.5 0  44.25 2.5 0  45 2.5 0  45.75 2.5 0  46.5 2.5 0  47.25 2.5 0  48 2.5 0  48.75 2.5 0  49.5 2.5 0  50.25 2.5 0  51 2.5 0  51.75 2.5 0  52.5 2.5 0  53.25 2.5 0  54 2.5 0  54.75 2.5 0  55.5 2.5 0  56.25 2.5 0  57 2.5 0  57.75 2.5 0  58.5 2.5 0  59.25 2.5 0  60 2.5 0  0 3 0  0.75 3 0  1.5 3 0  2.25 3 0  3 3 0  3.75 3 0  4.5 3 0  5.25 3 0  6 3 0  6.75 3 0  7.5 3 0  8.25 3 0  9 3 0  9.75 3 0  10.5 3 0  11.25 3 0  12 3 0  12.75 3 0  13.5 3 0  14.25 3 0  15 3 0  15.75 3 0  16.5 3 0  17.25 3 0  18 3 0  18.75 3 0  19.5 3 0  20.25 3 0  21 3 0  21.75 3 0  22.5 3 0  23.25 3 0  24 3 0  24.75 3 0  25.5 3 0  26.25 3 0  27 3 0  27.75 3 0  28.5 3 0  29.25 3 0  30 3 0  30.75 3 0  31.5 3 0  32.25 3 0  33 3 0  33.75 3 0  34.5 3 0  35.25 3 0  36 3 0  36.75 3 0  37.5 3 0  38.25 3 0  39 3 0  39.75 3 0  40.5 3 0  41.25 3 0  42 3 0  42.75 3 0  43.5 3 0  44.25 3 0  45 3 0  45.75 3 0  46.5 3 0  47.25 3 0  48 3 0  48.75 3 0  49.5 3 0  50.25 3 0  51 3 0  51.75 3 0  52.5 3 0  53.25 3 0  54 3 0  54.75 3 0  55.5 3 0  56.25 3 0  57 3 0  57.75 3 0  58.5 3 0  59.25 3 0  60 3 0  0 3.5 0  0.75 3.5 0  1.5 3.5 0  2.25 3.5 0  3 3.5 0  3.75 3.5 0  4.5 3.5 0  5.25 3.5 0  6 3.5 0  6.75 3.5 0  7.5 3.5 0  8.25 3.5 0  9 3.5 0  9.75 3.5 0  10.5 3.5 0  11.25 3.5 0  12 3.5 0  12.75 3.5 0  13.5 3.5 0  14.25 3.5 0  15 3.5 0  15.75 3.5 0  16.5 3.5 0  17.25 3.5 0  18 3.5 0  18.75 3.5 0  19.5 3.5 0  20.25 3.5 0  21 3.5 0  21.75 3.5 0  22.5 3.5 0  23.25 3.5 0  24 3.5 0  24.75 3.5 0  25.5 3.5 0  26.25 3.5 0  27 3.5 0  27.75 3.5 0  28.5 3.5 0  29.25 3.5 0  30 3.5 0  30.75 3.5 0  31.5 3.5 0  32.25 3.5 0  33 3.5 0  33.75 3.5 0  34.5 3.5 0  35.25 3.5 0  36 3.5 0  36.75 3.5 0  37.5 3.5 0  38.25 3.5 0  39 3.5 0  39.75 3.5 0  40.5 3.5 0  41.25 3.5 0  42 3.5 0  42.75 3.5 0  43.5 3.5 0  44.25 3.5 0  45 3.5 0  45.75 3.5 0  46.5 3.5 0  47.25 3.5 0  48 3.5 0  48.75 3.5 0  49.5 3.5 0  50.25 3.5 0  51 3.5 0  51.75 3.5 0  52.5 3.5 0  53.25 3.5 0  54 3.5 0  54.75 3.5 0  55.5 3.5 0  56.25 3.5 0  57 3.5 0  57.75 3.5 0  58.5 3.5 0  59.25 3.5 0  60 3.5 0  0 4 0  0.75 4 0  1.5 4 0  2.25 4 0  3 4 0  3.75 4 0  4.5 4 0  5.25 4 0  6 4 0  6.75 4 0  7.5 4 0  8.25 4 0  9 4 0  9.75 4 0  10.5 4 0  11.25 4 0  12 4 0  12.75 4 0  13.5 4 0  14.25 4 0  15 4 0  15.75 4 0  16.5 4 0  17.25 4 0  18 4 0  18.75 4 0  19.5 4 0  20.25 4 0  21 4 0  21.75 4 0  22.5 4 0  23.25 4 0  24 4 0  24.75 4 0  25.5 4 0  26.25 4 0  27 4 0  27.75 4 0  28.5 4 0  29.25 4 0  30 4 0  30.75 4 0  31.5 4 0  32.25 4 0  33 4 0  33.75 4 0  34.5 4 0  35.25 4 0  36 4 0  36.75 4 0  37.5 4 0  38.25 4 0  39 4 0  39.75 4 0  40.5 4 0  41.25 4 0  42 4 0  42.75 4 0  43.5 4 0  44.25 4 0  45 4 0  45.75 4 0  46.5 4 0  47.25 4 0  48 4 0  48.75 4 0  49.5 4 0  50.25 4 0  51 4 0  51.75 4 0  52.5 4 0  53.25 4 0  54 4 0  54.75 4 0  55.5 4 0  56.25 4 0  57 4 0  57.75 4 0  58.5 4 0  59.25 4 0  60 4 0  0.375 0.25 0  1.125 0.25 0  1.875 0.25 0  2.625 0.25 0  3.375 0.25 0  4.125 0.25 0  4.875 0.25 0  5.625 0.25 0  6.375 0.25 0  7.125 0.25 0  7.875 0.25 0  8.625 0.25 0  9.375 0.25 0  10.125 0.25 0  10.875 0.25 0  11.625 0.25 0  12.375 0.25 0  13.125 0.25 0  13.875 0.25 0  14.625 0.25 0  15.375 0.25 0  16.125 0.25 0  16.875 0.25 0  17.625 0.25 0  18.375 0.25 0  19.125 0.25 0  19.875 0.25 0  20.625 0.25 0  21.375 0.25 0  22.125 0.25 0  22.875 0.25 0  23.625 0.25 0  24.375 0.25 0  25.125 0.25 0  25.875 0.25 0  26.625 0.25 0  27.375 0.25 0  28.125 0.25 0  28.875 0.25 0  29.625 0.25 0  30.375 0.25 0  31.125 0.25 0  31.875 0.25 0  32.625 0.25 0  33.375 0.25 0  34.125 0.25 0  34.875 0.25 0  35.625 0.25 0  36.375 0.25 0  37.125 0.25 0  37.875 0.25 0  38.625 0.25 0  39.375 0.25 0  40.125 0.25 0  40.875 0.25 0  41.625 0.25 0  42.375 0.25 0  43.125 0.25 0  43.875 0.25 0  44.625 0.25 0  45.375 0.25 0  46.125 0.25 0  46.875 0.25 0  47.625 0.25 0  48.375 0.25 0  49.125 0.25 0  49.875 0.25 0  50.625 0.25 0  51.375 0.25 0  52.125 0.25 0  52.875 0.25 0  53.625 0.25 0  54.375 0.25 0  55.125 0.25 0  55.875 0.25 0  56.625 0.25 0  57.375 0.25 0  58.125 0.25 0  58.875 0.25 0  59.625 0.25 0  0.375 0.75 0  1.125 0.75 0  1.875 0.75 0  2.625 0.75 0  3.375 0.75 0  4.125 0.75 0  4.875 0.75 0  5.625 0.75 0  6.375 0.75 0  7.125 0.75 0  7.875 0.75 0  8.625 0.75 0  9.375 0.75 0  10.125 0.75 0  10.875 0.75 0  11.625 0.75 0  12.375 0.75 0  13.125 0.75 0  13.875 0.75 0  14.625 0.75 0  15.375 0.75 0  16.125 0.75 0  16.875 0.75 0  17.625 0.75 0  18.375 0.75 0  19.125 0.75 0  19.875 0.75 0  20.625 0.75 0  21.375 0.75 0  22.125 0.75 0  22.875 0.75 0  23.625 0.75 0  24.375 0.75 0  25.125 0.75 0  25.875 0.75 0  26.625 0.75 0  27.375 0.75 0  28.125 0.75 0  28.875 0.75 0  29.625 0.75 0  30.375 0.75 0  31.125 0.75 0  31.875 0.75 0  32.625 0.75 0  33.375 0.75 0  34.125 0.75 0  34.875 0.75 0  35.625 0.75 0  36.375 0.75 0  37.125 0.75 0  37.875 0.75 0  38.625 0.75 0  39.375 0.75 0  40.125 0.75 0  40
[...]
<PointData  Vectors="f_8-0"> 
<DataArray  type="Float64"  Name="f_8-0"  NumberOfComponents="3" format="ascii">0.0000000000000000e+00 0.0000000000000000e+00 0.0000000000000000e+00  0.0000000000000000e+00 0.0000000000000000e+00 0.0000000000000000e+00  0.0000000000000000e+00 0.0000000000000000e+00 0.0000000000000000e+00  0.0000000000000000e+00 0.0000000000000000e+00 0.0000000000000000e+00  0.0000000000000000e+00 0.0000000000000000e+00 0.0000000000000000e+00  0.0000000000000000e+00 0.0000000000000000e+00 0.0000000000000000e+00  0.0000000000000000e+00 0.0000000000000000e+00 0.0000000000000000e+00  0.0000000000000000e+00 0.0000000000000000e+00 0.0000000000000000e+00  0.0000000000000000e+00 0.0000000000000000e+00 0.0000000000000000e+00  0.0000000000000000e+00 0.0000000000000000e+00 0.0000000000000000e+00  0.0000000000000000e+00 0.0000000000000000e+00 0.0000000000000000e+00  0.0000000000000000e+00 0.0000000000000000e+00 0.0000000000000000e+00  0.0000000000000000e+00 0.0000000000000000e+00 0.0000000000000000e+00  0.0000000000000000e+00 0.0000000000000000e+00 0.0000000000000000e+00  0.0000000000000000e+00 0.0000000000000000e+00 0.0000000000000000e+00  0.0000000000000000e+00 0.0000000000000000e+00 0.0000000000000000e+00  0.0000000000000000e+00 0.0000000000000000e+00 0.0000000000000000e+00  0.0000000000000000e+00 0.0000000000000000e+00 0.0000000000000000e+00  0.0000000000000000e+00 0.0000000000000000e+00 0.0000000000000000e+00  0.0000000000000000e+00 0.0000000000000000e+00 0.0000000000000000e+00  0.0000000000000000e+00 0.0000000000000000e+00 0.0000000000000000e+00  0.0000000000000000e+00 0.0000000000000000e+00 0.0000000000000000e+00  0.0000000000000000e+00 0.0000000000000000e+00 0.0000000000000000e+00  0.0000000000000000e+00 0.0000000000000000e+00 0.0000000000000000e+00  0.0000000000000000e+00 0.0000000000000000e+00 0.0000000000000000e+00  0.0000000000000000e+00 0.0000000000000000e+00 0.0000000000000000e+00  0.0000000000000000e+00 0.0000000000000000e+00 0.0000000000000000e+00  0.0000000000000000e+00 0.0000000000000000e+00 0.0000000000000000e+00  0.0000000000000000e+00 0.0000000000000000e+00 0.0000000000000000e+00  0.0000000000000000e+00 0.0000000000000000e+00 0.0000000000000000e+00  0.0000000000000000e+00 0.0000000000000000e+00 0.0000000000000000e+00  0.0000000000000000e+00 0.0000000000000000e+00 0.0000000000000000e+00  0.0000000000000000e+00 0.0000000000000000e+00 0.0000000000000000e+00  0.0000000000000000e+00 0.0000000000000000e+00 0.0000000000000000e+00  0.0000000000000000e+00 0.0000000000000000e+00 0.0000000000000000e+00  0.0000000000000000e+00 0.0000000000000000e+00 0.0000000000000000e+00  0.0000000000000000e+00 0.0000000000000000e+00 0.0000000000000000e+00  0.0000000000000000e+00 0.0000000000000000e+00 0.0000000000000000e+00  0.0000000000000000e+00 0.0000000000000000e+00 0.0000000000000000e+00  0.0000000000000000e+00 0.0000000000000000e+00 0.0000000000000000e+00  0.0000000000000000e+00 0.0000000000000000e+00 0.0000000000000000e+00  0.0000000000000000e+00 0.0000000000000000e+00 0.0000000000000000e+00  0.0000000000000000e+00 0.0000000000000000e+00 0.0000000000000000e+00  0.0000000000000000e+00 0.0000000000000000e+00 0.0000000000000000e+00  0.0000000000000000e+00 0.0000000000000000e+00 0.0000000000000000e+00  0.0000000000000000e+00 0.0000000000000000e+00 0.0000000000000000e+00  0.0000000000000000e+00 0.0000000000000000e+00 0.0000000000000000e+00  0.0000000000000000e+00 0.0000000000000000e+00 0.0000000000000000e+00  0.0000000000000000e+00 0.0000000000000000e+00 0.0000000000000000e+00  0.0000000000000000e+00 0.0000000000000000e+00 0.0000000000000000e+00  0.0000000000000000e+00 0.0000000000000000e+00 0.0000000000000000e+00  0.0000000000000000e+00 0.0000000000000000e+00 0.0000000000000000e+00  0.0000000000000000e+00 0.0000000000000000e+00 0.0000000000000000e+00  0.0000000000000000e+00 0.0000000000000000e+00 0.0000000000000000e+00  0.0000000000000000e+00 0.0000000000000000e+00 0.0000000000000000e+00  0.0000000000000000e+00 0.0000000000000000e+00 0.0000000000000000e+00  0.0000000000000000e+00 0.0000000000000000e+00 0.0000000000000000e+00  0.0000000000000000e+00 0.0000000000000000e+00 0.0000000000000000e+00  0.0000000000000000e+00 0.0000000000000000e+00 0.0000000000000000e+00  0.0000000000000000e+00 0.0000000000000000e+00 0.0000000000000000e+00  0.0000000000000000e+00 0.0000000000000000e+00 0.0000000000000000e+00  0.0000000000000000e+00 0.0000000000000000e+00 0.0000000000000000e+00  0.0000000000000000e+00 0.0000000000000000e+00 0.0000000000000000e+00  0.0000000000000000e+00 0.0000000000000000e+00 0.0000000000000000e+00  0.0000000000000000e+00 0.0000000000000000e+00 0.0000000000000000e+00  0.0000000000000000e+00 0.0000000000000000e+00 0.0000000000000000e+00  0.0000000000000000e+00 0.0000000000000000e+00 0.0000000000000000e+00  0.0000000000000000e+00 0.0000000000000000e+00 0.0000000000000000e+00  0.0000000000000000e+00 0.0000000000000000e+00 0.0000000000000000e+00  0.0000000000000000e+00 0.0000000000000000e+00 0.0000000000000000e+00  0.0000000000000000e+00 0.0000000000000000e+00 0.0000000000000000e+00  0.0000000000000000e+00 0.0000000000000000e+00 0.0000000000000000e+00  0.0000000000000000e+00 0.0000000000000000e+00 0.0000000000000000e+00  0.0000000000000000e+00 0.0000000000000000e+00 0.0000000000000000e+00  0.0000000000000000e+00 0.0000000000000000e+00 0.0000000000000000e+00  0.0000000000000000e+00 0.0000000000000000e+00 0.0000000000000000e+00  0.0000000000000000e+00 0.0000000000000000e+00 0.0000000000000000e+00  0.0000000000000000e+00 0.0000000000000000e+00 0.0000000000000000e+00  0.0000000000000000e+00 0.0000000000000000e+00 0.0000000000000000e+00  0.0000000000000000e+00 0.0000000000000000e+00 0.0000000000000000e+00  0.0000000000000000e+00 0.0000000000000000e+00 0.0000000000000000e+00  -4.2560715708486390e+00 0.0000000000000000e+00 0.0000000000000000e+00  -4.3209907165200336e+00 -2.5656676905154531e-02 0.0000000000000000e+00  -4.3427444627514129e+00 4.8633035557197457e-04 0.0000000000000000e+00  -4.3587473840980167e+00 5.1402985343245271e-03 0.0000000000000000e+00  -4.3760709874434802e+00 5.6871481419552847e-03 0.0000000000000000e+00  -4.3904899095871048e+00 4.3331911872899137e-03 0.0000000000000000e+00  -4.3993404689851436e+00 1.9851157195039963e-03 0.0000000000000000e+00  -4.4041194848076612e+00 3.5159277766178687e-04 0.0000000000000000e+00  -4.4052235522170484e+00 -9.7776062685428640e-04 0.0000000000000000e+00  -4.4045146198931171e+00 -1.6037590403804184e-03 0.0000000000000000e+00  -4.4024172532039829e+00 -2.0319505484810642e-03 0.0000000000000000e+00  -4.3999161629880339e+00 -2.1277373866411793e-03 0.0000000000000000e+00  -4.3970859030748422e+00 -2.2096101031121407e-03 0.0000000000000000e+00  -4.3942518392226484e+00 -2.1842967695021201e-03 0.0000000000000000e+00  -4.3914201985503389e+00 -2.1269514476307898e-03 0.0000000000000000e+00  -4.3889058980360112e+00 -1.9500017004039204e-03 0.0000000000000000e+00  -4.3868432030608888e+00 -1.7375759453843532e-03 0.0000000000000000e+00  -4.3853587543557957e+00 -1.5108006169284489e-03 0.0000000000000000e+00  -4.3843656125824939e+00 -1.3369868988392715e-03 0.0000000000000000e+00  -4.3837621496480725e+00 -1.2112331178330204e-03 0.0000000000000000e+00  -4.3833996861978477e+00 -1.1389146984575069e-03 0.0000000000000000e+00  -4.3831862944780058e+00 -1.0964021060220072e-03 0.0000000000000000e+00  -4.3830467880193940e+00 -1.0764557628354389e-03 0.0000000000000000e+00  -4.3829484828373202e+00 -1.0653009925414359e-03 0.0000000000000000e+00  -4.3828681905868656e+00 -1.0604278731312969e-03 0.0000000000000000e+00  -4.3827997892681383e+00 -1.0567302294024409e-03 0.0000000000000000e+00  -4.3827382460986213e+00 -1.0542535891064882e-03 0.0000000000000000e+00  -4.3826840072597397e+00 -1.0513881147610859e-03 0.0000000000000000e+00  -4.3826363908810277e+00 -1.0487070718438259e-03 0.0000000000000000e+00  -4.3825960836769058e+00 -1.0458240266678354e-03 0.0000000000000000e+00  -4.3825625446859169e+00 -1.0432329954361953e-03 0.0000000000000000e+00  -4.3825353915175871e+00 -1.0408667854371967e-03 0.0000000000000000e+00  -4.3825135828058430e+00 -1.0389493501565805e-03 0.0000000000000000e+00  -4.3824961989980586e+00 -1.0373934307916657e-03 0.0000000000000000e+00  -4.3824822230804514e+00 -1.0362212106874210e-03 0.0000000000000000e+00  -4.3824708548280862e+00 -1.0353284890040101e-03 0.0000000000000000e+00  -4.3824614364680619e+00 -1.0346636881555526e-03 0.0000000000000000e+00  -4.3824535213482738e+00 -1.0341432772650180e-03 0.0000000000000000e+00  -4.3824467997214036e+00 -1.0337302231726701e-03 0.0000000000000000e+00  -4.3824410441583499e+00 -1.0333954155988339e-03 0.0000000000000000e+00  -4.3824360867835370e+00 -1.0331216008707715e-03 0.0000000000000000e+00  -4.3824318114026815e+00 -1.0328849520427426e-03 0.0000000000000000e+00  -4.3824281682361432e+00 -1.0326653677282687e-03 0.0000000000000000e+00  -4.3824251276904960e+00 -1.0324580767987798e-03 0.0000000000000000e+00  -4.3824226544181384e+00 -1.0322690433875602e-03 0.0000000000000000e+00  -4.3824206822204577e+00 -1.0321049095026876e-03 0.0000000000000000e+00  -4.3824191507995858e+00 -1.0319581807347077e-03 0.0000000000000000e+00  -4.3824180297641098e+00 -1.0318143749802873e-03 0.0000000000000000e+00  -4.3824173316395409e+00 -1.0316617448389894e-03 0.0000000000000000e+00  -4.3824170749188394e+00 -1.0315046264758210e-03 0.0000000000000000e+00  -4.3824172472190517e+00 -1.0313591006520094e-03 0.0000000000000000e+00  -4.3824177811061160e+00 -1.0312436927144876e-03 0.0000000000000000e+00  -4.3824185719111464e+00 -1.0311658926405816e-03 0.0000000000000000e+00  -4.3824195129682879e+00 -1.0311196971205215e-03 0.0000000000000000e+00  -4.3824205319265364e+00 -1.0310897915847359e-03 0.0000000000000000e+00  -4.3824216019665974e+00 -1.0310618107553032e-03 0.0000000000000000e+00  -4.3824227304231425e+00 -1.0310289738863663e-03 0.0000000000000000e+00  -4.3824239328301218e+00 -1.0309940373780650e-03 0.0000000000000000e+00  -4.3824252108827615e+00 -1.0309653154343288e-03 0.0000000000000000e+00  -4.3824265426416726e+00 -1.0309513410072498e-03 0.0000000000000000e+00  -4.3824278873415938e+00 -1.0309564446026793e-03 0.0000000000000000e+00  -4.3824291979685936e+00 -1.0309795706464264e-03 0.0000000000000000e+00  -4.3824304344905514e+00 -1.0310154910683079e-03 0.0000000000000000e+00  -4.3824315719139282e+00 -1.0310574052479185e-03 0.0000000000000000e+00  -4.3824326019104065e+00 -1.0310992023001371e-03 0.0000000000000000e+00  -4.3824335293293819e+00 -1.0311369230217127e-03 0.0000000000000000e+00  -4.3824343660696732e+00 -1.0311692118881214e-03 0.0000000000000000e+00  -4.3824351232380829e+00 -1.0311982720248405e-03 0.0000000000000000e+00  -4.3824357987407625e+00 -1.0312325520312122e-03 0.0000000000000000e+00  -4.3824363490108755e+00 -1.0312968538195584e-03 0.0000000000000000e+00  -4.3824366092012541e+00 -1.0314620122618518e-03 0.0000000000000000e+00  -4.3824360897099419e+00 -1.0319083872834824e-03 0.0000000000000000e+00  -4.3824332838060851e+00 -1.0332354727873032e-03 0.0000000000000000e+00  -4.3824245770481687e+00 -1.0363202123561638e-03 0.0000000000000000e+00  -4.3823962799933502e+00 -1.0481479309809132e-03 0.0000000000000000e+00  -4.3823340297291864e+00 -1.0566927253634196e-03 0.0000000000000000e+00  -4.3820627663110461e+00 -1.2200788514008408e-03 0.0000000000000000e+00  -4.3819170605638327e+00 -7.9604207940518952e-04 0.0000000000000000e+00  -4.3781603252759647e+00 -4.4599824300511105e-03 0.0000000000000000e+00  -4.3882556623161557e+00 1.4707802538274811e-02 0.0000000000000000e+00  -4.3444768003230907e+00 0.0000000000000000e+00 0.0000000000000000e+00  5.1324158067387593e+00 0.0000000000000000e+00 0.0000000000000000e+00  5.1438045284106364e+00 1.4488682119157242e-02 0.0000000000000000e+00  5.1322807194841458e+00 1.2055814107282570e-02 0.0000000000000000e+00  5.1317905986994505e+00 1.6429031722550672e-02 0.0000000000000000e+00  5.1303608439399468e+00 1.4396926833196400e-02 0.0000000000000000e+00  5.1324442328927278e+00 9.9097448066519760e-03 0.0000000000000000e+00  5.1331205300676173e+00 5.7745273339328248e-03 0.0000000000000000e+00  5.1344808112988130e+00 1.9107654344818685e-03 0.0000000000000000e+00  5.1349270578213657e+00 -2.5632284753769147e-04 0.0000000000000000e+00  5.1357344601728405e+00 -1.8310641583607712e-03 0.0000000000000000e+00  5.1361306203042343e+00 -2.5146015975870540e-03 0.0000000000000000e+00  5.1369399883223235e+00 -2.9486640602254606e-03 0.0000000000000000e+00  5.1376435459258216e+00 -3.0072824519763969e-03 0.0000000000000000e+00  5.1385739286428782e+00 -3.1335422216271893e-03 0.0000000000000000e+00  5.1396199121571522e+00 -3.0832864502603379e-03 0.0000000000000000e+00  5.1410004120082915e+00 -2.8470166051138977e-03 0.0000000000000000e+00  5.1424050629574030e+00 -2.3501310888807748e-03 0.0000000000000000e+00  5.1436875201004275e+00 -1.8030474731064281e-03 0.0000000000000000e+00  5.1446392840098385e+00 -1.3032063650256127e-03 0.0000000000000000e+00  5.1452950915526490e+00 -9.5050593975012855e-04 0.0000000000000000e+00  5.1456871826893300e+00 -7.2059777035402396e-04 0.0000000000000000e+00  5.1459232773893433e+00 -5.9569059181666985e-04 0.0000000000000000e+00  5.1460558358384247e+00 -5.2731390381313638e-04 0.0000000000000000e+00  5.1461420271778948e+00 -4.9575939356888551e-04 0.0000000000000000e+00  5.1461996084087307e+00 -4.7830198929493741e-04 0.0000000000000000e+00  5.1462474971724559e+00 -4.6955921168475185e-04 0.0000000000000000e+00  5.1462877863906860e+00 -4.6212576398764303e-04 0.0000000000000000e+00  5.1463255585141194e+00 -4.5586596229385339e-04 0.0000000000000000e+00  5.1463594751946760e+00 -4.4880824063707161e-04 0.0000000000000000e+00  5.1463906274388593e+00 -4.4193941570782751e-04 0.0000000000000000e+00  5.1464177891111174e+00 -4.3503530981850403e-04 0.0000000000000000e+00  5.1464414040516049e+00 -4.2895272226897891e-04 0.0000000000000000e+00  5.1464612504831084e+00 -4.2368608308986278e-04 0.0000000000000000e+00  5.1464780098420917e+00 -4.1950528521870182e-04 0.0000000000000000e+00  5.1464920496111182e+00 -4.1622274890967115e-04 0.0000000000000000e+00  5.1465040388546015e+00 -4.1377585734664188e-04 0.0000000000000000e+00  5.1465144067796720e+00 -4.1191193764767494e-04 0.0000000000000000e+00  5.1465235517245862e+00 -4.1046274394565535e-04 0.0000000000000000e+00  5.1465316467174418e+00 -4.0926925466842537e-04 0.0000000000000000e+00  5.1465388170566078e+00 -4.0828127543015972e-04 0.0000000000000000e+00  5.1465451586421347e+00 -4.0745121382946788e-04 0.0000000000000000e+00  5.1465507656191329e+00 -4.0671810055793717e-04 0.0000000000000000e+00  5.1465556671252646e+00 -4.0601223982598917e-04 0.0000000000000000e+00  5.1465598202112792e+00 -4.0531162158379154e-04 0.0000000000000000e+00  5.1465631855906473e+00 -4.0465185026545560e-04 0.0000000000000000e+00  5.1465657977284582e+00 -4.0407609316536666e-04 0.0000000000000000e+00  5.1465677792316109e+00 -4.0358570099637784e-04 0.0000000000000000e+00  5.1465692575955142e+00 -4.0313005782345845e-04 0.0000000000000000e+00  5.1465702952600836e+00 -4.0265647890045671e-04 0.0000000000000000e+00  5.1465708696396177e+00 -4.0215545657835088e-04 0.0000000000000000e+00  5.1465709412410501e+00 -4.0167563722258095e-04 0.0000000000000000e+00  5.1465705282274490e+00 -4.0128712965288864e-04 0.0000000000000000e+00  5.1465697470197744e+00 -4.0103670855374472e-04 0.0000000000000000e+00  5.1465687783569374e+00 -4.0091849591732923e-04 0.0000000000000000e+00  5.1465677995142887e+00 -4.0088354477726631e-04 0.0000000000000000e+00  5.1465669185341909e+00 -4.0086967499118603e-04 0.0000000000000000e+00  5.1465661531521913e+00 -4.0083429458252339e-04 0.0000000000000000e+00  5.1465654514329673e+00 -4.0076832216066107e-04 0.0000000000000000e+00  5.1465647382921382e+00 -4.0069119415866777e-04 0.0000000000000000e+00  5.1465639570368733e+00 -4.0063295093856389e-04 0.0000000000000000e+00  5.1465630909789235e+00 -4.0061714822985762e-04 0.0000000000000000e+00  5.1465621607926693e+00 -4.0065137077359300e-04 0.0000000000000000e+00  5.1465612078600289e+00 -4.0072773205730017e-04 0.0000000000000000e+00  5.1465602746387038e+00 -4.0082925720148679e-04 0.0000000000000000e+00  5.1465593913486840e+00 -4.0093777824320179e-04 0.0000000000000000e+00  5.1465585712453086e+00 -4.0103947541866549e-04 0.0000000000000000e+00  5.1465578131302889e+00 -4.0112800498106732e-04 0.0000000000000000e+00  5.1465571073728507e+00 -4.0120628074383056e-04 0.0000000000000000e+00  5.1465564435306366e+00 -4.0129369452087440e-04 0.0000000000000000e+00  5.1465558205846103e+00 -4.0144773122116281e-04 0.0000000000000000e+00  5.1465552710344538e+00 -4.0183352203088563e-04 0.0000000000000000e+00  5.1465549255845300e+00 -4.0291807244304922e-04 0.0000000000000000e+00  5.1465552205631173e+00 -4.0595763864833347e-04 0.0000000000000000e+00  5.1465573727843541e+00 -4.1459254093451092e-04 0.0000000000000000e+00  5.1465653357025705e+00 -4.3700148786665296e-04 0.0000000000000000e+00  5.1465894659423999e+00 -5.0387386700772609e-04 0.0000000000000000e+00  5.1466632536635313e+00 -6.3407898805113174e-04 0.0000000000000000e+00  5.1469335215012491e+00 -1.1873272199963783e-03 0.0000000000000000e+00  5.1474549762696578e+00 -1.1797400897300089e-03 0.0000000000000000e+00  5.1544878874255931e+00 -7.3622688084800103e-03 0.0000000000000000e+00  5.1505600147381765e+00 0.0000000000000000e+00 0.0000000000000000e+00  1.0187459917090290e+01 0.0000000000000000e+00 0.0000000000000000e+00  1.0191281281758863e+01 3.4676518481223770e-03 0.0000000000000000e+00  1.0204029052355397e+01 7.4300675430693016e-03 0.0000000000000000e+00  1.0221755564217911e+01 7.2203607838609365e-03 0.0000000000000000e+00  1.0240754024249368e+01 7.1853256808933359e-03 0.0000000000000000e+00  1.0253705244429648e+01 5.2608671026965117e-03 0.0000000000000000e+00  1.0263313724535440e+01 2.9371013762852912e-03 0.0000000000000000e+00  1.0267448525532838e+01 1.4054555594224158e-03 0.0000000000000000e+00  1.0269367558702948e+01 4.0260771821090584e-05 0.0000000000000000e+00  1.0268717388279182e+01 -4.7149342896120040e-04 0.0000000000000000e+00  1.0267391723418553e+01 -1.0058923869176867e-03 0.0000000000000000e+00  1.0265130979574614e+01 -1.1968747834734674e-03 0.0000000000000000e+00  1.0262907515716542e+01 -1.3255679150160199e-03 0.0000000000000000e+00  1.0260412853310036e+01 -1.3840138247616534e-03 0.0000000000000000e+00  1.0257993570987070e+01 -1.5594602601349378e-03 0.0000000000000000e+00  1.0255648241814173e+01 -1.5302341601161266e-03 0.0000000000000000e+00  1.0253767149008841e+01 -1.2660645299559204e-03 0.0000000000000000e+00  1.0252361266851171e+01 -7.9776196478142849e-04 0.0000000000000000e+00  1.0251469408183542e+01 -3.2700719721433339e-04 0.0000000000000000e+00  1.0250916876870306e+01 6.3731162269932615e-05 0.0000000000000000e+00  1.0250611321989412e+01 3.2213904059630050e-04 0.0000000000000000e+00  1.0250425292964549e+01 4.8073644452149307e-04 0.0000000000000000e+00  1.0250314682868527e+01 5.6346878596473049e-04 0.0000000000000000e+00  1.0250231501132173e+01 6.0725806560635992e-04 0.0000000000000000e+00  1.0250168518799669e+01 6.2729537436889129e-04 0.0000000000000000e+00  1.0250111696628435e+01 6.3868854868185710e-04 0.0000000000000000e+00  1.0250063204411946e+01 6.4507123089776943e-04 0.0000000000000000e+00  1.0250019288052867e+01 6.5100023378538243e-04 0.0000000000000000e+00  1.0249982705340638e+01 6.5646404908967714e-04 0.0000000000000000e+00  1.0249952184782593e+01 6.6255403295568960e-04 0.0000000000000000e+00  1.0249928777947618e+01 6.6851146894728443e-04 0.0000000000000000e+00  1.0249911107875446e+01 6.7430074249086238e-04 0.0000000000000000e+00  1.0249898827517484e+01 6.7930534529689823e-04 0.0000000000000000e+00  1.0249890566225575e+01 6.8353476177678214e-04 0.0000000000000000e+00  1.0249885602752098e+01 6.8686187409405710e-04 0.0000000000000000e+00  1.0249882935690040e+01 6.8943576155215073e-04 0.0000000000000000e+00  1.0249882043087149e+01 6.9137683053740768e-04 0.0000000000000000e+00  1.0249882352609831e+01 6.9295659588395220e-04 0.0000000