<?xml version="1.0"?>
<VTKFile type="UnstructuredGrid"  version="0.1"  >
<UnstructuredGrid>
<Piece  NumberOfPoints="1369" NumberOfCells="2560">
<Points>
<DataArray  type="Float64"  NumberOfComponents="3"  format="ascii">0 0 0  0.75 0 0  1.5 0 0  2.25 0 0  3 0 0  3.75 0 0  4.5 0 0  5.25 0 0  6 0 0  6.75 0 0  7.5 0 0  8.25 0 0  9 0 0  9.75 0 0  10.5 0 0  11.25 0 0  12 0 0  12.75 0 0  13.5 0 0  14.25 0 0  15 0 0  15.75 0 0  16.5 0 0  17.25 0 0  18 0 0  18.75 0 0  19.5 0 0  20.25 0 0  21 0 0  21.75 0 0  22.5 0 0  23.25 0 0  24 0 0  24.75 0 0  25.5 0 0  26.25 0 0  27 0 0  27.75 0 0  28.5 0 0  29.25 0 0  30 0 0  30.75 0 0  31.5 0 0  32.25 0 0  33 0 0  33.75 0 0  34.5 0 0  35.25 0 0  36 0 0  36.75 0 0  37.5 0 0  38.25 0 0  39 0 0  39.75 0 0  40.5 0 0  41.25 0 0  42 0 0  42.75 0 0  43.5 0 0  44.25 0 0  45 0 0  45.75 0 0  46.5 0 0  47.25 0 0  48 0 0  48.75 0 0  49.5 0 0  50.25 0 0  51 0 0  51.75 0 0  52.5 0 0  53.25 0 0  54 0 0  54.75 0 0  55.5 0 0  56.25 0 0  57 0 0  57.75 0 0  58.5 0 0  59.25 0 0  60 0 0  0 0.5 0  0.75 0.5 0  1.5 0.5 0  2.25 0.5 0  3 0.5 0  3.75 0.5 0  4.5 0.5 0  5.25 0.5 0  6 0.5 0  6.75 0.5 0  7.5 0.5 0  8.25 0.5 0  9 0.5 0  9.75 0.5 0  10.5 0.5 0  11.25 0.5 0  12 0.5 0  12.75 0.5 0  13.5 0.5 0  14.25 0.5 0  15 0.5 0  15.75 0.5 0  16.5 0.5 0  17.25 0.5 0  18 0.5 0  18.75 0.5 0  19.5 0.5 0  20.25 0.5 0  21 0.5 0  21.75 0.5 0  22.5 0.5 0  23.25 0.5 0  24 0.5 0  24.75 0.5 0  25.5 0.5 0  26.25 0.5 0  27 0.5 0  27.75 0.5 0  28.5 0.5 0  29.25 0.5 0  30 0.5 0  30.75 0.5 0  31.5 0.5 0  32.25 0.5 0  33 0.5 0  33.75 0.5 0  34.5 0.5 0  35.25 0.5 0  36 0.5 0  36.75 0.5 0  37.5 0.5 0  38.25 0.5 0  39 0.5 0  39.75 0.5 0  40.5 0.5 0  41.25 0.5 0  42 0.5 0  42.75 0.5 0  43.5 0.5 0  44.25 0.5 0  45 0.5 0  45.75 0.5 0  46.5 0.5 0  47.25 0.5 0  48 0.5 0  48.75 0.5 0  49.5 0.5 0  50.25 0.5 0  51 0.5 0  51.75 0.5 0  52.5 0.5 0  53.25 0.5 0  54 0.5 0  54.75 0.5 0  55.5 0.5 0  56.25 0.5 0  57 0.5 0  57.75 0.5 0  58.5 0.5 0  59.25 0.5 0  60 0.5 0  0 1 0  0.75 1 0  1.5 1 0  2.25 1 0  3 1 0  3.75 1 0  4.5 1 0  5.25 1 0  6 1 0  6.75 1 0  7.5 1 0  8.25 1 0  9 1 0  9.75 1 0  10.5 1 0  11.25 1 0  12 1 0  12.75 1 0  13.5 1 0  14.25 1 0  15 1 0  15.75 1 0  16.5 1 0  17.25 1 0  18 1 0  18.75 1 0  19.5 1 0  20.25 1 0  21 1 0  21.75 1 0  22.5 1 0  23.25 1 0  24 1 0  24.75 1 0  25.5 1 0  26.25 1 0  27 1 0  27.75 1 0  28.5 1 0  29.25 1 0  30 1 0  30.75 1 0  31.5 1 0  32.25 1 0  33 1 0  33.75 1 0  34.5 1 0  35.25 1 0  36 1 0  36.75 1 0  37.5 1 0  38.25 1 0  39 1 0  39.75 1 0  40.5 1 0  41.25 1 0  42 1 0  42.75 1 0  43.5 1 0  44.25 1 0  45 1 0  45.75 1 0  46.5 1 0  47.25 1 0  48 1 0  48.75 1 0  49.5 1 0  50.25 1 0  51 1 0  51.75 1 0  52.5 1 0  53.25 1 0  54 1 0  54.75 1 0  55.5 1 0  56.25 1 0  57 1 0  57.75 1 0  58.5 1 0  59.25 1 0  60 1 0  0 1.5 0  0.75 1.5 0  1.5 1.5 0  2.25 1.5 0  3 1.5 0  3.75 1.5 0  4.5 1.5 0  5.25 1.5 0  6 1.5 0  6.75 1.5 0  7.5 1.5 0  8.25 1.5 0  9 1.5 0  9.75 1.5 0  10.5 1.5 0  11.25 1.5 0  12 1.5 0  12.75 1.5 0  13.5 1.5 0  14.25 1.5 0  15 1.5 0  15.75 1.5 0  16.5 1.5 0  17.25 1.5 0  18 1.5 0  18.75 1.5 0  19.5 1.5 0  20.25 1.5 0  21 1.5 0  21.75 1.5 0  22.5 1.5 0  23.25 1.5 0  24 1.5 0  24.75 1.5 0  25.5 1.5 0  26.25 1.5 0  27 1.5 0  27.75 1.5 0  28.5 1.5 0  29.25 1.5 0  30 1.5 0  30.75 1.5 0  31.5 1.5 0  32.25 1.5 0  33 1.5 0  33.75 1.5 0  34.5 1.5 0  35.25 1.5 0  36 1.5 0  36.75 1.5 0  37.5 1.5 0  38.25 1.5 0  39 1.5 0  39.75 1.5 0  40.5 1.5 0  41.25 1.5 0  42 1.5 0  42.75 1.5 0  43.5 1.5 0  44.25 1.5 0  45 1.5 0  45.75 1.5 0  46.5 1.5 0  47.25 1.5 0  48 1.5 0  48.75 1.5 0  49.5 1.5 0  50.25 1.5 0  51 1.5 0  51.75 1.5 0  52.5 1.5 0  53.25 1.5 0  54 1.5 0  54.75 1.5 0  55.5 1.5 0  56.25 1.5 0  57 1.5 0  57.75 1.5 0  58.5 1.5 0  59.25 1.5 0  60 1.5 0  0 2 0  0.75 2 0  1.5 2 0  2.25 2 0  3 2 0  3.75 2 0  4.5 2 0  5.25 2 0  6 2 0  6.75 2 0  7.5 2 0  8.25 2 0  9 2 0  9.75 2 0  10.5 2 0  11.25 2 0  12 2 0  12.75 2 0  13.5 2 0  14.25 2 0  15 2 0  15.75 2 0  16.5 2 0  17.25 2 0  18 2 0  18.75 2 0  19.5 2 0  20.25 2 0  21 2 0  21.75 2 0  22.5 2 0  23.25 2 0  24 2 0  24.75 2 0  25.5 2 0  26.25 2 0  27 2 0  27.75 2 0  28.5 2 0  29.25 2 0  30 2 0  30.75 2 0  31.5 2 0  32.25 2 0  33 2 0  33.75 2 0  34.5 2 0  35.25 2 0  36 2 0  36.75 2 0  37.5 2 0  38.25 2 0  39 2 0  39.75 2 0  40.5 2 0  41.25 2 0  42 2 0  42.75 2 0  43.5 2 0  44.25 2 0  45 2 0  45.75 2 0  46.5 2 0  47.25 2 0  48 2 0  48.75 2 0  49.5 2 0  50.25 2 0  51 2 0  51.75 2 0  52.5 2 0  53.25 2 0  54 2 0  54.75 2 0  55.5 2 0  56.25 2 0  57 2 0  57.75 2 0  58.5 2 0  59.25 2 0  60 2 0  0 2.5 0  0.75 2.5 0  1.5 2.5 0  2.25 2.5 0  3 2.5 0  3.75 2.5 0  4.5 2.5 0  5.25 2.5 0  6 2.5 0  6.75 2.5 0  7.5 2.5 0  8.25 2.5 0  9 2.5 0  9.75 2.5 0  10.5 2.5 0  11.25 2.5 0  12 2.5 0  12.75 2.5 0  13.5 2.5 0  14.25 2.5 0  15 2.5 0  15.75 2.5 0  16.5 2.5 0  17.25 2.5 0  18 2.5 0  18.75 2.5 0  19.5 2.5 0  20.25 2.5 0  21 2.5 0  21.75 2.5 0  22.5 2.5 0  23.25 2.5 0  24 2.5 0  24.75 2.5 0  25.5 2.5 0  26.25 2.5 0  27 2.5 0  27.75 2.5 0  28.5 2.5 0  29.25 2.5 0  30 2.5 0  30.75 2.5 0  31.5 2.5 0  32.25 2.5 0  33 2.5 0  33.75 2.5 0  34.5 2.5 0  35.25 2.5 0  36 2.5 0  36.75 2.5 0  37.5 2.5 0  38.25 2.5 0  39 2.5 0  39.75 2.5 0  40.5 2.5 0  41.25 2.5 0  42 2.5 0  42.75 2.5 0  43.5 2.5 0  44.25 2.5 0  45 2.5 0  45.75 2.5 0  46.5 2.5 0  47.25 2.5 0  48 2.5 0  48.75 2.5 0  49.5 2.5 0  50.25 2.5 0  51 2.5 0  51.75 2.5 0  52.5 2.5 0  53.25 2.5 0  54 2.5 0  54.75 2.5 0  55.5 2.5 0  56.25 2.5 0  57 2.5 0  57.75 2.5 0  58.5 2.5 0  59.25 2.5 0  60 2.5 0  0 3 0  0.75 3 0  1.5 3 0  2.25 3 0  3 3 0  3.75 3 0  4.5 3 0  5.25 3 0  6 3 0  6.75 3 0  7.5 3 0  8.25 3 0  9 3 0  9.75 3 0  10.5 3 0  11.25 3 0  12 3 0  12.75 3 0  13.5 3 0  14.25 3 0  15 3 0  15.75 3 0  16.5 3 0  17.25 3 0  18 3 0  18.75 3 0  19.5 3 0  20.25 3 0  21 3 0  21.75 3 0  22.5 3 0  23.25 3 0  24 3 0  24.75 3 0  25.5 3 0  26.25 3 0  27 3 0  27.75 3 0  28.5 3 0  29.25 3 0  30 3 0  30.75 3 0  31.5 3 0  32.25 3 0  33 3 0  33.75 3 0  34.5 3 0  35.25 3 0  36 3 0  36.75 3 0  37.5 3 0  38.25 3 0  39 3 0  39.75 3 0  40.5 3 0  41.25 3 0  42 3 0  42.75 3 0  43.5 3 0  44.25 3 0  45 3 0  45.75 3 0  46.5 3 0  47.25 3 0  48 3 0  48.75 3 0  49.5 3 0  50.25 3 0  51 3 0  51.75 3 0  52.5 3 0  53.25 3 0  54 3 0  54.75 3 0  55.5 3 0  56.25 3 0  57 3 0  57.75 3 0  58.5 3 0  59.25 3 0  60 3 0  0 3.5 0  0.75 3.5 0  1.5 3.5 0  2.25 3.5 0  3 3.5 0  3.75 3.5 0  4.5 3.5 0  5.25 3.5 0  6 3.5 0  6.75 3.5 0  7.5 3.5 0  8.25 3.5 0  9 3.5 0  9.75 3.5 0  10.5 3.5 0  11.25 3.5 0  12 3.5 0  12.75 3.5 0  13.5 3.5 0  14.25 3.5 0  15 3.5 0  15.75 3.5 0  16.5 3.5 0  17.25 3.5 0  18 3.5 0  18.75 3.5 0  19.5 3.5 0  20.25 3.5 0  21 3.5 0  21.75 3.5 0  22.5 3.5 0  23.25 3.5 0  24 3.5 0  24.75 3.5 0  25.5 3.5 0  26.25 3.5 0  27 3.5 0  27.75 3.5 0  28.5 3.5 0  29.25 3.5 0  30 3.5 0  30.75 3.5 0  31.5 3.5 0  32.25 3.5 0  33 3.5 0  33.75 3.5 0  34.5 3.5 0  35.25 3.5 0  36 3.5 0  36.75 3.5 0  37.5 3.5 0  38.25 3.5 0  39 3.5 0  39.75 3.5 0  40.5 3.5 0  41.25 3.5 0  42 3.5 0  42.75 3.5 0  43.5 3.5 0  44.25 3.5 0  45 3.5 0  45.75 3.5 0  46.5 3.5 0  47.25 3.5 0  48 3.5 0  48.75 3.5 0  49.5 3.5 0  50.25 3.5 0  51 3.5 0  51.75 3.5 0  52.5 3.5 0  53.25 3.5 0  54 3.5 0  54.75 3.5 0  55.5 3.5 0  56.25 3.5 0  57 3.5 0  57.75 3.5 0  58.5 3.5 0  59.25 3.5 0  60 3.5 0  0 4 0  0.75 4 0  1.5 4 0  2.25 4 0  3 4 0  3.75 4 0  4.5 4 0  5.25 4 0  6 4 0  6.75 4 0  7.5 4 0  8.25 4 0  9 4 0  9.75 4 0  10.5 4 0  11.25 4 0  12 4 0  12.75 4 0  13.5 4 0  14.25 4 0  15 4 0  15.75 4 0  16.5 4 0  17.25 4 0  18 4 0  18.75 4 0  19.5 4 0  20.25 4 0  21 4 0  21.75 4 0  22.5 4 0  23.25 4 0  24 4 0  24.75 4 0  25.5 4 0  26.25 4 0  27 4 0  27.75 4 0  28.5 4 0  29.25 4 0  30 4 0  30.75 4 0  31.5 4 0  32.25 4 0  33 4 0  33.75 4 0  34.5 4 0  35.25 4 0  36 4 0  36.75 4 0  37.5 4 0  38.25 4 0  39 4 0  39.75 4 0  40.5 4 0  41.25 4 0  42 4 0  42.75 4 0  43.5 4 0  44.25 4 0  45 4 0  45.75 4 0  46.5 4 0  47.25 4 0  48 4 0  48.75 4 0  49.5 4 0  50.25 4 0  51 4 0  51.75 4 0  52.5 4 0  53.25 4 0  54 4 0  54.75 4 0  55.5 4 0  56.25 4 0  57 4 0  57.75 4 0  58.5 4 0  59.25 4 0  60 4 0  0.375 0.25 0  1.125 0.25 0  1.875 0.25 0  2.625 0.25 0  3.375 0.25 0  4.125 0.25 0  4.875 0.25 0  5.625 0.25 0  6.375 0.25 0  7.125 0.25 0  7.875 0.25 0  8.625 0.25 0  9.375 0.25 0  10.125 0.25 0  10.875 0.25 0  11.625 0.25 0  12.375 0.25 0  13.125 0.25 0  13.875 0.25 0  14.625 0.25 0  15.375 0.25 0  16.125 0.25 0  16.875 0.25 0  17.625 0.25 0  18.375 0.25 0  19.125 0.25 0  19.875 0.25 0  20.625 0.25 0  21.375 0.25 0  22.125 0.25 0  22.875 0.25 0  23.625 0.25 0  24.375 0.25 0  25.125 0.25 0  25.875 0.25 0  26.625 0.25 0  27.375 0.25 0  28.125 0.25 0  28.875 0.25 0  29.625 0.25 0  30.375 0.25 0  31.125 0.25 0  31.875 0.25 0  32.625 0.25 0  33.375 0.25 0  34.125 0.25 0  34.875 0.25 0  35.625 0.25 0  36.375 0.25 0  37.125 0.25 0  37.875 0.25 0  38.625 0.25 0  39.375 0.25 0  40.125 0.25 0  40.875 0.25 0  41.625 0.25 0  42.375 0.25 0  43.125 0.25 0  43.875 0.25 0  44.625 0.25 0  45.375 0.25 0  46.125 0.25 0  46.875 0.25 0  47.625 0.25 0  48.375 0.25 0  49.125 0.25 0  49.875 0.25 0  50.625 0.25 0  51.375 0.25 0  52.125 0.25 0  52.875 0.25 0  53.625 0.25 0  54.375 0.25 0  55.125 0.25 0  55.875 0.25 0  56.625 0.25 0  57.375 0.25 0  58.125 0.25 0  58.875 0.25 0  59.625 0.25 0  0.375 0.75 0  1.125 0.75 0  1.875 0.75 0  2.625 0.75 0  3.375 0.75 0  4.125 0.75 0  4.875 0.75 0  5.625 0.75 0  6.375 0.75 0  7.125 0.75 0  7.875 0.75 0  8.625 0.75 0  9.375 0.75 0  10.125 0.75 0  10.875 0.75 0  11.625 0.75 0  12.375 0.75 0  13.125 0.75 0  13.875 0.75 0  14.625 0.75 0  15.375 0.75 0  16.125 0.75 0  16.875 0.75 0  17.625 0.75 0  18.375 0.75 0  19.125 0.75 0  19.875 0.75 0  20.625 0.75 0  21.375 0.75 0  22.125 0.75 0  22.875 0.75 0  23.625 0.75 0  24.375 0.75 0  25.125 0.75 0  25.875 0.75 0  26.625 0.75 0  27.375 0.75 0  28.125 0.75 0  28.875 0.75 0  29.625 0.75 0  30.375 0.75 0  31.125 0.75 0  31.875 0.75 0  32.625 0.75 0  33.375 0.75 0  34.125 0.75 0  34.875 0.75 0  35.625 0.75 0  36.375 0.75 0  37.125 0.75 0  37.875 0.75 0  38.625 0.75 0  39.375 0.75 0  40.125 0.75 0  40
[...]
<PointData  Vectors="f_8-0"> 
<DataArray  type="Float64"  Name="f_8-0"  NumberOfComponents="3" format="ascii">0.0000000000000000e+00 0.0000000000000000e+00 0.0000000000000000e+00  0.0000000000000000e+00 0.0000000000000000e+00 0.0000000000000000e+00  0.0000000000000000e+00 0.0000000000000000e+00 0.0000000000000000e+00  0.0000000000000000e+00 0.0000000000000000e+00 0.0000000000000000e+00  0.0000000000000000e+00 0.0000000000000000e+00 0.0000000000000000e+00  0.0000000000000000e+00 0.0000000000000000e+00 0.0000000000000000e+00  0.0000000000000000e+00 0.0000000000000000e+00 0.0000000000000000e+00  0.0000000000000000e+00 0.0000000000000000e+00 0.0000000000000000e+00  0.0000000000000000e+00 0.0000000000000000e+00 0.0000000000000000e+00  0.0000000000000000e+00 0.0000000000000000e+00 0.0000000000000000e+00  0.0000000000000000e+00 0.0000000000000000e+00 0.0000000000000000e+00  0.0000000000000000e+00 0.0000000000000000e+00 0.0000000000000000e+00  0.0000000000000000e+00 0.0000000000000000e+00 0.0000000000000000e+00  0.0000000000000000e+00 0.0000000000000000e+00 0.0000000000000000e+00  0.0000000000000000e+00 0.0000000000000000e+00 0.0000000000000000e+00  0.0000000000000000e+00 0.0000000000000000e+00 0.0000000000000000e+00  0.0000000000000000e+00 0.0000000000000000e+00 0.0000000000000000e+00  0.0000000000000000e+00 0.0000000000000000e+00 0.0000000000000000e+00  0.0000000000000000e+00 0.0000000000000000e+00 0.0000000000000000e+00  0.0000000000000000e+00 0.0000000000000000e+00 0.0000000000000000e+00  0.0000000000000000e+00 0.0000000000000000e+00 0.0000000000000000e+00  0.0000000000000000e+00 0.0000000000000000e+00 0.0000000000000000e+00  0.0000000000000000e+00 0.0000000000000000e+00 0.0000000000000000e+00  0.0000000000000000e+00 0.0000000000000000e+00 0.0000000000000000e+00  0.0000000000000000e+00 0.0000000000000000e+00 0.0000000000000000e+00  0.0000000000000000e+00 0.0000000000000000e+00 0.0000000000000000e+00  0.0000000000000000e+00 0.0000000000000000e+00 0.0000000000000000e+00  0.0000000000000000e+00 0.0000000000000000e+00 0.0000000000000000e+00  0.0000000000000000e+00 0.0000000000000000e+00 0.0000000000000000e+00  0.0000000000000000e+00 0.0000000000000000e+00 0.0000000000000000e+00  0.0000000000000000e+00 0.0000000000000000e+00 0.0000000000000000e+00  0.0000000000000000e+00 0.0000000000000000e+00 0.0000000000000000e+00  0.0000000000000000e+00 0.0000000000000000e+00 0.0000000000000000e+00  0.0000000000000000e+00 0.0000000000000000e+00 0.0000000000000000e+00  0.0000000000000000e+00 0.0000000000000000e+00 0.0000000000000000e+00  0.0000000000000000e+00 0.0000000000000000e+00 0.0000000000000000e+00  0.0000000000000000e+00 0.0000000000000000e+00 0.0000000000000000e+00  0.0000000000000000e+00 0.0000000000000000e+00 0.0000000000000000e+00  0.0000000000000000e+00 0.0000000000000000e+00 0.0000000000000000e+00  0.0000000000000000e+00 0.0000000000000000e+00 0.0000000000000000e+00  0.0000000000000000e+00 0.0000000000000000e+00 0.0000000000000000e+00  0.0000000000000000e+00 0.0000000000000000e+00 0.0000000000000000e+00  0.0000000000000000e+00 0.0000000000000000e+00 0.0000000000000000e+00  0.0000000000000000e+00 0.0000000000000000e+00 0.0000000000000000e+00  0.0000000000000000e+00 0.0000000000000000e+00 0.0000000000000000e+00  0.0000000000000000e+00 0.0000000000000000e+00 0.0000000000000000e+00  0.0000000000000000e+00 0.0000000000000000e+00 0.0000000000000000e+00  0.0000000000000000e+00 0.0000000000000000e+00 0.0000000000000000e+00  0.0000000000000000e+00 0.0000000000000000e+00 0.0000000000000000e+00  0.0000000000000000e+00 0.0000000000000000e+00 0.0000000000000000e+00  0.0000000000000000e+00 0.0000000000000000e+00 0.0000000000000000e+00  0.0000000000000000e+00 0.0000000000000000e+00 0.0000000000000000e+00  0.0000000000000000e+00 0.0000000000000000e+00 0.0000000000000000e+00  0.0000000000000000e+00 0.0000000000000000e+00 0.0000000000000000e+00  0.0000000000000000e+00 0.0000000000000000e+00 0.0000000000000000e+00  0.0000000000000000e+00 0.0000000000000000e+00 0.0000000000000000e+00  0.0000000000000000e+00 0.0000000000000000e+00 0.0000000000000000e+00  0.0000000000000000e+00 0.0000000000000000e+00 0.0000000000000000e+00  0.0000000000000000e+00 0.0000000000000000e+00 0.0000000000000000e+00  0.0000000000000000e+00 0.0000000000000000e+00 0.0000000000000000e+00  0.0000000000000000e+00 0.0000000000000000e+00 0.0000000000000000e+00  0.0000000000000000e+00 0.0000000000000000e+00 0.0000000000000000e+00  0.0000000000000000e+00 0.0000000000000000e+00 0.0000000000000000e+00  0.0000000000000000e+00 0.0000000000000000e+00 0.0000000000000000e+00  0.0000000000000000e+00 0.0000000000000000e+00 0.0000000000000000e+00  0.0000000000000000e+00 0.0000000000000000e+00 0.0000000000000000e+00  0.0000000000000000e+00 0.0000000000000000e+00 0.0000000000000000e+00  0.0000000000000000e+00 0.0000000000000000e+00 0.0000000000000000e+00  0.0000000000000000e+00 0.0000000000000000e+00 0.0000000000000000e+00  0.0000000000000000e+00 0.0000000000000000e+00 0.0000000000000000e+00  0.0000000000000000e+00 0.0000000000000000e+00 0.0000000000000000e+00  0.0000000000000000e+00 0.0000000000000000e+00 0.0000000000000000e+00  0.0000000000000000e+00 0.0000000000000000e+00 0.0000000000000000e+00  0.0000000000000000e+00 0.0000000000000000e+00 0.0000000000000000e+00  0.0000000000000000e+00 0.0000000000000000e+00 0.0000000000000000e+00  0.0000000000000000e+00 0.0000000000000000e+00 0.0000000000000000e+00  0.0000000000000000e+00 0.0000000000000000e+00 0.0000000000000000e+00  0.0000000000000000e+00 0.0000000000000000e+00 0.0000000000000000e+00  0.0000000000000000e+00 0.0000000000000000e+00 0.0000000000000000e+00  0.0000000000000000e+00 0.0000000000000000e+00 0.0000000000000000e+00  0.0000000000000000e+00 0.0000000000000000e+00 0.0000000000000000e+00  -1.8910381455069054e+01 0.0000000000000000e+00 0.0000000000000000e+00  -1.8937823979798338e+01 4.3103480569925464e-03 0.0000000000000000e+00  -1.8960070515478279e+01 9.3588617774225096e-03 0.0000000000000000e+00  -1.8971971823662535e+01 9.4028255624162855e-03 0.0000000000000000e+00  -1.8979813064517980e+01 8.2846268261278170e-03 0.0000000000000000e+00  -1.8984486013277841e+01 7.0734531842086253e-03 0.0000000000000000e+00  -1.8986669809380050e+01 6.1076851317821796e-03 0.0000000000000000e+00  -1.8987080667332808e+01 5.4352394580592447e-03 0.0000000000000000e+00  -1.8986371909764252e+01 5.0381473681840091e-03 0.0000000000000000e+00  -1.8985011483639905e+01 4.7950824640906253e-03 0.0000000000000000e+00  -1.8983253329625814e+01 4.6658021688220199e-03 0.0000000000000000e+00  -1.8981428693089658e+01 4.6956740278707963e-03 0.0000000000000000e+00  -1.8979920427400202e+01 4.8602842358334425e-03 0.0000000000000000e+00  -1.8978909621527013e+01 5.0580395979679463e-03 0.0000000000000000e+00  -1.8978339937933352e+01 5.2140085655657540e-03 0.0000000000000000e+00  -1.8978060283368858e+01 5.3093523884287473e-03 0.0000000000000000e+00  -1.8977936462433181e+01 5.3584042629627286e-03 0.0000000000000000e+00  -1.8977885239078635e+01 5.3805320752522050e-03 0.0000000000000000e+00  -1.8977864434448502e+01 5.3897295359633538e-03 0.0000000000000000e+00  -1.8977855728946263e+01 5.3933791927868631e-03 0.0000000000000000e+00  -1.8977851788427571e+01 5.3948687384531612e-03 0.0000000000000000e+00  -1.8977849864446704e+01 5.3955047356345001e-03 0.0000000000000000e+00  -1.8977848843017387e+01 5.3958043951433153e-03 0.0000000000000000e+00  -1.8977848269638145e+01 5.3959488198283643e-03 0.0000000000000000e+00  -1.8977847913749823e+01 5.3960225812704245e-03 0.0000000000000000e+00  -1.8977847672508336e+01 5.3960591002023620e-03 0.0000000000000000e+00  -1.8977847485549724e+01 5.3960777462341543e-03 0.0000000000000000e+00  -1.8977847327976981e+01 5.3960868753825091e-03 0.0000000000000000e+00  -1.8977847183314616e+01 5.3960913903742845e-03 0.0000000000000000e+00  -1.8977847046012002e+01 5.3960935323406527e-03 0.0000000000000000e+00  -1.8977846911505544e+01 5.3960944782818852e-03 0.0000000000000000e+00  -1.8977846778759410e+01 5.3960948722442210e-03 0.0000000000000000e+00  -1.8977846646500254e+01 5.3960949436633442e-03 0.0000000000000000e+00  -1.8977846514624115e+01 5.3960949096519672e-03 0.0000000000000000e+00  -1.8977846382777859e+01 5.3960947814650712e-03 0.0000000000000000e+00  -1.8977846250991590e+01 5.3960946486627196e-03 0.0000000000000000e+00  -1.8977846119177578e+01 5.3960944794879881e-03 0.0000000000000000e+00  -1.8977845987356403e+01 5.3960943244526762e-03 0.0000000000000000e+00  -1.8977845855516083e+01 5.3960941535356535e-03 0.0000000000000000e+00  -1.8977845723661240e+01 5.3960939906865174e-03 0.0000000000000000e+00  -1.8977845591796758e+01 5.3960938212355555e-03 0.0000000000000000e+00  -1.8977845459924566e+01 5.3960936570012366e-03 0.0000000000000000e+00  -1.8977845328048684e+01 5.3960934897587243e-03 0.0000000000000000e+00  -1.8977845196169472e+01 5.3960933262952289e-03 0.0000000000000000e+00  -1.8977845064291081e+01 5.3960931613133587e-03 0.0000000000000000e+00  -1.8977844932415461e+01 5.3960929984976352e-03 0.0000000000000000e+00  -1.8977844800543725e+01 5.3960928352933752e-03 0.0000000000000000e+00  -1.8977844668680554e+01 5.3960926752936768e-03 0.0000000000000000e+00  -1.8977844536828936e+01 5.3960925147806876e-03 0.0000000000000000e+00  -1.8977844404996397e+01 5.3960923589214602e-03 0.0000000000000000e+00  -1.8977844273192485e+01 5.3960922050002936e-03 0.0000000000000000e+00  -1.8977844141426452e+01 5.3960920576214396e-03 0.0000000000000000e+00  -1.8977844009716254e+01 5.3960919184275090e-03 0.0000000000000000e+00  -1.8977843878083920e+01 5.3960917865205705e-03 0.0000000000000000e+00  -1.8977843746557976e+01 5.3960916680917542e-03 0.0000000000000000e+00  -1.8977843615170965e+01 5.3960915643238702e-03 0.0000000000000000e+00  -1.8977843483954459e+01 5.3960914757381455e-03 0.0000000000000000e+00  -1.8977843352919344e+01 5.3960913921374705e-03 0.0000000000000000e+00  -1.8977843222006097e+01 5.3960912897031890e-03 0.0000000000000000e+00  -1.8977843090997339e+01 5.3960910924396883e-03 0.0000000000000000e+00  -1.8977842959231186e+01 5.3960906390900258e-03 0.0000000000000000e+00  -1.8977842825309885e+01 5.3960895486652579e-03 0.0000000000000000e+00  -1.8977842685359768e+01 5.3960870151733000e-03 0.0000000000000000e+00  -1.8977842533652073e+01 5.3960814016832809e-03 0.0000000000000000e+00  -1.8977842348440667e+01 5.3960689558502509e-03 0.0000000000000000e+00  -1.8977842120074747e+01 5.3960438367511021e-03 0.0000000000000000e+00  -1.8977841702906634e+01 5.3959870850635531e-03 0.0000000000000000e+00  -1.8977841252037816e+01 5.3958899185451645e-03 0.0000000000000000e+00  -1.8977839523238167e+01 5.3956255597991179e-03 0.0000000000000000e+00  -1.8977839360410581e+01 5.3953599841100866e-03 0.0000000000000000e+00  -1.8977828799361799e+01 5.3939112682857967e-03 0.0000000000000000e+00  -1.8977840855960039e+01 5.3943594923791796e-03 0.0000000000000000e+00  -1.8977766452333910e+01 5.3845145503891318e-03 0.0000000000000000e+00  -1.8977901376899379e+01 5.3995219804519601e-03 0.0000000000000000e+00  -1.8977437189240064e+01 5.3370809255775123e-03 0.0000000000000000e+00  -1.8978280802562189e+01 5.4390962759497587e-03 0.0000000000000000e+00  -1.8976560045906567e+01 5.3574998282201487e-03 0.0000000000000000e+00  -1.8979020919690274e+01 5.1032507889053023e-03 0.0000000000000000e+00  -1.8987197942896284e+01 1.6519012469624075e-02 0.0000000000000000e+00  -1.8994152775331184e+01 7.0433578223129678e-02 0.0000000000000000e+00  -1.9021035689780323e+01 0.0000000000000000e+00 0.0000000000000000e+00  -1.5872370580923672e+01 0.0000000000000000e+00 0.0000000000000000e+00  -1.5886390399761440e+01 1.5677145678417912e-02 0.0000000000000000e+00  -1.5890039663057095e+01 9.8125966975814421e-03 0.0000000000000000e+00  -1.5892304749983122e+01 6.3889442619276659e-03 0.0000000000000000e+00  -1.5893266009138152e+01 3.4020501062151619e-03 0.0000000000000000e+00  -1.5893602356455423e+01 8.4898266195305072e-04 0.0000000000000000e+00  -1.5893550566231111e+01 -1.0739998991761447e-03 0.0000000000000000e+00  -1.5893243972739903e+01 -2.4211386592170566e-03 0.0000000000000000e+00  -1.5892702362147496e+01 -3.2219974295850285e-03 0.0000000000000000e+00  -1.5892044935223272e+01 -3.7195756282188031e-03 0.0000000000000000e+00  -1.5891214487769732e+01 -4.0249614683735349e-03 0.0000000000000000e+00  -1.5890204953890635e+01 -3.9542886522027643e-03 0.0000000000000000e+00  -1.5889264161884961e+01 -3.5320101243084150e-03 0.0000000000000000e+00  -1.5888594982472869e+01 -3.0299889369014717e-03 0.0000000000000000e+00  -1.5888205821849818e+01 -2.6431099901709004e-03 0.0000000000000000e+00  -1.5888009705348827e+01 -2.4114508445356154e-03 0.0000000000000000e+00  -1.5887920268810969e+01 -2.2940244637287815e-03 0.0000000000000000e+00  -1.5887882210333133e+01 -2.2415513286964104e-03 0.0000000000000000e+00  -1.5887866516444678e+01 -2.2198600586561031e-03 0.0000000000000000e+00  -1.5887860023011156e+01 -2.2112824550748577e-03 0.0000000000000000e+00  -1.5887857206806322e+01 -2.2077850384103815e-03 0.0000000000000000e+00  -1.5887855913596978e+01 -2.2062956745643723e-03 0.0000000000000000e+00  -1.5887855273452807e+01 -2.2055935305311299e-03 0.0000000000000000e+00  -1.5887854936063212e+01 -2.2052579681816091e-03 0.0000000000000000e+00  -1.5887854739758396e+01 -2.2050860179278183e-03 0.0000000000000000e+00  -1.5887854612103721e+01 -2.2050023937953572e-03 0.0000000000000000e+00  -1.5887854516326676e+01 -2.2049593379816052e-03 0.0000000000000000e+00  -1.5887854435286510e+01 -2.2049388784873710e-03 0.0000000000000000e+00  -1.5887854360584594e+01 -2.2049285492200823e-03 0.0000000000000000e+00  -1.5887854288153456e+01 -2.2049237871190294e-03 0.0000000000000000e+00  -1.5887854216465396e+01 -2.2049215032209383e-03 0.0000000000000000e+00  -1.5887854144586997e+01 -2.2049204580374174e-03 0.0000000000000000e+00  -1.5887854072498932e+01 -2.2049200098255960e-03 0.0000000000000000e+00  -1.5887853999986126e+01 -2.2049197594935259e-03 0.0000000000000000e+00  -1.5887853927238982e+01 -2.2049196636543277e-03 0.0000000000000000e+00  -1.5887853854210730e+01 -2.2049195545934238e-03 0.0000000000000000e+00  -1.5887853781041022e+01 -2.2049194890275737e-03 0.0000000000000000e+00  -1.5887853707713624e+01 -2.2049193867425968e-03 0.0000000000000000e+00  -1.5887853634316992e+01 -2.2049193019494668e-03 0.0000000000000000e+00  -1.5887853560840957e+01 -2.2049191916412398e-03 0.0000000000000000e+00  -1.5887853487331320e+01 -2.2049190877988564e-03 0.0000000000000000e+00  -1.5887853413781874e+01 -2.2049189706603114e-03 0.0000000000000000e+00  -1.5887853340217733e+01 -2.2049188551683634e-03 0.0000000000000000e+00  -1.5887853266637961e+01 -2.2049187307319295e-03 0.0000000000000000e+00  -1.5887853193054877e+01 -2.2049186067896430e-03 0.0000000000000000e+00  -1.5887853119465861e+01 -2.2049184790114665e-03 0.0000000000000000e+00  -1.5887853045882430e+01 -2.2049183483024647e-03 0.0000000000000000e+00  -1.5887852972301769e+01 -2.2049182117782088e-03 0.0000000000000000e+00  -1.5887852898733515e+01 -2.2049180718374823e-03 0.0000000000000000e+00  -1.5887852825185181e+01 -2.2049179218650455e-03 0.0000000000000000e+00  -1.5887852751666243e+01 -2.2049177597802841e-03 0.0000000000000000e+00  -1.5887852678190805e+01 -2.2049175832178900e-03 0.0000000000000000e+00  -1.5887852604776604e+01 -2.2049173847131578e-03 0.0000000000000000e+00  -1.5887852531454602e+01 -2.2049171572263416e-03 0.0000000000000000e+00  -1.5887852458257109e+01 -2.2049168905953678e-03 0.0000000000000000e+00  -1.5887852385236297e+01 -2.2049165833820288e-03 0.0000000000000000e+00  -1.5887852312455635e+01 -2.2049162331267544e-03 0.0000000000000000e+00  -1.5887852239987373e+01 -2.2049158757497796e-03 0.0000000000000000e+00  -1.5887852167889267e+01 -2.2049155953379369e-03 0.0000000000000000e+00  -1.5887852096177363e+01 -2.2049156394258387e-03 0.0000000000000000e+00  -1.5887852024677752e+01 -2.2049165359719946e-03 0.0000000000000000e+00  -1.5887851952800807e+01 -2.2049195340348563e-03 0.0000000000000000e+00  -1.5887851879105249e+01 -2.2049270985119974e-03 0.0000000000000000e+00  -1.5887851799490521e+01 -2.2049449419199729e-03 0.0000000000000000e+00  -1.5887851707902596e+01 -2.2049827887463832e-03 0.0000000000000000e+00  -1.5887851580321366e+01 -2.2050671235019064e-03 0.0000000000000000e+00  -1.5887851407814530e+01 -2.2052252548400266e-03 0.0000000000000000e+00  -1.5887851030450959e+01 -2.2056027770922812e-03 0.0000000000000000e+00  -1.5887850617333033e+01 -2.2061497627440048e-03 0.0000000000000000e+00  -1.5887848870280695e+01 -2.2079587463382259e-03 0.0000000000000000e+00  -1.5887848571308416e+01 -2.2089545530999109e-03 0.0000000000000000e+00  -1.5887838294541440e+01 -2.2194568793349563e-03 0.0000000000000000e+00  -1.5887847222429260e+01 -2.2113300058497604e-03 0.0000000000000000e+00  -1.5887781863184816e+01 -2.2836259732341973e-03 0.0000000000000000e+00  -1.5887879529967528e+01 -2.1491973947140586e-03 0.0000000000000000e+00  -1.5887516597900667e+01 -2.6118814686318294e-03 0.0000000000000000e+00  -1.5888157158944308e+01 -1.4010348424925291e-03 0.0000000000000000e+00  -1.5886956295698621e+01 -2.3901946867048275e-03 0.0000000000000000e+00  -1.5886766129290875e+01 8.5408639731726476e-03 0.0000000000000000e+00  -1.5850654541503845e+01 -5.9996191699526105e-03 0.0000000000000000e+00  -1.5895341393593382e+01 0.0000000000000000e+00 0.0000000000000000e+00  -1.2497861938369734e+01 0.0000000000000000e+00 0.0000000000000000e+00  -1.2488215373210188e+01 9.3933118775321976e-03 0.0000000000000000e+00  -1.2475524227063181e+01 7.8580554100200553e-03 0.0000000000000000e+00  -1.2466048179535742e+01 5.6142264920770743e-03 0.0000000000000000e+00  -1.2459521583589460e+01 3.5326302734118497e-03 0.0000000000000000e+00  -1.2455604037111893e+01 1.7633151567063730e-03 0.0000000000000000e+00  -1.2453767833093108e+01 4.1067834875530587e-04 0.0000000000000000e+00  -1.2453425025178337e+01 -5.7254936394792908e-04 0.0000000000000000e+00  -1.2454029556535941e+01 -1.2025440008132369e-03 0.0000000000000000e+00  -1.2455188770276370e+01 -1.5854062298859026e-03 0.0000000000000000e+00  -1.2456696436184467e+01 -1.9023058343429729e-03 0.0000000000000000e+00  -1.2458274216346556e+01 -1.9551746782331607e-03 0.0000000000000000e+00  -1.2459580362180867e+01 -1.6374411379979875e-03 0.0000000000000000e+00  -1.2460452799407470e+01 -1.1734584135514648e-03 0.0000000000000000e+00  -1.2460941258464539e+01 -7.8766538947778076e-04 0.0000000000000000e+00  -1.2461179260402757e+01 -5.4647982236299692e-04 0.0000000000000000e+00  -1.2461283624125095e+01 -4.2078975305808684e-04 0.0000000000000000e+00  -1.2461326437894819e+01 -3.6314831223242686e-04 0.0000000000000000e+00  -1.2461343683741473e+01 -3.3899661264075030e-04 0.0000000000000000e+00  -1.2461350916936901e+01 -3.2934792915192274e-04 0.0000000000000000e+00  -1.2461354182094222e+01 -3.2549478025393276e-04 0.0000000000000000e+00  -1.2461355766924028e+01 -3.2387610324557324e-04 0.0000000000000000e+00  -1.2461356556793753e+01 -3.2315129581239225e-04 0.0000000000000000e+00  -1.2461356946950753e+01 -3.2280668585935116e-04 0.0000000000000000e+00  -1.2461357124012569e+01 -3.2264030652298653e-04 0.0000000000000000e+00  -1.2461357188852592e+01 -3.2255895911473812e-04 0.0000000000000000e+00  -1.2461357192008199e+01 -3.2252062347824535e-04 0.0000000000000000e+00  -1.2461357162436123e+01 -3.2250272076604706e-04 0.0000000000000000e+00  -1.2461357114240213e+01 -3.2249509932711767e-04 0.0000000000000000e+00  -1.2461357056000644e+01 -3.2249205670562133e-04 0.0000000000000000e+00  -1.2461356991756531e+01 -3.2249119379713074e-04 0.0000000000000000e+00  -1.2461356924182207e+01 -3.2249117902745459e-04 0.0000000000000000e+00  -1.2461356854507972e+01 -3.2249147556117074e-04 0.0000000000000000e+00  -1.2461356783621564e+01 -3.2249183841088943e-04 0.0000000000000000e+00  -1.2461356711938073e+01 -3.2249215549342994e-04 0.0000000000000000e+00  -1.2461356639772706e+01 -3.2249242467415062e-04 0.0000000000000000e+00  -1.2461356567280760e+01 -3.2249262303485300e-04 0.0000000000