<?xml version="1.0"?>
<VTKFile type="UnstructuredGrid"  version="0.1"  >
<UnstructuredGrid>
<Piece  NumberOfPoints="1369" NumberOfCells="2560">
<Points>
<DataArray  type="Float64"  NumberOfComponents="3"  format="ascii">0 0 0  0.75 0 0  1.5 0 0  2.25 0 0  3 0 0  3.75 0 0  4.5 0 0  5.25 0 0  6 0 0  6.75 0 0  7.5 0 0  8.25 0 0  9 0 0  9.75 0 0  10.5 0 0  11.25 0 0  12 0 0  12.75 0 0  13.5 0 0  14.25 0 0  15 0 0  15.75 0 0  16.5 0 0  17.25 0 0  18 0 0  18.75 0 0  19.5 0 0  20.25 0 0  21 0 0  21.75 0 0  22.5 0 0  23.25 0 0  24 0 0  24.75 0 0  25.5 0 0  26.25 0 0  27 0 0  27.75 0 0  28.5 0 0  29.25 0 0  30 0 0  30.75 0 0  31.5 0 0  32.25 0 0  33 0 0  33.75 0 0  34.5 0 0  35.25 0 0  36 0 0  36.75 0 0  37.5 0 0  38.25 0 0  39 0 0  39.75 0 0  40.5 0 0  41.25 0 0  42 0 0  42.75 0 0  43.5 0 0  44.25 0 0  45 0 0  45.75 0 0  46.5 0 0  47.25 0 0  48 0 0  48.75 0 0  49.5 0 0  50.25 0 0  51 0 0  51.75 0 0  52.5 0 0  53.25 0 0  54 0 0  54.75 0 0  55.5 0 0  56.25 0 0  57 0 0  57.75 0 0  58.5 0 0  59.25 0 0  60 0 0  0 0.5 0  0.75 0.5 0  1.5 0.5 0  2.25 0.5 0  3 0.5 0  3.75 0.5 0  4.5 0.5 0  5.25 0.5 0  6 0.5 0  6.75 0.5 0  7.5 0.5 0  8.25 0.5 0  9 0.5 0  9.75 0.5 0  10.5 0.5 0  11.25 0.5 0  12 0.5 0  12.75 0.5 0  13.5 0.5 0  14.25 0.5 0  15 0.5 0  15.75 0.5 0  16.5 0.5 0  17.25 0.5 0  18 0.5 0  18.75 0.5 0  19.5 0.5 0  20.25 0.5 0  21 0.5 0  21.75 0.5 0  22.5 0.5 0  23.25 0.5 0  24 0.5 0  24.75 0.5 0  25.5 0.5 0  26.25 0.5 0  27 0.5 0  27.75 0.5 0  28.5 0.5 0  29.25 0.5 0  30 0.5 0  30.75 0.5 0  31.5 0.5 0  32.25 0.5 0  33 0.5 0  33.75 0.5 0  34.5 0.5 0  35.25 0.5 0  36 0.5 0  36.75 0.5 0  37.5 0.5 0  38.25 0.5 0  39 0.5 0  39.75 0.5 0  40.5 0.5 0  41.25 0.5 0  42 0.5 0  42.75 0.5 0  43.5 0.5 0  44.25 0.5 0  45 0.5 0  45.75 0.5 0  46.5 0.5 0  47.25 0.5 0  48 0.5 0  48.75 0.5 0  49.5 0.5 0  50.25 0.5 0  51 0.5 0  51.75 0.5 0  52.5 0.5 0  53.25 0.5 0  54 0.5 0  54.75 0.5 0  55.5 0.5 0  56.25 0.5 0  57 0.5 0  57.75 0.5 0  58.5 0.5 0  59.25 0.5 0  60 0.5 0  0 1 0  0.75 1 0  1.5 1 0  2.25 1 0  3 1 0  3.75 1 0  4.5 1 0  5.25 1 0  6 1 0  6.75 1 0  7.5 1 0  8.25 1 0  9 1 0  9.75 1 0  10.5 1 0  11.25 1 0  12 1 0  12.75 1 0  13.5 1 0  14.25 1 0  15 1 0  15.75 1 0  16.5 1 0  17.25 1 0  18 1 0  18.75 1 0  19.5 1 0  20.25 1 0  21 1 0  21.75 1 0  22.5 1 0  23.25 1 0  24 1 0  24.75 1 0  25.5 1 0  26.25 1 0  27 1 0  27.75 1 0  28.5 1 0  29.25 1 0  30 1 0  30.75 1 0  31.5 1 0  32.25 1 0  33 1 0  33.75 1 0  34.5 1 0  35.25 1 0  36 1 0  36.75 1 0  37.5 1 0  38.25 1 0  39 1 0  39.75 1 0  40.5 1 0  41.25 1 0  42 1 0  42.75 1 0  43.5 1 0  44.25 1 0  45 1 0  45.75 1 0  46.5 1 0  47.25 1 0  48 1 0  48.75 1 0  49.5 1 0  50.25 1 0  51 1 0  51.75 1 0  52.5 1 0  53.25 1 0  54 1 0  54.75 1 0  55.5 1 0  56.25 1 0  57 1 0  57.75 1 0  58.5 1 0  59.25 1 0  60 1 0  0 1.5 0  0.75 1.5 0  1.5 1.5 0  2.25 1.5 0  3 1.5 0  3.75 1.5 0  4.5 1.5 0  5.25 1.5 0  6 1.5 0  6.75 1.5 0  7.5 1.5 0  8.25 1.5 0  9 1.5 0  9.75 1.5 0  10.5 1.5 0  11.25 1.5 0  12 1.5 0  12.75 1.5 0  13.5 1.5 0  14.25 1.5 0  15 1.5 0  15.75 1.5 0  16.5 1.5 0  17.25 1.5 0  18 1.5 0  18.75 1.5 0  19.5 1.5 0  20.25 1.5 0  21 1.5 0  21.75 1.5 0  22.5 1.5 0  23.25 1.5 0  24 1.5 0  24.75 1.5 0  25.5 1.5 0  26.25 1.5 0  27 1.5 0  27.75 1.5 0  28.5 1.5 0  29.25 1.5 0  30 1.5 0  30.75 1.5 0  31.5 1.5 0  32.25 1.5 0  33 1.5 0  33.75 1.5 0  34.5 1.5 0  35.25 1.5 0  36 1.5 0  36.75 1.5 0  37.5 1.5 0  38.25 1.5 0  39 1.5 0  39.75 1.5 0  40.5 1.5 0  41.25 1.5 0  42 1.5 0  42.75 1.5 0  43.5 1.5 0  44.25 1.5 0  45 1.5 0  45.75 1.5 0  46.5 1.5 0  47.25 1.5 0  48 1.5 0  48.75 1.5 0  49.5 1.5 0  50.25 1.5 0  51 1.5 0  51.75 1.5 0  52.5 1.5 0  53.25 1.5 0  54 1.5 0  54.75 1.5 0  55.5 1.5 0  56.25 1.5 0  57 1.5 0  57.75 1.5 0  58.5 1.5 0  59.25 1.5 0  60 1.5 0  0 2 0  0.75 2 0  1.5 2 0  2.25 2 0  3 2 0  3.75 2 0  4.5 2 0  5.25 2 0  6 2 0  6.75 2 0  7.5 2 0  8.25 2 0  9 2 0  9.75 2 0  10.5 2 0  11.25 2 0  12 2 0  12.75 2 0  13.5 2 0  14.25 2 0  15 2 0  15.75 2 0  16.5 2 0  17.25 2 0  18 2 0  18.75 2 0  19.5 2 0  20.25 2 0  21 2 0  21.75 2 0  22.5 2 0  23.25 2 0  24 2 0  24.75 2 0  25.5 2 0  26.25 2 0  27 2 0  27.75 2 0  28.5 2 0  29.25 2 0  30 2 0  30.75 2 0  31.5 2 0  32.25 2 0  33 2 0  33.75 2 0  34.5 2 0  35.25 2 0  36 2 0  36.75 2 0  37.5 2 0  38.25 2 0  39 2 0  39.75 2 0  40.5 2 0  41.25 2 0  42 2 0  42.75 2 0  43.5 2 0  44.25 2 0  45 2 0  45.75 2 0  46.5 2 0  47.25 2 0  48 2 0  48.75 2 0  49.5 2 0  50.25 2 0  51 2 0  51.75 2 0  52.5 2 0  53.25 2 0  54 2 0  54.75 2 0  55.5 2 0  56.25 2 0  57 2 0  57.75 2 0  58.5 2 0  59.25 2 0  60 2 0  0 2.5 0  0.75 2.5 0  1.5 2.5 0  2.25 2.5 0  3 2.5 0  3.75 2.5 0  4.5 2.5 0  5.25 2.5 0  6 2.5 0  6.75 2.5 0  7.5 2.5 0  8.25 2.5 0  9 2.5 0  9.75 2.5 0  10.5 2.5 0  11.25 2.5 0  12 2.5 0  12.75 2.5 0  13.5 2.5 0  14.25 2.5 0  15 2.5 0  15.75 2.5 0  16.5 2.5 0  17.25 2.5 0  18 2.5 0  18.75 2.5 0  19.5 2.5 0  20.25 2.5 0  21 2.5 0  21.75 2.5 0  22.5 2.5 0  23.25 2.5 0  24 2.5 0  24.75 2.5 0  25.5 2.5 0  26.25 2.5 0  27 2.5 0  27.75 2.5 0  28.5 2.5 0  29.25 2.5 0  30 2.5 0  30.75 2.5 0  31.5 2.5 0  32.25 2.5 0  33 2.5 0  33.75 2.5 0  34.5 2.5 0  35.25 2.5 0  36 2.5 0  36.75 2.5 0  37.5 2.5 0  38.25 2.5 0  39 2.5 0  39.75 2.5 0  40.5 2.5 0  41.25 2.5 0  42 2.5 0  42.75 2.5 0  43.5 2.5 0  44.25 2.5 0  45 2.5 0  45.75 2.5 0  46.5 2.5 0  47.25 2.5 0  48 2.5 0  48.75 2.5 0  49.5 2.5 0  50.25 2.5 0  51 2.5 0  51.75 2.5 0  52.5 2.5 0  53.25 2.5 0  54 2.5 0  54.75 2.5 0  55.5 2.5 0  56.25 2.5 0  57 2.5 0  57.75 2.5 0  58.5 2.5 0  59.25 2.5 0  60 2.5 0  0 3 0  0.75 3 0  1.5 3 0  2.25 3 0  3 3 0  3.75 3 0  4.5 3 0  5.25 3 0  6 3 0  6.75 3 0  7.5 3 0  8.25 3 0  9 3 0  9.75 3 0  10.5 3 0  11.25 3 0  12 3 0  12.75 3 0  13.5 3 0  14.25 3 0  15 3 0  15.75 3 0  16.5 3 0  17.25 3 0  18 3 0  18.75 3 0  19.5 3 0  20.25 3 0  21 3 0  21.75 3 0  22.5 3 0  23.25 3 0  24 3 0  24.75 3 0  25.5 3 0  26.25 3 0  27 3 0  27.75 3 0  28.5 3 0  29.25 3 0  30 3 0  30.75 3 0  31.5 3 0  32.25 3 0  33 3 0  33.75 3 0  34.5 3 0  35.25 3 0  36 3 0  36.75 3 0  37.5 3 0  38.25 3 0  39 3 0  39.75 3 0  40.5 3 0  41.25 3 0  42 3 0  42.75 3 0  43.5 3 0  44.25 3 0  45 3 0  45.75 3 0  46.5 3 0  47.25 3 0  48 3 0  48.75 3 0  49.5 3 0  50.25 3 0  51 3 0  51.75 3 0  52.5 3 0  53.25 3 0  54 3 0  54.75 3 0  55.5 3 0  56.25 3 0  57 3 0  57.75 3 0  58.5 3 0  59.25 3 0  60 3 0  0 3.5 0  0.75 3.5 0  1.5 3.5 0  2.25 3.5 0  3 3.5 0  3.75 3.5 0  4.5 3.5 0  5.25 3.5 0  6 3.5 0  6.75 3.5 0  7.5 3.5 0  8.25 3.5 0  9 3.5 0  9.75 3.5 0  10.5 3.5 0  11.25 3.5 0  12 3.5 0  12.75 3.5 0  13.5 3.5 0  14.25 3.5 0  15 3.5 0  15.75 3.5 0  16.5 3.5 0  17.25 3.5 0  18 3.5 0  18.75 3.5 0  19.5 3.5 0  20.25 3.5 0  21 3.5 0  21.75 3.5 0  22.5 3.5 0  23.25 3.5 0  24 3.5 0  24.75 3.5 0  25.5 3.5 0  26.25 3.5 0  27 3.5 0  27.75 3.5 0  28.5 3.5 0  29.25 3.5 0  30 3.5 0  30.75 3.5 0  31.5 3.5 0  32.25 3.5 0  33 3.5 0  33.75 3.5 0  34.5 3.5 0  35.25 3.5 0  36 3.5 0  36.75 3.5 0  37.5 3.5 0  38.25 3.5 0  39 3.5 0  39.75 3.5 0  40.5 3.5 0  41.25 3.5 0  42 3.5 0  42.75 3.5 0  43.5 3.5 0  44.25 3.5 0  45 3.5 0  45.75 3.5 0  46.5 3.5 0  47.25 3.5 0  48 3.5 0  48.75 3.5 0  49.5 3.5 0  50.25 3.5 0  51 3.5 0  51.75 3.5 0  52.5 3.5 0  53.25 3.5 0  54 3.5 0  54.75 3.5 0  55.5 3.5 0  56.25 3.5 0  57 3.5 0  57.75 3.5 0  58.5 3.5 0  59.25 3.5 0  60 3.5 0  0 4 0  0.75 4 0  1.5 4 0  2.25 4 0  3 4 0  3.75 4 0  4.5 4 0  5.25 4 0  6 4 0  6.75 4 0  7.5 4 0  8.25 4 0  9 4 0  9.75 4 0  10.5 4 0  11.25 4 0  12 4 0  12.75 4 0  13.5 4 0  14.25 4 0  15 4 0  15.75 4 0  16.5 4 0  17.25 4 0  18 4 0  18.75 4 0  19.5 4 0  20.25 4 0  21 4 0  21.75 4 0  22.5 4 0  23.25 4 0  24 4 0  24.75 4 0  25.5 4 0  26.25 4 0  27 4 0  27.75 4 0  28.5 4 0  29.25 4 0  30 4 0  30.75 4 0  31.5 4 0  32.25 4 0  33 4 0  33.75 4 0  34.5 4 0  35.25 4 0  36 4 0  36.75 4 0  37.5 4 0  38.25 4 0  39 4 0  39.75 4 0  40.5 4 0  41.25 4 0  42 4 0  42.75 4 0  43.5 4 0  44.25 4 0  45 4 0  45.75 4 0  46.5 4 0  47.25 4 0  48 4 0  48.75 4 0  49.5 4 0  50.25 4 0  51 4 0  51.75 4 0  52.5 4 0  53.25 4 0  54 4 0  54.75 4 0  55.5 4 0  56.25 4 0  57 4 0  57.75 4 0  58.5 4 0  59.25 4 0  60 4 0  0.375 0.25 0  1.125 0.25 0  1.875 0.25 0  2.625 0.25 0  3.375 0.25 0  4.125 0.25 0  4.875 0.25 0  5.625 0.25 0  6.375 0.25 0  7.125 0.25 0  7.875 0.25 0  8.625 0.25 0  9.375 0.25 0  10.125 0.25 0  10.875 0.25 0  11.625 0.25 0  12.375 0.25 0  13.125 0.25 0  13.875 0.25 0  14.625 0.25 0  15.375 0.25 0  16.125 0.25 0  16.875 0.25 0  17.625 0.25 0  18.375 0.25 0  19.125 0.25 0  19.875 0.25 0  20.625 0.25 0  21.375 0.25 0  22.125 0.25 0  22.875 0.25 0  23.625 0.25 0  24.375 0.25 0  25.125 0.25 0  25.875 0.25 0  26.625 0.25 0  27.375 0.25 0  28.125 0.25 0  28.875 0.25 0  29.625 0.25 0  30.375 0.25 0  31.125 0.25 0  31.875 0.25 0  32.625 0.25 0  33.375 0.25 0  34.125 0.25 0  34.875 0.25 0  35.625 0.25 0  36.375 0.25 0  37.125 0.25 0  37.875 0.25 0  38.625 0.25 0  39.375 0.25 0  40.125 0.25 0  40.875 0.25 0  41.625 0.25 0  42.375 0.25 0  43.125 0.25 0  43.875 0.25 0  44.625 0.25 0  45.375 0.25 0  46.125 0.25 0  46.875 0.25 0  47.625 0.25 0  48.375 0.25 0  49.125 0.25 0  49.875 0.25 0  50.625 0.25 0  51.375 0.25 0  52.125 0.25 0  52.875 0.25 0  53.625 0.25 0  54.375 0.25 0  55.125 0.25 0  55.875 0.25 0  56.625 0.25 0  57.375 0.25 0  58.125 0.25 0  58.875 0.25 0  59.625 0.25 0  0.375 0.75 0  1.125 0.75 0  1.875 0.75 0  2.625 0.75 0  3.375 0.75 0  4.125 0.75 0  4.875 0.75 0  5.625 0.75 0  6.375 0.75 0  7.125 0.75 0  7.875 0.75 0  8.625 0.75 0  9.375 0.75 0  10.125 0.75 0  10.875 0.75 0  11.625 0.75 0  12.375 0.75 0  13.125 0.75 0  13.875 0.75 0  14.625 0.75 0  15.375 0.75 0  16.125 0.75 0  16.875 0.75 0  17.625 0.75 0  18.375 0.75 0  19.125 0.75 0  19.875 0.75 0  20.625 0.75 0  21.375 0.75 0  22.125 0.75 0  22.875 0.75 0  23.625 0.75 0  24.375 0.75 0  25.125 0.75 0  25.875 0.75 0  26.625 0.75 0  27.375 0.75 0  28.125 0.75 0  28.875 0.75 0  29.625 0.75 0  30.375 0.75 0  31.125 0.75 0  31.875 0.75 0  32.625 0.75 0  33.375 0.75 0  34.125 0.75 0  34.875 0.75 0  35.625 0.75 0  36.375 0.75 0  37.125 0.75 0  37.875 0.75 0  38.625 0.75 0  39.375 0.75 0  40.125 0.75 0  40
[...]
<PointData  Vectors="f_8-0"> 
<DataArray  type="Float64"  Name="f_8-0"  NumberOfComponents="3" format="ascii">0.0000000000000000e+00 0.0000000000000000e+00 0.0000000000000000e+00  0.0000000000000000e+00 0.0000000000000000e+00 0.0000000000000000e+00  0.0000000000000000e+00 0.0000000000000000e+00 0.0000000000000000e+00  0.0000000000000000e+00 0.0000000000000000e+00 0.0000000000000000e+00  0.0000000000000000e+00 0.0000000000000000e+00 0.0000000000000000e+00  0.0000000000000000e+00 0.0000000000000000e+00 0.0000000000000000e+00  0.0000000000000000e+00 0.0000000000000000e+00 0.0000000000000000e+00  0.0000000000000000e+00 0.0000000000000000e+00 0.0000000000000000e+00  0.0000000000000000e+00 0.0000000000000000e+00 0.0000000000000000e+00  0.0000000000000000e+00 0.0000000000000000e+00 0.0000000000000000e+00  0.0000000000000000e+00 0.0000000000000000e+00 0.0000000000000000e+00  0.0000000000000000e+00 0.0000000000000000e+00 0.0000000000000000e+00  0.0000000000000000e+00 0.0000000000000000e+00 0.0000000000000000e+00  0.0000000000000000e+00 0.0000000000000000e+00 0.0000000000000000e+00  0.0000000000000000e+00 0.0000000000000000e+00 0.0000000000000000e+00  0.0000000000000000e+00 0.0000000000000000e+00 0.0000000000000000e+00  0.0000000000000000e+00 0.0000000000000000e+00 0.0000000000000000e+00  0.0000000000000000e+00 0.0000000000000000e+00 0.0000000000000000e+00  0.0000000000000000e+00 0.0000000000000000e+00 0.0000000000000000e+00  0.0000000000000000e+00 0.0000000000000000e+00 0.0000000000000000e+00  0.0000000000000000e+00 0.0000000000000000e+00 0.0000000000000000e+00  0.0000000000000000e+00 0.0000000000000000e+00 0.0000000000000000e+00  0.0000000000000000e+00 0.0000000000000000e+00 0.0000000000000000e+00  0.0000000000000000e+00 0.0000000000000000e+00 0.0000000000000000e+00  0.0000000000000000e+00 0.0000000000000000e+00 0.0000000000000000e+00  0.0000000000000000e+00 0.0000000000000000e+00 0.0000000000000000e+00  0.0000000000000000e+00 0.0000000000000000e+00 0.0000000000000000e+00  0.0000000000000000e+00 0.0000000000000000e+00 0.0000000000000000e+00  0.0000000000000000e+00 0.0000000000000000e+00 0.0000000000000000e+00  0.0000000000000000e+00 0.0000000000000000e+00 0.0000000000000000e+00  0.0000000000000000e+00 0.0000000000000000e+00 0.0000000000000000e+00  0.0000000000000000e+00 0.0000000000000000e+00 0.0000000000000000e+00  0.0000000000000000e+00 0.0000000000000000e+00 0.0000000000000000e+00  0.0000000000000000e+00 0.0000000000000000e+00 0.0000000000000000e+00  0.0000000000000000e+00 0.0000000000000000e+00 0.0000000000000000e+00  0.0000000000000000e+00 0.0000000000000000e+00 0.0000000000000000e+00  0.0000000000000000e+00 0.0000000000000000e+00 0.0000000000000000e+00  0.0000000000000000e+00 0.0000000000000000e+00 0.0000000000000000e+00  0.0000000000000000e+00 0.0000000000000000e+00 0.0000000000000000e+00  0.0000000000000000e+00 0.0000000000000000e+00 0.0000000000000000e+00  0.0000000000000000e+00 0.0000000000000000e+00 0.0000000000000000e+00  0.0000000000000000e+00 0.0000000000000000e+00 0.0000000000000000e+00  0.0000000000000000e+00 0.0000000000000000e+00 0.0000000000000000e+00  0.0000000000000000e+00 0.0000000000000000e+00 0.0000000000000000e+00  0.0000000000000000e+00 0.0000000000000000e+00 0.0000000000000000e+00  0.0000000000000000e+00 0.0000000000000000e+00 0.0000000000000000e+00  0.0000000000000000e+00 0.0000000000000000e+00 0.0000000000000000e+00  0.0000000000000000e+00 0.0000000000000000e+00 0.0000000000000000e+00  0.0000000000000000e+00 0.0000000000000000e+00 0.0000000000000000e+00  0.0000000000000000e+00 0.0000000000000000e+00 0.0000000000000000e+00  0.0000000000000000e+00 0.0000000000000000e+00 0.0000000000000000e+00  0.0000000000000000e+00 0.0000000000000000e+00 0.0000000000000000e+00  0.0000000000000000e+00 0.0000000000000000e+00 0.0000000000000000e+00  0.0000000000000000e+00 0.0000000000000000e+00 0.0000000000000000e+00  0.0000000000000000e+00 0.0000000000000000e+00 0.0000000000000000e+00  0.0000000000000000e+00 0.0000000000000000e+00 0.0000000000000000e+00  0.0000000000000000e+00 0.0000000000000000e+00 0.0000000000000000e+00  0.0000000000000000e+00 0.0000000000000000e+00 0.0000000000000000e+00  0.0000000000000000e+00 0.0000000000000000e+00 0.0000000000000000e+00  0.0000000000000000e+00 0.0000000000000000e+00 0.0000000000000000e+00  0.0000000000000000e+00 0.0000000000000000e+00 0.0000000000000000e+00  0.0000000000000000e+00 0.0000000000000000e+00 0.0000000000000000e+00  0.0000000000000000e+00 0.0000000000000000e+00 0.0000000000000000e+00  0.0000000000000000e+00 0.0000000000000000e+00 0.0000000000000000e+00  0.0000000000000000e+00 0.0000000000000000e+00 0.0000000000000000e+00  0.0000000000000000e+00 0.0000000000000000e+00 0.0000000000000000e+00  0.0000000000000000e+00 0.0000000000000000e+00 0.0000000000000000e+00  0.0000000000000000e+00 0.0000000000000000e+00 0.0000000000000000e+00  0.0000000000000000e+00 0.0000000000000000e+00 0.0000000000000000e+00  0.0000000000000000e+00 0.0000000000000000e+00 0.0000000000000000e+00  0.0000000000000000e+00 0.0000000000000000e+00 0.0000000000000000e+00  0.0000000000000000e+00 0.0000000000000000e+00 0.0000000000000000e+00  0.0000000000000000e+00 0.0000000000000000e+00 0.0000000000000000e+00  0.0000000000000000e+00 0.0000000000000000e+00 0.0000000000000000e+00  0.0000000000000000e+00 0.0000000000000000e+00 0.0000000000000000e+00  0.0000000000000000e+00 0.0000000000000000e+00 0.0000000000000000e+00  0.0000000000000000e+00 0.0000000000000000e+00 0.0000000000000000e+00  0.0000000000000000e+00 0.0000000000000000e+00 0.0000000000000000e+00  0.0000000000000000e+00 0.0000000000000000e+00 0.0000000000000000e+00  0.0000000000000000e+00 0.0000000000000000e+00 0.0000000000000000e+00  0.0000000000000000e+00 0.0000000000000000e+00 0.0000000000000000e+00  6.6247601326229351e+00 0.0000000000000000e+00 0.0000000000000000e+00  6.3776054625283081e+00 1.1019631157401864e-01 0.0000000000000000e+00  6.7798691042098342e+00 -1.1243359306536997e-01 0.0000000000000000e+00  7.0569132801728927e+00 -1.2351195097646926e-01 0.0000000000000000e+00  7.6065145656747122e+00 -2.2478822161408421e-01 0.0000000000000000e+00  7.9762298028625294e+00 -1.7449008939831701e-01 0.0000000000000000e+00  8.3291111918669092e+00 -1.4554024054288250e-01 0.0000000000000000e+00  8.5514861140982443e+00 -1.0274992738839743e-01 0.0000000000000000e+00  8.6964538132001454e+00 -6.2807853643957592e-02 0.0000000000000000e+00  8.7913555012473736e+00 -4.8349195245469059e-02 0.0000000000000000e+00  8.8311290169098378e+00 -2.3368401957782045e-02 0.0000000000000000e+00  8.8646873268846686e+00 -2.3134049841226318e-02 0.0000000000000000e+00  8.8668957332138199e+00 -9.4956529862100462e-03 0.0000000000000000e+00  8.8768271443767777e+00 -1.3171905877723033e-02 0.0000000000000000e+00  8.8698414672915877e+00 -5.9169928413334233e-03 0.0000000000000000e+00  8.8720600368984819e+00 -9.5821191709625133e-03 0.0000000000000000e+00  8.8652450897158577e+00 -5.7430851826268730e-03 0.0000000000000000e+00  8.8656747726162095e+00 -8.5007957541122173e-03 0.0000000000000000e+00  8.8613384867887905e+00 -6.4726614628928935e-03 0.0000000000000000e+00  8.8619329259151272e+00 -8.2990503808726187e-03 0.0000000000000000e+00  8.8599344533868347e+00 -7.1844680570061475e-03 0.0000000000000000e+00  8.8610130524300779e+00 -8.3096409047588062e-03 0.0000000000000000e+00  8.8606302886949262e+00 -7.6784621782901349e-03 0.0000000000000000e+00  8.8620746222850588e+00 -8.3373422291298672e-03 0.0000000000000000e+00  8.8626193941706060e+00 -7.9432793309376481e-03 0.0000000000000000e+00  8.8641271930879597e+00 -8.2799763048013036e-03 0.0000000000000000e+00  8.8649605106286042e+00 -7.9904211332911361e-03 0.0000000000000000e+00  8.8661919991188576e+00 -8.1269912017706992e-03 0.0000000000000000e+00  8.8668816199411111e+00 -7.9083570218709300e-03 0.0000000000000000e+00  8.8676880687664301e+00 -7.9523603139820369e-03 0.0000000000000000e+00  8.8681020817687006e+00 -7.8035342224264496e-03 0.0000000000000000e+00  8.8685422045569080e+00 -7.8192010535044574e-03 0.0000000000000000e+00  8.8687367266234833e+00 -7.7299790218511126e-03 0.0000000000000000e+00  8.8689455231108116e+00 -7.7409214677704287e-03 0.0000000000000000e+00  8.8690177965091443e+00 -7.6923489862079312e-03 0.0000000000000000e+00  8.8691078435989255e+00 -7.7024819969154050e-03 0.0000000000000000e+00  8.8691271702766823e+00 -7.6773305534816585e-03 0.0000000000000000e+00  8.8691642922080742e+00 -7.6857333411409750e-03 0.0000000000000000e+00  8.8691655391196313e+00 -7.6727834675115805e-03 0.0000000000000000e+00  8.8691809814181433e+00 -7.6788713196401957e-03 0.0000000000000000e+00  8.8691778979809790e+00 -7.6720384486517372e-03 0.0000000000000000e+00  8.8691846678666657e+00 -7.6760567090306533e-03 0.0000000000000000e+00  8.8691815151757378e+00 -7.6723236201661407e-03 0.0000000000000000e+00  8.8691846732248276e+00 -7.6748302690144987e-03 0.0000000000000000e+00  8.8691823216573500e+00 -7.6727283891233709e-03 0.0000000000000000e+00  8.8691838360105759e+00 -7.6742435625484278e-03 0.0000000000000000e+00  8.8691822106120437e+00 -7.6730361550484179e-03 0.0000000000000000e+00  8.8691828994937314e+00 -7.6739373460653270e-03 0.0000000000000000e+00  8.8691817711320926e+00 -7.6732358181878305e-03 0.0000000000000000e+00  8.8691820132363777e+00 -7.6737678773463975e-03 0.0000000000000000e+00  8.8691811946595234e+00 -7.6733578294019460e-03 0.0000000000000000e+00  8.8691811840948205e+00 -7.6736710881045106e-03 0.0000000000000000e+00  8.8691805516483448e+00 -7.6734306491127186e-03 0.0000000000000000e+00  8.8691803949427985e+00 -7.6736149727123799e-03 0.0000000000000000e+00  8.8691798727219471e+00 -7.6734737220639027e-03 0.0000000000000000e+00  8.8691796304583601e+00 -7.6735821697134950e-03 0.0000000000000000e+00  8.8691791730117799e+00 -7.6734990509204721e-03 0.0000000000000000e+00  8.8691788800623463e+00 -7.6735627531996330e-03 0.0000000000000000e+00  8.8691784600844539e+00 -7.6735136386961765e-03 0.0000000000000000e+00  8.8691781361577817e+00 -7.6735507316153763e-03 0.0000000000000000e+00  8.8691777364509967e+00 -7.6735212139562659e-03 0.0000000000000000e+00  8.8691773914302221e+00 -7.6735419976165665e-03 0.0000000000000000e+00  8.8691769992247149e+00 -7.6735230634918600e-03 0.0000000000000000e+00  8.8691766349990893e+00 -7.6735328687714101e-03 0.0000000000000000e+00  8.8691762370362479e+00 -7.6735183134305357e-03 0.0000000000000000e+00  8.8691758470277815e+00 -7.6735196064939473e-03 0.0000000000000000e+00  8.8691754269400640e+00 -7.6735066864298263e-03 0.0000000000000000e+00  8.8691750035385759e+00 -7.6735078534840608e-03 0.0000000000000000e+00  8.8691745728163767e+00 -7.6735213103938582e-03 0.0000000000000000e+00  8.8691742203953989e+00 -7.6736124264952044e-03 0.0000000000000000e+00  8.8691741697399955e+00 -7.6739242670868877e-03 0.0000000000000000e+00  8.8691751518436650e+00 -7.6749109007168172e-03 0.0000000000000000e+00  8.8691792759421002e+00 -7.6778319868958216e-03 0.0000000000000000e+00  8.8691925819845387e+00 -7.6861827547722575e-03 0.0000000000000000e+00  8.8692317564004384e+00 -7.7092315210921620e-03 0.0000000000000000e+00  8.8693420148639763e+00 -7.7681299900832735e-03 0.0000000000000000e+00  8.8696342796122813e+00 -7.9055370647593704e-03 0.0000000000000000e+00  8.8704024603810065e+00 -7.9923913721668145e-03 0.0000000000000000e+00  8.8720792727816935e+00 -7.7675568116447194e-03 0.0000000000000000e+00  8.8778697866811136e+00 1.1566857179872726e-02 0.0000000000000000e+00  8.9563611683021325e+00 0.0000000000000000e+00 0.0000000000000000e+00  2.8351478871975441e+01 0.0000000000000000e+00 0.0000000000000000e+00  2.8822641882117392e+01 -3.2064002473788594e-01 0.0000000000000000e+00  2.8654931631870532e+01 -2.4620556855297970e-01 0.0000000000000000e+00  2.8506912079490000e+01 -3.6523839829690163e-01 0.0000000000000000e+00  2.8112095336748027e+01 -3.3352178814371547e-01 0.0000000000000000e+00  2.7783048599884687e+01 -2.4456012214521389e-01 0.0000000000000000e+00  2.7451449611045017e+01 -1.9313657116925353e-01 0.0000000000000000e+00  2.7177279644564400e+01 -8.6301951094755774e-02 0.0000000000000000e+00  2.6968645179317125e+01 -6.8252277427086047e-02 0.0000000000000000e+00  2.6784511670693455e+01 -6.5877899524140002e-03 0.0000000000000000e+00  2.6663489885861136e+01 -1.1778110930261413e-02 0.0000000000000000e+00  2.6548435142374498e+01 1.6890949943438077e-02 0.0000000000000000e+00  2.6479750698752287e+01 5.7276724518422724e-03 0.0000000000000000e+00  2.6410608241109223e+01 1.8039841551590302e-02 0.0000000000000000e+00  2.6372072914912632e+01 8.0643867422977144e-03 0.0000000000000000e+00  2.6331893337451906e+01 1.3204712337988405e-02 0.0000000000000000e+00  2.6310704562390757e+01 6.0487984781426342e-03 0.0000000000000000e+00  2.6287968422514886e+01 8.0809911691030380e-03 0.0000000000000000e+00  2.6276681653713386e+01 3.3082039898898628e-03 0.0000000000000000e+00  2.6264394178638398e+01 4.1169730179540839e-03 0.0000000000000000e+00  2.6258860940803551e+01 1.1928121964188067e-03 0.0000000000000000e+00  2.6252612396619156e+01 1.5812889440314740e-03 0.0000000000000000e+00  2.6250242043284533e+01 -1.5877782188623404e-04 0.0000000000000000e+00  2.6247429409174799e+01 5.1307242978204304e-05 0.0000000000000000e+00  2.6246901131323693e+01 -9.1152533749916268e-04 0.0000000000000000e+00  2.6246113260336120e+01 -6.7156221792437809e-04 0.0000000000000000e+00  2.6246588919307833e+01 -1.0602785548608448e-03 0.0000000000000000e+00  2.6246780230876929e+01 -7.3364503954409944e-04 0.0000000000000000e+00  2.6247536744875070e+01 -7.9118939991809460e-04 0.0000000000000000e+00  2.6247958661121345e+01 -4.7169771241548211e-04 0.0000000000000000e+00  2.6248569008318015e+01 -4.2065979496874051e-04 0.0000000000000000e+00  2.6248884510563823e+01 -1.8865236817563607e-04 0.0000000000000000e+00  2.6249248792700300e+01 -1.4105863270984090e-04 0.0000000000000000e+00  2.6249410828387969e+01 -4.7513497322120226e-06 0.0000000000000000e+00  2.6249590914022818e+01 1.5779980027037010e-05 0.0000000000000000e+00  2.6249653832112131e+01 8.5561043605785869e-05 0.0000000000000000e+00  2.6249732859309280e+01 8.8283280806523699e-05 0.0000000000000000e+00  2.6249750208873255e+01 1.2155175683378468e-04 0.0000000000000000e+00  2.6249782922465076e+01 1.1766107963542104e-04 0.0000000000000000e+00  2.6249784242735615e+01 1.3335976782480785e-04 0.0000000000000000e+00  2.6249797803429381e+01 1.2866595216607930e-04 0.0000000000000000e+00  2.6249795186087098e+01 1.3634962511739832e-04 0.0000000000000000e+00  2.6249801087563370e+01 1.3271269252639734e-04 0.0000000000000000e+00  2.6249798352164696e+01 1.3669488967868438e-04 0.0000000000000000e+00  2.6249801080018951e+01 1.3427831774271031e-04 0.0000000000000000e+00  2.6249799025310860e+01 1.3645239936106423e-04 0.0000000000000000e+00  2.6249800317290099e+01 1.3495347986057922e-04 0.0000000000000000e+00  2.6249798889651871e+01 1.3618287596742047e-04 0.0000000000000000e+00  2.6249799463556897e+01 1.3528235440328132e-04 0.0000000000000000e+00  2.6249798466438207e+01 1.3599135913903624e-04 0.0000000000000000e+00  2.6249798652742996e+01 1.3545792302552815e-04 0.0000000000000000e+00  2.6249797923854047e+01 1.3587094979790904e-04 0.0000000000000000e+00  2.6249797891464670e+01 1.3555668024020236e-04 0.0000000000000000e+00  2.6249797323421561e+01 1.3579859571211908e-04 0.0000000000000000e+00  2.6249797164864631e+01 1.3561375175748716e-04 0.0000000000000000e+00  2.6249796691784482e+01 1.3575599520548989e-04 0.0000000000000000e+00  2.6249796459521722e+01 1.3564741800654683e-04 0.0000000000000000e+00  2.6249796042023647e+01 1.3573150794906594e-04 0.0000000000000000e+00  2.6249795766050489e+01 1.3566815972227531e-04 0.0000000000000000e+00  2.6249795380447736e+01 1.3571864876307579e-04 0.0000000000000000e+00  2.6249795077445157e+01 1.3568284307504050e-04 0.0000000000000000e+00  2.6249794708566228e+01 1.3571492733834131e-04 0.0000000000000000e+00  2.6249794386338063e+01 1.3569747781730994e-04 0.0000000000000000e+00  2.6249794022203787e+01 1.3572182918946741e-04 0.0000000000000000e+00  2.6249793680683020e+01 1.3571961102536417e-04 0.0000000000000000e+00  2.6249793307193912e+01 1.3574498793023456e-04 0.0000000000000000e+00  2.6249792936037196e+01 1.3575693238910885e-04 0.0000000000000000e+00  2.6249792530450630e+01 1.3578124021378793e-04 0.0000000000000000e+00  2.6249792105347606e+01 1.3577159284086787e-04 0.0000000000000000e+00  2.6249791636818927e+01 1.3567190103349602e-04 0.0000000000000000e+00  2.6249791144767862e+01 1.3524139449222616e-04 0.0000000000000000e+00  2.6249790671657706e+01 1.3382698779050440e-04 0.0000000000000000e+00  2.6249790420880188e+01 1.2952561774970514e-04 0.0000000000000000e+00  2.6249790996274438e+01 1.1703952632079612e-04 0.0000000000000000e+00  2.6249794267099070e+01 8.1866867224278248e-05 0.0000000000000000e+00  2.6249805879317570e+01 -1.4690427321258304e-05 0.0000000000000000e+00  2.6249848322798940e+01 -2.6815145704573177e-04 0.0000000000000000e+00  2.6249991446722536e+01 -9.2186001003213315e-04 0.0000000000000000e+00  2.6250777766087516e+01 -2.2048446585232391e-03 0.0000000000000000e+00  2.6252550712472878e+01 -7.0366523564868834e-03 0.0000000000000000e+00  2.6248578354342975e+01 0.0000000000000000e+00 0.0000000000000000e+00  3.6572357543736352e+01 0.0000000000000000e+00 0.0000000000000000e+00  3.6873007688191109e+01 2.5976216201699814e-01 0.0000000000000000e+00  3.6679515008200752e+01 9.4869668671775209e-02 0.0000000000000000e+00  3.6520235373904221e+01 6.6860543534529429e-02 0.0000000000000000e+00  3.6111313525117772e+01 9.6145742588866295e-02 0.0000000000000000e+00  3.5875617662375504e+01 5.6200712610306118e-02 0.0000000000000000e+00  3.5576407122582701e+01 1.2364043998554106e-01 0.0000000000000000e+00  3.5445762897543538e+01 8.3827977146126026e-02 0.0000000000000000e+00  3.5294807735715189e+01 1.2065433296980195e-01 0.0000000000000000e+00  3.5248101678983886e+01 8.2191368571651727e-02 0.0000000000000000e+00  3.5183746483304745e+01 9.3043656611591710e-02 0.0000000000000000e+00  3.5174680011109352e+01 6.3011040066830101e-02 0.0000000000000000e+00  3.5149698475511649e+01 6.2895669925136274e-02 0.0000000000000000e+00  3.5152922792419922e+01 4.2553978551969358e-02 0.0000000000000000e+00  3.5143793194885042e+01 3.9477218544269901e-02 0.0000000000000000e+00  3.5149020239703269e+01 2.6609339814705282e-02 0.0000000000000000e+00  3.5145695799535169e+01 2.3702181010651063e-02 0.0000000000000000e+00  3.5149717929186856e+01 1.5861249560609268e-02 0.0000000000000000e+00  3.5148026378564673e+01 1.3646759006404713e-02 0.0000000000000000e+00  3.5150149652136093e+01 8.9225506200399894e-03 0.0000000000000000e+00  3.5148719135066472e+01 7.5391586767553365e-03 0.0000000000000000e+00  3.5149388436080628e+01 4.8484486749372146e-03 0.0000000000000000e+00  3.5147896615597602e+01 4.0590687606555627e-03 0.0000000000000000e+00  3.5147562968396969e+01 2.5019714004691105e-03 0.0000000000000000e+00  3.5145968725200788e+01 2.0563337285840039e-03 0.0000000000000000e+00  3.5145128726465963e+01 1.2301718985143716e-03 0.0000000000000000e+00  3.5143697126138591e+01 1.1206321901993670e-03 0.0000000000000000e+00  3.5142872372143053e+01 8.3689578934326332e-04 0.0000000000000000e+00  3.5141856155579234e+01 9.7590370082573043e-04 0.0000000000000000e+00  3.5141309791420774e+01 9.8502595444206254e-04 0.0000000000000000e+00  3.5140725244863710e+01 1.1945502136660789e-03 0.0000000000000000e+00  3.5140451116104003e+01 1.2808941303552902e-03 0.0000000000000000e+00  3.5140165822011561e+01 1.4453848375191108e-03 0.0000000000000000e+00  3.5140057886015128e+01 1.5113621868103665e-03 0.0000000000000000e+00  3.5139933592693716e+01 1.6075624609445673e-03 0.0000000000000000e+00  3.5139901628428419e+01 1.6391583400919454e-03 0.0000000000000000e+00  3.5139850451829695e+01 1.6864523277631725e-03 0.0000000000000000e+00  3.5139845642032228e+01 1.6967284786307310e-03 0.0000000000000000e+00  3.5139824378072028e+01 1.7178755651785433e-03 0.0000000000000000e+00  3.5139826657419043e+01 1.7192208010657240e-03 0