<?xml version="1.0"?>
<VTKFile type="UnstructuredGrid"  version="0.1"  >
<UnstructuredGrid>
<Piece  NumberOfPoints="1369" NumberOfCells="2560">
<Points>
<DataArray  type="Float64"  NumberOfComponents="3"  format="ascii">0 0 0  0.75 0 0  1.5 0 0  2.25 0 0  3 0 0  3.75 0 0  4.5 0 0  5.25 0 0  6 0 0  6.75 0 0  7.5 0 0  8.25 0 0  9 0 0  9.75 0 0  10.5 0 0  11.25 0 0  12 0 0  12.75 0 0  13.5 0 0  14.25 0 0  15 0 0  15.75 0 0  16.5 0 0  17.25 0 0  18 0 0  18.75 0 0  19.5 0 0  20.25 0 0  21 0 0  21.75 0 0  22.5 0 0  23.25 0 0  24 0 0  24.75 0 0  25.5 0 0  26.25 0 0  27 0 0  27.75 0 0  28.5 0 0  29.25 0 0  30 0 0  30.75 0 0  31.5 0 0  32.25 0 0  33 0 0  33.75 0 0  34.5 0 0  35.25 0 0  36 0 0  36.75 0 0  37.5 0 0  38.25 0 0  39 0 0  39.75 0 0  40.5 0 0  41.25 0 0  42 0 0  42.75 0 0  43.5 0 0  44.25 0 0  45 0 0  45.75 0 0  46.5 0 0  47.25 0 0  48 0 0  48.75 0 0  49.5 0 0  50.25 0 0  51 0 0  51.75 0 0  52.5 0 0  53.25 0 0  54 0 0  54.75 0 0  55.5 0 0  56.25 0 0  57 0 0  57.75 0 0  58.5 0 0  59.25 0 0  60 0 0  0 0.5 0  0.75 0.5 0  1.5 0.5 0  2.25 0.5 0  3 0.5 0  3.75 0.5 0  4.5 0.5 0  5.25 0.5 0  6 0.5 0  6.75 0.5 0  7.5 0.5 0  8.25 0.5 0  9 0.5 0  9.75 0.5 0  10.5 0.5 0  11.25 0.5 0  12 0.5 0  12.75 0.5 0  13.5 0.5 0  14.25 0.5 0  15 0.5 0  15.75 0.5 0  16.5 0.5 0  17.25 0.5 0  18 0.5 0  18.75 0.5 0  19.5 0.5 0  20.25 0.5 0  21 0.5 0  21.75 0.5 0  22.5 0.5 0  23.25 0.5 0  24 0.5 0  24.75 0.5 0  25.5 0.5 0  26.25 0.5 0  27 0.5 0  27.75 0.5 0  28.5 0.5 0  29.25 0.5 0  30 0.5 0  30.75 0.5 0  31.5 0.5 0  32.25 0.5 0  33 0.5 0  33.75 0.5 0  34.5 0.5 0  35.25 0.5 0  36 0.5 0  36.75 0.5 0  37.5 0.5 0  38.25 0.5 0  39 0.5 0  39.75 0.5 0  40.5 0.5 0  41.25 0.5 0  42 0.5 0  42.75 0.5 0  43.5 0.5 0  44.25 0.5 0  45 0.5 0  45.75 0.5 0  46.5 0.5 0  47.25 0.5 0  48 0.5 0  48.75 0.5 0  49.5 0.5 0  50.25 0.5 0  51 0.5 0  51.75 0.5 0  52.5 0.5 0  53.25 0.5 0  54 0.5 0  54.75 0.5 0  55.5 0.5 0  56.25 0.5 0  57 0.5 0  57.75 0.5 0  58.5 0.5 0  59.25 0.5 0  60 0.5 0  0 1 0  0.75 1 0  1.5 1 0  2.25 1 0  3 1 0  3.75 1 0  4.5 1 0  5.25 1 0  6 1 0  6.75 1 0  7.5 1 0  8.25 1 0  9 1 0  9.75 1 0  10.5 1 0  11.25 1 0  12 1 0  12.75 1 0  13.5 1 0  14.25 1 0  15 1 0  15.75 1 0  16.5 1 0  17.25 1 0  18 1 0  18.75 1 0  19.5 1 0  20.25 1 0  21 1 0  21.75 1 0  22.5 1 0  23.25 1 0  24 1 0  24.75 1 0  25.5 1 0  26.25 1 0  27 1 0  27.75 1 0  28.5 1 0  29.25 1 0  30 1 0  30.75 1 0  31.5 1 0  32.25 1 0  33 1 0  33.75 1 0  34.5 1 0  35.25 1 0  36 1 0  36.75 1 0  37.5 1 0  38.25 1 0  39 1 0  39.75 1 0  40.5 1 0  41.25 1 0  42 1 0  42.75 1 0  43.5 1 0  44.25 1 0  45 1 0  45.75 1 0  46.5 1 0  47.25 1 0  48 1 0  48.75 1 0  49.5 1 0  50.25 1 0  51 1 0  51.75 1 0  52.5 1 0  53.25 1 0  54 1 0  54.75 1 0  55.5 1 0  56.25 1 0  57 1 0  57.75 1 0  58.5 1 0  59.25 1 0  60 1 0  0 1.5 0  0.75 1.5 0  1.5 1.5 0  2.25 1.5 0  3 1.5 0  3.75 1.5 0  4.5 1.5 0  5.25 1.5 0  6 1.5 0  6.75 1.5 0  7.5 1.5 0  8.25 1.5 0  9 1.5 0  9.75 1.5 0  10.5 1.5 0  11.25 1.5 0  12 1.5 0  12.75 1.5 0  13.5 1.5 0  14.25 1.5 0  15 1.5 0  15.75 1.5 0  16.5 1.5 0  17.25 1.5 0  18 1.5 0  18.75 1.5 0  19.5 1.5 0  20.25 1.5 0  21 1.5 0  21.75 1.5 0  22.5 1.5 0  23.25 1.5 0  24 1.5 0  24.75 1.5 0  25.5 1.5 0  26.25 1.5 0  27 1.5 0  27.75 1.5 0  28.5 1.5 0  29.25 1.5 0  30 1.5 0  30.75 1.5 0  31.5 1.5 0  32.25 1.5 0  33 1.5 0  33.75 1.5 0  34.5 1.5 0  35.25 1.5 0  36 1.5 0  36.75 1.5 0  37.5 1.5 0  38.25 1.5 0  39 1.5 0  39.75 1.5 0  40.5 1.5 0  41.25 1.5 0  42 1.5 0  42.75 1.5 0  43.5 1.5 0  44.25 1.5 0  45 1.5 0  45.75 1.5 0  46.5 1.5 0  47.25 1.5 0  48 1.5 0  48.75 1.5 0  49.5 1.5 0  50.25 1.5 0  51 1.5 0  51.75 1.5 0  52.5 1.5 0  53.25 1.5 0  54 1.5 0  54.75 1.5 0  55.5 1.5 0  56.25 1.5 0  57 1.5 0  57.75 1.5 0  58.5 1.5 0  59.25 1.5 0  60 1.5 0  0 2 0  0.75 2 0  1.5 2 0  2.25 2 0  3 2 0  3.75 2 0  4.5 2 0  5.25 2 0  6 2 0  6.75 2 0  7.5 2 0  8.25 2 0  9 2 0  9.75 2 0  10.5 2 0  11.25 2 0  12 2 0  12.75 2 0  13.5 2 0  14.25 2 0  15 2 0  15.75 2 0  16.5 2 0  17.25 2 0  18 2 0  18.75 2 0  19.5 2 0  20.25 2 0  21 2 0  21.75 2 0  22.5 2 0  23.25 2 0  24 2 0  24.75 2 0  25.5 2 0  26.25 2 0  27 2 0  27.75 2 0  28.5 2 0  29.25 2 0  30 2 0  30.75 2 0  31.5 2 0  32.25 2 0  33 2 0  33.75 2 0  34.5 2 0  35.25 2 0  36 2 0  36.75 2 0  37.5 2 0  38.25 2 0  39 2 0  39.75 2 0  40.5 2 0  41.25 2 0  42 2 0  42.75 2 0  43.5 2 0  44.25 2 0  45 2 0  45.75 2 0  46.5 2 0  47.25 2 0  48 2 0  48.75 2 0  49.5 2 0  50.25 2 0  51 2 0  51.75 2 0  52.5 2 0  53.25 2 0  54 2 0  54.75 2 0  55.5 2 0  56.25 2 0  57 2 0  57.75 2 0  58.5 2 0  59.25 2 0  60 2 0  0 2.5 0  0.75 2.5 0  1.5 2.5 0  2.25 2.5 0  3 2.5 0  3.75 2.5 0  4.5 2.5 0  5.25 2.5 0  6 2.5 0  6.75 2.5 0  7.5 2.5 0  8.25 2.5 0  9 2.5 0  9.75 2.5 0  10.5 2.5 0  11.25 2.5 0  12 2.5 0  12.75 2.5 0  13.5 2.5 0  14.25 2.5 0  15 2.5 0  15.75 2.5 0  16.5 2.5 0  17.25 2.5 0  18 2.5 0  18.75 2.5 0  19.5 2.5 0  20.25 2.5 0  21 2.5 0  21.75 2.5 0  22.5 2.5 0  23.25 2.5 0  24 2.5 0  24.75 2.5 0  25.5 2.5 0  26.25 2.5 0  27 2.5 0  27.75 2.5 0  28.5 2.5 0  29.25 2.5 0  30 2.5 0  30.75 2.5 0  31.5 2.5 0  32.25 2.5 0  33 2.5 0  33.75 2.5 0  34.5 2.5 0  35.25 2.5 0  36 2.5 0  36.75 2.5 0  37.5 2.5 0  38.25 2.5 0  39 2.5 0  39.75 2.5 0  40.5 2.5 0  41.25 2.5 0  42 2.5 0  42.75 2.5 0  43.5 2.5 0  44.25 2.5 0  45 2.5 0  45.75 2.5 0  46.5 2.5 0  47.25 2.5 0  48 2.5 0  48.75 2.5 0  49.5 2.5 0  50.25 2.5 0  51 2.5 0  51.75 2.5 0  52.5 2.5 0  53.25 2.5 0  54 2.5 0  54.75 2.5 0  55.5 2.5 0  56.25 2.5 0  57 2.5 0  57.75 2.5 0  58.5 2.5 0  59.25 2.5 0  60 2.5 0  0 3 0  0.75 3 0  1.5 3 0  2.25 3 0  3 3 0  3.75 3 0  4.5 3 0  5.25 3 0  6 3 0  6.75 3 0  7.5 3 0  8.25 3 0  9 3 0  9.75 3 0  10.5 3 0  11.25 3 0  12 3 0  12.75 3 0  13.5 3 0  14.25 3 0  15 3 0  15.75 3 0  16.5 3 0  17.25 3 0  18 3 0  18.75 3 0  19.5 3 0  20.25 3 0  21 3 0  21.75 3 0  22.5 3 0  23.25 3 0  24 3 0  24.75 3 0  25.5 3 0  26.25 3 0  27 3 0  27.75 3 0  28.5 3 0  29.25 3 0  30 3 0  30.75 3 0  31.5 3 0  32.25 3 0  33 3 0  33.75 3 0  34.5 3 0  35.25 3 0  36 3 0  36.75 3 0  37.5 3 0  38.25 3 0  39 3 0  39.75 3 0  40.5 3 0  41.25 3 0  42 3 0  42.75 3 0  43.5 3 0  44.25 3 0  45 3 0  45.75 3 0  46.5 3 0  47.25 3 0  48 3 0  48.75 3 0  49.5 3 0  50.25 3 0  51 3 0  51.75 3 0  52.5 3 0  53.25 3 0  54 3 0  54.75 3 0  55.5 3 0  56.25 3 0  57 3 0  57.75 3 0  58.5 3 0  59.25 3 0  60 3 0  0 3.5 0  0.75 3.5 0  1.5 3.5 0  2.25 3.5 0  3 3.5 0  3.75 3.5 0  4.5 3.5 0  5.25 3.5 0  6 3.5 0  6.75 3.5 0  7.5 3.5 0  8.25 3.5 0  9 3.5 0  9.75 3.5 0  10.5 3.5 0  11.25 3.5 0  12 3.5 0  12.75 3.5 0  13.5 3.5 0  14.25 3.5 0  15 3.5 0  15.75 3.5 0  16.5 3.5 0  17.25 3.5 0  18 3.5 0  18.75 3.5 0  19.5 3.5 0  20.25 3.5 0  21 3.5 0  21.75 3.5 0  22.5 3.5 0  23.25 3.5 0  24 3.5 0  24.75 3.5 0  25.5 3.5 0  26.25 3.5 0  27 3.5 0  27.75 3.5 0  28.5 3.5 0  29.25 3.5 0  30 3.5 0  30.75 3.5 0  31.5 3.5 0  32.25 3.5 0  33 3.5 0  33.75 3.5 0  34.5 3.5 0  35.25 3.5 0  36 3.5 0  36.75 3.5 0  37.5 3.5 0  38.25 3.5 0  39 3.5 0  39.75 3.5 0  40.5 3.5 0  41.25 3.5 0  42 3.5 0  42.75 3.5 0  43.5 3.5 0  44.25 3.5 0  45 3.5 0  45.75 3.5 0  46.5 3.5 0  47.25 3.5 0  48 3.5 0  48.75 3.5 0  49.5 3.5 0  50.25 3.5 0  51 3.5 0  51.75 3.5 0  52.5 3.5 0  53.25 3.5 0  54 3.5 0  54.75 3.5 0  55.5 3.5 0  56.25 3.5 0  57 3.5 0  57.75 3.5 0  58.5 3.5 0  59.25 3.5 0  60 3.5 0  0 4 0  0.75 4 0  1.5 4 0  2.25 4 0  3 4 0  3.75 4 0  4.5 4 0  5.25 4 0  6 4 0  6.75 4 0  7.5 4 0  8.25 4 0  9 4 0  9.75 4 0  10.5 4 0  11.25 4 0  12 4 0  12.75 4 0  13.5 4 0  14.25 4 0  15 4 0  15.75 4 0  16.5 4 0  17.25 4 0  18 4 0  18.75 4 0  19.5 4 0  20.25 4 0  21 4 0  21.75 4 0  22.5 4 0  23.25 4 0  24 4 0  24.75 4 0  25.5 4 0  26.25 4 0  27 4 0  27.75 4 0  28.5 4 0  29.25 4 0  30 4 0  30.75 4 0  31.5 4 0  32.25 4 0  33 4 0  33.75 4 0  34.5 4 0  35.25 4 0  36 4 0  36.75 4 0  37.5 4 0  38.25 4 0  39 4 0  39.75 4 0  40.5 4 0  41.25 4 0  42 4 0  42.75 4 0  43.5 4 0  44.25 4 0  45 4 0  45.75 4 0  46.5 4 0  47.25 4 0  48 4 0  48.75 4 0  49.5 4 0  50.25 4 0  51 4 0  51.75 4 0  52.5 4 0  53.25 4 0  54 4 0  54.75 4 0  55.5 4 0  56.25 4 0  57 4 0  57.75 4 0  58.5 4 0  59.25 4 0  60 4 0  0.375 0.25 0  1.125 0.25 0  1.875 0.25 0  2.625 0.25 0  3.375 0.25 0  4.125 0.25 0  4.875 0.25 0  5.625 0.25 0  6.375 0.25 0  7.125 0.25 0  7.875 0.25 0  8.625 0.25 0  9.375 0.25 0  10.125 0.25 0  10.875 0.25 0  11.625 0.25 0  12.375 0.25 0  13.125 0.25 0  13.875 0.25 0  14.625 0.25 0  15.375 0.25 0  16.125 0.25 0  16.875 0.25 0  17.625 0.25 0  18.375 0.25 0  19.125 0.25 0  19.875 0.25 0  20.625 0.25 0  21.375 0.25 0  22.125 0.25 0  22.875 0.25 0  23.625 0.25 0  24.375 0.25 0  25.125 0.25 0  25.875 0.25 0  26.625 0.25 0  27.375 0.25 0  28.125 0.25 0  28.875 0.25 0  29.625 0.25 0  30.375 0.25 0  31.125 0.25 0  31.875 0.25 0  32.625 0.25 0  33.375 0.25 0  34.125 0.25 0  34.875 0.25 0  35.625 0.25 0  36.375 0.25 0  37.125 0.25 0  37.875 0.25 0  38.625 0.25 0  39.375 0.25 0  40.125 0.25 0  40.875 0.25 0  41.625 0.25 0  42.375 0.25 0  43.125 0.25 0  43.875 0.25 0  44.625 0.25 0  45.375 0.25 0  46.125 0.25 0  46.875 0.25 0  47.625 0.25 0  48.375 0.25 0  49.125 0.25 0  49.875 0.25 0  50.625 0.25 0  51.375 0.25 0  52.125 0.25 0  52.875 0.25 0  53.625 0.25 0  54.375 0.25 0  55.125 0.25 0  55.875 0.25 0  56.625 0.25 0  57.375 0.25 0  58.125 0.25 0  58.875 0.25 0  59.625 0.25 0  0.375 0.75 0  1.125 0.75 0  1.875 0.75 0  2.625 0.75 0  3.375 0.75 0  4.125 0.75 0  4.875 0.75 0  5.625 0.75 0  6.375 0.75 0  7.125 0.75 0  7.875 0.75 0  8.625 0.75 0  9.375 0.75 0  10.125 0.75 0  10.875 0.75 0  11.625 0.75 0  12.375 0.75 0  13.125 0.75 0  13.875 0.75 0  14.625 0.75 0  15.375 0.75 0  16.125 0.75 0  16.875 0.75 0  17.625 0.75 0  18.375 0.75 0  19.125 0.75 0  19.875 0.75 0  20.625 0.75 0  21.375 0.75 0  22.125 0.75 0  22.875 0.75 0  23.625 0.75 0  24.375 0.75 0  25.125 0.75 0  25.875 0.75 0  26.625 0.75 0  27.375 0.75 0  28.125 0.75 0  28.875 0.75 0  29.625 0.75 0  30.375 0.75 0  31.125 0.75 0  31.875 0.75 0  32.625 0.75 0  33.375 0.75 0  34.125 0.75 0  34.875 0.75 0  35.625 0.75 0  36.375 0.75 0  37.125 0.75 0  37.875 0.75 0  38.625 0.75 0  39.375 0.75 0  40.125 0.75 0  40
[...]
<PointData  Vectors="f_8-0"> 
<DataArray  type="Float64"  Name="f_8-0"  NumberOfComponents="3" format="ascii">0.0000000000000000e+00 0.0000000000000000e+00 0.0000000000000000e+00  0.0000000000000000e+00 0.0000000000000000e+00 0.0000000000000000e+00  0.0000000000000000e+00 0.0000000000000000e+00 0.0000000000000000e+00  0.0000000000000000e+00 0.0000000000000000e+00 0.0000000000000000e+00  0.0000000000000000e+00 0.0000000000000000e+00 0.0000000000000000e+00  0.0000000000000000e+00 0.0000000000000000e+00 0.0000000000000000e+00  0.0000000000000000e+00 0.0000000000000000e+00 0.0000000000000000e+00  0.0000000000000000e+00 0.0000000000000000e+00 0.0000000000000000e+00  0.0000000000000000e+00 0.0000000000000000e+00 0.0000000000000000e+00  0.0000000000000000e+00 0.0000000000000000e+00 0.0000000000000000e+00  0.0000000000000000e+00 0.0000000000000000e+00 0.0000000000000000e+00  0.0000000000000000e+00 0.0000000000000000e+00 0.0000000000000000e+00  0.0000000000000000e+00 0.0000000000000000e+00 0.0000000000000000e+00  0.0000000000000000e+00 0.0000000000000000e+00 0.0000000000000000e+00  0.0000000000000000e+00 0.0000000000000000e+00 0.0000000000000000e+00  0.0000000000000000e+00 0.0000000000000000e+00 0.0000000000000000e+00  0.0000000000000000e+00 0.0000000000000000e+00 0.0000000000000000e+00  0.0000000000000000e+00 0.0000000000000000e+00 0.0000000000000000e+00  0.0000000000000000e+00 0.0000000000000000e+00 0.0000000000000000e+00  0.0000000000000000e+00 0.0000000000000000e+00 0.0000000000000000e+00  0.0000000000000000e+00 0.0000000000000000e+00 0.0000000000000000e+00  0.0000000000000000e+00 0.0000000000000000e+00 0.0000000000000000e+00  0.0000000000000000e+00 0.0000000000000000e+00 0.0000000000000000e+00  0.0000000000000000e+00 0.0000000000000000e+00 0.0000000000000000e+00  0.0000000000000000e+00 0.0000000000000000e+00 0.0000000000000000e+00  0.0000000000000000e+00 0.0000000000000000e+00 0.0000000000000000e+00  0.0000000000000000e+00 0.0000000000000000e+00 0.0000000000000000e+00  0.0000000000000000e+00 0.0000000000000000e+00 0.0000000000000000e+00  0.0000000000000000e+00 0.0000000000000000e+00 0.0000000000000000e+00  0.0000000000000000e+00 0.0000000000000000e+00 0.0000000000000000e+00  0.0000000000000000e+00 0.0000000000000000e+00 0.0000000000000000e+00  0.0000000000000000e+00 0.0000000000000000e+00 0.0000000000000000e+00  0.0000000000000000e+00 0.0000000000000000e+00 0.0000000000000000e+00  0.0000000000000000e+00 0.0000000000000000e+00 0.0000000000000000e+00  0.0000000000000000e+00 0.0000000000000000e+00 0.0000000000000000e+00  0.0000000000000000e+00 0.0000000000000000e+00 0.0000000000000000e+00  0.0000000000000000e+00 0.0000000000000000e+00 0.0000000000000000e+00  0.0000000000000000e+00 0.0000000000000000e+00 0.0000000000000000e+00  0.0000000000000000e+00 0.0000000000000000e+00 0.0000000000000000e+00  0.0000000000000000e+00 0.0000000000000000e+00 0.0000000000000000e+00  0.0000000000000000e+00 0.0000000000000000e+00 0.0000000000000000e+00  0.0000000000000000e+00 0.0000000000000000e+00 0.0000000000000000e+00  0.0000000000000000e+00 0.0000000000000000e+00 0.0000000000000000e+00  0.0000000000000000e+00 0.0000000000000000e+00 0.0000000000000000e+00  0.0000000000000000e+00 0.0000000000000000e+00 0.0000000000000000e+00  0.0000000000000000e+00 0.0000000000000000e+00 0.0000000000000000e+00  0.0000000000000000e+00 0.0000000000000000e+00 0.0000000000000000e+00  0.0000000000000000e+00 0.0000000000000000e+00 0.0000000000000000e+00  0.0000000000000000e+00 0.0000000000000000e+00 0.0000000000000000e+00  0.0000000000000000e+00 0.0000000000000000e+00 0.0000000000000000e+00  0.0000000000000000e+00 0.0000000000000000e+00 0.0000000000000000e+00  0.0000000000000000e+00 0.0000000000000000e+00 0.0000000000000000e+00  0.0000000000000000e+00 0.0000000000000000e+00 0.0000000000000000e+00  0.0000000000000000e+00 0.0000000000000000e+00 0.0000000000000000e+00  0.0000000000000000e+00 0.0000000000000000e+00 0.0000000000000000e+00  0.0000000000000000e+00 0.0000000000000000e+00 0.0000000000000000e+00  0.0000000000000000e+00 0.0000000000000000e+00 0.0000000000000000e+00  0.0000000000000000e+00 0.0000000000000000e+00 0.0000000000000000e+00  0.0000000000000000e+00 0.0000000000000000e+00 0.0000000000000000e+00  0.0000000000000000e+00 0.0000000000000000e+00 0.0000000000000000e+00  0.0000000000000000e+00 0.0000000000000000e+00 0.0000000000000000e+00  0.0000000000000000e+00 0.0000000000000000e+00 0.0000000000000000e+00  0.0000000000000000e+00 0.0000000000000000e+00 0.0000000000000000e+00  0.0000000000000000e+00 0.0000000000000000e+00 0.0000000000000000e+00  0.0000000000000000e+00 0.0000000000000000e+00 0.0000000000000000e+00  0.0000000000000000e+00 0.0000000000000000e+00 0.0000000000000000e+00  0.0000000000000000e+00 0.0000000000000000e+00 0.0000000000000000e+00  0.0000000000000000e+00 0.0000000000000000e+00 0.0000000000000000e+00  0.0000000000000000e+00 0.0000000000000000e+00 0.0000000000000000e+00  0.0000000000000000e+00 0.0000000000000000e+00 0.0000000000000000e+00  0.0000000000000000e+00 0.0000000000000000e+00 0.0000000000000000e+00  0.0000000000000000e+00 0.0000000000000000e+00 0.0000000000000000e+00  0.0000000000000000e+00 0.0000000000000000e+00 0.0000000000000000e+00  0.0000000000000000e+00 0.0000000000000000e+00 0.0000000000000000e+00  0.0000000000000000e+00 0.0000000000000000e+00 0.0000000000000000e+00  0.0000000000000000e+00 0.0000000000000000e+00 0.0000000000000000e+00  0.0000000000000000e+00 0.0000000000000000e+00 0.0000000000000000e+00  0.0000000000000000e+00 0.0000000000000000e+00 0.0000000000000000e+00  0.0000000000000000e+00 0.0000000000000000e+00 0.0000000000000000e+00  0.0000000000000000e+00 0.0000000000000000e+00 0.0000000000000000e+00  0.0000000000000000e+00 0.0000000000000000e+00 0.0000000000000000e+00  1.9693437106036292e+01 0.0000000000000000e+00 0.0000000000000000e+00  1.9666945090103951e+01 7.4203652033770176e-02 0.0000000000000000e+00  1.9660210719601277e+01 1.7328102155360132e-02 0.0000000000000000e+00  1.9651064088426441e+01 5.1206007684388988e-03 0.0000000000000000e+00  1.9648659149548045e+01 5.3364781137345491e-03 0.0000000000000000e+00  1.9650617020033398e+01 5.4391374782197478e-03 0.0000000000000000e+00  1.9649768353880344e+01 5.3497287440315471e-03 0.0000000000000000e+00  1.9650359533397925e+01 5.4271354246291856e-03 0.0000000000000000e+00  1.9650238199708635e+01 5.4165432597747792e-03 0.0000000000000000e+00  1.9650355635365393e+01 5.4322686374338597e-03 0.0000000000000000e+00  1.9650357093885418e+01 5.4346185592707057e-03 0.0000000000000000e+00  1.9650381403651387e+01 5.4382442607851982e-03 0.0000000000000000e+00  1.9650388061145478e+01 5.4397400521023816e-03 0.0000000000000000e+00  1.9650394338065393e+01 5.4407855318466059e-03 0.0000000000000000e+00  1.9650397292694720e+01 5.4413373170202617e-03 0.0000000000000000e+00  1.9650399267975001e+01 5.4416654651313866e-03 0.0000000000000000e+00  1.9650400406913452e+01 5.4418495408912549e-03 0.0000000000000000e+00  1.9650401146904386e+01 5.4419560347712436e-03 0.0000000000000000e+00  1.9650401634967277e+01 5.4420173132782232e-03 0.0000000000000000e+00  1.9650401983968873e+01 5.4420530796987282e-03 0.0000000000000000e+00  1.9650402250295091e+01 5.4420740976285336e-03 0.0000000000000000e+00  1.9650402468644547e+01 5.4420865811850676e-03 0.0000000000000000e+00  1.9650402658550991e+01 5.4420940727698030e-03 0.0000000000000000e+00  1.9650402831578329e+01 5.4420986213648808e-03 0.0000000000000000e+00  1.9650402994510031e+01 5.4421014142135744e-03 0.0000000000000000e+00  1.9650403151379361e+01 5.4421031653654897e-03 0.0000000000000000e+00  1.9650403304601557e+01 5.4421042926800240e-03 0.0000000000000000e+00  1.9650403455585451e+01 5.4421050441912106e-03 0.0000000000000000e+00  1.9650403605210307e+01 5.4421055678549159e-03 0.0000000000000000e+00  1.9650403753977379e+01 5.4421059643646663e-03 0.0000000000000000e+00  1.9650403902169007e+01 5.4421062866478126e-03 0.0000000000000000e+00  1.9650404049944825e+01 5.4421065763398087e-03 0.0000000000000000e+00  1.9650404197381032e+01 5.4421068421974719e-03 0.0000000000000000e+00  1.9650404344504082e+01 5.4421071055578566e-03 0.0000000000000000e+00  1.9650404491315893e+01 5.4421073735652003e-03 0.0000000000000000e+00  1.9650404637781506e+01 5.4421076549229404e-03 0.0000000000000000e+00  1.9650404783903273e+01 5.4421079420181656e-03 0.0000000000000000e+00  1.9650404929626113e+01 5.4421082410311857e-03 0.0000000000000000e+00  1.9650405074924986e+01 5.4421085516534783e-03 0.0000000000000000e+00  1.9650405219775426e+01 5.4421088708126193e-03 0.0000000000000000e+00  1.9650405364161514e+01 5.4421091924344049e-03 0.0000000000000000e+00  1.9650405508068214e+01 5.4421095162210109e-03 0.0000000000000000e+00  1.9650405651511271e+01 5.4421098345355610e-03 0.0000000000000000e+00  1.9650405794476047e+01 5.4421101545228208e-03 0.0000000000000000e+00  1.9650405936993753e+01 5.4421104692927626e-03 0.0000000000000000e+00  1.9650406079058367e+01 5.4421107730439440e-03 0.0000000000000000e+00  1.9650406220704134e+01 5.4421110659322123e-03 0.0000000000000000e+00  1.9650406361957224e+01 5.4421113543509300e-03 0.0000000000000000e+00  1.9650406502790055e+01 5.4421116327533856e-03 0.0000000000000000e+00  1.9650406643273179e+01 5.4421119018931872e-03 0.0000000000000000e+00  1.9650406783261442e+01 5.4421121783425532e-03 0.0000000000000000e+00  1.9650406922898895e+01 5.4421124189315646e-03 0.0000000000000000e+00  1.9650407061881836e+01 5.4421126670163179e-03 0.0000000000000000e+00  1.9650407200650974e+01 5.4421127250078678e-03 0.0000000000000000e+00  1.9650407338754942e+01 5.4421125990002364e-03 0.0000000000000000e+00  1.9650407477994190e+01 5.4421114153078692e-03 0.0000000000000000e+00  1.9650407619346403e+01 5.4421083758538231e-03 0.0000000000000000e+00  1.9650407771444918e+01 5.4420994815747269e-03 0.0000000000000000e+00  1.9650407947536692e+01 5.4420791093452757e-03 0.0000000000000000e+00  1.9650408189009141e+01 5.4420294116925361e-03 0.0000000000000000e+00  1.9650408573879442e+01 5.4419182524547260e-03 0.0000000000000000e+00  1.9650409308304301e+01 5.4416357788329168e-03 0.0000000000000000e+00  1.9650410927721737e+01 5.4408689537870959e-03 0.0000000000000000e+00  1.9650415156482740e+01 5.4385596474178458e-03 0.0000000000000000e+00  1.9650427359097993e+01 5.4317842596733161e-03 0.0000000000000000e+00  1.9650463094490817e+01 5.4132730015762978e-03 0.0000000000000000e+00  1.9650561340176591e+01 5.3686927438570814e-03 0.0000000000000000e+00  1.9650804962350001e+01 5.2761906476701727e-03 0.0000000000000000e+00  1.9651334882752455e+01 5.1187203854114001e-03 0.0000000000000000e+00  1.9652316992941625e+01 4.9162725563689901e-03 0.0000000000000000e+00  1.9653804286893042e+01 4.7627802283238246e-03 0.0000000000000000e+00  1.9655555116335972e+01 4.7802779288351306e-03 0.0000000000000000e+00  1.9657094522548725e+01 4.9895578528122951e-03 0.0000000000000000e+00  1.9658039301667234e+01 5.3373613466842938e-03 0.0000000000000000e+00  1.9658037938644721e+01 5.9046812256902167e-03 0.0000000000000000e+00  1.9656485224431403e+01 6.7728221225871032e-03 0.0000000000000000e+00  1.9652666048126967e+01 7.8982022016425395e-03 0.0000000000000000e+00  1.9645839654435939e+01 9.0217622893666808e-03 0.0000000000000000e+00  1.9634870436957467e+01 9.1479027091510394e-03 0.0000000000000000e+00  1.9613051675049430e+01 4.4199989031799020e-03 0.0000000000000000e+00  1.9585440282177721e+01 0.0000000000000000e+00 0.0000000000000000e+00  1.7136699653450535e+01 0.0000000000000000e+00 0.0000000000000000e+00  1.7086825960903500e+01 -7.0507937886912274e-03 0.0000000000000000e+00  1.7126483950275819e+01 9.1102083162023385e-03 0.0000000000000000e+00  1.7126883164207285e+01 -2.1823334134736514e-03 0.0000000000000000e+00  1.7128236716854122e+01 -1.3850092389341359e-03 0.0000000000000000e+00  1.7127553331008688e+01 -2.6248885813451202e-03 0.0000000000000000e+00  1.7128006378819165e+01 -2.0827910213809305e-03 0.0000000000000000e+00  1.7127906623367739e+01 -2.2196563934676478e-03 0.0000000000000000e+00  1.7128006008614015e+01 -2.1196720318944194e-03 0.0000000000000000e+00  1.7128004490303368e+01 -2.1200062805547260e-03 0.0000000000000000e+00  1.7128026037662892e+01 -2.0997766483748731e-03 0.0000000000000000e+00  1.7128031137636611e+01 -2.0938713322552582e-03 0.0000000000000000e+00  1.7128036733619798e+01 -2.0884618396085981e-03 0.0000000000000000e+00  1.7128039209837880e+01 -2.0858485536035310e-03 0.0000000000000000e+00  1.7128040930934972e+01 -2.0841771682827649e-03 0.0000000000000000e+00  1.7128041881629354e+01 -2.0832625384074386e-03 0.0000000000000000e+00  1.7128042488948740e+01 -2.0827262393252198e-03 0.0000000000000000e+00  1.7128042870365327e+01 -2.0824225709376231e-03 0.0000000000000000e+00  1.7128043131336678e+01 -2.0822468407687353e-03 0.0000000000000000e+00  1.7128043320965787e+01 -2.0821454812846880e-03 0.0000000000000000e+00  1.7128043470406592e+01 -2.0820863308050851e-03 0.0000000000000000e+00  1.7128043596512864e+01 -2.0820517064269431e-03 0.0000000000000000e+00  1.7128043709227612e+01 -2.0820312794590139e-03 0.0000000000000000e+00  1.7128043814184906e+01 -2.0820192091633074e-03 0.0000000000000000e+00  1.7128043914671537e+01 -2.0820120497324519e-03 0.0000000000000000e+00  1.7128044012581150e+01 -2.0820078184382476e-03 0.0000000000000000e+00  1.7128044109032885e+01 -2.0820053188213101e-03 0.0000000000000000e+00  1.7128044204616206e+01 -2.0820038462110021e-03 0.0000000000000000e+00  1.7128044299687275e+01 -2.0820029815877641e-03 0.0000000000000000e+00  1.7128044394421387e+01 -2.0820024602715976e-03 0.0000000000000000e+00  1.7128044488882839e+01 -2.0820021206318312e-03 0.0000000000000000e+00  1.7128044583077585e+01 -2.0820018726582169e-03 0.0000000000000000e+00  1.7128044676976753e+01 -2.0820016505315011e-03 0.0000000000000000e+00  1.7128044770527111e+01 -2.0820014234073309e-03 0.0000000000000000e+00  1.7128044863683879e+01 -2.0820011677686965e-03 0.0000000000000000e+00  1.7128044956362103e+01 -2.0820008788471115e-03 0.0000000000000000e+00  1.7128045048551407e+01 -2.0820005581039186e-03 0.0000000000000000e+00  1.7128045140180184e+01 -2.0820001895273570e-03 0.0000000000000000e+00  1.7128045231193646e+01 -2.0819997896499259e-03 0.0000000000000000e+00  1.7128045321564645e+01 -2.0819993636349877e-03 0.0000000000000000e+00  1.7128045411287363e+01 -2.0819989298731714e-03 0.0000000000000000e+00  1.7128045500334721e+01 -2.0819984861663574e-03 0.0000000000000000e+00  1.7128045588743245e+01 -2.0819980552583021e-03 0.0000000000000000e+00  1.7128045676479264e+01 -2.0819976208809026e-03 0.0000000000000000e+00  1.7128045763604945e+01 -2.0819972211619190e-03 0.0000000000000000e+00  1.7128045850066144e+01 -2.0819968138835743e-03 0.0000000000000000e+00  1.7128045935932022e+01 -2.0819964569991972e-03 0.0000000000000000e+00  1.7128046021120017e+01 -2.0819960672051642e-03 0.0000000000000000e+00  1.7128046105645243e+01 -2.0819957084657007e-03 0.0000000000000000e+00  1.7128046189320887e+01 -2.0819952655225368e-03 0.0000000000000000e+00  1.7128046272040237e+01 -2.0819947785767567e-03 0.0000000000000000e+00  1.7128046353400354e+01 -2.0819941795488729e-03 0.0000000000000000e+00  1.7128046433077849e+01 -2.0819934192678972e-03 0.0000000000000000e+00  1.7128046510446740e+01 -2.0819927794177577e-03 0.0000000000000000e+00  1.7128046584645258e+01 -2.0819920524953236e-03 0.0000000000000000e+00  1.7128046655370770e+01 -2.0819933525185407e-03 0.0000000000000000e+00  1.7128046721358515e+01 -2.0819973330459159e-03 0.0000000000000000e+00  1.7128046786338253e+01 -2.0820145438680631e-03 0.0000000000000000e+00  1.7128046854235858e+01 -2.0820541332602772e-03 0.0000000000000000e+00  1.7128046954279345e+01 -2.0821634096372141e-03 0.0000000000000000e+00  1.7128047139590969e+01 -2.0824096844921655e-03 0.0000000000000000e+00  1.7128047600535101e+01 -2.0830678614625429e-03 0.0000000000000000e+00  1.7128048800433056e+01 -2.0848498883436813e-03 0.0000000000000000e+00  1.7128052215921819e+01 -2.0902430010422660e-03 0.0000000000000000e+00  1.7128061856037025e+01 -2.1059710892622082e-03 0.0000000000000000e+00  1.7128088599612362e+01 -2.1490668643309452e-03 0.0000000000000000e+00  1.7128157752848804e+01 -2.2535815136840685e-03 0.0000000000000000e+00  1.7128322711471434e+01 -2.4748331215595524e-03 0.0000000000000000e+00  1.7128675547738155e+01 -2.8640828743490936e-03 0.0000000000000000e+00  1.7129324893480248e+01 -3.3864397268247430e-03 0.0000000000000000e+00  1.7130269137010597e+01 -3.7977407605142848e-03 0.0000000000000000e+00  1.7131258981987603e+01 -3.7639730461089781e-03 0.0000000000000000e+00  1.7132013723414492e+01 -3.2919454794218244e-03 0.0000000000000000e+00  1.7132578489242210e+01 -2.5906973129596472e-03 0.0000000000000000e+00  1.7132950900363539e+01 -1.4372398301892042e-03 0.0000000000000000e+00  1.7133000653443830e+01 3.2010858528432501e-04 0.0000000000000000e+00  1.7132654276393396e+01 2.7005379475325345e-03 0.0000000000000000e+00  1.7131698590202046e+01 5.6512524364252586e-03 0.0000000000000000e+00  1.7129462383584727e+01 9.3481253514027720e-03 0.0000000000000000e+00  1.7125737031235847e+01 1.5322714234225172e-02 0.0000000000000000e+00  1.7113792681428009e+01 0.0000000000000000e+00 0.0000000000000000e+00  1.4077025596484486e+01 0.0000000000000000e+00 0.0000000000000000e+00  1.4076237848181073e+01 1.6932596841768696e-03 0.0000000000000000e+00  1.4079945237417878e+01 2.5846545139768359e-04 0.0000000000000000e+00  1.4084238914703329e+01 4.3105589662972778e-04 0.0000000000000000e+00  1.4084101332893182e+01 -7.7441904502016917e-04 0.0000000000000000e+00  1.4084112100388220e+01 -5.8413953746838557e-04 0.0000000000000000e+00  1.4083884512619717e+01 -6.6372427274082296e-04 0.0000000000000000e+00  1.4083808675914685e+01 -5.7457016333143111e-04 0.0000000000000000e+00  1.4083733053050031e+01 -5.6401822267273377e-04 0.0000000000000000e+00  1.4083697630116687e+01 -5.3974388257303665e-04 0.0000000000000000e+00  1.4083672637573786e+01 -5.3086271220373793e-04 0.0000000000000000e+00  1.4083659186230820e+01 -5.2351771703583938e-04 0.0000000000000000e+00  1.4083650890727986e+01 -5.1977359724897452e-04 0.0000000000000000e+00  1.4083646246797382e+01 -5.1738853199143119e-04 0.0000000000000000e+00  1.4083643544320811e+01 -5.1606480384905438e-04 0.0000000000000000e+00  1.4083642028801743e+01 -5.1528887206935133e-04 0.0000000000000000e+00  1.4083641178672698e+01 -5.1485009454702512e-04 0.0000000000000000e+00  1.4083640718259089e+01 -5.1459834715795745e-04 0.0000000000000000e+00  1.4083640481694138e+01 -5.1445447375401585e-04 0.0000000000000000e+00  1.4083640376256547e+01 -5.1437176886015600e-04 0.0000000000000000e+00  1.4083640347853754e+01 -5.1432396857638415e-04 0.0000000000000000e+00  1.4083640365369421e+01 -5.1429628427085644e-04 0.0000000000000000e+00  1.4083640410501747e+01 -5.1428016856231102e-04 0.0000000000000000e+00  1.4083640472473833e+01 -5.1427079507384795e-04 0.0000000000000000e+00  1.4083640544813091e+01 -5.1426533336467080e-04 0.0000000000000000e+00  1.4083640623615205e+01 -5.1426216744889950e-04 0.0000000000000000e+00  1.4083640706472552e+01 -5.1426033278217074e-04 0.0000000000000000e+00  1.4083640791898475e+01 -5.1425922091708875e-04 0.0000000000000000e+00  1.4083640878932130e+01 -5.1425854033441618e-04 0.0000000000000000e+00  1.4083640966958219e+01 -5.1425805298389068e-04 0.0000000000000000e+00  1.4083641055556157e+01 -5.1425762943597367e-04 0.0000000000000000e+00  1.4083641144441650e+01 -5.1425720380159328e-04 0.0000000000000000e+00  1.4083641233402377e+01 -5.1425672015942183e-04 0.0000000000000000e+00  1.4083641322285329e+01 -5.1425616889946694e-04 0.0000000000000000e+00  1.4083641410973948e+01 -5.1425554044543333e-04 0.0000000000000000e+00  1.4083641499393321e+01 -5.1425481038870429e-04 0.0000000000000000e+00  1.4083641587461376e+01 -5.1425404615863053e-04 0.0000000000000000e+00  1.4083641675142779e+01 -5.1425317979665001e-04 0.0000000000000000e+00  1.4083641762402047e+01 -5.1425226075357637e-04 0.0000000000000000e+00  1.4083641849216285e+01 -5.1425131004185793