<?xml version="1.0"?>
<VTKFile type="UnstructuredGrid"  version="0.1"  >
<UnstructuredGrid>
<Piece  NumberOfPoints="1369" NumberOfCells="2560">
<Points>
<DataArray  type="Float64"  NumberOfComponents="3"  format="ascii">0 0 0  0.75 0 0  1.5 0 0  2.25 0 0  3 0 0  3.75 0 0  4.5 0 0  5.25 0 0  6 0 0  6.75 0 0  7.5 0 0  8.25 0 0  9 0 0  9.75 0 0  10.5 0 0  11.25 0 0  12 0 0  12.75 0 0  13.5 0 0  14.25 0 0  15 0 0  15.75 0 0  16.5 0 0  17.25 0 0  18 0 0  18.75 0 0  19.5 0 0  20.25 0 0  21 0 0  21.75 0 0  22.5 0 0  23.25 0 0  24 0 0  24.75 0 0  25.5 0 0  26.25 0 0  27 0 0  27.75 0 0  28.5 0 0  29.25 0 0  30 0 0  30.75 0 0  31.5 0 0  32.25 0 0  33 0 0  33.75 0 0  34.5 0 0  35.25 0 0  36 0 0  36.75 0 0  37.5 0 0  38.25 0 0  39 0 0  39.75 0 0  40.5 0 0  41.25 0 0  42 0 0  42.75 0 0  43.5 0 0  44.25 0 0  45 0 0  45.75 0 0  46.5 0 0  47.25 0 0  48 0 0  48.75 0 0  49.5 0 0  50.25 0 0  51 0 0  51.75 0 0  52.5 0 0  53.25 0 0  54 0 0  54.75 0 0  55.5 0 0  56.25 0 0  57 0 0  57.75 0 0  58.5 0 0  59.25 0 0  60 0 0  0 0.5 0  0.75 0.5 0  1.5 0.5 0  2.25 0.5 0  3 0.5 0  3.75 0.5 0  4.5 0.5 0  5.25 0.5 0  6 0.5 0  6.75 0.5 0  7.5 0.5 0  8.25 0.5 0  9 0.5 0  9.75 0.5 0  10.5 0.5 0  11.25 0.5 0  12 0.5 0  12.75 0.5 0  13.5 0.5 0  14.25 0.5 0  15 0.5 0  15.75 0.5 0  16.5 0.5 0  17.25 0.5 0  18 0.5 0  18.75 0.5 0  19.5 0.5 0  20.25 0.5 0  21 0.5 0  21.75 0.5 0  22.5 0.5 0  23.25 0.5 0  24 0.5 0  24.75 0.5 0  25.5 0.5 0  26.25 0.5 0  27 0.5 0  27.75 0.5 0  28.5 0.5 0  29.25 0.5 0  30 0.5 0  30.75 0.5 0  31.5 0.5 0  32.25 0.5 0  33 0.5 0  33.75 0.5 0  34.5 0.5 0  35.25 0.5 0  36 0.5 0  36.75 0.5 0  37.5 0.5 0  38.25 0.5 0  39 0.5 0  39.75 0.5 0  40.5 0.5 0  41.25 0.5 0  42 0.5 0  42.75 0.5 0  43.5 0.5 0  44.25 0.5 0  45 0.5 0  45.75 0.5 0  46.5 0.5 0  47.25 0.5 0  48 0.5 0  48.75 0.5 0  49.5 0.5 0  50.25 0.5 0  51 0.5 0  51.75 0.5 0  52.5 0.5 0  53.25 0.5 0  54 0.5 0  54.75 0.5 0  55.5 0.5 0  56.25 0.5 0  57 0.5 0  57.75 0.5 0  58.5 0.5 0  59.25 0.5 0  60 0.5 0  0 1 0  0.75 1 0  1.5 1 0  2.25 1 0  3 1 0  3.75 1 0  4.5 1 0  5.25 1 0  6 1 0  6.75 1 0  7.5 1 0  8.25 1 0  9 1 0  9.75 1 0  10.5 1 0  11.25 1 0  12 1 0  12.75 1 0  13.5 1 0  14.25 1 0  15 1 0  15.75 1 0  16.5 1 0  17.25 1 0  18 1 0  18.75 1 0  19.5 1 0  20.25 1 0  21 1 0  21.75 1 0  22.5 1 0  23.25 1 0  24 1 0  24.75 1 0  25.5 1 0  26.25 1 0  27 1 0  27.75 1 0  28.5 1 0  29.25 1 0  30 1 0  30.75 1 0  31.5 1 0  32.25 1 0  33 1 0  33.75 1 0  34.5 1 0  35.25 1 0  36 1 0  36.75 1 0  37.5 1 0  38.25 1 0  39 1 0  39.75 1 0  40.5 1 0  41.25 1 0  42 1 0  42.75 1 0  43.5 1 0  44.25 1 0  45 1 0  45.75 1 0  46.5 1 0  47.25 1 0  48 1 0  48.75 1 0  49.5 1 0  50.25 1 0  51 1 0  51.75 1 0  52.5 1 0  53.25 1 0  54 1 0  54.75 1 0  55.5 1 0  56.25 1 0  57 1 0  57.75 1 0  58.5 1 0  59.25 1 0  60 1 0  0 1.5 0  0.75 1.5 0  1.5 1.5 0  2.25 1.5 0  3 1.5 0  3.75 1.5 0  4.5 1.5 0  5.25 1.5 0  6 1.5 0  6.75 1.5 0  7.5 1.5 0  8.25 1.5 0  9 1.5 0  9.75 1.5 0  10.5 1.5 0  11.25 1.5 0  12 1.5 0  12.75 1.5 0  13.5 1.5 0  14.25 1.5 0  15 1.5 0  15.75 1.5 0  16.5 1.5 0  17.25 1.5 0  18 1.5 0  18.75 1.5 0  19.5 1.5 0  20.25 1.5 0  21 1.5 0  21.75 1.5 0  22.5 1.5 0  23.25 1.5 0  24 1.5 0  24.75 1.5 0  25.5 1.5 0  26.25 1.5 0  27 1.5 0  27.75 1.5 0  28.5 1.5 0  29.25 1.5 0  30 1.5 0  30.75 1.5 0  31.5 1.5 0  32.25 1.5 0  33 1.5 0  33.75 1.5 0  34.5 1.5 0  35.25 1.5 0  36 1.5 0  36.75 1.5 0  37.5 1.5 0  38.25 1.5 0  39 1.5 0  39.75 1.5 0  40.5 1.5 0  41.25 1.5 0  42 1.5 0  42.75 1.5 0  43.5 1.5 0  44.25 1.5 0  45 1.5 0  45.75 1.5 0  46.5 1.5 0  47.25 1.5 0  48 1.5 0  48.75 1.5 0  49.5 1.5 0  50.25 1.5 0  51 1.5 0  51.75 1.5 0  52.5 1.5 0  53.25 1.5 0  54 1.5 0  54.75 1.5 0  55.5 1.5 0  56.25 1.5 0  57 1.5 0  57.75 1.5 0  58.5 1.5 0  59.25 1.5 0  60 1.5 0  0 2 0  0.75 2 0  1.5 2 0  2.25 2 0  3 2 0  3.75 2 0  4.5 2 0  5.25 2 0  6 2 0  6.75 2 0  7.5 2 0  8.25 2 0  9 2 0  9.75 2 0  10.5 2 0  11.25 2 0  12 2 0  12.75 2 0  13.5 2 0  14.25 2 0  15 2 0  15.75 2 0  16.5 2 0  17.25 2 0  18 2 0  18.75 2 0  19.5 2 0  20.25 2 0  21 2 0  21.75 2 0  22.5 2 0  23.25 2 0  24 2 0  24.75 2 0  25.5 2 0  26.25 2 0  27 2 0  27.75 2 0  28.5 2 0  29.25 2 0  30 2 0  30.75 2 0  31.5 2 0  32.25 2 0  33 2 0  33.75 2 0  34.5 2 0  35.25 2 0  36 2 0  36.75 2 0  37.5 2 0  38.25 2 0  39 2 0  39.75 2 0  40.5 2 0  41.25 2 0  42 2 0  42.75 2 0  43.5 2 0  44.25 2 0  45 2 0  45.75 2 0  46.5 2 0  47.25 2 0  48 2 0  48.75 2 0  49.5 2 0  50.25 2 0  51 2 0  51.75 2 0  52.5 2 0  53.25 2 0  54 2 0  54.75 2 0  55.5 2 0  56.25 2 0  57 2 0  57.75 2 0  58.5 2 0  59.25 2 0  60 2 0  0 2.5 0  0.75 2.5 0  1.5 2.5 0  2.25 2.5 0  3 2.5 0  3.75 2.5 0  4.5 2.5 0  5.25 2.5 0  6 2.5 0  6.75 2.5 0  7.5 2.5 0  8.25 2.5 0  9 2.5 0  9.75 2.5 0  10.5 2.5 0  11.25 2.5 0  12 2.5 0  12.75 2.5 0  13.5 2.5 0  14.25 2.5 0  15 2.5 0  15.75 2.5 0  16.5 2.5 0  17.25 2.5 0  18 2.5 0  18.75 2.5 0  19.5 2.5 0  20.25 2.5 0  21 2.5 0  21.75 2.5 0  22.5 2.5 0  23.25 2.5 0  24 2.5 0  24.75 2.5 0  25.5 2.5 0  26.25 2.5 0  27 2.5 0  27.75 2.5 0  28.5 2.5 0  29.25 2.5 0  30 2.5 0  30.75 2.5 0  31.5 2.5 0  32.25 2.5 0  33 2.5 0  33.75 2.5 0  34.5 2.5 0  35.25 2.5 0  36 2.5 0  36.75 2.5 0  37.5 2.5 0  38.25 2.5 0  39 2.5 0  39.75 2.5 0  40.5 2.5 0  41.25 2.5 0  42 2.5 0  42.75 2.5 0  43.5 2.5 0  44.25 2.5 0  45 2.5 0  45.75 2.5 0  46.5 2.5 0  47.25 2.5 0  48 2.5 0  48.75 2.5 0  49.5 2.5 0  50.25 2.5 0  51 2.5 0  51.75 2.5 0  52.5 2.5 0  53.25 2.5 0  54 2.5 0  54.75 2.5 0  55.5 2.5 0  56.25 2.5 0  57 2.5 0  57.75 2.5 0  58.5 2.5 0  59.25 2.5 0  60 2.5 0  0 3 0  0.75 3 0  1.5 3 0  2.25 3 0  3 3 0  3.75 3 0  4.5 3 0  5.25 3 0  6 3 0  6.75 3 0  7.5 3 0  8.25 3 0  9 3 0  9.75 3 0  10.5 3 0  11.25 3 0  12 3 0  12.75 3 0  13.5 3 0  14.25 3 0  15 3 0  15.75 3 0  16.5 3 0  17.25 3 0  18 3 0  18.75 3 0  19.5 3 0  20.25 3 0  21 3 0  21.75 3 0  22.5 3 0  23.25 3 0  24 3 0  24.75 3 0  25.5 3 0  26.25 3 0  27 3 0  27.75 3 0  28.5 3 0  29.25 3 0  30 3 0  30.75 3 0  31.5 3 0  32.25 3 0  33 3 0  33.75 3 0  34.5 3 0  35.25 3 0  36 3 0  36.75 3 0  37.5 3 0  38.25 3 0  39 3 0  39.75 3 0  40.5 3 0  41.25 3 0  42 3 0  42.75 3 0  43.5 3 0  44.25 3 0  45 3 0  45.75 3 0  46.5 3 0  47.25 3 0  48 3 0  48.75 3 0  49.5 3 0  50.25 3 0  51 3 0  51.75 3 0  52.5 3 0  53.25 3 0  54 3 0  54.75 3 0  55.5 3 0  56.25 3 0  57 3 0  57.75 3 0  58.5 3 0  59.25 3 0  60 3 0  0 3.5 0  0.75 3.5 0  1.5 3.5 0  2.25 3.5 0  3 3.5 0  3.75 3.5 0  4.5 3.5 0  5.25 3.5 0  6 3.5 0  6.75 3.5 0  7.5 3.5 0  8.25 3.5 0  9 3.5 0  9.75 3.5 0  10.5 3.5 0  11.25 3.5 0  12 3.5 0  12.75 3.5 0  13.5 3.5 0  14.25 3.5 0  15 3.5 0  15.75 3.5 0  16.5 3.5 0  17.25 3.5 0  18 3.5 0  18.75 3.5 0  19.5 3.5 0  20.25 3.5 0  21 3.5 0  21.75 3.5 0  22.5 3.5 0  23.25 3.5 0  24 3.5 0  24.75 3.5 0  25.5 3.5 0  26.25 3.5 0  27 3.5 0  27.75 3.5 0  28.5 3.5 0  29.25 3.5 0  30 3.5 0  30.75 3.5 0  31.5 3.5 0  32.25 3.5 0  33 3.5 0  33.75 3.5 0  34.5 3.5 0  35.25 3.5 0  36 3.5 0  36.75 3.5 0  37.5 3.5 0  38.25 3.5 0  39 3.5 0  39.75 3.5 0  40.5 3.5 0  41.25 3.5 0  42 3.5 0  42.75 3.5 0  43.5 3.5 0  44.25 3.5 0  45 3.5 0  45.75 3.5 0  46.5 3.5 0  47.25 3.5 0  48 3.5 0  48.75 3.5 0  49.5 3.5 0  50.25 3.5 0  51 3.5 0  51.75 3.5 0  52.5 3.5 0  53.25 3.5 0  54 3.5 0  54.75 3.5 0  55.5 3.5 0  56.25 3.5 0  57 3.5 0  57.75 3.5 0  58.5 3.5 0  59.25 3.5 0  60 3.5 0  0 4 0  0.75 4 0  1.5 4 0  2.25 4 0  3 4 0  3.75 4 0  4.5 4 0  5.25 4 0  6 4 0  6.75 4 0  7.5 4 0  8.25 4 0  9 4 0  9.75 4 0  10.5 4 0  11.25 4 0  12 4 0  12.75 4 0  13.5 4 0  14.25 4 0  15 4 0  15.75 4 0  16.5 4 0  17.25 4 0  18 4 0  18.75 4 0  19.5 4 0  20.25 4 0  21 4 0  21.75 4 0  22.5 4 0  23.25 4 0  24 4 0  24.75 4 0  25.5 4 0  26.25 4 0  27 4 0  27.75 4 0  28.5 4 0  29.25 4 0  30 4 0  30.75 4 0  31.5 4 0  32.25 4 0  33 4 0  33.75 4 0  34.5 4 0  35.25 4 0  36 4 0  36.75 4 0  37.5 4 0  38.25 4 0  39 4 0  39.75 4 0  40.5 4 0  41.25 4 0  42 4 0  42.75 4 0  43.5 4 0  44.25 4 0  45 4 0  45.75 4 0  46.5 4 0  47.25 4 0  48 4 0  48.75 4 0  49.5 4 0  50.25 4 0  51 4 0  51.75 4 0  52.5 4 0  53.25 4 0  54 4 0  54.75 4 0  55.5 4 0  56.25 4 0  57 4 0  57.75 4 0  58.5 4 0  59.25 4 0  60 4 0  0.375 0.25 0  1.125 0.25 0  1.875 0.25 0  2.625 0.25 0  3.375 0.25 0  4.125 0.25 0  4.875 0.25 0  5.625 0.25 0  6.375 0.25 0  7.125 0.25 0  7.875 0.25 0  8.625 0.25 0  9.375 0.25 0  10.125 0.25 0  10.875 0.25 0  11.625 0.25 0  12.375 0.25 0  13.125 0.25 0  13.875 0.25 0  14.625 0.25 0  15.375 0.25 0  16.125 0.25 0  16.875 0.25 0  17.625 0.25 0  18.375 0.25 0  19.125 0.25 0  19.875 0.25 0  20.625 0.25 0  21.375 0.25 0  22.125 0.25 0  22.875 0.25 0  23.625 0.25 0  24.375 0.25 0  25.125 0.25 0  25.875 0.25 0  26.625 0.25 0  27.375 0.25 0  28.125 0.25 0  28.875 0.25 0  29.625 0.25 0  30.375 0.25 0  31.125 0.25 0  31.875 0.25 0  32.625 0.25 0  33.375 0.25 0  34.125 0.25 0  34.875 0.25 0  35.625 0.25 0  36.375 0.25 0  37.125 0.25 0  37.875 0.25 0  38.625 0.25 0  39.375 0.25 0  40.125 0.25 0  40.875 0.25 0  41.625 0.25 0  42.375 0.25 0  43.125 0.25 0  43.875 0.25 0  44.625 0.25 0  45.375 0.25 0  46.125 0.25 0  46.875 0.25 0  47.625 0.25 0  48.375 0.25 0  49.125 0.25 0  49.875 0.25 0  50.625 0.25 0  51.375 0.25 0  52.125 0.25 0  52.875 0.25 0  53.625 0.25 0  54.375 0.25 0  55.125 0.25 0  55.875 0.25 0  56.625 0.25 0  57.375 0.25 0  58.125 0.25 0  58.875 0.25 0  59.625 0.25 0  0.375 0.75 0  1.125 0.75 0  1.875 0.75 0  2.625 0.75 0  3.375 0.75 0  4.125 0.75 0  4.875 0.75 0  5.625 0.75 0  6.375 0.75 0  7.125 0.75 0  7.875 0.75 0  8.625 0.75 0  9.375 0.75 0  10.125 0.75 0  10.875 0.75 0  11.625 0.75 0  12.375 0.75 0  13.125 0.75 0  13.875 0.75 0  14.625 0.75 0  15.375 0.75 0  16.125 0.75 0  16.875 0.75 0  17.625 0.75 0  18.375 0.75 0  19.125 0.75 0  19.875 0.75 0  20.625 0.75 0  21.375 0.75 0  22.125 0.75 0  22.875 0.75 0  23.625 0.75 0  24.375 0.75 0  25.125 0.75 0  25.875 0.75 0  26.625 0.75 0  27.375 0.75 0  28.125 0.75 0  28.875 0.75 0  29.625 0.75 0  30.375 0.75 0  31.125 0.75 0  31.875 0.75 0  32.625 0.75 0  33.375 0.75 0  34.125 0.75 0  34.875 0.75 0  35.625 0.75 0  36.375 0.75 0  37.125 0.75 0  37.875 0.75 0  38.625 0.75 0  39.375 0.75 0  40.125 0.75 0  40
[...]
<PointData  Vectors="f_8-0"> 
<DataArray  type="Float64"  Name="f_8-0"  NumberOfComponents="3" format="ascii">0.0000000000000000e+00 0.0000000000000000e+00 0.0000000000000000e+00  0.0000000000000000e+00 0.0000000000000000e+00 0.0000000000000000e+00  0.0000000000000000e+00 0.0000000000000000e+00 0.0000000000000000e+00  0.0000000000000000e+00 0.0000000000000000e+00 0.0000000000000000e+00  0.0000000000000000e+00 0.0000000000000000e+00 0.0000000000000000e+00  0.0000000000000000e+00 0.0000000000000000e+00 0.0000000000000000e+00  0.0000000000000000e+00 0.0000000000000000e+00 0.0000000000000000e+00  0.0000000000000000e+00 0.0000000000000000e+00 0.0000000000000000e+00  0.0000000000000000e+00 0.0000000000000000e+00 0.0000000000000000e+00  0.0000000000000000e+00 0.0000000000000000e+00 0.0000000000000000e+00  0.0000000000000000e+00 0.0000000000000000e+00 0.0000000000000000e+00  0.0000000000000000e+00 0.0000000000000000e+00 0.0000000000000000e+00  0.0000000000000000e+00 0.0000000000000000e+00 0.0000000000000000e+00  0.0000000000000000e+00 0.0000000000000000e+00 0.0000000000000000e+00  0.0000000000000000e+00 0.0000000000000000e+00 0.0000000000000000e+00  0.0000000000000000e+00 0.0000000000000000e+00 0.0000000000000000e+00  0.0000000000000000e+00 0.0000000000000000e+00 0.0000000000000000e+00  0.0000000000000000e+00 0.0000000000000000e+00 0.0000000000000000e+00  0.0000000000000000e+00 0.0000000000000000e+00 0.0000000000000000e+00  0.0000000000000000e+00 0.0000000000000000e+00 0.0000000000000000e+00  0.0000000000000000e+00 0.0000000000000000e+00 0.0000000000000000e+00  0.0000000000000000e+00 0.0000000000000000e+00 0.0000000000000000e+00  0.0000000000000000e+00 0.0000000000000000e+00 0.0000000000000000e+00  0.0000000000000000e+00 0.0000000000000000e+00 0.0000000000000000e+00  0.0000000000000000e+00 0.0000000000000000e+00 0.0000000000000000e+00  0.0000000000000000e+00 0.0000000000000000e+00 0.0000000000000000e+00  0.0000000000000000e+00 0.0000000000000000e+00 0.0000000000000000e+00  0.0000000000000000e+00 0.0000000000000000e+00 0.0000000000000000e+00  0.0000000000000000e+00 0.0000000000000000e+00 0.0000000000000000e+00  0.0000000000000000e+00 0.0000000000000000e+00 0.0000000000000000e+00  0.0000000000000000e+00 0.0000000000000000e+00 0.0000000000000000e+00  0.0000000000000000e+00 0.0000000000000000e+00 0.0000000000000000e+00  0.0000000000000000e+00 0.0000000000000000e+00 0.0000000000000000e+00  0.0000000000000000e+00 0.0000000000000000e+00 0.0000000000000000e+00  0.0000000000000000e+00 0.0000000000000000e+00 0.0000000000000000e+00  0.0000000000000000e+00 0.0000000000000000e+00 0.0000000000000000e+00  0.0000000000000000e+00 0.0000000000000000e+00 0.0000000000000000e+00  0.0000000000000000e+00 0.0000000000000000e+00 0.0000000000000000e+00  0.0000000000000000e+00 0.0000000000000000e+00 0.0000000000000000e+00  0.0000000000000000e+00 0.0000000000000000e+00 0.0000000000000000e+00  0.0000000000000000e+00 0.0000000000000000e+00 0.0000000000000000e+00  0.0000000000000000e+00 0.0000000000000000e+00 0.0000000000000000e+00  0.0000000000000000e+00 0.0000000000000000e+00 0.0000000000000000e+00  0.0000000000000000e+00 0.0000000000000000e+00 0.0000000000000000e+00  0.0000000000000000e+00 0.0000000000000000e+00 0.0000000000000000e+00  0.0000000000000000e+00 0.0000000000000000e+00 0.0000000000000000e+00  0.0000000000000000e+00 0.0000000000000000e+00 0.0000000000000000e+00  0.0000000000000000e+00 0.0000000000000000e+00 0.0000000000000000e+00  0.0000000000000000e+00 0.0000000000000000e+00 0.0000000000000000e+00  0.0000000000000000e+00 0.0000000000000000e+00 0.0000000000000000e+00  0.0000000000000000e+00 0.0000000000000000e+00 0.0000000000000000e+00  0.0000000000000000e+00 0.0000000000000000e+00 0.0000000000000000e+00  0.0000000000000000e+00 0.0000000000000000e+00 0.0000000000000000e+00  0.0000000000000000e+00 0.0000000000000000e+00 0.0000000000000000e+00  0.0000000000000000e+00 0.0000000000000000e+00 0.0000000000000000e+00  0.0000000000000000e+00 0.0000000000000000e+00 0.0000000000000000e+00  0.0000000000000000e+00 0.0000000000000000e+00 0.0000000000000000e+00  0.0000000000000000e+00 0.0000000000000000e+00 0.0000000000000000e+00  0.0000000000000000e+00 0.0000000000000000e+00 0.0000000000000000e+00  0.0000000000000000e+00 0.0000000000000000e+00 0.0000000000000000e+00  0.0000000000000000e+00 0.0000000000000000e+00 0.0000000000000000e+00  0.0000000000000000e+00 0.0000000000000000e+00 0.0000000000000000e+00  0.0000000000000000e+00 0.0000000000000000e+00 0.0000000000000000e+00  0.0000000000000000e+00 0.0000000000000000e+00 0.0000000000000000e+00  0.0000000000000000e+00 0.0000000000000000e+00 0.0000000000000000e+00  0.0000000000000000e+00 0.0000000000000000e+00 0.0000000000000000e+00  0.0000000000000000e+00 0.0000000000000000e+00 0.0000000000000000e+00  0.0000000000000000e+00 0.0000000000000000e+00 0.0000000000000000e+00  0.0000000000000000e+00 0.0000000000000000e+00 0.0000000000000000e+00  0.0000000000000000e+00 0.0000000000000000e+00 0.0000000000000000e+00  0.0000000000000000e+00 0.0000000000000000e+00 0.0000000000000000e+00  0.0000000000000000e+00 0.0000000000000000e+00 0.0000000000000000e+00  0.0000000000000000e+00 0.0000000000000000e+00 0.0000000000000000e+00  0.0000000000000000e+00 0.0000000000000000e+00 0.0000000000000000e+00  0.0000000000000000e+00 0.0000000000000000e+00 0.0000000000000000e+00  0.0000000000000000e+00 0.0000000000000000e+00 0.0000000000000000e+00  0.0000000000000000e+00 0.0000000000000000e+00 0.0000000000000000e+00  0.0000000000000000e+00 0.0000000000000000e+00 0.0000000000000000e+00  0.0000000000000000e+00 0.0000000000000000e+00 0.0000000000000000e+00  0.0000000000000000e+00 0.0000000000000000e+00 0.0000000000000000e+00  0.0000000000000000e+00 0.0000000000000000e+00 0.0000000000000000e+00  2.2483894703620173e+01 0.0000000000000000e+00 0.0000000000000000e+00  2.2465429045470685e+01 7.9064450165731368e-02 0.0000000000000000e+00  2.2462766997583778e+01 2.5246184944849221e-02 0.0000000000000000e+00  2.2444514689000542e+01 5.0753206672152079e-03 0.0000000000000000e+00  2.2442060069165024e+01 4.9020797924302778e-03 0.0000000000000000e+00  2.2444082634075610e+01 4.7611825400160927e-03 0.0000000000000000e+00  2.2443042983475852e+01 4.8834997738866574e-03 0.0000000000000000e+00  2.2443932786422831e+01 4.9556919198409074e-03 0.0000000000000000e+00  2.2443610293259130e+01 4.9464426962679319e-03 0.0000000000000000e+00  2.2443829315949767e+01 4.9668852783517452e-03 0.0000000000000000e+00  2.2443773872051906e+01 4.9661438189930567e-03 0.0000000000000000e+00  2.2443816321590212e+01 4.9701838978220775e-03 0.0000000000000000e+00  2.2443811458481871e+01 4.9708558896562616e-03 0.0000000000000000e+00  2.2443819392093573e+01 4.9717209906153742e-03 0.0000000000000000e+00  2.2443820041417798e+01 4.9720438759786054e-03 0.0000000000000000e+00  2.2443821768342069e+01 4.9722624701237905e-03 0.0000000000000000e+00  2.2443822334975913e+01 4.9723689849023762e-03 0.0000000000000000e+00  2.2443822858884591e+01 4.9724296305859710e-03 0.0000000000000000e+00  2.2443823165565291e+01 4.9724616025372910e-03 0.0000000000000000e+00  2.2443823417809242e+01 4.9724790784253931e-03 0.0000000000000000e+00  2.2443823620345640e+01 4.9724884849289414e-03 0.0000000000000000e+00  2.2443823802393855e+01 4.9724935916476013e-03 0.0000000000000000e+00  2.2443823971331788e+01 4.9724963554920020e-03 0.0000000000000000e+00  2.2443824133796305e+01 4.9724978486865180e-03 0.0000000000000000e+00  2.2443824292574163e+01 4.9724986465615019e-03 0.0000000000000000e+00  2.2443824449426657e+01 4.9724990706531223e-03 0.0000000000000000e+00  2.2443824605237726e+01 4.9724992879477221e-03 0.0000000000000000e+00  2.2443824760512449e+01 4.9724993990395878e-03 0.0000000000000000e+00  2.2443824915506195e+01 4.9724994489927761e-03 0.0000000000000000e+00  2.2443825070363904e+01 4.9724994685501449e-03 0.0000000000000000e+00  2.2443825225149123e+01 4.9724994749221606e-03 0.0000000000000000e+00  2.2443825379904652e+01 4.9724994742719446e-03 0.0000000000000000e+00  2.2443825534635685e+01 4.9724994719407417e-03 0.0000000000000000e+00  2.2443825689344589e+01 4.9724994752041269e-03 0.0000000000000000e+00  2.2443825844030986e+01 4.9724994706144485e-03 0.0000000000000000e+00  2.2443825998693022e+01 4.9724994737321880e-03 0.0000000000000000e+00  2.2443826153319289e+01 4.9724994828169757e-03 0.0000000000000000e+00  2.2443826307897449e+01 4.9724994897924462e-03 0.0000000000000000e+00  2.2443826462424955e+01 4.9724995038373373e-03 0.0000000000000000e+00  2.2443826616895208e+01 4.9724995136224441e-03 0.0000000000000000e+00  2.2443826771300291e+01 4.9724995291491386e-03 0.0000000000000000e+00  2.2443826925643751e+01 4.9724995491009323e-03 0.0000000000000000e+00  2.2443827079899798e+01 4.9724995657960550e-03 0.0000000000000000e+00  2.2443827234086669e+01 4.9724995826714094e-03 0.0000000000000000e+00  2.2443827388177287e+01 4.9724996118614695e-03 0.0000000000000000e+00  2.2443827542183268e+01 4.9724996217619596e-03 0.0000000000000000e+00  2.2443827696080344e+01 4.9724996621887587e-03 0.0000000000000000e+00  2.2443827849870445e+01 4.9724996614792308e-03 0.0000000000000000e+00  2.2443828003518313e+01 4.9724997272114118e-03 0.0000000000000000e+00  2.2443828157025838e+01 4.9724996931067153e-03 0.0000000000000000e+00  2.2443828310350639e+01 4.9724997864728608e-03 0.0000000000000000e+00  2.2443828463508105e+01 4.9724996358045705e-03 0.0000000000000000e+00  2.2443828616588121e+01 4.9724996460086416e-03 0.0000000000000000e+00  2.2443828769748869e+01 4.9724990165817880e-03 0.0000000000000000e+00  2.2443828923876072e+01 4.9724981884069668e-03 0.0000000000000000e+00  2.2443829080349492e+01 4.9724952391010258e-03 0.0000000000000000e+00  2.2443829244130978e+01 4.9724893447039035e-03 0.0000000000000000e+00  2.2443829423995453e+01 4.9724746182032552e-03 0.0000000000000000e+00  2.2443829644773270e+01 4.9724420478185084e-03 0.0000000000000000e+00  2.2443829953689317e+01 4.9723676046453712e-03 0.0000000000000000e+00  2.2443830470438719e+01 4.9721950865353904e-03 0.0000000000000000e+00  2.2443831456978728e+01 4.9717777106091671e-03 0.0000000000000000e+00  2.2443833640983016e+01 4.9706923365284272e-03 0.0000000000000000e+00  2.2443839019625120e+01 4.9677833525752554e-03 0.0000000000000000e+00  2.2443853380029061e+01 4.9600335488360721e-03 0.0000000000000000e+00  2.2443891968562980e+01 4.9407124836681705e-03 0.0000000000000000e+00  2.2443991177702291e+01 4.8970343574411728e-03 0.0000000000000000e+00  2.2444224705985913e+01 4.8110889552685897e-03 0.0000000000000000e+00  2.2444714427144760e+01 4.6698544123699604e-03 0.0000000000000000e+00  2.2445600949029608e+01 4.4922142383282838e-03 0.0000000000000000e+00  2.2446937515945642e+01 4.3524793227009096e-03 0.0000000000000000e+00  2.2448543950610560e+01 4.3496826755209496e-03 0.0000000000000000e+00  2.2450036313427336e+01 4.5079969162740456e-03 0.0000000000000000e+00  2.2451072896673907e+01 4.7896719354611752e-03 0.0000000000000000e+00  2.2451374909855765e+01 5.2370575445216620e-03 0.0000000000000000e+00  2.2450458669759122e+01 5.9539024447341068e-03 0.0000000000000000e+00  2.2447673827269877e+01 6.9424808964092342e-03 0.0000000000000000e+00  2.2442188854904501e+01 8.0958416416834281e-03 0.0000000000000000e+00  2.2432544167960945e+01 8.6634212919114630e-03 0.0000000000000000e+00  2.2412034460028725e+01 5.2857472171920919e-03 0.0000000000000000e+00  2.2387725806918688e+01 0.0000000000000000e+00 0.0000000000000000e+00  2.1187155102402443e+01 0.0000000000000000e+00 0.0000000000000000e+00  2.1120322953049584e+01 -1.1700106267327445e-02 0.0000000000000000e+00  2.1173494888128317e+01 1.3196993494454162e-02 0.0000000000000000e+00  2.1177023796316700e+01 1.0466719463109993e-03 0.0000000000000000e+00  2.1178962745200273e+01 -7.1252356189677234e-04 0.0000000000000000e+00  2.1177818288264881e+01 -1.8805690584586959e-03 0.0000000000000000e+00  2.1178466851681261e+01 -1.0978540217710313e-03 0.0000000000000000e+00  2.1178205656481907e+01 -1.3586790277124953e-03 0.0000000000000000e+00  2.1178403042547593e+01 -1.1689708208142027e-03 0.0000000000000000e+00  2.1178350546293160e+01 -1.2075308731430729e-03 0.0000000000000000e+00  2.1178395181331688e+01 -1.1721342608943799e-03 0.0000000000000000e+00  2.1178389094165798e+01 -1.1737651003843950e-03 0.0000000000000000e+00  2.1178398269954705e+01 -1.1669940903442650e-03 0.0000000000000000e+00  2.1178398621640316e+01 -1.1658677336346789e-03 0.0000000000000000e+00  2.1178400624642588e+01 -1.1643585064403214e-03 0.0000000000000000e+00  2.1178401135121241e+01 -1.1638197175362136e-03 0.0000000000000000e+00  2.1178401678121205e+01 -1.1634333293580068e-03 0.0000000000000000e+00  2.1178401944738848e+01 -1.1632532359173514e-03 0.0000000000000000e+00  2.1178402161873155e+01 -1.1631467564729605e-03 0.0000000000000000e+00  2.1178402319572431e+01 -1.1630921295603430e-03 0.0000000000000000e+00  2.1178402456498667e+01 -1.1630618361017017e-03 0.0000000000000000e+00  2.1178402578982237e+01 -1.1630458019719475e-03 0.0000000000000000e+00  2.1178402695073117e+01 -1.1630371076386036e-03 0.0000000000000000e+00  2.1178402807490926e+01 -1.1630324946308767e-03 0.0000000000000000e+00  2.1178402918178087e+01 -1.1630300637146813e-03 0.0000000000000000e+00  2.1178403027986548e+01 -1.1630288073729402e-03 0.0000000000000000e+00  2.1178403137408644e+01 -1.1630281910093429e-03 0.0000000000000000e+00  2.1178403246685047e+01 -1.1630278977167595e-03 0.0000000000000000e+00  2.1178403355892812e+01 -1.1630278017194700e-03 0.0000000000000000e+00  2.1178403465115100e+01 -1.1630277781185818e-03 0.0000000000000000e+00  2.1178403574350039e+01 -1.1630277994183771e-03 0.0000000000000000e+00  2.1178403683584129e+01 -1.1630278413112204e-03 0.0000000000000000e+00  2.1178403792830210e+01 -1.1630278871514526e-03 0.0000000000000000e+00  2.1178403902071231e+01 -1.1630279046927617e-03 0.0000000000000000e+00  2.1178404011267343e+01 -1.1630279465695596e-03 0.0000000000000000e+00  2.1178404120420705e+01 -1.1630279745554241e-03 0.0000000000000000e+00  2.1178404229536888e+01 -1.1630279750406425e-03 0.0000000000000000e+00  2.1178404338581188e+01 -1.1630279744970376e-03 0.0000000000000000e+00  2.1178404447546196e+01 -1.1630279629919397e-03 0.0000000000000000e+00  2.1178404556412623e+01 -1.1630279494719911e-03 0.0000000000000000e+00  2.1178404665178871e+01 -1.1630279383933867e-03 0.0000000000000000e+00  2.1178404773867658e+01 -1.1630278865732348e-03 0.0000000000000000e+00  2.1178404882400788e+01 -1.1630278657125878e-03 0.0000000000000000e+00  2.1178404990814212e+01 -1.1630278158351408e-03 0.0000000000000000e+00  2.1178405099086604e+01 -1.1630277568173170e-03 0.0000000000000000e+00  2.1178405207167767e+01 -1.1630276835099696e-03 0.0000000000000000e+00  2.1178405315044159e+01 -1.1630275981324349e-03 0.0000000000000000e+00  2.1178405422647604e+01 -1.1630274920060978e-03 0.0000000000000000e+00  2.1178405529910695e+01 -1.1630273230638162e-03 0.0000000000000000e+00  2.1178405636710654e+01 -1.1630271697759648e-03 0.0000000000000000e+00  2.1178405742872457e+01 -1.1630268281446871e-03 0.0000000000000000e+00  2.1178405848174048e+01 -1.1630267104753458e-03 0.0000000000000000e+00  2.1178405952213456e+01 -1.1630262508121939e-03 0.0000000000000000e+00  2.1178406054804526e+01 -1.1630267738598217e-03 0.0000000000000000e+00  2.1178406155076658e+01 -1.1630272589879349e-03 0.0000000000000000e+00  2.1178406253478709e+01 -1.1630320213007808e-03 0.0000000000000000e+00  2.1178406349046696e+01 -1.1630409178201575e-03 0.0000000000000000e+00  2.1178406446101693e+01 -1.1630692002416510e-03 0.0000000000000000e+00  2.1178406548549859e+01 -1.1631282116347746e-03 0.0000000000000000e+00  2.1178406680808479e+01 -1.1632787669088719e-03 0.0000000000000000e+00  2.1178406881819292e+01 -1.1636114591787768e-03 0.0000000000000000e+00  2.1178407276731800e+01 -1.1644468646700855e-03 0.0000000000000000e+00  2.1178408135635344e+01 -1.1665474978439733e-03 0.0000000000000000e+00  2.1178410308130964e+01 -1.1722843522919385e-03 0.0000000000000000e+00  2.1178416180420506e+01 -1.1876785772630943e-03 0.0000000000000000e+00  2.1178432741391116e+01 -1.2273833869622507e-03 0.0000000000000000e+00  2.1178477745041896e+01 -1.3202738152469039e-03 0.0000000000000000e+00  2.1178591814479404e+01 -1.5128334630285223e-03 0.0000000000000000e+00  2.1178850827093441e+01 -1.8493437423876883e-03 0.0000000000000000e+00  2.1179355641571490e+01 -2.3076942733515782e-03 0.0000000000000000e+00  2.1180142769873481e+01 -2.7033472125254469e-03 0.0000000000000000e+00  2.1181057649347274e+01 -2.7584005277639647e-03 0.0000000000000000e+00  2.1181854200171109e+01 -2.4250275123782264e-03 0.0000000000000000e+00  2.1182504363174164e+01 -1.8768953217767018e-03 0.0000000000000000e+00  2.1183028809942609e+01 -9.9504105848864850e-04 0.0000000000000000e+00  2.1183317608874891e+01 4.2708576032580628e-04 0.0000000000000000e+00  2.1183275738306104e+01 2.5063676389969767e-03 0.0000000000000000e+00  2.1182654218949409e+01 5.3984307777468488e-03 0.0000000000000000e+00  2.1180814953438034e+01 9.4155128158679470e-03 0.0000000000000000e+00  2.1177738442055944e+01 1.4555011451340109e-02 0.0000000000000000e+00  2.1173428083521472e+01 0.0000000000000000e+00 0.0000000000000000e+00  1.8145224401049429e+01 0.0000000000000000e+00 0.0000000000000000e+00  1.8141665391792657e+01 1.3092443408858816e-03 0.0000000000000000e+00  1.8144718394420661e+01 -1.3785805423509928e-03 0.0000000000000000e+00  1.8150722289462163e+01 5.5256583338780709e-04 0.0000000000000000e+00  1.8150364292506136e+01 -1.4674662879492725e-03 0.0000000000000000e+00  1.8150550061640988e+01 -1.2425739260160766e-03 0.0000000000000000e+00  1.8150141868593938e+01 -1.4096951047924465e-03 0.0000000000000000e+00  1.8150121130251364e+01 -1.2430650693077455e-03 0.0000000000000000e+00  1.8150014879805486e+01 -1.2607147837533094e-03 0.0000000000000000e+00  1.8149998787591180e+01 -1.2199665823026272e-03 0.0000000000000000e+00  1.8149971384569362e+01 -1.2184816315605541e-03 0.0000000000000000e+00  1.8149963762244365e+01 -1.2091737681162941e-03 0.0000000000000000e+00  1.8149956450220895e+01 -1.2071703255970062e-03 0.0000000000000000e+00  1.8149953622149116e+01 -1.2048805314285600e-03 0.0000000000000000e+00  1.8149951646124734e+01 -1.2040267376179116e-03 0.0000000000000000e+00  1.8149950764584961e+01 -1.2034186564795696e-03 0.0000000000000000e+00  1.8149950263183545e+01 -1.2031358558047304e-03 0.0000000000000000e+00  1.8149950052005586e+01 -1.2029682975509212e-03 0.0000000000000000e+00  1.8149949972872086e+01 -1.2028836485986209e-03 0.0000000000000000e+00  1.8149949976438123e+01 -1.2028370839082844e-03 0.0000000000000000e+00  1.8149950022728014e+01 -1.2028129605962531e-03 0.0000000000000000e+00  1.8149950094048073e+01 -1.2028001870237166e-03 0.0000000000000000e+00  1.8149950179139065e+01 -1.2027936060034947e-03 0.0000000000000000e+00  1.8149950272226327e+01 -1.2027902605951885e-03 0.0000000000000000e+00  1.8149950369889289e+01 -1.2027886203948839e-03 0.0000000000000000e+00  1.8149950470236870e+01 -1.2027878664693404e-03 0.0000000000000000e+00  1.8149950572167242e+01 -1.2027875533943790e-03 0.0000000000000000e+00  1.8149950675038767e+01 -1.2027874606571974e-03 0.0000000000000000e+00  1.8149950778497736e+01 -1.2027874668330476e-03 0.0000000000000000e+00  1.8149950882294188e+01 -1.2027875052512994e-03 0.0000000000000000e+00  1.8149950986295082e+01 -1.2027875471076648e-03 0.0000000000000000e+00  1.8149951090418092e+01 -1.2027875803843041e-03 0.0000000000000000e+00  1.8149951194601154e+01 -1.2027875960967107e-03 0.0000000000000000e+00  1.8149951298805853e+01 -1.2027875795571023e-03 0.0000000000000000e+00  1.8149951403014224e+01 -1.2027875566391897e-03 0.0000000000000000e+00  1.8149951507194746e+01 -1.2027875129294778e-03 0.0000000000000000e+00  1.8149951611329620e+01 -1.2027874417999708e-03 0.0000000000000000e+00  1.8149951715421793e+01 -1.2027873541138137e-03 0.0000000000000000e+00  1.8149951819450408e+01 -1.2027872521077564e-03 0.0000000000000000e+00  1.8149951923405503e+01 -1.2027871418691016