<?xml version="1.0"?>
<VTKFile type="UnstructuredGrid"  version="0.1"  >
<UnstructuredGrid>
<Piece  NumberOfPoints="1369" NumberOfCells="2560">
<Points>
<DataArray  type="Float64"  NumberOfComponents="3"  format="ascii">0 0 0  0.75 0 0  1.5 0 0  2.25 0 0  3 0 0  3.75 0 0  4.5 0 0  5.25 0 0  6 0 0  6.75 0 0  7.5 0 0  8.25 0 0  9 0 0  9.75 0 0  10.5 0 0  11.25 0 0  12 0 0  12.75 0 0  13.5 0 0  14.25 0 0  15 0 0  15.75 0 0  16.5 0 0  17.25 0 0  18 0 0  18.75 0 0  19.5 0 0  20.25 0 0  21 0 0  21.75 0 0  22.5 0 0  23.25 0 0  24 0 0  24.75 0 0  25.5 0 0  26.25 0 0  27 0 0  27.75 0 0  28.5 0 0  29.25 0 0  30 0 0  30.75 0 0  31.5 0 0  32.25 0 0  33 0 0  33.75 0 0  34.5 0 0  35.25 0 0  36 0 0  36.75 0 0  37.5 0 0  38.25 0 0  39 0 0  39.75 0 0  40.5 0 0  41.25 0 0  42 0 0  42.75 0 0  43.5 0 0  44.25 0 0  45 0 0  45.75 0 0  46.5 0 0  47.25 0 0  48 0 0  48.75 0 0  49.5 0 0  50.25 0 0  51 0 0  51.75 0 0  52.5 0 0  53.25 0 0  54 0 0  54.75 0 0  55.5 0 0  56.25 0 0  57 0 0  57.75 0 0  58.5 0 0  59.25 0 0  60 0 0  0 0.5 0  0.75 0.5 0  1.5 0.5 0  2.25 0.5 0  3 0.5 0  3.75 0.5 0  4.5 0.5 0  5.25 0.5 0  6 0.5 0  6.75 0.5 0  7.5 0.5 0  8.25 0.5 0  9 0.5 0  9.75 0.5 0  10.5 0.5 0  11.25 0.5 0  12 0.5 0  12.75 0.5 0  13.5 0.5 0  14.25 0.5 0  15 0.5 0  15.75 0.5 0  16.5 0.5 0  17.25 0.5 0  18 0.5 0  18.75 0.5 0  19.5 0.5 0  20.25 0.5 0  21 0.5 0  21.75 0.5 0  22.5 0.5 0  23.25 0.5 0  24 0.5 0  24.75 0.5 0  25.5 0.5 0  26.25 0.5 0  27 0.5 0  27.75 0.5 0  28.5 0.5 0  29.25 0.5 0  30 0.5 0  30.75 0.5 0  31.5 0.5 0  32.25 0.5 0  33 0.5 0  33.75 0.5 0  34.5 0.5 0  35.25 0.5 0  36 0.5 0  36.75 0.5 0  37.5 0.5 0  38.25 0.5 0  39 0.5 0  39.75 0.5 0  40.5 0.5 0  41.25 0.5 0  42 0.5 0  42.75 0.5 0  43.5 0.5 0  44.25 0.5 0  45 0.5 0  45.75 0.5 0  46.5 0.5 0  47.25 0.5 0  48 0.5 0  48.75 0.5 0  49.5 0.5 0  50.25 0.5 0  51 0.5 0  51.75 0.5 0  52.5 0.5 0  53.25 0.5 0  54 0.5 0  54.75 0.5 0  55.5 0.5 0  56.25 0.5 0  57 0.5 0  57.75 0.5 0  58.5 0.5 0  59.25 0.5 0  60 0.5 0  0 1 0  0.75 1 0  1.5 1 0  2.25 1 0  3 1 0  3.75 1 0  4.5 1 0  5.25 1 0  6 1 0  6.75 1 0  7.5 1 0  8.25 1 0  9 1 0  9.75 1 0  10.5 1 0  11.25 1 0  12 1 0  12.75 1 0  13.5 1 0  14.25 1 0  15 1 0  15.75 1 0  16.5 1 0  17.25 1 0  18 1 0  18.75 1 0  19.5 1 0  20.25 1 0  21 1 0  21.75 1 0  22.5 1 0  23.25 1 0  24 1 0  24.75 1 0  25.5 1 0  26.25 1 0  27 1 0  27.75 1 0  28.5 1 0  29.25 1 0  30 1 0  30.75 1 0  31.5 1 0  32.25 1 0  33 1 0  33.75 1 0  34.5 1 0  35.25 1 0  36 1 0  36.75 1 0  37.5 1 0  38.25 1 0  39 1 0  39.75 1 0  40.5 1 0  41.25 1 0  42 1 0  42.75 1 0  43.5 1 0  44.25 1 0  45 1 0  45.75 1 0  46.5 1 0  47.25 1 0  48 1 0  48.75 1 0  49.5 1 0  50.25 1 0  51 1 0  51.75 1 0  52.5 1 0  53.25 1 0  54 1 0  54.75 1 0  55.5 1 0  56.25 1 0  57 1 0  57.75 1 0  58.5 1 0  59.25 1 0  60 1 0  0 1.5 0  0.75 1.5 0  1.5 1.5 0  2.25 1.5 0  3 1.5 0  3.75 1.5 0  4.5 1.5 0  5.25 1.5 0  6 1.5 0  6.75 1.5 0  7.5 1.5 0  8.25 1.5 0  9 1.5 0  9.75 1.5 0  10.5 1.5 0  11.25 1.5 0  12 1.5 0  12.75 1.5 0  13.5 1.5 0  14.25 1.5 0  15 1.5 0  15.75 1.5 0  16.5 1.5 0  17.25 1.5 0  18 1.5 0  18.75 1.5 0  19.5 1.5 0  20.25 1.5 0  21 1.5 0  21.75 1.5 0  22.5 1.5 0  23.25 1.5 0  24 1.5 0  24.75 1.5 0  25.5 1.5 0  26.25 1.5 0  27 1.5 0  27.75 1.5 0  28.5 1.5 0  29.25 1.5 0  30 1.5 0  30.75 1.5 0  31.5 1.5 0  32.25 1.5 0  33 1.5 0  33.75 1.5 0  34.5 1.5 0  35.25 1.5 0  36 1.5 0  36.75 1.5 0  37.5 1.5 0  38.25 1.5 0  39 1.5 0  39.75 1.5 0  40.5 1.5 0  41.25 1.5 0  42 1.5 0  42.75 1.5 0  43.5 1.5 0  44.25 1.5 0  45 1.5 0  45.75 1.5 0  46.5 1.5 0  47.25 1.5 0  48 1.5 0  48.75 1.5 0  49.5 1.5 0  50.25 1.5 0  51 1.5 0  51.75 1.5 0  52.5 1.5 0  53.25 1.5 0  54 1.5 0  54.75 1.5 0  55.5 1.5 0  56.25 1.5 0  57 1.5 0  57.75 1.5 0  58.5 1.5 0  59.25 1.5 0  60 1.5 0  0 2 0  0.75 2 0  1.5 2 0  2.25 2 0  3 2 0  3.75 2 0  4.5 2 0  5.25 2 0  6 2 0  6.75 2 0  7.5 2 0  8.25 2 0  9 2 0  9.75 2 0  10.5 2 0  11.25 2 0  12 2 0  12.75 2 0  13.5 2 0  14.25 2 0  15 2 0  15.75 2 0  16.5 2 0  17.25 2 0  18 2 0  18.75 2 0  19.5 2 0  20.25 2 0  21 2 0  21.75 2 0  22.5 2 0  23.25 2 0  24 2 0  24.75 2 0  25.5 2 0  26.25 2 0  27 2 0  27.75 2 0  28.5 2 0  29.25 2 0  30 2 0  30.75 2 0  31.5 2 0  32.25 2 0  33 2 0  33.75 2 0  34.5 2 0  35.25 2 0  36 2 0  36.75 2 0  37.5 2 0  38.25 2 0  39 2 0  39.75 2 0  40.5 2 0  41.25 2 0  42 2 0  42.75 2 0  43.5 2 0  44.25 2 0  45 2 0  45.75 2 0  46.5 2 0  47.25 2 0  48 2 0  48.75 2 0  49.5 2 0  50.25 2 0  51 2 0  51.75 2 0  52.5 2 0  53.25 2 0  54 2 0  54.75 2 0  55.5 2 0  56.25 2 0  57 2 0  57.75 2 0  58.5 2 0  59.25 2 0  60 2 0  0 2.5 0  0.75 2.5 0  1.5 2.5 0  2.25 2.5 0  3 2.5 0  3.75 2.5 0  4.5 2.5 0  5.25 2.5 0  6 2.5 0  6.75 2.5 0  7.5 2.5 0  8.25 2.5 0  9 2.5 0  9.75 2.5 0  10.5 2.5 0  11.25 2.5 0  12 2.5 0  12.75 2.5 0  13.5 2.5 0  14.25 2.5 0  15 2.5 0  15.75 2.5 0  16.5 2.5 0  17.25 2.5 0  18 2.5 0  18.75 2.5 0  19.5 2.5 0  20.25 2.5 0  21 2.5 0  21.75 2.5 0  22.5 2.5 0  23.25 2.5 0  24 2.5 0  24.75 2.5 0  25.5 2.5 0  26.25 2.5 0  27 2.5 0  27.75 2.5 0  28.5 2.5 0  29.25 2.5 0  30 2.5 0  30.75 2.5 0  31.5 2.5 0  32.25 2.5 0  33 2.5 0  33.75 2.5 0  34.5 2.5 0  35.25 2.5 0  36 2.5 0  36.75 2.5 0  37.5 2.5 0  38.25 2.5 0  39 2.5 0  39.75 2.5 0  40.5 2.5 0  41.25 2.5 0  42 2.5 0  42.75 2.5 0  43.5 2.5 0  44.25 2.5 0  45 2.5 0  45.75 2.5 0  46.5 2.5 0  47.25 2.5 0  48 2.5 0  48.75 2.5 0  49.5 2.5 0  50.25 2.5 0  51 2.5 0  51.75 2.5 0  52.5 2.5 0  53.25 2.5 0  54 2.5 0  54.75 2.5 0  55.5 2.5 0  56.25 2.5 0  57 2.5 0  57.75 2.5 0  58.5 2.5 0  59.25 2.5 0  60 2.5 0  0 3 0  0.75 3 0  1.5 3 0  2.25 3 0  3 3 0  3.75 3 0  4.5 3 0  5.25 3 0  6 3 0  6.75 3 0  7.5 3 0  8.25 3 0  9 3 0  9.75 3 0  10.5 3 0  11.25 3 0  12 3 0  12.75 3 0  13.5 3 0  14.25 3 0  15 3 0  15.75 3 0  16.5 3 0  17.25 3 0  18 3 0  18.75 3 0  19.5 3 0  20.25 3 0  21 3 0  21.75 3 0  22.5 3 0  23.25 3 0  24 3 0  24.75 3 0  25.5 3 0  26.25 3 0  27 3 0  27.75 3 0  28.5 3 0  29.25 3 0  30 3 0  30.75 3 0  31.5 3 0  32.25 3 0  33 3 0  33.75 3 0  34.5 3 0  35.25 3 0  36 3 0  36.75 3 0  37.5 3 0  38.25 3 0  39 3 0  39.75 3 0  40.5 3 0  41.25 3 0  42 3 0  42.75 3 0  43.5 3 0  44.25 3 0  45 3 0  45.75 3 0  46.5 3 0  47.25 3 0  48 3 0  48.75 3 0  49.5 3 0  50.25 3 0  51 3 0  51.75 3 0  52.5 3 0  53.25 3 0  54 3 0  54.75 3 0  55.5 3 0  56.25 3 0  57 3 0  57.75 3 0  58.5 3 0  59.25 3 0  60 3 0  0 3.5 0  0.75 3.5 0  1.5 3.5 0  2.25 3.5 0  3 3.5 0  3.75 3.5 0  4.5 3.5 0  5.25 3.5 0  6 3.5 0  6.75 3.5 0  7.5 3.5 0  8.25 3.5 0  9 3.5 0  9.75 3.5 0  10.5 3.5 0  11.25 3.5 0  12 3.5 0  12.75 3.5 0  13.5 3.5 0  14.25 3.5 0  15 3.5 0  15.75 3.5 0  16.5 3.5 0  17.25 3.5 0  18 3.5 0  18.75 3.5 0  19.5 3.5 0  20.25 3.5 0  21 3.5 0  21.75 3.5 0  22.5 3.5 0  23.25 3.5 0  24 3.5 0  24.75 3.5 0  25.5 3.5 0  26.25 3.5 0  27 3.5 0  27.75 3.5 0  28.5 3.5 0  29.25 3.5 0  30 3.5 0  30.75 3.5 0  31.5 3.5 0  32.25 3.5 0  33 3.5 0  33.75 3.5 0  34.5 3.5 0  35.25 3.5 0  36 3.5 0  36.75 3.5 0  37.5 3.5 0  38.25 3.5 0  39 3.5 0  39.75 3.5 0  40.5 3.5 0  41.25 3.5 0  42 3.5 0  42.75 3.5 0  43.5 3.5 0  44.25 3.5 0  45 3.5 0  45.75 3.5 0  46.5 3.5 0  47.25 3.5 0  48 3.5 0  48.75 3.5 0  49.5 3.5 0  50.25 3.5 0  51 3.5 0  51.75 3.5 0  52.5 3.5 0  53.25 3.5 0  54 3.5 0  54.75 3.5 0  55.5 3.5 0  56.25 3.5 0  57 3.5 0  57.75 3.5 0  58.5 3.5 0  59.25 3.5 0  60 3.5 0  0 4 0  0.75 4 0  1.5 4 0  2.25 4 0  3 4 0  3.75 4 0  4.5 4 0  5.25 4 0  6 4 0  6.75 4 0  7.5 4 0  8.25 4 0  9 4 0  9.75 4 0  10.5 4 0  11.25 4 0  12 4 0  12.75 4 0  13.5 4 0  14.25 4 0  15 4 0  15.75 4 0  16.5 4 0  17.25 4 0  18 4 0  18.75 4 0  19.5 4 0  20.25 4 0  21 4 0  21.75 4 0  22.5 4 0  23.25 4 0  24 4 0  24.75 4 0  25.5 4 0  26.25 4 0  27 4 0  27.75 4 0  28.5 4 0  29.25 4 0  30 4 0  30.75 4 0  31.5 4 0  32.25 4 0  33 4 0  33.75 4 0  34.5 4 0  35.25 4 0  36 4 0  36.75 4 0  37.5 4 0  38.25 4 0  39 4 0  39.75 4 0  40.5 4 0  41.25 4 0  42 4 0  42.75 4 0  43.5 4 0  44.25 4 0  45 4 0  45.75 4 0  46.5 4 0  47.25 4 0  48 4 0  48.75 4 0  49.5 4 0  50.25 4 0  51 4 0  51.75 4 0  52.5 4 0  53.25 4 0  54 4 0  54.75 4 0  55.5 4 0  56.25 4 0  57 4 0  57.75 4 0  58.5 4 0  59.25 4 0  60 4 0  0.375 0.25 0  1.125 0.25 0  1.875 0.25 0  2.625 0.25 0  3.375 0.25 0  4.125 0.25 0  4.875 0.25 0  5.625 0.25 0  6.375 0.25 0  7.125 0.25 0  7.875 0.25 0  8.625 0.25 0  9.375 0.25 0  10.125 0.25 0  10.875 0.25 0  11.625 0.25 0  12.375 0.25 0  13.125 0.25 0  13.875 0.25 0  14.625 0.25 0  15.375 0.25 0  16.125 0.25 0  16.875 0.25 0  17.625 0.25 0  18.375 0.25 0  19.125 0.25 0  19.875 0.25 0  20.625 0.25 0  21.375 0.25 0  22.125 0.25 0  22.875 0.25 0  23.625 0.25 0  24.375 0.25 0  25.125 0.25 0  25.875 0.25 0  26.625 0.25 0  27.375 0.25 0  28.125 0.25 0  28.875 0.25 0  29.625 0.25 0  30.375 0.25 0  31.125 0.25 0  31.875 0.25 0  32.625 0.25 0  33.375 0.25 0  34.125 0.25 0  34.875 0.25 0  35.625 0.25 0  36.375 0.25 0  37.125 0.25 0  37.875 0.25 0  38.625 0.25 0  39.375 0.25 0  40.125 0.25 0  40.875 0.25 0  41.625 0.25 0  42.375 0.25 0  43.125 0.25 0  43.875 0.25 0  44.625 0.25 0  45.375 0.25 0  46.125 0.25 0  46.875 0.25 0  47.625 0.25 0  48.375 0.25 0  49.125 0.25 0  49.875 0.25 0  50.625 0.25 0  51.375 0.25 0  52.125 0.25 0  52.875 0.25 0  53.625 0.25 0  54.375 0.25 0  55.125 0.25 0  55.875 0.25 0  56.625 0.25 0  57.375 0.25 0  58.125 0.25 0  58.875 0.25 0  59.625 0.25 0  0.375 0.75 0  1.125 0.75 0  1.875 0.75 0  2.625 0.75 0  3.375 0.75 0  4.125 0.75 0  4.875 0.75 0  5.625 0.75 0  6.375 0.75 0  7.125 0.75 0  7.875 0.75 0  8.625 0.75 0  9.375 0.75 0  10.125 0.75 0  10.875 0.75 0  11.625 0.75 0  12.375 0.75 0  13.125 0.75 0  13.875 0.75 0  14.625 0.75 0  15.375 0.75 0  16.125 0.75 0  16.875 0.75 0  17.625 0.75 0  18.375 0.75 0  19.125 0.75 0  19.875 0.75 0  20.625 0.75 0  21.375 0.75 0  22.125 0.75 0  22.875 0.75 0  23.625 0.75 0  24.375 0.75 0  25.125 0.75 0  25.875 0.75 0  26.625 0.75 0  27.375 0.75 0  28.125 0.75 0  28.875 0.75 0  29.625 0.75 0  30.375 0.75 0  31.125 0.75 0  31.875 0.75 0  32.625 0.75 0  33.375 0.75 0  34.125 0.75 0  34.875 0.75 0  35.625 0.75 0  36.375 0.75 0  37.125 0.75 0  37.875 0.75 0  38.625 0.75 0  39.375 0.75 0  40.125 0.75 0  40
[...]
<PointData  Vectors="f_8-0"> 
<DataArray  type="Float64"  Name="f_8-0"  NumberOfComponents="3" format="ascii">0.0000000000000000e+00 0.0000000000000000e+00 0.0000000000000000e+00  0.0000000000000000e+00 0.0000000000000000e+00 0.0000000000000000e+00  0.0000000000000000e+00 0.0000000000000000e+00 0.0000000000000000e+00  0.0000000000000000e+00 0.0000000000000000e+00 0.0000000000000000e+00  0.0000000000000000e+00 0.0000000000000000e+00 0.0000000000000000e+00  0.0000000000000000e+00 0.0000000000000000e+00 0.0000000000000000e+00  0.0000000000000000e+00 0.0000000000000000e+00 0.0000000000000000e+00  0.0000000000000000e+00 0.0000000000000000e+00 0.0000000000000000e+00  0.0000000000000000e+00 0.0000000000000000e+00 0.0000000000000000e+00  0.0000000000000000e+00 0.0000000000000000e+00 0.0000000000000000e+00  0.0000000000000000e+00 0.0000000000000000e+00 0.0000000000000000e+00  0.0000000000000000e+00 0.0000000000000000e+00 0.0000000000000000e+00  0.0000000000000000e+00 0.0000000000000000e+00 0.0000000000000000e+00  0.0000000000000000e+00 0.0000000000000000e+00 0.0000000000000000e+00  0.0000000000000000e+00 0.0000000000000000e+00 0.0000000000000000e+00  0.0000000000000000e+00 0.0000000000000000e+00 0.0000000000000000e+00  0.0000000000000000e+00 0.0000000000000000e+00 0.0000000000000000e+00  0.0000000000000000e+00 0.0000000000000000e+00 0.0000000000000000e+00  0.0000000000000000e+00 0.0000000000000000e+00 0.0000000000000000e+00  0.0000000000000000e+00 0.0000000000000000e+00 0.0000000000000000e+00  0.0000000000000000e+00 0.0000000000000000e+00 0.0000000000000000e+00  0.0000000000000000e+00 0.0000000000000000e+00 0.0000000000000000e+00  0.0000000000000000e+00 0.0000000000000000e+00 0.0000000000000000e+00  0.0000000000000000e+00 0.0000000000000000e+00 0.0000000000000000e+00  0.0000000000000000e+00 0.0000000000000000e+00 0.0000000000000000e+00  0.0000000000000000e+00 0.0000000000000000e+00 0.0000000000000000e+00  0.0000000000000000e+00 0.0000000000000000e+00 0.0000000000000000e+00  0.0000000000000000e+00 0.0000000000000000e+00 0.0000000000000000e+00  0.0000000000000000e+00 0.0000000000000000e+00 0.0000000000000000e+00  0.0000000000000000e+00 0.0000000000000000e+00 0.0000000000000000e+00  0.0000000000000000e+00 0.0000000000000000e+00 0.0000000000000000e+00  0.0000000000000000e+00 0.0000000000000000e+00 0.0000000000000000e+00  0.0000000000000000e+00 0.0000000000000000e+00 0.0000000000000000e+00  0.0000000000000000e+00 0.0000000000000000e+00 0.0000000000000000e+00  0.0000000000000000e+00 0.0000000000000000e+00 0.0000000000000000e+00  0.0000000000000000e+00 0.0000000000000000e+00 0.0000000000000000e+00  0.0000000000000000e+00 0.0000000000000000e+00 0.0000000000000000e+00  0.0000000000000000e+00 0.0000000000000000e+00 0.0000000000000000e+00  0.0000000000000000e+00 0.0000000000000000e+00 0.0000000000000000e+00  0.0000000000000000e+00 0.0000000000000000e+00 0.0000000000000000e+00  0.0000000000000000e+00 0.0000000000000000e+00 0.0000000000000000e+00  0.0000000000000000e+00 0.0000000000000000e+00 0.0000000000000000e+00  0.0000000000000000e+00 0.0000000000000000e+00 0.0000000000000000e+00  0.0000000000000000e+00 0.0000000000000000e+00 0.0000000000000000e+00  0.0000000000000000e+00 0.0000000000000000e+00 0.0000000000000000e+00  0.0000000000000000e+00 0.0000000000000000e+00 0.0000000000000000e+00  0.0000000000000000e+00 0.0000000000000000e+00 0.0000000000000000e+00  0.0000000000000000e+00 0.0000000000000000e+00 0.0000000000000000e+00  0.0000000000000000e+00 0.0000000000000000e+00 0.0000000000000000e+00  0.0000000000000000e+00 0.0000000000000000e+00 0.0000000000000000e+00  0.0000000000000000e+00 0.0000000000000000e+00 0.0000000000000000e+00  0.0000000000000000e+00 0.0000000000000000e+00 0.0000000000000000e+00  0.0000000000000000e+00 0.0000000000000000e+00 0.0000000000000000e+00  0.0000000000000000e+00 0.0000000000000000e+00 0.0000000000000000e+00  0.0000000000000000e+00 0.0000000000000000e+00 0.0000000000000000e+00  0.0000000000000000e+00 0.0000000000000000e+00 0.0000000000000000e+00  0.0000000000000000e+00 0.0000000000000000e+00 0.0000000000000000e+00  0.0000000000000000e+00 0.0000000000000000e+00 0.0000000000000000e+00  0.0000000000000000e+00 0.0000000000000000e+00 0.0000000000000000e+00  0.0000000000000000e+00 0.0000000000000000e+00 0.0000000000000000e+00  0.0000000000000000e+00 0.0000000000000000e+00 0.0000000000000000e+00  0.0000000000000000e+00 0.0000000000000000e+00 0.0000000000000000e+00  0.0000000000000000e+00 0.0000000000000000e+00 0.0000000000000000e+00  0.0000000000000000e+00 0.0000000000000000e+00 0.0000000000000000e+00  0.0000000000000000e+00 0.0000000000000000e+00 0.0000000000000000e+00  0.0000000000000000e+00 0.0000000000000000e+00 0.0000000000000000e+00  0.0000000000000000e+00 0.0000000000000000e+00 0.0000000000000000e+00  0.0000000000000000e+00 0.0000000000000000e+00 0.0000000000000000e+00  0.0000000000000000e+00 0.0000000000000000e+00 0.0000000000000000e+00  0.0000000000000000e+00 0.0000000000000000e+00 0.0000000000000000e+00  0.0000000000000000e+00 0.0000000000000000e+00 0.0000000000000000e+00  0.0000000000000000e+00 0.0000000000000000e+00 0.0000000000000000e+00  0.0000000000000000e+00 0.0000000000000000e+00 0.0000000000000000e+00  0.0000000000000000e+00 0.0000000000000000e+00 0.0000000000000000e+00  0.0000000000000000e+00 0.0000000000000000e+00 0.0000000000000000e+00  0.0000000000000000e+00 0.0000000000000000e+00 0.0000000000000000e+00  0.0000000000000000e+00 0.0000000000000000e+00 0.0000000000000000e+00  0.0000000000000000e+00 0.0000000000000000e+00 0.0000000000000000e+00  0.0000000000000000e+00 0.0000000000000000e+00 0.0000000000000000e+00  0.0000000000000000e+00 0.0000000000000000e+00 0.0000000000000000e+00  0.0000000000000000e+00 0.0000000000000000e+00 0.0000000000000000e+00  2.1556301302642460e+01 0.0000000000000000e+00 0.0000000000000000e+00  2.1633472360425348e+01 -8.5253136571114371e-02 0.0000000000000000e+00  2.1608701451536099e+01 -2.8764514871779896e-02 0.0000000000000000e+00  2.1613447644562076e+01 -8.7817310648277656e-03 0.0000000000000000e+00  2.1616287466680667e+01 -1.0359648634599485e-02 0.0000000000000000e+00  2.1619953825026322e+01 -7.9822434519576692e-03 0.0000000000000000e+00  2.1632907149953386e+01 -1.2830061524586024e-02 0.0000000000000000e+00  2.1643955039714342e+01 -1.1269917326541435e-02 0.0000000000000000e+00  2.1658378666976148e+01 -1.3034812789497282e-02 0.0000000000000000e+00  2.1670410116912407e+01 -1.1620736270275829e-02 0.0000000000000000e+00  2.1682309393977587e+01 -1.1134288436906427e-02 0.0000000000000000e+00  2.1691328754138098e+01 -1.0310593319032169e-02 0.0000000000000000e+00  2.1699812835261415e+01 -1.0152413986466997e-02 0.0000000000000000e+00  2.1707736170981111e+01 -9.8093262473036152e-03 0.0000000000000000e+00  2.1714858431351924e+01 -9.2404173921565406e-03 0.0000000000000000e+00  2.1721069797814824e+01 -9.0339425740120216e-03 0.0000000000000000e+00  2.1726679961756364e+01 -8.9881191812866516e-03 0.0000000000000000e+00  2.1732759211490634e+01 -9.3366941220832875e-03 0.0000000000000000e+00  2.1739285655687937e+01 -9.3793031257733573e-03 0.0000000000000000e+00  2.1746084628226171e+01 -9.2401598182520299e-03 0.0000000000000000e+00  2.1751991661233678e+01 -8.5848958441941178e-03 0.0000000000000000e+00  2.1756355920055054e+01 -7.8113531661425234e-03 0.0000000000000000e+00  2.1758501299493155e+01 -6.8952888568071325e-03 0.0000000000000000e+00  2.1758579486699961e+01 -6.1833948950501356e-03 0.0000000000000000e+00  2.1756830893723802e+01 -5.6172476637415562e-03 0.0000000000000000e+00  2.1753915817410370e+01 -5.3340385956454784e-03 0.0000000000000000e+00  2.1750313041356396e+01 -5.2025317257223501e-03 0.0000000000000000e+00  2.1746555543096399e+01 -5.2463776663717208e-03 0.0000000000000000e+00  2.1742911285405444e+01 -5.3482474249339270e-03 0.0000000000000000e+00  2.1739614299607926e+01 -5.5150378904756372e-03 0.0000000000000000e+00  2.1736717612638877e+01 -5.6776982445087528e-03 0.0000000000000000e+00  2.1734269605359298e+01 -5.8503447583937527e-03 0.0000000000000000e+00  2.1732230110852306e+01 -5.9988646238016427e-03 0.0000000000000000e+00  2.1730578298290563e+01 -6.1387449426699514e-03 0.0000000000000000e+00  2.1729254469403227e+01 -6.2532426986941165e-03 0.0000000000000000e+00  2.1728221236268791e+01 -6.3546948465469837e-03 0.0000000000000000e+00  2.1727424001309316e+01 -6.4347537146328352e-03 0.0000000000000000e+00  2.1726826386580989e+01 -6.5024626516828844e-03 0.0000000000000000e+00  2.1726385084105981e+01 -6.5540046612185838e-03 0.0000000000000000e+00  2.1726070830929725e+01 -6.5959217494326559e-03 0.0000000000000000e+00  2.1725852550798411e+01 -6.6266881236814344e-03 0.0000000000000000e+00  2.1725709460287057e+01 -6.6507873537984099e-03 0.0000000000000000e+00  2.1725620843538042e+01 -6.6676165094319987e-03 0.0000000000000000e+00  2.1725572928318588e+01 -6.6800744907527148e-03 0.0000000000000000e+00  2.1725552448929090e+01 -6.6879551520697359e-03 0.0000000000000000e+00  2.1725550711277634e+01 -6.6931495682402984e-03 0.0000000000000000e+00  2.1725559712950655e+01 -6.6956924041050511e-03 0.0000000000000000e+00  2.1725574564934512e+01 -6.6968466816984080e-03 0.0000000000000000e+00  2.1725591113473378e+01 -6.6967343925719404e-03 0.0000000000000000e+00  2.1725607262300738e+01 -6.6961471336088613e-03 0.0000000000000000e+00  2.1725621439437770e+01 -6.6951579977220345e-03 0.0000000000000000e+00  2.1725633248560023e+01 -6.6941899845327770e-03 0.0000000000000000e+00  2.1725642494076673e+01 -6.6932300413578222e-03 0.0000000000000000e+00  2.1725649509021846e+01 -6.6924579125173869e-03 0.0000000000000000e+00  2.1725654590199706e+01 -6.6918104485468970e-03 0.0000000000000000e+00  2.1725658196597909e+01 -6.6913425112833953e-03 0.0000000000000000e+00  2.1725660660596986e+01 -6.6909857571986553e-03 0.0000000000000000e+00  2.1725662326426960e+01 -6.6907476789153869e-03 0.0000000000000000e+00  2.1725663418446086e+01 -6.6905773808653424e-03 0.0000000000000000e+00  2.1725664136425394e+01 -6.6904712039732774e-03 0.0000000000000000e+00  2.1725664599513582e+01 -6.6903984108987284e-03 0.0000000000000000e+00  2.1725664906026573e+01 -6.6903557250912685e-03 0.0000000000000000e+00  2.1725665109527682e+01 -6.6903269916377362e-03 0.0000000000000000e+00  2.1725665252752048e+01 -6.6903109266700372e-03 0.0000000000000000e+00  2.1725665356625022e+01 -6.6902999732084941e-03 0.0000000000000000e+00  2.1725665438276490e+01 -6.6902944904939790e-03 0.0000000000000000e+00  2.1725665506366916e+01 -6.6902931064404094e-03 0.0000000000000000e+00  2.1725665573393915e+01 -6.6903021115936219e-03 0.0000000000000000e+00  2.1725665662150270e+01 -6.6903394049280434e-03 0.0000000000000000e+00  2.1725665841271141e+01 -6.6904610869841664e-03 0.0000000000000000e+00  2.1725666310045622e+01 -6.6908294998932836e-03 0.0000000000000000e+00  2.1725667665390038e+01 -6.6919050173443340e-03 0.0000000000000000e+00  2.1725671660943718e+01 -6.6949613755614215e-03 0.0000000000000000e+00  2.1725683441585439e+01 -6.7034292292916459e-03 0.0000000000000000e+00  2.1725718222356342e+01 -6.7262000443492724e-03 0.0000000000000000e+00  2.1725822297462614e+01 -6.7842253312807134e-03 0.0000000000000000e+00  2.1726141415491458e+01 -6.9167583859655619e-03 0.0000000000000000e+00  2.1727173034474337e+01 -7.1299343128656389e-03 0.0000000000000000e+00  2.1730678103237445e+01 -7.0660691964081687e-03 0.0000000000000000e+00  2.1747430592735910e+01 -1.2535298630109316e-03 0.0000000000000000e+00  2.1796360271566972e+01 0.0000000000000000e+00 0.0000000000000000e+00  3.7992642960267091e+01 0.0000000000000000e+00 0.0000000000000000e+00  3.7995502912430503e+01 6.1302372778652449e-02 0.0000000000000000e+00  3.7959779942899694e+01 2.9518524429596087e-03 0.0000000000000000e+00  3.7958690922853805e+01 1.0659429812203003e-02 0.0000000000000000e+00  3.7952173711224063e+01 2.9785619198653881e-03 0.0000000000000000e+00  3.7951591060980661e+01 -3.7186898003038101e-03 0.0000000000000000e+00  3.7944299944659043e+01 -5.7849102933007577e-03 0.0000000000000000e+00  3.7941030302010660e+01 -8.4402020701146926e-03 0.0000000000000000e+00  3.7933993169895025e+01 -6.9765542093547985e-03 0.0000000000000000e+00  3.7929890164290278e+01 -8.1786104764983193e-03 0.0000000000000000e+00  3.7926630732750851e+01 -5.6188948531078206e-03 0.0000000000000000e+00  3.7924368555626053e+01 -4.4541056790964560e-03 0.0000000000000000e+00  3.7921617780411204e+01 -4.3583177288546810e-03 0.0000000000000000e+00  3.7921284055500081e+01 -4.6321238375719052e-03 0.0000000000000000e+00  3.7922703662356881e+01 -3.9520592156981373e-03 0.0000000000000000e+00  3.7924661249403371e+01 -2.9276300228280819e-03 0.0000000000000000e+00  3.7925828320293334e+01 -2.6965727190946787e-03 0.0000000000000000e+00  3.7926636450484807e+01 -3.2793145164403412e-03 0.0000000000000000e+00  3.7928270472813708e+01 -4.2503062391502219e-03 0.0000000000000000e+00  3.7931511584118304e+01 -4.5434389069473231e-03 0.0000000000000000e+00  3.7936335243323093e+01 -3.8861343232677796e-03 0.0000000000000000e+00  3.7941767237346625e+01 -2.1698009234445603e-03 0.0000000000000000e+00  3.7946759078958301e+01 5.1283553787745375e-06 0.0000000000000000e+00  3.7950349680193895e+01 2.2473457358766595e-03 0.0000000000000000e+00  3.7952225791247443e+01 4.0413870179022357e-03 0.0000000000000000e+00  3.7952403680415166e+01 5.2953898909094662e-03 0.0000000000000000e+00  3.7951316742349775e+01 5.9256499306550156e-03 0.0000000000000000e+00  3.7949392923289338e+01 6.1101961550616545e-03 0.0000000000000000e+00  3.7947104789982617e+01 5.9441303754867152e-03 0.0000000000000000e+00  3.7944737559754337e+01 5.6109271363659046e-03 0.0000000000000000e+00  3.7942517137887776e+01 5.1780710318311751e-03 0.0000000000000000e+00  3.7940520782808093e+01 4.7421519999317104e-03 0.0000000000000000e+00  3.7938803170040586e+01 4.3172855744338171e-03 0.0000000000000000e+00  3.7937348005145935e+01 3.9409279205016440e-03 0.0000000000000000e+00  3.7936148910851273e+01 3.6050936162851355e-03 0.0000000000000000e+00  3.7935169850476214e+01 3.3229261664832234e-03 0.0000000000000000e+00  3.7934390588967069e+01 3.0829430066705754e-03 0.0000000000000000e+00  3.7933776654568717e+01 2.8889983152605488e-03 0.0000000000000000e+00  3.7933306112663047e+01 2.7305712509434971e-03 0.0000000000000000e+00  3.7932949931760511e+01 2.6071827054640669e-03 0.0000000000000000e+00  3.7932688773970789e+01 2.5100132656505022e-03 0.0000000000000000e+00  3.7932500671841638e+01 2.4370638627970527e-03 0.0000000000000000e+00  3.7932371192212102e+01 2.3818258366516986e-03 0.0000000000000000e+00  3.7932285280887548e+01 2.3424369905991121e-03 0.0000000000000000e+00  3.7932233120635139e+01 2.3145056230160768e-03 0.0000000000000000e+00  3.7932204764633411e+01 2.2965477479899425e-03 0.0000000000000000e+00  3.7932193682531320e+01 2.2855200391047976e-03 0.0000000000000000e+00  3.7932193454446498e+01 2.2801552898698645e-03 0.0000000000000000e+00  3.7932200029351790e+01 2.2783003988808529e-03 0.0000000000000000e+00  3.7932209694488392e+01 2.2789908667355525e-03 0.0000000000000000e+00  3.7932220422345736e+01 2.2808641925003079e-03 0.0000000000000000e+00  3.7932230534438517e+01 2.2833884578986490e-03 0.0000000000000000e+00  3.7932239420030264e+01 2.2858795982466209e-03 0.0000000000000000e+00  3.7932246641012227e+01 2.2881834804418734e-03 0.0000000000000000e+00  3.7932252306811591e+01 2.2900628371210771e-03 0.0000000000000000e+00  3.7932256518120639e+01 2.2915682296687626e-03 0.0000000000000000e+00  3.7932259587896475e+01 2.2926733725737126e-03 0.0000000000000000e+00  3.7932261733072671e+01 2.2934837983564502e-03 0.0000000000000000e+00  3.7932263223248427e+01 2.2940349167121146e-03 0.0000000000000000e+00  3.7932264226476164e+01 2.2944143547272509e-03 0.0000000000000000e+00  3.7932264910655533e+01 2.2946568590438820e-03 0.0000000000000000e+00  3.7932265370830784e+01 2.2948164007479612e-03 0.0000000000000000e+00  3.7932265693709674e+01 2.2949133682559353e-03 0.0000000000000000e+00  3.7932265923425831e+01 2.2949757413658471e-03 0.0000000000000000e+00  3.7932266099167713e+01 2.2950126249315804e-03 0.0000000000000000e+00  3.7932266238364953e+01 2.2950364142854721e-03 0.0000000000000000e+00  3.7932266357234994e+01 2.2950480431149826e-03 0.0000000000000000e+00  3.7932266462784717e+01 2.2950455969354411e-03 0.0000000000000000e+00  3.7932266565015254e+01 2.2950049967189875e-03 0.0000000000000000e+00  3.7932266677721842e+01 2.2948561825811282e-03 0.0000000000000000e+00  3.7932266837140794e+01 2.2943824353361770e-03 0.0000000000000000e+00  3.7932267140906895e+01 2.2929702493879405e-03 0.0000000000000000e+00  3.7932267854853905e+01 2.2889011220648902e-03 0.0000000000000000e+00  3.7932269677684957e+01 2.2774630120226355e-03 0.0000000000000000e+00  3.7932274645165656e+01 2.2459190301252893e-03 0.0000000000000000e+00  3.7932289600840939e+01 2.1612810125855807e-03 0.0000000000000000e+00  3.7932339982206976e+01 1.9430614188465979e-03 0.0000000000000000e+00  3.7932518052321264e+01 1.4066959437478747e-03 0.0000000000000000e+00  3.7933175928523653e+01 2.4152010569127835e-04 0.0000000000000000e+00  3.7933189699075719e+01 -3.3465735797682363e-03 0.0000000000000000e+00  3.7917564266236219e+01 0.0000000000000000e+00 0.0000000000000000e+00  4.4066235352172185e+01 0.0000000000000000e+00 0.0000000000000000e+00  4.4014420662493677e+01 -4.2511708059586747e-02 0.0000000000000000e+00  4.4019161453893730e+01 -3.0811054299246495e-03 0.0000000000000000e+00  4.4012313477494217e+01 -5.2043246026642776e-03 0.0000000000000000e+00  4.4027637690158215e+01 -1.8388558925232653e-03 0.0000000000000000e+00  4.4019491652056445e+01 2.5082594132302695e-03 0.0000000000000000e+00  4.4019183730236534e+01 -1.9073244779843396e-03 0.0000000000000000e+00  4.4005645316594943e+01 1.0943378433527396e-03 0.0000000000000000e+00  4.3998307521346398e+01 -9.9875240493529173e-05 0.0000000000000000e+00  4.3985232477057352e+01 -3.8786171216176335e-04 0.0000000000000000e+00  4.3976623686955847e+01 -6.9208908658332862e-04 0.0000000000000000e+00  4.3967552528662118e+01 7.8929426005445861e-04 0.0000000000000000e+00  4.3960667279195448e+01 -2.6387125781231110e-04 0.0000000000000000e+00  4.3952890741907055e+01 -1.8307189027320654e-03 0.0000000000000000e+00  4.3946750612660246e+01 -2.4930262725615230e-03 0.0000000000000000e+00  4.3941374664030029e+01 -1.8523077722395391e-03 0.0000000000000000e+00  4.3936908345662722e+01 -1.3195995214094211e-03 0.0000000000000000e+00  4.3931971348229460e+01 -1.8224094372018343e-03 0.0000000000000000e+00  4.3926576259974460e+01 -3.1636728448430191e-03 0.0000000000000000e+00  4.3921035712226633e+01 -4.4740595349398978e-03 0.0000000000000000e+00  4.3916300541240673e+01 -4.8280699538894630e-03 0.0000000000000000e+00  4.3913060784276780e+01 -3.9653036462423911e-03 0.0000000000000000e+00  4.3911612666530331e+01 -2.0760496332049077e-03 0.0000000000000000e+00  4.3911846199452853e+01 2.2141216373126063e-04 0.0000000000000000e+00  4.3913351080641910e+01 2.4114270175189102e-03 0.0000000000000000e+00  4.3915717748208593e+01 4.0743944196307905e-03 0.0000000000000000e+00  4.3918526496126418e+01 5.1149713722757331e-03 0.0000000000000000e+00  4.3921521302808763e+01 5.5545932265347736e-03 0.0000000000000000e+00  4.3924472818964887e+01 5.5719613423731423e-03 0.0000000000000000e+00  4.3927271637880345e+01 5.3117550363837238e-03 0.0000000000000000e+00  4.3929805437037217e+01 4.9301802086659137e-03 0.0000000000000000e+00  4.3932039143855874e+01 4.5032094113374591e-03 0.0000000000000000e+00  4.3933932735267341e+01 4.0947261162788155e-03 0.0000000000000000e+00  4.3935502116281405e+01 3.7179234181684293e-03 0.0000000000000000e+00  4.3936758554969330e+01 3.3890227877634506e-03 0.0000000000000000e+00  4.3937746657066420e+01 3.1021508987760611e-03 0.0000000000000000e+00  4.3938500300653168e+01 2.8605929268579540e-03 0.0000000000000000e+00  4.3939067206304685e+01 2.6572162999052179e-03 0.0000000000000000e+00  4.3939480885991451e+01 2.4918340698200014e-03 0.0000000000000000e+00  4.3939778280352471e+01 2.357856706