<?xml version="1.0"?>
<VTKFile type="UnstructuredGrid"  version="0.1"  >
<UnstructuredGrid>
<Piece  NumberOfPoints="1369" NumberOfCells="2560">
<Points>
<DataArray  type="Float64"  NumberOfComponents="3"  format="ascii">0 0 0  0.75 0 0  1.5 0 0  2.25 0 0  3 0 0  3.75 0 0  4.5 0 0  5.25 0 0  6 0 0  6.75 0 0  7.5 0 0  8.25 0 0  9 0 0  9.75 0 0  10.5 0 0  11.25 0 0  12 0 0  12.75 0 0  13.5 0 0  14.25 0 0  15 0 0  15.75 0 0  16.5 0 0  17.25 0 0  18 0 0  18.75 0 0  19.5 0 0  20.25 0 0  21 0 0  21.75 0 0  22.5 0 0  23.25 0 0  24 0 0  24.75 0 0  25.5 0 0  26.25 0 0  27 0 0  27.75 0 0  28.5 0 0  29.25 0 0  30 0 0  30.75 0 0  31.5 0 0  32.25 0 0  33 0 0  33.75 0 0  34.5 0 0  35.25 0 0  36 0 0  36.75 0 0  37.5 0 0  38.25 0 0  39 0 0  39.75 0 0  40.5 0 0  41.25 0 0  42 0 0  42.75 0 0  43.5 0 0  44.25 0 0  45 0 0  45.75 0 0  46.5 0 0  47.25 0 0  48 0 0  48.75 0 0  49.5 0 0  50.25 0 0  51 0 0  51.75 0 0  52.5 0 0  53.25 0 0  54 0 0  54.75 0 0  55.5 0 0  56.25 0 0  57 0 0  57.75 0 0  58.5 0 0  59.25 0 0  60 0 0  0 0.5 0  0.75 0.5 0  1.5 0.5 0  2.25 0.5 0  3 0.5 0  3.75 0.5 0  4.5 0.5 0  5.25 0.5 0  6 0.5 0  6.75 0.5 0  7.5 0.5 0  8.25 0.5 0  9 0.5 0  9.75 0.5 0  10.5 0.5 0  11.25 0.5 0  12 0.5 0  12.75 0.5 0  13.5 0.5 0  14.25 0.5 0  15 0.5 0  15.75 0.5 0  16.5 0.5 0  17.25 0.5 0  18 0.5 0  18.75 0.5 0  19.5 0.5 0  20.25 0.5 0  21 0.5 0  21.75 0.5 0  22.5 0.5 0  23.25 0.5 0  24 0.5 0  24.75 0.5 0  25.5 0.5 0  26.25 0.5 0  27 0.5 0  27.75 0.5 0  28.5 0.5 0  29.25 0.5 0  30 0.5 0  30.75 0.5 0  31.5 0.5 0  32.25 0.5 0  33 0.5 0  33.75 0.5 0  34.5 0.5 0  35.25 0.5 0  36 0.5 0  36.75 0.5 0  37.5 0.5 0  38.25 0.5 0  39 0.5 0  39.75 0.5 0  40.5 0.5 0  41.25 0.5 0  42 0.5 0  42.75 0.5 0  43.5 0.5 0  44.25 0.5 0  45 0.5 0  45.75 0.5 0  46.5 0.5 0  47.25 0.5 0  48 0.5 0  48.75 0.5 0  49.5 0.5 0  50.25 0.5 0  51 0.5 0  51.75 0.5 0  52.5 0.5 0  53.25 0.5 0  54 0.5 0  54.75 0.5 0  55.5 0.5 0  56.25 0.5 0  57 0.5 0  57.75 0.5 0  58.5 0.5 0  59.25 0.5 0  60 0.5 0  0 1 0  0.75 1 0  1.5 1 0  2.25 1 0  3 1 0  3.75 1 0  4.5 1 0  5.25 1 0  6 1 0  6.75 1 0  7.5 1 0  8.25 1 0  9 1 0  9.75 1 0  10.5 1 0  11.25 1 0  12 1 0  12.75 1 0  13.5 1 0  14.25 1 0  15 1 0  15.75 1 0  16.5 1 0  17.25 1 0  18 1 0  18.75 1 0  19.5 1 0  20.25 1 0  21 1 0  21.75 1 0  22.5 1 0  23.25 1 0  24 1 0  24.75 1 0  25.5 1 0  26.25 1 0  27 1 0  27.75 1 0  28.5 1 0  29.25 1 0  30 1 0  30.75 1 0  31.5 1 0  32.25 1 0  33 1 0  33.75 1 0  34.5 1 0  35.25 1 0  36 1 0  36.75 1 0  37.5 1 0  38.25 1 0  39 1 0  39.75 1 0  40.5 1 0  41.25 1 0  42 1 0  42.75 1 0  43.5 1 0  44.25 1 0  45 1 0  45.75 1 0  46.5 1 0  47.25 1 0  48 1 0  48.75 1 0  49.5 1 0  50.25 1 0  51 1 0  51.75 1 0  52.5 1 0  53.25 1 0  54 1 0  54.75 1 0  55.5 1 0  56.25 1 0  57 1 0  57.75 1 0  58.5 1 0  59.25 1 0  60 1 0  0 1.5 0  0.75 1.5 0  1.5 1.5 0  2.25 1.5 0  3 1.5 0  3.75 1.5 0  4.5 1.5 0  5.25 1.5 0  6 1.5 0  6.75 1.5 0  7.5 1.5 0  8.25 1.5 0  9 1.5 0  9.75 1.5 0  10.5 1.5 0  11.25 1.5 0  12 1.5 0  12.75 1.5 0  13.5 1.5 0  14.25 1.5 0  15 1.5 0  15.75 1.5 0  16.5 1.5 0  17.25 1.5 0  18 1.5 0  18.75 1.5 0  19.5 1.5 0  20.25 1.5 0  21 1.5 0  21.75 1.5 0  22.5 1.5 0  23.25 1.5 0  24 1.5 0  24.75 1.5 0  25.5 1.5 0  26.25 1.5 0  27 1.5 0  27.75 1.5 0  28.5 1.5 0  29.25 1.5 0  30 1.5 0  30.75 1.5 0  31.5 1.5 0  32.25 1.5 0  33 1.5 0  33.75 1.5 0  34.5 1.5 0  35.25 1.5 0  36 1.5 0  36.75 1.5 0  37.5 1.5 0  38.25 1.5 0  39 1.5 0  39.75 1.5 0  40.5 1.5 0  41.25 1.5 0  42 1.5 0  42.75 1.5 0  43.5 1.5 0  44.25 1.5 0  45 1.5 0  45.75 1.5 0  46.5 1.5 0  47.25 1.5 0  48 1.5 0  48.75 1.5 0  49.5 1.5 0  50.25 1.5 0  51 1.5 0  51.75 1.5 0  52.5 1.5 0  53.25 1.5 0  54 1.5 0  54.75 1.5 0  55.5 1.5 0  56.25 1.5 0  57 1.5 0  57.75 1.5 0  58.5 1.5 0  59.25 1.5 0  60 1.5 0  0 2 0  0.75 2 0  1.5 2 0  2.25 2 0  3 2 0  3.75 2 0  4.5 2 0  5.25 2 0  6 2 0  6.75 2 0  7.5 2 0  8.25 2 0  9 2 0  9.75 2 0  10.5 2 0  11.25 2 0  12 2 0  12.75 2 0  13.5 2 0  14.25 2 0  15 2 0  15.75 2 0  16.5 2 0  17.25 2 0  18 2 0  18.75 2 0  19.5 2 0  20.25 2 0  21 2 0  21.75 2 0  22.5 2 0  23.25 2 0  24 2 0  24.75 2 0  25.5 2 0  26.25 2 0  27 2 0  27.75 2 0  28.5 2 0  29.25 2 0  30 2 0  30.75 2 0  31.5 2 0  32.25 2 0  33 2 0  33.75 2 0  34.5 2 0  35.25 2 0  36 2 0  36.75 2 0  37.5 2 0  38.25 2 0  39 2 0  39.75 2 0  40.5 2 0  41.25 2 0  42 2 0  42.75 2 0  43.5 2 0  44.25 2 0  45 2 0  45.75 2 0  46.5 2 0  47.25 2 0  48 2 0  48.75 2 0  49.5 2 0  50.25 2 0  51 2 0  51.75 2 0  52.5 2 0  53.25 2 0  54 2 0  54.75 2 0  55.5 2 0  56.25 2 0  57 2 0  57.75 2 0  58.5 2 0  59.25 2 0  60 2 0  0 2.5 0  0.75 2.5 0  1.5 2.5 0  2.25 2.5 0  3 2.5 0  3.75 2.5 0  4.5 2.5 0  5.25 2.5 0  6 2.5 0  6.75 2.5 0  7.5 2.5 0  8.25 2.5 0  9 2.5 0  9.75 2.5 0  10.5 2.5 0  11.25 2.5 0  12 2.5 0  12.75 2.5 0  13.5 2.5 0  14.25 2.5 0  15 2.5 0  15.75 2.5 0  16.5 2.5 0  17.25 2.5 0  18 2.5 0  18.75 2.5 0  19.5 2.5 0  20.25 2.5 0  21 2.5 0  21.75 2.5 0  22.5 2.5 0  23.25 2.5 0  24 2.5 0  24.75 2.5 0  25.5 2.5 0  26.25 2.5 0  27 2.5 0  27.75 2.5 0  28.5 2.5 0  29.25 2.5 0  30 2.5 0  30.75 2.5 0  31.5 2.5 0  32.25 2.5 0  33 2.5 0  33.75 2.5 0  34.5 2.5 0  35.25 2.5 0  36 2.5 0  36.75 2.5 0  37.5 2.5 0  38.25 2.5 0  39 2.5 0  39.75 2.5 0  40.5 2.5 0  41.25 2.5 0  42 2.5 0  42.75 2.5 0  43.5 2.5 0  44.25 2.5 0  45 2.5 0  45.75 2.5 0  46.5 2.5 0  47.25 2.5 0  48 2.5 0  48.75 2.5 0  49.5 2.5 0  50.25 2.5 0  51 2.5 0  51.75 2.5 0  52.5 2.5 0  53.25 2.5 0  54 2.5 0  54.75 2.5 0  55.5 2.5 0  56.25 2.5 0  57 2.5 0  57.75 2.5 0  58.5 2.5 0  59.25 2.5 0  60 2.5 0  0 3 0  0.75 3 0  1.5 3 0  2.25 3 0  3 3 0  3.75 3 0  4.5 3 0  5.25 3 0  6 3 0  6.75 3 0  7.5 3 0  8.25 3 0  9 3 0  9.75 3 0  10.5 3 0  11.25 3 0  12 3 0  12.75 3 0  13.5 3 0  14.25 3 0  15 3 0  15.75 3 0  16.5 3 0  17.25 3 0  18 3 0  18.75 3 0  19.5 3 0  20.25 3 0  21 3 0  21.75 3 0  22.5 3 0  23.25 3 0  24 3 0  24.75 3 0  25.5 3 0  26.25 3 0  27 3 0  27.75 3 0  28.5 3 0  29.25 3 0  30 3 0  30.75 3 0  31.5 3 0  32.25 3 0  33 3 0  33.75 3 0  34.5 3 0  35.25 3 0  36 3 0  36.75 3 0  37.5 3 0  38.25 3 0  39 3 0  39.75 3 0  40.5 3 0  41.25 3 0  42 3 0  42.75 3 0  43.5 3 0  44.25 3 0  45 3 0  45.75 3 0  46.5 3 0  47.25 3 0  48 3 0  48.75 3 0  49.5 3 0  50.25 3 0  51 3 0  51.75 3 0  52.5 3 0  53.25 3 0  54 3 0  54.75 3 0  55.5 3 0  56.25 3 0  57 3 0  57.75 3 0  58.5 3 0  59.25 3 0  60 3 0  0 3.5 0  0.75 3.5 0  1.5 3.5 0  2.25 3.5 0  3 3.5 0  3.75 3.5 0  4.5 3.5 0  5.25 3.5 0  6 3.5 0  6.75 3.5 0  7.5 3.5 0  8.25 3.5 0  9 3.5 0  9.75 3.5 0  10.5 3.5 0  11.25 3.5 0  12 3.5 0  12.75 3.5 0  13.5 3.5 0  14.25 3.5 0  15 3.5 0  15.75 3.5 0  16.5 3.5 0  17.25 3.5 0  18 3.5 0  18.75 3.5 0  19.5 3.5 0  20.25 3.5 0  21 3.5 0  21.75 3.5 0  22.5 3.5 0  23.25 3.5 0  24 3.5 0  24.75 3.5 0  25.5 3.5 0  26.25 3.5 0  27 3.5 0  27.75 3.5 0  28.5 3.5 0  29.25 3.5 0  30 3.5 0  30.75 3.5 0  31.5 3.5 0  32.25 3.5 0  33 3.5 0  33.75 3.5 0  34.5 3.5 0  35.25 3.5 0  36 3.5 0  36.75 3.5 0  37.5 3.5 0  38.25 3.5 0  39 3.5 0  39.75 3.5 0  40.5 3.5 0  41.25 3.5 0  42 3.5 0  42.75 3.5 0  43.5 3.5 0  44.25 3.5 0  45 3.5 0  45.75 3.5 0  46.5 3.5 0  47.25 3.5 0  48 3.5 0  48.75 3.5 0  49.5 3.5 0  50.25 3.5 0  51 3.5 0  51.75 3.5 0  52.5 3.5 0  53.25 3.5 0  54 3.5 0  54.75 3.5 0  55.5 3.5 0  56.25 3.5 0  57 3.5 0  57.75 3.5 0  58.5 3.5 0  59.25 3.5 0  60 3.5 0  0 4 0  0.75 4 0  1.5 4 0  2.25 4 0  3 4 0  3.75 4 0  4.5 4 0  5.25 4 0  6 4 0  6.75 4 0  7.5 4 0  8.25 4 0  9 4 0  9.75 4 0  10.5 4 0  11.25 4 0  12 4 0  12.75 4 0  13.5 4 0  14.25 4 0  15 4 0  15.75 4 0  16.5 4 0  17.25 4 0  18 4 0  18.75 4 0  19.5 4 0  20.25 4 0  21 4 0  21.75 4 0  22.5 4 0  23.25 4 0  24 4 0  24.75 4 0  25.5 4 0  26.25 4 0  27 4 0  27.75 4 0  28.5 4 0  29.25 4 0  30 4 0  30.75 4 0  31.5 4 0  32.25 4 0  33 4 0  33.75 4 0  34.5 4 0  35.25 4 0  36 4 0  36.75 4 0  37.5 4 0  38.25 4 0  39 4 0  39.75 4 0  40.5 4 0  41.25 4 0  42 4 0  42.75 4 0  43.5 4 0  44.25 4 0  45 4 0  45.75 4 0  46.5 4 0  47.25 4 0  48 4 0  48.75 4 0  49.5 4 0  50.25 4 0  51 4 0  51.75 4 0  52.5 4 0  53.25 4 0  54 4 0  54.75 4 0  55.5 4 0  56.25 4 0  57 4 0  57.75 4 0  58.5 4 0  59.25 4 0  60 4 0  0.375 0.25 0  1.125 0.25 0  1.875 0.25 0  2.625 0.25 0  3.375 0.25 0  4.125 0.25 0  4.875 0.25 0  5.625 0.25 0  6.375 0.25 0  7.125 0.25 0  7.875 0.25 0  8.625 0.25 0  9.375 0.25 0  10.125 0.25 0  10.875 0.25 0  11.625 0.25 0  12.375 0.25 0  13.125 0.25 0  13.875 0.25 0  14.625 0.25 0  15.375 0.25 0  16.125 0.25 0  16.875 0.25 0  17.625 0.25 0  18.375 0.25 0  19.125 0.25 0  19.875 0.25 0  20.625 0.25 0  21.375 0.25 0  22.125 0.25 0  22.875 0.25 0  23.625 0.25 0  24.375 0.25 0  25.125 0.25 0  25.875 0.25 0  26.625 0.25 0  27.375 0.25 0  28.125 0.25 0  28.875 0.25 0  29.625 0.25 0  30.375 0.25 0  31.125 0.25 0  31.875 0.25 0  32.625 0.25 0  33.375 0.25 0  34.125 0.25 0  34.875 0.25 0  35.625 0.25 0  36.375 0.25 0  37.125 0.25 0  37.875 0.25 0  38.625 0.25 0  39.375 0.25 0  40.125 0.25 0  40.875 0.25 0  41.625 0.25 0  42.375 0.25 0  43.125 0.25 0  43.875 0.25 0  44.625 0.25 0  45.375 0.25 0  46.125 0.25 0  46.875 0.25 0  47.625 0.25 0  48.375 0.25 0  49.125 0.25 0  49.875 0.25 0  50.625 0.25 0  51.375 0.25 0  52.125 0.25 0  52.875 0.25 0  53.625 0.25 0  54.375 0.25 0  55.125 0.25 0  55.875 0.25 0  56.625 0.25 0  57.375 0.25 0  58.125 0.25 0  58.875 0.25 0  59.625 0.25 0  0.375 0.75 0  1.125 0.75 0  1.875 0.75 0  2.625 0.75 0  3.375 0.75 0  4.125 0.75 0  4.875 0.75 0  5.625 0.75 0  6.375 0.75 0  7.125 0.75 0  7.875 0.75 0  8.625 0.75 0  9.375 0.75 0  10.125 0.75 0  10.875 0.75 0  11.625 0.75 0  12.375 0.75 0  13.125 0.75 0  13.875 0.75 0  14.625 0.75 0  15.375 0.75 0  16.125 0.75 0  16.875 0.75 0  17.625 0.75 0  18.375 0.75 0  19.125 0.75 0  19.875 0.75 0  20.625 0.75 0  21.375 0.75 0  22.125 0.75 0  22.875 0.75 0  23.625 0.75 0  24.375 0.75 0  25.125 0.75 0  25.875 0.75 0  26.625 0.75 0  27.375 0.75 0  28.125 0.75 0  28.875 0.75 0  29.625 0.75 0  30.375 0.75 0  31.125 0.75 0  31.875 0.75 0  32.625 0.75 0  33.375 0.75 0  34.125 0.75 0  34.875 0.75 0  35.625 0.75 0  36.375 0.75 0  37.125 0.75 0  37.875 0.75 0  38.625 0.75 0  39.375 0.75 0  40.125 0.75 0  40
[...]
<PointData  Vectors="f_8-0"> 
<DataArray  type="Float64"  Name="f_8-0"  NumberOfComponents="3" format="ascii">0.0000000000000000e+00 0.0000000000000000e+00 0.0000000000000000e+00  0.0000000000000000e+00 0.0000000000000000e+00 0.0000000000000000e+00  0.0000000000000000e+00 0.0000000000000000e+00 0.0000000000000000e+00  0.0000000000000000e+00 0.0000000000000000e+00 0.0000000000000000e+00  0.0000000000000000e+00 0.0000000000000000e+00 0.0000000000000000e+00  0.0000000000000000e+00 0.0000000000000000e+00 0.0000000000000000e+00  0.0000000000000000e+00 0.0000000000000000e+00 0.0000000000000000e+00  0.0000000000000000e+00 0.0000000000000000e+00 0.0000000000000000e+00  0.0000000000000000e+00 0.0000000000000000e+00 0.0000000000000000e+00  0.0000000000000000e+00 0.0000000000000000e+00 0.0000000000000000e+00  0.0000000000000000e+00 0.0000000000000000e+00 0.0000000000000000e+00  0.0000000000000000e+00 0.0000000000000000e+00 0.0000000000000000e+00  0.0000000000000000e+00 0.0000000000000000e+00 0.0000000000000000e+00  0.0000000000000000e+00 0.0000000000000000e+00 0.0000000000000000e+00  0.0000000000000000e+00 0.0000000000000000e+00 0.0000000000000000e+00  0.0000000000000000e+00 0.0000000000000000e+00 0.0000000000000000e+00  0.0000000000000000e+00 0.0000000000000000e+00 0.0000000000000000e+00  0.0000000000000000e+00 0.0000000000000000e+00 0.0000000000000000e+00  0.0000000000000000e+00 0.0000000000000000e+00 0.0000000000000000e+00  0.0000000000000000e+00 0.0000000000000000e+00 0.0000000000000000e+00  0.0000000000000000e+00 0.0000000000000000e+00 0.0000000000000000e+00  0.0000000000000000e+00 0.0000000000000000e+00 0.0000000000000000e+00  0.0000000000000000e+00 0.0000000000000000e+00 0.0000000000000000e+00  0.0000000000000000e+00 0.0000000000000000e+00 0.0000000000000000e+00  0.0000000000000000e+00 0.0000000000000000e+00 0.0000000000000000e+00  0.0000000000000000e+00 0.0000000000000000e+00 0.0000000000000000e+00  0.0000000000000000e+00 0.0000000000000000e+00 0.0000000000000000e+00  0.0000000000000000e+00 0.0000000000000000e+00 0.0000000000000000e+00  0.0000000000000000e+00 0.0000000000000000e+00 0.0000000000000000e+00  0.0000000000000000e+00 0.0000000000000000e+00 0.0000000000000000e+00  0.0000000000000000e+00 0.0000000000000000e+00 0.0000000000000000e+00  0.0000000000000000e+00 0.0000000000000000e+00 0.0000000000000000e+00  0.0000000000000000e+00 0.0000000000000000e+00 0.0000000000000000e+00  0.0000000000000000e+00 0.0000000000000000e+00 0.0000000000000000e+00  0.0000000000000000e+00 0.0000000000000000e+00 0.0000000000000000e+00  0.0000000000000000e+00 0.0000000000000000e+00 0.0000000000000000e+00  0.0000000000000000e+00 0.0000000000000000e+00 0.0000000000000000e+00  0.0000000000000000e+00 0.0000000000000000e+00 0.0000000000000000e+00  0.0000000000000000e+00 0.0000000000000000e+00 0.0000000000000000e+00  0.0000000000000000e+00 0.0000000000000000e+00 0.0000000000000000e+00  0.0000000000000000e+00 0.0000000000000000e+00 0.0000000000000000e+00  0.0000000000000000e+00 0.0000000000000000e+00 0.0000000000000000e+00  0.0000000000000000e+00 0.0000000000000000e+00 0.0000000000000000e+00  0.0000000000000000e+00 0.0000000000000000e+00 0.0000000000000000e+00  0.0000000000000000e+00 0.0000000000000000e+00 0.0000000000000000e+00  0.0000000000000000e+00 0.0000000000000000e+00 0.0000000000000000e+00  0.0000000000000000e+00 0.0000000000000000e+00 0.0000000000000000e+00  0.0000000000000000e+00 0.0000000000000000e+00 0.0000000000000000e+00  0.0000000000000000e+00 0.0000000000000000e+00 0.0000000000000000e+00  0.0000000000000000e+00 0.0000000000000000e+00 0.0000000000000000e+00  0.0000000000000000e+00 0.0000000000000000e+00 0.0000000000000000e+00  0.0000000000000000e+00 0.0000000000000000e+00 0.0000000000000000e+00  0.0000000000000000e+00 0.0000000000000000e+00 0.0000000000000000e+00  0.0000000000000000e+00 0.0000000000000000e+00 0.0000000000000000e+00  0.0000000000000000e+00 0.0000000000000000e+00 0.0000000000000000e+00  0.0000000000000000e+00 0.0000000000000000e+00 0.0000000000000000e+00  0.0000000000000000e+00 0.0000000000000000e+00 0.0000000000000000e+00  0.0000000000000000e+00 0.0000000000000000e+00 0.0000000000000000e+00  0.0000000000000000e+00 0.0000000000000000e+00 0.0000000000000000e+00  0.0000000000000000e+00 0.0000000000000000e+00 0.0000000000000000e+00  0.0000000000000000e+00 0.0000000000000000e+00 0.0000000000000000e+00  0.0000000000000000e+00 0.0000000000000000e+00 0.0000000000000000e+00  0.0000000000000000e+00 0.0000000000000000e+00 0.0000000000000000e+00  0.0000000000000000e+00 0.0000000000000000e+00 0.0000000000000000e+00  0.0000000000000000e+00 0.0000000000000000e+00 0.0000000000000000e+00  0.0000000000000000e+00 0.0000000000000000e+00 0.0000000000000000e+00  0.0000000000000000e+00 0.0000000000000000e+00 0.0000000000000000e+00  0.0000000000000000e+00 0.0000000000000000e+00 0.0000000000000000e+00  0.0000000000000000e+00 0.0000000000000000e+00 0.0000000000000000e+00  0.0000000000000000e+00 0.0000000000000000e+00 0.0000000000000000e+00  0.0000000000000000e+00 0.0000000000000000e+00 0.0000000000000000e+00  0.0000000000000000e+00 0.0000000000000000e+00 0.0000000000000000e+00  0.0000000000000000e+00 0.0000000000000000e+00 0.0000000000000000e+00  0.0000000000000000e+00 0.0000000000000000e+00 0.0000000000000000e+00  0.0000000000000000e+00 0.0000000000000000e+00 0.0000000000000000e+00  0.0000000000000000e+00 0.0000000000000000e+00 0.0000000000000000e+00  0.0000000000000000e+00 0.0000000000000000e+00 0.0000000000000000e+00  0.0000000000000000e+00 0.0000000000000000e+00 0.0000000000000000e+00  0.0000000000000000e+00 0.0000000000000000e+00 0.0000000000000000e+00  0.0000000000000000e+00 0.0000000000000000e+00 0.0000000000000000e+00  0.0000000000000000e+00 0.0000000000000000e+00 0.0000000000000000e+00  1.1644600822980321e+01 0.0000000000000000e+00 0.0000000000000000e+00  1.1636923212510247e+01 2.3578070245048606e-02 0.0000000000000000e+00  1.1629060900104419e+01 3.1466335886645054e-03 0.0000000000000000e+00  1.1633443907939023e+01 3.4942216776455617e-03 0.0000000000000000e+00  1.1631723153412622e+01 2.3783964252642822e-03 0.0000000000000000e+00  1.1632451854079592e+01 2.6153308409164393e-03 0.0000000000000000e+00  1.1632385692799000e+01 2.5597422917533687e-03 0.0000000000000000e+00  1.1632478596080665e+01 2.5823036339905838e-03 0.0000000000000000e+00  1.1632495971447906e+01 2.5846128907380042e-03 0.0000000000000000e+00  1.1632512467511704e+01 2.5883337951553760e-03 0.0000000000000000e+00  1.1632519219710407e+01 2.5898778610743503e-03 0.0000000000000000e+00  1.1632522993451051e+01 2.5907863295144581e-03 0.0000000000000000e+00  1.1632524768371697e+01 2.5912387129252211e-03 0.0000000000000000e+00  1.1632525617698294e+01 2.5914730392448452e-03 0.0000000000000000e+00  1.1632525976361503e+01 2.5915901659819690e-03 0.0000000000000000e+00  1.1632526093489885e+01 2.5916482703167913e-03 0.0000000000000000e+00  1.1632526090043196e+01 2.5916765385083345e-03 0.0000000000000000e+00  1.1632526028213425e+01 2.5916899973056529e-03 0.0000000000000000e+00  1.1632525938198601e+01 2.5916962196921665e-03 0.0000000000000000e+00  1.1632525835221623e+01 2.5916989407838396e-03 0.0000000000000000e+00  1.1632525726306985e+01 2.5917000204601411e-03 0.0000000000000000e+00  1.1632525614950609e+01 2.5917003454443838e-03 0.0000000000000000e+00  1.1632525502694076e+01 2.5917003482889434e-03 0.0000000000000000e+00  1.1632525390088682e+01 2.5917002072497895e-03 0.0000000000000000e+00  1.1632525277496882e+01 2.5917000225634777e-03 0.0000000000000000e+00  1.1632525165068557e+01 2.5916998358635852e-03 0.0000000000000000e+00  1.1632525052634950e+01 2.5916996467365873e-03 0.0000000000000000e+00  1.1632524940404272e+01 2.5916994739387331e-03 0.0000000000000000e+00  1.1632524828196297e+01 2.5916993059668806e-03 0.0000000000000000e+00  1.1632524716059812e+01 2.5916991447826419e-03 0.0000000000000000e+00  1.1632524603935426e+01 2.5916989880116884e-03 0.0000000000000000e+00  1.1632524491913159e+01 2.5916988370064467e-03 0.0000000000000000e+00  1.1632524379849087e+01 2.5916986934500824e-03 0.0000000000000000e+00  1.1632524267838388e+01 2.5916985463317844e-03 0.0000000000000000e+00  1.1632524155840898e+01 2.5916984071579366e-03 0.0000000000000000e+00  1.1632524043791191e+01 2.5916982633227901e-03 0.0000000000000000e+00  1.1632523931739318e+01 2.5916981194356505e-03 0.0000000000000000e+00  1.1632523819712066e+01 2.5916979747455868e-03 0.0000000000000000e+00  1.1632523707723623e+01 2.5916978329926258e-03 0.0000000000000000e+00  1.1632523595670003e+01 2.5916976940829149e-03 0.0000000000000000e+00  1.1632523483648288e+01 2.5916975528230391e-03 0.0000000000000000e+00  1.1632523371600826e+01 2.5916974191156480e-03 0.0000000000000000e+00  1.1632523259579308e+01 2.5916972701810724e-03 0.0000000000000000e+00  1.1632523147401695e+01 2.5916971531365551e-03 0.0000000000000000e+00  1.1632523035378830e+01 2.5916969624845353e-03 0.0000000000000000e+00  1.1632522923188779e+01 2.5916969068141399e-03 0.0000000000000000e+00  1.1632522811143005e+01 2.5916965939926286e-03 0.0000000000000000e+00  1.1632522698926055e+01 2.5916966615403604e-03 0.0000000000000000e+00  1.1632522586911735e+01 2.5916959839732906e-03 0.0000000000000000e+00  1.1632522475294625e+01 2.5916962166652141e-03 0.0000000000000000e+00  1.1632522364126745e+01 2.5916944941064466e-03 0.0000000000000000e+00  1.1632522255786444e+01 2.5916945712914467e-03 0.0000000000000000e+00  1.1632522149625608e+01 2.5916896731937172e-03 0.0000000000000000e+00  1.1632522056015940e+01 2.5916873596109761e-03 0.0000000000000000e+00  1.1632521973885117e+01 2.5916720733111303e-03 0.0000000000000000e+00  1.1632521939938504e+01 2.5916567855447156e-03 0.0000000000000000e+00  1.1632521961724683e+01 2.5916053568021615e-03 0.0000000000000000e+00  1.1632522160542207e+01 2.5915347712651615e-03 0.0000000000000000e+00  1.1632522601474118e+01 2.5913548316294447e-03 0.0000000000000000e+00  1.1632523694357607e+01 2.5910596076649472e-03 0.0000000000000000e+00  1.1632525869992575e+01 2.5903393092392198e-03 0.0000000000000000e+00  1.1632530956201709e+01 2.5887774476550823e-03 0.0000000000000000e+00  1.1632542570951408e+01 2.5844903786410977e-03 0.0000000000000000e+00  1.1632572435658645e+01 2.5733815455087094e-03 0.0000000000000000e+00  1.1632647290779206e+01 2.5448456020782649e-03 0.0000000000000000e+00  1.1632831124895519e+01 2.4804454050424939e-03 0.0000000000000000e+00  1.1633239964978117e+01 2.3532349495262385e-03 0.0000000000000000e+00  1.1634055594906012e+01 2.1487364740105010e-03 0.0000000000000000e+00  1.1635447825858336e+01 1.8982846611531156e-03 0.0000000000000000e+00  1.1637433611572138e+01 1.7153535940672691e-03 0.0000000000000000e+00  1.1639674910393303e+01 1.7242273448770523e-03 0.0000000000000000e+00  1.1641651546222095e+01 1.9384435912800212e-03 0.0000000000000000e+00  1.1642950625780539e+01 2.2975238648880571e-03 0.0000000000000000e+00  1.1643236866728159e+01 2.9188293761126857e-03 0.0000000000000000e+00  1.1641699913993486e+01 3.9171961388336897e-03 0.0000000000000000e+00  1.1637590850732018e+01 5.2417814209133164e-03 0.0000000000000000e+00  1.1630162838328525e+01 6.6579366004901287e-03 0.0000000000000000e+00  1.1619543811924135e+01 7.2646837183218023e-03 0.0000000000000000e+00  1.1606977692866094e+01 6.3850863057076171e-03 0.0000000000000000e+00  1.1585032193680833e+01 -5.2749489775249323e-03 0.0000000000000000e+00  1.1537318706180816e+01 0.0000000000000000e+00 0.0000000000000000e+00  5.8914851166044446e+00 0.0000000000000000e+00 0.0000000000000000e+00  5.8761520371478984e+00 -8.4848471758406634e-03 0.0000000000000000e+00  5.8906976090448007e+00 1.4714122805337640e-03 0.0000000000000000e+00  5.8899071219082613e+00 -2.5471640683873953e-03 0.0000000000000000e+00  5.8907151090172070e+00 -1.5745743124639762e-03 0.0000000000000000e+00  5.8907085847352425e+00 -1.7464056302535912e-03 0.0000000000000000e+00  5.8907842974938536e+00 -1.6335495475336675e-03 0.0000000000000000e+00  5.8908010274978704e+00 -1.6166378999842880e-03 0.0000000000000000e+00  5.8908129953362041e+00 -1.5973006881629911e-03 0.0000000000000000e+00  5.8908178957337567e+00 -1.5894125585090753e-03 0.0000000000000000e+00  5.8908204403088025e+00 -1.5848476527850013e-03 0.0000000000000000e+00  5.8908215884305433e+00 -1.5825877960820439e-03 0.0000000000000000e+00  5.8908220834478042e+00 -1.5814100970025112e-03 0.0000000000000000e+00  5.8908222417811515e+00 -1.5808140419301157e-03 0.0000000000000000e+00  5.8908222335623934e+00 -1.5805141230719329e-03 0.0000000000000000e+00  5.8908221436445150e+00 -1.5803650122242613e-03 0.0000000000000000e+00  5.8908220145726045e+00 -1.5802923156541088e-03 0.0000000000000000e+00  5.8908218677452648e+00 -1.5802570966896401e-03 0.0000000000000000e+00  5.8908217125734055e+00 -1.5802409461227226e-03 0.0000000000000000e+00  5.8908215544306666e+00 -1.5802334837871981e-03 0.0000000000000000e+00  5.8908213950606685e+00 -1.5802305266459547e-03 0.0000000000000000e+00  5.8908212357922549e+00 -1.5802292165336968e-03 0.0000000000000000e+00  5.8908210767201235e+00 -1.5802287334775000e-03 0.0000000000000000e+00  5.8908209177981297e+00 -1.5802288310189890e-03 0.0000000000000000e+00  5.8908207591600368e+00 -1.5802289105888293e-03 0.0000000000000000e+00  5.8908206009357293e+00 -1.5802289117648383e-03 0.0000000000000000e+00  5.8908204425059969e+00 -1.5802291663024688e-03 0.0000000000000000e+00  5.8908202845360957e+00 -1.5802290608575935e-03 0.0000000000000000e+00  5.8908201264370552e+00 -1.5802290716820583e-03 0.0000000000000000e+00  5.8908199684979330e+00 -1.5802290057692851e-03 0.0000000000000000e+00  5.8908198104858922e+00 -1.5802290877963035e-03 0.0000000000000000e+00  5.8908196527502676e+00 -1.5802289125341313e-03 0.0000000000000000e+00  5.8908194948534494e+00 -1.5802288928298994e-03 0.0000000000000000e+00  5.8908193370648787e+00 -1.5802288028415445e-03 0.0000000000000000e+00  5.8908191792493279e+00 -1.5802286506363544e-03 0.0000000000000000e+00  5.8908190213156644e+00 -1.5802286622347604e-03 0.0000000000000000e+00  5.8908188633305176e+00 -1.5802287014238087e-03 0.0000000000000000e+00  5.8908187055042456e+00 -1.5802286157791368e-03 0.0000000000000000e+00  5.8908185476391353e+00 -1.5802284995472297e-03 0.0000000000000000e+00  5.8908183897588549e+00 -1.5802284717881588e-03 0.0000000000000000e+00  5.8908182317271738e+00 -1.5802284342444095e-03 0.0000000000000000e+00  5.8908180739293421e+00 -1.5802282118661803e-03 0.0000000000000000e+00  5.8908179157661786e+00 -1.5802281725862545e-03 0.0000000000000000e+00  5.8908177576399350e+00 -1.5802281840284638e-03 0.0000000000000000e+00  5.8908175992196030e+00 -1.5802280203578564e-03 0.0000000000000000e+00  5.8908174409963401e+00 -1.5802278099744116e-03 0.0000000000000000e+00  5.8908172821787979e+00 -1.5802275891005639e-03 0.0000000000000000e+00  5.8908171231493993e+00 -1.5802276051039288e-03 0.0000000000000000e+00  5.8908169638849053e+00 -1.5802275295823853e-03 0.0000000000000000e+00  5.8908168035841086e+00 -1.5802281816135635e-03 0.0000000000000000e+00  5.8908166449856445e+00 -1.5802287371194297e-03 0.0000000000000000e+00  5.8908164831221210e+00 -1.5802326572960609e-03 0.0000000000000000e+00  5.8908163306192440e+00 -1.5802375105068087e-03 0.0000000000000000e+00  5.8908161728352555e+00 -1.5802536438237831e-03 0.0000000000000000e+00  5.8908160497270980e+00 -1.5802790178444887e-03 0.0000000000000000e+00  5.8908159284021071e+00 -1.5803438092183294e-03 0.0000000000000000e+00  5.8908159282016168e+00 -1.5804546354784841e-03 0.0000000000000000e+00  5.8908159956038526e+00 -1.5807039118801004e-03 0.0000000000000000e+00  5.8908164937612781e+00 -1.5811560599979350e-03 0.0000000000000000e+00  5.8908174690813375e+00 -1.5821478180492840e-03 0.0000000000000000e+00  5.8908202870922679e+00 -1.5842287190981890e-03 0.0000000000000000e+00  5.8908264903507437e+00 -1.5894355323373681e-03 0.0000000000000000e+00  5.8908431202986389e+00 -1.6027110805974297e-03 0.0000000000000000e+00  5.8908829428176590e+00 -1.6376470315262286e-03 0.0000000000000000e+00  5.8909805654588867e+00 -1.7226791026628250e-03 0.0000000000000000e+00  5.8911938694670889e+00 -1.9105247570941754e-03 0.0000000000000000e+00  5.8916270584011459e+00 -2.2664120159109516e-03 0.0000000000000000e+00  5.8923832411445343e+00 -2.8204684099015754e-03 0.0000000000000000e+00  5.8935087466725884e+00 -3.4487920966870672e-03 0.0000000000000000e+00  5.8947988431426461e+00 -3.8224877846318186e-03 0.0000000000000000e+00  5.8959087114117539e+00 -3.6507258524414925e-03 0.0000000000000000e+00  5.8966171501762341e+00 -3.1127605081217409e-03 0.0000000000000000e+00  5.8971306740802767e+00 -2.3455766480004105e-03 0.0000000000000000e+00  5.8973389419373810e+00 -9.9199057636723074e-04 0.0000000000000000e+00  5.8973041900187280e+00 1.0833112481132032e-03 0.0000000000000000e+00  5.8968964887927653e+00 3.8126826450025878e-03 0.0000000000000000e+00  5.8963139044671227e+00 6.8209629418392167e-03 0.0000000000000000e+00  5.8947653529151536e+00 9.2963295722998315e-03 0.0000000000000000e+00  5.8921858425969660e+00 9.3113601292860657e-03 0.0000000000000000e+00  5.8888396500238001e+00 1.2250863181702099e-02 0.0000000000000000e+00  5.8736603069478468e+00 0.0000000000000000e+00 0.0000000000000000e+00  2.4351102697886593e+00 0.0000000000000000e+00 0.0000000000000000e+00  2.4317749627026179e+00 -3.5816775142396916e-04 0.0000000000000000e+00  2.4319579031938106e+00 6.2916131544551634e-06 0.0000000000000000e+00  2.4320182220166000e+00 1.7743546693418295e-04 0.0000000000000000e+00  2.4318292402085420e+00 1.5759922754680146e-04 0.0000000000000000e+00  2.4316915910804786e+00 2.5509734380858401e-04 0.0000000000000000e+00  2.4316087484803925e+00 2.9338282751232886e-04 0.0000000000000000e+00  2.4315639124906916e+00 3.2013862176066588e-04 0.0000000000000000e+00  2.4315402035751497e+00 3.3275386635574661e-04 0.0000000000000000e+00  2.4315277386714680e+00 3.3958327563800891e-04 0.0000000000000000e+00  2.4315211879335492e+00 3.4301890310202589e-04 0.0000000000000000e+00  2.4315177193689479e+00 3.4479573678191874e-04 0.0000000000000000e+00  2.4315158560618579e+00 3.4569476786133258e-04 0.0000000000000000e+00  2.4315148247817926e+00 3.4614880958470196e-04 0.0000000000000000e+00  2.4315142228608653e+00 3.4637348862519166e-04 0.0000000000000000e+00  2.4315138413143997e+00 3.4648330021674651e-04 0.0000000000000000e+00  2.4315135723422845e+00 3.4653516795496637e-04 0.0000000000000000e+00  2.4315133607000416e+00 3.4655908546827452e-04 0.0000000000000000e+00  2.4315131782197379e+00 3.4656934235349063e-04 0.0000000000000000e+00  2.4315130105959746e+00 3.4657341981568908e-04 0.0000000000000000e+00  2.4315128505711052e+00 3.4657465773347033e-04 0.0000000000000000e+00  2.4315126944623291e+00 3.4657479015408246e-04 0.0000000000000000e+00  2.4315125403991944e+00 3.4657448192242389e-04 0.0000000000000000e+00  2.4315123874170728e+00 3.4657411817660055e-04 0.0000000000000000e+00  2.4315122350213820e+00 3.4657376162007054e-04 0.0000000000000000e+00  2.4315120829419334e+00 3.4657346969705792e-04 0.0000000000000000e+00  2.4315119310446023e+00 3.4657325880527883e-04 0.0000000000000000e+00  2.4315117792528289e+00 3.4657310052013722e-04 0.0000000000000000e+00  2.4315116275272359e+00 3.4657299429942428e-04 0.0000000000000000e+00  2.4315114758352427e+00 3.4657290802016981e-04 0.0000000000000000e+00  2.4315113241721420e+00 3.4657286415993080e-04 0.0000000000000000e+00  2.4315111725188916e+00 3.4657283138153617e-04 0.0000000000000000e+00  2.4315110208776050e+00 3.4657281368436307e-04 0.0000000000000000e+00  2.4315108692329814e+00 3.4657279709563962e-04 0.0000000000000000e+00  2.4315107176021225e+00 3.4657279938597767e-04 0.0000000000000000e+00  2.4315105659428089e+00 3.4657279876597466e-04 0.0000000000000000e+00  2.4315104143111035e+00 3.4657281392408575e-04 0.0000000000000000e+00  2.4315102626218423e+00 3.4657281971863879e-04 0.0000000000000000e+00  2.4315101109772552e+00 3.4657285028113349e-04 0.0000000000000000e+00  2.4315099592188436e+00 3.4657286900834235e-04 0.0000000000000000e+00  2.4315