<?xml version="1.0"?>
<VTKFile type="UnstructuredGrid"  version="0.1"  >
<UnstructuredGrid>
<Piece  NumberOfPoints="1369" NumberOfCells="2560">
<Points>
<DataArray  type="Float64"  NumberOfComponents="3"  format="ascii">0 0 0  0.75 0 0  1.5 0 0  2.25 0 0  3 0 0  3.75 0 0  4.5 0 0  5.25 0 0  6 0 0  6.75 0 0  7.5 0 0  8.25 0 0  9 0 0  9.75 0 0  10.5 0 0  11.25 0 0  12 0 0  12.75 0 0  13.5 0 0  14.25 0 0  15 0 0  15.75 0 0  16.5 0 0  17.25 0 0  18 0 0  18.75 0 0  19.5 0 0  20.25 0 0  21 0 0  21.75 0 0  22.5 0 0  23.25 0 0  24 0 0  24.75 0 0  25.5 0 0  26.25 0 0  27 0 0  27.75 0 0  28.5 0 0  29.25 0 0  30 0 0  30.75 0 0  31.5 0 0  32.25 0 0  33 0 0  33.75 0 0  34.5 0 0  35.25 0 0  36 0 0  36.75 0 0  37.5 0 0  38.25 0 0  39 0 0  39.75 0 0  40.5 0 0  41.25 0 0  42 0 0  42.75 0 0  43.5 0 0  44.25 0 0  45 0 0  45.75 0 0  46.5 0 0  47.25 0 0  48 0 0  48.75 0 0  49.5 0 0  50.25 0 0  51 0 0  51.75 0 0  52.5 0 0  53.25 0 0  54 0 0  54.75 0 0  55.5 0 0  56.25 0 0  57 0 0  57.75 0 0  58.5 0 0  59.25 0 0  60 0 0  0 0.5 0  0.75 0.5 0  1.5 0.5 0  2.25 0.5 0  3 0.5 0  3.75 0.5 0  4.5 0.5 0  5.25 0.5 0  6 0.5 0  6.75 0.5 0  7.5 0.5 0  8.25 0.5 0  9 0.5 0  9.75 0.5 0  10.5 0.5 0  11.25 0.5 0  12 0.5 0  12.75 0.5 0  13.5 0.5 0  14.25 0.5 0  15 0.5 0  15.75 0.5 0  16.5 0.5 0  17.25 0.5 0  18 0.5 0  18.75 0.5 0  19.5 0.5 0  20.25 0.5 0  21 0.5 0  21.75 0.5 0  22.5 0.5 0  23.25 0.5 0  24 0.5 0  24.75 0.5 0  25.5 0.5 0  26.25 0.5 0  27 0.5 0  27.75 0.5 0  28.5 0.5 0  29.25 0.5 0  30 0.5 0  30.75 0.5 0  31.5 0.5 0  32.25 0.5 0  33 0.5 0  33.75 0.5 0  34.5 0.5 0  35.25 0.5 0  36 0.5 0  36.75 0.5 0  37.5 0.5 0  38.25 0.5 0  39 0.5 0  39.75 0.5 0  40.5 0.5 0  41.25 0.5 0  42 0.5 0  42.75 0.5 0  43.5 0.5 0  44.25 0.5 0  45 0.5 0  45.75 0.5 0  46.5 0.5 0  47.25 0.5 0  48 0.5 0  48.75 0.5 0  49.5 0.5 0  50.25 0.5 0  51 0.5 0  51.75 0.5 0  52.5 0.5 0  53.25 0.5 0  54 0.5 0  54.75 0.5 0  55.5 0.5 0  56.25 0.5 0  57 0.5 0  57.75 0.5 0  58.5 0.5 0  59.25 0.5 0  60 0.5 0  0 1 0  0.75 1 0  1.5 1 0  2.25 1 0  3 1 0  3.75 1 0  4.5 1 0  5.25 1 0  6 1 0  6.75 1 0  7.5 1 0  8.25 1 0  9 1 0  9.75 1 0  10.5 1 0  11.25 1 0  12 1 0  12.75 1 0  13.5 1 0  14.25 1 0  15 1 0  15.75 1 0  16.5 1 0  17.25 1 0  18 1 0  18.75 1 0  19.5 1 0  20.25 1 0  21 1 0  21.75 1 0  22.5 1 0  23.25 1 0  24 1 0  24.75 1 0  25.5 1 0  26.25 1 0  27 1 0  27.75 1 0  28.5 1 0  29.25 1 0  30 1 0  30.75 1 0  31.5 1 0  32.25 1 0  33 1 0  33.75 1 0  34.5 1 0  35.25 1 0  36 1 0  36.75 1 0  37.5 1 0  38.25 1 0  39 1 0  39.75 1 0  40.5 1 0  41.25 1 0  42 1 0  42.75 1 0  43.5 1 0  44.25 1 0  45 1 0  45.75 1 0  46.5 1 0  47.25 1 0  48 1 0  48.75 1 0  49.5 1 0  50.25 1 0  51 1 0  51.75 1 0  52.5 1 0  53.25 1 0  54 1 0  54.75 1 0  55.5 1 0  56.25 1 0  57 1 0  57.75 1 0  58.5 1 0  59.25 1 0  60 1 0  0 1.5 0  0.75 1.5 0  1.5 1.5 0  2.25 1.5 0  3 1.5 0  3.75 1.5 0  4.5 1.5 0  5.25 1.5 0  6 1.5 0  6.75 1.5 0  7.5 1.5 0  8.25 1.5 0  9 1.5 0  9.75 1.5 0  10.5 1.5 0  11.25 1.5 0  12 1.5 0  12.75 1.5 0  13.5 1.5 0  14.25 1.5 0  15 1.5 0  15.75 1.5 0  16.5 1.5 0  17.25 1.5 0  18 1.5 0  18.75 1.5 0  19.5 1.5 0  20.25 1.5 0  21 1.5 0  21.75 1.5 0  22.5 1.5 0  23.25 1.5 0  24 1.5 0  24.75 1.5 0  25.5 1.5 0  26.25 1.5 0  27 1.5 0  27.75 1.5 0  28.5 1.5 0  29.25 1.5 0  30 1.5 0  30.75 1.5 0  31.5 1.5 0  32.25 1.5 0  33 1.5 0  33.75 1.5 0  34.5 1.5 0  35.25 1.5 0  36 1.5 0  36.75 1.5 0  37.5 1.5 0  38.25 1.5 0  39 1.5 0  39.75 1.5 0  40.5 1.5 0  41.25 1.5 0  42 1.5 0  42.75 1.5 0  43.5 1.5 0  44.25 1.5 0  45 1.5 0  45.75 1.5 0  46.5 1.5 0  47.25 1.5 0  48 1.5 0  48.75 1.5 0  49.5 1.5 0  50.25 1.5 0  51 1.5 0  51.75 1.5 0  52.5 1.5 0  53.25 1.5 0  54 1.5 0  54.75 1.5 0  55.5 1.5 0  56.25 1.5 0  57 1.5 0  57.75 1.5 0  58.5 1.5 0  59.25 1.5 0  60 1.5 0  0 2 0  0.75 2 0  1.5 2 0  2.25 2 0  3 2 0  3.75 2 0  4.5 2 0  5.25 2 0  6 2 0  6.75 2 0  7.5 2 0  8.25 2 0  9 2 0  9.75 2 0  10.5 2 0  11.25 2 0  12 2 0  12.75 2 0  13.5 2 0  14.25 2 0  15 2 0  15.75 2 0  16.5 2 0  17.25 2 0  18 2 0  18.75 2 0  19.5 2 0  20.25 2 0  21 2 0  21.75 2 0  22.5 2 0  23.25 2 0  24 2 0  24.75 2 0  25.5 2 0  26.25 2 0  27 2 0  27.75 2 0  28.5 2 0  29.25 2 0  30 2 0  30.75 2 0  31.5 2 0  32.25 2 0  33 2 0  33.75 2 0  34.5 2 0  35.25 2 0  36 2 0  36.75 2 0  37.5 2 0  38.25 2 0  39 2 0  39.75 2 0  40.5 2 0  41.25 2 0  42 2 0  42.75 2 0  43.5 2 0  44.25 2 0  45 2 0  45.75 2 0  46.5 2 0  47.25 2 0  48 2 0  48.75 2 0  49.5 2 0  50.25 2 0  51 2 0  51.75 2 0  52.5 2 0  53.25 2 0  54 2 0  54.75 2 0  55.5 2 0  56.25 2 0  57 2 0  57.75 2 0  58.5 2 0  59.25 2 0  60 2 0  0 2.5 0  0.75 2.5 0  1.5 2.5 0  2.25 2.5 0  3 2.5 0  3.75 2.5 0  4.5 2.5 0  5.25 2.5 0  6 2.5 0  6.75 2.5 0  7.5 2.5 0  8.25 2.5 0  9 2.5 0  9.75 2.5 0  10.5 2.5 0  11.25 2.5 0  12 2.5 0  12.75 2.5 0  13.5 2.5 0  14.25 2.5 0  15 2.5 0  15.75 2.5 0  16.5 2.5 0  17.25 2.5 0  18 2.5 0  18.75 2.5 0  19.5 2.5 0  20.25 2.5 0  21 2.5 0  21.75 2.5 0  22.5 2.5 0  23.25 2.5 0  24 2.5 0  24.75 2.5 0  25.5 2.5 0  26.25 2.5 0  27 2.5 0  27.75 2.5 0  28.5 2.5 0  29.25 2.5 0  30 2.5 0  30.75 2.5 0  31.5 2.5 0  32.25 2.5 0  33 2.5 0  33.75 2.5 0  34.5 2.5 0  35.25 2.5 0  36 2.5 0  36.75 2.5 0  37.5 2.5 0  38.25 2.5 0  39 2.5 0  39.75 2.5 0  40.5 2.5 0  41.25 2.5 0  42 2.5 0  42.75 2.5 0  43.5 2.5 0  44.25 2.5 0  45 2.5 0  45.75 2.5 0  46.5 2.5 0  47.25 2.5 0  48 2.5 0  48.75 2.5 0  49.5 2.5 0  50.25 2.5 0  51 2.5 0  51.75 2.5 0  52.5 2.5 0  53.25 2.5 0  54 2.5 0  54.75 2.5 0  55.5 2.5 0  56.25 2.5 0  57 2.5 0  57.75 2.5 0  58.5 2.5 0  59.25 2.5 0  60 2.5 0  0 3 0  0.75 3 0  1.5 3 0  2.25 3 0  3 3 0  3.75 3 0  4.5 3 0  5.25 3 0  6 3 0  6.75 3 0  7.5 3 0  8.25 3 0  9 3 0  9.75 3 0  10.5 3 0  11.25 3 0  12 3 0  12.75 3 0  13.5 3 0  14.25 3 0  15 3 0  15.75 3 0  16.5 3 0  17.25 3 0  18 3 0  18.75 3 0  19.5 3 0  20.25 3 0  21 3 0  21.75 3 0  22.5 3 0  23.25 3 0  24 3 0  24.75 3 0  25.5 3 0  26.25 3 0  27 3 0  27.75 3 0  28.5 3 0  29.25 3 0  30 3 0  30.75 3 0  31.5 3 0  32.25 3 0  33 3 0  33.75 3 0  34.5 3 0  35.25 3 0  36 3 0  36.75 3 0  37.5 3 0  38.25 3 0  39 3 0  39.75 3 0  40.5 3 0  41.25 3 0  42 3 0  42.75 3 0  43.5 3 0  44.25 3 0  45 3 0  45.75 3 0  46.5 3 0  47.25 3 0  48 3 0  48.75 3 0  49.5 3 0  50.25 3 0  51 3 0  51.75 3 0  52.5 3 0  53.25 3 0  54 3 0  54.75 3 0  55.5 3 0  56.25 3 0  57 3 0  57.75 3 0  58.5 3 0  59.25 3 0  60 3 0  0 3.5 0  0.75 3.5 0  1.5 3.5 0  2.25 3.5 0  3 3.5 0  3.75 3.5 0  4.5 3.5 0  5.25 3.5 0  6 3.5 0  6.75 3.5 0  7.5 3.5 0  8.25 3.5 0  9 3.5 0  9.75 3.5 0  10.5 3.5 0  11.25 3.5 0  12 3.5 0  12.75 3.5 0  13.5 3.5 0  14.25 3.5 0  15 3.5 0  15.75 3.5 0  16.5 3.5 0  17.25 3.5 0  18 3.5 0  18.75 3.5 0  19.5 3.5 0  20.25 3.5 0  21 3.5 0  21.75 3.5 0  22.5 3.5 0  23.25 3.5 0  24 3.5 0  24.75 3.5 0  25.5 3.5 0  26.25 3.5 0  27 3.5 0  27.75 3.5 0  28.5 3.5 0  29.25 3.5 0  30 3.5 0  30.75 3.5 0  31.5 3.5 0  32.25 3.5 0  33 3.5 0  33.75 3.5 0  34.5 3.5 0  35.25 3.5 0  36 3.5 0  36.75 3.5 0  37.5 3.5 0  38.25 3.5 0  39 3.5 0  39.75 3.5 0  40.5 3.5 0  41.25 3.5 0  42 3.5 0  42.75 3.5 0  43.5 3.5 0  44.25 3.5 0  45 3.5 0  45.75 3.5 0  46.5 3.5 0  47.25 3.5 0  48 3.5 0  48.75 3.5 0  49.5 3.5 0  50.25 3.5 0  51 3.5 0  51.75 3.5 0  52.5 3.5 0  53.25 3.5 0  54 3.5 0  54.75 3.5 0  55.5 3.5 0  56.25 3.5 0  57 3.5 0  57.75 3.5 0  58.5 3.5 0  59.25 3.5 0  60 3.5 0  0 4 0  0.75 4 0  1.5 4 0  2.25 4 0  3 4 0  3.75 4 0  4.5 4 0  5.25 4 0  6 4 0  6.75 4 0  7.5 4 0  8.25 4 0  9 4 0  9.75 4 0  10.5 4 0  11.25 4 0  12 4 0  12.75 4 0  13.5 4 0  14.25 4 0  15 4 0  15.75 4 0  16.5 4 0  17.25 4 0  18 4 0  18.75 4 0  19.5 4 0  20.25 4 0  21 4 0  21.75 4 0  22.5 4 0  23.25 4 0  24 4 0  24.75 4 0  25.5 4 0  26.25 4 0  27 4 0  27.75 4 0  28.5 4 0  29.25 4 0  30 4 0  30.75 4 0  31.5 4 0  32.25 4 0  33 4 0  33.75 4 0  34.5 4 0  35.25 4 0  36 4 0  36.75 4 0  37.5 4 0  38.25 4 0  39 4 0  39.75 4 0  40.5 4 0  41.25 4 0  42 4 0  42.75 4 0  43.5 4 0  44.25 4 0  45 4 0  45.75 4 0  46.5 4 0  47.25 4 0  48 4 0  48.75 4 0  49.5 4 0  50.25 4 0  51 4 0  51.75 4 0  52.5 4 0  53.25 4 0  54 4 0  54.75 4 0  55.5 4 0  56.25 4 0  57 4 0  57.75 4 0  58.5 4 0  59.25 4 0  60 4 0  0.375 0.25 0  1.125 0.25 0  1.875 0.25 0  2.625 0.25 0  3.375 0.25 0  4.125 0.25 0  4.875 0.25 0  5.625 0.25 0  6.375 0.25 0  7.125 0.25 0  7.875 0.25 0  8.625 0.25 0  9.375 0.25 0  10.125 0.25 0  10.875 0.25 0  11.625 0.25 0  12.375 0.25 0  13.125 0.25 0  13.875 0.25 0  14.625 0.25 0  15.375 0.25 0  16.125 0.25 0  16.875 0.25 0  17.625 0.25 0  18.375 0.25 0  19.125 0.25 0  19.875 0.25 0  20.625 0.25 0  21.375 0.25 0  22.125 0.25 0  22.875 0.25 0  23.625 0.25 0  24.375 0.25 0  25.125 0.25 0  25.875 0.25 0  26.625 0.25 0  27.375 0.25 0  28.125 0.25 0  28.875 0.25 0  29.625 0.25 0  30.375 0.25 0  31.125 0.25 0  31.875 0.25 0  32.625 0.25 0  33.375 0.25 0  34.125 0.25 0  34.875 0.25 0  35.625 0.25 0  36.375 0.25 0  37.125 0.25 0  37.875 0.25 0  38.625 0.25 0  39.375 0.25 0  40.125 0.25 0  40.875 0.25 0  41.625 0.25 0  42.375 0.25 0  43.125 0.25 0  43.875 0.25 0  44.625 0.25 0  45.375 0.25 0  46.125 0.25 0  46.875 0.25 0  47.625 0.25 0  48.375 0.25 0  49.125 0.25 0  49.875 0.25 0  50.625 0.25 0  51.375 0.25 0  52.125 0.25 0  52.875 0.25 0  53.625 0.25 0  54.375 0.25 0  55.125 0.25 0  55.875 0.25 0  56.625 0.25 0  57.375 0.25 0  58.125 0.25 0  58.875 0.25 0  59.625 0.25 0  0.375 0.75 0  1.125 0.75 0  1.875 0.75 0  2.625 0.75 0  3.375 0.75 0  4.125 0.75 0  4.875 0.75 0  5.625 0.75 0  6.375 0.75 0  7.125 0.75 0  7.875 0.75 0  8.625 0.75 0  9.375 0.75 0  10.125 0.75 0  10.875 0.75 0  11.625 0.75 0  12.375 0.75 0  13.125 0.75 0  13.875 0.75 0  14.625 0.75 0  15.375 0.75 0  16.125 0.75 0  16.875 0.75 0  17.625 0.75 0  18.375 0.75 0  19.125 0.75 0  19.875 0.75 0  20.625 0.75 0  21.375 0.75 0  22.125 0.75 0  22.875 0.75 0  23.625 0.75 0  24.375 0.75 0  25.125 0.75 0  25.875 0.75 0  26.625 0.75 0  27.375 0.75 0  28.125 0.75 0  28.875 0.75 0  29.625 0.75 0  30.375 0.75 0  31.125 0.75 0  31.875 0.75 0  32.625 0.75 0  33.375 0.75 0  34.125 0.75 0  34.875 0.75 0  35.625 0.75 0  36.375 0.75 0  37.125 0.75 0  37.875 0.75 0  38.625 0.75 0  39.375 0.75 0  40.125 0.75 0  40
[...]
<PointData  Vectors="f_8-0"> 
<DataArray  type="Float64"  Name="f_8-0"  NumberOfComponents="3" format="ascii">0.0000000000000000e+00 0.0000000000000000e+00 0.0000000000000000e+00  0.0000000000000000e+00 0.0000000000000000e+00 0.0000000000000000e+00  0.0000000000000000e+00 0.0000000000000000e+00 0.0000000000000000e+00  0.0000000000000000e+00 0.0000000000000000e+00 0.0000000000000000e+00  0.0000000000000000e+00 0.0000000000000000e+00 0.0000000000000000e+00  0.0000000000000000e+00 0.0000000000000000e+00 0.0000000000000000e+00  0.0000000000000000e+00 0.0000000000000000e+00 0.0000000000000000e+00  0.0000000000000000e+00 0.0000000000000000e+00 0.0000000000000000e+00  0.0000000000000000e+00 0.0000000000000000e+00 0.0000000000000000e+00  0.0000000000000000e+00 0.0000000000000000e+00 0.0000000000000000e+00  0.0000000000000000e+00 0.0000000000000000e+00 0.0000000000000000e+00  0.0000000000000000e+00 0.0000000000000000e+00 0.0000000000000000e+00  0.0000000000000000e+00 0.0000000000000000e+00 0.0000000000000000e+00  0.0000000000000000e+00 0.0000000000000000e+00 0.0000000000000000e+00  0.0000000000000000e+00 0.0000000000000000e+00 0.0000000000000000e+00  0.0000000000000000e+00 0.0000000000000000e+00 0.0000000000000000e+00  0.0000000000000000e+00 0.0000000000000000e+00 0.0000000000000000e+00  0.0000000000000000e+00 0.0000000000000000e+00 0.0000000000000000e+00  0.0000000000000000e+00 0.0000000000000000e+00 0.0000000000000000e+00  0.0000000000000000e+00 0.0000000000000000e+00 0.0000000000000000e+00  0.0000000000000000e+00 0.0000000000000000e+00 0.0000000000000000e+00  0.0000000000000000e+00 0.0000000000000000e+00 0.0000000000000000e+00  0.0000000000000000e+00 0.0000000000000000e+00 0.0000000000000000e+00  0.0000000000000000e+00 0.0000000000000000e+00 0.0000000000000000e+00  0.0000000000000000e+00 0.0000000000000000e+00 0.0000000000000000e+00  0.0000000000000000e+00 0.0000000000000000e+00 0.0000000000000000e+00  0.0000000000000000e+00 0.0000000000000000e+00 0.0000000000000000e+00  0.0000000000000000e+00 0.0000000000000000e+00 0.0000000000000000e+00  0.0000000000000000e+00 0.0000000000000000e+00 0.0000000000000000e+00  0.0000000000000000e+00 0.0000000000000000e+00 0.0000000000000000e+00  0.0000000000000000e+00 0.0000000000000000e+00 0.0000000000000000e+00  0.0000000000000000e+00 0.0000000000000000e+00 0.0000000000000000e+00  0.0000000000000000e+00 0.0000000000000000e+00 0.0000000000000000e+00  0.0000000000000000e+00 0.0000000000000000e+00 0.0000000000000000e+00  0.0000000000000000e+00 0.0000000000000000e+00 0.0000000000000000e+00  0.0000000000000000e+00 0.0000000000000000e+00 0.0000000000000000e+00  0.0000000000000000e+00 0.0000000000000000e+00 0.0000000000000000e+00  0.0000000000000000e+00 0.0000000000000000e+00 0.0000000000000000e+00  0.0000000000000000e+00 0.0000000000000000e+00 0.0000000000000000e+00  0.0000000000000000e+00 0.0000000000000000e+00 0.0000000000000000e+00  0.0000000000000000e+00 0.0000000000000000e+00 0.0000000000000000e+00  0.0000000000000000e+00 0.0000000000000000e+00 0.0000000000000000e+00  0.0000000000000000e+00 0.0000000000000000e+00 0.0000000000000000e+00  0.0000000000000000e+00 0.0000000000000000e+00 0.0000000000000000e+00  0.0000000000000000e+00 0.0000000000000000e+00 0.0000000000000000e+00  0.0000000000000000e+00 0.0000000000000000e+00 0.0000000000000000e+00  0.0000000000000000e+00 0.0000000000000000e+00 0.0000000000000000e+00  0.0000000000000000e+00 0.0000000000000000e+00 0.0000000000000000e+00  0.0000000000000000e+00 0.0000000000000000e+00 0.0000000000000000e+00  0.0000000000000000e+00 0.0000000000000000e+00 0.0000000000000000e+00  0.0000000000000000e+00 0.0000000000000000e+00 0.0000000000000000e+00  0.0000000000000000e+00 0.0000000000000000e+00 0.0000000000000000e+00  0.0000000000000000e+00 0.0000000000000000e+00 0.0000000000000000e+00  0.0000000000000000e+00 0.0000000000000000e+00 0.0000000000000000e+00  0.0000000000000000e+00 0.0000000000000000e+00 0.0000000000000000e+00  0.0000000000000000e+00 0.0000000000000000e+00 0.0000000000000000e+00  0.0000000000000000e+00 0.0000000000000000e+00 0.0000000000000000e+00  0.0000000000000000e+00 0.0000000000000000e+00 0.0000000000000000e+00  0.0000000000000000e+00 0.0000000000000000e+00 0.0000000000000000e+00  0.0000000000000000e+00 0.0000000000000000e+00 0.0000000000000000e+00  0.0000000000000000e+00 0.0000000000000000e+00 0.0000000000000000e+00  0.0000000000000000e+00 0.0000000000000000e+00 0.0000000000000000e+00  0.0000000000000000e+00 0.0000000000000000e+00 0.0000000000000000e+00  0.0000000000000000e+00 0.0000000000000000e+00 0.0000000000000000e+00  0.0000000000000000e+00 0.0000000000000000e+00 0.0000000000000000e+00  0.0000000000000000e+00 0.0000000000000000e+00 0.0000000000000000e+00  0.0000000000000000e+00 0.0000000000000000e+00 0.0000000000000000e+00  0.0000000000000000e+00 0.0000000000000000e+00 0.0000000000000000e+00  0.0000000000000000e+00 0.0000000000000000e+00 0.0000000000000000e+00  0.0000000000000000e+00 0.0000000000000000e+00 0.0000000000000000e+00  0.0000000000000000e+00 0.0000000000000000e+00 0.0000000000000000e+00  0.0000000000000000e+00 0.0000000000000000e+00 0.0000000000000000e+00  0.0000000000000000e+00 0.0000000000000000e+00 0.0000000000000000e+00  0.0000000000000000e+00 0.0000000000000000e+00 0.0000000000000000e+00  0.0000000000000000e+00 0.0000000000000000e+00 0.0000000000000000e+00  0.0000000000000000e+00 0.0000000000000000e+00 0.0000000000000000e+00  0.0000000000000000e+00 0.0000000000000000e+00 0.0000000000000000e+00  0.0000000000000000e+00 0.0000000000000000e+00 0.0000000000000000e+00  0.0000000000000000e+00 0.0000000000000000e+00 0.0000000000000000e+00  0.0000000000000000e+00 0.0000000000000000e+00 0.0000000000000000e+00  0.0000000000000000e+00 0.0000000000000000e+00 0.0000000000000000e+00  -2.3139726293133350e+01 0.0000000000000000e+00 0.0000000000000000e+00  -2.3114046155713890e+01 -1.3164938788414020e-03 0.0000000000000000e+00  -2.3103516315610708e+01 -2.9793270048337770e-03 0.0000000000000000e+00  -2.3101291122177511e+01 -2.9399145837122618e-03 0.0000000000000000e+00  -2.3100280611292131e+01 -2.8925445800755813e-03 0.0000000000000000e+00  -2.3099477568939633e+01 -2.8782620248884788e-03 0.0000000000000000e+00  -2.3098747656296027e+01 -2.8496125618886563e-03 0.0000000000000000e+00  -2.3098143596848494e+01 -2.7934244610886825e-03 0.0000000000000000e+00  -2.3097699554281572e+01 -2.7283478491245410e-03 0.0000000000000000e+00  -2.3097402577647944e+01 -2.6712642430700524e-03 0.0000000000000000e+00  -2.3097217513966221e+01 -2.6291571534155160e-03 0.0000000000000000e+00  -2.3097108129998475e+01 -2.6012328053852053e-03 0.0000000000000000e+00  -2.3097045939096876e+01 -2.5841221628514909e-03 0.0000000000000000e+00  -2.3097011535263082e+01 -2.5741577204064104e-03 0.0000000000000000e+00  -2.3096992823957564e+01 -2.5686007285481097e-03 0.0000000000000000e+00  -2.3096982721273914e+01 -2.5655638794793048e-03 0.0000000000000000e+00  -2.3096977253368802e+01 -2.5639366867866885e-03 0.0000000000000000e+00  -2.3096974258846039e+01 -2.5630625078444601e-03 0.0000000000000000e+00  -2.3096972582502335e+01 -2.5625965539917118e-03 0.0000000000000000e+00  -2.3096971612811164e+01 -2.5623438119895328e-03 0.0000000000000000e+00  -2.3096971025188626e+01 -2.5622075398021916e-03 0.0000000000000000e+00  -2.3096970646492682e+01 -2.5621320843493530e-03 0.0000000000000000e+00  -2.3096970383171989e+01 -2.5620907514087399e-03 0.0000000000000000e+00  -2.3096970184210537e+01 -2.5620673828415223e-03 0.0000000000000000e+00  -2.3096970021406147e+01 -2.5620544157537693e-03 0.0000000000000000e+00  -2.3096969879071821e+01 -2.5620469599068147e-03 0.0000000000000000e+00  -2.3096969748369620e+01 -2.5620427893961722e-03 0.0000000000000000e+00  -2.3096969624320899e+01 -2.5620403613900037e-03 0.0000000000000000e+00  -2.3096969504082136e+01 -2.5620389959732756e-03 0.0000000000000000e+00  -2.3096969386040286e+01 -2.5620381948825450e-03 0.0000000000000000e+00  -2.3096969269265283e+01 -2.5620377417978060e-03 0.0000000000000000e+00  -2.3096969153230184e+01 -2.5620374747918249e-03 0.0000000000000000e+00  -2.3096969037631080e+01 -2.5620373201462026e-03 0.0000000000000000e+00  -2.3096968922298142e+01 -2.5620372284661571e-03 0.0000000000000000e+00  -2.3096968807135006e+01 -2.5620371689964614e-03 0.0000000000000000e+00  -2.3096968692097363e+01 -2.5620371318809368e-03 0.0000000000000000e+00  -2.3096968577151095e+01 -2.5620370975060701e-03 0.0000000000000000e+00  -2.3096968462308272e+01 -2.5620370769349051e-03 0.0000000000000000e+00  -2.3096968347533252e+01 -2.5620370364114750e-03 0.0000000000000000e+00  -2.3096968232899066e+01 -2.5620370321869134e-03 0.0000000000000000e+00  -2.3096968118285105e+01 -2.5620369541454937e-03 0.0000000000000000e+00  -2.3096968003943353e+01 -2.5620370070642711e-03 0.0000000000000000e+00  -2.3096967889426161e+01 -2.5620368064119196e-03 0.0000000000000000e+00  -2.3096967775590290e+01 -2.5620370686739733e-03 0.0000000000000000e+00  -2.3096967660882470e+01 -2.5620364709458094e-03 0.0000000000000000e+00  -2.3096967548167569e+01 -2.5620374346684524e-03 0.0000000000000000e+00  -2.3096967432291041e+01 -2.5620355620003966e-03 0.0000000000000000e+00  -2.3096967322532876e+01 -2.5620387643097158e-03 0.0000000000000000e+00  -2.3096967202481668e+01 -2.5620329393627396e-03 0.0000000000000000e+00  -2.3096967101014542e+01 -2.5620429501869938e-03 0.0000000000000000e+00  -2.3096966968176528e+01 -2.5620254149459057e-03 0.0000000000000000e+00  -2.3096966889678498e+01 -2.5620551083006516e-03 0.0000000000000000e+00  -2.3096966720966687e+01 -2.5620046726365629e-03 0.0000000000000000e+00  -2.3096966703173791e+01 -2.5620881588819208e-03 0.0000000000000000e+00  -2.3096966441014477e+01 -2.5619505611934510e-03 0.0000000000000000e+00  -2.3096966573863231e+01 -2.5621723799793506e-03 0.0000000000000000e+00  -2.3096966084967672e+01 -2.5618179066823964e-03 0.0000000000000000e+00  -2.3096966566743728e+01 -2.5623739350702566e-03 0.0000000000000000e+00  -2.3096965561647192e+01 -2.5615124878719253e-03 0.0000000000000000e+00  -2.3096966799720072e+01 -2.5628309371190350e-03 0.0000000000000000e+00  -2.3096964672338931e+01 -2.5608478127923796e-03 0.0000000000000000e+00  -2.3096967454053420e+01 -2.5638278477447449e-03 0.0000000000000000e+00  -2.3096962971165521e+01 -2.5594571576540563e-03 0.0000000000000000e+00  -2.3096968706166908e+01 -2.5658925724644692e-03 0.0000000000000000e+00  -2.3096959771392264e+01 -2.5564964685222962e-03 0.0000000000000000e+00  -2.3096970474871153e+01 -2.5694095062508628e-03 0.0000000000000000e+00  -2.3096954718452103e+01 -2.5499385694029942e-03 0.0000000000000000e+00  -2.3096963635153461e+01 -2.5755474761396712e-03 0.0000000000000000e+00  -2.3096910366090455e+01 -2.5530922220219359e-03 0.0000000000000000e+00  -2.3096770986952897e+01 -2.6455294601133747e-03 0.0000000000000000e+00  -2.3096334336305805e+01 -2.7537070132298298e-03 0.0000000000000000e+00  -2.3095269259278954e+01 -3.0791615385483469e-03 0.0000000000000000e+00  -2.3093626636199989e+01 -3.3543841122879114e-03 0.0000000000000000e+00  -2.3090792412296810e+01 -3.3273186252992144e-03 0.0000000000000000e+00  -2.3087771026420395e+01 -3.3586275870413460e-03 0.0000000000000000e+00  -2.3082702199381803e+01 -2.4182310268825204e-03 0.0000000000000000e+00  -2.3082441527252872e+01 -1.9935790821351209e-03 0.0000000000000000e+00  -2.3077911612323366e+01 -1.7673361005077319e-03 0.0000000000000000e+00  -2.3073141959357379e+01 -1.1449716402328164e-02 0.0000000000000000e+00  -2.3073795341405951e+01 -3.8654189766859068e-02 0.0000000000000000e+00  -2.3025407164578024e+01 0.0000000000000000e+00 0.0000000000000000e+00  -3.1213038692775150e+01 0.0000000000000000e+00 0.0000000000000000e+00  -3.1220869435330208e+01 -4.8569782721650146e-04 0.0000000000000000e+00  -3.1220469057451567e+01 1.5604911160639469e-03 0.0000000000000000e+00  -3.1219517401835169e+01 2.0542731148319410e-03 0.0000000000000000e+00  -3.1218899874931388e+01 2.1776407263499097e-03 0.0000000000000000e+00  -3.1218430618031562e+01 2.2352293677630726e-03 0.0000000000000000e+00  -3.1218109897214248e+01 2.3616772049406196e-03 0.0000000000000000e+00  -3.1217952453109245e+01 2.5362119797179140e-03 0.0000000000000000e+00  -3.1217904399136174e+01 2.6934455878910250e-03 0.0000000000000000e+00  -3.1217901386723977e+01 2.8098742396874500e-03 0.0000000000000000e+00  -3.1217909495164506e+01 2.8870038046394358e-03 0.0000000000000000e+00  -3.1217916976809573e+01 2.9351627418298652e-03 0.0000000000000000e+00  -3.1217921594160540e+01 2.9637646858886365e-03 0.0000000000000000e+00  -3.1217923943482255e+01 2.9802293017390006e-03 0.0000000000000000e+00  -3.1217925010836634e+01 2.9893453648777691e-03 0.0000000000000000e+00  -3.1217925433819548e+01 2.9943266724632620e-03 0.0000000000000000e+00  -3.1217925558397102e+01 2.9969897199118713e-03 0.0000000000000000e+00  -3.1217925541077747e+01 2.9984290391589278e-03 0.0000000000000000e+00  -3.1217925460272937e+01 2.9991963905108324e-03 0.0000000000000000e+00  -3.1217925348219868e+01 2.9996170979699846e-03 0.0000000000000000e+00  -3.1217925222243217e+01 2.9998435196490923e-03 0.0000000000000000e+00  -3.1217925088562495e+01 2.9999704615129791e-03 0.0000000000000000e+00  -3.1217924951255796e+01 3.0000394865758941e-03 0.0000000000000000e+00  -3.1217924811581220e+01 3.0000790603532637e-03 0.0000000000000000e+00  -3.1217924670713973e+01 3.0001007120532440e-03 0.0000000000000000e+00  -3.1217924528964264e+01 3.0001133763859827e-03 0.0000000000000000e+00  -3.1217924386735941e+01 3.0001202987110600e-03 0.0000000000000000e+00  -3.1217924244125378e+01 3.0001244186651206e-03 0.0000000000000000e+00  -3.1217924101291516e+01 3.0001266542365457e-03 0.0000000000000000e+00  -3.1217923958278867e+01 3.0001280033414113e-03 0.0000000000000000e+00  -3.1217923815157086e+01 3.0001287315510501e-03 0.0000000000000000e+00  -3.1217923671960083e+01 3.0001291776593684e-03 0.0000000000000000e+00  -3.1217923528727550e+01 3.0001294253570706e-03 0.0000000000000000e+00  -3.1217923385486330e+01 3.0001295891054886e-03 0.0000000000000000e+00  -3.1217923242269965e+01 3.0001296964817501e-03 0.0000000000000000e+00  -3.1217923099093820e+01 3.0001297867852036e-03 0.0000000000000000e+00  -3.1217922956006628e+01 3.0001298663781119e-03 0.0000000000000000e+00  -3.1217922812983815e+01 3.0001299598186528e-03 0.0000000000000000e+00  -3.1217922670139913e+01 3.0001300405682633e-03 0.0000000000000000e+00  -3.1217922527316851e+01 3.0001301732663524e-03 0.0000000000000000e+00  -3.1217922384867538e+01 3.0001302391249643e-03 0.0000000000000000e+00  -3.1217922242183008e+01 3.0001304617203605e-03 0.0000000000000000e+00  -3.1217922100432141e+01 3.0001304239691651e-03 0.0000000000000000e+00  -3.1217921957514807e+01 3.0001309004582285e-03 0.0000000000000000e+00  -3.1217921817293515e+01 3.0001304690341147e-03 0.0000000000000000e+00  -3.1217921672870755e+01 3.0001317238430763e-03 0.0000000000000000e+00  -3.1217921536599228e+01 3.0001299966237261e-03 0.0000000000000000e+00  -3.1217921386812399e+01 3.0001336413678849e-03 0.0000000000000000e+00  -3.1217921261367845e+01 3.0001279280903268e-03 0.0000000000000000e+00  -3.1217921095409725e+01 3.0001386533603921e-03 0.0000000000000000e+00  -3.1217920999189584e+01 3.0001213054312659e-03 0.0000000000000000e+00  -3.1217920789015913e+01 3.0001519936206020e-03 0.0000000000000000e+00  -3.1217920767505753e+01 3.0001025113390203e-03 0.0000000000000000e+00  -3.1217920446519631e+01 3.0001863819217895e-03 0.0000000000000000e+00  -3.1217920601849876e+01 3.0000532481600328e-03 0.0000000000000000e+00  -3.1217920027577165e+01 3.0002702724739611e-03 0.0000000000000000e+00  -3.1217920563988010e+01 2.9999323568404108e-03 0.0000000000000000e+00  -3.1217919465369214e+01 3.0004613638532152e-03 0.0000000000000000e+00  -3.1217920738311992e+01 2.9996512339378941e-03 0.0000000000000000e+00  -3.1217918656634119e+01 3.0008615178005260e-03 0.0000000000000000e+00  -3.1217921181686378e+01 2.9990197258399930e-03 0.0000000000000000e+00  -3.1217917409783379e+01 3.0016087415965635e-03 0.0000000000000000e+00  -3.1217921662633358e+01 2.9976269479293316e-03 0.0000000000000000e+00  -3.1217915170624700e+01 3.0027859238472335e-03 0.0000000000000000e+00  -3.1217920095918952e+01 2.9945724514730118e-03 0.0000000000000000e+00  -3.1217908474765228e+01 3.0034719569559196e-03 0.0000000000000000e+00  -3.1217900779699395e+01 2.9837904159458572e-03 0.0000000000000000e+00  -3.1217862552024165e+01 2.9812009865656641e-03 0.0000000000000000e+00  -3.1217752686428135e+01 2.8839843253353893e-03 0.0000000000000000e+00  -3.1217535618723527e+01 2.7077096260249844e-03 0.0000000000000000e+00  -3.1216962730067209e+01 2.2052116305300330e-03 0.0000000000000000e+00  -3.1216004595370208e+01 1.4226382394743743e-03 0.0000000000000000e+00  -3.1213707880314246e+01 2.0816359967914508e-04 0.0000000000000000e+00  -3.1209564032935056e+01 -1.3834962639187375e-03 0.0000000000000000e+00  -3.1202823501180674e+01 -2.4279305149251507e-03 0.0000000000000000e+00  -3.1198466385632816e+01 -9.2883092390529109e-04 0.0000000000000000e+00  -3.1194771555058587e+01 1.4835979739535668e-03 0.0000000000000000e+00  -3.1195091083474217e+01 2.4626053460680012e-03 0.0000000000000000e+00  -3.1195831256314598e+01 -1.2286342821698623e-03 0.0000000000000000e+00  -3.1219515708412075e+01 2.2108482081003349e-02 0.0000000000000000e+00  -3.1209697851007519e+01 0.0000000000000000e+00 0.0000000000000000e+00  -3.1020164226250969e+01 0.0000000000000000e+00 0.0000000000000000e+00  -3.1025195481738155e+01 -1.3046608311122444e-03 0.0000000000000000e+00  -3.1027650714525326e+01 -4.5831978820425203e-04 0.0000000000000000e+00  -3.1028654282607693e+01 -1.8569508144145191e-05 0.0000000000000000e+00  -3.1029347692961306e+01 1.0922275974270910e-04 0.0000000000000000e+00  -3.1030002710258742e+01 1.8828739029863492e-04 0.0000000000000000e+00  -3.1030598192144257e+01 3.4141719430873143e-04 0.0000000000000000e+00  -3.1031072292648705e+01 5.2294578087587799e-04 0.0000000000000000e+00  -3.1031406250794785e+01 6.5924085462751140e-04 0.0000000000000000e+00  -3.1031621442978025e+01 7.4568357538190057e-04 0.0000000000000000e+00  -3.1031752022699820e+01 7.9777720670449841e-04 0.0000000000000000e+00  -3.1031827959045913e+01 8.2899465281693907e-04 0.0000000000000000e+00  -3.1031870774496298e+01 8.4724403775303760e-04 0.0000000000000000e+00  -3.1031894413456573e+01 8.5775243324124966e-04 0.0000000000000000e+00  -3.1031907257760238e+01 8.6359505982078644e-04 0.0000000000000000e+00  -3.1031914160655582e+01 8.6682680771284963e-04 0.0000000000000000e+00  -3.1031917829719831e+01 8.6856859023741874e-04 0.0000000000000000e+00  -3.1031919759912000e+01 8.6952091443850542e-04 0.0000000000000000e+00  -3.1031920751447444e+01 8.7002973666852731e-04 0.0000000000000000e+00  -3.1031921237977045e+01 8.7031050241269804e-04 0.0000000000000000e+00  -3.1031921447669085e+01 8.7046072201391218e-04 0.0000000000000000e+00  -3.1031921505966100e+01 8.7054519581249612e-04 0.0000000000000000e+00  -3.1031921479097985e+01 8.7059056538059030e-04 0.0000000000000000e+00  -3.1031921404872140e+01 8.7061661782115800e-04 0.0000000000000000e+00  -3.1031921303295874e+01 8.7063060993261294e-04 0.0000000000000000e+00  -3.1031921186335332e+01 8.7063877911051717e-04 0.0000000000000000e+00  -3.1031921060238886e+01 8.7064311732988912e-04 0.0000000000000000e+00  -3.1031920928960410e+01 8.7064567661939059e-04 0.0000000000000000e+00  -3.1031920794509389e+01 8.7064700058694727e-04 0.0000000000000000e+00  -3.1031920658244108e+01 8.7064778755369305e-04 0.0000000000000000e+00  -3.1031920520837819e+01 8.7064818724563308e-04 0.0000000000000000e+00  -3.1031920382779909e+01 8.7064843515062052e-04 0.0000000000000000e+00  -3.1031920244307514e+01 8.7064857524627522e-04 0.0000000000000000e+00  -3.1031920105613477e+01 8.7064868744341666e-04 0.0000000000000000e+00  -3.1031919966784134e+01 8.7064878663662207e-04 0.0000000000000000e+00  -3.1031919827918205e+01 8.7064889516155189e-04 0.0000000000000000e+00  -3.1031919689027262e+01 8.7064902477899454e-04 0.0000000000000000e+00  -3.1