<?xml version="1.0"?>
<VTKFile type="UnstructuredGrid"  version="0.1"  >
<UnstructuredGrid>
<Piece  NumberOfPoints="1369" NumberOfCells="2560">
<Points>
<DataArray  type="Float64"  NumberOfComponents="3"  format="ascii">0 0 0  0.75 0 0  1.5 0 0  2.25 0 0  3 0 0  3.75 0 0  4.5 0 0  5.25 0 0  6 0 0  6.75 0 0  7.5 0 0  8.25 0 0  9 0 0  9.75 0 0  10.5 0 0  11.25 0 0  12 0 0  12.75 0 0  13.5 0 0  14.25 0 0  15 0 0  15.75 0 0  16.5 0 0  17.25 0 0  18 0 0  18.75 0 0  19.5 0 0  20.25 0 0  21 0 0  21.75 0 0  22.5 0 0  23.25 0 0  24 0 0  24.75 0 0  25.5 0 0  26.25 0 0  27 0 0  27.75 0 0  28.5 0 0  29.25 0 0  30 0 0  30.75 0 0  31.5 0 0  32.25 0 0  33 0 0  33.75 0 0  34.5 0 0  35.25 0 0  36 0 0  36.75 0 0  37.5 0 0  38.25 0 0  39 0 0  39.75 0 0  40.5 0 0  41.25 0 0  42 0 0  42.75 0 0  43.5 0 0  44.25 0 0  45 0 0  45.75 0 0  46.5 0 0  47.25 0 0  48 0 0  48.75 0 0  49.5 0 0  50.25 0 0  51 0 0  51.75 0 0  52.5 0 0  53.25 0 0  54 0 0  54.75 0 0  55.5 0 0  56.25 0 0  57 0 0  57.75 0 0  58.5 0 0  59.25 0 0  60 0 0  0 0.5 0  0.75 0.5 0  1.5 0.5 0  2.25 0.5 0  3 0.5 0  3.75 0.5 0  4.5 0.5 0  5.25 0.5 0  6 0.5 0  6.75 0.5 0  7.5 0.5 0  8.25 0.5 0  9 0.5 0  9.75 0.5 0  10.5 0.5 0  11.25 0.5 0  12 0.5 0  12.75 0.5 0  13.5 0.5 0  14.25 0.5 0  15 0.5 0  15.75 0.5 0  16.5 0.5 0  17.25 0.5 0  18 0.5 0  18.75 0.5 0  19.5 0.5 0  20.25 0.5 0  21 0.5 0  21.75 0.5 0  22.5 0.5 0  23.25 0.5 0  24 0.5 0  24.75 0.5 0  25.5 0.5 0  26.25 0.5 0  27 0.5 0  27.75 0.5 0  28.5 0.5 0  29.25 0.5 0  30 0.5 0  30.75 0.5 0  31.5 0.5 0  32.25 0.5 0  33 0.5 0  33.75 0.5 0  34.5 0.5 0  35.25 0.5 0  36 0.5 0  36.75 0.5 0  37.5 0.5 0  38.25 0.5 0  39 0.5 0  39.75 0.5 0  40.5 0.5 0  41.25 0.5 0  42 0.5 0  42.75 0.5 0  43.5 0.5 0  44.25 0.5 0  45 0.5 0  45.75 0.5 0  46.5 0.5 0  47.25 0.5 0  48 0.5 0  48.75 0.5 0  49.5 0.5 0  50.25 0.5 0  51 0.5 0  51.75 0.5 0  52.5 0.5 0  53.25 0.5 0  54 0.5 0  54.75 0.5 0  55.5 0.5 0  56.25 0.5 0  57 0.5 0  57.75 0.5 0  58.5 0.5 0  59.25 0.5 0  60 0.5 0  0 1 0  0.75 1 0  1.5 1 0  2.25 1 0  3 1 0  3.75 1 0  4.5 1 0  5.25 1 0  6 1 0  6.75 1 0  7.5 1 0  8.25 1 0  9 1 0  9.75 1 0  10.5 1 0  11.25 1 0  12 1 0  12.75 1 0  13.5 1 0  14.25 1 0  15 1 0  15.75 1 0  16.5 1 0  17.25 1 0  18 1 0  18.75 1 0  19.5 1 0  20.25 1 0  21 1 0  21.75 1 0  22.5 1 0  23.25 1 0  24 1 0  24.75 1 0  25.5 1 0  26.25 1 0  27 1 0  27.75 1 0  28.5 1 0  29.25 1 0  30 1 0  30.75 1 0  31.5 1 0  32.25 1 0  33 1 0  33.75 1 0  34.5 1 0  35.25 1 0  36 1 0  36.75 1 0  37.5 1 0  38.25 1 0  39 1 0  39.75 1 0  40.5 1 0  41.25 1 0  42 1 0  42.75 1 0  43.5 1 0  44.25 1 0  45 1 0  45.75 1 0  46.5 1 0  47.25 1 0  48 1 0  48.75 1 0  49.5 1 0  50.25 1 0  51 1 0  51.75 1 0  52.5 1 0  53.25 1 0  54 1 0  54.75 1 0  55.5 1 0  56.25 1 0  57 1 0  57.75 1 0  58.5 1 0  59.25 1 0  60 1 0  0 1.5 0  0.75 1.5 0  1.5 1.5 0  2.25 1.5 0  3 1.5 0  3.75 1.5 0  4.5 1.5 0  5.25 1.5 0  6 1.5 0  6.75 1.5 0  7.5 1.5 0  8.25 1.5 0  9 1.5 0  9.75 1.5 0  10.5 1.5 0  11.25 1.5 0  12 1.5 0  12.75 1.5 0  13.5 1.5 0  14.25 1.5 0  15 1.5 0  15.75 1.5 0  16.5 1.5 0  17.25 1.5 0  18 1.5 0  18.75 1.5 0  19.5 1.5 0  20.25 1.5 0  21 1.5 0  21.75 1.5 0  22.5 1.5 0  23.25 1.5 0  24 1.5 0  24.75 1.5 0  25.5 1.5 0  26.25 1.5 0  27 1.5 0  27.75 1.5 0  28.5 1.5 0  29.25 1.5 0  30 1.5 0  30.75 1.5 0  31.5 1.5 0  32.25 1.5 0  33 1.5 0  33.75 1.5 0  34.5 1.5 0  35.25 1.5 0  36 1.5 0  36.75 1.5 0  37.5 1.5 0  38.25 1.5 0  39 1.5 0  39.75 1.5 0  40.5 1.5 0  41.25 1.5 0  42 1.5 0  42.75 1.5 0  43.5 1.5 0  44.25 1.5 0  45 1.5 0  45.75 1.5 0  46.5 1.5 0  47.25 1.5 0  48 1.5 0  48.75 1.5 0  49.5 1.5 0  50.25 1.5 0  51 1.5 0  51.75 1.5 0  52.5 1.5 0  53.25 1.5 0  54 1.5 0  54.75 1.5 0  55.5 1.5 0  56.25 1.5 0  57 1.5 0  57.75 1.5 0  58.5 1.5 0  59.25 1.5 0  60 1.5 0  0 2 0  0.75 2 0  1.5 2 0  2.25 2 0  3 2 0  3.75 2 0  4.5 2 0  5.25 2 0  6 2 0  6.75 2 0  7.5 2 0  8.25 2 0  9 2 0  9.75 2 0  10.5 2 0  11.25 2 0  12 2 0  12.75 2 0  13.5 2 0  14.25 2 0  15 2 0  15.75 2 0  16.5 2 0  17.25 2 0  18 2 0  18.75 2 0  19.5 2 0  20.25 2 0  21 2 0  21.75 2 0  22.5 2 0  23.25 2 0  24 2 0  24.75 2 0  25.5 2 0  26.25 2 0  27 2 0  27.75 2 0  28.5 2 0  29.25 2 0  30 2 0  30.75 2 0  31.5 2 0  32.25 2 0  33 2 0  33.75 2 0  34.5 2 0  35.25 2 0  36 2 0  36.75 2 0  37.5 2 0  38.25 2 0  39 2 0  39.75 2 0  40.5 2 0  41.25 2 0  42 2 0  42.75 2 0  43.5 2 0  44.25 2 0  45 2 0  45.75 2 0  46.5 2 0  47.25 2 0  48 2 0  48.75 2 0  49.5 2 0  50.25 2 0  51 2 0  51.75 2 0  52.5 2 0  53.25 2 0  54 2 0  54.75 2 0  55.5 2 0  56.25 2 0  57 2 0  57.75 2 0  58.5 2 0  59.25 2 0  60 2 0  0 2.5 0  0.75 2.5 0  1.5 2.5 0  2.25 2.5 0  3 2.5 0  3.75 2.5 0  4.5 2.5 0  5.25 2.5 0  6 2.5 0  6.75 2.5 0  7.5 2.5 0  8.25 2.5 0  9 2.5 0  9.75 2.5 0  10.5 2.5 0  11.25 2.5 0  12 2.5 0  12.75 2.5 0  13.5 2.5 0  14.25 2.5 0  15 2.5 0  15.75 2.5 0  16.5 2.5 0  17.25 2.5 0  18 2.5 0  18.75 2.5 0  19.5 2.5 0  20.25 2.5 0  21 2.5 0  21.75 2.5 0  22.5 2.5 0  23.25 2.5 0  24 2.5 0  24.75 2.5 0  25.5 2.5 0  26.25 2.5 0  27 2.5 0  27.75 2.5 0  28.5 2.5 0  29.25 2.5 0  30 2.5 0  30.75 2.5 0  31.5 2.5 0  32.25 2.5 0  33 2.5 0  33.75 2.5 0  34.5 2.5 0  35.25 2.5 0  36 2.5 0  36.75 2.5 0  37.5 2.5 0  38.25 2.5 0  39 2.5 0  39.75 2.5 0  40.5 2.5 0  41.25 2.5 0  42 2.5 0  42.75 2.5 0  43.5 2.5 0  44.25 2.5 0  45 2.5 0  45.75 2.5 0  46.5 2.5 0  47.25 2.5 0  48 2.5 0  48.75 2.5 0  49.5 2.5 0  50.25 2.5 0  51 2.5 0  51.75 2.5 0  52.5 2.5 0  53.25 2.5 0  54 2.5 0  54.75 2.5 0  55.5 2.5 0  56.25 2.5 0  57 2.5 0  57.75 2.5 0  58.5 2.5 0  59.25 2.5 0  60 2.5 0  0 3 0  0.75 3 0  1.5 3 0  2.25 3 0  3 3 0  3.75 3 0  4.5 3 0  5.25 3 0  6 3 0  6.75 3 0  7.5 3 0  8.25 3 0  9 3 0  9.75 3 0  10.5 3 0  11.25 3 0  12 3 0  12.75 3 0  13.5 3 0  14.25 3 0  15 3 0  15.75 3 0  16.5 3 0  17.25 3 0  18 3 0  18.75 3 0  19.5 3 0  20.25 3 0  21 3 0  21.75 3 0  22.5 3 0  23.25 3 0  24 3 0  24.75 3 0  25.5 3 0  26.25 3 0  27 3 0  27.75 3 0  28.5 3 0  29.25 3 0  30 3 0  30.75 3 0  31.5 3 0  32.25 3 0  33 3 0  33.75 3 0  34.5 3 0  35.25 3 0  36 3 0  36.75 3 0  37.5 3 0  38.25 3 0  39 3 0  39.75 3 0  40.5 3 0  41.25 3 0  42 3 0  42.75 3 0  43.5 3 0  44.25 3 0  45 3 0  45.75 3 0  46.5 3 0  47.25 3 0  48 3 0  48.75 3 0  49.5 3 0  50.25 3 0  51 3 0  51.75 3 0  52.5 3 0  53.25 3 0  54 3 0  54.75 3 0  55.5 3 0  56.25 3 0  57 3 0  57.75 3 0  58.5 3 0  59.25 3 0  60 3 0  0 3.5 0  0.75 3.5 0  1.5 3.5 0  2.25 3.5 0  3 3.5 0  3.75 3.5 0  4.5 3.5 0  5.25 3.5 0  6 3.5 0  6.75 3.5 0  7.5 3.5 0  8.25 3.5 0  9 3.5 0  9.75 3.5 0  10.5 3.5 0  11.25 3.5 0  12 3.5 0  12.75 3.5 0  13.5 3.5 0  14.25 3.5 0  15 3.5 0  15.75 3.5 0  16.5 3.5 0  17.25 3.5 0  18 3.5 0  18.75 3.5 0  19.5 3.5 0  20.25 3.5 0  21 3.5 0  21.75 3.5 0  22.5 3.5 0  23.25 3.5 0  24 3.5 0  24.75 3.5 0  25.5 3.5 0  26.25 3.5 0  27 3.5 0  27.75 3.5 0  28.5 3.5 0  29.25 3.5 0  30 3.5 0  30.75 3.5 0  31.5 3.5 0  32.25 3.5 0  33 3.5 0  33.75 3.5 0  34.5 3.5 0  35.25 3.5 0  36 3.5 0  36.75 3.5 0  37.5 3.5 0  38.25 3.5 0  39 3.5 0  39.75 3.5 0  40.5 3.5 0  41.25 3.5 0  42 3.5 0  42.75 3.5 0  43.5 3.5 0  44.25 3.5 0  45 3.5 0  45.75 3.5 0  46.5 3.5 0  47.25 3.5 0  48 3.5 0  48.75 3.5 0  49.5 3.5 0  50.25 3.5 0  51 3.5 0  51.75 3.5 0  52.5 3.5 0  53.25 3.5 0  54 3.5 0  54.75 3.5 0  55.5 3.5 0  56.25 3.5 0  57 3.5 0  57.75 3.5 0  58.5 3.5 0  59.25 3.5 0  60 3.5 0  0 4 0  0.75 4 0  1.5 4 0  2.25 4 0  3 4 0  3.75 4 0  4.5 4 0  5.25 4 0  6 4 0  6.75 4 0  7.5 4 0  8.25 4 0  9 4 0  9.75 4 0  10.5 4 0  11.25 4 0  12 4 0  12.75 4 0  13.5 4 0  14.25 4 0  15 4 0  15.75 4 0  16.5 4 0  17.25 4 0  18 4 0  18.75 4 0  19.5 4 0  20.25 4 0  21 4 0  21.75 4 0  22.5 4 0  23.25 4 0  24 4 0  24.75 4 0  25.5 4 0  26.25 4 0  27 4 0  27.75 4 0  28.5 4 0  29.25 4 0  30 4 0  30.75 4 0  31.5 4 0  32.25 4 0  33 4 0  33.75 4 0  34.5 4 0  35.25 4 0  36 4 0  36.75 4 0  37.5 4 0  38.25 4 0  39 4 0  39.75 4 0  40.5 4 0  41.25 4 0  42 4 0  42.75 4 0  43.5 4 0  44.25 4 0  45 4 0  45.75 4 0  46.5 4 0  47.25 4 0  48 4 0  48.75 4 0  49.5 4 0  50.25 4 0  51 4 0  51.75 4 0  52.5 4 0  53.25 4 0  54 4 0  54.75 4 0  55.5 4 0  56.25 4 0  57 4 0  57.75 4 0  58.5 4 0  59.25 4 0  60 4 0  0.375 0.25 0  1.125 0.25 0  1.875 0.25 0  2.625 0.25 0  3.375 0.25 0  4.125 0.25 0  4.875 0.25 0  5.625 0.25 0  6.375 0.25 0  7.125 0.25 0  7.875 0.25 0  8.625 0.25 0  9.375 0.25 0  10.125 0.25 0  10.875 0.25 0  11.625 0.25 0  12.375 0.25 0  13.125 0.25 0  13.875 0.25 0  14.625 0.25 0  15.375 0.25 0  16.125 0.25 0  16.875 0.25 0  17.625 0.25 0  18.375 0.25 0  19.125 0.25 0  19.875 0.25 0  20.625 0.25 0  21.375 0.25 0  22.125 0.25 0  22.875 0.25 0  23.625 0.25 0  24.375 0.25 0  25.125 0.25 0  25.875 0.25 0  26.625 0.25 0  27.375 0.25 0  28.125 0.25 0  28.875 0.25 0  29.625 0.25 0  30.375 0.25 0  31.125 0.25 0  31.875 0.25 0  32.625 0.25 0  33.375 0.25 0  34.125 0.25 0  34.875 0.25 0  35.625 0.25 0  36.375 0.25 0  37.125 0.25 0  37.875 0.25 0  38.625 0.25 0  39.375 0.25 0  40.125 0.25 0  40.875 0.25 0  41.625 0.25 0  42.375 0.25 0  43.125 0.25 0  43.875 0.25 0  44.625 0.25 0  45.375 0.25 0  46.125 0.25 0  46.875 0.25 0  47.625 0.25 0  48.375 0.25 0  49.125 0.25 0  49.875 0.25 0  50.625 0.25 0  51.375 0.25 0  52.125 0.25 0  52.875 0.25 0  53.625 0.25 0  54.375 0.25 0  55.125 0.25 0  55.875 0.25 0  56.625 0.25 0  57.375 0.25 0  58.125 0.25 0  58.875 0.25 0  59.625 0.25 0  0.375 0.75 0  1.125 0.75 0  1.875 0.75 0  2.625 0.75 0  3.375 0.75 0  4.125 0.75 0  4.875 0.75 0  5.625 0.75 0  6.375 0.75 0  7.125 0.75 0  7.875 0.75 0  8.625 0.75 0  9.375 0.75 0  10.125 0.75 0  10.875 0.75 0  11.625 0.75 0  12.375 0.75 0  13.125 0.75 0  13.875 0.75 0  14.625 0.75 0  15.375 0.75 0  16.125 0.75 0  16.875 0.75 0  17.625 0.75 0  18.375 0.75 0  19.125 0.75 0  19.875 0.75 0  20.625 0.75 0  21.375 0.75 0  22.125 0.75 0  22.875 0.75 0  23.625 0.75 0  24.375 0.75 0  25.125 0.75 0  25.875 0.75 0  26.625 0.75 0  27.375 0.75 0  28.125 0.75 0  28.875 0.75 0  29.625 0.75 0  30.375 0.75 0  31.125 0.75 0  31.875 0.75 0  32.625 0.75 0  33.375 0.75 0  34.125 0.75 0  34.875 0.75 0  35.625 0.75 0  36.375 0.75 0  37.125 0.75 0  37.875 0.75 0  38.625 0.75 0  39.375 0.75 0  40.125 0.75 0  40
[...]
<PointData  Vectors="f_8-0"> 
<DataArray  type="Float64"  Name="f_8-0"  NumberOfComponents="3" format="ascii">0.0000000000000000e+00 0.0000000000000000e+00 0.0000000000000000e+00  0.0000000000000000e+00 0.0000000000000000e+00 0.0000000000000000e+00  0.0000000000000000e+00 0.0000000000000000e+00 0.0000000000000000e+00  0.0000000000000000e+00 0.0000000000000000e+00 0.0000000000000000e+00  0.0000000000000000e+00 0.0000000000000000e+00 0.0000000000000000e+00  0.0000000000000000e+00 0.0000000000000000e+00 0.0000000000000000e+00  0.0000000000000000e+00 0.0000000000000000e+00 0.0000000000000000e+00  0.0000000000000000e+00 0.0000000000000000e+00 0.0000000000000000e+00  0.0000000000000000e+00 0.0000000000000000e+00 0.0000000000000000e+00  0.0000000000000000e+00 0.0000000000000000e+00 0.0000000000000000e+00  0.0000000000000000e+00 0.0000000000000000e+00 0.0000000000000000e+00  0.0000000000000000e+00 0.0000000000000000e+00 0.0000000000000000e+00  0.0000000000000000e+00 0.0000000000000000e+00 0.0000000000000000e+00  0.0000000000000000e+00 0.0000000000000000e+00 0.0000000000000000e+00  0.0000000000000000e+00 0.0000000000000000e+00 0.0000000000000000e+00  0.0000000000000000e+00 0.0000000000000000e+00 0.0000000000000000e+00  0.0000000000000000e+00 0.0000000000000000e+00 0.0000000000000000e+00  0.0000000000000000e+00 0.0000000000000000e+00 0.0000000000000000e+00  0.0000000000000000e+00 0.0000000000000000e+00 0.0000000000000000e+00  0.0000000000000000e+00 0.0000000000000000e+00 0.0000000000000000e+00  0.0000000000000000e+00 0.0000000000000000e+00 0.0000000000000000e+00  0.0000000000000000e+00 0.0000000000000000e+00 0.0000000000000000e+00  0.0000000000000000e+00 0.0000000000000000e+00 0.0000000000000000e+00  0.0000000000000000e+00 0.0000000000000000e+00 0.0000000000000000e+00  0.0000000000000000e+00 0.0000000000000000e+00 0.0000000000000000e+00  0.0000000000000000e+00 0.0000000000000000e+00 0.0000000000000000e+00  0.0000000000000000e+00 0.0000000000000000e+00 0.0000000000000000e+00  0.0000000000000000e+00 0.0000000000000000e+00 0.0000000000000000e+00  0.0000000000000000e+00 0.0000000000000000e+00 0.0000000000000000e+00  0.0000000000000000e+00 0.0000000000000000e+00 0.0000000000000000e+00  0.0000000000000000e+00 0.0000000000000000e+00 0.0000000000000000e+00  0.0000000000000000e+00 0.0000000000000000e+00 0.0000000000000000e+00  0.0000000000000000e+00 0.0000000000000000e+00 0.0000000000000000e+00  0.0000000000000000e+00 0.0000000000000000e+00 0.0000000000000000e+00  0.0000000000000000e+00 0.0000000000000000e+00 0.0000000000000000e+00  0.0000000000000000e+00 0.0000000000000000e+00 0.0000000000000000e+00  0.0000000000000000e+00 0.0000000000000000e+00 0.0000000000000000e+00  0.0000000000000000e+00 0.0000000000000000e+00 0.0000000000000000e+00  0.0000000000000000e+00 0.0000000000000000e+00 0.0000000000000000e+00  0.0000000000000000e+00 0.0000000000000000e+00 0.0000000000000000e+00  0.0000000000000000e+00 0.0000000000000000e+00 0.0000000000000000e+00  0.0000000000000000e+00 0.0000000000000000e+00 0.0000000000000000e+00  0.0000000000000000e+00 0.0000000000000000e+00 0.0000000000000000e+00  0.0000000000000000e+00 0.0000000000000000e+00 0.0000000000000000e+00  0.0000000000000000e+00 0.0000000000000000e+00 0.0000000000000000e+00  0.0000000000000000e+00 0.0000000000000000e+00 0.0000000000000000e+00  0.0000000000000000e+00 0.0000000000000000e+00 0.0000000000000000e+00  0.0000000000000000e+00 0.0000000000000000e+00 0.0000000000000000e+00  0.0000000000000000e+00 0.0000000000000000e+00 0.0000000000000000e+00  0.0000000000000000e+00 0.0000000000000000e+00 0.0000000000000000e+00  0.0000000000000000e+00 0.0000000000000000e+00 0.0000000000000000e+00  0.0000000000000000e+00 0.0000000000000000e+00 0.0000000000000000e+00  0.0000000000000000e+00 0.0000000000000000e+00 0.0000000000000000e+00  0.0000000000000000e+00 0.0000000000000000e+00 0.0000000000000000e+00  0.0000000000000000e+00 0.0000000000000000e+00 0.0000000000000000e+00  0.0000000000000000e+00 0.0000000000000000e+00 0.0000000000000000e+00  0.0000000000000000e+00 0.0000000000000000e+00 0.0000000000000000e+00  0.0000000000000000e+00 0.0000000000000000e+00 0.0000000000000000e+00  0.0000000000000000e+00 0.0000000000000000e+00 0.0000000000000000e+00  0.0000000000000000e+00 0.0000000000000000e+00 0.0000000000000000e+00  0.0000000000000000e+00 0.0000000000000000e+00 0.0000000000000000e+00  0.0000000000000000e+00 0.0000000000000000e+00 0.0000000000000000e+00  0.0000000000000000e+00 0.0000000000000000e+00 0.0000000000000000e+00  0.0000000000000000e+00 0.0000000000000000e+00 0.0000000000000000e+00  0.0000000000000000e+00 0.0000000000000000e+00 0.0000000000000000e+00  0.0000000000000000e+00 0.0000000000000000e+00 0.0000000000000000e+00  0.0000000000000000e+00 0.0000000000000000e+00 0.0000000000000000e+00  0.0000000000000000e+00 0.0000000000000000e+00 0.0000000000000000e+00  0.0000000000000000e+00 0.0000000000000000e+00 0.0000000000000000e+00  0.0000000000000000e+00 0.0000000000000000e+00 0.0000000000000000e+00  0.0000000000000000e+00 0.0000000000000000e+00 0.0000000000000000e+00  0.0000000000000000e+00 0.0000000000000000e+00 0.0000000000000000e+00  0.0000000000000000e+00 0.0000000000000000e+00 0.0000000000000000e+00  0.0000000000000000e+00 0.0000000000000000e+00 0.0000000000000000e+00  0.0000000000000000e+00 0.0000000000000000e+00 0.0000000000000000e+00  0.0000000000000000e+00 0.0000000000000000e+00 0.0000000000000000e+00  0.0000000000000000e+00 0.0000000000000000e+00 0.0000000000000000e+00  0.0000000000000000e+00 0.0000000000000000e+00 0.0000000000000000e+00  0.0000000000000000e+00 0.0000000000000000e+00 0.0000000000000000e+00  0.0000000000000000e+00 0.0000000000000000e+00 0.0000000000000000e+00  0.0000000000000000e+00 0.0000000000000000e+00 0.0000000000000000e+00  1.4495531481164923e+01 0.0000000000000000e+00 0.0000000000000000e+00  1.4544177448286501e+01 -7.0441340039127276e-02 0.0000000000000000e+00  1.4529658765390371e+01 -2.3108030557323102e-02 0.0000000000000000e+00  1.4528338819653788e+01 -6.2105404310378804e-03 0.0000000000000000e+00  1.4524272940865082e+01 -4.9328076801382192e-03 0.0000000000000000e+00  1.4517841838016261e+01 -3.8097433047762359e-03 0.0000000000000000e+00  1.4517810219113022e+01 -6.1406845991307810e-03 0.0000000000000000e+00  1.4517965721458289e+01 -6.3965891336400498e-03 0.0000000000000000e+00  1.4521565854329477e+01 -7.6052811947181316e-03 0.0000000000000000e+00  1.4525383956183955e+01 -7.4165922162600173e-03 0.0000000000000000e+00  1.4529617494547280e+01 -7.3590485619120039e-03 0.0000000000000000e+00  1.4532505952814757e+01 -6.7779836702882412e-03 0.0000000000000000e+00  1.4534497688114946e+01 -6.4678508430397073e-03 0.0000000000000000e+00  1.4535460222626172e+01 -6.1625332939461794e-03 0.0000000000000000e+00  1.4535968988350852e+01 -6.0666150088026635e-03 0.0000000000000000e+00  1.4536152444796253e+01 -5.9947479747296875e-03 0.0000000000000000e+00  1.4536248039948891e+01 -5.9860418236563724e-03 0.0000000000000000e+00  1.4536279897906924e+01 -5.9730469181408421e-03 0.0000000000000000e+00  1.4536302520791244e+01 -5.9730701179747112e-03 0.0000000000000000e+00  1.4536312136762607e+01 -5.9700787639676524e-03 0.0000000000000000e+00  1.4536319249510843e+01 -5.9694187361387444e-03 0.0000000000000000e+00  1.4536323278430007e+01 -5.9688978232526578e-03 0.0000000000000000e+00  1.4536325317994544e+01 -5.9681163157553905e-03 0.0000000000000000e+00  1.4536327118990787e+01 -5.9683337675632189e-03 0.0000000000000000e+00  1.4536327498674437e+01 -5.9677380551609593e-03 0.0000000000000000e+00  1.4536328355221771e+01 -5.9680641108552446e-03 0.0000000000000000e+00  1.4536328303168668e+01 -5.9676743423804435e-03 0.0000000000000000e+00  1.4536328734268633e+01 -5.9679245473715286e-03 0.0000000000000000e+00  1.4536328626732832e+01 -5.9676928514353572e-03 0.0000000000000000e+00  1.4536328850126109e+01 -5.9678484511881307e-03 0.0000000000000000e+00  1.4536328774425428e+01 -5.9677210166820521e-03 0.0000000000000000e+00  1.4536328891594289e+01 -5.9678070954008238e-03 0.0000000000000000e+00  1.4536328852685248e+01 -5.9677416465426679e-03 0.0000000000000000e+00  1.4536328915433941e+01 -5.9677854552391734e-03 0.0000000000000000e+00  1.4536328901465067e+01 -5.9677538832406700e-03 0.0000000000000000e+00  1.4536328937117428e+01 -5.9677747295925716e-03 0.0000000000000000e+00  1.4536328937146155e+01 -5.9677603606366316e-03 0.0000000000000000e+00  1.4536328959855803e+01 -5.9677697306386290e-03 0.0000000000000000e+00  1.4536328966860493e+01 -5.9677635400784768e-03 0.0000000000000000e+00  1.4536328983622305e+01 -5.9677675503891081e-03 0.0000000000000000e+00  1.4536328993741904e+01 -5.9677650190011243e-03 0.0000000000000000e+00  1.4536329007790307e+01 -5.9677666635925821e-03 0.0000000000000000e+00  1.4536329019076105e+01 -5.9677656774667206e-03 0.0000000000000000e+00  1.4536329031786057e+01 -5.9677663257723685e-03 0.0000000000000000e+00  1.4536329043299050e+01 -5.9677659563599876e-03 0.0000000000000000e+00  1.4536329055197456e+01 -5.9677662023386461e-03 0.0000000000000000e+00  1.4536329066490604e+01 -5.9677660659595202e-03 0.0000000000000000e+00  1.4536329077750745e+01 -5.9677661518440454e-03 0.0000000000000000e+00  1.4536329088611385e+01 -5.9677660992118690e-03 0.0000000000000000e+00  1.4536329099272800e+01 -5.9677661246773971e-03 0.0000000000000000e+00  1.4536329109607248e+01 -5.9677661026520451e-03 0.0000000000000000e+00  1.4536329119683911e+01 -5.9677661068209932e-03 0.0000000000000000e+00  1.4536329129458659e+01 -5.9677660961274743e-03 0.0000000000000000e+00  1.4536329138956960e+01 -5.9677660896913084e-03 0.0000000000000000e+00  1.4536329148156467e+01 -5.9677660809416217e-03 0.0000000000000000e+00  1.4536329157067424e+01 -5.9677660612950508e-03 0.0000000000000000e+00  1.4536329165668946e+01 -5.9677660539623895e-03 0.0000000000000000e+00  1.4536329173980381e+01 -5.9677660288961834e-03 0.0000000000000000e+00  1.4536329182023406e+01 -5.9677660892184358e-03 0.0000000000000000e+00  1.4536329189986159e+01 -5.9677662092275929e-03 0.0000000000000000e+00  1.4536329198291208e+01 -5.9677667993254576e-03 0.0000000000000000e+00  1.4536329208210020e+01 -5.9677680877694211e-03 0.0000000000000000e+00  1.4536329222590714e+01 -5.9677717053521172e-03 0.0000000000000000e+00  1.4536329248333999e+01 -5.9677795245460311e-03 0.0000000000000000e+00  1.4536329300555931e+01 -5.9677982899102467e-03 0.0000000000000000e+00  1.4536329412842848e+01 -5.9678381543625258e-03 0.0000000000000000e+00  1.4536329656331823e+01 -5.9679270849218010e-03 0.0000000000000000e+00  1.4536330181658473e+01 -5.9681128468388814e-03 0.0000000000000000e+00  1.4536331298554767e+01 -5.9685080282872796e-03 0.0000000000000000e+00  1.4536333638680524e+01 -5.9693164498477924e-03 0.0000000000000000e+00  1.4536338464380188e+01 -5.9709965725125540e-03 0.0000000000000000e+00  1.4536348317175847e+01 -5.9744885817848642e-03 0.0000000000000000e+00  1.4536368375197421e+01 -5.9819396108884660e-03 0.0000000000000000e+00  1.4536409374016353e+01 -5.9979945077751574e-03 0.0000000000000000e+00  1.4536494790845730e+01 -6.0338763436222015e-03 0.0000000000000000e+00  1.4536681478628362e+01 -6.1153451378793845e-03 0.0000000000000000e+00  1.4537121781589542e+01 -6.2929838765146198e-03 0.0000000000000000e+00  1.4538300836036402e+01 -6.5925865341064952e-03 0.0000000000000000e+00  1.4541794502759762e+01 -6.6763077778019602e-03 0.0000000000000000e+00  1.4557580715527545e+01 1.0447652695107885e-03 0.0000000000000000e+00  1.4617734711571446e+01 0.0000000000000000e+00 0.0000000000000000e+00  2.4676623610803169e+01 0.0000000000000000e+00 0.0000000000000000e+00  2.4716024857078821e+01 3.8959030929245034e-02 0.0000000000000000e+00  2.4678400264440207e+01 3.6633512209329304e-03 0.0000000000000000e+00  2.4678262281457698e+01 1.1707863320638848e-02 0.0000000000000000e+00  2.4670780689935238e+01 9.0494723133152290e-03 0.0000000000000000e+00  2.4672959072437148e+01 4.8712586458562693e-03 0.0000000000000000e+00  2.4671310079920833e+01 2.7439722405461970e-03 0.0000000000000000e+00  2.4673039746075322e+01 -2.6916907469509372e-05 0.0000000000000000e+00  2.4672871900642249e+01 -1.1638003482983977e-03 0.0000000000000000e+00  2.4675334604511569e+01 -2.5281174716392262e-03 0.0000000000000000e+00  2.4678091457418116e+01 -1.7819247173102503e-03 0.0000000000000000e+00  2.4681375377850902e+01 -7.7364622534042797e-04 0.0000000000000000e+00  2.4683433105290970e+01 5.1661856094606688e-04 0.0000000000000000e+00  2.4684927301399014e+01 1.2673833233824397e-03 0.0000000000000000e+00  2.4685609297509348e+01 1.7858524524240970e-03 0.0000000000000000e+00  2.4686033166333029e+01 1.9844644588316866e-03 0.0000000000000000e+00  2.4686176777470479e+01 2.1020659822877084e-03 0.0000000000000000e+00  2.4686275358413113e+01 2.1316221823764066e-03 0.0000000000000000e+00  2.4686299830225703e+01 2.1555611252258460e-03 0.0000000000000000e+00  2.4686325890933738e+01 2.1602121079083176e-03 0.0000000000000000e+00  2.4686331295012344e+01 2.1665311340995697e-03 0.0000000000000000e+00  2.4686339547652587e+01 2.1683879586426738e-03 0.0000000000000000e+00  2.4686341540419175e+01 2.1700903433935436e-03 0.0000000000000000e+00  2.4686344061997076e+01 2.1711894939671658e-03 0.0000000000000000e+00  2.4686345077253012e+01 2.1714152188024387e-03 0.0000000000000000e+00  2.4686345668433471e+01 2.1720833626423593e-03 0.0000000000000000e+00  2.4686346273512857e+01 2.1719272869760949e-03 0.0000000000000000e+00  2.4686346304732787e+01 2.1723246412846619e-03 0.0000000000000000e+00  2.4686346686958142e+01 2.1721418382787670e-03 0.0000000000000000e+00  2.4686346613565906e+01 2.1723679687686999e-03 0.0000000000000000e+00  2.4686346857644182e+01 2.1722403789522482e-03 0.0000000000000000e+00  2.4686346804270531e+01 2.1723620509573787e-03 0.0000000000000000e+00  2.4686346961817971e+01 2.1722881389016555e-03 0.0000000000000000e+00  2.4686346946981267e+01 2.1723498295514098e-03 0.0000000000000000e+00  2.4686347053036933e+01 2.1723114608655060e-03 0.0000000000000000e+00  2.4686347067818303e+01 2.1723409760905331e-03 0.0000000000000000e+00  2.4686347145353633e+01 2.1723226106329088e-03 0.0000000000000000e+00  2.4686347178067972e+01 2.1723360003589099e-03 0.0000000000000000e+00  2.4686347240911537e+01 2.1723278036644774e-03 0.0000000000000000e+00  2.4686347283124228e+01 2.1723336250245944e-03 0.0000000000000000e+00  2.4686347338853604e+01 2.1723302347212243e-03 0.0000000000000000e+00  2.4686347385568070e+01 2.1723327341940514e-03 0.0000000000000000e+00  2.4686347437941720e+01 2.1723314958764354e-03 0.0000000000000000e+00  2.4686347486485211e+01 2.1723326360304483e-03 0.0000000000000000e+00  2.4686347537169947e+01 2.1723323346940736e-03 0.0000000000000000e+00  2.4686347586182144e+01 2.1723329556657314e-03 0.0000000000000000e+00  2.4686347635833283e+01 2.1723330540463145e-03 0.0000000000000000e+00  2.4686347684638587e+01 2.1723335034005676e-03 0.0000000000000000e+00  2.4686347733450944e+01 2.1723337728499072e-03 0.0000000000000000e+00  2.4686347781707457e+01 2.1723341709927457e-03 0.0000000000000000e+00  2.4686347829708328e+01 2.1723345079204233e-03 0.0000000000000000e+00  2.4686347877247989e+01 2.1723348919878154e-03 0.0000000000000000e+00  2.4686347924430944e+01 2.1723352487793362e-03 0.0000000000000000e+00  2.4686347971188983e+01 2.1723356342714748e-03 0.0000000000000000e+00  2.4686348017551474e+01 2.1723359980013882e-03 0.0000000000000000e+00  2.4686348063499281e+01 2.1723364076209912e-03 0.0000000000000000e+00  2.4686348109017139e+01 2.1723367719725271e-03 0.0000000000000000e+00  2.4686348154096333e+01 2.1723372256496035e-03 0.0000000000000000e+00  2.4686348198655814e+01 2.1723374992699035e-03 0.0000000000000000e+00  2.4686348242669347e+01 2.1723378205210269e-03 0.0000000000000000e+00  2.4686348285893335e+01 2.1723373049299158e-03 0.0000000000000000e+00  2.4686348328252297e+01 2.1723359481682939e-03 0.0000000000000000e+00  2.4686348369153460e+01 2.1723306556947213e-03 0.0000000000000000e+00  2.4686348408416528e+01 2.1723189468459089e-03 0.0000000000000000e+00  2.4686348444756309e+01 2.1722886615830601e-03 0.0000000000000000e+00  2.4686348478095102e+01 2.1722233769713253e-03 0.0000000000000000e+00  2.4686348506511685e+01 2.1720733361198820e-03 0.0000000000000000e+00  2.4686348531894208e+01 2.1717578268794263e-03 0.0000000000000000e+00  2.4686348551395117e+01 2.1710843790818434e-03 0.0000000000000000e+00  2.4686348564798053e+01 2.1697266710044767e-03 0.0000000000000000e+00  2.4686348554550317e+01 2.1669435324959178e-03 0.0000000000000000e+00  2.4686348545339019e+01 2.1611673170793709e-03 0.0000000000000000e+00  2.4686348622065044e+01 2.1488410980899726e-03 0.0000000000000000e+00  2.4686348943836133e+01 2.1227987182845225e-03 0.0000000000000000e+00  2.4686349896814960e+01 2.0656175964929770e-03 0.0000000000000000e+00  2.4686354988678119e+01 1.9335449952142610e-03 0.0000000000000000e+00  2.4686378717388916e+01 1.6240625395914430e-03 0.0000000000000000e+00  2.4686468961268542e+01 8.8325545003694814e-04 0.0000000000000000e+00  2.4686947102897243e+01 -7.9367838849031438e-04 0.0000000000000000e+00  2.4687029076244791e+01 -5.4570043342035022e-03 0.0000000000000000e+00  2.4679298374438499e+01 0.0000000000000000e+00 0.0000000000000000e+00  2.6690913678526293e+01 0.0000000000000000e+00 0.0000000000000000e+00  2.6654883558459574e+01 -1.7841170210349047e-02 0.0000000000000000e+00  2.6666786934083774e+01 2.8132319025547131e-03 0.0000000000000000e+00  2.6670487169238207e+01 -3.2995618034059257e-04 0.0000000000000000e+00  2.6687286440164737e+01 3.4565710539190765e-03 0.0000000000000000e+00  2.6689283300443417e+01 2.7754969137876841e-03 0.0000000000000000e+00  2.6694236882426921e+01 7.4490559714300466e-04 0.0000000000000000e+00  2.6691367885543105e+01 3.5842732613428172e-04 0.0000000000000000e+00  2.6689961688438860e+01 -1.2856427722965794e-03 0.0000000000000000e+00  2.6684966623653704e+01 -2.4788838584497591e-03 0.0000000000000000e+00  2.6681535918242165e+01 -2.8417900668405885e-03 0.0000000000000000e+00  2.6678126321936453e+01 -1.7669857189186100e-03 0.0000000000000000e+00  2.6676510821507147e+01 -6.6479267703601339e-04 0.0000000000000000e+00  2.6675314288456718e+01 2.9087798033490092e-04 0.0000000000000000e+00  2.6674931986276775e+01 8.0915941977079218e-04 0.0000000000000000e+00  2.6674639332370528e+01 1.1138929627585073e-03 0.0000000000000000e+00  2.6674591478030010e+01 1.2348484966059371e-03 0.0000000000000000e+00  2.6674519410753771e+01 1.2998080591150542e-03 0.0000000000000000e+00  2.6674516888296775e+01 1.3209623731992098e-03 0.0000000000000000e+00  2.6674493442078965e+01 1.3347811442281211e-03 0.0000000000000000e+00  2.6674493564753117e+01 1.3396029030834889e-03 0.0000000000000000e+00  2.6674485273067319e+01 1.3433160639575057e-03 0.0000000000000000e+00  2.6674485072792763e+01 1.3451341953416645e-03 0.0000000000000000e+00  2.6674482517318655e+01 1.3461319950806864e-03 0.0000000000000000e+00  2.6674482111928100e+01 1.3469784098857434e-03 0.0000000000000000e+00  2.6674481598965350e+01 1.3471348818863158e-03 0.0000000000000000e+00  2.6674481191616966e+01 1.3475584933144889e-03 0.0000000000000000e+00  2.6674481289011521e+01 1.3475002107538043e-03 0.0000000000000000e+00  2.6674480983839523e+01 1.3477190983360516e-03 0.0000000000000000e+00  2.6674481195785553e+01 1.3476407142660044e-03 0.0000000000000000e+00  2.6674481010032409e+01 1.3477534330179767e-03 0.0000000000000000e+00  2.6674481195097226e+01 1.3476986706703043e-03 0.0000000000000000e+00  2.6674481105487025e+01 1.3477550300475833e-03 0.0000000000000000e+00  2.6674481241898764e+01 1.3477237970555527e-03 0.0000000000000000e+00  2.6674481216796650e+01 1.3477507954017132e-03 0.0000000000000000e+00  2.6674481315519063e+01 1.3477348532281508e-03 0.0000000000000000e+00  2.6674481328767676e+01 1.3477471941912469e-03 0.0000000000000000e+00  2.6674481404461918e+01 1.3477396864597800e-03 0.0000000000000000e+00  2.6674481438467943e+01 1.3477451005036590e-03 0.0000000000000000e+00  2.6674481501850515e+01 1.3477418294772416e-03 0.0000000000