<?xml version="1.0"?>
<VTKFile type="UnstructuredGrid"  version="0.1"  >
<UnstructuredGrid>
<Piece  NumberOfPoints="1369" NumberOfCells="2560">
<Points>
<DataArray  type="Float64"  NumberOfComponents="3"  format="ascii">0 0 0  0.75 0 0  1.5 0 0  2.25 0 0  3 0 0  3.75 0 0  4.5 0 0  5.25 0 0  6 0 0  6.75 0 0  7.5 0 0  8.25 0 0  9 0 0  9.75 0 0  10.5 0 0  11.25 0 0  12 0 0  12.75 0 0  13.5 0 0  14.25 0 0  15 0 0  15.75 0 0  16.5 0 0  17.25 0 0  18 0 0  18.75 0 0  19.5 0 0  20.25 0 0  21 0 0  21.75 0 0  22.5 0 0  23.25 0 0  24 0 0  24.75 0 0  25.5 0 0  26.25 0 0  27 0 0  27.75 0 0  28.5 0 0  29.25 0 0  30 0 0  30.75 0 0  31.5 0 0  32.25 0 0  33 0 0  33.75 0 0  34.5 0 0  35.25 0 0  36 0 0  36.75 0 0  37.5 0 0  38.25 0 0  39 0 0  39.75 0 0  40.5 0 0  41.25 0 0  42 0 0  42.75 0 0  43.5 0 0  44.25 0 0  45 0 0  45.75 0 0  46.5 0 0  47.25 0 0  48 0 0  48.75 0 0  49.5 0 0  50.25 0 0  51 0 0  51.75 0 0  52.5 0 0  53.25 0 0  54 0 0  54.75 0 0  55.5 0 0  56.25 0 0  57 0 0  57.75 0 0  58.5 0 0  59.25 0 0  60 0 0  0 0.5 0  0.75 0.5 0  1.5 0.5 0  2.25 0.5 0  3 0.5 0  3.75 0.5 0  4.5 0.5 0  5.25 0.5 0  6 0.5 0  6.75 0.5 0  7.5 0.5 0  8.25 0.5 0  9 0.5 0  9.75 0.5 0  10.5 0.5 0  11.25 0.5 0  12 0.5 0  12.75 0.5 0  13.5 0.5 0  14.25 0.5 0  15 0.5 0  15.75 0.5 0  16.5 0.5 0  17.25 0.5 0  18 0.5 0  18.75 0.5 0  19.5 0.5 0  20.25 0.5 0  21 0.5 0  21.75 0.5 0  22.5 0.5 0  23.25 0.5 0  24 0.5 0  24.75 0.5 0  25.5 0.5 0  26.25 0.5 0  27 0.5 0  27.75 0.5 0  28.5 0.5 0  29.25 0.5 0  30 0.5 0  30.75 0.5 0  31.5 0.5 0  32.25 0.5 0  33 0.5 0  33.75 0.5 0  34.5 0.5 0  35.25 0.5 0  36 0.5 0  36.75 0.5 0  37.5 0.5 0  38.25 0.5 0  39 0.5 0  39.75 0.5 0  40.5 0.5 0  41.25 0.5 0  42 0.5 0  42.75 0.5 0  43.5 0.5 0  44.25 0.5 0  45 0.5 0  45.75 0.5 0  46.5 0.5 0  47.25 0.5 0  48 0.5 0  48.75 0.5 0  49.5 0.5 0  50.25 0.5 0  51 0.5 0  51.75 0.5 0  52.5 0.5 0  53.25 0.5 0  54 0.5 0  54.75 0.5 0  55.5 0.5 0  56.25 0.5 0  57 0.5 0  57.75 0.5 0  58.5 0.5 0  59.25 0.5 0  60 0.5 0  0 1 0  0.75 1 0  1.5 1 0  2.25 1 0  3 1 0  3.75 1 0  4.5 1 0  5.25 1 0  6 1 0  6.75 1 0  7.5 1 0  8.25 1 0  9 1 0  9.75 1 0  10.5 1 0  11.25 1 0  12 1 0  12.75 1 0  13.5 1 0  14.25 1 0  15 1 0  15.75 1 0  16.5 1 0  17.25 1 0  18 1 0  18.75 1 0  19.5 1 0  20.25 1 0  21 1 0  21.75 1 0  22.5 1 0  23.25 1 0  24 1 0  24.75 1 0  25.5 1 0  26.25 1 0  27 1 0  27.75 1 0  28.5 1 0  29.25 1 0  30 1 0  30.75 1 0  31.5 1 0  32.25 1 0  33 1 0  33.75 1 0  34.5 1 0  35.25 1 0  36 1 0  36.75 1 0  37.5 1 0  38.25 1 0  39 1 0  39.75 1 0  40.5 1 0  41.25 1 0  42 1 0  42.75 1 0  43.5 1 0  44.25 1 0  45 1 0  45.75 1 0  46.5 1 0  47.25 1 0  48 1 0  48.75 1 0  49.5 1 0  50.25 1 0  51 1 0  51.75 1 0  52.5 1 0  53.25 1 0  54 1 0  54.75 1 0  55.5 1 0  56.25 1 0  57 1 0  57.75 1 0  58.5 1 0  59.25 1 0  60 1 0  0 1.5 0  0.75 1.5 0  1.5 1.5 0  2.25 1.5 0  3 1.5 0  3.75 1.5 0  4.5 1.5 0  5.25 1.5 0  6 1.5 0  6.75 1.5 0  7.5 1.5 0  8.25 1.5 0  9 1.5 0  9.75 1.5 0  10.5 1.5 0  11.25 1.5 0  12 1.5 0  12.75 1.5 0  13.5 1.5 0  14.25 1.5 0  15 1.5 0  15.75 1.5 0  16.5 1.5 0  17.25 1.5 0  18 1.5 0  18.75 1.5 0  19.5 1.5 0  20.25 1.5 0  21 1.5 0  21.75 1.5 0  22.5 1.5 0  23.25 1.5 0  24 1.5 0  24.75 1.5 0  25.5 1.5 0  26.25 1.5 0  27 1.5 0  27.75 1.5 0  28.5 1.5 0  29.25 1.5 0  30 1.5 0  30.75 1.5 0  31.5 1.5 0  32.25 1.5 0  33 1.5 0  33.75 1.5 0  34.5 1.5 0  35.25 1.5 0  36 1.5 0  36.75 1.5 0  37.5 1.5 0  38.25 1.5 0  39 1.5 0  39.75 1.5 0  40.5 1.5 0  41.25 1.5 0  42 1.5 0  42.75 1.5 0  43.5 1.5 0  44.25 1.5 0  45 1.5 0  45.75 1.5 0  46.5 1.5 0  47.25 1.5 0  48 1.5 0  48.75 1.5 0  49.5 1.5 0  50.25 1.5 0  51 1.5 0  51.75 1.5 0  52.5 1.5 0  53.25 1.5 0  54 1.5 0  54.75 1.5 0  55.5 1.5 0  56.25 1.5 0  57 1.5 0  57.75 1.5 0  58.5 1.5 0  59.25 1.5 0  60 1.5 0  0 2 0  0.75 2 0  1.5 2 0  2.25 2 0  3 2 0  3.75 2 0  4.5 2 0  5.25 2 0  6 2 0  6.75 2 0  7.5 2 0  8.25 2 0  9 2 0  9.75 2 0  10.5 2 0  11.25 2 0  12 2 0  12.75 2 0  13.5 2 0  14.25 2 0  15 2 0  15.75 2 0  16.5 2 0  17.25 2 0  18 2 0  18.75 2 0  19.5 2 0  20.25 2 0  21 2 0  21.75 2 0  22.5 2 0  23.25 2 0  24 2 0  24.75 2 0  25.5 2 0  26.25 2 0  27 2 0  27.75 2 0  28.5 2 0  29.25 2 0  30 2 0  30.75 2 0  31.5 2 0  32.25 2 0  33 2 0  33.75 2 0  34.5 2 0  35.25 2 0  36 2 0  36.75 2 0  37.5 2 0  38.25 2 0  39 2 0  39.75 2 0  40.5 2 0  41.25 2 0  42 2 0  42.75 2 0  43.5 2 0  44.25 2 0  45 2 0  45.75 2 0  46.5 2 0  47.25 2 0  48 2 0  48.75 2 0  49.5 2 0  50.25 2 0  51 2 0  51.75 2 0  52.5 2 0  53.25 2 0  54 2 0  54.75 2 0  55.5 2 0  56.25 2 0  57 2 0  57.75 2 0  58.5 2 0  59.25 2 0  60 2 0  0 2.5 0  0.75 2.5 0  1.5 2.5 0  2.25 2.5 0  3 2.5 0  3.75 2.5 0  4.5 2.5 0  5.25 2.5 0  6 2.5 0  6.75 2.5 0  7.5 2.5 0  8.25 2.5 0  9 2.5 0  9.75 2.5 0  10.5 2.5 0  11.25 2.5 0  12 2.5 0  12.75 2.5 0  13.5 2.5 0  14.25 2.5 0  15 2.5 0  15.75 2.5 0  16.5 2.5 0  17.25 2.5 0  18 2.5 0  18.75 2.5 0  19.5 2.5 0  20.25 2.5 0  21 2.5 0  21.75 2.5 0  22.5 2.5 0  23.25 2.5 0  24 2.5 0  24.75 2.5 0  25.5 2.5 0  26.25 2.5 0  27 2.5 0  27.75 2.5 0  28.5 2.5 0  29.25 2.5 0  30 2.5 0  30.75 2.5 0  31.5 2.5 0  32.25 2.5 0  33 2.5 0  33.75 2.5 0  34.5 2.5 0  35.25 2.5 0  36 2.5 0  36.75 2.5 0  37.5 2.5 0  38.25 2.5 0  39 2.5 0  39.75 2.5 0  40.5 2.5 0  41.25 2.5 0  42 2.5 0  42.75 2.5 0  43.5 2.5 0  44.25 2.5 0  45 2.5 0  45.75 2.5 0  46.5 2.5 0  47.25 2.5 0  48 2.5 0  48.75 2.5 0  49.5 2.5 0  50.25 2.5 0  51 2.5 0  51.75 2.5 0  52.5 2.5 0  53.25 2.5 0  54 2.5 0  54.75 2.5 0  55.5 2.5 0  56.25 2.5 0  57 2.5 0  57.75 2.5 0  58.5 2.5 0  59.25 2.5 0  60 2.5 0  0 3 0  0.75 3 0  1.5 3 0  2.25 3 0  3 3 0  3.75 3 0  4.5 3 0  5.25 3 0  6 3 0  6.75 3 0  7.5 3 0  8.25 3 0  9 3 0  9.75 3 0  10.5 3 0  11.25 3 0  12 3 0  12.75 3 0  13.5 3 0  14.25 3 0  15 3 0  15.75 3 0  16.5 3 0  17.25 3 0  18 3 0  18.75 3 0  19.5 3 0  20.25 3 0  21 3 0  21.75 3 0  22.5 3 0  23.25 3 0  24 3 0  24.75 3 0  25.5 3 0  26.25 3 0  27 3 0  27.75 3 0  28.5 3 0  29.25 3 0  30 3 0  30.75 3 0  31.5 3 0  32.25 3 0  33 3 0  33.75 3 0  34.5 3 0  35.25 3 0  36 3 0  36.75 3 0  37.5 3 0  38.25 3 0  39 3 0  39.75 3 0  40.5 3 0  41.25 3 0  42 3 0  42.75 3 0  43.5 3 0  44.25 3 0  45 3 0  45.75 3 0  46.5 3 0  47.25 3 0  48 3 0  48.75 3 0  49.5 3 0  50.25 3 0  51 3 0  51.75 3 0  52.5 3 0  53.25 3 0  54 3 0  54.75 3 0  55.5 3 0  56.25 3 0  57 3 0  57.75 3 0  58.5 3 0  59.25 3 0  60 3 0  0 3.5 0  0.75 3.5 0  1.5 3.5 0  2.25 3.5 0  3 3.5 0  3.75 3.5 0  4.5 3.5 0  5.25 3.5 0  6 3.5 0  6.75 3.5 0  7.5 3.5 0  8.25 3.5 0  9 3.5 0  9.75 3.5 0  10.5 3.5 0  11.25 3.5 0  12 3.5 0  12.75 3.5 0  13.5 3.5 0  14.25 3.5 0  15 3.5 0  15.75 3.5 0  16.5 3.5 0  17.25 3.5 0  18 3.5 0  18.75 3.5 0  19.5 3.5 0  20.25 3.5 0  21 3.5 0  21.75 3.5 0  22.5 3.5 0  23.25 3.5 0  24 3.5 0  24.75 3.5 0  25.5 3.5 0  26.25 3.5 0  27 3.5 0  27.75 3.5 0  28.5 3.5 0  29.25 3.5 0  30 3.5 0  30.75 3.5 0  31.5 3.5 0  32.25 3.5 0  33 3.5 0  33.75 3.5 0  34.5 3.5 0  35.25 3.5 0  36 3.5 0  36.75 3.5 0  37.5 3.5 0  38.25 3.5 0  39 3.5 0  39.75 3.5 0  40.5 3.5 0  41.25 3.5 0  42 3.5 0  42.75 3.5 0  43.5 3.5 0  44.25 3.5 0  45 3.5 0  45.75 3.5 0  46.5 3.5 0  47.25 3.5 0  48 3.5 0  48.75 3.5 0  49.5 3.5 0  50.25 3.5 0  51 3.5 0  51.75 3.5 0  52.5 3.5 0  53.25 3.5 0  54 3.5 0  54.75 3.5 0  55.5 3.5 0  56.25 3.5 0  57 3.5 0  57.75 3.5 0  58.5 3.5 0  59.25 3.5 0  60 3.5 0  0 4 0  0.75 4 0  1.5 4 0  2.25 4 0  3 4 0  3.75 4 0  4.5 4 0  5.25 4 0  6 4 0  6.75 4 0  7.5 4 0  8.25 4 0  9 4 0  9.75 4 0  10.5 4 0  11.25 4 0  12 4 0  12.75 4 0  13.5 4 0  14.25 4 0  15 4 0  15.75 4 0  16.5 4 0  17.25 4 0  18 4 0  18.75 4 0  19.5 4 0  20.25 4 0  21 4 0  21.75 4 0  22.5 4 0  23.25 4 0  24 4 0  24.75 4 0  25.5 4 0  26.25 4 0  27 4 0  27.75 4 0  28.5 4 0  29.25 4 0  30 4 0  30.75 4 0  31.5 4 0  32.25 4 0  33 4 0  33.75 4 0  34.5 4 0  35.25 4 0  36 4 0  36.75 4 0  37.5 4 0  38.25 4 0  39 4 0  39.75 4 0  40.5 4 0  41.25 4 0  42 4 0  42.75 4 0  43.5 4 0  44.25 4 0  45 4 0  45.75 4 0  46.5 4 0  47.25 4 0  48 4 0  48.75 4 0  49.5 4 0  50.25 4 0  51 4 0  51.75 4 0  52.5 4 0  53.25 4 0  54 4 0  54.75 4 0  55.5 4 0  56.25 4 0  57 4 0  57.75 4 0  58.5 4 0  59.25 4 0  60 4 0  0.375 0.25 0  1.125 0.25 0  1.875 0.25 0  2.625 0.25 0  3.375 0.25 0  4.125 0.25 0  4.875 0.25 0  5.625 0.25 0  6.375 0.25 0  7.125 0.25 0  7.875 0.25 0  8.625 0.25 0  9.375 0.25 0  10.125 0.25 0  10.875 0.25 0  11.625 0.25 0  12.375 0.25 0  13.125 0.25 0  13.875 0.25 0  14.625 0.25 0  15.375 0.25 0  16.125 0.25 0  16.875 0.25 0  17.625 0.25 0  18.375 0.25 0  19.125 0.25 0  19.875 0.25 0  20.625 0.25 0  21.375 0.25 0  22.125 0.25 0  22.875 0.25 0  23.625 0.25 0  24.375 0.25 0  25.125 0.25 0  25.875 0.25 0  26.625 0.25 0  27.375 0.25 0  28.125 0.25 0  28.875 0.25 0  29.625 0.25 0  30.375 0.25 0  31.125 0.25 0  31.875 0.25 0  32.625 0.25 0  33.375 0.25 0  34.125 0.25 0  34.875 0.25 0  35.625 0.25 0  36.375 0.25 0  37.125 0.25 0  37.875 0.25 0  38.625 0.25 0  39.375 0.25 0  40.125 0.25 0  40.875 0.25 0  41.625 0.25 0  42.375 0.25 0  43.125 0.25 0  43.875 0.25 0  44.625 0.25 0  45.375 0.25 0  46.125 0.25 0  46.875 0.25 0  47.625 0.25 0  48.375 0.25 0  49.125 0.25 0  49.875 0.25 0  50.625 0.25 0  51.375 0.25 0  52.125 0.25 0  52.875 0.25 0  53.625 0.25 0  54.375 0.25 0  55.125 0.25 0  55.875 0.25 0  56.625 0.25 0  57.375 0.25 0  58.125 0.25 0  58.875 0.25 0  59.625 0.25 0  0.375 0.75 0  1.125 0.75 0  1.875 0.75 0  2.625 0.75 0  3.375 0.75 0  4.125 0.75 0  4.875 0.75 0  5.625 0.75 0  6.375 0.75 0  7.125 0.75 0  7.875 0.75 0  8.625 0.75 0  9.375 0.75 0  10.125 0.75 0  10.875 0.75 0  11.625 0.75 0  12.375 0.75 0  13.125 0.75 0  13.875 0.75 0  14.625 0.75 0  15.375 0.75 0  16.125 0.75 0  16.875 0.75 0  17.625 0.75 0  18.375 0.75 0  19.125 0.75 0  19.875 0.75 0  20.625 0.75 0  21.375 0.75 0  22.125 0.75 0  22.875 0.75 0  23.625 0.75 0  24.375 0.75 0  25.125 0.75 0  25.875 0.75 0  26.625 0.75 0  27.375 0.75 0  28.125 0.75 0  28.875 0.75 0  29.625 0.75 0  30.375 0.75 0  31.125 0.75 0  31.875 0.75 0  32.625 0.75 0  33.375 0.75 0  34.125 0.75 0  34.875 0.75 0  35.625 0.75 0  36.375 0.75 0  37.125 0.75 0  37.875 0.75 0  38.625 0.75 0  39.375 0.75 0  40.125 0.75 0  40
[...]
<PointData  Vectors="f_8-0"> 
<DataArray  type="Float64"  Name="f_8-0"  NumberOfComponents="3" format="ascii">0.0000000000000000e+00 0.0000000000000000e+00 0.0000000000000000e+00  0.0000000000000000e+00 0.0000000000000000e+00 0.0000000000000000e+00  0.0000000000000000e+00 0.0000000000000000e+00 0.0000000000000000e+00  0.0000000000000000e+00 0.0000000000000000e+00 0.0000000000000000e+00  0.0000000000000000e+00 0.0000000000000000e+00 0.0000000000000000e+00  0.0000000000000000e+00 0.0000000000000000e+00 0.0000000000000000e+00  0.0000000000000000e+00 0.0000000000000000e+00 0.0000000000000000e+00  0.0000000000000000e+00 0.0000000000000000e+00 0.0000000000000000e+00  0.0000000000000000e+00 0.0000000000000000e+00 0.0000000000000000e+00  0.0000000000000000e+00 0.0000000000000000e+00 0.0000000000000000e+00  0.0000000000000000e+00 0.0000000000000000e+00 0.0000000000000000e+00  0.0000000000000000e+00 0.0000000000000000e+00 0.0000000000000000e+00  0.0000000000000000e+00 0.0000000000000000e+00 0.0000000000000000e+00  0.0000000000000000e+00 0.0000000000000000e+00 0.0000000000000000e+00  0.0000000000000000e+00 0.0000000000000000e+00 0.0000000000000000e+00  0.0000000000000000e+00 0.0000000000000000e+00 0.0000000000000000e+00  0.0000000000000000e+00 0.0000000000000000e+00 0.0000000000000000e+00  0.0000000000000000e+00 0.0000000000000000e+00 0.0000000000000000e+00  0.0000000000000000e+00 0.0000000000000000e+00 0.0000000000000000e+00  0.0000000000000000e+00 0.0000000000000000e+00 0.0000000000000000e+00  0.0000000000000000e+00 0.0000000000000000e+00 0.0000000000000000e+00  0.0000000000000000e+00 0.0000000000000000e+00 0.0000000000000000e+00  0.0000000000000000e+00 0.0000000000000000e+00 0.0000000000000000e+00  0.0000000000000000e+00 0.0000000000000000e+00 0.0000000000000000e+00  0.0000000000000000e+00 0.0000000000000000e+00 0.0000000000000000e+00  0.0000000000000000e+00 0.0000000000000000e+00 0.0000000000000000e+00  0.0000000000000000e+00 0.0000000000000000e+00 0.0000000000000000e+00  0.0000000000000000e+00 0.0000000000000000e+00 0.0000000000000000e+00  0.0000000000000000e+00 0.0000000000000000e+00 0.0000000000000000e+00  0.0000000000000000e+00 0.0000000000000000e+00 0.0000000000000000e+00  0.0000000000000000e+00 0.0000000000000000e+00 0.0000000000000000e+00  0.0000000000000000e+00 0.0000000000000000e+00 0.0000000000000000e+00  0.0000000000000000e+00 0.0000000000000000e+00 0.0000000000000000e+00  0.0000000000000000e+00 0.0000000000000000e+00 0.0000000000000000e+00  0.0000000000000000e+00 0.0000000000000000e+00 0.0000000000000000e+00  0.0000000000000000e+00 0.0000000000000000e+00 0.0000000000000000e+00  0.0000000000000000e+00 0.0000000000000000e+00 0.0000000000000000e+00  0.0000000000000000e+00 0.0000000000000000e+00 0.0000000000000000e+00  0.0000000000000000e+00 0.0000000000000000e+00 0.0000000000000000e+00  0.0000000000000000e+00 0.0000000000000000e+00 0.0000000000000000e+00  0.0000000000000000e+00 0.0000000000000000e+00 0.0000000000000000e+00  0.0000000000000000e+00 0.0000000000000000e+00 0.0000000000000000e+00  0.0000000000000000e+00 0.0000000000000000e+00 0.0000000000000000e+00  0.0000000000000000e+00 0.0000000000000000e+00 0.0000000000000000e+00  0.0000000000000000e+00 0.0000000000000000e+00 0.0000000000000000e+00  0.0000000000000000e+00 0.0000000000000000e+00 0.0000000000000000e+00  0.0000000000000000e+00 0.0000000000000000e+00 0.0000000000000000e+00  0.0000000000000000e+00 0.0000000000000000e+00 0.0000000000000000e+00  0.0000000000000000e+00 0.0000000000000000e+00 0.0000000000000000e+00  0.0000000000000000e+00 0.0000000000000000e+00 0.0000000000000000e+00  0.0000000000000000e+00 0.0000000000000000e+00 0.0000000000000000e+00  0.0000000000000000e+00 0.0000000000000000e+00 0.0000000000000000e+00  0.0000000000000000e+00 0.0000000000000000e+00 0.0000000000000000e+00  0.0000000000000000e+00 0.0000000000000000e+00 0.0000000000000000e+00  0.0000000000000000e+00 0.0000000000000000e+00 0.0000000000000000e+00  0.0000000000000000e+00 0.0000000000000000e+00 0.0000000000000000e+00  0.0000000000000000e+00 0.0000000000000000e+00 0.0000000000000000e+00  0.0000000000000000e+00 0.0000000000000000e+00 0.0000000000000000e+00  0.0000000000000000e+00 0.0000000000000000e+00 0.0000000000000000e+00  0.0000000000000000e+00 0.0000000000000000e+00 0.0000000000000000e+00  0.0000000000000000e+00 0.0000000000000000e+00 0.0000000000000000e+00  0.0000000000000000e+00 0.0000000000000000e+00 0.0000000000000000e+00  0.0000000000000000e+00 0.0000000000000000e+00 0.0000000000000000e+00  0.0000000000000000e+00 0.0000000000000000e+00 0.0000000000000000e+00  0.0000000000000000e+00 0.0000000000000000e+00 0.0000000000000000e+00  0.0000000000000000e+00 0.0000000000000000e+00 0.0000000000000000e+00  0.0000000000000000e+00 0.0000000000000000e+00 0.0000000000000000e+00  0.0000000000000000e+00 0.0000000000000000e+00 0.0000000000000000e+00  0.0000000000000000e+00 0.0000000000000000e+00 0.0000000000000000e+00  0.0000000000000000e+00 0.0000000000000000e+00 0.0000000000000000e+00  0.0000000000000000e+00 0.0000000000000000e+00 0.0000000000000000e+00  0.0000000000000000e+00 0.0000000000000000e+00 0.0000000000000000e+00  0.0000000000000000e+00 0.0000000000000000e+00 0.0000000000000000e+00  0.0000000000000000e+00 0.0000000000000000e+00 0.0000000000000000e+00  0.0000000000000000e+00 0.0000000000000000e+00 0.0000000000000000e+00  0.0000000000000000e+00 0.0000000000000000e+00 0.0000000000000000e+00  0.0000000000000000e+00 0.0000000000000000e+00 0.0000000000000000e+00  0.0000000000000000e+00 0.0000000000000000e+00 0.0000000000000000e+00  0.0000000000000000e+00 0.0000000000000000e+00 0.0000000000000000e+00  0.0000000000000000e+00 0.0000000000000000e+00 0.0000000000000000e+00  0.0000000000000000e+00 0.0000000000000000e+00 0.0000000000000000e+00  4.0997406804422631e+01 0.0000000000000000e+00 0.0000000000000000e+00  4.0536511522134418e+01 1.8475694000032636e-01 0.0000000000000000e+00  4.0653622198025296e+01 -2.1573715918069343e-02 0.0000000000000000e+00  4.0652992333482210e+01 3.5444668531009693e-02 0.0000000000000000e+00  4.0791037264603936e+01 -2.9500014453354661e-02 0.0000000000000000e+00  4.0832958161836672e+01 -1.0483809450973169e-02 0.0000000000000000e+00  4.0911737004410952e+01 -1.8247890378857427e-02 0.0000000000000000e+00  4.0948220121353835e+01 -1.4848920863355587e-02 0.0000000000000000e+00  4.0987590577491581e+01 -8.4686842630013973e-03 0.0000000000000000e+00  4.1012965609907269e+01 -1.0904340908711799e-02 0.0000000000000000e+00  4.1032215488125289e+01 -3.7346369990652775e-03 0.0000000000000000e+00  4.1049249120273849e+01 -7.1611451724658470e-03 0.0000000000000000e+00  4.1059390114817639e+01 -1.5638446491523679e-03 0.0000000000000000e+00  4.1070156964497258e+01 -3.9873329906755673e-03 0.0000000000000000e+00  4.1074873438074079e+01 -1.5086561243043373e-04 0.0000000000000000e+00  4.1080468056311403e+01 -1.7664441560874729e-03 0.0000000000000000e+00  4.1081913918724879e+01 5.0101070614955157e-04 0.0000000000000000e+00  4.1084371103656771e+01 -6.1704920553260661e-04 0.0000000000000000e+00  4.1084465424017537e+01 6.2638719785482590e-04 0.0000000000000000e+00  4.1085497271292738e+01 -1.1190357624432444e-04 0.0000000000000000e+00  4.1085265480371696e+01 5.6609020320033817e-04 0.0000000000000000e+00  4.1085730312957928e+01 1.0850042568533726e-04 0.0000000000000000e+00  4.1085510756898898e+01 4.8517416509600322e-04 0.0000000000000000e+00  4.1085744036800342e+01 2.1319032857767550e-04 0.0000000000000000e+00  4.1085595766984298e+01 4.2589536145743839e-04 0.0000000000000000e+00  4.1085722307347510e+01 2.6769047403065897e-04 0.0000000000000000e+00  4.1085632073711700e+01 3.8881770459147996e-04 0.0000000000000000e+00  4.1085703353299643e+01 2.9771421270145739e-04 0.0000000000000000e+00  4.1085650471559639e+01 3.6689049857350088e-04 0.0000000000000000e+00  4.1085691202415255e+01 3.1468663741738732e-04 0.0000000000000000e+00  4.1085660660320315e+01 3.5418217293964251e-04 0.0000000000000000e+00  4.1085684027012121e+01 3.2437667068606146e-04 0.0000000000000000e+00  4.1085666523611025e+01 3.4686837732348486e-04 0.0000000000000000e+00  4.1085679917160839e+01 3.2992574250871950e-04 0.0000000000000000e+00  4.1085669964307833e+01 3.4267235448633734e-04 0.0000000000000000e+00  4.1085677612993059e+01 3.3310157602239144e-04 0.0000000000000000e+00  4.1085672015770250e+01 3.4027318200346686e-04 0.0000000000000000e+00  4.1085676360879525e+01 3.3491260895774809e-04 0.0000000000000000e+00  4.1085673263512106e+01 3.3890896007896301e-04 0.0000000000000000e+00  4.1085675719996651e+01 3.3593849284634320e-04 0.0000000000000000e+00  4.1085674045698575e+01 3.3813964941889003e-04 0.0000000000000000e+00  4.1085675432851161e+01 3.3651407785375767e-04 0.0000000000000000e+00  4.1085674559458170e+01 3.3771055564221401e-04 0.0000000000000000e+00  4.1085675348838940e+01 3.3683315905026046e-04 0.0000000000000000e+00  4.1085674919927420e+01 3.3747434632445592e-04 0.0000000000000000e+00  4.1085675380108114e+01 3.3700762299015052e-04 0.0000000000000000e+00  4.1085675194022805e+01 3.3734620822548100e-04 0.0000000000000000e+00  4.1085675475834371e+01 3.3710160883820102e-04 0.0000000000000000e+00  4.1085675420228100e+01 3.3727777236791179e-04 0.0000000000000000e+00  4.1085675607003530e+01 3.3715147475671191e-04 0.0000000000000000e+00  4.1085675620340247e+01 3.3724180298247956e-04 0.0000000000000000e+00  4.1085675757331771e+01 3.3717753451682292e-04 0.0000000000000000e+00  4.1085675806510707e+01 3.3722320026870087e-04 0.0000000000000000e+00  4.1085675917862062e+01 3.3719095036764484e-04 0.0000000000000000e+00  4.1085675985411903e+01 3.3721371898275831e-04 0.0000000000000000e+00  4.1085676083818392e+01 3.3719774025080197e-04 0.0000000000000000e+00  4.1085676160721086e+01 3.3720891759028265e-04 0.0000000000000000e+00  4.1085676252832585e+01 3.3720105089477166e-04 0.0000000000000000e+00  4.1085676334678297e+01 3.3720638670461467e-04 0.0000000000000000e+00  4.1085676424191469e+01 3.3720241824594047e-04 0.0000000000000000e+00  4.1085676509334576e+01 3.3720469705992938e-04 0.0000000000000000e+00  4.1085676599148712e+01 3.3720232396647722e-04 0.0000000000000000e+00  4.1085676688754610e+01 3.3720260790979947e-04 0.0000000000000000e+00  4.1085676784130328e+01 3.3720013392488183e-04 0.0000000000000000e+00  4.1085676886416103e+01 3.3719793524001425e-04 0.0000000000000000e+00  4.1085677005566126e+01 3.3719264105734300e-04 0.0000000000000000e+00  4.1085677157234635e+01 3.3718400040753249e-04 0.0000000000000000e+00  4.1085677378453944e+01 3.3716685273965001e-04 0.0000000000000000e+00  4.1085677746559071e+01 3.3713295010186510e-04 0.0000000000000000e+00  4.1085678431154307e+01 3.3706052977320949e-04 0.0000000000000000e+00  4.1085679801136997e+01 3.3689750520075055e-04 0.0000000000000000e+00  4.1085682665028941e+01 3.3650907226874370e-04 0.0000000000000000e+00  4.1085688797691255e+01 3.3553989985272260e-04 0.0000000000000000e+00  4.1085702106791473e+01 3.3303284233560462e-04 0.0000000000000000e+00  4.1085731218865860e+01 3.2639175527639057e-04 0.0000000000000000e+00  4.1085795262461275e+01 3.0863167730274185e-04 0.0000000000000000e+00  4.1085936891432084e+01 2.6165737952717558e-04 0.0000000000000000e+00  4.1086254674434862e+01 1.4280725397885886e-04 0.0000000000000000e+00  4.1086947159663929e+01 -1.1987089007112775e-04 0.0000000000000000e+00  4.1089963042421367e+01 -6.9280360397263230e-04 0.0000000000000000e+00  4.1085104906937225e+01 0.0000000000000000e+00 0.0000000000000000e+00  5.8035868333468592e+01 0.0000000000000000e+00 0.0000000000000000e+00  5.8266732711840625e+01 -3.3109410156816499e-01 0.0000000000000000e+00  5.8223415024114146e+01 -7.7770937383733668e-02 0.0000000000000000e+00  5.8207106309290808e+01 -1.0683803918725240e-01 0.0000000000000000e+00  5.8139231706596007e+01 -7.5738019426883074e-02 0.0000000000000000e+00  5.8102336661409950e+01 -4.2314617018847839e-02 0.0000000000000000e+00  5.8070846237985947e+01 -5.1168337732628202e-02 0.0000000000000000e+00  5.8044174447288178e+01 -1.7702449552326700e-02 0.0000000000000000e+00  5.8035539837776248e+01 -2.9628284118112934e-02 0.0000000000000000e+00  5.8020571303521244e+01 -7.4973345560671320e-03 0.0000000000000000e+00  5.8021307943306482e+01 -1.6117516125453271e-02 0.0000000000000000e+00  5.8014172442493816e+01 -3.7632306635923631e-03 0.0000000000000000e+00  5.8019016258819839e+01 -8.6889454658914140e-03 0.0000000000000000e+00  5.8017799201109625e+01 -1.1320035817542066e-03 0.0000000000000000e+00  5.8023688885763420e+01 -3.0378090773684010e-03 0.0000000000000000e+00  5.8024439096775829e+01 1.6648748950792277e-03 0.0000000000000000e+00  5.8028618688593127e+01 8.4107277103509450e-04 0.0000000000000000e+00  5.8029017034569122e+01 3.3948131700294098e-03 0.0000000000000000e+00  5.8031208598506275e+01 2.7948813310433272e-03 0.0000000000000000e+00  5.8031102334139511e+01 4.0498658458628942e-03 0.0000000000000000e+00  5.8032113163168880e+01 3.5803191222346328e-03 0.0000000000000000e+00  5.8031857325673251e+01 4.1923296788847972e-03 0.0000000000000000e+00  5.8032327047535112e+01 3.8681242762509524e-03 0.0000000000000000e+00  5.8032108020094043e+01 4.1818620582647998e-03 0.0000000000000000e+00  5.8032343672076422e+01 3.9785287913362130e-03 0.0000000000000000e+00  5.8032196658440554e+01 4.1484127589773052e-03 0.0000000000000000e+00  5.8032323948954584e+01 4.0271414154406269e-03 0.0000000000000000e+00  5.8032233920621344e+01 4.1223879451059925e-03 0.0000000000000000e+00  5.8032305713590155e+01 4.0516466711234397e-03 0.0000000000000000e+00  5.8032252495700170e+01 4.1059351833460612e-03 0.0000000000000000e+00  5.8032293799088805e+01 4.0650341502718656e-03 0.0000000000000000e+00  5.8032262734540772e+01 4.0961645359589346e-03 0.0000000000000000e+00  5.8032286703563280e+01 4.0726143689517316e-03 0.0000000000000000e+00  5.8032268655157864e+01 4.0904736025734164e-03 0.0000000000000000e+00  5.8032282617199620e+01 4.0769656693984248e-03 0.0000000000000000e+00  5.8032272173134515e+01 4.0871781246736624e-03 0.0000000000000000e+00  5.8032280313230672e+01 4.0794734932417817e-03 0.0000000000000000e+00  5.8032274313444830e+01 4.0852758031744377e-03 0.0000000000000000e+00  5.8032279053679844e+01 4.0809168686119961e-03 0.0000000000000000e+00  5.8032275651822886e+01 4.0841828924845355e-03 0.0000000000000000e+00  5.8032278407330203e+01 4.0817429862331483e-03 0.0000000000000000e+00  5.8032276519413720e+01 4.0835598632079232e-03 0.0000000000000000e+00  5.8032278122090737e+01 4.0822114734425374e-03 0.0000000000000000e+00  5.8032277109864047e+01 4.0832085324656641e-03 0.0000000000000000e+00  5.8032278049266445e+01 4.0824739224181996e-03 0.0000000000000000e+00  5.8032277537751774e+01 4.0830130389172417e-03 0.0000000000000000e+00  5.8032278100548119e+01 4.0826188433048562e-03 0.0000000000000000e+00  5.8032277871175395e+01 4.0829058798778585e-03 0.0000000000000000e+00  5.8032278223483445e+01 4.0826976083658860e-03 0.0000000000000000e+00  5.8032278150471051e+01 4.0828480639888030e-03 0.0000000000000000e+00  5.8032278387147876e+01 4.0827397074829092e-03 0.0000000000000000e+00  5.8032278399278525e+01 4.0828173581953144e-03 0.0000000000000000e+00  5.8032278573565897e+01 4.0827618156631853e-03 0.0000000000000000e+00  5.8032278631247152e+01 4.0828012749758993e-03 0.0000000000000000e+00  5.8032278772486450e+01 4.0827731840464279e-03 0.0000000000000000e+00  5.8032278854145652e+01 4.0827929024645016e-03 0.0000000000000000e+00  5.8032278978232952e+01 4.0827788165526836e-03 0.0000000000000000e+00  5.8032279072399895e+01 4.0827884185560704e-03 0.0000000000000000e+00  5.8032279187910255e+01 4.0827812614114200e-03 0.0000000000000000e+00  5.8032279288822124e+01 4.0827855823350892e-03 0.0000000000000000e+00  5.8032279400736293e+01 4.0827815283419116e-03 0.0000000000000000e+00  5.8032279506449818e+01 4.0827826895292836e-03 0.0000000000000000e+00  5.8032279619450705e+01 4.0827792724660097e-03 0.0000000000000000e+00  5.8032279733497184e+01 4.0827774647193256e-03 0.0000000000000000e+00  5.8032279859697823e+01 4.0827720253835955e-03 0.0000000000000000e+00  5.8032280005210602e+01 4.0827649382792859e-03 0.0000000000000000e+00  5.8032280197895616e+01 4.0827520468060844e-03 0.0000000000000000e+00  5.8032280491535651e+01 4.0827311887153975e-03 0.0000000000000000e+00  5.8032281012056878e+01 4.0826943098813207e-03 0.0000000000000000e+00  5.8032282037322723e+01 4.0826272157104288e-03 0.0000000000000000e+00  5.8032284191683033e+01 4.0824947907209148e-03 0.0000000000000000e+00  5.8032288868185049e+01 4.0822088218391249e-03 0.0000000000000000e+00  5.8032299172194065e+01 4.0815260431067563e-03 0.0000000000000000e+00  5.8032321994829623e+01 4.0797478797047933e-03 0.0000000000000000e+00  5.8032372544882200e+01 4.0748170218427408e-03 0.0000000000000000e+00  5.8032484145912299e+01 4.0606203108172877e-03 0.0000000000000000e+00  5.8032729199690301e+01 4.0189780148092609e-03 0.0000000000000000e+00  5.8033262584039996e+01 3.8960517512501799e-03 0.0000000000000000e+00  5.8034401171371300e+01 3.5322996246880166e-03 0.0000000000000000e+00  5.8035818266980357e+01 2.4342752020180308e-03 0.0000000000000000e+00  5.8027713348678738e+01 0.0000000000000000e+00 0.0000000000000000e+00  6.2243717559068202e+01 0.0000000000000000e+00 0.0000000000000000e+00  6.2798260916918949e+01 2.5350502246347983e-01 0.0000000000000000e+00  6.2802996381694030e+01 4.8139987203157868e-02 0.0000000000000000e+00  6.2882832271658621e+01 5.0867766459870685e-02 0.0000000000000000e+00  6.2762895728387697e+01 3.9124160918372300e-02 0.0000000000000000e+00  6.2759579419756847e+01 4.5892931258665048e-04 0.0000000000000000e+00  6.2665804283761020e+01 2.2199104616582827e-02 0.0000000000000000e+00  6.2652722599711304e+01 -7.0354624460532787e-03 0.0000000000000000e+00  6.2594491271393856e+01 1.0129622159069410e-02 0.0000000000000000e+00  6.2584544652274580e+01 -6.3275472963691525e-03 0.0000000000000000e+00  6.2550831087827127e+01 3.5285400758350949e-03 0.0000000000000000e+00  6.2544005175391987e+01 -5.3942272855401806e-03 0.0000000000000000e+00  6.2523980414374293e+01 -5.4331037817853805e-04 0.0000000000000000e+00  6.2519601455009209e+01 -4.5134062585222906e-03 0.0000000000000000e+00  6.2508594288854475e+01 -1.1307751391803587e-03 0.0000000000000000e+00  6.2506972185073174e+01 -2.1726795369175736e-03 0.0000000000000000e+00  6.2501743138645672e+01 2.0455700770878640e-04 0.0000000000000000e+00  6.2501758129141692e+01 -9.0073382978056321e-06 0.0000000000000000e+00  6.2499470071966691e+01 1.3183911381053960e-03 0.0000000000000000e+00  6.2499961457325220e+01 1.1613536481052660e-03 0.0000000000000000e+00  6.2498935768766721e+01 1.7974405299067881e-03 0.0000000000000000e+00  6.2499389716268396e+01 1.6331090881476370e-03 0.0000000000000000e+00  6.2498885711293958e+01 1.9287460973562110e-03 0.0000000000000000e+00  6.2499195913455374e+01 1.7987702782423793e-03 0.0000000000000000e+00  6.2498925797880794e+01 1.9436856095716702e-03 0.0000000000000000e+00  6.2499116899107833e+01 1.8573815190301454e-03 0.0000000000000000e+00  6.2498964889010118e+01 1.9337079408675842e-03 0.0000000000000000e+00  6.2499078144433597e+01 1.8810170264015904e-03 0.0000000000000000e+00  6.2498990873060272e+01 1.9232773211819330e-03 0.0000000000000000e+00  6.2499057091857168e+01 1.8922516170748061e-03 0.0000000000000000e+00  6.2499006630383633e+01 1.9162369459077425e-03 0.0000000000000000e+00  6.2499045225244124e+01 1.8982279744047875e-03 0.0000000000000000e+00  6.2499015962890326e+01 1.9119712537969216e-03 0.0000000000000000e+00  6.2499038481733137e+01 1.9015813855235738e-03 0.0000000000000000e+00  6.2499021496225701e+01 1.9094695843404307e-03 0.0000000000000000e+00  6.2499034662867871e+01 1.9035022855034632e-03 0.0000000000000000e+00  6.2499024821844820e+01 1.9080168079003178e-03 0.0000000000000000e+00  6.2499032529617466e+01 1.9046096024671936e-03 0.0000000000000000e+00  6.2499026865275738e+01 1.9071768192589218e-03 0.0000000000000000e+00  6.2499031376331558e+01 1.9052474737416526e-03 0.0000000000000000e+00  6.2499028159182124e+01 1.9066936432525620