<?xml version="1.0"?>
<VTKFile type="UnstructuredGrid"  version="0.1"  >
<UnstructuredGrid>
<Piece  NumberOfPoints="1369" NumberOfCells="2560">
<Points>
<DataArray  type="Float64"  NumberOfComponents="3"  format="ascii">0 0 0  0.75 0 0  1.5 0 0  2.25 0 0  3 0 0  3.75 0 0  4.5 0 0  5.25 0 0  6 0 0  6.75 0 0  7.5 0 0  8.25 0 0  9 0 0  9.75 0 0  10.5 0 0  11.25 0 0  12 0 0  12.75 0 0  13.5 0 0  14.25 0 0  15 0 0  15.75 0 0  16.5 0 0  17.25 0 0  18 0 0  18.75 0 0  19.5 0 0  20.25 0 0  21 0 0  21.75 0 0  22.5 0 0  23.25 0 0  24 0 0  24.75 0 0  25.5 0 0  26.25 0 0  27 0 0  27.75 0 0  28.5 0 0  29.25 0 0  30 0 0  30.75 0 0  31.5 0 0  32.25 0 0  33 0 0  33.75 0 0  34.5 0 0  35.25 0 0  36 0 0  36.75 0 0  37.5 0 0  38.25 0 0  39 0 0  39.75 0 0  40.5 0 0  41.25 0 0  42 0 0  42.75 0 0  43.5 0 0  44.25 0 0  45 0 0  45.75 0 0  46.5 0 0  47.25 0 0  48 0 0  48.75 0 0  49.5 0 0  50.25 0 0  51 0 0  51.75 0 0  52.5 0 0  53.25 0 0  54 0 0  54.75 0 0  55.5 0 0  56.25 0 0  57 0 0  57.75 0 0  58.5 0 0  59.25 0 0  60 0 0  0 0.5 0  0.75 0.5 0  1.5 0.5 0  2.25 0.5 0  3 0.5 0  3.75 0.5 0  4.5 0.5 0  5.25 0.5 0  6 0.5 0  6.75 0.5 0  7.5 0.5 0  8.25 0.5 0  9 0.5 0  9.75 0.5 0  10.5 0.5 0  11.25 0.5 0  12 0.5 0  12.75 0.5 0  13.5 0.5 0  14.25 0.5 0  15 0.5 0  15.75 0.5 0  16.5 0.5 0  17.25 0.5 0  18 0.5 0  18.75 0.5 0  19.5 0.5 0  20.25 0.5 0  21 0.5 0  21.75 0.5 0  22.5 0.5 0  23.25 0.5 0  24 0.5 0  24.75 0.5 0  25.5 0.5 0  26.25 0.5 0  27 0.5 0  27.75 0.5 0  28.5 0.5 0  29.25 0.5 0  30 0.5 0  30.75 0.5 0  31.5 0.5 0  32.25 0.5 0  33 0.5 0  33.75 0.5 0  34.5 0.5 0  35.25 0.5 0  36 0.5 0  36.75 0.5 0  37.5 0.5 0  38.25 0.5 0  39 0.5 0  39.75 0.5 0  40.5 0.5 0  41.25 0.5 0  42 0.5 0  42.75 0.5 0  43.5 0.5 0  44.25 0.5 0  45 0.5 0  45.75 0.5 0  46.5 0.5 0  47.25 0.5 0  48 0.5 0  48.75 0.5 0  49.5 0.5 0  50.25 0.5 0  51 0.5 0  51.75 0.5 0  52.5 0.5 0  53.25 0.5 0  54 0.5 0  54.75 0.5 0  55.5 0.5 0  56.25 0.5 0  57 0.5 0  57.75 0.5 0  58.5 0.5 0  59.25 0.5 0  60 0.5 0  0 1 0  0.75 1 0  1.5 1 0  2.25 1 0  3 1 0  3.75 1 0  4.5 1 0  5.25 1 0  6 1 0  6.75 1 0  7.5 1 0  8.25 1 0  9 1 0  9.75 1 0  10.5 1 0  11.25 1 0  12 1 0  12.75 1 0  13.5 1 0  14.25 1 0  15 1 0  15.75 1 0  16.5 1 0  17.25 1 0  18 1 0  18.75 1 0  19.5 1 0  20.25 1 0  21 1 0  21.75 1 0  22.5 1 0  23.25 1 0  24 1 0  24.75 1 0  25.5 1 0  26.25 1 0  27 1 0  27.75 1 0  28.5 1 0  29.25 1 0  30 1 0  30.75 1 0  31.5 1 0  32.25 1 0  33 1 0  33.75 1 0  34.5 1 0  35.25 1 0  36 1 0  36.75 1 0  37.5 1 0  38.25 1 0  39 1 0  39.75 1 0  40.5 1 0  41.25 1 0  42 1 0  42.75 1 0  43.5 1 0  44.25 1 0  45 1 0  45.75 1 0  46.5 1 0  47.25 1 0  48 1 0  48.75 1 0  49.5 1 0  50.25 1 0  51 1 0  51.75 1 0  52.5 1 0  53.25 1 0  54 1 0  54.75 1 0  55.5 1 0  56.25 1 0  57 1 0  57.75 1 0  58.5 1 0  59.25 1 0  60 1 0  0 1.5 0  0.75 1.5 0  1.5 1.5 0  2.25 1.5 0  3 1.5 0  3.75 1.5 0  4.5 1.5 0  5.25 1.5 0  6 1.5 0  6.75 1.5 0  7.5 1.5 0  8.25 1.5 0  9 1.5 0  9.75 1.5 0  10.5 1.5 0  11.25 1.5 0  12 1.5 0  12.75 1.5 0  13.5 1.5 0  14.25 1.5 0  15 1.5 0  15.75 1.5 0  16.5 1.5 0  17.25 1.5 0  18 1.5 0  18.75 1.5 0  19.5 1.5 0  20.25 1.5 0  21 1.5 0  21.75 1.5 0  22.5 1.5 0  23.25 1.5 0  24 1.5 0  24.75 1.5 0  25.5 1.5 0  26.25 1.5 0  27 1.5 0  27.75 1.5 0  28.5 1.5 0  29.25 1.5 0  30 1.5 0  30.75 1.5 0  31.5 1.5 0  32.25 1.5 0  33 1.5 0  33.75 1.5 0  34.5 1.5 0  35.25 1.5 0  36 1.5 0  36.75 1.5 0  37.5 1.5 0  38.25 1.5 0  39 1.5 0  39.75 1.5 0  40.5 1.5 0  41.25 1.5 0  42 1.5 0  42.75 1.5 0  43.5 1.5 0  44.25 1.5 0  45 1.5 0  45.75 1.5 0  46.5 1.5 0  47.25 1.5 0  48 1.5 0  48.75 1.5 0  49.5 1.5 0  50.25 1.5 0  51 1.5 0  51.75 1.5 0  52.5 1.5 0  53.25 1.5 0  54 1.5 0  54.75 1.5 0  55.5 1.5 0  56.25 1.5 0  57 1.5 0  57.75 1.5 0  58.5 1.5 0  59.25 1.5 0  60 1.5 0  0 2 0  0.75 2 0  1.5 2 0  2.25 2 0  3 2 0  3.75 2 0  4.5 2 0  5.25 2 0  6 2 0  6.75 2 0  7.5 2 0  8.25 2 0  9 2 0  9.75 2 0  10.5 2 0  11.25 2 0  12 2 0  12.75 2 0  13.5 2 0  14.25 2 0  15 2 0  15.75 2 0  16.5 2 0  17.25 2 0  18 2 0  18.75 2 0  19.5 2 0  20.25 2 0  21 2 0  21.75 2 0  22.5 2 0  23.25 2 0  24 2 0  24.75 2 0  25.5 2 0  26.25 2 0  27 2 0  27.75 2 0  28.5 2 0  29.25 2 0  30 2 0  30.75 2 0  31.5 2 0  32.25 2 0  33 2 0  33.75 2 0  34.5 2 0  35.25 2 0  36 2 0  36.75 2 0  37.5 2 0  38.25 2 0  39 2 0  39.75 2 0  40.5 2 0  41.25 2 0  42 2 0  42.75 2 0  43.5 2 0  44.25 2 0  45 2 0  45.75 2 0  46.5 2 0  47.25 2 0  48 2 0  48.75 2 0  49.5 2 0  50.25 2 0  51 2 0  51.75 2 0  52.5 2 0  53.25 2 0  54 2 0  54.75 2 0  55.5 2 0  56.25 2 0  57 2 0  57.75 2 0  58.5 2 0  59.25 2 0  60 2 0  0 2.5 0  0.75 2.5 0  1.5 2.5 0  2.25 2.5 0  3 2.5 0  3.75 2.5 0  4.5 2.5 0  5.25 2.5 0  6 2.5 0  6.75 2.5 0  7.5 2.5 0  8.25 2.5 0  9 2.5 0  9.75 2.5 0  10.5 2.5 0  11.25 2.5 0  12 2.5 0  12.75 2.5 0  13.5 2.5 0  14.25 2.5 0  15 2.5 0  15.75 2.5 0  16.5 2.5 0  17.25 2.5 0  18 2.5 0  18.75 2.5 0  19.5 2.5 0  20.25 2.5 0  21 2.5 0  21.75 2.5 0  22.5 2.5 0  23.25 2.5 0  24 2.5 0  24.75 2.5 0  25.5 2.5 0  26.25 2.5 0  27 2.5 0  27.75 2.5 0  28.5 2.5 0  29.25 2.5 0  30 2.5 0  30.75 2.5 0  31.5 2.5 0  32.25 2.5 0  33 2.5 0  33.75 2.5 0  34.5 2.5 0  35.25 2.5 0  36 2.5 0  36.75 2.5 0  37.5 2.5 0  38.25 2.5 0  39 2.5 0  39.75 2.5 0  40.5 2.5 0  41.25 2.5 0  42 2.5 0  42.75 2.5 0  43.5 2.5 0  44.25 2.5 0  45 2.5 0  45.75 2.5 0  46.5 2.5 0  47.25 2.5 0  48 2.5 0  48.75 2.5 0  49.5 2.5 0  50.25 2.5 0  51 2.5 0  51.75 2.5 0  52.5 2.5 0  53.25 2.5 0  54 2.5 0  54.75 2.5 0  55.5 2.5 0  56.25 2.5 0  57 2.5 0  57.75 2.5 0  58.5 2.5 0  59.25 2.5 0  60 2.5 0  0 3 0  0.75 3 0  1.5 3 0  2.25 3 0  3 3 0  3.75 3 0  4.5 3 0  5.25 3 0  6 3 0  6.75 3 0  7.5 3 0  8.25 3 0  9 3 0  9.75 3 0  10.5 3 0  11.25 3 0  12 3 0  12.75 3 0  13.5 3 0  14.25 3 0  15 3 0  15.75 3 0  16.5 3 0  17.25 3 0  18 3 0  18.75 3 0  19.5 3 0  20.25 3 0  21 3 0  21.75 3 0  22.5 3 0  23.25 3 0  24 3 0  24.75 3 0  25.5 3 0  26.25 3 0  27 3 0  27.75 3 0  28.5 3 0  29.25 3 0  30 3 0  30.75 3 0  31.5 3 0  32.25 3 0  33 3 0  33.75 3 0  34.5 3 0  35.25 3 0  36 3 0  36.75 3 0  37.5 3 0  38.25 3 0  39 3 0  39.75 3 0  40.5 3 0  41.25 3 0  42 3 0  42.75 3 0  43.5 3 0  44.25 3 0  45 3 0  45.75 3 0  46.5 3 0  47.25 3 0  48 3 0  48.75 3 0  49.5 3 0  50.25 3 0  51 3 0  51.75 3 0  52.5 3 0  53.25 3 0  54 3 0  54.75 3 0  55.5 3 0  56.25 3 0  57 3 0  57.75 3 0  58.5 3 0  59.25 3 0  60 3 0  0 3.5 0  0.75 3.5 0  1.5 3.5 0  2.25 3.5 0  3 3.5 0  3.75 3.5 0  4.5 3.5 0  5.25 3.5 0  6 3.5 0  6.75 3.5 0  7.5 3.5 0  8.25 3.5 0  9 3.5 0  9.75 3.5 0  10.5 3.5 0  11.25 3.5 0  12 3.5 0  12.75 3.5 0  13.5 3.5 0  14.25 3.5 0  15 3.5 0  15.75 3.5 0  16.5 3.5 0  17.25 3.5 0  18 3.5 0  18.75 3.5 0  19.5 3.5 0  20.25 3.5 0  21 3.5 0  21.75 3.5 0  22.5 3.5 0  23.25 3.5 0  24 3.5 0  24.75 3.5 0  25.5 3.5 0  26.25 3.5 0  27 3.5 0  27.75 3.5 0  28.5 3.5 0  29.25 3.5 0  30 3.5 0  30.75 3.5 0  31.5 3.5 0  32.25 3.5 0  33 3.5 0  33.75 3.5 0  34.5 3.5 0  35.25 3.5 0  36 3.5 0  36.75 3.5 0  37.5 3.5 0  38.25 3.5 0  39 3.5 0  39.75 3.5 0  40.5 3.5 0  41.25 3.5 0  42 3.5 0  42.75 3.5 0  43.5 3.5 0  44.25 3.5 0  45 3.5 0  45.75 3.5 0  46.5 3.5 0  47.25 3.5 0  48 3.5 0  48.75 3.5 0  49.5 3.5 0  50.25 3.5 0  51 3.5 0  51.75 3.5 0  52.5 3.5 0  53.25 3.5 0  54 3.5 0  54.75 3.5 0  55.5 3.5 0  56.25 3.5 0  57 3.5 0  57.75 3.5 0  58.5 3.5 0  59.25 3.5 0  60 3.5 0  0 4 0  0.75 4 0  1.5 4 0  2.25 4 0  3 4 0  3.75 4 0  4.5 4 0  5.25 4 0  6 4 0  6.75 4 0  7.5 4 0  8.25 4 0  9 4 0  9.75 4 0  10.5 4 0  11.25 4 0  12 4 0  12.75 4 0  13.5 4 0  14.25 4 0  15 4 0  15.75 4 0  16.5 4 0  17.25 4 0  18 4 0  18.75 4 0  19.5 4 0  20.25 4 0  21 4 0  21.75 4 0  22.5 4 0  23.25 4 0  24 4 0  24.75 4 0  25.5 4 0  26.25 4 0  27 4 0  27.75 4 0  28.5 4 0  29.25 4 0  30 4 0  30.75 4 0  31.5 4 0  32.25 4 0  33 4 0  33.75 4 0  34.5 4 0  35.25 4 0  36 4 0  36.75 4 0  37.5 4 0  38.25 4 0  39 4 0  39.75 4 0  40.5 4 0  41.25 4 0  42 4 0  42.75 4 0  43.5 4 0  44.25 4 0  45 4 0  45.75 4 0  46.5 4 0  47.25 4 0  48 4 0  48.75 4 0  49.5 4 0  50.25 4 0  51 4 0  51.75 4 0  52.5 4 0  53.25 4 0  54 4 0  54.75 4 0  55.5 4 0  56.25 4 0  57 4 0  57.75 4 0  58.5 4 0  59.25 4 0  60 4 0  0.375 0.25 0  1.125 0.25 0  1.875 0.25 0  2.625 0.25 0  3.375 0.25 0  4.125 0.25 0  4.875 0.25 0  5.625 0.25 0  6.375 0.25 0  7.125 0.25 0  7.875 0.25 0  8.625 0.25 0  9.375 0.25 0  10.125 0.25 0  10.875 0.25 0  11.625 0.25 0  12.375 0.25 0  13.125 0.25 0  13.875 0.25 0  14.625 0.25 0  15.375 0.25 0  16.125 0.25 0  16.875 0.25 0  17.625 0.25 0  18.375 0.25 0  19.125 0.25 0  19.875 0.25 0  20.625 0.25 0  21.375 0.25 0  22.125 0.25 0  22.875 0.25 0  23.625 0.25 0  24.375 0.25 0  25.125 0.25 0  25.875 0.25 0  26.625 0.25 0  27.375 0.25 0  28.125 0.25 0  28.875 0.25 0  29.625 0.25 0  30.375 0.25 0  31.125 0.25 0  31.875 0.25 0  32.625 0.25 0  33.375 0.25 0  34.125 0.25 0  34.875 0.25 0  35.625 0.25 0  36.375 0.25 0  37.125 0.25 0  37.875 0.25 0  38.625 0.25 0  39.375 0.25 0  40.125 0.25 0  40.875 0.25 0  41.625 0.25 0  42.375 0.25 0  43.125 0.25 0  43.875 0.25 0  44.625 0.25 0  45.375 0.25 0  46.125 0.25 0  46.875 0.25 0  47.625 0.25 0  48.375 0.25 0  49.125 0.25 0  49.875 0.25 0  50.625 0.25 0  51.375 0.25 0  52.125 0.25 0  52.875 0.25 0  53.625 0.25 0  54.375 0.25 0  55.125 0.25 0  55.875 0.25 0  56.625 0.25 0  57.375 0.25 0  58.125 0.25 0  58.875 0.25 0  59.625 0.25 0  0.375 0.75 0  1.125 0.75 0  1.875 0.75 0  2.625 0.75 0  3.375 0.75 0  4.125 0.75 0  4.875 0.75 0  5.625 0.75 0  6.375 0.75 0  7.125 0.75 0  7.875 0.75 0  8.625 0.75 0  9.375 0.75 0  10.125 0.75 0  10.875 0.75 0  11.625 0.75 0  12.375 0.75 0  13.125 0.75 0  13.875 0.75 0  14.625 0.75 0  15.375 0.75 0  16.125 0.75 0  16.875 0.75 0  17.625 0.75 0  18.375 0.75 0  19.125 0.75 0  19.875 0.75 0  20.625 0.75 0  21.375 0.75 0  22.125 0.75 0  22.875 0.75 0  23.625 0.75 0  24.375 0.75 0  25.125 0.75 0  25.875 0.75 0  26.625 0.75 0  27.375 0.75 0  28.125 0.75 0  28.875 0.75 0  29.625 0.75 0  30.375 0.75 0  31.125 0.75 0  31.875 0.75 0  32.625 0.75 0  33.375 0.75 0  34.125 0.75 0  34.875 0.75 0  35.625 0.75 0  36.375 0.75 0  37.125 0.75 0  37.875 0.75 0  38.625 0.75 0  39.375 0.75 0  40.125 0.75 0  40
[...]
<PointData  Vectors="f_8-0"> 
<DataArray  type="Float64"  Name="f_8-0"  NumberOfComponents="3" format="ascii">0.0000000000000000e+00 0.0000000000000000e+00 0.0000000000000000e+00  0.0000000000000000e+00 0.0000000000000000e+00 0.0000000000000000e+00  0.0000000000000000e+00 0.0000000000000000e+00 0.0000000000000000e+00  0.0000000000000000e+00 0.0000000000000000e+00 0.0000000000000000e+00  0.0000000000000000e+00 0.0000000000000000e+00 0.0000000000000000e+00  0.0000000000000000e+00 0.0000000000000000e+00 0.0000000000000000e+00  0.0000000000000000e+00 0.0000000000000000e+00 0.0000000000000000e+00  0.0000000000000000e+00 0.0000000000000000e+00 0.0000000000000000e+00  0.0000000000000000e+00 0.0000000000000000e+00 0.0000000000000000e+00  0.0000000000000000e+00 0.0000000000000000e+00 0.0000000000000000e+00  0.0000000000000000e+00 0.0000000000000000e+00 0.0000000000000000e+00  0.0000000000000000e+00 0.0000000000000000e+00 0.0000000000000000e+00  0.0000000000000000e+00 0.0000000000000000e+00 0.0000000000000000e+00  0.0000000000000000e+00 0.0000000000000000e+00 0.0000000000000000e+00  0.0000000000000000e+00 0.0000000000000000e+00 0.0000000000000000e+00  0.0000000000000000e+00 0.0000000000000000e+00 0.0000000000000000e+00  0.0000000000000000e+00 0.0000000000000000e+00 0.0000000000000000e+00  0.0000000000000000e+00 0.0000000000000000e+00 0.0000000000000000e+00  0.0000000000000000e+00 0.0000000000000000e+00 0.0000000000000000e+00  0.0000000000000000e+00 0.0000000000000000e+00 0.0000000000000000e+00  0.0000000000000000e+00 0.0000000000000000e+00 0.0000000000000000e+00  0.0000000000000000e+00 0.0000000000000000e+00 0.0000000000000000e+00  0.0000000000000000e+00 0.0000000000000000e+00 0.0000000000000000e+00  0.0000000000000000e+00 0.0000000000000000e+00 0.0000000000000000e+00  0.0000000000000000e+00 0.0000000000000000e+00 0.0000000000000000e+00  0.0000000000000000e+00 0.0000000000000000e+00 0.0000000000000000e+00  0.0000000000000000e+00 0.0000000000000000e+00 0.0000000000000000e+00  0.0000000000000000e+00 0.0000000000000000e+00 0.0000000000000000e+00  0.0000000000000000e+00 0.0000000000000000e+00 0.0000000000000000e+00  0.0000000000000000e+00 0.0000000000000000e+00 0.0000000000000000e+00  0.0000000000000000e+00 0.0000000000000000e+00 0.0000000000000000e+00  0.0000000000000000e+00 0.0000000000000000e+00 0.0000000000000000e+00  0.0000000000000000e+00 0.0000000000000000e+00 0.0000000000000000e+00  0.0000000000000000e+00 0.0000000000000000e+00 0.0000000000000000e+00  0.0000000000000000e+00 0.0000000000000000e+00 0.0000000000000000e+00  0.0000000000000000e+00 0.0000000000000000e+00 0.0000000000000000e+00  0.0000000000000000e+00 0.0000000000000000e+00 0.0000000000000000e+00  0.0000000000000000e+00 0.0000000000000000e+00 0.0000000000000000e+00  0.0000000000000000e+00 0.0000000000000000e+00 0.0000000000000000e+00  0.0000000000000000e+00 0.0000000000000000e+00 0.0000000000000000e+00  0.0000000000000000e+00 0.0000000000000000e+00 0.0000000000000000e+00  0.0000000000000000e+00 0.0000000000000000e+00 0.0000000000000000e+00  0.0000000000000000e+00 0.0000000000000000e+00 0.0000000000000000e+00  0.0000000000000000e+00 0.0000000000000000e+00 0.0000000000000000e+00  0.0000000000000000e+00 0.0000000000000000e+00 0.0000000000000000e+00  0.0000000000000000e+00 0.0000000000000000e+00 0.0000000000000000e+00  0.0000000000000000e+00 0.0000000000000000e+00 0.0000000000000000e+00  0.0000000000000000e+00 0.0000000000000000e+00 0.0000000000000000e+00  0.0000000000000000e+00 0.0000000000000000e+00 0.0000000000000000e+00  0.0000000000000000e+00 0.0000000000000000e+00 0.0000000000000000e+00  0.0000000000000000e+00 0.0000000000000000e+00 0.0000000000000000e+00  0.0000000000000000e+00 0.0000000000000000e+00 0.0000000000000000e+00  0.0000000000000000e+00 0.0000000000000000e+00 0.0000000000000000e+00  0.0000000000000000e+00 0.0000000000000000e+00 0.0000000000000000e+00  0.0000000000000000e+00 0.0000000000000000e+00 0.0000000000000000e+00  0.0000000000000000e+00 0.0000000000000000e+00 0.0000000000000000e+00  0.0000000000000000e+00 0.0000000000000000e+00 0.0000000000000000e+00  0.0000000000000000e+00 0.0000000000000000e+00 0.0000000000000000e+00  0.0000000000000000e+00 0.0000000000000000e+00 0.0000000000000000e+00  0.0000000000000000e+00 0.0000000000000000e+00 0.0000000000000000e+00  0.0000000000000000e+00 0.0000000000000000e+00 0.0000000000000000e+00  0.0000000000000000e+00 0.0000000000000000e+00 0.0000000000000000e+00  0.0000000000000000e+00 0.0000000000000000e+00 0.0000000000000000e+00  0.0000000000000000e+00 0.0000000000000000e+00 0.0000000000000000e+00  0.0000000000000000e+00 0.0000000000000000e+00 0.0000000000000000e+00  0.0000000000000000e+00 0.0000000000000000e+00 0.0000000000000000e+00  0.0000000000000000e+00 0.0000000000000000e+00 0.0000000000000000e+00  0.0000000000000000e+00 0.0000000000000000e+00 0.0000000000000000e+00  0.0000000000000000e+00 0.0000000000000000e+00 0.0000000000000000e+00  0.0000000000000000e+00 0.0000000000000000e+00 0.0000000000000000e+00  0.0000000000000000e+00 0.0000000000000000e+00 0.0000000000000000e+00  0.0000000000000000e+00 0.0000000000000000e+00 0.0000000000000000e+00  0.0000000000000000e+00 0.0000000000000000e+00 0.0000000000000000e+00  0.0000000000000000e+00 0.0000000000000000e+00 0.0000000000000000e+00  0.0000000000000000e+00 0.0000000000000000e+00 0.0000000000000000e+00  0.0000000000000000e+00 0.0000000000000000e+00 0.0000000000000000e+00  0.0000000000000000e+00 0.0000000000000000e+00 0.0000000000000000e+00  0.0000000000000000e+00 0.0000000000000000e+00 0.0000000000000000e+00  0.0000000000000000e+00 0.0000000000000000e+00 0.0000000000000000e+00  0.0000000000000000e+00 0.0000000000000000e+00 0.0000000000000000e+00  0.0000000000000000e+00 0.0000000000000000e+00 0.0000000000000000e+00  2.7174971777723922e+01 0.0000000000000000e+00 0.0000000000000000e+00  2.7197570304664129e+01 -3.5564905967159321e-03 0.0000000000000000e+00  2.7208343170992318e+01 4.2248985900919644e-03 0.0000000000000000e+00  2.7210602300679749e+01 4.5937420767125344e-03 0.0000000000000000e+00  2.7215206678335466e+01 2.3691297068792749e-03 0.0000000000000000e+00  2.7217369185596237e+01 4.4053794417052086e-04 0.0000000000000000e+00  2.7219774753360234e+01 -1.4641421625698710e-04 0.0000000000000000e+00  2.7221407371846034e+01 -1.1482798840732021e-03 0.0000000000000000e+00  2.7223076192352135e+01 -3.6860203672890555e-04 0.0000000000000000e+00  2.7224158807061588e+01 -3.6065463716600769e-04 0.0000000000000000e+00  2.7224441259459411e+01 1.5475649979231374e-05 0.0000000000000000e+00  2.7224675676100286e+01 -9.0856498786835374e-05 0.0000000000000000e+00  2.7224631215412664e+01 1.4885213749410396e-05 0.0000000000000000e+00  2.7224701054234764e+01 -4.6570300329068841e-05 0.0000000000000000e+00  2.7224666381122542e+01 -7.3386327431234688e-06 0.0000000000000000e+00  2.7224696016970135e+01 -3.1768732860863884e-05 0.0000000000000000e+00  2.7224679829793974e+01 -1.6291726670537715e-05 0.0000000000000000e+00  2.7224692494167471e+01 -2.5681170236819365e-05 0.0000000000000000e+00  2.7224685423684097e+01 -1.9729717802307177e-05 0.0000000000000000e+00  2.7224690601343294e+01 -2.3295104500601619e-05 0.0000000000000000e+00  2.7224687769575503e+01 -2.1087950695902146e-05 0.0000000000000000e+00  2.7224689793103391e+01 -2.2390028586941463e-05 0.0000000000000000e+00  2.7224688797484276e+01 -2.1610473528278239e-05 0.0000000000000000e+00  2.7224689578981135e+01 -2.2060539869253823e-05 0.0000000000000000e+00  2.7224689306030740e+01 -2.1800275823244522e-05 0.0000000000000000e+00  2.7224689635728531e+01 -2.1947049127434846e-05 0.0000000000000000e+00  2.7224689622210654e+01 -2.1864908364894468e-05 0.0000000000000000e+00  2.7224689799873524e+01 -2.1910239009731876e-05 0.0000000000000000e+00  2.7224689872501262e+01 -2.1885623530323743e-05 0.0000000000000000e+00  2.7224690002474158e+01 -2.1898966865975601e-05 0.0000000000000000e+00  2.7224690101962480e+01 -2.1891923234405366e-05 0.0000000000000000e+00  2.7224690217888920e+01 -2.1895691450053982e-05 0.0000000000000000e+00  2.7224690325363657e+01 -2.1893753639675519e-05 0.0000000000000000e+00  2.7224690437383558e+01 -2.1894779067778992e-05 0.0000000000000000e+00  2.7224690547155813e+01 -2.1894259819681704e-05 0.0000000000000000e+00  2.7224690658147868e+01 -2.1894527291597417e-05 0.0000000000000000e+00  2.7224690768567559e+01 -2.1894390938103508e-05 0.0000000000000000e+00  2.7224690879312750e+01 -2.1894455245170423e-05 0.0000000000000000e+00  2.7224690989920230e+01 -2.1894414890695175e-05 0.0000000000000000e+00  2.7224691100611793e+01 -2.1894423632528201e-05 0.0000000000000000e+00  2.7224691211267331e+01 -2.1894407088671763e-05 0.0000000000000000e+00  2.7224691321945464e+01 -2.1894402214300641e-05 0.0000000000000000e+00  2.7224691432614129e+01 -2.1894392139189444e-05 0.0000000000000000e+00  2.7224691543289016e+01 -2.1894382793713486e-05 0.0000000000000000e+00  2.7224691653957226e+01 -2.1894373473126612e-05 0.0000000000000000e+00  2.7224691764624463e+01 -2.1894362648557838e-05 0.0000000000000000e+00  2.7224691875286361e+01 -2.1894352262814886e-05 0.0000000000000000e+00  2.7224691985939021e+01 -2.1894338767357734e-05 0.0000000000000000e+00  2.7224692096581279e+01 -2.1894330728820325e-05 0.0000000000000000e+00  2.7224692207215792e+01 -2.1894322466474598e-05 0.0000000000000000e+00  2.7224692317852185e+01 -2.1894332006166561e-05 0.0000000000000000e+00  2.7224692428522985e+01 -2.1894363569518425e-05 0.0000000000000000e+00  2.7224692539289332e+01 -2.1894461519559071e-05 0.0000000000000000e+00  2.7224692650328013e+01 -2.1894693108672836e-05 0.0000000000000000e+00  2.7224692761963762e+01 -2.1895201898402815e-05 0.0000000000000000e+00  2.7224692874981017e+01 -2.1896328990288657e-05 0.0000000000000000e+00  2.7224692990892432e+01 -2.1898649830678382e-05 0.0000000000000000e+00  2.7224693113074725e+01 -2.1903653041675251e-05 0.0000000000000000e+00  2.7224693248255178e+01 -2.1913869064618096e-05 0.0000000000000000e+00  2.7224693410968321e+01 -2.1935673906743776e-05 0.0000000000000000e+00  2.7224693631038491e+01 -2.1980531048579337e-05 0.0000000000000000e+00  2.7224693972371256e+01 -2.2075966661930953e-05 0.0000000000000000e+00  2.7224694568941011e+01 -2.2274107786857233e-05 0.0000000000000000e+00  2.7224695706780132e+01 -2.2693408706430669e-05 0.0000000000000000e+00  2.7224697987469959e+01 -2.3563741174565459e-05 0.0000000000000000e+00  2.7224702672495027e+01 -2.5374690053070682e-05 0.0000000000000000e+00  2.7224712349617992e+01 -2.9052670419655753e-05 0.0000000000000000e+00  2.7224732211727218e+01 -3.6383042684323775e-05 0.0000000000000000e+00  2.7224772279120558e+01 -5.0372294589757907e-05 0.0000000000000000e+00  2.7224850894446249e+01 -7.5756954648284439e-05 0.0000000000000000e+00  2.7224998935410522e+01 -1.1825762065944736e-04 0.0000000000000000e+00  2.7225262198617980e+01 -1.8207862062785110e-04 0.0000000000000000e+00  2.7225694992341875e+01 -2.6198936171788878e-04 0.0000000000000000e+00  2.7226333103585080e+01 -3.3418822962502702e-04 0.0000000000000000e+00  2.7227140145984823e+01 -3.5549570159464170e-04 0.0000000000000000e+00  2.7227971063042446e+01 -2.9598867958529658e-04 0.0000000000000000e+00  2.7228633574249123e+01 -1.6638442623798515e-04 0.0000000000000000e+00  2.7229003038096142e+01 2.8692470549699338e-06 0.0000000000000000e+00  2.7229215855669686e+01 1.2844757013640595e-04 0.0000000000000000e+00  2.7232050428878811e+01 8.6063234305292432e-05 0.0000000000000000e+00  2.7238335547387603e+01 0.0000000000000000e+00 0.0000000000000000e+00  3.3922524903084962e+01 0.0000000000000000e+00 0.0000000000000000e+00  3.3909595184778667e+01 3.7495403738505829e-03 0.0000000000000000e+00  3.3905174802063961e+01 -1.8112214490666116e-03 0.0000000000000000e+00  3.3908892667790376e+01 -4.7001745659727798e-04 0.0000000000000000e+00  3.3917421429266000e+01 -3.4196070653124836e-03 0.0000000000000000e+00  3.3927363761125768e+01 -2.5929502814913338e-03 0.0000000000000000e+00  3.3936495921151504e+01 -1.0030650214137987e-03 0.0000000000000000e+00  3.3940207882910443e+01 6.8073064469374083e-04 0.0000000000000000e+00  3.3941805543418724e+01 1.3638759535714836e-03 0.0000000000000000e+00  3.3942338853073174e+01 2.3269956861653568e-03 0.0000000000000000e+00  3.3942791768285744e+01 2.5977743642065683e-03 0.0000000000000000e+00  3.3942872620061365e+01 2.8478394936602394e-03 0.0000000000000000e+00  3.3943009829332247e+01 2.8478671309236829e-03 0.0000000000000000e+00  3.3942990906370476e+01 2.8989615828212589e-03 0.0000000000000000e+00  3.3943038555709798e+01 2.8834361236857670e-03 0.0000000000000000e+00  3.3943018647398837e+01 2.8993295941542648e-03 0.0000000000000000e+00  3.3943039831583810e+01 2.8922832198081633e-03 0.0000000000000000e+00  3.3943027978185015e+01 2.8982282367586158e-03 0.0000000000000000e+00  3.3943038065521357e+01 2.8953123103082840e-03 0.0000000000000000e+00  3.3943032046726607e+01 2.8975702550013667e-03 0.0000000000000000e+00  3.3943036635409918e+01 2.8963780418194292e-03 0.0000000000000000e+00  3.3943033998342770e+01 2.8972214948800989e-03 0.0000000000000000e+00  3.3943035944537151e+01 2.8967558757053611e-03 0.0000000000000000e+00  3.3943034968295621e+01 2.8970589731784776e-03 0.0000000000000000e+00  3.3943035769812333e+01 2.8968884261500968e-03 0.0000000000000000e+00  3.3943035499235812e+01 2.8969916315264689e-03 0.0000000000000000e+00  3.3943035856908878e+01 2.8969331385388900e-03 0.0000000000000000e+00  3.3943035852950707e+01 2.8969662461718572e-03 0.0000000000000000e+00  3.3943036054594792e+01 2.8969473351414085e-03 0.0000000000000000e+00  3.3943036142535703e+01 2.8969573462697641e-03 0.0000000000000000e+00  3.3943036293692408e+01 2.8969515229265936e-03 0.0000000000000000e+00  3.3943036411153408e+01 2.8969543751940696e-03 0.0000000000000000e+00  3.3943036547107809e+01 2.8969526524527433e-03 0.0000000000000000e+00  3.3943036673573218e+01 2.8969534237403348e-03 0.0000000000000000e+00  3.3943036805245214e+01 2.8969529311612496e-03 0.0000000000000000e+00  3.3943036934358958e+01 2.8969531397329460e-03 0.0000000000000000e+00  3.3943037064892479e+01 2.8969530031809484e-03 0.0000000000000000e+00  3.3943037194771229e+01 2.8969530588836175e-03 0.0000000000000000e+00  3.3943037325037196e+01 2.8969530303891997e-03 0.0000000000000000e+00  3.3943037455145252e+01 2.8969530596447009e-03 0.0000000000000000e+00  3.3943037585354119e+01 2.8969530627942297e-03 0.0000000000000000e+00  3.3943037715524532e+01 2.8969530875462392e-03 0.0000000000000000e+00  3.3943037845716276e+01 2.8969531020597147e-03 0.0000000000000000e+00  3.3943037975897823e+01 2.8969531237012383e-03 0.0000000000000000e+00  3.3943038106083137e+01 2.8969531445821222e-03 0.0000000000000000e+00  3.3943038236257024e+01 2.8969531695925400e-03 0.0000000000000000e+00  3.3943038366427274e+01 2.8969531963947471e-03 0.0000000000000000e+00  3.3943038496576271e+01 2.8969532311952377e-03 0.0000000000000000e+00  3.3943038626699582e+01 2.8969532666275216e-03 0.0000000000000000e+00  3.3943038756776787e+01 2.8969533004401882e-03 0.0000000000000000e+00  3.3943038886792458e+01 2.8969533303535694e-03 0.0000000000000000e+00  3.3943039016714806e+01 2.8969533189083367e-03 0.0000000000000000e+00  3.3943039146478192e+01 2.8969532565821096e-03 0.0000000000000000e+00  3.3943039276031357e+01 2.8969529694643039e-03 0.0000000000000000e+00  3.3943039405195378e+01 2.8969523612530261e-03 0.0000000000000000e+00  3.3943039533848960e+01 2.8969507515391067e-03 0.0000000000000000e+00  3.3943039661468426e+01 2.8969475283081212e-03 0.0000000000000000e+00  3.3943039787702773e+01 2.8969400296018992e-03 0.0000000000000000e+00  3.3943039910945117e+01 2.8969250004909648e-03 0.0000000000000000e+00  3.3943040029740523e+01 2.8968917754302720e-03 0.0000000000000000e+00  3.3943040138574275e+01 2.8968243369050504e-03 0.0000000000000000e+00  3.3943040230410908e+01 2.8966785064869376e-03 0.0000000000000000e+00  3.3943040283852135e+01 2.8963783203530100e-03 0.0000000000000000e+00  3.3943040264133415e+01 2.8957379684149964e-03 0.0000000000000000e+00  3.3943040079403588e+01 2.8944148484214061e-03 0.0000000000000000e+00  3.3943039551909195e+01 2.8916516507058085e-03 0.0000000000000000e+00  3.3943038249756746e+01 2.8860489605529250e-03 0.0000000000000000e+00  3.3943035329555428e+01 2.8748013153045596e-03 0.0000000000000000e+00  3.3943029226745828e+01 2.8530237425490206e-03 0.0000000000000000e+00  3.3943018192162640e+01 2.8120236250692311e-03 0.0000000000000000e+00  3.3943002557942762e+01 2.7386717358643376e-03 0.0000000000000000e+00  3.3942992657993805e+01 2.6153224035950278e-03 0.0000000000000000e+00  3.3943025061331582e+01 2.4309975395998369e-03 0.0000000000000000e+00  3.3943179691273592e+01 2.2094471633564384e-03 0.0000000000000000e+00  3.3943536899165345e+01 2.0545816550639360e-03 0.0000000000000000e+00  3.3944071539951089e+01 2.0889852836763990e-03 0.0000000000000000e+00  3.3944698841074583e+01 2.3074191777452120e-03 0.0000000000000000e+00  3.3945444648889058e+01 2.6460323010072712e-03 0.0000000000000000e+00  3.3946475059256798e+01 3.0389127319715354e-03 0.0000000000000000e+00  3.3947562580797978e+01 2.6700750906679875e-03 0.0000000000000000e+00  3.3945009440281666e+01 0.0000000000000000e+00 0.0000000000000000e+00  3.2994601773420598e+01 0.0000000000000000e+00 0.0000000000000000e+00  3.2988096595472591e+01 -3.0600972999547324e-03 0.0000000000000000e+00  3.2989003000785367e+01 -1.1420787044969633e-03 0.0000000000000000e+00  3.2984006007294077e+01 -9.8747502346427699e-04 0.0000000000000000e+00  3.2977294292941103e+01 -4.7463424571714671e-03 0.0000000000000000e+00  3.2969327438133035e+01 -6.3329303778501475e-03 0.0000000000000000e+00  3.2963495512615395e+01 -4.6441336198112249e-03 0.0000000000000000e+00  3.2960985337349449e+01 -2.4867965834581077e-03 0.0000000000000000e+00  3.2959016945817538e+01 -1.1256564558185429e-03 0.0000000000000000e+00  3.2958429575691682e+01 -4.8358833659091179e-04 0.0000000000000000e+00  3.2957821492445284e+01 -5.6577406657057763e-05 0.0000000000000000e+00  3.2957860678586101e+01 5.7662044696678634e-05 0.0000000000000000e+00  3.2957680567430067e+01 1.4804303321868889e-04 0.0000000000000000e+00  3.2957757899302152e+01 1.4977487651815871e-04 0.0000000000000000e+00  3.2957683897176288e+01 1.7015567084293989e-04 0.0000000000000000e+00  3.2957725513929326e+01 1.6636899953612194e-04 0.0000000000000000e+00  3.2957692775638698e+01 1.7205935317409513e-04 0.0000000000000000e+00  3.2957712174917233e+01 1.7073334652850194e-04 0.0000000000000000e+00  3.2957698199609737e+01 1.7226119714565562e-04 0.0000000000000000e+00  3.2957706696684518e+01 1.7192021307617259e-04 0.0000000000000000e+00  3.2957701064171758e+01 1.7229217597034495e-04 0.0000000000000000e+00  3.2957704577438442e+01 1.7220455894376339e-04 0.0000000000000000e+00  3.2957702488840503e+01 1.7229257368636200e-04 0.0000000000000000e+00  3.2957703884891991e+01 1.7226376106802726e-04 0.0000000000000000e+00  3.2957703211960613e+01 1.7228591424302270e-04 0.0000000000000000e+00  3.2957703779084163e+01 1.7227391252262205e-04 0.0000000000000000e+00  3.2957703633243874e+01 1.7227995596613951e-04 0.0000000000000000e+00  3.2957703901010838e+01 1.7227468482957869e-04 0.0000000000000000e+00  3.2957703938252422e+01 1.7227630125739128e-04 0.0000000000000000e+00  3.2957704105666735e+01 1.7227408258442230e-04 0.0000000000000000e+00  3.2957704202651747e+01 1.7227442289544648e-04 0.0000000000000000e+00  3.2957704338595470e+01 1.7227352024081074e-04 0.0000000000000000e+00  3.2957704454072100e+01 1.7227353314776866e-04 0.0000000000000000e+00  3.2957704580726954e+01 1.7227317681888586e-04 0.0000000000000000e+00  3.2957704701692634e+01 1.7227313165990105e-04 0.0000000000000000e+00  3.2957704825757546e+01 1.7227300098621227e-04 0.0000000000000000e+00  3.2957704948304240e+01 1.7227296212092569e-04 0.0000000000000000e+00  3.2957705071685851e+01 1.7227290544333636e-04 0.0000000000000000e+00  3.2957705194680386e+01 1.7227288303171484e-04 0.0000000000000000e+00  3.2957705317898068e+01 1.7227286735760485e-04 0.0000000000000000e