<?xml version="1.0"?>
<VTKFile type="UnstructuredGrid"  version="0.1"  >
<UnstructuredGrid>
<Piece  NumberOfPoints="1369" NumberOfCells="2560">
<Points>
<DataArray  type="Float64"  NumberOfComponents="3"  format="ascii">0 0 0  0.75 0 0  1.5 0 0  2.25 0 0  3 0 0  3.75 0 0  4.5 0 0  5.25 0 0  6 0 0  6.75 0 0  7.5 0 0  8.25 0 0  9 0 0  9.75 0 0  10.5 0 0  11.25 0 0  12 0 0  12.75 0 0  13.5 0 0  14.25 0 0  15 0 0  15.75 0 0  16.5 0 0  17.25 0 0  18 0 0  18.75 0 0  19.5 0 0  20.25 0 0  21 0 0  21.75 0 0  22.5 0 0  23.25 0 0  24 0 0  24.75 0 0  25.5 0 0  26.25 0 0  27 0 0  27.75 0 0  28.5 0 0  29.25 0 0  30 0 0  30.75 0 0  31.5 0 0  32.25 0 0  33 0 0  33.75 0 0  34.5 0 0  35.25 0 0  36 0 0  36.75 0 0  37.5 0 0  38.25 0 0  39 0 0  39.75 0 0  40.5 0 0  41.25 0 0  42 0 0  42.75 0 0  43.5 0 0  44.25 0 0  45 0 0  45.75 0 0  46.5 0 0  47.25 0 0  48 0 0  48.75 0 0  49.5 0 0  50.25 0 0  51 0 0  51.75 0 0  52.5 0 0  53.25 0 0  54 0 0  54.75 0 0  55.5 0 0  56.25 0 0  57 0 0  57.75 0 0  58.5 0 0  59.25 0 0  60 0 0  0 0.5 0  0.75 0.5 0  1.5 0.5 0  2.25 0.5 0  3 0.5 0  3.75 0.5 0  4.5 0.5 0  5.25 0.5 0  6 0.5 0  6.75 0.5 0  7.5 0.5 0  8.25 0.5 0  9 0.5 0  9.75 0.5 0  10.5 0.5 0  11.25 0.5 0  12 0.5 0  12.75 0.5 0  13.5 0.5 0  14.25 0.5 0  15 0.5 0  15.75 0.5 0  16.5 0.5 0  17.25 0.5 0  18 0.5 0  18.75 0.5 0  19.5 0.5 0  20.25 0.5 0  21 0.5 0  21.75 0.5 0  22.5 0.5 0  23.25 0.5 0  24 0.5 0  24.75 0.5 0  25.5 0.5 0  26.25 0.5 0  27 0.5 0  27.75 0.5 0  28.5 0.5 0  29.25 0.5 0  30 0.5 0  30.75 0.5 0  31.5 0.5 0  32.25 0.5 0  33 0.5 0  33.75 0.5 0  34.5 0.5 0  35.25 0.5 0  36 0.5 0  36.75 0.5 0  37.5 0.5 0  38.25 0.5 0  39 0.5 0  39.75 0.5 0  40.5 0.5 0  41.25 0.5 0  42 0.5 0  42.75 0.5 0  43.5 0.5 0  44.25 0.5 0  45 0.5 0  45.75 0.5 0  46.5 0.5 0  47.25 0.5 0  48 0.5 0  48.75 0.5 0  49.5 0.5 0  50.25 0.5 0  51 0.5 0  51.75 0.5 0  52.5 0.5 0  53.25 0.5 0  54 0.5 0  54.75 0.5 0  55.5 0.5 0  56.25 0.5 0  57 0.5 0  57.75 0.5 0  58.5 0.5 0  59.25 0.5 0  60 0.5 0  0 1 0  0.75 1 0  1.5 1 0  2.25 1 0  3 1 0  3.75 1 0  4.5 1 0  5.25 1 0  6 1 0  6.75 1 0  7.5 1 0  8.25 1 0  9 1 0  9.75 1 0  10.5 1 0  11.25 1 0  12 1 0  12.75 1 0  13.5 1 0  14.25 1 0  15 1 0  15.75 1 0  16.5 1 0  17.25 1 0  18 1 0  18.75 1 0  19.5 1 0  20.25 1 0  21 1 0  21.75 1 0  22.5 1 0  23.25 1 0  24 1 0  24.75 1 0  25.5 1 0  26.25 1 0  27 1 0  27.75 1 0  28.5 1 0  29.25 1 0  30 1 0  30.75 1 0  31.5 1 0  32.25 1 0  33 1 0  33.75 1 0  34.5 1 0  35.25 1 0  36 1 0  36.75 1 0  37.5 1 0  38.25 1 0  39 1 0  39.75 1 0  40.5 1 0  41.25 1 0  42 1 0  42.75 1 0  43.5 1 0  44.25 1 0  45 1 0  45.75 1 0  46.5 1 0  47.25 1 0  48 1 0  48.75 1 0  49.5 1 0  50.25 1 0  51 1 0  51.75 1 0  52.5 1 0  53.25 1 0  54 1 0  54.75 1 0  55.5 1 0  56.25 1 0  57 1 0  57.75 1 0  58.5 1 0  59.25 1 0  60 1 0  0 1.5 0  0.75 1.5 0  1.5 1.5 0  2.25 1.5 0  3 1.5 0  3.75 1.5 0  4.5 1.5 0  5.25 1.5 0  6 1.5 0  6.75 1.5 0  7.5 1.5 0  8.25 1.5 0  9 1.5 0  9.75 1.5 0  10.5 1.5 0  11.25 1.5 0  12 1.5 0  12.75 1.5 0  13.5 1.5 0  14.25 1.5 0  15 1.5 0  15.75 1.5 0  16.5 1.5 0  17.25 1.5 0  18 1.5 0  18.75 1.5 0  19.5 1.5 0  20.25 1.5 0  21 1.5 0  21.75 1.5 0  22.5 1.5 0  23.25 1.5 0  24 1.5 0  24.75 1.5 0  25.5 1.5 0  26.25 1.5 0  27 1.5 0  27.75 1.5 0  28.5 1.5 0  29.25 1.5 0  30 1.5 0  30.75 1.5 0  31.5 1.5 0  32.25 1.5 0  33 1.5 0  33.75 1.5 0  34.5 1.5 0  35.25 1.5 0  36 1.5 0  36.75 1.5 0  37.5 1.5 0  38.25 1.5 0  39 1.5 0  39.75 1.5 0  40.5 1.5 0  41.25 1.5 0  42 1.5 0  42.75 1.5 0  43.5 1.5 0  44.25 1.5 0  45 1.5 0  45.75 1.5 0  46.5 1.5 0  47.25 1.5 0  48 1.5 0  48.75 1.5 0  49.5 1.5 0  50.25 1.5 0  51 1.5 0  51.75 1.5 0  52.5 1.5 0  53.25 1.5 0  54 1.5 0  54.75 1.5 0  55.5 1.5 0  56.25 1.5 0  57 1.5 0  57.75 1.5 0  58.5 1.5 0  59.25 1.5 0  60 1.5 0  0 2 0  0.75 2 0  1.5 2 0  2.25 2 0  3 2 0  3.75 2 0  4.5 2 0  5.25 2 0  6 2 0  6.75 2 0  7.5 2 0  8.25 2 0  9 2 0  9.75 2 0  10.5 2 0  11.25 2 0  12 2 0  12.75 2 0  13.5 2 0  14.25 2 0  15 2 0  15.75 2 0  16.5 2 0  17.25 2 0  18 2 0  18.75 2 0  19.5 2 0  20.25 2 0  21 2 0  21.75 2 0  22.5 2 0  23.25 2 0  24 2 0  24.75 2 0  25.5 2 0  26.25 2 0  27 2 0  27.75 2 0  28.5 2 0  29.25 2 0  30 2 0  30.75 2 0  31.5 2 0  32.25 2 0  33 2 0  33.75 2 0  34.5 2 0  35.25 2 0  36 2 0  36.75 2 0  37.5 2 0  38.25 2 0  39 2 0  39.75 2 0  40.5 2 0  41.25 2 0  42 2 0  42.75 2 0  43.5 2 0  44.25 2 0  45 2 0  45.75 2 0  46.5 2 0  47.25 2 0  48 2 0  48.75 2 0  49.5 2 0  50.25 2 0  51 2 0  51.75 2 0  52.5 2 0  53.25 2 0  54 2 0  54.75 2 0  55.5 2 0  56.25 2 0  57 2 0  57.75 2 0  58.5 2 0  59.25 2 0  60 2 0  0 2.5 0  0.75 2.5 0  1.5 2.5 0  2.25 2.5 0  3 2.5 0  3.75 2.5 0  4.5 2.5 0  5.25 2.5 0  6 2.5 0  6.75 2.5 0  7.5 2.5 0  8.25 2.5 0  9 2.5 0  9.75 2.5 0  10.5 2.5 0  11.25 2.5 0  12 2.5 0  12.75 2.5 0  13.5 2.5 0  14.25 2.5 0  15 2.5 0  15.75 2.5 0  16.5 2.5 0  17.25 2.5 0  18 2.5 0  18.75 2.5 0  19.5 2.5 0  20.25 2.5 0  21 2.5 0  21.75 2.5 0  22.5 2.5 0  23.25 2.5 0  24 2.5 0  24.75 2.5 0  25.5 2.5 0  26.25 2.5 0  27 2.5 0  27.75 2.5 0  28.5 2.5 0  29.25 2.5 0  30 2.5 0  30.75 2.5 0  31.5 2.5 0  32.25 2.5 0  33 2.5 0  33.75 2.5 0  34.5 2.5 0  35.25 2.5 0  36 2.5 0  36.75 2.5 0  37.5 2.5 0  38.25 2.5 0  39 2.5 0  39.75 2.5 0  40.5 2.5 0  41.25 2.5 0  42 2.5 0  42.75 2.5 0  43.5 2.5 0  44.25 2.5 0  45 2.5 0  45.75 2.5 0  46.5 2.5 0  47.25 2.5 0  48 2.5 0  48.75 2.5 0  49.5 2.5 0  50.25 2.5 0  51 2.5 0  51.75 2.5 0  52.5 2.5 0  53.25 2.5 0  54 2.5 0  54.75 2.5 0  55.5 2.5 0  56.25 2.5 0  57 2.5 0  57.75 2.5 0  58.5 2.5 0  59.25 2.5 0  60 2.5 0  0 3 0  0.75 3 0  1.5 3 0  2.25 3 0  3 3 0  3.75 3 0  4.5 3 0  5.25 3 0  6 3 0  6.75 3 0  7.5 3 0  8.25 3 0  9 3 0  9.75 3 0  10.5 3 0  11.25 3 0  12 3 0  12.75 3 0  13.5 3 0  14.25 3 0  15 3 0  15.75 3 0  16.5 3 0  17.25 3 0  18 3 0  18.75 3 0  19.5 3 0  20.25 3 0  21 3 0  21.75 3 0  22.5 3 0  23.25 3 0  24 3 0  24.75 3 0  25.5 3 0  26.25 3 0  27 3 0  27.75 3 0  28.5 3 0  29.25 3 0  30 3 0  30.75 3 0  31.5 3 0  32.25 3 0  33 3 0  33.75 3 0  34.5 3 0  35.25 3 0  36 3 0  36.75 3 0  37.5 3 0  38.25 3 0  39 3 0  39.75 3 0  40.5 3 0  41.25 3 0  42 3 0  42.75 3 0  43.5 3 0  44.25 3 0  45 3 0  45.75 3 0  46.5 3 0  47.25 3 0  48 3 0  48.75 3 0  49.5 3 0  50.25 3 0  51 3 0  51.75 3 0  52.5 3 0  53.25 3 0  54 3 0  54.75 3 0  55.5 3 0  56.25 3 0  57 3 0  57.75 3 0  58.5 3 0  59.25 3 0  60 3 0  0 3.5 0  0.75 3.5 0  1.5 3.5 0  2.25 3.5 0  3 3.5 0  3.75 3.5 0  4.5 3.5 0  5.25 3.5 0  6 3.5 0  6.75 3.5 0  7.5 3.5 0  8.25 3.5 0  9 3.5 0  9.75 3.5 0  10.5 3.5 0  11.25 3.5 0  12 3.5 0  12.75 3.5 0  13.5 3.5 0  14.25 3.5 0  15 3.5 0  15.75 3.5 0  16.5 3.5 0  17.25 3.5 0  18 3.5 0  18.75 3.5 0  19.5 3.5 0  20.25 3.5 0  21 3.5 0  21.75 3.5 0  22.5 3.5 0  23.25 3.5 0  24 3.5 0  24.75 3.5 0  25.5 3.5 0  26.25 3.5 0  27 3.5 0  27.75 3.5 0  28.5 3.5 0  29.25 3.5 0  30 3.5 0  30.75 3.5 0  31.5 3.5 0  32.25 3.5 0  33 3.5 0  33.75 3.5 0  34.5 3.5 0  35.25 3.5 0  36 3.5 0  36.75 3.5 0  37.5 3.5 0  38.25 3.5 0  39 3.5 0  39.75 3.5 0  40.5 3.5 0  41.25 3.5 0  42 3.5 0  42.75 3.5 0  43.5 3.5 0  44.25 3.5 0  45 3.5 0  45.75 3.5 0  46.5 3.5 0  47.25 3.5 0  48 3.5 0  48.75 3.5 0  49.5 3.5 0  50.25 3.5 0  51 3.5 0  51.75 3.5 0  52.5 3.5 0  53.25 3.5 0  54 3.5 0  54.75 3.5 0  55.5 3.5 0  56.25 3.5 0  57 3.5 0  57.75 3.5 0  58.5 3.5 0  59.25 3.5 0  60 3.5 0  0 4 0  0.75 4 0  1.5 4 0  2.25 4 0  3 4 0  3.75 4 0  4.5 4 0  5.25 4 0  6 4 0  6.75 4 0  7.5 4 0  8.25 4 0  9 4 0  9.75 4 0  10.5 4 0  11.25 4 0  12 4 0  12.75 4 0  13.5 4 0  14.25 4 0  15 4 0  15.75 4 0  16.5 4 0  17.25 4 0  18 4 0  18.75 4 0  19.5 4 0  20.25 4 0  21 4 0  21.75 4 0  22.5 4 0  23.25 4 0  24 4 0  24.75 4 0  25.5 4 0  26.25 4 0  27 4 0  27.75 4 0  28.5 4 0  29.25 4 0  30 4 0  30.75 4 0  31.5 4 0  32.25 4 0  33 4 0  33.75 4 0  34.5 4 0  35.25 4 0  36 4 0  36.75 4 0  37.5 4 0  38.25 4 0  39 4 0  39.75 4 0  40.5 4 0  41.25 4 0  42 4 0  42.75 4 0  43.5 4 0  44.25 4 0  45 4 0  45.75 4 0  46.5 4 0  47.25 4 0  48 4 0  48.75 4 0  49.5 4 0  50.25 4 0  51 4 0  51.75 4 0  52.5 4 0  53.25 4 0  54 4 0  54.75 4 0  55.5 4 0  56.25 4 0  57 4 0  57.75 4 0  58.5 4 0  59.25 4 0  60 4 0  0.375 0.25 0  1.125 0.25 0  1.875 0.25 0  2.625 0.25 0  3.375 0.25 0  4.125 0.25 0  4.875 0.25 0  5.625 0.25 0  6.375 0.25 0  7.125 0.25 0  7.875 0.25 0  8.625 0.25 0  9.375 0.25 0  10.125 0.25 0  10.875 0.25 0  11.625 0.25 0  12.375 0.25 0  13.125 0.25 0  13.875 0.25 0  14.625 0.25 0  15.375 0.25 0  16.125 0.25 0  16.875 0.25 0  17.625 0.25 0  18.375 0.25 0  19.125 0.25 0  19.875 0.25 0  20.625 0.25 0  21.375 0.25 0  22.125 0.25 0  22.875 0.25 0  23.625 0.25 0  24.375 0.25 0  25.125 0.25 0  25.875 0.25 0  26.625 0.25 0  27.375 0.25 0  28.125 0.25 0  28.875 0.25 0  29.625 0.25 0  30.375 0.25 0  31.125 0.25 0  31.875 0.25 0  32.625 0.25 0  33.375 0.25 0  34.125 0.25 0  34.875 0.25 0  35.625 0.25 0  36.375 0.25 0  37.125 0.25 0  37.875 0.25 0  38.625 0.25 0  39.375 0.25 0  40.125 0.25 0  40.875 0.25 0  41.625 0.25 0  42.375 0.25 0  43.125 0.25 0  43.875 0.25 0  44.625 0.25 0  45.375 0.25 0  46.125 0.25 0  46.875 0.25 0  47.625 0.25 0  48.375 0.25 0  49.125 0.25 0  49.875 0.25 0  50.625 0.25 0  51.375 0.25 0  52.125 0.25 0  52.875 0.25 0  53.625 0.25 0  54.375 0.25 0  55.125 0.25 0  55.875 0.25 0  56.625 0.25 0  57.375 0.25 0  58.125 0.25 0  58.875 0.25 0  59.625 0.25 0  0.375 0.75 0  1.125 0.75 0  1.875 0.75 0  2.625 0.75 0  3.375 0.75 0  4.125 0.75 0  4.875 0.75 0  5.625 0.75 0  6.375 0.75 0  7.125 0.75 0  7.875 0.75 0  8.625 0.75 0  9.375 0.75 0  10.125 0.75 0  10.875 0.75 0  11.625 0.75 0  12.375 0.75 0  13.125 0.75 0  13.875 0.75 0  14.625 0.75 0  15.375 0.75 0  16.125 0.75 0  16.875 0.75 0  17.625 0.75 0  18.375 0.75 0  19.125 0.75 0  19.875 0.75 0  20.625 0.75 0  21.375 0.75 0  22.125 0.75 0  22.875 0.75 0  23.625 0.75 0  24.375 0.75 0  25.125 0.75 0  25.875 0.75 0  26.625 0.75 0  27.375 0.75 0  28.125 0.75 0  28.875 0.75 0  29.625 0.75 0  30.375 0.75 0  31.125 0.75 0  31.875 0.75 0  32.625 0.75 0  33.375 0.75 0  34.125 0.75 0  34.875 0.75 0  35.625 0.75 0  36.375 0.75 0  37.125 0.75 0  37.875 0.75 0  38.625 0.75 0  39.375 0.75 0  40.125 0.75 0  40
[...]
<PointData  Vectors="f_8-0"> 
<DataArray  type="Float64"  Name="f_8-0"  NumberOfComponents="3" format="ascii">0.0000000000000000e+00 0.0000000000000000e+00 0.0000000000000000e+00  0.0000000000000000e+00 0.0000000000000000e+00 0.0000000000000000e+00  0.0000000000000000e+00 0.0000000000000000e+00 0.0000000000000000e+00  0.0000000000000000e+00 0.0000000000000000e+00 0.0000000000000000e+00  0.0000000000000000e+00 0.0000000000000000e+00 0.0000000000000000e+00  0.0000000000000000e+00 0.0000000000000000e+00 0.0000000000000000e+00  0.0000000000000000e+00 0.0000000000000000e+00 0.0000000000000000e+00  0.0000000000000000e+00 0.0000000000000000e+00 0.0000000000000000e+00  0.0000000000000000e+00 0.0000000000000000e+00 0.0000000000000000e+00  0.0000000000000000e+00 0.0000000000000000e+00 0.0000000000000000e+00  0.0000000000000000e+00 0.0000000000000000e+00 0.0000000000000000e+00  0.0000000000000000e+00 0.0000000000000000e+00 0.0000000000000000e+00  0.0000000000000000e+00 0.0000000000000000e+00 0.0000000000000000e+00  0.0000000000000000e+00 0.0000000000000000e+00 0.0000000000000000e+00  0.0000000000000000e+00 0.0000000000000000e+00 0.0000000000000000e+00  0.0000000000000000e+00 0.0000000000000000e+00 0.0000000000000000e+00  0.0000000000000000e+00 0.0000000000000000e+00 0.0000000000000000e+00  0.0000000000000000e+00 0.0000000000000000e+00 0.0000000000000000e+00  0.0000000000000000e+00 0.0000000000000000e+00 0.0000000000000000e+00  0.0000000000000000e+00 0.0000000000000000e+00 0.0000000000000000e+00  0.0000000000000000e+00 0.0000000000000000e+00 0.0000000000000000e+00  0.0000000000000000e+00 0.0000000000000000e+00 0.0000000000000000e+00  0.0000000000000000e+00 0.0000000000000000e+00 0.0000000000000000e+00  0.0000000000000000e+00 0.0000000000000000e+00 0.0000000000000000e+00  0.0000000000000000e+00 0.0000000000000000e+00 0.0000000000000000e+00  0.0000000000000000e+00 0.0000000000000000e+00 0.0000000000000000e+00  0.0000000000000000e+00 0.0000000000000000e+00 0.0000000000000000e+00  0.0000000000000000e+00 0.0000000000000000e+00 0.0000000000000000e+00  0.0000000000000000e+00 0.0000000000000000e+00 0.0000000000000000e+00  0.0000000000000000e+00 0.0000000000000000e+00 0.0000000000000000e+00  0.0000000000000000e+00 0.0000000000000000e+00 0.0000000000000000e+00  0.0000000000000000e+00 0.0000000000000000e+00 0.0000000000000000e+00  0.0000000000000000e+00 0.0000000000000000e+00 0.0000000000000000e+00  0.0000000000000000e+00 0.0000000000000000e+00 0.0000000000000000e+00  0.0000000000000000e+00 0.0000000000000000e+00 0.0000000000000000e+00  0.0000000000000000e+00 0.0000000000000000e+00 0.0000000000000000e+00  0.0000000000000000e+00 0.0000000000000000e+00 0.0000000000000000e+00  0.0000000000000000e+00 0.0000000000000000e+00 0.0000000000000000e+00  0.0000000000000000e+00 0.0000000000000000e+00 0.0000000000000000e+00  0.0000000000000000e+00 0.0000000000000000e+00 0.0000000000000000e+00  0.0000000000000000e+00 0.0000000000000000e+00 0.0000000000000000e+00  0.0000000000000000e+00 0.0000000000000000e+00 0.0000000000000000e+00  0.0000000000000000e+00 0.0000000000000000e+00 0.0000000000000000e+00  0.0000000000000000e+00 0.0000000000000000e+00 0.0000000000000000e+00  0.0000000000000000e+00 0.0000000000000000e+00 0.0000000000000000e+00  0.0000000000000000e+00 0.0000000000000000e+00 0.0000000000000000e+00  0.0000000000000000e+00 0.0000000000000000e+00 0.0000000000000000e+00  0.0000000000000000e+00 0.0000000000000000e+00 0.0000000000000000e+00  0.0000000000000000e+00 0.0000000000000000e+00 0.0000000000000000e+00  0.0000000000000000e+00 0.0000000000000000e+00 0.0000000000000000e+00  0.0000000000000000e+00 0.0000000000000000e+00 0.0000000000000000e+00  0.0000000000000000e+00 0.0000000000000000e+00 0.0000000000000000e+00  0.0000000000000000e+00 0.0000000000000000e+00 0.0000000000000000e+00  0.0000000000000000e+00 0.0000000000000000e+00 0.0000000000000000e+00  0.0000000000000000e+00 0.0000000000000000e+00 0.0000000000000000e+00  0.0000000000000000e+00 0.0000000000000000e+00 0.0000000000000000e+00  0.0000000000000000e+00 0.0000000000000000e+00 0.0000000000000000e+00  0.0000000000000000e+00 0.0000000000000000e+00 0.0000000000000000e+00  0.0000000000000000e+00 0.0000000000000000e+00 0.0000000000000000e+00  0.0000000000000000e+00 0.0000000000000000e+00 0.0000000000000000e+00  0.0000000000000000e+00 0.0000000000000000e+00 0.0000000000000000e+00  0.0000000000000000e+00 0.0000000000000000e+00 0.0000000000000000e+00  0.0000000000000000e+00 0.0000000000000000e+00 0.0000000000000000e+00  0.0000000000000000e+00 0.0000000000000000e+00 0.0000000000000000e+00  0.0000000000000000e+00 0.0000000000000000e+00 0.0000000000000000e+00  0.0000000000000000e+00 0.0000000000000000e+00 0.0000000000000000e+00  0.0000000000000000e+00 0.0000000000000000e+00 0.0000000000000000e+00  0.0000000000000000e+00 0.0000000000000000e+00 0.0000000000000000e+00  0.0000000000000000e+00 0.0000000000000000e+00 0.0000000000000000e+00  0.0000000000000000e+00 0.0000000000000000e+00 0.0000000000000000e+00  0.0000000000000000e+00 0.0000000000000000e+00 0.0000000000000000e+00  0.0000000000000000e+00 0.0000000000000000e+00 0.0000000000000000e+00  0.0000000000000000e+00 0.0000000000000000e+00 0.0000000000000000e+00  0.0000000000000000e+00 0.0000000000000000e+00 0.0000000000000000e+00  0.0000000000000000e+00 0.0000000000000000e+00 0.0000000000000000e+00  0.0000000000000000e+00 0.0000000000000000e+00 0.0000000000000000e+00  0.0000000000000000e+00 0.0000000000000000e+00 0.0000000000000000e+00  0.0000000000000000e+00 0.0000000000000000e+00 0.0000000000000000e+00  0.0000000000000000e+00 0.0000000000000000e+00 0.0000000000000000e+00  0.0000000000000000e+00 0.0000000000000000e+00 0.0000000000000000e+00  0.0000000000000000e+00 0.0000000000000000e+00 0.0000000000000000e+00  1.7942440328383700e+01 0.0000000000000000e+00 0.0000000000000000e+00  1.8000772913757565e+01 -6.4788828487617675e-02 0.0000000000000000e+00  1.7989389605040330e+01 -2.1801729876157451e-02 0.0000000000000000e+00  1.7991366916085443e+01 -5.6801693161950325e-03 0.0000000000000000e+00  1.7990904036068958e+01 -5.1156136414188137e-03 0.0000000000000000e+00  1.7987621842860708e+01 -3.4950201191115229e-03 0.0000000000000000e+00  1.7989353837069327e+01 -5.9028374682082345e-03 0.0000000000000000e+00  1.7991273973118453e+01 -6.0487714254607028e-03 0.0000000000000000e+00  1.7996055128010571e+01 -6.8325797858046740e-03 0.0000000000000000e+00  1.8000035630260570e+01 -6.3655612984014620e-03 0.0000000000000000e+00  1.8003531776876859e+01 -6.1034633671066324e-03 0.0000000000000000e+00  1.8005524535346208e+01 -5.5882793114579998e-03 0.0000000000000000e+00  1.8006727274904417e+01 -5.3533363408080192e-03 0.0000000000000000e+00  1.8007216499681679e+01 -5.1792624202123966e-03 0.0000000000000000e+00  1.8007446236761211e+01 -5.1344766330286970e-03 0.0000000000000000e+00  1.8007518796568718e+01 -5.1093883789726409e-03 0.0000000000000000e+00  1.8007554412078022e+01 -5.1049575577815894e-03 0.0000000000000000e+00  1.8007569149277799e+01 -5.1036556618573635e-03 0.0000000000000000e+00  1.8007576517790806e+01 -5.1008494718375883e-03 0.0000000000000000e+00  1.8007582828823043e+01 -5.1021571719917173e-03 0.0000000000000000e+00  1.8007584059772761e+01 -5.0997606326217693e-03 0.0000000000000000e+00  1.8007587201363798e+01 -5.1011940465614308e-03 0.0000000000000000e+00  1.8007586870932172e+01 -5.0996087366488672e-03 0.0000000000000000e+00  1.8007588465736607e+01 -5.1006581434156987e-03 0.0000000000000000e+00  1.8007587981599865e+01 -5.0997250361690151e-03 0.0000000000000000e+00  1.8007588814934515e+01 -5.1003668920537593e-03 0.0000000000000000e+00  1.8007588496589737e+01 -5.0998574550511254e-03 0.0000000000000000e+00  1.8007588944889072e+01 -5.1002090434723625e-03 0.0000000000000000e+00  1.8007588792377774e+01 -5.0999485290721914e-03 0.0000000000000000e+00  1.8007589043903341e+01 -5.1001260078765639e-03 0.0000000000000000e+00  1.8007588999488242e+01 -5.1000007641807217e-03 0.0000000000000000e+00  1.8007589152380387e+01 -5.1000844292685152e-03 0.0000000000000000e+00  1.8007589167639875e+01 -5.1000276539677862e-03 0.0000000000000000e+00  1.8007589273096730e+01 -5.1000647821083725e-03 0.0000000000000000e+00  1.8007589318057281e+01 -5.1000404359067076e-03 0.0000000000000000e+00  1.8007589401869058e+01 -5.1000560460771173e-03 0.0000000000000000e+00  1.8007589460474385e+01 -5.1000461408550147e-03 0.0000000000000000e+00  1.8007589534936471e+01 -5.1000524003186982e-03 0.0000000000000000e+00  1.8007589599401950e+01 -5.1000485694640187e-03 0.0000000000000000e+00  1.8007589670024597e+01 -5.1000509852428466e-03 0.0000000000000000e+00  1.8007589736851685e+01 -5.1000495784866220e-03 0.0000000000000000e+00  1.8007589805957629e+01 -5.1000504885225463e-03 0.0000000000000000e+00  1.8007589873667190e+01 -5.1000500060768171e-03 0.0000000000000000e+00  1.8007589942175041e+01 -5.1000503490439318e-03 0.0000000000000000e+00  1.8007590010168439e+01 -5.1000502038650516e-03 0.0000000000000000e+00  1.8007590078414182e+01 -5.1000503408063381e-03 0.0000000000000000e+00  1.8007590146455026e+01 -5.1000503110543429e-03 0.0000000000000000e+00  1.8007590214546617e+01 -5.1000503754420690e-03 0.0000000000000000e+00  1.8007590282535155e+01 -5.1000503820191959e-03 0.0000000000000000e+00  1.8007590350502408e+01 -5.1000504193120071e-03 0.0000000000000000e+00  1.8007590418391416e+01 -5.1000504335805084e-03 0.0000000000000000e+00  1.8007590486220757e+01 -5.1000504569937797e-03 0.0000000000000000e+00  1.8007590553966832e+01 -5.1000504654002644e-03 0.0000000000000000e+00  1.8007590621622818e+01 -5.1000504814326855e-03 0.0000000000000000e+00  1.8007590689180574e+01 -5.1000504754126945e-03 0.0000000000000000e+00  1.8007590756617159e+01 -5.1000504969469160e-03 0.0000000000000000e+00  1.8007590823967107e+01 -5.1000505035268791e-03 0.0000000000000000e+00  1.8007590891277886e+01 -5.1000506327617866e-03 0.0000000000000000e+00  1.8007590958815978e+01 -5.1000508820070100e-03 0.0000000000000000e+00  1.8007591027138364e+01 -5.1000517070707019e-03 0.0000000000000000e+00  1.8007591097812810e+01 -5.1000535192148068e-03 0.0000000000000000e+00  1.8007591174225038e+01 -5.1000580397484972e-03 0.0000000000000000e+00  1.8007591264346637e+01 -5.1000679625327885e-03 0.0000000000000000e+00  1.8007591385416656e+01 -5.1000903306351051e-03 0.0000000000000000e+00  1.8007591575128796e+01 -5.1001381930124469e-03 0.0000000000000000e+00  1.8007591913340807e+01 -5.1002404622136378e-03 0.0000000000000000e+00  1.8007592567115122e+01 -5.1004525483003089e-03 0.0000000000000000e+00  1.8007593878169011e+01 -5.1008881853259790e-03 0.0000000000000000e+00  1.8007596530979722e+01 -5.1017657659196240e-03 0.0000000000000000e+00  1.8007601863568066e+01 -5.1035054695640365e-03 0.0000000000000000e+00  1.8007612410117641e+01 -5.1068717270986649e-03 0.0000000000000000e+00  1.8007632819621282e+01 -5.1132521425928815e-03 0.0000000000000000e+00  1.8007671463142483e+01 -5.1252904167625778e-03 0.0000000000000000e+00  1.8007743510032093e+01 -5.1481190084577228e-03 0.0000000000000000e+00  1.8007876918945442e+01 -5.1917468100429629e-03 0.0000000000000000e+00  1.8008128479201371e+01 -5.2772160666815903e-03 0.0000000000000000e+00  1.8008641171931863e+01 -5.4478521455525522e-03 0.0000000000000000e+00  1.8009870483136773e+01 -5.7315990377166826e-03 0.0000000000000000e+00  1.8013400735033620e+01 -5.8575063700709619e-03 0.0000000000000000e+00  1.8029051338749046e+01 -8.4923709313746505e-04 0.0000000000000000e+00  1.8077350261153235e+01 0.0000000000000000e+00 0.0000000000000000e+00  2.7838050904593221e+01 0.0000000000000000e+00 0.0000000000000000e+00  2.7868801413056502e+01 3.6765821260477248e-02 0.0000000000000000e+00  2.7833217634118935e+01 1.6779654618216818e-03 0.0000000000000000e+00  2.7832066624686206e+01 8.6412151817467607e-03 0.0000000000000000e+00  2.7825631706237694e+01 6.3323473755724563e-03 0.0000000000000000e+00  2.7827808508396775e+01 2.7644534403348277e-03 0.0000000000000000e+00  2.7827290179672865e+01 1.4640490629990116e-03 0.0000000000000000e+00  2.7829150670024838e+01 -1.2762644850744277e-03 0.0000000000000000e+00  2.7830773875219283e+01 -2.1871608701152490e-03 0.0000000000000000e+00  2.7835007292964089e+01 -2.0588745643581943e-03 0.0000000000000000e+00  2.7838233990474862e+01 -5.5514540913509521e-04 0.0000000000000000e+00  2.7840913079313676e+01 6.3540127052260211e-04 0.0000000000000000e+00  2.7842264639836007e+01 1.6301774495025888e-03 0.0000000000000000e+00  2.7843147429420615e+01 2.1165290742241991e-03 0.0000000000000000e+00  2.7843486310071324e+01 2.3933938916940417e-03 0.0000000000000000e+00  2.7843696494802838e+01 2.4860725153650321e-03 0.0000000000000000e+00  2.7843753512096807e+01 2.5335962351787818e-03 0.0000000000000000e+00  2.7843799379854431e+01 2.5471010181608226e-03 0.0000000000000000e+00  2.7843808767875711e+01 2.5546082592120220e-03 0.0000000000000000e+00  2.7843820036855853e+01 2.5589832593159948e-03 0.0000000000000000e+00  2.7843823264994271e+01 2.5597529003022882e-03 0.0000000000000000e+00  2.7843825758365423e+01 2.5622958311814019e-03 0.0000000000000000e+00  2.7843827682236650e+01 2.5616548302059999e-03 0.0000000000000000e+00  2.7843827770862362e+01 2.5631562431217940e-03 0.0000000000000000e+00  2.7843829015528922e+01 2.5624335442779918e-03 0.0000000000000000e+00  2.7843828641919572e+01 2.5632771077475649e-03 0.0000000000000000e+00  2.7843829433109665e+01 2.5627786706698408e-03 0.0000000000000000e+00  2.7843829128401154e+01 2.5632275238460078e-03 0.0000000000000000e+00  2.7843829621913947e+01 2.5629420709262830e-03 0.0000000000000000e+00  2.7843829468017876e+01 2.5631675456812318e-03 0.0000000000000000e+00  2.7843829778240956e+01 2.5630211335535202e-03 0.0000000000000000e+00  2.7843829741406388e+01 2.5631280084833000e-03 0.0000000000000000e+00  2.7843829947165887e+01 2.5630587414743576e-03 0.0000000000000000e+00  2.7843829981312435e+01 2.5631066147721220e-03 0.0000000000000000e+00  2.7843830132143122e+01 2.5630759478232346e-03 0.0000000000000000e+00  2.7843830203933020e+01 2.5630962785635771e-03 0.0000000000000000e+00  2.7843830328037701e+01 2.5630834598764220e-03 0.0000000000000000e+00  2.7843830417974587e+01 2.5630916840342047e-03 0.0000000000000000e+00  2.7843830529974138e+01 2.5630866024335197e-03 0.0000000000000000e+00  2.7843830628011645e+01 2.5630897919180868e-03 0.0000000000000000e+00  2.7843830734864692e+01 2.5630878844178995e-03 0.0000000000000000e+00  2.7843830836283772e+01 2.5630890938286807e-03 0.0000000000000000e+00  2.7843830941045951e+01 2.5630884287909808e-03 0.0000000000000000e+00  2.7843831043773136e+01 2.5630888948517372e-03 0.0000000000000000e+00  2.7843831147698857e+01 2.5630887006306445e-03 0.0000000000000000e+00  2.7843831250873393e+01 2.5630889081433269e-03 0.0000000000000000e+00  2.7843831354434233e+01 2.5630888924513501e-03 0.0000000000000000e+00  2.7843831457696471e+01 2.5630890126787150e-03 0.0000000000000000e+00  2.7843831561050120e+01 2.5630890658778901e-03 0.0000000000000000e+00  2.7843831664256932e+01 2.5630891681892032e-03 0.0000000000000000e+00  2.7843831767440477e+01 2.5630892563376670e-03 0.0000000000000000e+00  2.7843831870517658e+01 2.5630893631753879e-03 0.0000000000000000e+00  2.7843831973521947e+01 2.5630894844182075e-03 0.0000000000000000e+00  2.7843832076408152e+01 2.5630896117532481e-03 0.0000000000000000e+00  2.7843832179180289e+01 2.5630897743621579e-03 0.0000000000000000e+00  2.7843832281782067e+01 2.5630899206765530e-03 0.0000000000000000e+00  2.7843832384203530e+01 2.5630900980615876e-03 0.0000000000000000e+00  2.7843832486324615e+01 2.5630901401043306e-03 0.0000000000000000e+00  2.7843832588111553e+01 2.5630900054152933e-03 0.0000000000000000e+00  2.7843832689271640e+01 2.5630890835201979e-03 0.0000000000000000e+00  2.7843832789721144e+01 2.5630865751581828e-03 0.0000000000000000e+00  2.7843832888733843e+01 2.5630800147907660e-03 0.0000000000000000e+00  2.7843832986016238e+01 2.5630646224085621e-03 0.0000000000000000e+00  2.7843833079579010e+01 2.5630298951768910e-03 0.0000000000000000e+00  2.7843833167973223e+01 2.5629535749537176e-03 0.0000000000000000e+00  2.7843833244860640e+01 2.5627909248192799e-03 0.0000000000000000e+00  2.7843833303510827e+01 2.5624476736726574e-03 0.0000000000000000e+00  2.7843833325033437e+01 2.5617374578525802e-03 0.0000000000000000e+00  2.7843833291100960e+01 2.5602741608734022e-03 0.0000000000000000e+00  2.7843833156146413e+01 2.5573366908323422e-03 0.0000000000000000e+00  2.7843832852811186e+01 2.5516225479025596e-03 0.0000000000000000e+00  2.7843832189026557e+01 2.5409644947147949e-03 0.0000000000000000e+00  2.7843830915910807e+01 2.5210404569211290e-03 0.0000000000000000e+00  2.7843828871371102e+01 2.4832979836731713e-03 0.0000000000000000e+00  2.7843827134719373e+01 2.4113466442892235e-03 0.0000000000000000e+00  2.7843829544021720e+01 2.2712212286939257e-03 0.0000000000000000e+00  2.7843854929203168e+01 1.9704668455833487e-03 0.0000000000000000e+00  2.7844005576288577e+01 1.2931921797214195e-03 0.0000000000000000e+00  2.7844625533509870e+01 -1.1751190492378123e-04 0.0000000000000000e+00  2.7844715390217800e+01 -3.8999248507837238e-03 0.0000000000000000e+00  2.7835533381873809e+01 0.0000000000000000e+00 0.0000000000000000e+00  2.9250568715724764e+01 0.0000000000000000e+00 0.0000000000000000e+00  2.9213953977452089e+01 -1.8384284743663951e-02 0.0000000000000000e+00  2.9223943903558528e+01 2.1270001567743782e-03 0.0000000000000000e+00  2.9224295398594482e+01 -1.0027560888593023e-03 0.0000000000000000e+00  2.9237216790138252e+01 2.5173816004471017e-03 0.0000000000000000e+00  2.9235871094597318e+01 1.3309491451999782e-03 0.0000000000000000e+00  2.9238198275731861e+01 5.9857184817281907e-05 0.0000000000000000e+00  2.9233644978390913e+01 -8.6774895779218942e-04 0.0000000000000000e+00  2.9230330778799363e+01 -3.0875339873881135e-03 0.0000000000000000e+00  2.9224970442533554e+01 -3.2307405449518009e-03 0.0000000000000000e+00  2.9222075398301588e+01 -2.2475430848463971e-03 0.0000000000000000e+00  2.9219640493171447e+01 -8.1622528936347400e-04 0.0000000000000000e+00  2.9218696666261224e+01 1.5410765088692320e-04 0.0000000000000000e+00  2.9218016520134977e+01 7.8039671359743086e-04 0.0000000000000000e+00  2.9217857689101297e+01 1.0722537409455395e-03 0.0000000000000000e+00  2.9217712024478541e+01 1.2169866052413700e-03 0.0000000000000000e+00  2.9217701498577938e+01 1.2719084887658737e-03 0.0000000000000000e+00  2.9217665951305097e+01 1.2965579059647189e-03 0.0000000000000000e+00  2.9217665878937083e+01 1.3072070141555356e-03 0.0000000000000000e+00  2.9217655908517635e+01 1.3113652592297879e-03 0.0000000000000000e+00  2.9217654625464437e+01 1.3149521770605644e-03 0.0000000000000000e+00  2.9217652737669990e+01 1.3154069491363963e-03 0.0000000000000000e+00  2.9217651155637952e+01 1.3170876757129060e-03 0.0000000000000000e+00  2.9217651626702747e+01 1.3167929833100369e-03 0.0000000000000000e+00  2.9217650373428469e+01 1.3176320901260620e-03 0.0000000000000000e+00  2.9217651220550625e+01 1.3173041165820307e-03 0.0000000000000000e+00  2.9217650417513447e+01 1.3177214093445769e-03 0.0000000000000000e+00  2.9217651101431180e+01 1.3175046518694947e-03 0.0000000000000000e+00  2.9217650667186263e+01 1.3177067991825232e-03 0.0000000000000000e+00  2.9217651127942251e+01 1.3175880276913808e-03 0.0000000000000000e+00  2.9217650940492948e+01 1.3176823363335352e-03 0.0000000000000000e+00  2.9217651237769772e+01 1.3176238210270879e-03 0.0000000000000000e+00  2.9217651195974017e+01 1.3176659606237578e-03 0.0000000000000000e+00  2.9217651395803170e+01 1.3176391947531559e-03 0.0000000000000000e+00  2.9217651432060276e+01 1.3176571869794799e-03 0.0000000000000000e+00  2.9217651580508225e+01 1.3176456483747091e-03 0.0000000000000000e+00  2.9217651655314697e+01 1.3176529869803233e-03 0.0000000000000000e+00  2.9217651779047713e+01 1.3176482624694247e-03 0.0000000000000000e+00  2.9217651871578873e+01 1.3176511351539475e-03 0.0000000000000000e+00  2.9217651984290438e+01 1.3176492930046606e-03 0.0000000000