<?xml version="1.0"?>
<VTKFile type="UnstructuredGrid"  version="0.1"  >
<UnstructuredGrid>
<Piece  NumberOfPoints="1369" NumberOfCells="2560">
<Points>
<DataArray  type="Float64"  NumberOfComponents="3"  format="ascii">0 0 0  0.75 0 0  1.5 0 0  2.25 0 0  3 0 0  3.75 0 0  4.5 0 0  5.25 0 0  6 0 0  6.75 0 0  7.5 0 0  8.25 0 0  9 0 0  9.75 0 0  10.5 0 0  11.25 0 0  12 0 0  12.75 0 0  13.5 0 0  14.25 0 0  15 0 0  15.75 0 0  16.5 0 0  17.25 0 0  18 0 0  18.75 0 0  19.5 0 0  20.25 0 0  21 0 0  21.75 0 0  22.5 0 0  23.25 0 0  24 0 0  24.75 0 0  25.5 0 0  26.25 0 0  27 0 0  27.75 0 0  28.5 0 0  29.25 0 0  30 0 0  30.75 0 0  31.5 0 0  32.25 0 0  33 0 0  33.75 0 0  34.5 0 0  35.25 0 0  36 0 0  36.75 0 0  37.5 0 0  38.25 0 0  39 0 0  39.75 0 0  40.5 0 0  41.25 0 0  42 0 0  42.75 0 0  43.5 0 0  44.25 0 0  45 0 0  45.75 0 0  46.5 0 0  47.25 0 0  48 0 0  48.75 0 0  49.5 0 0  50.25 0 0  51 0 0  51.75 0 0  52.5 0 0  53.25 0 0  54 0 0  54.75 0 0  55.5 0 0  56.25 0 0  57 0 0  57.75 0 0  58.5 0 0  59.25 0 0  60 0 0  0 0.5 0  0.75 0.5 0  1.5 0.5 0  2.25 0.5 0  3 0.5 0  3.75 0.5 0  4.5 0.5 0  5.25 0.5 0  6 0.5 0  6.75 0.5 0  7.5 0.5 0  8.25 0.5 0  9 0.5 0  9.75 0.5 0  10.5 0.5 0  11.25 0.5 0  12 0.5 0  12.75 0.5 0  13.5 0.5 0  14.25 0.5 0  15 0.5 0  15.75 0.5 0  16.5 0.5 0  17.25 0.5 0  18 0.5 0  18.75 0.5 0  19.5 0.5 0  20.25 0.5 0  21 0.5 0  21.75 0.5 0  22.5 0.5 0  23.25 0.5 0  24 0.5 0  24.75 0.5 0  25.5 0.5 0  26.25 0.5 0  27 0.5 0  27.75 0.5 0  28.5 0.5 0  29.25 0.5 0  30 0.5 0  30.75 0.5 0  31.5 0.5 0  32.25 0.5 0  33 0.5 0  33.75 0.5 0  34.5 0.5 0  35.25 0.5 0  36 0.5 0  36.75 0.5 0  37.5 0.5 0  38.25 0.5 0  39 0.5 0  39.75 0.5 0  40.5 0.5 0  41.25 0.5 0  42 0.5 0  42.75 0.5 0  43.5 0.5 0  44.25 0.5 0  45 0.5 0  45.75 0.5 0  46.5 0.5 0  47.25 0.5 0  48 0.5 0  48.75 0.5 0  49.5 0.5 0  50.25 0.5 0  51 0.5 0  51.75 0.5 0  52.5 0.5 0  53.25 0.5 0  54 0.5 0  54.75 0.5 0  55.5 0.5 0  56.25 0.5 0  57 0.5 0  57.75 0.5 0  58.5 0.5 0  59.25 0.5 0  60 0.5 0  0 1 0  0.75 1 0  1.5 1 0  2.25 1 0  3 1 0  3.75 1 0  4.5 1 0  5.25 1 0  6 1 0  6.75 1 0  7.5 1 0  8.25 1 0  9 1 0  9.75 1 0  10.5 1 0  11.25 1 0  12 1 0  12.75 1 0  13.5 1 0  14.25 1 0  15 1 0  15.75 1 0  16.5 1 0  17.25 1 0  18 1 0  18.75 1 0  19.5 1 0  20.25 1 0  21 1 0  21.75 1 0  22.5 1 0  23.25 1 0  24 1 0  24.75 1 0  25.5 1 0  26.25 1 0  27 1 0  27.75 1 0  28.5 1 0  29.25 1 0  30 1 0  30.75 1 0  31.5 1 0  32.25 1 0  33 1 0  33.75 1 0  34.5 1 0  35.25 1 0  36 1 0  36.75 1 0  37.5 1 0  38.25 1 0  39 1 0  39.75 1 0  40.5 1 0  41.25 1 0  42 1 0  42.75 1 0  43.5 1 0  44.25 1 0  45 1 0  45.75 1 0  46.5 1 0  47.25 1 0  48 1 0  48.75 1 0  49.5 1 0  50.25 1 0  51 1 0  51.75 1 0  52.5 1 0  53.25 1 0  54 1 0  54.75 1 0  55.5 1 0  56.25 1 0  57 1 0  57.75 1 0  58.5 1 0  59.25 1 0  60 1 0  0 1.5 0  0.75 1.5 0  1.5 1.5 0  2.25 1.5 0  3 1.5 0  3.75 1.5 0  4.5 1.5 0  5.25 1.5 0  6 1.5 0  6.75 1.5 0  7.5 1.5 0  8.25 1.5 0  9 1.5 0  9.75 1.5 0  10.5 1.5 0  11.25 1.5 0  12 1.5 0  12.75 1.5 0  13.5 1.5 0  14.25 1.5 0  15 1.5 0  15.75 1.5 0  16.5 1.5 0  17.25 1.5 0  18 1.5 0  18.75 1.5 0  19.5 1.5 0  20.25 1.5 0  21 1.5 0  21.75 1.5 0  22.5 1.5 0  23.25 1.5 0  24 1.5 0  24.75 1.5 0  25.5 1.5 0  26.25 1.5 0  27 1.5 0  27.75 1.5 0  28.5 1.5 0  29.25 1.5 0  30 1.5 0  30.75 1.5 0  31.5 1.5 0  32.25 1.5 0  33 1.5 0  33.75 1.5 0  34.5 1.5 0  35.25 1.5 0  36 1.5 0  36.75 1.5 0  37.5 1.5 0  38.25 1.5 0  39 1.5 0  39.75 1.5 0  40.5 1.5 0  41.25 1.5 0  42 1.5 0  42.75 1.5 0  43.5 1.5 0  44.25 1.5 0  45 1.5 0  45.75 1.5 0  46.5 1.5 0  47.25 1.5 0  48 1.5 0  48.75 1.5 0  49.5 1.5 0  50.25 1.5 0  51 1.5 0  51.75 1.5 0  52.5 1.5 0  53.25 1.5 0  54 1.5 0  54.75 1.5 0  55.5 1.5 0  56.25 1.5 0  57 1.5 0  57.75 1.5 0  58.5 1.5 0  59.25 1.5 0  60 1.5 0  0 2 0  0.75 2 0  1.5 2 0  2.25 2 0  3 2 0  3.75 2 0  4.5 2 0  5.25 2 0  6 2 0  6.75 2 0  7.5 2 0  8.25 2 0  9 2 0  9.75 2 0  10.5 2 0  11.25 2 0  12 2 0  12.75 2 0  13.5 2 0  14.25 2 0  15 2 0  15.75 2 0  16.5 2 0  17.25 2 0  18 2 0  18.75 2 0  19.5 2 0  20.25 2 0  21 2 0  21.75 2 0  22.5 2 0  23.25 2 0  24 2 0  24.75 2 0  25.5 2 0  26.25 2 0  27 2 0  27.75 2 0  28.5 2 0  29.25 2 0  30 2 0  30.75 2 0  31.5 2 0  32.25 2 0  33 2 0  33.75 2 0  34.5 2 0  35.25 2 0  36 2 0  36.75 2 0  37.5 2 0  38.25 2 0  39 2 0  39.75 2 0  40.5 2 0  41.25 2 0  42 2 0  42.75 2 0  43.5 2 0  44.25 2 0  45 2 0  45.75 2 0  46.5 2 0  47.25 2 0  48 2 0  48.75 2 0  49.5 2 0  50.25 2 0  51 2 0  51.75 2 0  52.5 2 0  53.25 2 0  54 2 0  54.75 2 0  55.5 2 0  56.25 2 0  57 2 0  57.75 2 0  58.5 2 0  59.25 2 0  60 2 0  0 2.5 0  0.75 2.5 0  1.5 2.5 0  2.25 2.5 0  3 2.5 0  3.75 2.5 0  4.5 2.5 0  5.25 2.5 0  6 2.5 0  6.75 2.5 0  7.5 2.5 0  8.25 2.5 0  9 2.5 0  9.75 2.5 0  10.5 2.5 0  11.25 2.5 0  12 2.5 0  12.75 2.5 0  13.5 2.5 0  14.25 2.5 0  15 2.5 0  15.75 2.5 0  16.5 2.5 0  17.25 2.5 0  18 2.5 0  18.75 2.5 0  19.5 2.5 0  20.25 2.5 0  21 2.5 0  21.75 2.5 0  22.5 2.5 0  23.25 2.5 0  24 2.5 0  24.75 2.5 0  25.5 2.5 0  26.25 2.5 0  27 2.5 0  27.75 2.5 0  28.5 2.5 0  29.25 2.5 0  30 2.5 0  30.75 2.5 0  31.5 2.5 0  32.25 2.5 0  33 2.5 0  33.75 2.5 0  34.5 2.5 0  35.25 2.5 0  36 2.5 0  36.75 2.5 0  37.5 2.5 0  38.25 2.5 0  39 2.5 0  39.75 2.5 0  40.5 2.5 0  41.25 2.5 0  42 2.5 0  42.75 2.5 0  43.5 2.5 0  44.25 2.5 0  45 2.5 0  45.75 2.5 0  46.5 2.5 0  47.25 2.5 0  48 2.5 0  48.75 2.5 0  49.5 2.5 0  50.25 2.5 0  51 2.5 0  51.75 2.5 0  52.5 2.5 0  53.25 2.5 0  54 2.5 0  54.75 2.5 0  55.5 2.5 0  56.25 2.5 0  57 2.5 0  57.75 2.5 0  58.5 2.5 0  59.25 2.5 0  60 2.5 0  0 3 0  0.75 3 0  1.5 3 0  2.25 3 0  3 3 0  3.75 3 0  4.5 3 0  5.25 3 0  6 3 0  6.75 3 0  7.5 3 0  8.25 3 0  9 3 0  9.75 3 0  10.5 3 0  11.25 3 0  12 3 0  12.75 3 0  13.5 3 0  14.25 3 0  15 3 0  15.75 3 0  16.5 3 0  17.25 3 0  18 3 0  18.75 3 0  19.5 3 0  20.25 3 0  21 3 0  21.75 3 0  22.5 3 0  23.25 3 0  24 3 0  24.75 3 0  25.5 3 0  26.25 3 0  27 3 0  27.75 3 0  28.5 3 0  29.25 3 0  30 3 0  30.75 3 0  31.5 3 0  32.25 3 0  33 3 0  33.75 3 0  34.5 3 0  35.25 3 0  36 3 0  36.75 3 0  37.5 3 0  38.25 3 0  39 3 0  39.75 3 0  40.5 3 0  41.25 3 0  42 3 0  42.75 3 0  43.5 3 0  44.25 3 0  45 3 0  45.75 3 0  46.5 3 0  47.25 3 0  48 3 0  48.75 3 0  49.5 3 0  50.25 3 0  51 3 0  51.75 3 0  52.5 3 0  53.25 3 0  54 3 0  54.75 3 0  55.5 3 0  56.25 3 0  57 3 0  57.75 3 0  58.5 3 0  59.25 3 0  60 3 0  0 3.5 0  0.75 3.5 0  1.5 3.5 0  2.25 3.5 0  3 3.5 0  3.75 3.5 0  4.5 3.5 0  5.25 3.5 0  6 3.5 0  6.75 3.5 0  7.5 3.5 0  8.25 3.5 0  9 3.5 0  9.75 3.5 0  10.5 3.5 0  11.25 3.5 0  12 3.5 0  12.75 3.5 0  13.5 3.5 0  14.25 3.5 0  15 3.5 0  15.75 3.5 0  16.5 3.5 0  17.25 3.5 0  18 3.5 0  18.75 3.5 0  19.5 3.5 0  20.25 3.5 0  21 3.5 0  21.75 3.5 0  22.5 3.5 0  23.25 3.5 0  24 3.5 0  24.75 3.5 0  25.5 3.5 0  26.25 3.5 0  27 3.5 0  27.75 3.5 0  28.5 3.5 0  29.25 3.5 0  30 3.5 0  30.75 3.5 0  31.5 3.5 0  32.25 3.5 0  33 3.5 0  33.75 3.5 0  34.5 3.5 0  35.25 3.5 0  36 3.5 0  36.75 3.5 0  37.5 3.5 0  38.25 3.5 0  39 3.5 0  39.75 3.5 0  40.5 3.5 0  41.25 3.5 0  42 3.5 0  42.75 3.5 0  43.5 3.5 0  44.25 3.5 0  45 3.5 0  45.75 3.5 0  46.5 3.5 0  47.25 3.5 0  48 3.5 0  48.75 3.5 0  49.5 3.5 0  50.25 3.5 0  51 3.5 0  51.75 3.5 0  52.5 3.5 0  53.25 3.5 0  54 3.5 0  54.75 3.5 0  55.5 3.5 0  56.25 3.5 0  57 3.5 0  57.75 3.5 0  58.5 3.5 0  59.25 3.5 0  60 3.5 0  0 4 0  0.75 4 0  1.5 4 0  2.25 4 0  3 4 0  3.75 4 0  4.5 4 0  5.25 4 0  6 4 0  6.75 4 0  7.5 4 0  8.25 4 0  9 4 0  9.75 4 0  10.5 4 0  11.25 4 0  12 4 0  12.75 4 0  13.5 4 0  14.25 4 0  15 4 0  15.75 4 0  16.5 4 0  17.25 4 0  18 4 0  18.75 4 0  19.5 4 0  20.25 4 0  21 4 0  21.75 4 0  22.5 4 0  23.25 4 0  24 4 0  24.75 4 0  25.5 4 0  26.25 4 0  27 4 0  27.75 4 0  28.5 4 0  29.25 4 0  30 4 0  30.75 4 0  31.5 4 0  32.25 4 0  33 4 0  33.75 4 0  34.5 4 0  35.25 4 0  36 4 0  36.75 4 0  37.5 4 0  38.25 4 0  39 4 0  39.75 4 0  40.5 4 0  41.25 4 0  42 4 0  42.75 4 0  43.5 4 0  44.25 4 0  45 4 0  45.75 4 0  46.5 4 0  47.25 4 0  48 4 0  48.75 4 0  49.5 4 0  50.25 4 0  51 4 0  51.75 4 0  52.5 4 0  53.25 4 0  54 4 0  54.75 4 0  55.5 4 0  56.25 4 0  57 4 0  57.75 4 0  58.5 4 0  59.25 4 0  60 4 0  0.375 0.25 0  1.125 0.25 0  1.875 0.25 0  2.625 0.25 0  3.375 0.25 0  4.125 0.25 0  4.875 0.25 0  5.625 0.25 0  6.375 0.25 0  7.125 0.25 0  7.875 0.25 0  8.625 0.25 0  9.375 0.25 0  10.125 0.25 0  10.875 0.25 0  11.625 0.25 0  12.375 0.25 0  13.125 0.25 0  13.875 0.25 0  14.625 0.25 0  15.375 0.25 0  16.125 0.25 0  16.875 0.25 0  17.625 0.25 0  18.375 0.25 0  19.125 0.25 0  19.875 0.25 0  20.625 0.25 0  21.375 0.25 0  22.125 0.25 0  22.875 0.25 0  23.625 0.25 0  24.375 0.25 0  25.125 0.25 0  25.875 0.25 0  26.625 0.25 0  27.375 0.25 0  28.125 0.25 0  28.875 0.25 0  29.625 0.25 0  30.375 0.25 0  31.125 0.25 0  31.875 0.25 0  32.625 0.25 0  33.375 0.25 0  34.125 0.25 0  34.875 0.25 0  35.625 0.25 0  36.375 0.25 0  37.125 0.25 0  37.875 0.25 0  38.625 0.25 0  39.375 0.25 0  40.125 0.25 0  40.875 0.25 0  41.625 0.25 0  42.375 0.25 0  43.125 0.25 0  43.875 0.25 0  44.625 0.25 0  45.375 0.25 0  46.125 0.25 0  46.875 0.25 0  47.625 0.25 0  48.375 0.25 0  49.125 0.25 0  49.875 0.25 0  50.625 0.25 0  51.375 0.25 0  52.125 0.25 0  52.875 0.25 0  53.625 0.25 0  54.375 0.25 0  55.125 0.25 0  55.875 0.25 0  56.625 0.25 0  57.375 0.25 0  58.125 0.25 0  58.875 0.25 0  59.625 0.25 0  0.375 0.75 0  1.125 0.75 0  1.875 0.75 0  2.625 0.75 0  3.375 0.75 0  4.125 0.75 0  4.875 0.75 0  5.625 0.75 0  6.375 0.75 0  7.125 0.75 0  7.875 0.75 0  8.625 0.75 0  9.375 0.75 0  10.125 0.75 0  10.875 0.75 0  11.625 0.75 0  12.375 0.75 0  13.125 0.75 0  13.875 0.75 0  14.625 0.75 0  15.375 0.75 0  16.125 0.75 0  16.875 0.75 0  17.625 0.75 0  18.375 0.75 0  19.125 0.75 0  19.875 0.75 0  20.625 0.75 0  21.375 0.75 0  22.125 0.75 0  22.875 0.75 0  23.625 0.75 0  24.375 0.75 0  25.125 0.75 0  25.875 0.75 0  26.625 0.75 0  27.375 0.75 0  28.125 0.75 0  28.875 0.75 0  29.625 0.75 0  30.375 0.75 0  31.125 0.75 0  31.875 0.75 0  32.625 0.75 0  33.375 0.75 0  34.125 0.75 0  34.875 0.75 0  35.625 0.75 0  36.375 0.75 0  37.125 0.75 0  37.875 0.75 0  38.625 0.75 0  39.375 0.75 0  40.125 0.75 0  40
[...]
<PointData  Vectors="f_8-0"> 
<DataArray  type="Float64"  Name="f_8-0"  NumberOfComponents="3" format="ascii">0.0000000000000000e+00 0.0000000000000000e+00 0.0000000000000000e+00  0.0000000000000000e+00 0.0000000000000000e+00 0.0000000000000000e+00  0.0000000000000000e+00 0.0000000000000000e+00 0.0000000000000000e+00  0.0000000000000000e+00 0.0000000000000000e+00 0.0000000000000000e+00  0.0000000000000000e+00 0.0000000000000000e+00 0.0000000000000000e+00  0.0000000000000000e+00 0.0000000000000000e+00 0.0000000000000000e+00  0.0000000000000000e+00 0.0000000000000000e+00 0.0000000000000000e+00  0.0000000000000000e+00 0.0000000000000000e+00 0.0000000000000000e+00  0.0000000000000000e+00 0.0000000000000000e+00 0.0000000000000000e+00  0.0000000000000000e+00 0.0000000000000000e+00 0.0000000000000000e+00  0.0000000000000000e+00 0.0000000000000000e+00 0.0000000000000000e+00  0.0000000000000000e+00 0.0000000000000000e+00 0.0000000000000000e+00  0.0000000000000000e+00 0.0000000000000000e+00 0.0000000000000000e+00  0.0000000000000000e+00 0.0000000000000000e+00 0.0000000000000000e+00  0.0000000000000000e+00 0.0000000000000000e+00 0.0000000000000000e+00  0.0000000000000000e+00 0.0000000000000000e+00 0.0000000000000000e+00  0.0000000000000000e+00 0.0000000000000000e+00 0.0000000000000000e+00  0.0000000000000000e+00 0.0000000000000000e+00 0.0000000000000000e+00  0.0000000000000000e+00 0.0000000000000000e+00 0.0000000000000000e+00  0.0000000000000000e+00 0.0000000000000000e+00 0.0000000000000000e+00  0.0000000000000000e+00 0.0000000000000000e+00 0.0000000000000000e+00  0.0000000000000000e+00 0.0000000000000000e+00 0.0000000000000000e+00  0.0000000000000000e+00 0.0000000000000000e+00 0.0000000000000000e+00  0.0000000000000000e+00 0.0000000000000000e+00 0.0000000000000000e+00  0.0000000000000000e+00 0.0000000000000000e+00 0.0000000000000000e+00  0.0000000000000000e+00 0.0000000000000000e+00 0.0000000000000000e+00  0.0000000000000000e+00 0.0000000000000000e+00 0.0000000000000000e+00  0.0000000000000000e+00 0.0000000000000000e+00 0.0000000000000000e+00  0.0000000000000000e+00 0.0000000000000000e+00 0.0000000000000000e+00  0.0000000000000000e+00 0.0000000000000000e+00 0.0000000000000000e+00  0.0000000000000000e+00 0.0000000000000000e+00 0.0000000000000000e+00  0.0000000000000000e+00 0.0000000000000000e+00 0.0000000000000000e+00  0.0000000000000000e+00 0.0000000000000000e+00 0.0000000000000000e+00  0.0000000000000000e+00 0.0000000000000000e+00 0.0000000000000000e+00  0.0000000000000000e+00 0.0000000000000000e+00 0.0000000000000000e+00  0.0000000000000000e+00 0.0000000000000000e+00 0.0000000000000000e+00  0.0000000000000000e+00 0.0000000000000000e+00 0.0000000000000000e+00  0.0000000000000000e+00 0.0000000000000000e+00 0.0000000000000000e+00  0.0000000000000000e+00 0.0000000000000000e+00 0.0000000000000000e+00  0.0000000000000000e+00 0.0000000000000000e+00 0.0000000000000000e+00  0.0000000000000000e+00 0.0000000000000000e+00 0.0000000000000000e+00  0.0000000000000000e+00 0.0000000000000000e+00 0.0000000000000000e+00  0.0000000000000000e+00 0.0000000000000000e+00 0.0000000000000000e+00  0.0000000000000000e+00 0.0000000000000000e+00 0.0000000000000000e+00  0.0000000000000000e+00 0.0000000000000000e+00 0.0000000000000000e+00  0.0000000000000000e+00 0.0000000000000000e+00 0.0000000000000000e+00  0.0000000000000000e+00 0.0000000000000000e+00 0.0000000000000000e+00  0.0000000000000000e+00 0.0000000000000000e+00 0.0000000000000000e+00  0.0000000000000000e+00 0.0000000000000000e+00 0.0000000000000000e+00  0.0000000000000000e+00 0.0000000000000000e+00 0.0000000000000000e+00  0.0000000000000000e+00 0.0000000000000000e+00 0.0000000000000000e+00  0.0000000000000000e+00 0.0000000000000000e+00 0.0000000000000000e+00  0.0000000000000000e+00 0.0000000000000000e+00 0.0000000000000000e+00  0.0000000000000000e+00 0.0000000000000000e+00 0.0000000000000000e+00  0.0000000000000000e+00 0.0000000000000000e+00 0.0000000000000000e+00  0.0000000000000000e+00 0.0000000000000000e+00 0.0000000000000000e+00  0.0000000000000000e+00 0.0000000000000000e+00 0.0000000000000000e+00  0.0000000000000000e+00 0.0000000000000000e+00 0.0000000000000000e+00  0.0000000000000000e+00 0.0000000000000000e+00 0.0000000000000000e+00  0.0000000000000000e+00 0.0000000000000000e+00 0.0000000000000000e+00  0.0000000000000000e+00 0.0000000000000000e+00 0.0000000000000000e+00  0.0000000000000000e+00 0.0000000000000000e+00 0.0000000000000000e+00  0.0000000000000000e+00 0.0000000000000000e+00 0.0000000000000000e+00  0.0000000000000000e+00 0.0000000000000000e+00 0.0000000000000000e+00  0.0000000000000000e+00 0.0000000000000000e+00 0.0000000000000000e+00  0.0000000000000000e+00 0.0000000000000000e+00 0.0000000000000000e+00  0.0000000000000000e+00 0.0000000000000000e+00 0.0000000000000000e+00  0.0000000000000000e+00 0.0000000000000000e+00 0.0000000000000000e+00  0.0000000000000000e+00 0.0000000000000000e+00 0.0000000000000000e+00  0.0000000000000000e+00 0.0000000000000000e+00 0.0000000000000000e+00  0.0000000000000000e+00 0.0000000000000000e+00 0.0000000000000000e+00  0.0000000000000000e+00 0.0000000000000000e+00 0.0000000000000000e+00  0.0000000000000000e+00 0.0000000000000000e+00 0.0000000000000000e+00  0.0000000000000000e+00 0.0000000000000000e+00 0.0000000000000000e+00  0.0000000000000000e+00 0.0000000000000000e+00 0.0000000000000000e+00  0.0000000000000000e+00 0.0000000000000000e+00 0.0000000000000000e+00  0.0000000000000000e+00 0.0000000000000000e+00 0.0000000000000000e+00  0.0000000000000000e+00 0.0000000000000000e+00 0.0000000000000000e+00  0.0000000000000000e+00 0.0000000000000000e+00 0.0000000000000000e+00  0.0000000000000000e+00 0.0000000000000000e+00 0.0000000000000000e+00  0.0000000000000000e+00 0.0000000000000000e+00 0.0000000000000000e+00  -2.6354880369743206e+01 0.0000000000000000e+00 0.0000000000000000e+00  -2.6372719982505867e+01 4.9479310380442813e-03 0.0000000000000000e+00  -2.6387654292567955e+01 6.6405076786391591e-03 0.0000000000000000e+00  -2.6394101382998102e+01 5.8305585465141477e-03 0.0000000000000000e+00  -2.6397095379158507e+01 4.8809500951791339e-03 0.0000000000000000e+00  -2.6398174593661583e+01 4.1915519558710264e-03 0.0000000000000000e+00  -2.6398106228005599e+01 3.7576352221465950e-03 0.0000000000000000e+00  -2.6397362641578805e+01 3.4963530719882103e-03 0.0000000000000000e+00  -2.6396207279217570e+01 3.3348127519469842e-03 0.0000000000000000e+00  -2.6394854524152674e+01 3.2736018705721796e-03 0.0000000000000000e+00  -2.6393580515732907e+01 3.3283602004036900e-03 0.0000000000000000e+00  -2.6392604354252970e+01 3.4557354536545325e-03 0.0000000000000000e+00  -2.6391977229721114e+01 3.5893340713011616e-03 0.0000000000000000e+00  -2.6391627623203817e+01 3.6899390888240572e-03 0.0000000000000000e+00  -2.6391452863046386e+01 3.7517285411143757e-03 0.0000000000000000e+00  -2.6391372213859924e+01 3.7846598821067146e-03 0.0000000000000000e+00  -2.6391336750151744e+01 3.8005472908274065e-03 0.0000000000000000e+00  -2.6391321413756227e+01 3.8077180808025897e-03 0.0000000000000000e+00  -2.6391314660827391e+01 3.8108474050580765e-03 0.0000000000000000e+00  -2.6391311564391568e+01 3.8122091520377062e-03 0.0000000000000000e+00  -2.6391310055758460e+01 3.8128126674240141e-03 0.0000000000000000e+00  -2.6391309270780027e+01 3.8130895591599154e-03 0.0000000000000000e+00  -2.6391308824091308e+01 3.8132194556061063e-03 0.0000000000000000e+00  -2.6391308542473269e+01 3.8132826498768493e-03 0.0000000000000000e+00  -2.6391308340808425e+01 3.8133130458818253e-03 0.0000000000000000e+00  -2.6391308179199484e+01 3.8133284372406108e-03 0.0000000000000000e+00  -2.6391308036946409e+01 3.8133356834741824e-03 0.0000000000000000e+00  -2.6391307904415577e+01 3.8133395205899889e-03 0.0000000000000000e+00  -2.6391307776458124e+01 3.8133411834718211e-03 0.0000000000000000e+00  -2.6391307650760535e+01 3.8133421384533169e-03 0.0000000000000000e+00  -2.6391307526066150e+01 3.8133424691557736e-03 0.0000000000000000e+00  -2.6391307401842692e+01 3.8133426971400462e-03 0.0000000000000000e+00  -2.6391307277800834e+01 3.8133427308021895e-03 0.0000000000000000e+00  -2.6391307153829231e+01 3.8133427735604001e-03 0.0000000000000000e+00  -2.6391307029875154e+01 3.8133427552399348e-03 0.0000000000000000e+00  -2.6391306905912970e+01 3.8133427501410508e-03 0.0000000000000000e+00  -2.6391306781944280e+01 3.8133427251149776e-03 0.0000000000000000e+00  -2.6391306657962200e+01 3.8133427090125253e-03 0.0000000000000000e+00  -2.6391306533972212e+01 3.8133426857034696e-03 0.0000000000000000e+00  -2.6391306409975268e+01 3.8133426681463611e-03 0.0000000000000000e+00  -2.6391306285974871e+01 3.8133426488358461e-03 0.0000000000000000e+00  -2.6391306161971009e+01 3.8133426293181605e-03 0.0000000000000000e+00  -2.6391306037967752e+01 3.8133426109998488e-03 0.0000000000000000e+00  -2.6391305913965333e+01 3.8133425932044165e-03 0.0000000000000000e+00  -2.6391305789966275e+01 3.8133425749621547e-03 0.0000000000000000e+00  -2.6391305665974709e+01 3.8133425599599000e-03 0.0000000000000000e+00  -2.6391305541993091e+01 3.8133425450904116e-03 0.0000000000000000e+00  -2.6391305418027716e+01 3.8133425321133234e-03 0.0000000000000000e+00  -2.6391305294083999e+01 3.8133425216636437e-03 0.0000000000000000e+00  -2.6391305170176857e+01 3.8133425154787781e-03 0.0000000000000000e+00  -2.6391305046314660e+01 3.8133425166768831e-03 0.0000000000000000e+00  -2.6391304922530061e+01 3.8133425238110028e-03 0.0000000000000000e+00  -2.6391304798818155e+01 3.8133425456343276e-03 0.0000000000000000e+00  -2.6391304675301836e+01 3.8133425722422535e-03 0.0000000000000000e+00  -2.6391304551796207e+01 3.8133426403705695e-03 0.0000000000000000e+00  -2.6391304428952747e+01 3.8133426691319941e-03 0.0000000000000000e+00  -2.6391304305199519e+01 3.8133428619562151e-03 0.0000000000000000e+00  -2.6391304184681996e+01 3.8133426709845578e-03 0.0000000000000000e+00  -2.6391304056323815e+01 3.8133433500104914e-03 0.0000000000000000e+00  -2.6391303947457171e+01 3.8133415094124758e-03 0.0000000000000000e+00  -2.6391303785141467e+01 3.8133446870730306e-03 0.0000000000000000e+00  -2.6391303745790911e+01 3.8133333066165493e-03 0.0000000000000000e+00  -2.6391303373200692e+01 3.8133501409651537e-03 0.0000000000000000e+00  -2.6391303750333162e+01 3.8132897443460372e-03 0.0000000000000000e+00  -2.6391302194536607e+01 3.8133770114789044e-03 0.0000000000000000e+00  -2.6391304882119318e+01 3.8130867373584116e-03 0.0000000000000000e+00  -2.6391297316314066e+01 3.8135094725873938e-03 0.0000000000000000e+00  -2.6391311257275536e+01 3.8121952028324149e-03 0.0000000000000000e+00  -2.6391277208745887e+01 3.8142149394548319e-03 0.0000000000000000e+00  -2.6391336123208411e+01 3.8079147101170931e-03 0.0000000000000000e+00  -2.6391207102831007e+01 3.8188698968160315e-03 0.0000000000000000e+00  -2.6391396068643221e+01 3.7810158504603579e-03 0.0000000000000000e+00  -2.6391003493004554e+01 3.8466760706988103e-03 0.0000000000000000e+00  -2.6391366612439338e+01 3.5721144481100624e-03 0.0000000000000000e+00  -2.6390278642710868e+01 3.8671517188538554e-03 0.0000000000000000e+00  -2.6390147368620489e+01 2.1661063388186933e-03 0.0000000000000000e+00  -2.6389592712987231e+01 5.2585040772939210e-03 0.0000000000000000e+00  -2.6396642433701892e+01 9.5385825301088859e-03 0.0000000000000000e+00  -2.6421580881513012e+01 3.6758376532494440e-02 0.0000000000000000e+00  -2.6401872789749543e+01 5.9013959297209310e-02 0.0000000000000000e+00  -2.6408486364499105e+01 0.0000000000000000e+00 0.0000000000000000e+00  -2.7770788151295051e+01 0.0000000000000000e+00 0.0000000000000000e+00  -2.7767286527439307e+01 1.1042565790672962e-02 0.0000000000000000e+00  -2.7767562424452386e+01 7.3694855657786143e-03 0.0000000000000000e+00  -2.7767902896014260e+01 4.2985826275224676e-03 0.0000000000000000e+00  -2.7767704737119136e+01 2.2096387493828408e-03 0.0000000000000000e+00  -2.7767239346699196e+01 8.8142069319713484e-04 0.0000000000000000e+00  -2.7766629872010594e+01 7.3419115411449314e-05 0.0000000000000000e+00  -2.7765951511726186e+01 -3.9767068460142018e-04 0.0000000000000000e+00  -2.7765225526996819e+01 -6.9758987050555488e-04 0.0000000000000000e+00  -2.7764451794440532e+01 -7.6483347338612753e-04 0.0000000000000000e+00  -2.7763773465680572e+01 -5.4230489053262926e-04 0.0000000000000000e+00  -2.7763326984060139e+01 -1.7984875329540121e-04 0.0000000000000000e+00  -2.7763101796954906e+01 1.4405141437444230e-04 0.0000000000000000e+00  -2.7763011218760379e+01 3.6077755057228579e-04 0.0000000000000000e+00  -2.7762981621144650e+01 4.8182614479283395e-04 0.0000000000000000e+00  -2.7762973772769445e+01 5.4185946439991534e-04 0.0000000000000000e+00  -2.7762972067314479e+01 5.6923688545791986e-04 0.0000000000000000e+00  -2.7762971618198048e+01 5.8120622905647574e-04 0.0000000000000000e+00  -2.7762971345567752e+01 5.8634414991944029e-04 0.0000000000000000e+00  -2.7762971103679440e+01 5.8860896485104521e-04 0.0000000000000000e+00  -2.7762970909744173e+01 5.8962253558762789e-04 0.0000000000000000e+00  -2.7762970754808769e+01 5.9010190418506373e-04 0.0000000000000000e+00  -2.7762970628453445e+01 5.9032603901695770e-04 0.0000000000000000e+00  -2.7762970515381383e+01 5.9043769403272362e-04 0.0000000000000000e+00  -2.7762970409282165e+01 5.9048985963480955e-04 0.0000000000000000e+00  -2.7762970304869704e+01 5.9051676686273154e-04 0.0000000000000000e+00  -2.7762970201017215e+01 5.9052873627905595e-04 0.0000000000000000e+00  -2.7762970096506635e+01 5.9053514766749130e-04 0.0000000000000000e+00  -2.7762969991456032e+01 5.9053765275480542e-04 0.0000000000000000e+00  -2.7762969885711236e+01 5.9053907437975426e-04 0.0000000000000000e+00  -2.7762969779495169e+01 5.9053946288169159e-04 0.0000000000000000e+00  -2.7762969672864948e+01 5.9053970534294633e-04 0.0000000000000000e+00  -2.7762969565952034e+01 5.9053968245431914e-04 0.0000000000000000e+00  -2.7762969458826600e+01 5.9053966986778912e-04 0.0000000000000000e+00  -2.7762969351553917e+01 5.9053960075574046e-04 0.0000000000000000e+00  -2.7762969244180393e+01 5.9053954842152017e-04 0.0000000000000000e+00  -2.7762969136731890e+01 5.9053948919921505e-04 0.0000000000000000e+00  -2.7762969029236391e+01 5.9053943617945817e-04 0.0000000000000000e+00  -2.7762968921705227e+01 5.9053939061572342e-04 0.0000000000000000e+00  -2.7762968814154387e+01 5.9053934813943563e-04 0.0000000000000000e+00  -2.7762968706585870e+01 5.9053930829437923e-04 0.0000000000000000e+00  -2.7762968599010243e+01 5.9053926948901038e-04 0.0000000000000000e+00  -2.7762968491430691e+01 5.9053923510650355e-04 0.0000000000000000e+00  -2.7762968383851437e+01 5.9053920362989447e-04 0.0000000000000000e+00  -2.7762968276274684e+01 5.9053917463895906e-04 0.0000000000000000e+00  -2.7762968168706561e+01 5.9053914947632417e-04 0.0000000000000000e+00  -2.7762968061152677e+01 5.9053913029348060e-04 0.0000000000000000e+00  -2.7762967953621075e+01 5.9053911922542788e-04 0.0000000000000000e+00  -2.7762967846122493e+01 5.9053911914089946e-04 0.0000000000000000e+00  -2.7762967738671062e+01 5.9053913267344640e-04 0.0000000000000000e+00  -2.7762967631292675e+01 5.9053916755798675e-04 0.0000000000000000e+00  -2.7762967524006104e+01 5.9053923194693156e-04 0.0000000000000000e+00  -2.7762967416887200e+01 5.9053933761819117e-04 0.0000000000000000e+00  -2.7762967309901651e+01 5.9053948698082443e-04 0.0000000000000000e+00  -2.7762967203371268e+01 5.9053971140604503e-04 0.0000000000000000e+00  -2.7762967096746078e+01 5.9053995173632056e-04 0.0000000000000000e+00  -2.7762966991775539e+01 5.9054033969119506e-04 0.0000000000000000e+00  -2.7762966884288204e+01 5.9054030078673804e-04 0.0000000000000000e+00  -2.7762966784977944e+01 5.9054086090233409e-04 0.0000000000000000e+00  -2.7762966666378677e+01 5.9053770720713847e-04 0.0000000000000000e+00  -2.7762966594499019e+01 5.9053944577534465e-04 0.0000000000000000e+00  -2.7762966401437556e+01 5.9051549076762208e-04 0.0000000000000000e+00  -2.7762966478224715e+01 5.9053329739919042e-04 0.0000000000000000e+00  -2.7762965866652387e+01 5.9038368304578225e-04 0.0000000000000000e+00  -2.7762966725518467e+01 5.9055120712098890e-04 0.0000000000000000e+00  -2.7762964031765090e+01 5.8967916699728727e-04 0.0000000000000000e+00  -2.7762968575993828e+01 5.9091809080263642e-04 0.0000000000000000e+00  -2.7762956865417745e+01 5.8617425148912820e-04 0.0000000000000000e+00  -2.7762975952683842e+01 5.9351756762079705e-04 0.0000000000000000e+00  -2.7762931775838570e+01 5.7033174409867882e-04 0.0000000000000000e+00  -2.7762994711258550e+01 6.0371159780505204e-04 0.0000000000000000e+00  -2.7762858254263634e+01 5.0625856071768885e-04 0.0000000000000000e+00  -2.7763009679737134e+01 5.9972492480195750e-04 0.0000000000000000e+00  -2.7762666139130832e+01 2.4514689691566941e-04 0.0000000000000000e+00  -2.7763034599487732e+01 2.2892527211355269e-04 0.0000000000000000e+00  -2.7762422613300792e+01 -4.8183697463581793e-04 0.0000000000000000e+00  -2.7764211382927133e+01 1.3486598664629466e-03 0.0000000000000000e+00  -2.7754018811663776e+01 5.0396594555208148e-03 0.0000000000000000e+00  -2.7735486893674793e+01 8.3973227539449018e-03 0.0000000000000000e+00  -2.7691461207382510e+01 -1.4416356549682010e-02 0.0000000000000000e+00  -2.7753919095926459e+01 0.0000000000000000e+00 0.0000000000000000e+00  -2.5039023971774306e+01 0.0000000000000000e+00 0.0000000000000000e+00  -2.5026028870147069e+01 5.9153438235452918e-03 0.0000000000000000e+00  -2.5017001255772513e+01 3.5100875821051239e-03 0.0000000000000000e+00  -2.5012262279021765e+01 1.0870253129635498e-03 0.0000000000000000e+00  -2.5010041189808650e+01 -5.1293808182712483e-04 0.0000000000000000e+00  -2.5009316844643120e+01 -1.5061493674488160e-03 0.0000000000000000e+00  -2.5009496944412934e+01 -2.1217902132526188e-03 0.0000000000000000e+00  -2.5010198330878953e+01 -2.4725142559273981e-03 0.0000000000000000e+00  -2.5011224137675008e+01 -2.7143078843640716e-03 0.0000000000000000e+00  -2.5012396543510892e+01 -2.7944658392472219e-03 0.0000000000000000e+00  -2.5013463098062349e+01 -2.5982534418946077e-03 0.0000000000000000e+00  -2.5014250818617864e+01 -2.2544146446882300e-03 0.0000000000000000e+00  -2.5014741462818389e+01 -1.9492175855422176e-03 0.0000000000000000e+00  -2.5015009175847634e+01 -1.7513441069021379e-03 0.0000000000000000e+00  -2.5015141335166543e+01 -1.6449638623610241e-03 0.0000000000000000e+00  -2.5015202221966444e+01 -1.5942498049736303e-03 0.0000000000000000e+00  -2.5015229172431120e+01 -1.5719514426113686e-03 0.0000000000000000e+00  -2.5015240998093066e+01 -1.5625090811155367e-03 0.0000000000000000e+00  -2.5015246247091127e+01 -1.5585297596645469e-03 0.0000000000000000e+00  -2.5015248637301998e+01 -1.5567911404132182e-03 0.0000000000000000e+00  -2.5015249735586217e+01 -1.5560083879876683e-03 0.0000000000000000e+00  -2.5015250234882547e+01 -1.5556396628954949e-03 0.0000000000000000e+00  -2.5015250440199274e+01 -1.5554666545747940e-03 0.0000000000000000e+00  -2.5015250501298443e+01 -1.5553830624429727e-03 0.0000000000000000e+00  -2.5015250487096424e+01 -1.5553444675382993e-03 0.0000000000000000e+00  -2.5015250435019080e+01 -1.5553260769756577e-03 0.0000000000000000e+00  -2.5015250362090036e+01 -1.5553182197557208e-03 0.0000000000000000e+00  -2.5015250278570960e+01 -1.5553147212809433e-03 0.0000000000000000e+00  -2.5015250188855557e+01 -1.5553135825571950e-03 0.0000000000000000e+00  -2.5015250095973393e+01 -1.5553132318088063e-03 0.0000000000000000e+00  -2.5015250001105489e+01 -1.5553133269600671e-03 0.0000000000000000e+00  -2.5015249905206598e+01 -1.5553134803767202e-03 0.0000000000000000e+00  -2.5015249808611955e+01 -1.5553136666868947e-03 0.0000000000000000e+00  -2.5015249711648345e+01 -1.5553138109363057e-03 0.0000000000000000e+00  -2.5015249614422842e+01 -1.5553139205204747e-03 0.0000000000000000e+00  -2.5015249517047049e+01 -1.5553139964998093e-03 0.0000000000000000e+00  -2.5015249419566210e+01 -1.5553140423878692e-03 0.0000000000000000e+00  -2.5015249322022235e+01 -1.5553140718020592e-03 0.0