<?xml version="1.0"?>
<VTKFile type="UnstructuredGrid"  version="0.1"  >
<UnstructuredGrid>
<Piece  NumberOfPoints="1369" NumberOfCells="2560">
<Points>
<DataArray  type="Float64"  NumberOfComponents="3"  format="ascii">0 0 0  0.75 0 0  1.5 0 0  2.25 0 0  3 0 0  3.75 0 0  4.5 0 0  5.25 0 0  6 0 0  6.75 0 0  7.5 0 0  8.25 0 0  9 0 0  9.75 0 0  10.5 0 0  11.25 0 0  12 0 0  12.75 0 0  13.5 0 0  14.25 0 0  15 0 0  15.75 0 0  16.5 0 0  17.25 0 0  18 0 0  18.75 0 0  19.5 0 0  20.25 0 0  21 0 0  21.75 0 0  22.5 0 0  23.25 0 0  24 0 0  24.75 0 0  25.5 0 0  26.25 0 0  27 0 0  27.75 0 0  28.5 0 0  29.25 0 0  30 0 0  30.75 0 0  31.5 0 0  32.25 0 0  33 0 0  33.75 0 0  34.5 0 0  35.25 0 0  36 0 0  36.75 0 0  37.5 0 0  38.25 0 0  39 0 0  39.75 0 0  40.5 0 0  41.25 0 0  42 0 0  42.75 0 0  43.5 0 0  44.25 0 0  45 0 0  45.75 0 0  46.5 0 0  47.25 0 0  48 0 0  48.75 0 0  49.5 0 0  50.25 0 0  51 0 0  51.75 0 0  52.5 0 0  53.25 0 0  54 0 0  54.75 0 0  55.5 0 0  56.25 0 0  57 0 0  57.75 0 0  58.5 0 0  59.25 0 0  60 0 0  0 0.5 0  0.75 0.5 0  1.5 0.5 0  2.25 0.5 0  3 0.5 0  3.75 0.5 0  4.5 0.5 0  5.25 0.5 0  6 0.5 0  6.75 0.5 0  7.5 0.5 0  8.25 0.5 0  9 0.5 0  9.75 0.5 0  10.5 0.5 0  11.25 0.5 0  12 0.5 0  12.75 0.5 0  13.5 0.5 0  14.25 0.5 0  15 0.5 0  15.75 0.5 0  16.5 0.5 0  17.25 0.5 0  18 0.5 0  18.75 0.5 0  19.5 0.5 0  20.25 0.5 0  21 0.5 0  21.75 0.5 0  22.5 0.5 0  23.25 0.5 0  24 0.5 0  24.75 0.5 0  25.5 0.5 0  26.25 0.5 0  27 0.5 0  27.75 0.5 0  28.5 0.5 0  29.25 0.5 0  30 0.5 0  30.75 0.5 0  31.5 0.5 0  32.25 0.5 0  33 0.5 0  33.75 0.5 0  34.5 0.5 0  35.25 0.5 0  36 0.5 0  36.75 0.5 0  37.5 0.5 0  38.25 0.5 0  39 0.5 0  39.75 0.5 0  40.5 0.5 0  41.25 0.5 0  42 0.5 0  42.75 0.5 0  43.5 0.5 0  44.25 0.5 0  45 0.5 0  45.75 0.5 0  46.5 0.5 0  47.25 0.5 0  48 0.5 0  48.75 0.5 0  49.5 0.5 0  50.25 0.5 0  51 0.5 0  51.75 0.5 0  52.5 0.5 0  53.25 0.5 0  54 0.5 0  54.75 0.5 0  55.5 0.5 0  56.25 0.5 0  57 0.5 0  57.75 0.5 0  58.5 0.5 0  59.25 0.5 0  60 0.5 0  0 1 0  0.75 1 0  1.5 1 0  2.25 1 0  3 1 0  3.75 1 0  4.5 1 0  5.25 1 0  6 1 0  6.75 1 0  7.5 1 0  8.25 1 0  9 1 0  9.75 1 0  10.5 1 0  11.25 1 0  12 1 0  12.75 1 0  13.5 1 0  14.25 1 0  15 1 0  15.75 1 0  16.5 1 0  17.25 1 0  18 1 0  18.75 1 0  19.5 1 0  20.25 1 0  21 1 0  21.75 1 0  22.5 1 0  23.25 1 0  24 1 0  24.75 1 0  25.5 1 0  26.25 1 0  27 1 0  27.75 1 0  28.5 1 0  29.25 1 0  30 1 0  30.75 1 0  31.5 1 0  32.25 1 0  33 1 0  33.75 1 0  34.5 1 0  35.25 1 0  36 1 0  36.75 1 0  37.5 1 0  38.25 1 0  39 1 0  39.75 1 0  40.5 1 0  41.25 1 0  42 1 0  42.75 1 0  43.5 1 0  44.25 1 0  45 1 0  45.75 1 0  46.5 1 0  47.25 1 0  48 1 0  48.75 1 0  49.5 1 0  50.25 1 0  51 1 0  51.75 1 0  52.5 1 0  53.25 1 0  54 1 0  54.75 1 0  55.5 1 0  56.25 1 0  57 1 0  57.75 1 0  58.5 1 0  59.25 1 0  60 1 0  0 1.5 0  0.75 1.5 0  1.5 1.5 0  2.25 1.5 0  3 1.5 0  3.75 1.5 0  4.5 1.5 0  5.25 1.5 0  6 1.5 0  6.75 1.5 0  7.5 1.5 0  8.25 1.5 0  9 1.5 0  9.75 1.5 0  10.5 1.5 0  11.25 1.5 0  12 1.5 0  12.75 1.5 0  13.5 1.5 0  14.25 1.5 0  15 1.5 0  15.75 1.5 0  16.5 1.5 0  17.25 1.5 0  18 1.5 0  18.75 1.5 0  19.5 1.5 0  20.25 1.5 0  21 1.5 0  21.75 1.5 0  22.5 1.5 0  23.25 1.5 0  24 1.5 0  24.75 1.5 0  25.5 1.5 0  26.25 1.5 0  27 1.5 0  27.75 1.5 0  28.5 1.5 0  29.25 1.5 0  30 1.5 0  30.75 1.5 0  31.5 1.5 0  32.25 1.5 0  33 1.5 0  33.75 1.5 0  34.5 1.5 0  35.25 1.5 0  36 1.5 0  36.75 1.5 0  37.5 1.5 0  38.25 1.5 0  39 1.5 0  39.75 1.5 0  40.5 1.5 0  41.25 1.5 0  42 1.5 0  42.75 1.5 0  43.5 1.5 0  44.25 1.5 0  45 1.5 0  45.75 1.5 0  46.5 1.5 0  47.25 1.5 0  48 1.5 0  48.75 1.5 0  49.5 1.5 0  50.25 1.5 0  51 1.5 0  51.75 1.5 0  52.5 1.5 0  53.25 1.5 0  54 1.5 0  54.75 1.5 0  55.5 1.5 0  56.25 1.5 0  57 1.5 0  57.75 1.5 0  58.5 1.5 0  59.25 1.5 0  60 1.5 0  0 2 0  0.75 2 0  1.5 2 0  2.25 2 0  3 2 0  3.75 2 0  4.5 2 0  5.25 2 0  6 2 0  6.75 2 0  7.5 2 0  8.25 2 0  9 2 0  9.75 2 0  10.5 2 0  11.25 2 0  12 2 0  12.75 2 0  13.5 2 0  14.25 2 0  15 2 0  15.75 2 0  16.5 2 0  17.25 2 0  18 2 0  18.75 2 0  19.5 2 0  20.25 2 0  21 2 0  21.75 2 0  22.5 2 0  23.25 2 0  24 2 0  24.75 2 0  25.5 2 0  26.25 2 0  27 2 0  27.75 2 0  28.5 2 0  29.25 2 0  30 2 0  30.75 2 0  31.5 2 0  32.25 2 0  33 2 0  33.75 2 0  34.5 2 0  35.25 2 0  36 2 0  36.75 2 0  37.5 2 0  38.25 2 0  39 2 0  39.75 2 0  40.5 2 0  41.25 2 0  42 2 0  42.75 2 0  43.5 2 0  44.25 2 0  45 2 0  45.75 2 0  46.5 2 0  47.25 2 0  48 2 0  48.75 2 0  49.5 2 0  50.25 2 0  51 2 0  51.75 2 0  52.5 2 0  53.25 2 0  54 2 0  54.75 2 0  55.5 2 0  56.25 2 0  57 2 0  57.75 2 0  58.5 2 0  59.25 2 0  60 2 0  0 2.5 0  0.75 2.5 0  1.5 2.5 0  2.25 2.5 0  3 2.5 0  3.75 2.5 0  4.5 2.5 0  5.25 2.5 0  6 2.5 0  6.75 2.5 0  7.5 2.5 0  8.25 2.5 0  9 2.5 0  9.75 2.5 0  10.5 2.5 0  11.25 2.5 0  12 2.5 0  12.75 2.5 0  13.5 2.5 0  14.25 2.5 0  15 2.5 0  15.75 2.5 0  16.5 2.5 0  17.25 2.5 0  18 2.5 0  18.75 2.5 0  19.5 2.5 0  20.25 2.5 0  21 2.5 0  21.75 2.5 0  22.5 2.5 0  23.25 2.5 0  24 2.5 0  24.75 2.5 0  25.5 2.5 0  26.25 2.5 0  27 2.5 0  27.75 2.5 0  28.5 2.5 0  29.25 2.5 0  30 2.5 0  30.75 2.5 0  31.5 2.5 0  32.25 2.5 0  33 2.5 0  33.75 2.5 0  34.5 2.5 0  35.25 2.5 0  36 2.5 0  36.75 2.5 0  37.5 2.5 0  38.25 2.5 0  39 2.5 0  39.75 2.5 0  40.5 2.5 0  41.25 2.5 0  42 2.5 0  42.75 2.5 0  43.5 2.5 0  44.25 2.5 0  45 2.5 0  45.75 2.5 0  46.5 2.5 0  47.25 2.5 0  48 2.5 0  48.75 2.5 0  49.5 2.5 0  50.25 2.5 0  51 2.5 0  51.75 2.5 0  52.5 2.5 0  53.25 2.5 0  54 2.5 0  54.75 2.5 0  55.5 2.5 0  56.25 2.5 0  57 2.5 0  57.75 2.5 0  58.5 2.5 0  59.25 2.5 0  60 2.5 0  0 3 0  0.75 3 0  1.5 3 0  2.25 3 0  3 3 0  3.75 3 0  4.5 3 0  5.25 3 0  6 3 0  6.75 3 0  7.5 3 0  8.25 3 0  9 3 0  9.75 3 0  10.5 3 0  11.25 3 0  12 3 0  12.75 3 0  13.5 3 0  14.25 3 0  15 3 0  15.75 3 0  16.5 3 0  17.25 3 0  18 3 0  18.75 3 0  19.5 3 0  20.25 3 0  21 3 0  21.75 3 0  22.5 3 0  23.25 3 0  24 3 0  24.75 3 0  25.5 3 0  26.25 3 0  27 3 0  27.75 3 0  28.5 3 0  29.25 3 0  30 3 0  30.75 3 0  31.5 3 0  32.25 3 0  33 3 0  33.75 3 0  34.5 3 0  35.25 3 0  36 3 0  36.75 3 0  37.5 3 0  38.25 3 0  39 3 0  39.75 3 0  40.5 3 0  41.25 3 0  42 3 0  42.75 3 0  43.5 3 0  44.25 3 0  45 3 0  45.75 3 0  46.5 3 0  47.25 3 0  48 3 0  48.75 3 0  49.5 3 0  50.25 3 0  51 3 0  51.75 3 0  52.5 3 0  53.25 3 0  54 3 0  54.75 3 0  55.5 3 0  56.25 3 0  57 3 0  57.75 3 0  58.5 3 0  59.25 3 0  60 3 0  0 3.5 0  0.75 3.5 0  1.5 3.5 0  2.25 3.5 0  3 3.5 0  3.75 3.5 0  4.5 3.5 0  5.25 3.5 0  6 3.5 0  6.75 3.5 0  7.5 3.5 0  8.25 3.5 0  9 3.5 0  9.75 3.5 0  10.5 3.5 0  11.25 3.5 0  12 3.5 0  12.75 3.5 0  13.5 3.5 0  14.25 3.5 0  15 3.5 0  15.75 3.5 0  16.5 3.5 0  17.25 3.5 0  18 3.5 0  18.75 3.5 0  19.5 3.5 0  20.25 3.5 0  21 3.5 0  21.75 3.5 0  22.5 3.5 0  23.25 3.5 0  24 3.5 0  24.75 3.5 0  25.5 3.5 0  26.25 3.5 0  27 3.5 0  27.75 3.5 0  28.5 3.5 0  29.25 3.5 0  30 3.5 0  30.75 3.5 0  31.5 3.5 0  32.25 3.5 0  33 3.5 0  33.75 3.5 0  34.5 3.5 0  35.25 3.5 0  36 3.5 0  36.75 3.5 0  37.5 3.5 0  38.25 3.5 0  39 3.5 0  39.75 3.5 0  40.5 3.5 0  41.25 3.5 0  42 3.5 0  42.75 3.5 0  43.5 3.5 0  44.25 3.5 0  45 3.5 0  45.75 3.5 0  46.5 3.5 0  47.25 3.5 0  48 3.5 0  48.75 3.5 0  49.5 3.5 0  50.25 3.5 0  51 3.5 0  51.75 3.5 0  52.5 3.5 0  53.25 3.5 0  54 3.5 0  54.75 3.5 0  55.5 3.5 0  56.25 3.5 0  57 3.5 0  57.75 3.5 0  58.5 3.5 0  59.25 3.5 0  60 3.5 0  0 4 0  0.75 4 0  1.5 4 0  2.25 4 0  3 4 0  3.75 4 0  4.5 4 0  5.25 4 0  6 4 0  6.75 4 0  7.5 4 0  8.25 4 0  9 4 0  9.75 4 0  10.5 4 0  11.25 4 0  12 4 0  12.75 4 0  13.5 4 0  14.25 4 0  15 4 0  15.75 4 0  16.5 4 0  17.25 4 0  18 4 0  18.75 4 0  19.5 4 0  20.25 4 0  21 4 0  21.75 4 0  22.5 4 0  23.25 4 0  24 4 0  24.75 4 0  25.5 4 0  26.25 4 0  27 4 0  27.75 4 0  28.5 4 0  29.25 4 0  30 4 0  30.75 4 0  31.5 4 0  32.25 4 0  33 4 0  33.75 4 0  34.5 4 0  35.25 4 0  36 4 0  36.75 4 0  37.5 4 0  38.25 4 0  39 4 0  39.75 4 0  40.5 4 0  41.25 4 0  42 4 0  42.75 4 0  43.5 4 0  44.25 4 0  45 4 0  45.75 4 0  46.5 4 0  47.25 4 0  48 4 0  48.75 4 0  49.5 4 0  50.25 4 0  51 4 0  51.75 4 0  52.5 4 0  53.25 4 0  54 4 0  54.75 4 0  55.5 4 0  56.25 4 0  57 4 0  57.75 4 0  58.5 4 0  59.25 4 0  60 4 0  0.375 0.25 0  1.125 0.25 0  1.875 0.25 0  2.625 0.25 0  3.375 0.25 0  4.125 0.25 0  4.875 0.25 0  5.625 0.25 0  6.375 0.25 0  7.125 0.25 0  7.875 0.25 0  8.625 0.25 0  9.375 0.25 0  10.125 0.25 0  10.875 0.25 0  11.625 0.25 0  12.375 0.25 0  13.125 0.25 0  13.875 0.25 0  14.625 0.25 0  15.375 0.25 0  16.125 0.25 0  16.875 0.25 0  17.625 0.25 0  18.375 0.25 0  19.125 0.25 0  19.875 0.25 0  20.625 0.25 0  21.375 0.25 0  22.125 0.25 0  22.875 0.25 0  23.625 0.25 0  24.375 0.25 0  25.125 0.25 0  25.875 0.25 0  26.625 0.25 0  27.375 0.25 0  28.125 0.25 0  28.875 0.25 0  29.625 0.25 0  30.375 0.25 0  31.125 0.25 0  31.875 0.25 0  32.625 0.25 0  33.375 0.25 0  34.125 0.25 0  34.875 0.25 0  35.625 0.25 0  36.375 0.25 0  37.125 0.25 0  37.875 0.25 0  38.625 0.25 0  39.375 0.25 0  40.125 0.25 0  40.875 0.25 0  41.625 0.25 0  42.375 0.25 0  43.125 0.25 0  43.875 0.25 0  44.625 0.25 0  45.375 0.25 0  46.125 0.25 0  46.875 0.25 0  47.625 0.25 0  48.375 0.25 0  49.125 0.25 0  49.875 0.25 0  50.625 0.25 0  51.375 0.25 0  52.125 0.25 0  52.875 0.25 0  53.625 0.25 0  54.375 0.25 0  55.125 0.25 0  55.875 0.25 0  56.625 0.25 0  57.375 0.25 0  58.125 0.25 0  58.875 0.25 0  59.625 0.25 0  0.375 0.75 0  1.125 0.75 0  1.875 0.75 0  2.625 0.75 0  3.375 0.75 0  4.125 0.75 0  4.875 0.75 0  5.625 0.75 0  6.375 0.75 0  7.125 0.75 0  7.875 0.75 0  8.625 0.75 0  9.375 0.75 0  10.125 0.75 0  10.875 0.75 0  11.625 0.75 0  12.375 0.75 0  13.125 0.75 0  13.875 0.75 0  14.625 0.75 0  15.375 0.75 0  16.125 0.75 0  16.875 0.75 0  17.625 0.75 0  18.375 0.75 0  19.125 0.75 0  19.875 0.75 0  20.625 0.75 0  21.375 0.75 0  22.125 0.75 0  22.875 0.75 0  23.625 0.75 0  24.375 0.75 0  25.125 0.75 0  25.875 0.75 0  26.625 0.75 0  27.375 0.75 0  28.125 0.75 0  28.875 0.75 0  29.625 0.75 0  30.375 0.75 0  31.125 0.75 0  31.875 0.75 0  32.625 0.75 0  33.375 0.75 0  34.125 0.75 0  34.875 0.75 0  35.625 0.75 0  36.375 0.75 0  37.125 0.75 0  37.875 0.75 0  38.625 0.75 0  39.375 0.75 0  40.125 0.75 0  40
[...]
<PointData  Vectors="f_8-0"> 
<DataArray  type="Float64"  Name="f_8-0"  NumberOfComponents="3" format="ascii">0.0000000000000000e+00 0.0000000000000000e+00 0.0000000000000000e+00  0.0000000000000000e+00 0.0000000000000000e+00 0.0000000000000000e+00  0.0000000000000000e+00 0.0000000000000000e+00 0.0000000000000000e+00  0.0000000000000000e+00 0.0000000000000000e+00 0.0000000000000000e+00  0.0000000000000000e+00 0.0000000000000000e+00 0.0000000000000000e+00  0.0000000000000000e+00 0.0000000000000000e+00 0.0000000000000000e+00  0.0000000000000000e+00 0.0000000000000000e+00 0.0000000000000000e+00  0.0000000000000000e+00 0.0000000000000000e+00 0.0000000000000000e+00  0.0000000000000000e+00 0.0000000000000000e+00 0.0000000000000000e+00  0.0000000000000000e+00 0.0000000000000000e+00 0.0000000000000000e+00  0.0000000000000000e+00 0.0000000000000000e+00 0.0000000000000000e+00  0.0000000000000000e+00 0.0000000000000000e+00 0.0000000000000000e+00  0.0000000000000000e+00 0.0000000000000000e+00 0.0000000000000000e+00  0.0000000000000000e+00 0.0000000000000000e+00 0.0000000000000000e+00  0.0000000000000000e+00 0.0000000000000000e+00 0.0000000000000000e+00  0.0000000000000000e+00 0.0000000000000000e+00 0.0000000000000000e+00  0.0000000000000000e+00 0.0000000000000000e+00 0.0000000000000000e+00  0.0000000000000000e+00 0.0000000000000000e+00 0.0000000000000000e+00  0.0000000000000000e+00 0.0000000000000000e+00 0.0000000000000000e+00  0.0000000000000000e+00 0.0000000000000000e+00 0.0000000000000000e+00  0.0000000000000000e+00 0.0000000000000000e+00 0.0000000000000000e+00  0.0000000000000000e+00 0.0000000000000000e+00 0.0000000000000000e+00  0.0000000000000000e+00 0.0000000000000000e+00 0.0000000000000000e+00  0.0000000000000000e+00 0.0000000000000000e+00 0.0000000000000000e+00  0.0000000000000000e+00 0.0000000000000000e+00 0.0000000000000000e+00  0.0000000000000000e+00 0.0000000000000000e+00 0.0000000000000000e+00  0.0000000000000000e+00 0.0000000000000000e+00 0.0000000000000000e+00  0.0000000000000000e+00 0.0000000000000000e+00 0.0000000000000000e+00  0.0000000000000000e+00 0.0000000000000000e+00 0.0000000000000000e+00  0.0000000000000000e+00 0.0000000000000000e+00 0.0000000000000000e+00  0.0000000000000000e+00 0.0000000000000000e+00 0.0000000000000000e+00  0.0000000000000000e+00 0.0000000000000000e+00 0.0000000000000000e+00  0.0000000000000000e+00 0.0000000000000000e+00 0.0000000000000000e+00  0.0000000000000000e+00 0.0000000000000000e+00 0.0000000000000000e+00  0.0000000000000000e+00 0.0000000000000000e+00 0.0000000000000000e+00  0.0000000000000000e+00 0.0000000000000000e+00 0.0000000000000000e+00  0.0000000000000000e+00 0.0000000000000000e+00 0.0000000000000000e+00  0.0000000000000000e+00 0.0000000000000000e+00 0.0000000000000000e+00  0.0000000000000000e+00 0.0000000000000000e+00 0.0000000000000000e+00  0.0000000000000000e+00 0.0000000000000000e+00 0.0000000000000000e+00  0.0000000000000000e+00 0.0000000000000000e+00 0.0000000000000000e+00  0.0000000000000000e+00 0.0000000000000000e+00 0.0000000000000000e+00  0.0000000000000000e+00 0.0000000000000000e+00 0.0000000000000000e+00  0.0000000000000000e+00 0.0000000000000000e+00 0.0000000000000000e+00  0.0000000000000000e+00 0.0000000000000000e+00 0.0000000000000000e+00  0.0000000000000000e+00 0.0000000000000000e+00 0.0000000000000000e+00  0.0000000000000000e+00 0.0000000000000000e+00 0.0000000000000000e+00  0.0000000000000000e+00 0.0000000000000000e+00 0.0000000000000000e+00  0.0000000000000000e+00 0.0000000000000000e+00 0.0000000000000000e+00  0.0000000000000000e+00 0.0000000000000000e+00 0.0000000000000000e+00  0.0000000000000000e+00 0.0000000000000000e+00 0.0000000000000000e+00  0.0000000000000000e+00 0.0000000000000000e+00 0.0000000000000000e+00  0.0000000000000000e+00 0.0000000000000000e+00 0.0000000000000000e+00  0.0000000000000000e+00 0.0000000000000000e+00 0.0000000000000000e+00  0.0000000000000000e+00 0.0000000000000000e+00 0.0000000000000000e+00  0.0000000000000000e+00 0.0000000000000000e+00 0.0000000000000000e+00  0.0000000000000000e+00 0.0000000000000000e+00 0.0000000000000000e+00  0.0000000000000000e+00 0.0000000000000000e+00 0.0000000000000000e+00  0.0000000000000000e+00 0.0000000000000000e+00 0.0000000000000000e+00  0.0000000000000000e+00 0.0000000000000000e+00 0.0000000000000000e+00  0.0000000000000000e+00 0.0000000000000000e+00 0.0000000000000000e+00  0.0000000000000000e+00 0.0000000000000000e+00 0.0000000000000000e+00  0.0000000000000000e+00 0.0000000000000000e+00 0.0000000000000000e+00  0.0000000000000000e+00 0.0000000000000000e+00 0.0000000000000000e+00  0.0000000000000000e+00 0.0000000000000000e+00 0.0000000000000000e+00  0.0000000000000000e+00 0.0000000000000000e+00 0.0000000000000000e+00  0.0000000000000000e+00 0.0000000000000000e+00 0.0000000000000000e+00  0.0000000000000000e+00 0.0000000000000000e+00 0.0000000000000000e+00  0.0000000000000000e+00 0.0000000000000000e+00 0.0000000000000000e+00  0.0000000000000000e+00 0.0000000000000000e+00 0.0000000000000000e+00  0.0000000000000000e+00 0.0000000000000000e+00 0.0000000000000000e+00  0.0000000000000000e+00 0.0000000000000000e+00 0.0000000000000000e+00  0.0000000000000000e+00 0.0000000000000000e+00 0.0000000000000000e+00  0.0000000000000000e+00 0.0000000000000000e+00 0.0000000000000000e+00  0.0000000000000000e+00 0.0000000000000000e+00 0.0000000000000000e+00  0.0000000000000000e+00 0.0000000000000000e+00 0.0000000000000000e+00  0.0000000000000000e+00 0.0000000000000000e+00 0.0000000000000000e+00  0.0000000000000000e+00 0.0000000000000000e+00 0.0000000000000000e+00  0.0000000000000000e+00 0.0000000000000000e+00 0.0000000000000000e+00  0.0000000000000000e+00 0.0000000000000000e+00 0.0000000000000000e+00  0.0000000000000000e+00 0.0000000000000000e+00 0.0000000000000000e+00  -2.6865793955789862e+01 0.0000000000000000e+00 0.0000000000000000e+00  -2.6867486265472902e+01 1.7641316875416763e-03 0.0000000000000000e+00  -2.6870142058290828e+01 2.2248415763769275e-03 0.0000000000000000e+00  -2.6872127423123395e+01 1.8060952882347984e-03 0.0000000000000000e+00  -2.6872866507414880e+01 1.3521181306534113e-03 0.0000000000000000e+00  -2.6872779403862324e+01 1.0400697391080474e-03 0.0000000000000000e+00  -2.6872198710897951e+01 8.5112990456980724e-04 0.0000000000000000e+00  -2.6871333785881077e+01 7.4026428544118992e-04 0.0000000000000000e+00  -2.6870308143983202e+01 6.7681102274078499e-04 0.0000000000000000e+00  -2.6869238525926960e+01 6.6588744543463329e-04 0.0000000000000000e+00  -2.6868262933216204e+01 7.1116433128956254e-04 0.0000000000000000e+00  -2.6867485909823888e+01 7.9398153087405460e-04 0.0000000000000000e+00  -2.6866937039739092e+01 8.8368649313790362e-04 0.0000000000000000e+00  -2.6866584812878781e+01 9.5869350057211451e-04 0.0000000000000000e+00  -2.6866373897670755e+01 1.0115683482439168e-03 0.0000000000000000e+00  -2.6866252651674852e+01 1.0448396068556830e-03 0.0000000000000000e+00  -2.6866183782662738e+01 1.0642051711337503e-03 0.0000000000000000e+00  -2.6866144092064989e+01 1.0750435677554732e-03 0.0000000000000000e+00  -2.6866120462042243e+01 1.0810421006017768e-03 0.0000000000000000e+00  -2.6866105839021053e+01 1.0844409352031487e-03 0.0000000000000000e+00  -2.6866096479344748e+01 1.0864361308701633e-03 0.0000000000000000e+00  -2.6866090337746439e+01 1.0876638985769030e-03 0.0000000000000000e+00  -2.6866086239412066e+01 1.0884419736119299e-03 0.0000000000000000e+00  -2.6866083466377148e+01 1.0889477192309912e-03 0.0000000000000000e+00  -2.6866081562115554e+01 1.0892778184692956e-03 0.0000000000000000e+00  -2.6866080228212041e+01 1.0894949795943602e-03 0.0000000000000000e+00  -2.6866079269552362e+01 1.0896374159662817e-03 0.0000000000000000e+00  -2.6866078558175136e+01 1.0897316290222618e-03 0.0000000000000000e+00  -2.6866078010992037e+01 1.0897941050578704e-03 0.0000000000000000e+00  -2.6866077573680382e+01 1.0898360986145829e-03 0.0000000000000000e+00  -2.6866077210790106e+01 1.0898645223467141e-03 0.0000000000000000e+00  -2.6866076898801914e+01 1.0898840364479006e-03 0.0000000000000000e+00  -2.6866076622094834e+01 1.0898975472121539e-03 0.0000000000000000e+00  -2.6866076370162773e+01 1.0899070513130256e-03 0.0000000000000000e+00  -2.6866076136037304e+01 1.0899138668100489e-03 0.0000000000000000e+00  -2.6866075915158326e+01 1.0899189291747075e-03 0.0000000000000000e+00  -2.6866075704684000e+01 1.0899228839411431e-03 0.0000000000000000e+00  -2.6866075502923689e+01 1.0899261685442490e-03 0.0000000000000000e+00  -2.6866075308945923e+01 1.0899290716593517e-03 0.0000000000000000e+00  -2.6866075122271329e+01 1.0899317622011619e-03 0.0000000000000000e+00  -2.6866074942683145e+01 1.0899343433227436e-03 0.0000000000000000e+00  -2.6866074770094187e+01 1.0899368672210893e-03 0.0000000000000000e+00  -2.6866074604476506e+01 1.0899393608610989e-03 0.0000000000000000e+00  -2.6866074445810650e+01 1.0899418265040524e-03 0.0000000000000000e+00  -2.6866074294018308e+01 1.0899442528264651e-03 0.0000000000000000e+00  -2.6866074148945284e+01 1.0899465949169782e-03 0.0000000000000000e+00  -2.6866074010241018e+01 1.0899488247134818e-03 0.0000000000000000e+00  -2.6866073877565704e+01 1.0899508616448042e-03 0.0000000000000000e+00  -2.6866073750192129e+01 1.0899527646232997e-03 0.0000000000000000e+00  -2.6866073627993668e+01 1.0899543268163899e-03 0.0000000000000000e+00  -2.6866073509339564e+01 1.0899559363377815e-03 0.0000000000000000e+00  -2.6866073395713837e+01 1.0899567057691764e-03 0.0000000000000000e+00  -2.6866073281772341e+01 1.0899585088637242e-03 0.0000000000000000e+00  -2.6866073176904980e+01 1.0899574065344536e-03 0.0000000000000000e+00  -2.6866073059478108e+01 1.0899618101538517e-03 0.0000000000000000e+00  -2.6866072973724151e+01 1.0899544052832455e-03 0.0000000000000000e+00  -2.6866072827303714e+01 1.0899710359006233e-03 0.0000000000000000e+00  -2.6866072809343699e+01 1.0899390387568968e-03 0.0000000000000000e+00  -2.6866072538918523e+01 1.0900044560053566e-03 0.0000000000000000e+00  -2.6866072773597509e+01 1.0898786148793428e-03 0.0000000000000000e+00  -2.6866072040033171e+01 1.0901248406923051e-03 0.0000000000000000e+00  -2.6866073153562251e+01 1.0896618287134000e-03 0.0000000000000000e+00  -2.6866070870922211e+01 1.0905359157557181e-03 0.0000000000000000e+00  -2.6866074722507548e+01 1.0889330576277646e-03 0.0000000000000000e+00  -2.6866067888189196e+01 1.0918782919847468e-03 0.0000000000000000e+00  -2.6866079176509341e+01 1.0865900496649207e-03 0.0000000000000000e+00  -2.6866060828085356e+01 1.0962483116054526e-03 0.0000000000000000e+00  -2.6866089736005911e+01 1.0792652152666461e-03 0.0000000000000000e+00  -2.6866045465277328e+01 1.1108261555387085e-03 0.0000000000000000e+00  -2.6866111703747659e+01 1.0563276582666098e-03 0.0000000000000000e+00  -2.6865996829877052e+01 1.1505449110226990e-03 0.0000000000000000e+00  -2.6866079734831427e+01 9.5059887790429286e-04 0.0000000000000000e+00  -2.6865586886896754e+01 1.0978990391644411e-03 0.0000000000000000e+00  -2.6865050444256539e+01 2.7146575331841359e-04 0.0000000000000000e+00  -2.6863675288736502e+01 7.5326966177186754e-04 0.0000000000000000e+00  -2.6863807336883838e+01 1.0746871120178578e-03 0.0000000000000000e+00  -2.6867282510246110e+01 6.1565648053415684e-03 0.0000000000000000e+00  -2.6866136155848842e+01 7.2403982061178054e-03 0.0000000000000000e+00  -2.6868832432391212e+01 1.3525710734576720e-02 0.0000000000000000e+00  -2.6853593523877606e+01 1.2902853373512818e-02 0.0000000000000000e+00  -2.6836662794479043e+01 0.0000000000000000e+00 0.0000000000000000e+00  -3.1420888275111324e+01 0.0000000000000000e+00 0.0000000000000000e+00  -3.1420746142442017e+01 5.3094285625078881e-03 0.0000000000000000e+00  -3.1419677408457311e+01 4.5827661927256048e-03 0.0000000000000000e+00  -3.1418782185064629e+01 3.3662382135861983e-03 0.0000000000000000e+00  -3.1418048787851891e+01 2.4849444724814613e-03 0.0000000000000000e+00  -3.1417383470351641e+01 1.9365168043118243e-03 0.0000000000000000e+00  -3.1416748226282873e+01 1.6174582847692720e-03 0.0000000000000000e+00  -3.1416131927550332e+01 1.4342478375695064e-03 0.0000000000000000e+00  -3.1415527724296712e+01 1.3423202472117735e-03 0.0000000000000000e+00  -3.1414970902824678e+01 1.3861195746535024e-03 0.0000000000000000e+00  -3.1414548312043621e+01 1.5636486107767314e-03 0.0000000000000000e+00  -3.1414297131889708e+01 1.7991766814818870e-03 0.0000000000000000e+00  -3.1414181117297158e+01 2.0129578578518786e-03 0.0000000000000000e+00  -3.1414139988002535e+01 2.1697346900745262e-03 0.0000000000000000e+00  -3.1414129481899010e+01 2.2696952695465400e-03 0.0000000000000000e+00  -3.1414127387981580e+01 2.3282876476893055e-03 0.0000000000000000e+00  -3.1414126087380925e+01 2.3609869729796428e-03 0.0000000000000000e+00  -3.1414124133164243e+01 2.3790908946968239e-03 0.0000000000000000e+00  -3.1414121932619199e+01 2.3892572074589919e-03 0.0000000000000000e+00  -3.1414119926850976e+01 2.3952122630571939e-03 0.0000000000000000e+00  -3.1414118327735192e+01 2.3988328835606548e-03 0.0000000000000000e+00  -3.1414117124972140e+01 2.4011270196196534e-03 0.0000000000000000e+00  -3.1414116242597785e+01 2.4026035108516879e-03 0.0000000000000000e+00  -3.1414115582232220e+01 2.4035700779636337e-03 0.0000000000000000e+00  -3.1414115070595692e+01 2.4042003604301753e-03 0.0000000000000000e+00  -3.1414114652411531e+01 2.4046146829870964e-03 0.0000000000000000e+00  -3.1414114294732542e+01 2.4048858960880768e-03 0.0000000000000000e+00  -3.1414113975602149e+01 2.4050657306134188e-03 0.0000000000000000e+00  -3.1414113682521915e+01 2.4051852572925300e-03 0.0000000000000000e+00  -3.1414113406877615e+01 2.4052660531995759e-03 0.0000000000000000e+00  -3.1414113143455044e+01 2.4053209589738984e-03 0.0000000000000000e+00  -3.1414112888528990e+01 2.4053589169889247e-03 0.0000000000000000e+00  -3.1414112639848497e+01 2.4053854072029865e-03 0.0000000000000000e+00  -3.1414112395984446e+01 2.4054043712641946e-03 0.0000000000000000e+00  -3.1414112156330500e+01 2.4054184012370972e-03 0.0000000000000000e+00  -3.1414111920859476e+01 2.4054294110583841e-03 0.0000000000000000e+00  -3.1414111690008969e+01 2.4054386752282359e-03 0.0000000000000000e+00  -3.1414111464459967e+01 2.4054470416297099e-03 0.0000000000000000e+00  -3.1414111244957233e+01 2.4054550115851338e-03 0.0000000000000000e+00  -3.1414111032206691e+01 2.4054628580105130e-03 0.0000000000000000e+00  -3.1414110826816781e+01 2.4054707199412037e-03 0.0000000000000000e+00  -3.1414110629294562e+01 2.4054786447061422e-03 0.0000000000000000e+00  -3.1414110440042396e+01 2.4054866381364856e-03 0.0000000000000000e+00  -3.1414110259340742e+01 2.4054946451951848e-03 0.0000000000000000e+00  -3.1414110087311435e+01 2.4055025507502804e-03 0.0000000000000000e+00  -3.1414109923795991e+01 2.4055101848866429e-03 0.0000000000000000e+00  -3.1414109768490668e+01 2.4055173703656885e-03 0.0000000000000000e+00  -3.1414109620660831e+01 2.4055239983788593e-03 0.0000000000000000e+00  -3.1414109480001059e+01 2.4055299521610076e-03 0.0000000000000000e+00  -3.1414109344953069e+01 2.4055352421591433e-03 0.0000000000000000e+00  -3.1414109216415635e+01 2.4055396429863464e-03 0.0000000000000000e+00  -3.1414109089735224e+01 2.4055434420914962e-03 0.0000000000000000e+00  -3.1414108971932400e+01 2.4055460578534318e-03 0.0000000000000000e+00  -3.1414108845658177e+01 2.4055488961258471e-03 0.0000000000000000e+00  -3.1414108744997375e+01 2.4055498452043257e-03 0.0000000000000000e+00  -3.1414108599051691e+01 2.4055534339630000e-03 0.0000000000000000e+00  -3.1414108551031546e+01 2.4055523948400795e-03 0.0000000000000000e+00  -3.1414108316726541e+01 2.4055593316544251e-03 0.0000000000000000e+00  -3.1414108453315265e+01 2.4055560664998366e-03 0.0000000000000000e+00  -3.1414107896495935e+01 2.4055667803743745e-03 0.0000000000000000e+00  -3.1414108644159842e+01 2.4055723090592039e-03 0.0000000000000000e+00  -3.1414107056657212e+01 2.4055595923587357e-03 0.0000000000000000e+00  -3.1414109594637061e+01 2.4056484859260813e-03 0.0000000000000000e+00  -3.1414105174827515e+01 2.4054536419542086e-03 0.0000000000000000e+00  -3.1414112128488714e+01 2.4059090205800159e-03 0.0000000000000000e+00  -3.1414101230249070e+01 2.4050479474260222e-03 0.0000000000000000e+00  -3.1414116885866935e+01 2.4063646152532162e-03 0.0000000000000000e+00  -3.1414093228091506e+01 2.4043954428529237e-03 0.0000000000000000e+00  -3.1414122024624469e+01 2.4043975353434496e-03 0.0000000000000000e+00  -3.1414067347047933e+01 2.4010352807076786e-03 0.0000000000000000e+00  -3.1414107192069942e+01 2.3624160387638272e-03 0.0000000000000000e+00  -3.1413930253273531e+01 2.2968472898994693e-03 0.0000000000000000e+00  -3.1413972844617799e+01 1.9238899107471433e-03 0.0000000000000000e+00  -3.1413522015885597e+01 1.5421174762607550e-03 0.0000000000000000e+00  -3.1413712431982034e+01 9.8523223195328097e-04 0.0000000000000000e+00  -3.1410396506820604e+01 1.6241463893681973e-03 0.0000000000000000e+00  -3.1401610432124926e+01 -5.9798267440165946e-04 0.0000000000000000e+00  -3.1383354530496536e+01 -2.7095136631185186e-03 0.0000000000000000e+00  -3.1375623332530335e+01 9.0015737126111859e-04 0.0000000000000000e+00  -3.1367580142435447e+01 -1.6812880717726642e-03 0.0000000000000000e+00  -3.1393279183114334e+01 0.0000000000000000e+00 0.0000000000000000e+00  -2.9258493515513887e+01 0.0000000000000000e+00 0.0000000000000000e+00  -2.9252077795606787e+01 1.6737085793034731e-03 0.0000000000000000e+00  -2.9248392040503283e+01 8.8819341505369856e-04 0.0000000000000000e+00  -2.9246686647024394e+01 -1.6116855596577290e-05 0.0000000000000000e+00  -2.9246181566028081e+01 -6.3321427615137184e-04 0.0000000000000000e+00  -2.9246365204354483e+01 -1.0139044211483399e-03 0.0000000000000000e+00  -2.9246929973498279e+01 -1.2353336469057446e-03 0.0000000000000000e+00  -2.9247706677306400e+01 -1.3589541993622562e-03 0.0000000000000000e+00  -2.9248600144986575e+01 -1.4236582609762384e-03 0.0000000000000000e+00  -2.9249504605309784e+01 -1.3707079050275239e-03 0.0000000000000000e+00  -2.9250299932048407e+01 -1.1879913296541217e-03 0.0000000000000000e+00  -2.9250911209107180e+01 -9.5940684079129455e-04 0.0000000000000000e+00  -2.9251329848392817e+01 -7.6661926415093860e-04 0.0000000000000000e+00  -2.9251592262085012e+01 -6.3612537060343452e-04 0.0000000000000000e+00  -2.9251747052032893e+01 -5.5884645287059399e-04 0.0000000000000000e+00  -2.9251835598691830e+01 -5.1612952600783683e-04 0.0000000000000000e+00  -2.9251886079681267e+01 -4.9309582410154854e-04 0.0000000000000000e+00  -2.9251915459244977e+01 -4.8042777352059535e-04 0.0000000000000000e+00  -2.9251933107678596e+01 -4.7318531705491649e-04 0.0000000000000000e+00  -2.9251944071129564e+01 -4.6881511343731464e-04 0.0000000000000000e+00  -2.9251951043690926e+01 -4.6607816226910140e-04 0.0000000000000000e+00  -2.9251955544245188e+01 -4.6430964675348610e-04 0.0000000000000000e+00  -2.9251958457593272e+01 -4.6315971105193168e-04 0.0000000000000000e+00  -2.9251960339400110e+01 -4.6240669277101401e-04 0.0000000000000000e+00  -2.9251961540560174e+01 -4.6191759235068901e-04 0.0000000000000000e+00  -2.9251962293319650e+01 -4.6159861181190677e-04 0.0000000000000000e+00  -2.9251962747255181e+01 -4.6139130402754334e-04 0.0000000000000000e+00  -2.9251963002123222e+01 -4.6125489360955134e-04 0.0000000000000000e+00  -2.9251963122133571e+01 -4.6116476272968059e-04 0.0000000000000000e+00  -2.9251963150445345e+01 -4.6110424540602492e-04 0.0000000000000000e+00  -2.9251963115247236e+01 -4.6106331618011925e-04 0.0000000000000000e+00  -2.9251963036061042e+01 -4.6103506653893061e-04 0.0000000000000000e+00  -2.9251962926100703e+01 -4.6101518567574122e-04 0.0000000000000000e+00  -2.9251962794841894e+01 -4.6100055160730826e-04 0.0000000000000000e+00  -2.9251962648954034e+01 -4.6098903020414293e-04 0.0000000000000000e+00  -2.9251962493431506e+01 -4.6097900295713511e-04 0.0000000000000000e+00  -2.9251962332006254e+01 -4.6096940478854013e-04 0.0000000000000000e+00  -2.9251962167581077e+01 -4.6095958269800697e-04 0.0000