<?xml version="1.0"?>
<VTKFile type="UnstructuredGrid"  version="0.1"  >
<UnstructuredGrid>
<Piece  NumberOfPoints="1369" NumberOfCells="2560">
<Points>
<DataArray  type="Float64"  NumberOfComponents="3"  format="ascii">0 0 0  0.75 0 0  1.5 0 0  2.25 0 0  3 0 0  3.75 0 0  4.5 0 0  5.25 0 0  6 0 0  6.75 0 0  7.5 0 0  8.25 0 0  9 0 0  9.75 0 0  10.5 0 0  11.25 0 0  12 0 0  12.75 0 0  13.5 0 0  14.25 0 0  15 0 0  15.75 0 0  16.5 0 0  17.25 0 0  18 0 0  18.75 0 0  19.5 0 0  20.25 0 0  21 0 0  21.75 0 0  22.5 0 0  23.25 0 0  24 0 0  24.75 0 0  25.5 0 0  26.25 0 0  27 0 0  27.75 0 0  28.5 0 0  29.25 0 0  30 0 0  30.75 0 0  31.5 0 0  32.25 0 0  33 0 0  33.75 0 0  34.5 0 0  35.25 0 0  36 0 0  36.75 0 0  37.5 0 0  38.25 0 0  39 0 0  39.75 0 0  40.5 0 0  41.25 0 0  42 0 0  42.75 0 0  43.5 0 0  44.25 0 0  45 0 0  45.75 0 0  46.5 0 0  47.25 0 0  48 0 0  48.75 0 0  49.5 0 0  50.25 0 0  51 0 0  51.75 0 0  52.5 0 0  53.25 0 0  54 0 0  54.75 0 0  55.5 0 0  56.25 0 0  57 0 0  57.75 0 0  58.5 0 0  59.25 0 0  60 0 0  0 0.5 0  0.75 0.5 0  1.5 0.5 0  2.25 0.5 0  3 0.5 0  3.75 0.5 0  4.5 0.5 0  5.25 0.5 0  6 0.5 0  6.75 0.5 0  7.5 0.5 0  8.25 0.5 0  9 0.5 0  9.75 0.5 0  10.5 0.5 0  11.25 0.5 0  12 0.5 0  12.75 0.5 0  13.5 0.5 0  14.25 0.5 0  15 0.5 0  15.75 0.5 0  16.5 0.5 0  17.25 0.5 0  18 0.5 0  18.75 0.5 0  19.5 0.5 0  20.25 0.5 0  21 0.5 0  21.75 0.5 0  22.5 0.5 0  23.25 0.5 0  24 0.5 0  24.75 0.5 0  25.5 0.5 0  26.25 0.5 0  27 0.5 0  27.75 0.5 0  28.5 0.5 0  29.25 0.5 0  30 0.5 0  30.75 0.5 0  31.5 0.5 0  32.25 0.5 0  33 0.5 0  33.75 0.5 0  34.5 0.5 0  35.25 0.5 0  36 0.5 0  36.75 0.5 0  37.5 0.5 0  38.25 0.5 0  39 0.5 0  39.75 0.5 0  40.5 0.5 0  41.25 0.5 0  42 0.5 0  42.75 0.5 0  43.5 0.5 0  44.25 0.5 0  45 0.5 0  45.75 0.5 0  46.5 0.5 0  47.25 0.5 0  48 0.5 0  48.75 0.5 0  49.5 0.5 0  50.25 0.5 0  51 0.5 0  51.75 0.5 0  52.5 0.5 0  53.25 0.5 0  54 0.5 0  54.75 0.5 0  55.5 0.5 0  56.25 0.5 0  57 0.5 0  57.75 0.5 0  58.5 0.5 0  59.25 0.5 0  60 0.5 0  0 1 0  0.75 1 0  1.5 1 0  2.25 1 0  3 1 0  3.75 1 0  4.5 1 0  5.25 1 0  6 1 0  6.75 1 0  7.5 1 0  8.25 1 0  9 1 0  9.75 1 0  10.5 1 0  11.25 1 0  12 1 0  12.75 1 0  13.5 1 0  14.25 1 0  15 1 0  15.75 1 0  16.5 1 0  17.25 1 0  18 1 0  18.75 1 0  19.5 1 0  20.25 1 0  21 1 0  21.75 1 0  22.5 1 0  23.25 1 0  24 1 0  24.75 1 0  25.5 1 0  26.25 1 0  27 1 0  27.75 1 0  28.5 1 0  29.25 1 0  30 1 0  30.75 1 0  31.5 1 0  32.25 1 0  33 1 0  33.75 1 0  34.5 1 0  35.25 1 0  36 1 0  36.75 1 0  37.5 1 0  38.25 1 0  39 1 0  39.75 1 0  40.5 1 0  41.25 1 0  42 1 0  42.75 1 0  43.5 1 0  44.25 1 0  45 1 0  45.75 1 0  46.5 1 0  47.25 1 0  48 1 0  48.75 1 0  49.5 1 0  50.25 1 0  51 1 0  51.75 1 0  52.5 1 0  53.25 1 0  54 1 0  54.75 1 0  55.5 1 0  56.25 1 0  57 1 0  57.75 1 0  58.5 1 0  59.25 1 0  60 1 0  0 1.5 0  0.75 1.5 0  1.5 1.5 0  2.25 1.5 0  3 1.5 0  3.75 1.5 0  4.5 1.5 0  5.25 1.5 0  6 1.5 0  6.75 1.5 0  7.5 1.5 0  8.25 1.5 0  9 1.5 0  9.75 1.5 0  10.5 1.5 0  11.25 1.5 0  12 1.5 0  12.75 1.5 0  13.5 1.5 0  14.25 1.5 0  15 1.5 0  15.75 1.5 0  16.5 1.5 0  17.25 1.5 0  18 1.5 0  18.75 1.5 0  19.5 1.5 0  20.25 1.5 0  21 1.5 0  21.75 1.5 0  22.5 1.5 0  23.25 1.5 0  24 1.5 0  24.75 1.5 0  25.5 1.5 0  26.25 1.5 0  27 1.5 0  27.75 1.5 0  28.5 1.5 0  29.25 1.5 0  30 1.5 0  30.75 1.5 0  31.5 1.5 0  32.25 1.5 0  33 1.5 0  33.75 1.5 0  34.5 1.5 0  35.25 1.5 0  36 1.5 0  36.75 1.5 0  37.5 1.5 0  38.25 1.5 0  39 1.5 0  39.75 1.5 0  40.5 1.5 0  41.25 1.5 0  42 1.5 0  42.75 1.5 0  43.5 1.5 0  44.25 1.5 0  45 1.5 0  45.75 1.5 0  46.5 1.5 0  47.25 1.5 0  48 1.5 0  48.75 1.5 0  49.5 1.5 0  50.25 1.5 0  51 1.5 0  51.75 1.5 0  52.5 1.5 0  53.25 1.5 0  54 1.5 0  54.75 1.5 0  55.5 1.5 0  56.25 1.5 0  57 1.5 0  57.75 1.5 0  58.5 1.5 0  59.25 1.5 0  60 1.5 0  0 2 0  0.75 2 0  1.5 2 0  2.25 2 0  3 2 0  3.75 2 0  4.5 2 0  5.25 2 0  6 2 0  6.75 2 0  7.5 2 0  8.25 2 0  9 2 0  9.75 2 0  10.5 2 0  11.25 2 0  12 2 0  12.75 2 0  13.5 2 0  14.25 2 0  15 2 0  15.75 2 0  16.5 2 0  17.25 2 0  18 2 0  18.75 2 0  19.5 2 0  20.25 2 0  21 2 0  21.75 2 0  22.5 2 0  23.25 2 0  24 2 0  24.75 2 0  25.5 2 0  26.25 2 0  27 2 0  27.75 2 0  28.5 2 0  29.25 2 0  30 2 0  30.75 2 0  31.5 2 0  32.25 2 0  33 2 0  33.75 2 0  34.5 2 0  35.25 2 0  36 2 0  36.75 2 0  37.5 2 0  38.25 2 0  39 2 0  39.75 2 0  40.5 2 0  41.25 2 0  42 2 0  42.75 2 0  43.5 2 0  44.25 2 0  45 2 0  45.75 2 0  46.5 2 0  47.25 2 0  48 2 0  48.75 2 0  49.5 2 0  50.25 2 0  51 2 0  51.75 2 0  52.5 2 0  53.25 2 0  54 2 0  54.75 2 0  55.5 2 0  56.25 2 0  57 2 0  57.75 2 0  58.5 2 0  59.25 2 0  60 2 0  0 2.5 0  0.75 2.5 0  1.5 2.5 0  2.25 2.5 0  3 2.5 0  3.75 2.5 0  4.5 2.5 0  5.25 2.5 0  6 2.5 0  6.75 2.5 0  7.5 2.5 0  8.25 2.5 0  9 2.5 0  9.75 2.5 0  10.5 2.5 0  11.25 2.5 0  12 2.5 0  12.75 2.5 0  13.5 2.5 0  14.25 2.5 0  15 2.5 0  15.75 2.5 0  16.5 2.5 0  17.25 2.5 0  18 2.5 0  18.75 2.5 0  19.5 2.5 0  20.25 2.5 0  21 2.5 0  21.75 2.5 0  22.5 2.5 0  23.25 2.5 0  24 2.5 0  24.75 2.5 0  25.5 2.5 0  26.25 2.5 0  27 2.5 0  27.75 2.5 0  28.5 2.5 0  29.25 2.5 0  30 2.5 0  30.75 2.5 0  31.5 2.5 0  32.25 2.5 0  33 2.5 0  33.75 2.5 0  34.5 2.5 0  35.25 2.5 0  36 2.5 0  36.75 2.5 0  37.5 2.5 0  38.25 2.5 0  39 2.5 0  39.75 2.5 0  40.5 2.5 0  41.25 2.5 0  42 2.5 0  42.75 2.5 0  43.5 2.5 0  44.25 2.5 0  45 2.5 0  45.75 2.5 0  46.5 2.5 0  47.25 2.5 0  48 2.5 0  48.75 2.5 0  49.5 2.5 0  50.25 2.5 0  51 2.5 0  51.75 2.5 0  52.5 2.5 0  53.25 2.5 0  54 2.5 0  54.75 2.5 0  55.5 2.5 0  56.25 2.5 0  57 2.5 0  57.75 2.5 0  58.5 2.5 0  59.25 2.5 0  60 2.5 0  0 3 0  0.75 3 0  1.5 3 0  2.25 3 0  3 3 0  3.75 3 0  4.5 3 0  5.25 3 0  6 3 0  6.75 3 0  7.5 3 0  8.25 3 0  9 3 0  9.75 3 0  10.5 3 0  11.25 3 0  12 3 0  12.75 3 0  13.5 3 0  14.25 3 0  15 3 0  15.75 3 0  16.5 3 0  17.25 3 0  18 3 0  18.75 3 0  19.5 3 0  20.25 3 0  21 3 0  21.75 3 0  22.5 3 0  23.25 3 0  24 3 0  24.75 3 0  25.5 3 0  26.25 3 0  27 3 0  27.75 3 0  28.5 3 0  29.25 3 0  30 3 0  30.75 3 0  31.5 3 0  32.25 3 0  33 3 0  33.75 3 0  34.5 3 0  35.25 3 0  36 3 0  36.75 3 0  37.5 3 0  38.25 3 0  39 3 0  39.75 3 0  40.5 3 0  41.25 3 0  42 3 0  42.75 3 0  43.5 3 0  44.25 3 0  45 3 0  45.75 3 0  46.5 3 0  47.25 3 0  48 3 0  48.75 3 0  49.5 3 0  50.25 3 0  51 3 0  51.75 3 0  52.5 3 0  53.25 3 0  54 3 0  54.75 3 0  55.5 3 0  56.25 3 0  57 3 0  57.75 3 0  58.5 3 0  59.25 3 0  60 3 0  0 3.5 0  0.75 3.5 0  1.5 3.5 0  2.25 3.5 0  3 3.5 0  3.75 3.5 0  4.5 3.5 0  5.25 3.5 0  6 3.5 0  6.75 3.5 0  7.5 3.5 0  8.25 3.5 0  9 3.5 0  9.75 3.5 0  10.5 3.5 0  11.25 3.5 0  12 3.5 0  12.75 3.5 0  13.5 3.5 0  14.25 3.5 0  15 3.5 0  15.75 3.5 0  16.5 3.5 0  17.25 3.5 0  18 3.5 0  18.75 3.5 0  19.5 3.5 0  20.25 3.5 0  21 3.5 0  21.75 3.5 0  22.5 3.5 0  23.25 3.5 0  24 3.5 0  24.75 3.5 0  25.5 3.5 0  26.25 3.5 0  27 3.5 0  27.75 3.5 0  28.5 3.5 0  29.25 3.5 0  30 3.5 0  30.75 3.5 0  31.5 3.5 0  32.25 3.5 0  33 3.5 0  33.75 3.5 0  34.5 3.5 0  35.25 3.5 0  36 3.5 0  36.75 3.5 0  37.5 3.5 0  38.25 3.5 0  39 3.5 0  39.75 3.5 0  40.5 3.5 0  41.25 3.5 0  42 3.5 0  42.75 3.5 0  43.5 3.5 0  44.25 3.5 0  45 3.5 0  45.75 3.5 0  46.5 3.5 0  47.25 3.5 0  48 3.5 0  48.75 3.5 0  49.5 3.5 0  50.25 3.5 0  51 3.5 0  51.75 3.5 0  52.5 3.5 0  53.25 3.5 0  54 3.5 0  54.75 3.5 0  55.5 3.5 0  56.25 3.5 0  57 3.5 0  57.75 3.5 0  58.5 3.5 0  59.25 3.5 0  60 3.5 0  0 4 0  0.75 4 0  1.5 4 0  2.25 4 0  3 4 0  3.75 4 0  4.5 4 0  5.25 4 0  6 4 0  6.75 4 0  7.5 4 0  8.25 4 0  9 4 0  9.75 4 0  10.5 4 0  11.25 4 0  12 4 0  12.75 4 0  13.5 4 0  14.25 4 0  15 4 0  15.75 4 0  16.5 4 0  17.25 4 0  18 4 0  18.75 4 0  19.5 4 0  20.25 4 0  21 4 0  21.75 4 0  22.5 4 0  23.25 4 0  24 4 0  24.75 4 0  25.5 4 0  26.25 4 0  27 4 0  27.75 4 0  28.5 4 0  29.25 4 0  30 4 0  30.75 4 0  31.5 4 0  32.25 4 0  33 4 0  33.75 4 0  34.5 4 0  35.25 4 0  36 4 0  36.75 4 0  37.5 4 0  38.25 4 0  39 4 0  39.75 4 0  40.5 4 0  41.25 4 0  42 4 0  42.75 4 0  43.5 4 0  44.25 4 0  45 4 0  45.75 4 0  46.5 4 0  47.25 4 0  48 4 0  48.75 4 0  49.5 4 0  50.25 4 0  51 4 0  51.75 4 0  52.5 4 0  53.25 4 0  54 4 0  54.75 4 0  55.5 4 0  56.25 4 0  57 4 0  57.75 4 0  58.5 4 0  59.25 4 0  60 4 0  0.375 0.25 0  1.125 0.25 0  1.875 0.25 0  2.625 0.25 0  3.375 0.25 0  4.125 0.25 0  4.875 0.25 0  5.625 0.25 0  6.375 0.25 0  7.125 0.25 0  7.875 0.25 0  8.625 0.25 0  9.375 0.25 0  10.125 0.25 0  10.875 0.25 0  11.625 0.25 0  12.375 0.25 0  13.125 0.25 0  13.875 0.25 0  14.625 0.25 0  15.375 0.25 0  16.125 0.25 0  16.875 0.25 0  17.625 0.25 0  18.375 0.25 0  19.125 0.25 0  19.875 0.25 0  20.625 0.25 0  21.375 0.25 0  22.125 0.25 0  22.875 0.25 0  23.625 0.25 0  24.375 0.25 0  25.125 0.25 0  25.875 0.25 0  26.625 0.25 0  27.375 0.25 0  28.125 0.25 0  28.875 0.25 0  29.625 0.25 0  30.375 0.25 0  31.125 0.25 0  31.875 0.25 0  32.625 0.25 0  33.375 0.25 0  34.125 0.25 0  34.875 0.25 0  35.625 0.25 0  36.375 0.25 0  37.125 0.25 0  37.875 0.25 0  38.625 0.25 0  39.375 0.25 0  40.125 0.25 0  40.875 0.25 0  41.625 0.25 0  42.375 0.25 0  43.125 0.25 0  43.875 0.25 0  44.625 0.25 0  45.375 0.25 0  46.125 0.25 0  46.875 0.25 0  47.625 0.25 0  48.375 0.25 0  49.125 0.25 0  49.875 0.25 0  50.625 0.25 0  51.375 0.25 0  52.125 0.25 0  52.875 0.25 0  53.625 0.25 0  54.375 0.25 0  55.125 0.25 0  55.875 0.25 0  56.625 0.25 0  57.375 0.25 0  58.125 0.25 0  58.875 0.25 0  59.625 0.25 0  0.375 0.75 0  1.125 0.75 0  1.875 0.75 0  2.625 0.75 0  3.375 0.75 0  4.125 0.75 0  4.875 0.75 0  5.625 0.75 0  6.375 0.75 0  7.125 0.75 0  7.875 0.75 0  8.625 0.75 0  9.375 0.75 0  10.125 0.75 0  10.875 0.75 0  11.625 0.75 0  12.375 0.75 0  13.125 0.75 0  13.875 0.75 0  14.625 0.75 0  15.375 0.75 0  16.125 0.75 0  16.875 0.75 0  17.625 0.75 0  18.375 0.75 0  19.125 0.75 0  19.875 0.75 0  20.625 0.75 0  21.375 0.75 0  22.125 0.75 0  22.875 0.75 0  23.625 0.75 0  24.375 0.75 0  25.125 0.75 0  25.875 0.75 0  26.625 0.75 0  27.375 0.75 0  28.125 0.75 0  28.875 0.75 0  29.625 0.75 0  30.375 0.75 0  31.125 0.75 0  31.875 0.75 0  32.625 0.75 0  33.375 0.75 0  34.125 0.75 0  34.875 0.75 0  35.625 0.75 0  36.375 0.75 0  37.125 0.75 0  37.875 0.75 0  38.625 0.75 0  39.375 0.75 0  40.125 0.75 0  40
[...]
<PointData  Vectors="f_8-0"> 
<DataArray  type="Float64"  Name="f_8-0"  NumberOfComponents="3" format="ascii">0.0000000000000000e+00 0.0000000000000000e+00 0.0000000000000000e+00  0.0000000000000000e+00 0.0000000000000000e+00 0.0000000000000000e+00  0.0000000000000000e+00 0.0000000000000000e+00 0.0000000000000000e+00  0.0000000000000000e+00 0.0000000000000000e+00 0.0000000000000000e+00  0.0000000000000000e+00 0.0000000000000000e+00 0.0000000000000000e+00  0.0000000000000000e+00 0.0000000000000000e+00 0.0000000000000000e+00  0.0000000000000000e+00 0.0000000000000000e+00 0.0000000000000000e+00  0.0000000000000000e+00 0.0000000000000000e+00 0.0000000000000000e+00  0.0000000000000000e+00 0.0000000000000000e+00 0.0000000000000000e+00  0.0000000000000000e+00 0.0000000000000000e+00 0.0000000000000000e+00  0.0000000000000000e+00 0.0000000000000000e+00 0.0000000000000000e+00  0.0000000000000000e+00 0.0000000000000000e+00 0.0000000000000000e+00  0.0000000000000000e+00 0.0000000000000000e+00 0.0000000000000000e+00  0.0000000000000000e+00 0.0000000000000000e+00 0.0000000000000000e+00  0.0000000000000000e+00 0.0000000000000000e+00 0.0000000000000000e+00  0.0000000000000000e+00 0.0000000000000000e+00 0.0000000000000000e+00  0.0000000000000000e+00 0.0000000000000000e+00 0.0000000000000000e+00  0.0000000000000000e+00 0.0000000000000000e+00 0.0000000000000000e+00  0.0000000000000000e+00 0.0000000000000000e+00 0.0000000000000000e+00  0.0000000000000000e+00 0.0000000000000000e+00 0.0000000000000000e+00  0.0000000000000000e+00 0.0000000000000000e+00 0.0000000000000000e+00  0.0000000000000000e+00 0.0000000000000000e+00 0.0000000000000000e+00  0.0000000000000000e+00 0.0000000000000000e+00 0.0000000000000000e+00  0.0000000000000000e+00 0.0000000000000000e+00 0.0000000000000000e+00  0.0000000000000000e+00 0.0000000000000000e+00 0.0000000000000000e+00  0.0000000000000000e+00 0.0000000000000000e+00 0.0000000000000000e+00  0.0000000000000000e+00 0.0000000000000000e+00 0.0000000000000000e+00  0.0000000000000000e+00 0.0000000000000000e+00 0.0000000000000000e+00  0.0000000000000000e+00 0.0000000000000000e+00 0.0000000000000000e+00  0.0000000000000000e+00 0.0000000000000000e+00 0.0000000000000000e+00  0.0000000000000000e+00 0.0000000000000000e+00 0.0000000000000000e+00  0.0000000000000000e+00 0.0000000000000000e+00 0.0000000000000000e+00  0.0000000000000000e+00 0.0000000000000000e+00 0.0000000000000000e+00  0.0000000000000000e+00 0.0000000000000000e+00 0.0000000000000000e+00  0.0000000000000000e+00 0.0000000000000000e+00 0.0000000000000000e+00  0.0000000000000000e+00 0.0000000000000000e+00 0.0000000000000000e+00  0.0000000000000000e+00 0.0000000000000000e+00 0.0000000000000000e+00  0.0000000000000000e+00 0.0000000000000000e+00 0.0000000000000000e+00  0.0000000000000000e+00 0.0000000000000000e+00 0.0000000000000000e+00  0.0000000000000000e+00 0.0000000000000000e+00 0.0000000000000000e+00  0.0000000000000000e+00 0.0000000000000000e+00 0.0000000000000000e+00  0.0000000000000000e+00 0.0000000000000000e+00 0.0000000000000000e+00  0.0000000000000000e+00 0.0000000000000000e+00 0.0000000000000000e+00  0.0000000000000000e+00 0.0000000000000000e+00 0.0000000000000000e+00  0.0000000000000000e+00 0.0000000000000000e+00 0.0000000000000000e+00  0.0000000000000000e+00 0.0000000000000000e+00 0.0000000000000000e+00  0.0000000000000000e+00 0.0000000000000000e+00 0.0000000000000000e+00  0.0000000000000000e+00 0.0000000000000000e+00 0.0000000000000000e+00  0.0000000000000000e+00 0.0000000000000000e+00 0.0000000000000000e+00  0.0000000000000000e+00 0.0000000000000000e+00 0.0000000000000000e+00  0.0000000000000000e+00 0.0000000000000000e+00 0.0000000000000000e+00  0.0000000000000000e+00 0.0000000000000000e+00 0.0000000000000000e+00  0.0000000000000000e+00 0.0000000000000000e+00 0.0000000000000000e+00  0.0000000000000000e+00 0.0000000000000000e+00 0.0000000000000000e+00  0.0000000000000000e+00 0.0000000000000000e+00 0.0000000000000000e+00  0.0000000000000000e+00 0.0000000000000000e+00 0.0000000000000000e+00  0.0000000000000000e+00 0.0000000000000000e+00 0.0000000000000000e+00  0.0000000000000000e+00 0.0000000000000000e+00 0.0000000000000000e+00  0.0000000000000000e+00 0.0000000000000000e+00 0.0000000000000000e+00  0.0000000000000000e+00 0.0000000000000000e+00 0.0000000000000000e+00  0.0000000000000000e+00 0.0000000000000000e+00 0.0000000000000000e+00  0.0000000000000000e+00 0.0000000000000000e+00 0.0000000000000000e+00  0.0000000000000000e+00 0.0000000000000000e+00 0.0000000000000000e+00  0.0000000000000000e+00 0.0000000000000000e+00 0.0000000000000000e+00  0.0000000000000000e+00 0.0000000000000000e+00 0.0000000000000000e+00  0.0000000000000000e+00 0.0000000000000000e+00 0.0000000000000000e+00  0.0000000000000000e+00 0.0000000000000000e+00 0.0000000000000000e+00  0.0000000000000000e+00 0.0000000000000000e+00 0.0000000000000000e+00  0.0000000000000000e+00 0.0000000000000000e+00 0.0000000000000000e+00  0.0000000000000000e+00 0.0000000000000000e+00 0.0000000000000000e+00  0.0000000000000000e+00 0.0000000000000000e+00 0.0000000000000000e+00  0.0000000000000000e+00 0.0000000000000000e+00 0.0000000000000000e+00  0.0000000000000000e+00 0.0000000000000000e+00 0.0000000000000000e+00  0.0000000000000000e+00 0.0000000000000000e+00 0.0000000000000000e+00  0.0000000000000000e+00 0.0000000000000000e+00 0.0000000000000000e+00  0.0000000000000000e+00 0.0000000000000000e+00 0.0000000000000000e+00  0.0000000000000000e+00 0.0000000000000000e+00 0.0000000000000000e+00  0.0000000000000000e+00 0.0000000000000000e+00 0.0000000000000000e+00  0.0000000000000000e+00 0.0000000000000000e+00 0.0000000000000000e+00  0.0000000000000000e+00 0.0000000000000000e+00 0.0000000000000000e+00  0.0000000000000000e+00 0.0000000000000000e+00 0.0000000000000000e+00  1.3935390765219058e+01 0.0000000000000000e+00 0.0000000000000000e+00  1.3980868514586630e+01 -6.8790161689640833e-02 0.0000000000000000e+00  1.3967841038603121e+01 -2.2373627686638115e-02 0.0000000000000000e+00  1.3966594215875450e+01 -6.0487466921115519e-03 0.0000000000000000e+00  1.3962941088081200e+01 -4.8292030027061953e-03 0.0000000000000000e+00  1.3956802533638262e+01 -3.7910328291160191e-03 0.0000000000000000e+00  1.3956756175411551e+01 -6.0351360711532647e-03 0.0000000000000000e+00  1.3957032411273254e+01 -6.3626672798744377e-03 0.0000000000000000e+00  1.3960629523363199e+01 -7.4354968205927637e-03 0.0000000000000000e+00  1.3964269940491771e+01 -7.1411072472474446e-03 0.0000000000000000e+00  1.3967891658014175e+01 -6.9814385765759220e-03 0.0000000000000000e+00  1.3970118447201049e+01 -6.4503711714118568e-03 0.0000000000000000e+00  1.3971538303398230e+01 -6.2000453475358659e-03 0.0000000000000000e+00  1.3972141317713472e+01 -5.9757195407299157e-03 0.0000000000000000e+00  1.3972436037399696e+01 -5.9211347805979827e-03 0.0000000000000000e+00  1.3972517792682465e+01 -5.8782763976706369e-03 0.0000000000000000e+00  1.3972559709588081e+01 -5.8786243563221383e-03 0.0000000000000000e+00  1.3972567004843965e+01 -5.8720783318007251e-03 0.0000000000000000e+00  1.3972574660628313e+01 -5.8736239475821947e-03 0.0000000000000000e+00  1.3972576308173043e+01 -5.8723776399870423e-03 0.0000000000000000e+00  1.3972578054269379e+01 -5.8723101798059630e-03 0.0000000000000000e+00  1.3972578969103093e+01 -5.8723575435752663e-03 0.0000000000000000e+00  1.3972579077747312e+01 -5.8719258493149301e-03 0.0000000000000000e+00  1.3972579642777447e+01 -5.8722662748052880e-03 0.0000000000000000e+00  1.3972579404085190e+01 -5.8718836066269983e-03 0.0000000000000000e+00  1.3972579752300154e+01 -5.8721826967660859e-03 0.0000000000000000e+00  1.3972579533847314e+01 -5.8719253566330018e-03 0.0000000000000000e+00  1.3972579738133540e+01 -5.8721201749866803e-03 0.0000000000000000e+00  1.3972579599969388e+01 -5.8719696249175442e-03 0.0000000000000000e+00  1.3972579712904061e+01 -5.8720797274943431e-03 0.0000000000000000e+00  1.3972579638579727e+01 -5.8719997384861188e-03 0.0000000000000000e+00  1.3972579697957192e+01 -5.8720563890646629e-03 0.0000000000000000e+00  1.3972579662677859e+01 -5.8720170592396473e-03 0.0000000000000000e+00  1.3972579693067653e+01 -5.8720441420596573e-03 0.0000000000000000e+00  1.3972579678776267e+01 -5.8720260764561633e-03 0.0000000000000000e+00  1.3972579694612596e+01 -5.8720382515273263e-03 0.0000000000000000e+00  1.3972579690628718e+01 -5.8720304644955318e-03 0.0000000000000000e+00  1.3972579699655098e+01 -5.8720356667231509e-03 0.0000000000000000e+00  1.3972579700377995e+01 -5.8720325212809517e-03 0.0000000000000000e+00  1.3972579706419419e+01 -5.8720346687946880e-03 0.0000000000000000e+00  1.3972579709157573e+01 -5.8720334944954823e-03 0.0000000000000000e+00  1.3972579713965020e+01 -5.8720343761545944e-03 0.0000000000000000e+00  1.3972579717518331e+01 -5.8720339965779326e-03 0.0000000000000000e+00  1.3972579721840470e+01 -5.8720343822814504e-03 0.0000000000000000e+00  1.3972579725707297e+01 -5.8720343058716517e-03 0.0000000000000000e+00  1.3972579729847009e+01 -5.8720345042871502e-03 0.0000000000000000e+00  1.3972579733824805e+01 -5.8720345390713864e-03 0.0000000000000000e+00  1.3972579737890785e+01 -5.8720346673692874e-03 0.0000000000000000e+00  1.3972579741893206e+01 -5.8720347388835680e-03 0.0000000000000000e+00  1.3972579745918003e+01 -5.8720348422093048e-03 0.0000000000000000e+00  1.3972579749909437e+01 -5.8720349245325754e-03 0.0000000000000000e+00  1.3972579753892072e+01 -5.8720350162198088e-03 0.0000000000000000e+00  1.3972579757847440e+01 -5.8720351013409645e-03 0.0000000000000000e+00  1.3972579761784383e+01 -5.8720351933808004e-03 0.0000000000000000e+00  1.3972579765715732e+01 -5.8720353013031563e-03 0.0000000000000000e+00  1.3972579769697525e+01 -5.8720354425087148e-03 0.0000000000000000e+00  1.3972579773848707e+01 -5.8720356883630934e-03 0.0000000000000000e+00  1.3972579778487882e+01 -5.8720361228110302e-03 0.0000000000000000e+00  1.3972579784272391e+01 -5.8720370591735672e-03 0.0000000000000000e+00  1.3972579792692967e+01 -5.8720389107107633e-03 0.0000000000000000e+00  1.3972579806850312e+01 -5.8720429623426527e-03 0.0000000000000000e+00  1.3972579833378928e+01 -5.8720511277391479e-03 0.0000000000000000e+00  1.3972579885916659e+01 -5.8720685397856739e-03 0.0000000000000000e+00  1.3972579992846104e+01 -5.8721035492180869e-03 0.0000000000000000e+00  1.3972580211631600e+01 -5.8721761967401925e-03 0.0000000000000000e+00  1.3972580658852593e+01 -5.8723209330158897e-03 0.0000000000000000e+00  1.3972581565109021e+01 -5.8726129759956430e-03 0.0000000000000000e+00  1.3972583383437522e+01 -5.8731833571592749e-03 0.0000000000000000e+00  1.3972586980531378e+01 -5.8742932891722270e-03 0.0000000000000000e+00  1.3972593983722970e+01 -5.8763891578437503e-03 0.0000000000000000e+00  1.3972607365537495e+01 -5.8803261382538779e-03 0.0000000000000000e+00  1.3972632465940997e+01 -5.8875955733641286e-03 0.0000000000000000e+00  1.3972678684297932e+01 -5.9010193319204776e-03 0.0000000000000000e+00  1.3972762512988194e+01 -5.9257918918719987e-03 0.0000000000000000e+00  1.3972914130555345e+01 -5.9731137418767427e-03 0.0000000000000000e+00  1.3973196103162866e+01 -6.0671749152890067e-03 0.0000000000000000e+00  1.3973762704544347e+01 -6.2568447994822184e-03 0.0000000000000000e+00  1.3975088454082984e+01 -6.5594973904794848e-03 0.0000000000000000e+00  1.3978680738525707e+01 -6.6273485566322350e-03 0.0000000000000000e+00  1.3994336652490245e+01 1.2840644847184591e-03 0.0000000000000000e+00  1.4055263336836720e+01 0.0000000000000000e+00 0.0000000000000000e+00  2.3637051591451812e+01 0.0000000000000000e+00 0.0000000000000000e+00  2.3676985420367984e+01 3.7175815628421774e-02 0.0000000000000000e+00  2.3639367474052690e+01 3.3139286148398108e-03 0.0000000000000000e+00  2.3638936910319021e+01 1.1114434324733533e-02 0.0000000000000000e+00  2.3631500239630540e+01 8.7328252244080369e-03 0.0000000000000000e+00  2.3633448923708386e+01 4.6251511591133233e-03 0.0000000000000000e+00  2.3632088913349531e+01 2.6621966927058947e-03 0.0000000000000000e+00  2.3633635599132592e+01 -7.1046445132440656e-05 0.0000000000000000e+00  2.3633853965123571e+01 -1.4266553607157387e-03 0.0000000000000000e+00  2.3636929571288999e+01 -2.2753245644745921e-03 0.0000000000000000e+00  2.3639879819567085e+01 -1.1635299070455597e-03 0.0000000000000000e+00  2.3642754832716573e+01 -6.7558394541210133e-05 0.0000000000000000e+00  2.3644316924704469e+01 1.0321953814920542e-03 0.0000000000000000e+00  2.3645372459530837e+01 1.5947539052938661e-03 0.0000000000000000e+00  2.3645792295659319e+01 1.9500186331091887e-03 0.0000000000000000e+00  2.3646050634750328e+01 2.0643699520528770e-03 0.0000000000000000e+00  2.3646117056543822e+01 2.1312152862753555e-03 0.0000000000000000e+00  2.3646169512497003e+01 2.1414910166263224e-03 0.0000000000000000e+00  2.3646174363678583e+01 2.1531239078959735e-03 0.0000000000000000e+00  2.3646186578761569e+01 2.1534125609661810e-03 0.0000000000000000e+00  2.3646186000549026e+01 2.1559361781449790e-03 0.0000000000000000e+00  2.3646189238560442e+01 2.1562459363773101e-03 0.0000000000000000e+00  2.3646189068693715e+01 2.1565832146423570e-03 0.0000000000000000e+00  2.3646189737073570e+01 2.1570016388365357e-03 0.0000000000000000e+00  2.3646189921127814e+01 2.1567991562558481e-03 0.0000000000000000e+00  2.3646189890253748e+01 2.1571443833472044e-03 0.0000000000000000e+00  2.3646190145984800e+01 2.1569017355139030e-03 0.0000000000000000e+00  2.3646190001691203e+01 2.1571318939756431e-03 0.0000000000000000e+00  2.3646190214562271e+01 2.1569626228562979e-03 0.0000000000000000e+00  2.3646190108600674e+01 2.1570970835110169e-03 0.0000000000000000e+00  2.3646190259471020e+01 2.1569993296550890e-03 0.0000000000000000e+00  2.3646190209466834e+01 2.1570706222911987e-03 0.0000000000000000e+00  2.3646190311692756e+01 2.1570200838471171e-03 0.0000000000000000e+00  2.3646190302867151e+01 2.1570550245271882e-03 0.0000000000000000e+00  2.3646190374405037e+01 2.1570309455779617e-03 0.0000000000000000e+00  2.3646190390098440e+01 2.1570469536913426e-03 0.0000000000000000e+00  2.3646190444680645e+01 2.1570362330469699e-03 0.0000000000000000e+00  2.3646190473277439e+01 2.1570431427386356e-03 0.0000000000000000e+00  2.3646190519387709e+01 2.1570386472250049e-03 0.0000000000000000e+00  2.3646190554188792e+01 2.1570414817793575e-03 0.0000000000000000e+00  2.3646190596398167e+01 2.1570397022468799e-03 0.0000000000000000e+00  2.3646190633968484e+01 2.1570408192611201e-03 0.0000000000000000e+00  2.3646190674505053e+01 2.1570401594311049e-03 0.0000000000000000e+00  2.3646190713231025e+01 2.1570405895929533e-03 0.0000000000000000e+00  2.3646190753091730e+01 2.1570403659680083e-03 0.0000000000000000e+00  2.3646190792279270e+01 2.1570405390606969e-03 0.0000000000000000e+00  2.3646190831880240e+01 2.1570404812321386e-03 0.0000000000000000e+00  2.3646190871237732e+01 2.1570405662887102e-03 0.0000000000000000e+00  2.3646190910733058e+01 2.1570405722099529e-03 0.0000000000000000e+00  2.3646190950136734e+01 2.1570406320431880e-03 0.0000000000000000e+00  2.3646190989572489e+01 2.1570406658196492e-03 0.0000000000000000e+00  2.3646191028963255e+01 2.1570407257884652e-03 0.0000000000000000e+00  2.3646191068338464e+01 2.1570407749099789e-03 0.0000000000000000e+00  2.3646191107659330e+01 2.1570408464123788e-03 0.0000000000000000e+00  2.3646191146914081e+01 2.1570408667502053e-03 0.0000000000000000e+00  2.3646191186074191e+01 2.1570408958119128e-03 0.0000000000000000e+00  2.3646191225085136e+01 2.1570406958580789e-03 0.0000000000000000e+00  2.3646191263897517e+01 2.1570403175849586e-03 0.0000000000000000e+00  2.3646191302388903e+01 2.1570389755354437e-03 0.0000000000000000e+00  2.3646191340477429e+01 2.1570363770493251e-03 0.0000000000000000e+00  2.3646191377904092e+01 2.1570298155702363e-03 0.0000000000000000e+00  2.3646191414521954e+01 2.1570168928832642e-03 0.0000000000000000e+00  2.3646191449796135e+01 2.1569877674111971e-03 0.0000000000000000e+00  2.3646191483497848e+01 2.1569299291839318e-03 0.0000000000000000e+00  2.3646191514718378e+01 2.1568062715794437e-03 0.0000000000000000e+00  2.3646191543884029e+01 2.1565601495372871e-03 0.0000000000000000e+00  2.3646191571006572e+01 2.1560536932997911e-03 0.0000000000000000e+00  2.3646191600139815e+01 2.1550635725604205e-03 0.0000000000000000e+00  2.3646191632277713e+01 2.1531269203959591e-03 0.0000000000000000e+00  2.3646191671836366e+01 2.1495009713420944e-03 0.0000000000000000e+00  2.3646191724699381e+01 2.1426944376491323e-03 0.0000000000000000e+00  2.3646191858621755e+01 2.1301117794500944e-03 0.0000000000000000e+00  2.3646192197819310e+01 2.1068405744374260e-03 0.0000000000000000e+00  2.3646193096747453e+01 2.0644477488344646e-03 0.0000000000000000e+00  2.3646195994056576e+01 1.9844060842731191e-03 0.0000000000000000e+00  2.3646205791539103e+01 1.8248160359275601e-03 0.0000000000000000e+00  2.3646241134863256e+01 1.4785664423426499e-03 0.0000000000000000e+00  2.3646382786400842e+01 6.8809967866346295e-04 0.0000000000000000e+00  2.3646981622273987e+01 -1.0003629880652926e-03 0.0000000000000000e+00  2.3647199172529866e+01 -5.6505839640689677e-03 0.0000000000000000e+00  2.3640064286862046e+01 0.0000000000000000e+00 0.0000000000000000e+00  2.5330560955331581e+01 0.0000000000000000e+00 0.0000000000000000e+00  2.5295955095956909e+01 -1.6394056775398628e-02 0.0000000000000000e+00  2.5307912035492333e+01 3.0708922409837538e-03 0.0000000000000000e+00  2.5311815378975478e+01 -3.4695963637788169e-05 0.0000000000000000e+00  2.5327758705259395e+01 3.6300946394650065e-03 0.0000000000000000e+00  2.5329606350354400e+01 2.5474397487333196e-03 0.0000000000000000e+00  2.5334061016536449e+01 7.4830388270764761e-04 0.0000000000000000e+00  2.5331332753597977e+01 2.4332347933537485e-04 0.0000000000000000e+00  2.5329580144691551e+01 -1.7933842561760412e-03 0.0000000000000000e+00  2.5324786530064376e+01 -2.7692226207646203e-03 0.0000000000000000e+00  2.5321836141422988e+01 -2.4693659068995323e-03 0.0000000000000000e+00  2.5319156106402872e+01 -1.1692527123932149e-03 0.0000000000000000e+00  2.5318047533573882e+01 -1.4213244600066807e-04 0.0000000000000000e+00  2.5317238114890912e+01 6.0328464876839756e-04 0.0000000000000000e+00  2.5317041208340161e+01 9.6106648074083235e-04 0.0000000000000000e+00  2.5316868662060255e+01 1.1542024395825930e-03 0.0000000000000000e+00  2.5316864469045047e+01 1.2206998092472907e-03 0.0000000000000000e+00  2.5316825072640047e+01 1.2549508028621627e-03 0.0000000000000000e+00  2.5316832922329358e+01 1.2634825301956448e-03 0.0000000000000000e+00  2.5316820589522891e+01 1.2693991417164687e-03 0.0000000000000000e+00  2.5316823995940087e+01 1.2707814340324438e-03 0.0000000000000000e+00  2.5316820089094115e+01 1.2718964028898242e-03 0.0000000000000000e+00  2.5316821012262832e+01 1.2724273867889093e-03 0.0000000000000000e+00  2.5316820123531457e+01 1.2724933825704542e-03 0.0000000000000000e+00  2.5316820121989544e+01 1.2728067824783423e-03 0.0000000000000000e+00  2.5316820169240270e+01 1.2726672742159218e-03 0.0000000000000000e+00  2.5316819947260349e+01 1.2728600755597637e-03 0.0000000000000000e+00  2.5316820188129437e+01 1.2727318643757075e-03 0.0000000000000000e+00  2.5316819993480905e+01 1.2728433772282929e-03 0.0000000000000000e+00  2.5316820210258143e+01 1.2727622222021963e-03 0.0000000000000000e+00  2.5316820095082438e+01 1.2728219322883797e-03 0.0000000000000000e+00  2.5316820249956670e+01 1.2727779402779797e-03 0.0000000000000000e+00  2.5316820202229419e+01 1.2728076883053497e-03 0.0000000000000000e+00  2.5316820307318729e+01 1.2727860072371941e-03 0.0000000000000000e+00  2.5316820303331227e+01 1.2727998955806656e-03 0.0000000000000000e+00  2.5316820377527893e+01 1.2727899467475667e-03 0.0000000000000000e+00  2.5316820398116548e+01 1.2727960627628185e-03 0.0000000000000000e+00  2.5316820455631316e+01 1.2727917577533584e-03 0.0000000000000000e+00  2.5316820488695171e+01 1.2727943083045191e-03 0.0000000000000000e+00  2.5316820538057204e+01 1.2727925450277161e-03 0.0000000000