<?xml version="1.0"?>
<VTKFile type="UnstructuredGrid"  version="0.1"  >
<UnstructuredGrid>
<Piece  NumberOfPoints="1369" NumberOfCells="2560">
<Points>
<DataArray  type="Float64"  NumberOfComponents="3"  format="ascii">0 0 0  0.75 0 0  1.5 0 0  2.25 0 0  3 0 0  3.75 0 0  4.5 0 0  5.25 0 0  6 0 0  6.75 0 0  7.5 0 0  8.25 0 0  9 0 0  9.75 0 0  10.5 0 0  11.25 0 0  12 0 0  12.75 0 0  13.5 0 0  14.25 0 0  15 0 0  15.75 0 0  16.5 0 0  17.25 0 0  18 0 0  18.75 0 0  19.5 0 0  20.25 0 0  21 0 0  21.75 0 0  22.5 0 0  23.25 0 0  24 0 0  24.75 0 0  25.5 0 0  26.25 0 0  27 0 0  27.75 0 0  28.5 0 0  29.25 0 0  30 0 0  30.75 0 0  31.5 0 0  32.25 0 0  33 0 0  33.75 0 0  34.5 0 0  35.25 0 0  36 0 0  36.75 0 0  37.5 0 0  38.25 0 0  39 0 0  39.75 0 0  40.5 0 0  41.25 0 0  42 0 0  42.75 0 0  43.5 0 0  44.25 0 0  45 0 0  45.75 0 0  46.5 0 0  47.25 0 0  48 0 0  48.75 0 0  49.5 0 0  50.25 0 0  51 0 0  51.75 0 0  52.5 0 0  53.25 0 0  54 0 0  54.75 0 0  55.5 0 0  56.25 0 0  57 0 0  57.75 0 0  58.5 0 0  59.25 0 0  60 0 0  0 0.5 0  0.75 0.5 0  1.5 0.5 0  2.25 0.5 0  3 0.5 0  3.75 0.5 0  4.5 0.5 0  5.25 0.5 0  6 0.5 0  6.75 0.5 0  7.5 0.5 0  8.25 0.5 0  9 0.5 0  9.75 0.5 0  10.5 0.5 0  11.25 0.5 0  12 0.5 0  12.75 0.5 0  13.5 0.5 0  14.25 0.5 0  15 0.5 0  15.75 0.5 0  16.5 0.5 0  17.25 0.5 0  18 0.5 0  18.75 0.5 0  19.5 0.5 0  20.25 0.5 0  21 0.5 0  21.75 0.5 0  22.5 0.5 0  23.25 0.5 0  24 0.5 0  24.75 0.5 0  25.5 0.5 0  26.25 0.5 0  27 0.5 0  27.75 0.5 0  28.5 0.5 0  29.25 0.5 0  30 0.5 0  30.75 0.5 0  31.5 0.5 0  32.25 0.5 0  33 0.5 0  33.75 0.5 0  34.5 0.5 0  35.25 0.5 0  36 0.5 0  36.75 0.5 0  37.5 0.5 0  38.25 0.5 0  39 0.5 0  39.75 0.5 0  40.5 0.5 0  41.25 0.5 0  42 0.5 0  42.75 0.5 0  43.5 0.5 0  44.25 0.5 0  45 0.5 0  45.75 0.5 0  46.5 0.5 0  47.25 0.5 0  48 0.5 0  48.75 0.5 0  49.5 0.5 0  50.25 0.5 0  51 0.5 0  51.75 0.5 0  52.5 0.5 0  53.25 0.5 0  54 0.5 0  54.75 0.5 0  55.5 0.5 0  56.25 0.5 0  57 0.5 0  57.75 0.5 0  58.5 0.5 0  59.25 0.5 0  60 0.5 0  0 1 0  0.75 1 0  1.5 1 0  2.25 1 0  3 1 0  3.75 1 0  4.5 1 0  5.25 1 0  6 1 0  6.75 1 0  7.5 1 0  8.25 1 0  9 1 0  9.75 1 0  10.5 1 0  11.25 1 0  12 1 0  12.75 1 0  13.5 1 0  14.25 1 0  15 1 0  15.75 1 0  16.5 1 0  17.25 1 0  18 1 0  18.75 1 0  19.5 1 0  20.25 1 0  21 1 0  21.75 1 0  22.5 1 0  23.25 1 0  24 1 0  24.75 1 0  25.5 1 0  26.25 1 0  27 1 0  27.75 1 0  28.5 1 0  29.25 1 0  30 1 0  30.75 1 0  31.5 1 0  32.25 1 0  33 1 0  33.75 1 0  34.5 1 0  35.25 1 0  36 1 0  36.75 1 0  37.5 1 0  38.25 1 0  39 1 0  39.75 1 0  40.5 1 0  41.25 1 0  42 1 0  42.75 1 0  43.5 1 0  44.25 1 0  45 1 0  45.75 1 0  46.5 1 0  47.25 1 0  48 1 0  48.75 1 0  49.5 1 0  50.25 1 0  51 1 0  51.75 1 0  52.5 1 0  53.25 1 0  54 1 0  54.75 1 0  55.5 1 0  56.25 1 0  57 1 0  57.75 1 0  58.5 1 0  59.25 1 0  60 1 0  0 1.5 0  0.75 1.5 0  1.5 1.5 0  2.25 1.5 0  3 1.5 0  3.75 1.5 0  4.5 1.5 0  5.25 1.5 0  6 1.5 0  6.75 1.5 0  7.5 1.5 0  8.25 1.5 0  9 1.5 0  9.75 1.5 0  10.5 1.5 0  11.25 1.5 0  12 1.5 0  12.75 1.5 0  13.5 1.5 0  14.25 1.5 0  15 1.5 0  15.75 1.5 0  16.5 1.5 0  17.25 1.5 0  18 1.5 0  18.75 1.5 0  19.5 1.5 0  20.25 1.5 0  21 1.5 0  21.75 1.5 0  22.5 1.5 0  23.25 1.5 0  24 1.5 0  24.75 1.5 0  25.5 1.5 0  26.25 1.5 0  27 1.5 0  27.75 1.5 0  28.5 1.5 0  29.25 1.5 0  30 1.5 0  30.75 1.5 0  31.5 1.5 0  32.25 1.5 0  33 1.5 0  33.75 1.5 0  34.5 1.5 0  35.25 1.5 0  36 1.5 0  36.75 1.5 0  37.5 1.5 0  38.25 1.5 0  39 1.5 0  39.75 1.5 0  40.5 1.5 0  41.25 1.5 0  42 1.5 0  42.75 1.5 0  43.5 1.5 0  44.25 1.5 0  45 1.5 0  45.75 1.5 0  46.5 1.5 0  47.25 1.5 0  48 1.5 0  48.75 1.5 0  49.5 1.5 0  50.25 1.5 0  51 1.5 0  51.75 1.5 0  52.5 1.5 0  53.25 1.5 0  54 1.5 0  54.75 1.5 0  55.5 1.5 0  56.25 1.5 0  57 1.5 0  57.75 1.5 0  58.5 1.5 0  59.25 1.5 0  60 1.5 0  0 2 0  0.75 2 0  1.5 2 0  2.25 2 0  3 2 0  3.75 2 0  4.5 2 0  5.25 2 0  6 2 0  6.75 2 0  7.5 2 0  8.25 2 0  9 2 0  9.75 2 0  10.5 2 0  11.25 2 0  12 2 0  12.75 2 0  13.5 2 0  14.25 2 0  15 2 0  15.75 2 0  16.5 2 0  17.25 2 0  18 2 0  18.75 2 0  19.5 2 0  20.25 2 0  21 2 0  21.75 2 0  22.5 2 0  23.25 2 0  24 2 0  24.75 2 0  25.5 2 0  26.25 2 0  27 2 0  27.75 2 0  28.5 2 0  29.25 2 0  30 2 0  30.75 2 0  31.5 2 0  32.25 2 0  33 2 0  33.75 2 0  34.5 2 0  35.25 2 0  36 2 0  36.75 2 0  37.5 2 0  38.25 2 0  39 2 0  39.75 2 0  40.5 2 0  41.25 2 0  42 2 0  42.75 2 0  43.5 2 0  44.25 2 0  45 2 0  45.75 2 0  46.5 2 0  47.25 2 0  48 2 0  48.75 2 0  49.5 2 0  50.25 2 0  51 2 0  51.75 2 0  52.5 2 0  53.25 2 0  54 2 0  54.75 2 0  55.5 2 0  56.25 2 0  57 2 0  57.75 2 0  58.5 2 0  59.25 2 0  60 2 0  0 2.5 0  0.75 2.5 0  1.5 2.5 0  2.25 2.5 0  3 2.5 0  3.75 2.5 0  4.5 2.5 0  5.25 2.5 0  6 2.5 0  6.75 2.5 0  7.5 2.5 0  8.25 2.5 0  9 2.5 0  9.75 2.5 0  10.5 2.5 0  11.25 2.5 0  12 2.5 0  12.75 2.5 0  13.5 2.5 0  14.25 2.5 0  15 2.5 0  15.75 2.5 0  16.5 2.5 0  17.25 2.5 0  18 2.5 0  18.75 2.5 0  19.5 2.5 0  20.25 2.5 0  21 2.5 0  21.75 2.5 0  22.5 2.5 0  23.25 2.5 0  24 2.5 0  24.75 2.5 0  25.5 2.5 0  26.25 2.5 0  27 2.5 0  27.75 2.5 0  28.5 2.5 0  29.25 2.5 0  30 2.5 0  30.75 2.5 0  31.5 2.5 0  32.25 2.5 0  33 2.5 0  33.75 2.5 0  34.5 2.5 0  35.25 2.5 0  36 2.5 0  36.75 2.5 0  37.5 2.5 0  38.25 2.5 0  39 2.5 0  39.75 2.5 0  40.5 2.5 0  41.25 2.5 0  42 2.5 0  42.75 2.5 0  43.5 2.5 0  44.25 2.5 0  45 2.5 0  45.75 2.5 0  46.5 2.5 0  47.25 2.5 0  48 2.5 0  48.75 2.5 0  49.5 2.5 0  50.25 2.5 0  51 2.5 0  51.75 2.5 0  52.5 2.5 0  53.25 2.5 0  54 2.5 0  54.75 2.5 0  55.5 2.5 0  56.25 2.5 0  57 2.5 0  57.75 2.5 0  58.5 2.5 0  59.25 2.5 0  60 2.5 0  0 3 0  0.75 3 0  1.5 3 0  2.25 3 0  3 3 0  3.75 3 0  4.5 3 0  5.25 3 0  6 3 0  6.75 3 0  7.5 3 0  8.25 3 0  9 3 0  9.75 3 0  10.5 3 0  11.25 3 0  12 3 0  12.75 3 0  13.5 3 0  14.25 3 0  15 3 0  15.75 3 0  16.5 3 0  17.25 3 0  18 3 0  18.75 3 0  19.5 3 0  20.25 3 0  21 3 0  21.75 3 0  22.5 3 0  23.25 3 0  24 3 0  24.75 3 0  25.5 3 0  26.25 3 0  27 3 0  27.75 3 0  28.5 3 0  29.25 3 0  30 3 0  30.75 3 0  31.5 3 0  32.25 3 0  33 3 0  33.75 3 0  34.5 3 0  35.25 3 0  36 3 0  36.75 3 0  37.5 3 0  38.25 3 0  39 3 0  39.75 3 0  40.5 3 0  41.25 3 0  42 3 0  42.75 3 0  43.5 3 0  44.25 3 0  45 3 0  45.75 3 0  46.5 3 0  47.25 3 0  48 3 0  48.75 3 0  49.5 3 0  50.25 3 0  51 3 0  51.75 3 0  52.5 3 0  53.25 3 0  54 3 0  54.75 3 0  55.5 3 0  56.25 3 0  57 3 0  57.75 3 0  58.5 3 0  59.25 3 0  60 3 0  0 3.5 0  0.75 3.5 0  1.5 3.5 0  2.25 3.5 0  3 3.5 0  3.75 3.5 0  4.5 3.5 0  5.25 3.5 0  6 3.5 0  6.75 3.5 0  7.5 3.5 0  8.25 3.5 0  9 3.5 0  9.75 3.5 0  10.5 3.5 0  11.25 3.5 0  12 3.5 0  12.75 3.5 0  13.5 3.5 0  14.25 3.5 0  15 3.5 0  15.75 3.5 0  16.5 3.5 0  17.25 3.5 0  18 3.5 0  18.75 3.5 0  19.5 3.5 0  20.25 3.5 0  21 3.5 0  21.75 3.5 0  22.5 3.5 0  23.25 3.5 0  24 3.5 0  24.75 3.5 0  25.5 3.5 0  26.25 3.5 0  27 3.5 0  27.75 3.5 0  28.5 3.5 0  29.25 3.5 0  30 3.5 0  30.75 3.5 0  31.5 3.5 0  32.25 3.5 0  33 3.5 0  33.75 3.5 0  34.5 3.5 0  35.25 3.5 0  36 3.5 0  36.75 3.5 0  37.5 3.5 0  38.25 3.5 0  39 3.5 0  39.75 3.5 0  40.5 3.5 0  41.25 3.5 0  42 3.5 0  42.75 3.5 0  43.5 3.5 0  44.25 3.5 0  45 3.5 0  45.75 3.5 0  46.5 3.5 0  47.25 3.5 0  48 3.5 0  48.75 3.5 0  49.5 3.5 0  50.25 3.5 0  51 3.5 0  51.75 3.5 0  52.5 3.5 0  53.25 3.5 0  54 3.5 0  54.75 3.5 0  55.5 3.5 0  56.25 3.5 0  57 3.5 0  57.75 3.5 0  58.5 3.5 0  59.25 3.5 0  60 3.5 0  0 4 0  0.75 4 0  1.5 4 0  2.25 4 0  3 4 0  3.75 4 0  4.5 4 0  5.25 4 0  6 4 0  6.75 4 0  7.5 4 0  8.25 4 0  9 4 0  9.75 4 0  10.5 4 0  11.25 4 0  12 4 0  12.75 4 0  13.5 4 0  14.25 4 0  15 4 0  15.75 4 0  16.5 4 0  17.25 4 0  18 4 0  18.75 4 0  19.5 4 0  20.25 4 0  21 4 0  21.75 4 0  22.5 4 0  23.25 4 0  24 4 0  24.75 4 0  25.5 4 0  26.25 4 0  27 4 0  27.75 4 0  28.5 4 0  29.25 4 0  30 4 0  30.75 4 0  31.5 4 0  32.25 4 0  33 4 0  33.75 4 0  34.5 4 0  35.25 4 0  36 4 0  36.75 4 0  37.5 4 0  38.25 4 0  39 4 0  39.75 4 0  40.5 4 0  41.25 4 0  42 4 0  42.75 4 0  43.5 4 0  44.25 4 0  45 4 0  45.75 4 0  46.5 4 0  47.25 4 0  48 4 0  48.75 4 0  49.5 4 0  50.25 4 0  51 4 0  51.75 4 0  52.5 4 0  53.25 4 0  54 4 0  54.75 4 0  55.5 4 0  56.25 4 0  57 4 0  57.75 4 0  58.5 4 0  59.25 4 0  60 4 0  0.375 0.25 0  1.125 0.25 0  1.875 0.25 0  2.625 0.25 0  3.375 0.25 0  4.125 0.25 0  4.875 0.25 0  5.625 0.25 0  6.375 0.25 0  7.125 0.25 0  7.875 0.25 0  8.625 0.25 0  9.375 0.25 0  10.125 0.25 0  10.875 0.25 0  11.625 0.25 0  12.375 0.25 0  13.125 0.25 0  13.875 0.25 0  14.625 0.25 0  15.375 0.25 0  16.125 0.25 0  16.875 0.25 0  17.625 0.25 0  18.375 0.25 0  19.125 0.25 0  19.875 0.25 0  20.625 0.25 0  21.375 0.25 0  22.125 0.25 0  22.875 0.25 0  23.625 0.25 0  24.375 0.25 0  25.125 0.25 0  25.875 0.25 0  26.625 0.25 0  27.375 0.25 0  28.125 0.25 0  28.875 0.25 0  29.625 0.25 0  30.375 0.25 0  31.125 0.25 0  31.875 0.25 0  32.625 0.25 0  33.375 0.25 0  34.125 0.25 0  34.875 0.25 0  35.625 0.25 0  36.375 0.25 0  37.125 0.25 0  37.875 0.25 0  38.625 0.25 0  39.375 0.25 0  40.125 0.25 0  40.875 0.25 0  41.625 0.25 0  42.375 0.25 0  43.125 0.25 0  43.875 0.25 0  44.625 0.25 0  45.375 0.25 0  46.125 0.25 0  46.875 0.25 0  47.625 0.25 0  48.375 0.25 0  49.125 0.25 0  49.875 0.25 0  50.625 0.25 0  51.375 0.25 0  52.125 0.25 0  52.875 0.25 0  53.625 0.25 0  54.375 0.25 0  55.125 0.25 0  55.875 0.25 0  56.625 0.25 0  57.375 0.25 0  58.125 0.25 0  58.875 0.25 0  59.625 0.25 0  0.375 0.75 0  1.125 0.75 0  1.875 0.75 0  2.625 0.75 0  3.375 0.75 0  4.125 0.75 0  4.875 0.75 0  5.625 0.75 0  6.375 0.75 0  7.125 0.75 0  7.875 0.75 0  8.625 0.75 0  9.375 0.75 0  10.125 0.75 0  10.875 0.75 0  11.625 0.75 0  12.375 0.75 0  13.125 0.75 0  13.875 0.75 0  14.625 0.75 0  15.375 0.75 0  16.125 0.75 0  16.875 0.75 0  17.625 0.75 0  18.375 0.75 0  19.125 0.75 0  19.875 0.75 0  20.625 0.75 0  21.375 0.75 0  22.125 0.75 0  22.875 0.75 0  23.625 0.75 0  24.375 0.75 0  25.125 0.75 0  25.875 0.75 0  26.625 0.75 0  27.375 0.75 0  28.125 0.75 0  28.875 0.75 0  29.625 0.75 0  30.375 0.75 0  31.125 0.75 0  31.875 0.75 0  32.625 0.75 0  33.375 0.75 0  34.125 0.75 0  34.875 0.75 0  35.625 0.75 0  36.375 0.75 0  37.125 0.75 0  37.875 0.75 0  38.625 0.75 0  39.375 0.75 0  40.125 0.75 0  40
[...]
<PointData  Vectors="f_8-0"> 
<DataArray  type="Float64"  Name="f_8-0"  NumberOfComponents="3" format="ascii">0.0000000000000000e+00 0.0000000000000000e+00 0.0000000000000000e+00  0.0000000000000000e+00 0.0000000000000000e+00 0.0000000000000000e+00  0.0000000000000000e+00 0.0000000000000000e+00 0.0000000000000000e+00  0.0000000000000000e+00 0.0000000000000000e+00 0.0000000000000000e+00  0.0000000000000000e+00 0.0000000000000000e+00 0.0000000000000000e+00  0.0000000000000000e+00 0.0000000000000000e+00 0.0000000000000000e+00  0.0000000000000000e+00 0.0000000000000000e+00 0.0000000000000000e+00  0.0000000000000000e+00 0.0000000000000000e+00 0.0000000000000000e+00  0.0000000000000000e+00 0.0000000000000000e+00 0.0000000000000000e+00  0.0000000000000000e+00 0.0000000000000000e+00 0.0000000000000000e+00  0.0000000000000000e+00 0.0000000000000000e+00 0.0000000000000000e+00  0.0000000000000000e+00 0.0000000000000000e+00 0.0000000000000000e+00  0.0000000000000000e+00 0.0000000000000000e+00 0.0000000000000000e+00  0.0000000000000000e+00 0.0000000000000000e+00 0.0000000000000000e+00  0.0000000000000000e+00 0.0000000000000000e+00 0.0000000000000000e+00  0.0000000000000000e+00 0.0000000000000000e+00 0.0000000000000000e+00  0.0000000000000000e+00 0.0000000000000000e+00 0.0000000000000000e+00  0.0000000000000000e+00 0.0000000000000000e+00 0.0000000000000000e+00  0.0000000000000000e+00 0.0000000000000000e+00 0.0000000000000000e+00  0.0000000000000000e+00 0.0000000000000000e+00 0.0000000000000000e+00  0.0000000000000000e+00 0.0000000000000000e+00 0.0000000000000000e+00  0.0000000000000000e+00 0.0000000000000000e+00 0.0000000000000000e+00  0.0000000000000000e+00 0.0000000000000000e+00 0.0000000000000000e+00  0.0000000000000000e+00 0.0000000000000000e+00 0.0000000000000000e+00  0.0000000000000000e+00 0.0000000000000000e+00 0.0000000000000000e+00  0.0000000000000000e+00 0.0000000000000000e+00 0.0000000000000000e+00  0.0000000000000000e+00 0.0000000000000000e+00 0.0000000000000000e+00  0.0000000000000000e+00 0.0000000000000000e+00 0.0000000000000000e+00  0.0000000000000000e+00 0.0000000000000000e+00 0.0000000000000000e+00  0.0000000000000000e+00 0.0000000000000000e+00 0.0000000000000000e+00  0.0000000000000000e+00 0.0000000000000000e+00 0.0000000000000000e+00  0.0000000000000000e+00 0.0000000000000000e+00 0.0000000000000000e+00  0.0000000000000000e+00 0.0000000000000000e+00 0.0000000000000000e+00  0.0000000000000000e+00 0.0000000000000000e+00 0.0000000000000000e+00  0.0000000000000000e+00 0.0000000000000000e+00 0.0000000000000000e+00  0.0000000000000000e+00 0.0000000000000000e+00 0.0000000000000000e+00  0.0000000000000000e+00 0.0000000000000000e+00 0.0000000000000000e+00  0.0000000000000000e+00 0.0000000000000000e+00 0.0000000000000000e+00  0.0000000000000000e+00 0.0000000000000000e+00 0.0000000000000000e+00  0.0000000000000000e+00 0.0000000000000000e+00 0.0000000000000000e+00  0.0000000000000000e+00 0.0000000000000000e+00 0.0000000000000000e+00  0.0000000000000000e+00 0.0000000000000000e+00 0.0000000000000000e+00  0.0000000000000000e+00 0.0000000000000000e+00 0.0000000000000000e+00  0.0000000000000000e+00 0.0000000000000000e+00 0.0000000000000000e+00  0.0000000000000000e+00 0.0000000000000000e+00 0.0000000000000000e+00  0.0000000000000000e+00 0.0000000000000000e+00 0.0000000000000000e+00  0.0000000000000000e+00 0.0000000000000000e+00 0.0000000000000000e+00  0.0000000000000000e+00 0.0000000000000000e+00 0.0000000000000000e+00  0.0000000000000000e+00 0.0000000000000000e+00 0.0000000000000000e+00  0.0000000000000000e+00 0.0000000000000000e+00 0.0000000000000000e+00  0.0000000000000000e+00 0.0000000000000000e+00 0.0000000000000000e+00  0.0000000000000000e+00 0.0000000000000000e+00 0.0000000000000000e+00  0.0000000000000000e+00 0.0000000000000000e+00 0.0000000000000000e+00  0.0000000000000000e+00 0.0000000000000000e+00 0.0000000000000000e+00  0.0000000000000000e+00 0.0000000000000000e+00 0.0000000000000000e+00  0.0000000000000000e+00 0.0000000000000000e+00 0.0000000000000000e+00  0.0000000000000000e+00 0.0000000000000000e+00 0.0000000000000000e+00  0.0000000000000000e+00 0.0000000000000000e+00 0.0000000000000000e+00  0.0000000000000000e+00 0.0000000000000000e+00 0.0000000000000000e+00  0.0000000000000000e+00 0.0000000000000000e+00 0.0000000000000000e+00  0.0000000000000000e+00 0.0000000000000000e+00 0.0000000000000000e+00  0.0000000000000000e+00 0.0000000000000000e+00 0.0000000000000000e+00  0.0000000000000000e+00 0.0000000000000000e+00 0.0000000000000000e+00  0.0000000000000000e+00 0.0000000000000000e+00 0.0000000000000000e+00  0.0000000000000000e+00 0.0000000000000000e+00 0.0000000000000000e+00  0.0000000000000000e+00 0.0000000000000000e+00 0.0000000000000000e+00  0.0000000000000000e+00 0.0000000000000000e+00 0.0000000000000000e+00  0.0000000000000000e+00 0.0000000000000000e+00 0.0000000000000000e+00  0.0000000000000000e+00 0.0000000000000000e+00 0.0000000000000000e+00  0.0000000000000000e+00 0.0000000000000000e+00 0.0000000000000000e+00  0.0000000000000000e+00 0.0000000000000000e+00 0.0000000000000000e+00  0.0000000000000000e+00 0.0000000000000000e+00 0.0000000000000000e+00  0.0000000000000000e+00 0.0000000000000000e+00 0.0000000000000000e+00  0.0000000000000000e+00 0.0000000000000000e+00 0.0000000000000000e+00  0.0000000000000000e+00 0.0000000000000000e+00 0.0000000000000000e+00  0.0000000000000000e+00 0.0000000000000000e+00 0.0000000000000000e+00  0.0000000000000000e+00 0.0000000000000000e+00 0.0000000000000000e+00  0.0000000000000000e+00 0.0000000000000000e+00 0.0000000000000000e+00  0.0000000000000000e+00 0.0000000000000000e+00 0.0000000000000000e+00  0.0000000000000000e+00 0.0000000000000000e+00 0.0000000000000000e+00  0.0000000000000000e+00 0.0000000000000000e+00 0.0000000000000000e+00  -2.8045497166285880e+01 0.0000000000000000e+00 0.0000000000000000e+00  -2.8046841604434118e+01 1.2209447574841542e-03 0.0000000000000000e+00  -2.8048397913286490e+01 1.7323110234262870e-03 0.0000000000000000e+00  -2.8049533401843540e+01 1.4577285313159825e-03 0.0000000000000000e+00  -2.8049701548260689e+01 1.1299775082442894e-03 0.0000000000000000e+00  -2.8049253177570879e+01 9.0388839836017117e-04 0.0000000000000000e+00  -2.8048443731650977e+01 7.6501540614298846e-04 0.0000000000000000e+00  -2.8047485749859860e+01 7.1648099784279420e-04 0.0000000000000000e+00  -2.8046598457691172e+01 7.5675661303105390e-04 0.0000000000000000e+00  -2.8045924257506361e+01 8.4494453972714983e-04 0.0000000000000000e+00  -2.8045483816010293e+01 9.3457303096278492e-04 0.0000000000000000e+00  -2.8045226155636893e+01 1.0026567235164022e-03 0.0000000000000000e+00  -2.8045087074993763e+01 1.0462204016857023e-03 0.0000000000000000e+00  -2.8045016286787469e+01 1.0711411414493389e-03 0.0000000000000000e+00  -2.8044981680602046e+01 1.0842963837701584e-03 0.0000000000000000e+00  -2.8044965164463008e+01 1.0908966683756973e-03 0.0000000000000000e+00  -2.8044957350669957e+01 1.0940894904570078e-03 0.0000000000000000e+00  -2.8044953638349508e+01 1.0956122665514790e-03 0.0000000000000000e+00  -2.8044951840521026e+01 1.0963276077150359e-03 0.0000000000000000e+00  -2.8044950937530587e+01 1.0966665271299179e-03 0.0000000000000000e+00  -2.8044950453856224e+01 1.0968251981588425e-03 0.0000000000000000e+00  -2.8044950168601737e+01 1.0969014535944161e-03 0.0000000000000000e+00  -2.8044949977554861e+01 1.0969372249993148e-03 0.0000000000000000e+00  -2.8044949831779594e+01 1.0969548476724815e-03 0.0000000000000000e+00  -2.8044949707672281e+01 1.0969630229006370e-03 0.0000000000000000e+00  -2.8044949594068900e+01 1.0969671861848934e-03 0.0000000000000000e+00  -2.8044949485450392e+01 1.0969690222433924e-03 0.0000000000000000e+00  -2.8044949379232193e+01 1.0969699975608433e-03 0.0000000000000000e+00  -2.8044949274108319e+01 1.0969703726329961e-03 0.0000000000000000e+00  -2.8044949169494092e+01 1.0969705818334326e-03 0.0000000000000000e+00  -2.8044949065087110e+01 1.0969706292435547e-03 0.0000000000000000e+00  -2.8044948960765272e+01 1.0969706544341391e-03 0.0000000000000000e+00  -2.8044948856466757e+01 1.0969706371594717e-03 0.0000000000000000e+00  -2.8044948752169002e+01 1.0969706210899293e-03 0.0000000000000000e+00  -2.8044948647863446e+01 1.0969705948947962e-03 0.0000000000000000e+00  -2.8044948543550699e+01 1.0969705710945671e-03 0.0000000000000000e+00  -2.8044948439228232e+01 1.0969705440763953e-03 0.0000000000000000e+00  -2.8044948334901623e+01 1.0969705183543729e-03 0.0000000000000000e+00  -2.8044948230570057e+01 1.0969704936815660e-03 0.0000000000000000e+00  -2.8044948126237387e+01 1.0969704694685279e-03 0.0000000000000000e+00  -2.8044948021903316e+01 1.0969704458862551e-03 0.0000000000000000e+00  -2.8044947917573325e+01 1.0969704218248765e-03 0.0000000000000000e+00  -2.8044947813242516e+01 1.0969704011725907e-03 0.0000000000000000e+00  -2.8044947708929872e+01 1.0969703755695577e-03 0.0000000000000000e+00  -2.8044947604602068e+01 1.0969703648219585e-03 0.0000000000000000e+00  -2.8044947500343635e+01 1.0969703256459517e-03 0.0000000000000000e+00  -2.8044947395991791e+01 1.0969703516187101e-03 0.0000000000000000e+00  -2.8044947291916380e+01 1.0969702514253947e-03 0.0000000000000000e+00  -2.8044947187376735e+01 1.0969704257428297e-03 0.0000000000000000e+00  -2.8044947083964310e+01 1.0969700489963361e-03 0.0000000000000000e+00  -2.8044946978454597e+01 1.0969708273664436e-03 0.0000000000000000e+00  -2.8044946877567018e+01 1.0969692840126163e-03 0.0000000000000000e+00  -2.8044946767704918e+01 1.0969724720223844e-03 0.0000000000000000e+00  -2.8044946676507880e+01 1.0969662256171929e-03 0.0000000000000000e+00  -2.8044946548674517e+01 1.0969787456658962e-03 0.0000000000000000e+00  -2.8044946493963877e+01 1.0969544098914392e-03 0.0000000000000000e+00  -2.8044946296743138e+01 1.0970015771967945e-03 0.0000000000000000e+00  -2.8044946373713898e+01 1.0969111789297728e-03 0.0000000000000000e+00  -2.8044945926256172e+01 1.0970804556873002e-03 0.0000000000000000e+00  -2.8044946449358278e+01 1.0967623702696546e-03 0.0000000000000000e+00  -2.8044945167469045e+01 1.0973369547545657e-03 0.0000000000000000e+00  -2.8044947078254957e+01 1.0962812154054773e-03 0.0000000000000000e+00  -2.8044943262382624e+01 1.0981205399478704e-03 0.0000000000000000e+00  -2.8044949043189337e+01 1.0948102343452315e-03 0.0000000000000000e+00  -2.8044938325439215e+01 1.1004078889771932e-03 0.0000000000000000e+00  -2.8044953621615960e+01 1.0904897004711052e-03 0.0000000000000000e+00  -2.8044926069800926e+01 1.1070900063300893e-03 0.0000000000000000e+00  -2.8044962277614093e+01 1.0781467662736395e-03 0.0000000000000000e+00  -2.8044895625347745e+01 1.1269690911859052e-03 0.0000000000000000e+00  -2.8044970168016278e+01 1.0414872245627642e-03 0.0000000000000000e+00  -2.8044785617647101e+01 1.1677290319885643e-03 0.0000000000000000e+00  -2.8044803774035756e+01 8.6998185175206659e-04 0.0000000000000000e+00  -2.8044032431573857e+01 1.0261041491950577e-03 0.0000000000000000e+00  -2.8043089382163949e+01 1.3937568282935360e-05 0.0000000000000000e+00  -2.8041401633490693e+01 8.0426117114407636e-04 0.0000000000000000e+00  -2.8040763770310772e+01 1.1111170369177141e-03 0.0000000000000000e+00  -2.8042284378624785e+01 5.9321649364280629e-03 0.0000000000000000e+00  -2.8038635478165247e+01 6.9004149246117193e-03 0.0000000000000000e+00  -2.8040677198035169e+01 1.3710312052022949e-02 0.0000000000000000e+00  -2.8024744181759900e+01 1.4107458669097926e-02 0.0000000000000000e+00  -2.8012355051989182e+01 0.0000000000000000e+00 0.0000000000000000e+00  -3.3595319188727053e+01 0.0000000000000000e+00 0.0000000000000000e+00  -3.3594580704233636e+01 4.3875586009144698e-03 0.0000000000000000e+00  -3.3593272359168843e+01 3.8114776315476104e-03 0.0000000000000000e+00  -3.3592313544107029e+01 2.8660291528848796e-03 0.0000000000000000e+00  -3.3591558619795535e+01 2.2021002424369375e-03 0.0000000000000000e+00  -3.3590882362776782e+01 1.8027281462211413e-03 0.0000000000000000e+00  -3.3590242511463913e+01 1.5807314401177404e-03 0.0000000000000000e+00  -3.3589672752219393e+01 1.5798192868573409e-03 0.0000000000000000e+00  -3.3589287752508078e+01 1.7783765427588859e-03 0.0000000000000000e+00  -3.3589113500088175e+01 2.0311390475562471e-03 0.0000000000000000e+00  -3.3589068788484227e+01 2.2333263505845400e-03 0.0000000000000000e+00  -3.3589072645377549e+01 2.3647483879587552e-03 0.0000000000000000e+00  -3.3589085422922309e+01 2.4402950517050507e-03 0.0000000000000000e+00  -3.3589095087392266e+01 2.4805487096484758e-03 0.0000000000000000e+00  -3.3589100491117676e+01 2.5008192709523179e-03 0.0000000000000000e+00  -3.3589103054033885e+01 2.5107798187206289e-03 0.0000000000000000e+00  -3.3589104147938563e+01 2.5155559246281618e-03 0.0000000000000000e+00  -3.3589104561573919e+01 2.5178527746012847e-03 0.0000000000000000e+00  -3.3589104684368735e+01 2.5189334695968528e-03 0.0000000000000000e+00  -3.3589104678859314e+01 2.5194531943038834e-03 0.0000000000000000e+00  -3.3589104617823338e+01 2.5196947308685149e-03 0.0000000000000000e+00  -3.3589104529483656e+01 2.5198127601086559e-03 0.0000000000000000e+00  -3.3589104428324845e+01 2.5198668126462072e-03 0.0000000000000000e+00  -3.3589104319868881e+01 2.5198940610513345e-03 0.0000000000000000e+00  -3.3589104207722357e+01 2.5199060603122922e-03 0.0000000000000000e+00  -3.3589104093191061e+01 2.5199123973304654e-03 0.0000000000000000e+00  -3.3589103977381683e+01 2.5199149087746274e-03 0.0000000000000000e+00  -3.3589103860679778e+01 2.5199163357246725e-03 0.0000000000000000e+00  -3.3589103743469693e+01 2.5199167631765446e-03 0.0000000000000000e+00  -3.3589103625900748e+01 2.5199170412873121e-03 0.0000000000000000e+00  -3.3589103508113169e+01 2.5199170584025042e-03 0.0000000000000000e+00  -3.3589103390176575e+01 2.5199170798155296e-03 0.0000000000000000e+00  -3.3589103272140797e+01 2.5199170399124470e-03 0.0000000000000000e+00  -3.3589103154039400e+01 2.5199170168339305e-03 0.0000000000000000e+00  -3.3589103035892641e+01 2.5199169812249941e-03 0.0000000000000000e+00  -3.3589102917717810e+01 2.5199169545744539e-03 0.0000000000000000e+00  -3.3589102799522749e+01 2.5199169289530795e-03 0.0000000000000000e+00  -3.3589102681317286e+01 2.5199169064827327e-03 0.0000000000000000e+00  -3.3589102563102237e+01 2.5199168880758872e-03 0.0000000000000000e+00  -3.3589102444885562e+01 2.5199168704661589e-03 0.0000000000000000e+00  -3.3589102326669632e+01 2.5199168565838035e-03 0.0000000000000000e+00  -3.3589102208453056e+01 2.5199168448554240e-03 0.0000000000000000e+00  -3.3589102090255892e+01 2.5199168349233137e-03 0.0000000000000000e+00  -3.3589101972046485e+01 2.5199168334575149e-03 0.0000000000000000e+00  -3.3589101853911004e+01 2.5199168277920559e-03 0.0000000000000000e+00  -3.3589101735689873e+01 2.5199168495999053e-03 0.0000000000000000e+00  -3.3589101617752348e+01 2.5199168404088758e-03 0.0000000000000000e+00  -3.3589101499376511e+01 2.5199169359565641e-03 0.0000000000000000e+00  -3.3589101382123182e+01 2.5199168726986378e-03 0.0000000000000000e+00  -3.3589101262885791e+01 2.5199172063756969e-03 0.0000000000000000e+00  -3.3589101148132777e+01 2.5199168524455209e-03 0.0000000000000000e+00  -3.3589101024974354e+01 2.5199179884939516e-03 0.0000000000000000e+00  -3.3589100919462595e+01 2.5199163909673454e-03 0.0000000000000000e+00  -3.3589100780250789e+01 2.5199202204603376e-03 0.0000000000000000e+00  -3.3589100708313438e+01 2.5199139164956258e-03 0.0000000000000000e+00  -3.3589100508452788e+01 2.5199264033136373e-03 0.0000000000000000e+00  -3.3589100553206258e+01 2.5199039677179253e-03 0.0000000000000000e+00  -3.3589100141577660e+01 2.5199421224662176e-03 0.0000000000000000e+00  -3.3589100564830893e+01 2.5198695048248738e-03 0.0000000000000000e+00  -3.3589099477458490e+01 2.5199751559539445e-03 0.0000000000000000e+00  -3.3589101015389787e+01 2.5197606641251722e-03 0.0000000000000000e+00  -3.3589097995267117e+01 2.5200173434711342e-03 0.0000000000000000e+00  -3.3589102413568412e+01 2.5194278771760994e-03 0.0000000000000000e+00  -3.3589094549662619e+01 2.5199742129598905e-03 0.0000000000000000e+00  -3.3589105229973555e+01 2.5183612420146785e-03 0.0000000000000000e+00  -3.3589086783357125e+01 2.5195560263113533e-03 0.0000000000000000e+00  -3.3589108434169063e+01 2.5145903351566552e-03 0.0000000000000000e+00  -3.3589067811425515e+01 2.5181024853603408e-03 0.0000000000000000e+00  -3.3589103680079418e+01 2.4984488139787242e-03 0.0000000000000000e+00  -3.3589002672909757e+01 2.5024413596399990e-03 0.0000000000000000e+00  -3.3589034863056114e+01 2.3891588850494198e-03 0.0000000000000000e+00  -3.3588719281764000e+01 2.2785372359246979e-03 0.0000000000000000e+00  -3.3588660600012041e+01 1.6492151132637520e-03 0.0000000000000000e+00  -3.3587796016368507e+01 1.1383089337433320e-03 0.0000000000000000e+00  -3.3586967924575696e+01 1.2898684792456960e-04 0.0000000000000000e+00  -3.3580878577036934e+01 -3.2117040445473594e-04 0.0000000000000000e+00  -3.3569776043603497e+01 -2.9211913356045243e-03 0.0000000000000000e+00  -3.3553408924975621e+01 -2.9116286992854211e-03 0.0000000000000000e+00  -3.3546911257494962e+01 9.4298243523714415e-05 0.0000000000000000e+00  -3.3539759800753671e+01 -3.5368174202581038e-03 0.0000000000000000e+00  -3.3563993153533346e+01 0.0000000000000000e+00 0.0000000000000000e+00  -3.2099322061364013e+01 0.0000000000000000e+00 0.0000000000000000e+00  -3.2092687515577971e+01 1.0441553146233785e-03 0.0000000000000000e+00  -3.2089609640883779e+01 4.0250583632187058e-04 0.0000000000000000e+00  -3.2088462249367069e+01 -2.9939104196350009e-04 0.0000000000000000e+00  -3.2088357778070694e+01 -7.7707473992685470e-04 0.0000000000000000e+00  -3.2088796544330052e+01 -1.0522651937577125e-03 0.0000000000000000e+00  -3.2089525745575031e+01 -1.2062249322305335e-03 0.0000000000000000e+00  -3.2090345530072774e+01 -1.1731470113002203e-03 0.0000000000000000e+00  -3.2091063027432810e+01 -9.5132699287075366e-04 0.0000000000000000e+00  -3.2091581391354303e+01 -7.0170686889198816e-04 0.0000000000000000e+00  -3.2091906310575844e+01 -5.2595677028830130e-04 0.0000000000000000e+00  -3.2092090504785524e+01 -4.2468330315673742e-04 0.0000000000000000e+00  -3.2092187982670815e+01 -3.7181133631551363e-04 0.0000000000000000e+00  -3.2092237214971725e+01 -3.4542923547685716e-04 0.0000000000000000e+00  -3.2092261304412844e+01 -3.3261707126111366e-04 0.0000000000000000e+00  -3.2092272862171434e+01 -3.2637140857951386e-04 0.0000000000000000e+00  -3.2092278330792418e+01 -3.2335387238218588e-04 0.0000000000000000e+00  -3.2092280890657072e+01 -3.2188091153599222e-04 0.0000000000000000e+00  -3.2092282062412778e+01 -3.2118147062205644e-04 0.0000000000000000e+00  -3.2092282575272684e+01 -3.2084375718090415e-04 0.0000000000000000e+00  -3.2092282770269755e+01 -3.2068793072651219e-04 0.0000000000000000e+00  -3.2092282812800185e+01 -3.2061274194431785e-04 0.0000000000000000e+00  -3.2092282779620149e+01 -3.2057920248311972e-04 0.0000000000000000e+00  -3.2092282709633253e+01 -3.2056289895235996e-04 0.0000000000000000e+00  -3.2092282620565989e+01 -3.2055616853088478e-04 0.0000000000000000e+00  -3.2092282522169789e+01 -3.2055291024456011e-04 0.0000000000000000e+00  -3.2092282418643919e+01 -3.2055185714206476e-04 0.0000000000000000e+00  -3.2092282312624526e+01 -3.2055137922221524e-04 0.0000000000000000e+00  -3.2092282205116696e+01 -3.2055138790707774e-04 0.0000000000000000e+00  -3.2092282096897463e+01 -3.2055142512335723e-04 0.0000000000000000e+00  -3.2092281988207596e+01 -3.2055154357240933e-04 0.0000000000000000e+00  -3.2092281879297424e+01 -3.2055162695513486e-04 0.0000000000000000e+00  -3.2092281770224730e+01 -3.2055171087883082e-04 0.0000000000000000e+00  -3.2092281661073393e+01 -3.2055176545503597e-04 0.0000000000000000e+00  -3.2092281551863323e+01 -3.2055180915675492e-04 0.0000000000000000e+00  -3.2092281442620880e+01 -3.2055183656066690e-04 0.0000000000000000e+00  -3.2092281333358102e+01 -3.2055185700579649e-04 0.0000000000000000e+00  -3.2092281224081965e+01 -3.2055187033271180e-04 0.000