<?xml version="1.0"?>
<VTKFile type="UnstructuredGrid"  version="0.1"  >
<UnstructuredGrid>
<Piece  NumberOfPoints="1369" NumberOfCells="2560">
<Points>
<DataArray  type="Float64"  NumberOfComponents="3"  format="ascii">0 0 0  0.75 0 0  1.5 0 0  2.25 0 0  3 0 0  3.75 0 0  4.5 0 0  5.25 0 0  6 0 0  6.75 0 0  7.5 0 0  8.25 0 0  9 0 0  9.75 0 0  10.5 0 0  11.25 0 0  12 0 0  12.75 0 0  13.5 0 0  14.25 0 0  15 0 0  15.75 0 0  16.5 0 0  17.25 0 0  18 0 0  18.75 0 0  19.5 0 0  20.25 0 0  21 0 0  21.75 0 0  22.5 0 0  23.25 0 0  24 0 0  24.75 0 0  25.5 0 0  26.25 0 0  27 0 0  27.75 0 0  28.5 0 0  29.25 0 0  30 0 0  30.75 0 0  31.5 0 0  32.25 0 0  33 0 0  33.75 0 0  34.5 0 0  35.25 0 0  36 0 0  36.75 0 0  37.5 0 0  38.25 0 0  39 0 0  39.75 0 0  40.5 0 0  41.25 0 0  42 0 0  42.75 0 0  43.5 0 0  44.25 0 0  45 0 0  45.75 0 0  46.5 0 0  47.25 0 0  48 0 0  48.75 0 0  49.5 0 0  50.25 0 0  51 0 0  51.75 0 0  52.5 0 0  53.25 0 0  54 0 0  54.75 0 0  55.5 0 0  56.25 0 0  57 0 0  57.75 0 0  58.5 0 0  59.25 0 0  60 0 0  0 0.5 0  0.75 0.5 0  1.5 0.5 0  2.25 0.5 0  3 0.5 0  3.75 0.5 0  4.5 0.5 0  5.25 0.5 0  6 0.5 0  6.75 0.5 0  7.5 0.5 0  8.25 0.5 0  9 0.5 0  9.75 0.5 0  10.5 0.5 0  11.25 0.5 0  12 0.5 0  12.75 0.5 0  13.5 0.5 0  14.25 0.5 0  15 0.5 0  15.75 0.5 0  16.5 0.5 0  17.25 0.5 0  18 0.5 0  18.75 0.5 0  19.5 0.5 0  20.25 0.5 0  21 0.5 0  21.75 0.5 0  22.5 0.5 0  23.25 0.5 0  24 0.5 0  24.75 0.5 0  25.5 0.5 0  26.25 0.5 0  27 0.5 0  27.75 0.5 0  28.5 0.5 0  29.25 0.5 0  30 0.5 0  30.75 0.5 0  31.5 0.5 0  32.25 0.5 0  33 0.5 0  33.75 0.5 0  34.5 0.5 0  35.25 0.5 0  36 0.5 0  36.75 0.5 0  37.5 0.5 0  38.25 0.5 0  39 0.5 0  39.75 0.5 0  40.5 0.5 0  41.25 0.5 0  42 0.5 0  42.75 0.5 0  43.5 0.5 0  44.25 0.5 0  45 0.5 0  45.75 0.5 0  46.5 0.5 0  47.25 0.5 0  48 0.5 0  48.75 0.5 0  49.5 0.5 0  50.25 0.5 0  51 0.5 0  51.75 0.5 0  52.5 0.5 0  53.25 0.5 0  54 0.5 0  54.75 0.5 0  55.5 0.5 0  56.25 0.5 0  57 0.5 0  57.75 0.5 0  58.5 0.5 0  59.25 0.5 0  60 0.5 0  0 1 0  0.75 1 0  1.5 1 0  2.25 1 0  3 1 0  3.75 1 0  4.5 1 0  5.25 1 0  6 1 0  6.75 1 0  7.5 1 0  8.25 1 0  9 1 0  9.75 1 0  10.5 1 0  11.25 1 0  12 1 0  12.75 1 0  13.5 1 0  14.25 1 0  15 1 0  15.75 1 0  16.5 1 0  17.25 1 0  18 1 0  18.75 1 0  19.5 1 0  20.25 1 0  21 1 0  21.75 1 0  22.5 1 0  23.25 1 0  24 1 0  24.75 1 0  25.5 1 0  26.25 1 0  27 1 0  27.75 1 0  28.5 1 0  29.25 1 0  30 1 0  30.75 1 0  31.5 1 0  32.25 1 0  33 1 0  33.75 1 0  34.5 1 0  35.25 1 0  36 1 0  36.75 1 0  37.5 1 0  38.25 1 0  39 1 0  39.75 1 0  40.5 1 0  41.25 1 0  42 1 0  42.75 1 0  43.5 1 0  44.25 1 0  45 1 0  45.75 1 0  46.5 1 0  47.25 1 0  48 1 0  48.75 1 0  49.5 1 0  50.25 1 0  51 1 0  51.75 1 0  52.5 1 0  53.25 1 0  54 1 0  54.75 1 0  55.5 1 0  56.25 1 0  57 1 0  57.75 1 0  58.5 1 0  59.25 1 0  60 1 0  0 1.5 0  0.75 1.5 0  1.5 1.5 0  2.25 1.5 0  3 1.5 0  3.75 1.5 0  4.5 1.5 0  5.25 1.5 0  6 1.5 0  6.75 1.5 0  7.5 1.5 0  8.25 1.5 0  9 1.5 0  9.75 1.5 0  10.5 1.5 0  11.25 1.5 0  12 1.5 0  12.75 1.5 0  13.5 1.5 0  14.25 1.5 0  15 1.5 0  15.75 1.5 0  16.5 1.5 0  17.25 1.5 0  18 1.5 0  18.75 1.5 0  19.5 1.5 0  20.25 1.5 0  21 1.5 0  21.75 1.5 0  22.5 1.5 0  23.25 1.5 0  24 1.5 0  24.75 1.5 0  25.5 1.5 0  26.25 1.5 0  27 1.5 0  27.75 1.5 0  28.5 1.5 0  29.25 1.5 0  30 1.5 0  30.75 1.5 0  31.5 1.5 0  32.25 1.5 0  33 1.5 0  33.75 1.5 0  34.5 1.5 0  35.25 1.5 0  36 1.5 0  36.75 1.5 0  37.5 1.5 0  38.25 1.5 0  39 1.5 0  39.75 1.5 0  40.5 1.5 0  41.25 1.5 0  42 1.5 0  42.75 1.5 0  43.5 1.5 0  44.25 1.5 0  45 1.5 0  45.75 1.5 0  46.5 1.5 0  47.25 1.5 0  48 1.5 0  48.75 1.5 0  49.5 1.5 0  50.25 1.5 0  51 1.5 0  51.75 1.5 0  52.5 1.5 0  53.25 1.5 0  54 1.5 0  54.75 1.5 0  55.5 1.5 0  56.25 1.5 0  57 1.5 0  57.75 1.5 0  58.5 1.5 0  59.25 1.5 0  60 1.5 0  0 2 0  0.75 2 0  1.5 2 0  2.25 2 0  3 2 0  3.75 2 0  4.5 2 0  5.25 2 0  6 2 0  6.75 2 0  7.5 2 0  8.25 2 0  9 2 0  9.75 2 0  10.5 2 0  11.25 2 0  12 2 0  12.75 2 0  13.5 2 0  14.25 2 0  15 2 0  15.75 2 0  16.5 2 0  17.25 2 0  18 2 0  18.75 2 0  19.5 2 0  20.25 2 0  21 2 0  21.75 2 0  22.5 2 0  23.25 2 0  24 2 0  24.75 2 0  25.5 2 0  26.25 2 0  27 2 0  27.75 2 0  28.5 2 0  29.25 2 0  30 2 0  30.75 2 0  31.5 2 0  32.25 2 0  33 2 0  33.75 2 0  34.5 2 0  35.25 2 0  36 2 0  36.75 2 0  37.5 2 0  38.25 2 0  39 2 0  39.75 2 0  40.5 2 0  41.25 2 0  42 2 0  42.75 2 0  43.5 2 0  44.25 2 0  45 2 0  45.75 2 0  46.5 2 0  47.25 2 0  48 2 0  48.75 2 0  49.5 2 0  50.25 2 0  51 2 0  51.75 2 0  52.5 2 0  53.25 2 0  54 2 0  54.75 2 0  55.5 2 0  56.25 2 0  57 2 0  57.75 2 0  58.5 2 0  59.25 2 0  60 2 0  0 2.5 0  0.75 2.5 0  1.5 2.5 0  2.25 2.5 0  3 2.5 0  3.75 2.5 0  4.5 2.5 0  5.25 2.5 0  6 2.5 0  6.75 2.5 0  7.5 2.5 0  8.25 2.5 0  9 2.5 0  9.75 2.5 0  10.5 2.5 0  11.25 2.5 0  12 2.5 0  12.75 2.5 0  13.5 2.5 0  14.25 2.5 0  15 2.5 0  15.75 2.5 0  16.5 2.5 0  17.25 2.5 0  18 2.5 0  18.75 2.5 0  19.5 2.5 0  20.25 2.5 0  21 2.5 0  21.75 2.5 0  22.5 2.5 0  23.25 2.5 0  24 2.5 0  24.75 2.5 0  25.5 2.5 0  26.25 2.5 0  27 2.5 0  27.75 2.5 0  28.5 2.5 0  29.25 2.5 0  30 2.5 0  30.75 2.5 0  31.5 2.5 0  32.25 2.5 0  33 2.5 0  33.75 2.5 0  34.5 2.5 0  35.25 2.5 0  36 2.5 0  36.75 2.5 0  37.5 2.5 0  38.25 2.5 0  39 2.5 0  39.75 2.5 0  40.5 2.5 0  41.25 2.5 0  42 2.5 0  42.75 2.5 0  43.5 2.5 0  44.25 2.5 0  45 2.5 0  45.75 2.5 0  46.5 2.5 0  47.25 2.5 0  48 2.5 0  48.75 2.5 0  49.5 2.5 0  50.25 2.5 0  51 2.5 0  51.75 2.5 0  52.5 2.5 0  53.25 2.5 0  54 2.5 0  54.75 2.5 0  55.5 2.5 0  56.25 2.5 0  57 2.5 0  57.75 2.5 0  58.5 2.5 0  59.25 2.5 0  60 2.5 0  0 3 0  0.75 3 0  1.5 3 0  2.25 3 0  3 3 0  3.75 3 0  4.5 3 0  5.25 3 0  6 3 0  6.75 3 0  7.5 3 0  8.25 3 0  9 3 0  9.75 3 0  10.5 3 0  11.25 3 0  12 3 0  12.75 3 0  13.5 3 0  14.25 3 0  15 3 0  15.75 3 0  16.5 3 0  17.25 3 0  18 3 0  18.75 3 0  19.5 3 0  20.25 3 0  21 3 0  21.75 3 0  22.5 3 0  23.25 3 0  24 3 0  24.75 3 0  25.5 3 0  26.25 3 0  27 3 0  27.75 3 0  28.5 3 0  29.25 3 0  30 3 0  30.75 3 0  31.5 3 0  32.25 3 0  33 3 0  33.75 3 0  34.5 3 0  35.25 3 0  36 3 0  36.75 3 0  37.5 3 0  38.25 3 0  39 3 0  39.75 3 0  40.5 3 0  41.25 3 0  42 3 0  42.75 3 0  43.5 3 0  44.25 3 0  45 3 0  45.75 3 0  46.5 3 0  47.25 3 0  48 3 0  48.75 3 0  49.5 3 0  50.25 3 0  51 3 0  51.75 3 0  52.5 3 0  53.25 3 0  54 3 0  54.75 3 0  55.5 3 0  56.25 3 0  57 3 0  57.75 3 0  58.5 3 0  59.25 3 0  60 3 0  0 3.5 0  0.75 3.5 0  1.5 3.5 0  2.25 3.5 0  3 3.5 0  3.75 3.5 0  4.5 3.5 0  5.25 3.5 0  6 3.5 0  6.75 3.5 0  7.5 3.5 0  8.25 3.5 0  9 3.5 0  9.75 3.5 0  10.5 3.5 0  11.25 3.5 0  12 3.5 0  12.75 3.5 0  13.5 3.5 0  14.25 3.5 0  15 3.5 0  15.75 3.5 0  16.5 3.5 0  17.25 3.5 0  18 3.5 0  18.75 3.5 0  19.5 3.5 0  20.25 3.5 0  21 3.5 0  21.75 3.5 0  22.5 3.5 0  23.25 3.5 0  24 3.5 0  24.75 3.5 0  25.5 3.5 0  26.25 3.5 0  27 3.5 0  27.75 3.5 0  28.5 3.5 0  29.25 3.5 0  30 3.5 0  30.75 3.5 0  31.5 3.5 0  32.25 3.5 0  33 3.5 0  33.75 3.5 0  34.5 3.5 0  35.25 3.5 0  36 3.5 0  36.75 3.5 0  37.5 3.5 0  38.25 3.5 0  39 3.5 0  39.75 3.5 0  40.5 3.5 0  41.25 3.5 0  42 3.5 0  42.75 3.5 0  43.5 3.5 0  44.25 3.5 0  45 3.5 0  45.75 3.5 0  46.5 3.5 0  47.25 3.5 0  48 3.5 0  48.75 3.5 0  49.5 3.5 0  50.25 3.5 0  51 3.5 0  51.75 3.5 0  52.5 3.5 0  53.25 3.5 0  54 3.5 0  54.75 3.5 0  55.5 3.5 0  56.25 3.5 0  57 3.5 0  57.75 3.5 0  58.5 3.5 0  59.25 3.5 0  60 3.5 0  0 4 0  0.75 4 0  1.5 4 0  2.25 4 0  3 4 0  3.75 4 0  4.5 4 0  5.25 4 0  6 4 0  6.75 4 0  7.5 4 0  8.25 4 0  9 4 0  9.75 4 0  10.5 4 0  11.25 4 0  12 4 0  12.75 4 0  13.5 4 0  14.25 4 0  15 4 0  15.75 4 0  16.5 4 0  17.25 4 0  18 4 0  18.75 4 0  19.5 4 0  20.25 4 0  21 4 0  21.75 4 0  22.5 4 0  23.25 4 0  24 4 0  24.75 4 0  25.5 4 0  26.25 4 0  27 4 0  27.75 4 0  28.5 4 0  29.25 4 0  30 4 0  30.75 4 0  31.5 4 0  32.25 4 0  33 4 0  33.75 4 0  34.5 4 0  35.25 4 0  36 4 0  36.75 4 0  37.5 4 0  38.25 4 0  39 4 0  39.75 4 0  40.5 4 0  41.25 4 0  42 4 0  42.75 4 0  43.5 4 0  44.25 4 0  45 4 0  45.75 4 0  46.5 4 0  47.25 4 0  48 4 0  48.75 4 0  49.5 4 0  50.25 4 0  51 4 0  51.75 4 0  52.5 4 0  53.25 4 0  54 4 0  54.75 4 0  55.5 4 0  56.25 4 0  57 4 0  57.75 4 0  58.5 4 0  59.25 4 0  60 4 0  0.375 0.25 0  1.125 0.25 0  1.875 0.25 0  2.625 0.25 0  3.375 0.25 0  4.125 0.25 0  4.875 0.25 0  5.625 0.25 0  6.375 0.25 0  7.125 0.25 0  7.875 0.25 0  8.625 0.25 0  9.375 0.25 0  10.125 0.25 0  10.875 0.25 0  11.625 0.25 0  12.375 0.25 0  13.125 0.25 0  13.875 0.25 0  14.625 0.25 0  15.375 0.25 0  16.125 0.25 0  16.875 0.25 0  17.625 0.25 0  18.375 0.25 0  19.125 0.25 0  19.875 0.25 0  20.625 0.25 0  21.375 0.25 0  22.125 0.25 0  22.875 0.25 0  23.625 0.25 0  24.375 0.25 0  25.125 0.25 0  25.875 0.25 0  26.625 0.25 0  27.375 0.25 0  28.125 0.25 0  28.875 0.25 0  29.625 0.25 0  30.375 0.25 0  31.125 0.25 0  31.875 0.25 0  32.625 0.25 0  33.375 0.25 0  34.125 0.25 0  34.875 0.25 0  35.625 0.25 0  36.375 0.25 0  37.125 0.25 0  37.875 0.25 0  38.625 0.25 0  39.375 0.25 0  40.125 0.25 0  40.875 0.25 0  41.625 0.25 0  42.375 0.25 0  43.125 0.25 0  43.875 0.25 0  44.625 0.25 0  45.375 0.25 0  46.125 0.25 0  46.875 0.25 0  47.625 0.25 0  48.375 0.25 0  49.125 0.25 0  49.875 0.25 0  50.625 0.25 0  51.375 0.25 0  52.125 0.25 0  52.875 0.25 0  53.625 0.25 0  54.375 0.25 0  55.125 0.25 0  55.875 0.25 0  56.625 0.25 0  57.375 0.25 0  58.125 0.25 0  58.875 0.25 0  59.625 0.25 0  0.375 0.75 0  1.125 0.75 0  1.875 0.75 0  2.625 0.75 0  3.375 0.75 0  4.125 0.75 0  4.875 0.75 0  5.625 0.75 0  6.375 0.75 0  7.125 0.75 0  7.875 0.75 0  8.625 0.75 0  9.375 0.75 0  10.125 0.75 0  10.875 0.75 0  11.625 0.75 0  12.375 0.75 0  13.125 0.75 0  13.875 0.75 0  14.625 0.75 0  15.375 0.75 0  16.125 0.75 0  16.875 0.75 0  17.625 0.75 0  18.375 0.75 0  19.125 0.75 0  19.875 0.75 0  20.625 0.75 0  21.375 0.75 0  22.125 0.75 0  22.875 0.75 0  23.625 0.75 0  24.375 0.75 0  25.125 0.75 0  25.875 0.75 0  26.625 0.75 0  27.375 0.75 0  28.125 0.75 0  28.875 0.75 0  29.625 0.75 0  30.375 0.75 0  31.125 0.75 0  31.875 0.75 0  32.625 0.75 0  33.375 0.75 0  34.125 0.75 0  34.875 0.75 0  35.625 0.75 0  36.375 0.75 0  37.125 0.75 0  37.875 0.75 0  38.625 0.75 0  39.375 0.75 0  40.125 0.75 0  40
[...]
<PointData  Vectors="f_8-0"> 
<DataArray  type="Float64"  Name="f_8-0"  NumberOfComponents="3" format="ascii">0.0000000000000000e+00 0.0000000000000000e+00 0.0000000000000000e+00  0.0000000000000000e+00 0.0000000000000000e+00 0.0000000000000000e+00  0.0000000000000000e+00 0.0000000000000000e+00 0.0000000000000000e+00  0.0000000000000000e+00 0.0000000000000000e+00 0.0000000000000000e+00  0.0000000000000000e+00 0.0000000000000000e+00 0.0000000000000000e+00  0.0000000000000000e+00 0.0000000000000000e+00 0.0000000000000000e+00  0.0000000000000000e+00 0.0000000000000000e+00 0.0000000000000000e+00  0.0000000000000000e+00 0.0000000000000000e+00 0.0000000000000000e+00  0.0000000000000000e+00 0.0000000000000000e+00 0.0000000000000000e+00  0.0000000000000000e+00 0.0000000000000000e+00 0.0000000000000000e+00  0.0000000000000000e+00 0.0000000000000000e+00 0.0000000000000000e+00  0.0000000000000000e+00 0.0000000000000000e+00 0.0000000000000000e+00  0.0000000000000000e+00 0.0000000000000000e+00 0.0000000000000000e+00  0.0000000000000000e+00 0.0000000000000000e+00 0.0000000000000000e+00  0.0000000000000000e+00 0.0000000000000000e+00 0.0000000000000000e+00  0.0000000000000000e+00 0.0000000000000000e+00 0.0000000000000000e+00  0.0000000000000000e+00 0.0000000000000000e+00 0.0000000000000000e+00  0.0000000000000000e+00 0.0000000000000000e+00 0.0000000000000000e+00  0.0000000000000000e+00 0.0000000000000000e+00 0.0000000000000000e+00  0.0000000000000000e+00 0.0000000000000000e+00 0.0000000000000000e+00  0.0000000000000000e+00 0.0000000000000000e+00 0.0000000000000000e+00  0.0000000000000000e+00 0.0000000000000000e+00 0.0000000000000000e+00  0.0000000000000000e+00 0.0000000000000000e+00 0.0000000000000000e+00  0.0000000000000000e+00 0.0000000000000000e+00 0.0000000000000000e+00  0.0000000000000000e+00 0.0000000000000000e+00 0.0000000000000000e+00  0.0000000000000000e+00 0.0000000000000000e+00 0.0000000000000000e+00  0.0000000000000000e+00 0.0000000000000000e+00 0.0000000000000000e+00  0.0000000000000000e+00 0.0000000000000000e+00 0.0000000000000000e+00  0.0000000000000000e+00 0.0000000000000000e+00 0.0000000000000000e+00  0.0000000000000000e+00 0.0000000000000000e+00 0.0000000000000000e+00  0.0000000000000000e+00 0.0000000000000000e+00 0.0000000000000000e+00  0.0000000000000000e+00 0.0000000000000000e+00 0.0000000000000000e+00  0.0000000000000000e+00 0.0000000000000000e+00 0.0000000000000000e+00  0.0000000000000000e+00 0.0000000000000000e+00 0.0000000000000000e+00  0.0000000000000000e+00 0.0000000000000000e+00 0.0000000000000000e+00  0.0000000000000000e+00 0.0000000000000000e+00 0.0000000000000000e+00  0.0000000000000000e+00 0.0000000000000000e+00 0.0000000000000000e+00  0.0000000000000000e+00 0.0000000000000000e+00 0.0000000000000000e+00  0.0000000000000000e+00 0.0000000000000000e+00 0.0000000000000000e+00  0.0000000000000000e+00 0.0000000000000000e+00 0.0000000000000000e+00  0.0000000000000000e+00 0.0000000000000000e+00 0.0000000000000000e+00  0.0000000000000000e+00 0.0000000000000000e+00 0.0000000000000000e+00  0.0000000000000000e+00 0.0000000000000000e+00 0.0000000000000000e+00  0.0000000000000000e+00 0.0000000000000000e+00 0.0000000000000000e+00  0.0000000000000000e+00 0.0000000000000000e+00 0.0000000000000000e+00  0.0000000000000000e+00 0.0000000000000000e+00 0.0000000000000000e+00  0.0000000000000000e+00 0.0000000000000000e+00 0.0000000000000000e+00  0.0000000000000000e+00 0.0000000000000000e+00 0.0000000000000000e+00  0.0000000000000000e+00 0.0000000000000000e+00 0.0000000000000000e+00  0.0000000000000000e+00 0.0000000000000000e+00 0.0000000000000000e+00  0.0000000000000000e+00 0.0000000000000000e+00 0.0000000000000000e+00  0.0000000000000000e+00 0.0000000000000000e+00 0.0000000000000000e+00  0.0000000000000000e+00 0.0000000000000000e+00 0.0000000000000000e+00  0.0000000000000000e+00 0.0000000000000000e+00 0.0000000000000000e+00  0.0000000000000000e+00 0.0000000000000000e+00 0.0000000000000000e+00  0.0000000000000000e+00 0.0000000000000000e+00 0.0000000000000000e+00  0.0000000000000000e+00 0.0000000000000000e+00 0.0000000000000000e+00  0.0000000000000000e+00 0.0000000000000000e+00 0.0000000000000000e+00  0.0000000000000000e+00 0.0000000000000000e+00 0.0000000000000000e+00  0.0000000000000000e+00 0.0000000000000000e+00 0.0000000000000000e+00  0.0000000000000000e+00 0.0000000000000000e+00 0.0000000000000000e+00  0.0000000000000000e+00 0.0000000000000000e+00 0.0000000000000000e+00  0.0000000000000000e+00 0.0000000000000000e+00 0.0000000000000000e+00  0.0000000000000000e+00 0.0000000000000000e+00 0.0000000000000000e+00  0.0000000000000000e+00 0.0000000000000000e+00 0.0000000000000000e+00  0.0000000000000000e+00 0.0000000000000000e+00 0.0000000000000000e+00  0.0000000000000000e+00 0.0000000000000000e+00 0.0000000000000000e+00  0.0000000000000000e+00 0.0000000000000000e+00 0.0000000000000000e+00  0.0000000000000000e+00 0.0000000000000000e+00 0.0000000000000000e+00  0.0000000000000000e+00 0.0000000000000000e+00 0.0000000000000000e+00  0.0000000000000000e+00 0.0000000000000000e+00 0.0000000000000000e+00  0.0000000000000000e+00 0.0000000000000000e+00 0.0000000000000000e+00  0.0000000000000000e+00 0.0000000000000000e+00 0.0000000000000000e+00  0.0000000000000000e+00 0.0000000000000000e+00 0.0000000000000000e+00  0.0000000000000000e+00 0.0000000000000000e+00 0.0000000000000000e+00  0.0000000000000000e+00 0.0000000000000000e+00 0.0000000000000000e+00  0.0000000000000000e+00 0.0000000000000000e+00 0.0000000000000000e+00  0.0000000000000000e+00 0.0000000000000000e+00 0.0000000000000000e+00  0.0000000000000000e+00 0.0000000000000000e+00 0.0000000000000000e+00  0.0000000000000000e+00 0.0000000000000000e+00 0.0000000000000000e+00  0.0000000000000000e+00 0.0000000000000000e+00 0.0000000000000000e+00  2.3608852935351472e+01 0.0000000000000000e+00 0.0000000000000000e+00  2.3589124258515820e+01 8.0352217225533748e-02 0.0000000000000000e+00  2.3591178176974068e+01 2.9176395599637743e-02 0.0000000000000000e+00  2.3570194696757767e+01 5.3555473386018206e-03 0.0000000000000000e+00  2.3567399161094603e+01 4.9379146486910703e-03 0.0000000000000000e+00  2.3569763859443682e+01 4.5509176908007827e-03 0.0000000000000000e+00  2.3568841508553195e+01 4.8334897727060101e-03 0.0000000000000000e+00  2.3570034786791464e+01 4.8912545153753217e-03 0.0000000000000000e+00  2.3569773434073625e+01 4.9075820028564084e-03 0.0000000000000000e+00  2.3570159499190776e+01 4.9376711850367839e-03 0.0000000000000000e+00  2.3570162016466867e+01 4.9481191690363222e-03 0.0000000000000000e+00  2.3570278939574923e+01 4.9600369211000566e-03 0.0000000000000000e+00  2.3570310561848817e+01 4.9667239681078709e-03 0.0000000000000000e+00  2.3570349630048497e+01 4.9716089692017290e-03 0.0000000000000000e+00  2.3570368560950676e+01 4.9746478134708840e-03 0.0000000000000000e+00  2.3570383670252898e+01 4.9766054798759587e-03 0.0000000000000000e+00  2.3570393002612008e+01 4.9778553168070795e-03 0.0000000000000000e+00  2.3570399796037119e+01 4.9786684286525634e-03 0.0000000000000000e+00  2.3570404507882103e+01 4.9792142758290281e-03 0.0000000000000000e+00  2.3570407964863012e+01 4.9795889213974940e-03 0.0000000000000000e+00  2.3570410509225923e+01 4.9798514114507419e-03 0.0000000000000000e+00  2.3570412433134152e+01 4.9800362523502980e-03 0.0000000000000000e+00  2.3570413915866801e+01 4.9801663002660363e-03 0.0000000000000000e+00  2.3570415091345495e+01 4.9802570733624351e-03 0.0000000000000000e+00  2.3570416052313504e+01 4.9803199752942104e-03 0.0000000000000000e+00  2.3570416864939169e+01 4.9803634910749973e-03 0.0000000000000000e+00  2.3570417574466912e+01 4.9803939830641488e-03 0.0000000000000000e+00  2.3570418211060517e+01 4.9804160272490317e-03 0.0000000000000000e+00  2.3570418794015971e+01 4.9804327547225032e-03 0.0000000000000000e+00  2.3570419335390167e+01 4.9804462035158911e-03 0.0000000000000000e+00  2.3570419842535241e+01 4.9804576423876385e-03 0.0000000000000000e+00  2.3570420319881606e+01 4.9804678726198693e-03 0.0000000000000000e+00  2.3570420770000414e+01 4.9804774019666766e-03 0.0000000000000000e+00  2.3570421194267649e+01 4.9804865629412233e-03 0.0000000000000000e+00  2.3570421593282212e+01 4.9804955722538560e-03 0.0000000000000000e+00  2.3570421967197884e+01 4.9805045116948846e-03 0.0000000000000000e+00  2.3570422316114836e+01 4.9805133288620476e-03 0.0000000000000000e+00  2.3570422640384049e+01 4.9805219151029196e-03 0.0000000000000000e+00  2.3570422940701945e+01 4.9805301931428693e-03 0.0000000000000000e+00  2.3570423217985084e+01 4.9805380979799276e-03 0.0000000000000000e+00  2.3570423473367775e+01 4.9805455267752903e-03 0.0000000000000000e+00  2.3570423708359780e+01 4.9805522868527777e-03 0.0000000000000000e+00  2.3570423925067857e+01 4.9805581795201162e-03 0.0000000000000000e+00  2.3570424126086145e+01 4.9805631168831892e-03 0.0000000000000000e+00  2.3570424314113946e+01 4.9805671591552107e-03 0.0000000000000000e+00  2.3570424491556185e+01 4.9805704517068283e-03 0.0000000000000000e+00  2.3570424660395485e+01 4.9805731058246384e-03 0.0000000000000000e+00  2.3570424822430645e+01 4.9805750904800376e-03 0.0000000000000000e+00  2.3570424979551348e+01 4.9805763736780083e-03 0.0000000000000000e+00  2.3570425133802633e+01 4.9805768931286444e-03 0.0000000000000000e+00  2.3570425287112315e+01 4.9805768675747694e-03 0.0000000000000000e+00  2.3570425440886748e+01 4.9805764526183634e-03 0.0000000000000000e+00  2.3570425595656182e+01 4.9805761286075157e-03 0.0000000000000000e+00  2.3570425751072161e+01 4.9805759139184046e-03 0.0000000000000000e+00  2.3570425906243933e+01 4.9805762424825883e-03 0.0000000000000000e+00  2.3570426059913252e+01 4.9805766517182623e-03 0.0000000000000000e+00  2.3570426211265975e+01 4.9805775350037305e-03 0.0000000000000000e+00  2.3570426359302907e+01 4.9805778484084389e-03 0.0000000000000000e+00  2.3570426505116068e+01 4.9805774595788064e-03 0.0000000000000000e+00  2.3570426650073376e+01 4.9805736296978454e-03 0.0000000000000000e+00  2.3570426804467971e+01 4.9805620171162338e-03 0.0000000000000000e+00  2.3570426982789527e+01 4.9805350840637060e-03 0.0000000000000000e+00  2.3570427226198859e+01 4.9804691015839083e-03 0.0000000000000000e+00  2.3570427602381812e+01 4.9803022973286190e-03 0.0000000000000000e+00  2.3570428414977304e+01 4.9797240060593080e-03 0.0000000000000000e+00  2.3570430918407023e+01 4.9776924242647524e-03 0.0000000000000000e+00  2.3570440095374753e+01 4.9709661819790311e-03 0.0000000000000000e+00  2.3570471272076954e+01 4.9520408516655189e-03 0.0000000000000000e+00  2.3570563631026353e+01 4.9062982939609276e-03 0.0000000000000000e+00  2.3570798935802745e+01 4.8137471347201762e-03 0.0000000000000000e+00  2.3571314985416528e+01 4.6622396712331180e-03 0.0000000000000000e+00  2.3572259375861289e+01 4.4909140938681827e-03 0.0000000000000000e+00  2.3573608763280937e+01 4.4225025527150786e-03 0.0000000000000000e+00  2.3574975376925281e+01 4.5809992346621062e-03 0.0000000000000000e+00  2.3575816597888686e+01 4.9418272358773812e-03 0.0000000000000000e+00  2.3575707971932069e+01 5.5009643898827777e-03 0.0000000000000000e+00  2.3574094419823769e+01 6.3452654093902805e-03 0.0000000000000000e+00  2.3570074345681693e+01 7.4356161393561299e-03 0.0000000000000000e+00  2.3561940312997976e+01 8.1152482700649464e-03 0.0000000000000000e+00  2.3542342183097908e+01 5.0892187088104890e-03 0.0000000000000000e+00  2.3518032901137868e+01 0.0000000000000000e+00 0.0000000000000000e+00  2.3262957852321449e+01 0.0000000000000000e+00 0.0000000000000000e+00  2.3190652848057521e+01 -1.4750409604810085e-02 0.0000000000000000e+00  2.3247668469176379e+01 1.3904606806338852e-02 0.0000000000000000e+00  2.3253030342073437e+01 1.6171509964276753e-03 0.0000000000000000e+00  2.3256106503065340e+01 -7.1032868087298850e-04 0.0000000000000000e+00  2.3254768600354250e+01 -1.8785493928142739e-03 0.0000000000000000e+00  2.3255628314342335e+01 -9.9101352624830601e-04 0.0000000000000000e+00  2.3255369029165987e+01 -1.2649539186901431e-03 0.0000000000000000e+00  2.3255698454796754e+01 -1.0062715554780180e-03 0.0000000000000000e+00  2.3255671171815422e+01 -1.0327212073838461e-03 0.0000000000000000e+00  2.3255777735925282e+01 -9.6227062247215313e-04 0.0000000000000000e+00  2.3255795197727089e+01 -9.4657245874031030e-04 0.0000000000000000e+00  2.3255831011997678e+01 -9.2259270402698815e-04 0.0000000000000000e+00  2.3255845460289933e+01 -9.1098076689798330e-04 0.0000000000000000e+00  2.3255858962441962e+01 -9.0178027098531820e-04 0.0000000000000000e+00  2.3255866625326195e+01 -8.9638216341132921e-04 0.0000000000000000e+00  2.3255872413811954e+01 -8.9273130373035533e-04 0.0000000000000000e+00  2.3255876267593354e+01 -8.9041545931396943e-04 0.0000000000000000e+00  2.3255879109228886e+01 -8.8885670432235254e-04 0.0000000000000000e+00  2.3255881186200195e+01 -8.8780292324734829e-04 0.0000000000000000e+00  2.3255882778756686e+01 -8.8707098463568191e-04 0.0000000000000000e+00  2.3255884029381107e+01 -8.8655991429839630e-04 0.0000000000000000e+00  2.3255885048719644e+01 -8.8620198326490557e-04 0.0000000000000000e+00  2.3255885907932150e+01 -8.8595274352343658e-04 0.0000000000000000e+00  2.3255886658027404e+01 -8.8578021434347100e-04 0.0000000000000000e+00  2.3255887333493430e+01 -8.8566094092043946e-04 0.0000000000000000e+00  2.3255887957212316e+01 -8.8557735591040458e-04 0.0000000000000000e+00  2.3255888543150782e+01 -8.8551670961548772e-04 0.0000000000000000e+00  2.3255889099229034e+01 -8.8547027515291918e-04 0.0000000000000000e+00  2.3255889629460551e+01 -8.8543241084404619e-04 0.0000000000000000e+00  2.3255890135587467e+01 -8.8539956497209465e-04 0.0000000000000000e+00  2.3255890617892341e+01 -8.8536952033985573e-04 0.0000000000000000e+00  2.3255891075784501e+01 -8.8534085080846196e-04 0.0000000000000000e+00  2.3255891508057456e+01 -8.8531263069869517e-04 0.0000000000000000e+00  2.3255891913115210e+01 -8.8528426143375590e-04 0.0000000000000000e+00  2.3255892289302260e+01 -8.8525558285669449e-04 0.0000000000000000e+00  2.3255892635433504e+01 -8.8522688057988182e-04 0.0000000000000000e+00  2.3255892951203851e+01 -8.8519867086364525e-04 0.0000000000000000e+00  2.3255893237075931e+01 -8.8517135778929984e-04 0.0000000000000000e+00  2.3255893493972650e+01 -8.8514518041519683e-04 0.0000000000000000e+00  2.3255893723214122e+01 -8.8512050241102520e-04 0.0000000000000000e+00  2.3255893926822033e+01 -8.8509797637532580e-04 0.0000000000000000e+00  2.3255894107825949e+01 -8.8507836365884064e-04 0.0000000000000000e+00  2.3255894269984122e+01 -8.8506203311587890e-04 0.0000000000000000e+00  2.3255894417041027e+01 -8.8504878808689071e-04 0.0000000000000000e+00  2.3255894552097701e+01 -8.8503806409010257e-04 0.0000000000000000e+00  2.3255894677541757e+01 -8.8502944687274938e-04 0.0000000000000000e+00  2.3255894795598245e+01 -8.8502294224776913e-04 0.0000000000000000e+00  2.3255894908722500e+01 -8.8501878806197039e-04 0.0000000000000000e+00  2.3255895019676807e+01 -8.8501706791204837e-04 0.0000000000000000e+00  2.3255895130907810e+01 -8.8501730966293254e-04 0.0000000000000000e+00  2.3255895243848595e+01 -8.8501862800966825e-04 0.0000000000000000e+00  2.3255895358459433e+01 -8.8501973786597114e-04 0.0000000000000000e+00  2.3255895473496530e+01 -8.8501997489122072e-04 0.0000000000000000e+00  2.3255895586823250e+01 -8.8501845881622731e-04 0.0000000000000000e+00  2.3255895696320859e+01 -8.8501591908063631e-04 0.0000000000000000e+00  2.3255895799649689e+01 -8.8501146809678356e-04 0.0000000000000000e+00  2.3255895895033316e+01 -8.8500762576923487e-04 0.0000000000000000e+00  2.3255895979507724e+01 -8.8500273407956132e-04 0.0000000000000000e+00  2.3255896051361841e+01 -8.8500507653794201e-04 0.0000000000000000e+00  2.3255896107814781e+01 -8.8501694495220912e-04 0.0000000000000000e+00  2.3255896154227685e+01 -8.8506684606418952e-04 0.0000000000000000e+00  2.3255896201855094e+01 -8.8518055581461195e-04 0.0000000000000000e+00  2.3255896285187511e+01 -8.8549832644529373e-04 0.0000000000000000e+00  2.3255896478512650e+01 -8.8649358489651991e-04 0.0000000000000000e+00  2.3255897147360059e+01 -8.9017308678142153e-04 0.0000000000000000e+00  2.3255899891992645e+01 -9.0270237503147237e-04 0.0000000000000000e+00  2.3255910397617306e+01 -9.3985626179953277e-04 0.0000000000000000e+00  2.3255944754659453e+01 -1.0336469706082559e-03 0.0000000000000000e+00  2.3256043985880574e+01 -1.2378670652252596e-03 0.0000000000000000e+00  2.3256300493924563e+01 -1.6077842794528475e-03 0.0000000000000000e+00  2.3256851121360949e+01 -2.0882581338116830e-03 0.0000000000000000e+00  2.3257702224034368e+01 -2.3499987544966490e-03 0.0000000000000000e+00  2.3258557334655521e+01 -2.0510238514606961e-03 0.0000000000000000e+00  2.3259186263470344e+01 -1.3180285650642785e-03 0.0000000000000000e+00  2.3259614087457550e+01 -2.0839338977816880e-04 0.0000000000000000e+00  2.3259699037596270e+01 1.5863165651214674e-03 0.0000000000000000e+00  2.3259209479720653e+01 4.2639826433201120e-03 0.0000000000000000e+00  2.3257607759683946e+01 8.1837830494076776e-03 0.0000000000000000e+00  2.3255144854851444e+01 1.3298283170114772e-02 0.0000000000000000e+00  2.3254112554791526e+01 0.0000000000000000e+00 0.0000000000000000e+00  2.0863818268431483e+01 0.0000000000000000e+00 0.0000000000000000e+00  2.0861022503156519e+01 1.6809689703837095e-03 0.0000000000000000e+00  2.0862873586521605e+01 -2.9108754924464138e-03 0.0000000000000000e+00  2.0868681595868281e+01 2.8681311457940127e-04 0.0000000000000000e+00  2.0867759987901042e+01 -1.9689123693735315e-03 0.0000000000000000e+00  2.0868008984972494e+01 -1.6891629048287776e-03 0.0000000000000000e+00  2.0867265824864877e+01 -1.8644041462384181e-03 0.0000000000000000e+00  2.0867158637876354e+01 -1.6330907809119530e-03 0.0000000000000000e+00  2.0866889837557604e+01 -1.6392945355218232e-03 0.0000000000000000e+00  2.0866791577234473e+01 -1.5613109837649319e-03 0.0000000000000000e+00  2.0866681592468904e+01 -1.5419695022083270e-03 0.0000000000000000e+00  2.0866624294260344e+01 -1.5123917745616814e-03 0.0000000000000000e+00  2.0866578332529144e+01 -1.4979248332694171e-03 0.0000000000000000e+00  2.0866551097551170e+01 -1.4857856333474419e-03 0.0000000000000000e+00  2.0866532003520049e+01 -1.4786473657607691e-03 0.0000000000000000e+00  2.0866519932458836e+01 -1.4737144789564790e-03 0.0000000000000000e+00  2.0866511735941678e+01 -1.4706387838552986e-03 0.0000000000000000e+00  2.0866506302316076e+01 -1.4685967743901850e-03 0.0000000000000000e+00  2.0866502598496353e+01 -1.4672551622349954e-03 0.0000000000000000e+00  2.0866500098840497e+01 -1.4663427851346548e-03 0.0000000000000000e+00  2.0866498420573954e+01 -1.4657175368196552e-03 0.0000000000000000e+00  2.0866497325342472e+01 -1.4652842276193403e-03 0.0000000000000000e+00  2.0866496642677092e+01 -1.4649845120439321e-03 0.0000000000000000e+00  2.0866496253832814e+01 -1.4647782219801956e-03 0.0000000000000000e+00  2.0866496073098645e+01 -1.4646372470250048e-03 0.0000000000000000e+00  2.0866496039117997e+01 -1.4645404836061255e-03 0.0000000000000000e+00  2.0866496107501341e+01 -1.4644720169031148e-03 0.0000000000000000e+00  2.0866496246296965e+01 -1.4644203151106625e-03 0.0000000000000000e+00  2.0866496432554175e+01 -1.4643778073377891e-03 0.0000000000000000e+00  2.0866496649974316e+01 -1.4643398658938055e-03 0.0000000000000000e+00  2.0866496886790589e+01 -1.4643036520099004e-03 0.0000000000000000e+00  2.0866497134182211e+01 -1.4642674294856888e-03 0.0000000000000000e+00  2.0866497385207605e+01 -1.4642300457107630e-03 0.0000000000000000e+00  2.0866497634095357e+01 -1.4641907440991926e-03 0.0000000000000000e+00  2.0866497875982091e+01 -1.4641491484183634e-03 0.0000000000000000e+00  2.0866498106941481e+01 -1.4641055812276386e-03 0.0000000000000000e+00  2.0866498324287445e+01 -1.4640610655789782e-03 0.0000000000000000e+00  2.0866498526565145e+01 -1.4640168091406807e-03 0.0000000000000000e+00  2.0866498713200841e+01 -1.4639736530057304e-03 0.0000000000000000e+00  2.0866498884138078e+01 -1.463932113411535