<?xml version="1.0"?>
<VTKFile type="UnstructuredGrid"  version="0.1"  >
<UnstructuredGrid>
<Piece  NumberOfPoints="1369" NumberOfCells="2560">
<Points>
<DataArray  type="Float64"  NumberOfComponents="3"  format="ascii">0 0 0  0.75 0 0  1.5 0 0  2.25 0 0  3 0 0  3.75 0 0  4.5 0 0  5.25 0 0  6 0 0  6.75 0 0  7.5 0 0  8.25 0 0  9 0 0  9.75 0 0  10.5 0 0  11.25 0 0  12 0 0  12.75 0 0  13.5 0 0  14.25 0 0  15 0 0  15.75 0 0  16.5 0 0  17.25 0 0  18 0 0  18.75 0 0  19.5 0 0  20.25 0 0  21 0 0  21.75 0 0  22.5 0 0  23.25 0 0  24 0 0  24.75 0 0  25.5 0 0  26.25 0 0  27 0 0  27.75 0 0  28.5 0 0  29.25 0 0  30 0 0  30.75 0 0  31.5 0 0  32.25 0 0  33 0 0  33.75 0 0  34.5 0 0  35.25 0 0  36 0 0  36.75 0 0  37.5 0 0  38.25 0 0  39 0 0  39.75 0 0  40.5 0 0  41.25 0 0  42 0 0  42.75 0 0  43.5 0 0  44.25 0 0  45 0 0  45.75 0 0  46.5 0 0  47.25 0 0  48 0 0  48.75 0 0  49.5 0 0  50.25 0 0  51 0 0  51.75 0 0  52.5 0 0  53.25 0 0  54 0 0  54.75 0 0  55.5 0 0  56.25 0 0  57 0 0  57.75 0 0  58.5 0 0  59.25 0 0  60 0 0  0 0.5 0  0.75 0.5 0  1.5 0.5 0  2.25 0.5 0  3 0.5 0  3.75 0.5 0  4.5 0.5 0  5.25 0.5 0  6 0.5 0  6.75 0.5 0  7.5 0.5 0  8.25 0.5 0  9 0.5 0  9.75 0.5 0  10.5 0.5 0  11.25 0.5 0  12 0.5 0  12.75 0.5 0  13.5 0.5 0  14.25 0.5 0  15 0.5 0  15.75 0.5 0  16.5 0.5 0  17.25 0.5 0  18 0.5 0  18.75 0.5 0  19.5 0.5 0  20.25 0.5 0  21 0.5 0  21.75 0.5 0  22.5 0.5 0  23.25 0.5 0  24 0.5 0  24.75 0.5 0  25.5 0.5 0  26.25 0.5 0  27 0.5 0  27.75 0.5 0  28.5 0.5 0  29.25 0.5 0  30 0.5 0  30.75 0.5 0  31.5 0.5 0  32.25 0.5 0  33 0.5 0  33.75 0.5 0  34.5 0.5 0  35.25 0.5 0  36 0.5 0  36.75 0.5 0  37.5 0.5 0  38.25 0.5 0  39 0.5 0  39.75 0.5 0  40.5 0.5 0  41.25 0.5 0  42 0.5 0  42.75 0.5 0  43.5 0.5 0  44.25 0.5 0  45 0.5 0  45.75 0.5 0  46.5 0.5 0  47.25 0.5 0  48 0.5 0  48.75 0.5 0  49.5 0.5 0  50.25 0.5 0  51 0.5 0  51.75 0.5 0  52.5 0.5 0  53.25 0.5 0  54 0.5 0  54.75 0.5 0  55.5 0.5 0  56.25 0.5 0  57 0.5 0  57.75 0.5 0  58.5 0.5 0  59.25 0.5 0  60 0.5 0  0 1 0  0.75 1 0  1.5 1 0  2.25 1 0  3 1 0  3.75 1 0  4.5 1 0  5.25 1 0  6 1 0  6.75 1 0  7.5 1 0  8.25 1 0  9 1 0  9.75 1 0  10.5 1 0  11.25 1 0  12 1 0  12.75 1 0  13.5 1 0  14.25 1 0  15 1 0  15.75 1 0  16.5 1 0  17.25 1 0  18 1 0  18.75 1 0  19.5 1 0  20.25 1 0  21 1 0  21.75 1 0  22.5 1 0  23.25 1 0  24 1 0  24.75 1 0  25.5 1 0  26.25 1 0  27 1 0  27.75 1 0  28.5 1 0  29.25 1 0  30 1 0  30.75 1 0  31.5 1 0  32.25 1 0  33 1 0  33.75 1 0  34.5 1 0  35.25 1 0  36 1 0  36.75 1 0  37.5 1 0  38.25 1 0  39 1 0  39.75 1 0  40.5 1 0  41.25 1 0  42 1 0  42.75 1 0  43.5 1 0  44.25 1 0  45 1 0  45.75 1 0  46.5 1 0  47.25 1 0  48 1 0  48.75 1 0  49.5 1 0  50.25 1 0  51 1 0  51.75 1 0  52.5 1 0  53.25 1 0  54 1 0  54.75 1 0  55.5 1 0  56.25 1 0  57 1 0  57.75 1 0  58.5 1 0  59.25 1 0  60 1 0  0 1.5 0  0.75 1.5 0  1.5 1.5 0  2.25 1.5 0  3 1.5 0  3.75 1.5 0  4.5 1.5 0  5.25 1.5 0  6 1.5 0  6.75 1.5 0  7.5 1.5 0  8.25 1.5 0  9 1.5 0  9.75 1.5 0  10.5 1.5 0  11.25 1.5 0  12 1.5 0  12.75 1.5 0  13.5 1.5 0  14.25 1.5 0  15 1.5 0  15.75 1.5 0  16.5 1.5 0  17.25 1.5 0  18 1.5 0  18.75 1.5 0  19.5 1.5 0  20.25 1.5 0  21 1.5 0  21.75 1.5 0  22.5 1.5 0  23.25 1.5 0  24 1.5 0  24.75 1.5 0  25.5 1.5 0  26.25 1.5 0  27 1.5 0  27.75 1.5 0  28.5 1.5 0  29.25 1.5 0  30 1.5 0  30.75 1.5 0  31.5 1.5 0  32.25 1.5 0  33 1.5 0  33.75 1.5 0  34.5 1.5 0  35.25 1.5 0  36 1.5 0  36.75 1.5 0  37.5 1.5 0  38.25 1.5 0  39 1.5 0  39.75 1.5 0  40.5 1.5 0  41.25 1.5 0  42 1.5 0  42.75 1.5 0  43.5 1.5 0  44.25 1.5 0  45 1.5 0  45.75 1.5 0  46.5 1.5 0  47.25 1.5 0  48 1.5 0  48.75 1.5 0  49.5 1.5 0  50.25 1.5 0  51 1.5 0  51.75 1.5 0  52.5 1.5 0  53.25 1.5 0  54 1.5 0  54.75 1.5 0  55.5 1.5 0  56.25 1.5 0  57 1.5 0  57.75 1.5 0  58.5 1.5 0  59.25 1.5 0  60 1.5 0  0 2 0  0.75 2 0  1.5 2 0  2.25 2 0  3 2 0  3.75 2 0  4.5 2 0  5.25 2 0  6 2 0  6.75 2 0  7.5 2 0  8.25 2 0  9 2 0  9.75 2 0  10.5 2 0  11.25 2 0  12 2 0  12.75 2 0  13.5 2 0  14.25 2 0  15 2 0  15.75 2 0  16.5 2 0  17.25 2 0  18 2 0  18.75 2 0  19.5 2 0  20.25 2 0  21 2 0  21.75 2 0  22.5 2 0  23.25 2 0  24 2 0  24.75 2 0  25.5 2 0  26.25 2 0  27 2 0  27.75 2 0  28.5 2 0  29.25 2 0  30 2 0  30.75 2 0  31.5 2 0  32.25 2 0  33 2 0  33.75 2 0  34.5 2 0  35.25 2 0  36 2 0  36.75 2 0  37.5 2 0  38.25 2 0  39 2 0  39.75 2 0  40.5 2 0  41.25 2 0  42 2 0  42.75 2 0  43.5 2 0  44.25 2 0  45 2 0  45.75 2 0  46.5 2 0  47.25 2 0  48 2 0  48.75 2 0  49.5 2 0  50.25 2 0  51 2 0  51.75 2 0  52.5 2 0  53.25 2 0  54 2 0  54.75 2 0  55.5 2 0  56.25 2 0  57 2 0  57.75 2 0  58.5 2 0  59.25 2 0  60 2 0  0 2.5 0  0.75 2.5 0  1.5 2.5 0  2.25 2.5 0  3 2.5 0  3.75 2.5 0  4.5 2.5 0  5.25 2.5 0  6 2.5 0  6.75 2.5 0  7.5 2.5 0  8.25 2.5 0  9 2.5 0  9.75 2.5 0  10.5 2.5 0  11.25 2.5 0  12 2.5 0  12.75 2.5 0  13.5 2.5 0  14.25 2.5 0  15 2.5 0  15.75 2.5 0  16.5 2.5 0  17.25 2.5 0  18 2.5 0  18.75 2.5 0  19.5 2.5 0  20.25 2.5 0  21 2.5 0  21.75 2.5 0  22.5 2.5 0  23.25 2.5 0  24 2.5 0  24.75 2.5 0  25.5 2.5 0  26.25 2.5 0  27 2.5 0  27.75 2.5 0  28.5 2.5 0  29.25 2.5 0  30 2.5 0  30.75 2.5 0  31.5 2.5 0  32.25 2.5 0  33 2.5 0  33.75 2.5 0  34.5 2.5 0  35.25 2.5 0  36 2.5 0  36.75 2.5 0  37.5 2.5 0  38.25 2.5 0  39 2.5 0  39.75 2.5 0  40.5 2.5 0  41.25 2.5 0  42 2.5 0  42.75 2.5 0  43.5 2.5 0  44.25 2.5 0  45 2.5 0  45.75 2.5 0  46.5 2.5 0  47.25 2.5 0  48 2.5 0  48.75 2.5 0  49.5 2.5 0  50.25 2.5 0  51 2.5 0  51.75 2.5 0  52.5 2.5 0  53.25 2.5 0  54 2.5 0  54.75 2.5 0  55.5 2.5 0  56.25 2.5 0  57 2.5 0  57.75 2.5 0  58.5 2.5 0  59.25 2.5 0  60 2.5 0  0 3 0  0.75 3 0  1.5 3 0  2.25 3 0  3 3 0  3.75 3 0  4.5 3 0  5.25 3 0  6 3 0  6.75 3 0  7.5 3 0  8.25 3 0  9 3 0  9.75 3 0  10.5 3 0  11.25 3 0  12 3 0  12.75 3 0  13.5 3 0  14.25 3 0  15 3 0  15.75 3 0  16.5 3 0  17.25 3 0  18 3 0  18.75 3 0  19.5 3 0  20.25 3 0  21 3 0  21.75 3 0  22.5 3 0  23.25 3 0  24 3 0  24.75 3 0  25.5 3 0  26.25 3 0  27 3 0  27.75 3 0  28.5 3 0  29.25 3 0  30 3 0  30.75 3 0  31.5 3 0  32.25 3 0  33 3 0  33.75 3 0  34.5 3 0  35.25 3 0  36 3 0  36.75 3 0  37.5 3 0  38.25 3 0  39 3 0  39.75 3 0  40.5 3 0  41.25 3 0  42 3 0  42.75 3 0  43.5 3 0  44.25 3 0  45 3 0  45.75 3 0  46.5 3 0  47.25 3 0  48 3 0  48.75 3 0  49.5 3 0  50.25 3 0  51 3 0  51.75 3 0  52.5 3 0  53.25 3 0  54 3 0  54.75 3 0  55.5 3 0  56.25 3 0  57 3 0  57.75 3 0  58.5 3 0  59.25 3 0  60 3 0  0 3.5 0  0.75 3.5 0  1.5 3.5 0  2.25 3.5 0  3 3.5 0  3.75 3.5 0  4.5 3.5 0  5.25 3.5 0  6 3.5 0  6.75 3.5 0  7.5 3.5 0  8.25 3.5 0  9 3.5 0  9.75 3.5 0  10.5 3.5 0  11.25 3.5 0  12 3.5 0  12.75 3.5 0  13.5 3.5 0  14.25 3.5 0  15 3.5 0  15.75 3.5 0  16.5 3.5 0  17.25 3.5 0  18 3.5 0  18.75 3.5 0  19.5 3.5 0  20.25 3.5 0  21 3.5 0  21.75 3.5 0  22.5 3.5 0  23.25 3.5 0  24 3.5 0  24.75 3.5 0  25.5 3.5 0  26.25 3.5 0  27 3.5 0  27.75 3.5 0  28.5 3.5 0  29.25 3.5 0  30 3.5 0  30.75 3.5 0  31.5 3.5 0  32.25 3.5 0  33 3.5 0  33.75 3.5 0  34.5 3.5 0  35.25 3.5 0  36 3.5 0  36.75 3.5 0  37.5 3.5 0  38.25 3.5 0  39 3.5 0  39.75 3.5 0  40.5 3.5 0  41.25 3.5 0  42 3.5 0  42.75 3.5 0  43.5 3.5 0  44.25 3.5 0  45 3.5 0  45.75 3.5 0  46.5 3.5 0  47.25 3.5 0  48 3.5 0  48.75 3.5 0  49.5 3.5 0  50.25 3.5 0  51 3.5 0  51.75 3.5 0  52.5 3.5 0  53.25 3.5 0  54 3.5 0  54.75 3.5 0  55.5 3.5 0  56.25 3.5 0  57 3.5 0  57.75 3.5 0  58.5 3.5 0  59.25 3.5 0  60 3.5 0  0 4 0  0.75 4 0  1.5 4 0  2.25 4 0  3 4 0  3.75 4 0  4.5 4 0  5.25 4 0  6 4 0  6.75 4 0  7.5 4 0  8.25 4 0  9 4 0  9.75 4 0  10.5 4 0  11.25 4 0  12 4 0  12.75 4 0  13.5 4 0  14.25 4 0  15 4 0  15.75 4 0  16.5 4 0  17.25 4 0  18 4 0  18.75 4 0  19.5 4 0  20.25 4 0  21 4 0  21.75 4 0  22.5 4 0  23.25 4 0  24 4 0  24.75 4 0  25.5 4 0  26.25 4 0  27 4 0  27.75 4 0  28.5 4 0  29.25 4 0  30 4 0  30.75 4 0  31.5 4 0  32.25 4 0  33 4 0  33.75 4 0  34.5 4 0  35.25 4 0  36 4 0  36.75 4 0  37.5 4 0  38.25 4 0  39 4 0  39.75 4 0  40.5 4 0  41.25 4 0  42 4 0  42.75 4 0  43.5 4 0  44.25 4 0  45 4 0  45.75 4 0  46.5 4 0  47.25 4 0  48 4 0  48.75 4 0  49.5 4 0  50.25 4 0  51 4 0  51.75 4 0  52.5 4 0  53.25 4 0  54 4 0  54.75 4 0  55.5 4 0  56.25 4 0  57 4 0  57.75 4 0  58.5 4 0  59.25 4 0  60 4 0  0.375 0.25 0  1.125 0.25 0  1.875 0.25 0  2.625 0.25 0  3.375 0.25 0  4.125 0.25 0  4.875 0.25 0  5.625 0.25 0  6.375 0.25 0  7.125 0.25 0  7.875 0.25 0  8.625 0.25 0  9.375 0.25 0  10.125 0.25 0  10.875 0.25 0  11.625 0.25 0  12.375 0.25 0  13.125 0.25 0  13.875 0.25 0  14.625 0.25 0  15.375 0.25 0  16.125 0.25 0  16.875 0.25 0  17.625 0.25 0  18.375 0.25 0  19.125 0.25 0  19.875 0.25 0  20.625 0.25 0  21.375 0.25 0  22.125 0.25 0  22.875 0.25 0  23.625 0.25 0  24.375 0.25 0  25.125 0.25 0  25.875 0.25 0  26.625 0.25 0  27.375 0.25 0  28.125 0.25 0  28.875 0.25 0  29.625 0.25 0  30.375 0.25 0  31.125 0.25 0  31.875 0.25 0  32.625 0.25 0  33.375 0.25 0  34.125 0.25 0  34.875 0.25 0  35.625 0.25 0  36.375 0.25 0  37.125 0.25 0  37.875 0.25 0  38.625 0.25 0  39.375 0.25 0  40.125 0.25 0  40.875 0.25 0  41.625 0.25 0  42.375 0.25 0  43.125 0.25 0  43.875 0.25 0  44.625 0.25 0  45.375 0.25 0  46.125 0.25 0  46.875 0.25 0  47.625 0.25 0  48.375 0.25 0  49.125 0.25 0  49.875 0.25 0  50.625 0.25 0  51.375 0.25 0  52.125 0.25 0  52.875 0.25 0  53.625 0.25 0  54.375 0.25 0  55.125 0.25 0  55.875 0.25 0  56.625 0.25 0  57.375 0.25 0  58.125 0.25 0  58.875 0.25 0  59.625 0.25 0  0.375 0.75 0  1.125 0.75 0  1.875 0.75 0  2.625 0.75 0  3.375 0.75 0  4.125 0.75 0  4.875 0.75 0  5.625 0.75 0  6.375 0.75 0  7.125 0.75 0  7.875 0.75 0  8.625 0.75 0  9.375 0.75 0  10.125 0.75 0  10.875 0.75 0  11.625 0.75 0  12.375 0.75 0  13.125 0.75 0  13.875 0.75 0  14.625 0.75 0  15.375 0.75 0  16.125 0.75 0  16.875 0.75 0  17.625 0.75 0  18.375 0.75 0  19.125 0.75 0  19.875 0.75 0  20.625 0.75 0  21.375 0.75 0  22.125 0.75 0  22.875 0.75 0  23.625 0.75 0  24.375 0.75 0  25.125 0.75 0  25.875 0.75 0  26.625 0.75 0  27.375 0.75 0  28.125 0.75 0  28.875 0.75 0  29.625 0.75 0  30.375 0.75 0  31.125 0.75 0  31.875 0.75 0  32.625 0.75 0  33.375 0.75 0  34.125 0.75 0  34.875 0.75 0  35.625 0.75 0  36.375 0.75 0  37.125 0.75 0  37.875 0.75 0  38.625 0.75 0  39.375 0.75 0  40.125 0.75 0  40
[...]
<PointData  Vectors="f_8-0"> 
<DataArray  type="Float64"  Name="f_8-0"  NumberOfComponents="3" format="ascii">0.0000000000000000e+00 0.0000000000000000e+00 0.0000000000000000e+00  0.0000000000000000e+00 0.0000000000000000e+00 0.0000000000000000e+00  0.0000000000000000e+00 0.0000000000000000e+00 0.0000000000000000e+00  0.0000000000000000e+00 0.0000000000000000e+00 0.0000000000000000e+00  0.0000000000000000e+00 0.0000000000000000e+00 0.0000000000000000e+00  0.0000000000000000e+00 0.0000000000000000e+00 0.0000000000000000e+00  0.0000000000000000e+00 0.0000000000000000e+00 0.0000000000000000e+00  0.0000000000000000e+00 0.0000000000000000e+00 0.0000000000000000e+00  0.0000000000000000e+00 0.0000000000000000e+00 0.0000000000000000e+00  0.0000000000000000e+00 0.0000000000000000e+00 0.0000000000000000e+00  0.0000000000000000e+00 0.0000000000000000e+00 0.0000000000000000e+00  0.0000000000000000e+00 0.0000000000000000e+00 0.0000000000000000e+00  0.0000000000000000e+00 0.0000000000000000e+00 0.0000000000000000e+00  0.0000000000000000e+00 0.0000000000000000e+00 0.0000000000000000e+00  0.0000000000000000e+00 0.0000000000000000e+00 0.0000000000000000e+00  0.0000000000000000e+00 0.0000000000000000e+00 0.0000000000000000e+00  0.0000000000000000e+00 0.0000000000000000e+00 0.0000000000000000e+00  0.0000000000000000e+00 0.0000000000000000e+00 0.0000000000000000e+00  0.0000000000000000e+00 0.0000000000000000e+00 0.0000000000000000e+00  0.0000000000000000e+00 0.0000000000000000e+00 0.0000000000000000e+00  0.0000000000000000e+00 0.0000000000000000e+00 0.0000000000000000e+00  0.0000000000000000e+00 0.0000000000000000e+00 0.0000000000000000e+00  0.0000000000000000e+00 0.0000000000000000e+00 0.0000000000000000e+00  0.0000000000000000e+00 0.0000000000000000e+00 0.0000000000000000e+00  0.0000000000000000e+00 0.0000000000000000e+00 0.0000000000000000e+00  0.0000000000000000e+00 0.0000000000000000e+00 0.0000000000000000e+00  0.0000000000000000e+00 0.0000000000000000e+00 0.0000000000000000e+00  0.0000000000000000e+00 0.0000000000000000e+00 0.0000000000000000e+00  0.0000000000000000e+00 0.0000000000000000e+00 0.0000000000000000e+00  0.0000000000000000e+00 0.0000000000000000e+00 0.0000000000000000e+00  0.0000000000000000e+00 0.0000000000000000e+00 0.0000000000000000e+00  0.0000000000000000e+00 0.0000000000000000e+00 0.0000000000000000e+00  0.0000000000000000e+00 0.0000000000000000e+00 0.0000000000000000e+00  0.0000000000000000e+00 0.0000000000000000e+00 0.0000000000000000e+00  0.0000000000000000e+00 0.0000000000000000e+00 0.0000000000000000e+00  0.0000000000000000e+00 0.0000000000000000e+00 0.0000000000000000e+00  0.0000000000000000e+00 0.0000000000000000e+00 0.0000000000000000e+00  0.0000000000000000e+00 0.0000000000000000e+00 0.0000000000000000e+00  0.0000000000000000e+00 0.0000000000000000e+00 0.0000000000000000e+00  0.0000000000000000e+00 0.0000000000000000e+00 0.0000000000000000e+00  0.0000000000000000e+00 0.0000000000000000e+00 0.0000000000000000e+00  0.0000000000000000e+00 0.0000000000000000e+00 0.0000000000000000e+00  0.0000000000000000e+00 0.0000000000000000e+00 0.0000000000000000e+00  0.0000000000000000e+00 0.0000000000000000e+00 0.0000000000000000e+00  0.0000000000000000e+00 0.0000000000000000e+00 0.0000000000000000e+00  0.0000000000000000e+00 0.0000000000000000e+00 0.0000000000000000e+00  0.0000000000000000e+00 0.0000000000000000e+00 0.0000000000000000e+00  0.0000000000000000e+00 0.0000000000000000e+00 0.0000000000000000e+00  0.0000000000000000e+00 0.0000000000000000e+00 0.0000000000000000e+00  0.0000000000000000e+00 0.0000000000000000e+00 0.0000000000000000e+00  0.0000000000000000e+00 0.0000000000000000e+00 0.0000000000000000e+00  0.0000000000000000e+00 0.0000000000000000e+00 0.0000000000000000e+00  0.0000000000000000e+00 0.0000000000000000e+00 0.0000000000000000e+00  0.0000000000000000e+00 0.0000000000000000e+00 0.0000000000000000e+00  0.0000000000000000e+00 0.0000000000000000e+00 0.0000000000000000e+00  0.0000000000000000e+00 0.0000000000000000e+00 0.0000000000000000e+00  0.0000000000000000e+00 0.0000000000000000e+00 0.0000000000000000e+00  0.0000000000000000e+00 0.0000000000000000e+00 0.0000000000000000e+00  0.0000000000000000e+00 0.0000000000000000e+00 0.0000000000000000e+00  0.0000000000000000e+00 0.0000000000000000e+00 0.0000000000000000e+00  0.0000000000000000e+00 0.0000000000000000e+00 0.0000000000000000e+00  0.0000000000000000e+00 0.0000000000000000e+00 0.0000000000000000e+00  0.0000000000000000e+00 0.0000000000000000e+00 0.0000000000000000e+00  0.0000000000000000e+00 0.0000000000000000e+00 0.0000000000000000e+00  0.0000000000000000e+00 0.0000000000000000e+00 0.0000000000000000e+00  0.0000000000000000e+00 0.0000000000000000e+00 0.0000000000000000e+00  0.0000000000000000e+00 0.0000000000000000e+00 0.0000000000000000e+00  0.0000000000000000e+00 0.0000000000000000e+00 0.0000000000000000e+00  0.0000000000000000e+00 0.0000000000000000e+00 0.0000000000000000e+00  0.0000000000000000e+00 0.0000000000000000e+00 0.0000000000000000e+00  0.0000000000000000e+00 0.0000000000000000e+00 0.0000000000000000e+00  0.0000000000000000e+00 0.0000000000000000e+00 0.0000000000000000e+00  0.0000000000000000e+00 0.0000000000000000e+00 0.0000000000000000e+00  0.0000000000000000e+00 0.0000000000000000e+00 0.0000000000000000e+00  0.0000000000000000e+00 0.0000000000000000e+00 0.0000000000000000e+00  0.0000000000000000e+00 0.0000000000000000e+00 0.0000000000000000e+00  0.0000000000000000e+00 0.0000000000000000e+00 0.0000000000000000e+00  0.0000000000000000e+00 0.0000000000000000e+00 0.0000000000000000e+00  0.0000000000000000e+00 0.0000000000000000e+00 0.0000000000000000e+00  0.0000000000000000e+00 0.0000000000000000e+00 0.0000000000000000e+00  0.0000000000000000e+00 0.0000000000000000e+00 0.0000000000000000e+00  1.0820364540596936e+01 0.0000000000000000e+00 0.0000000000000000e+00  1.0847800675252786e+01 -7.0078961289455802e-02 0.0000000000000000e+00  1.0831831065650450e+01 -2.1442525177652529e-02 0.0000000000000000e+00  1.0826430666337615e+01 -5.4020221385649566e-03 0.0000000000000000e+00  1.0818592105508115e+01 -4.1795083499728400e-03 0.0000000000000000e+00  1.0809787644151369e+01 -3.1856113325013720e-03 0.0000000000000000e+00  1.0807094007737005e+01 -5.7559733881201291e-03 0.0000000000000000e+00  1.0805924343307183e+01 -6.2308186111681646e-03 0.0000000000000000e+00  1.0808273756345677e+01 -7.4882289209878723e-03 0.0000000000000000e+00  1.0811177707482098e+01 -7.6021492649233522e-03 0.0000000000000000e+00  1.0815387371045770e+01 -7.8696345457157264e-03 0.0000000000000000e+00  1.0818931844379236e+01 -7.4167411442747433e-03 0.0000000000000000e+00  1.0821803655462562e+01 -7.0913909689353195e-03 0.0000000000000000e+00  1.0823483394986374e+01 -6.6682677809149831e-03 0.0000000000000000e+00  1.0824474789304723e+01 -6.4816895606402188e-03 0.0000000000000000e+00  1.0824910835824500e+01 -6.3374290903179071e-03 0.0000000000000000e+00  1.0825140293979400e+01 -6.3017894398388792e-03 0.0000000000000000e+00  1.0825228620659818e+01 -6.2697412108305072e-03 0.0000000000000000e+00  1.0825284754059245e+01 -6.2670802957120932e-03 0.0000000000000000e+00  1.0825308982204071e+01 -6.2587446190194296e-03 0.0000000000000000e+00  1.0825328222568249e+01 -6.2584214312134375e-03 0.0000000000000000e+00  1.0825337703502186e+01 -6.2555147840102840e-03 0.0000000000000000e+00  1.0825345052662968e+01 -6.2550799890969833e-03 0.0000000000000000e+00  1.0825348992891222e+01 -6.2541193172387559e-03 0.0000000000000000e+00  1.0825351628554699e+01 -6.2537474500999292e-03 0.0000000000000000e+00  1.0825353266438874e+01 -6.2535286185440549e-03 0.0000000000000000e+00  1.0825354111266734e+01 -6.2532621792301358e-03 0.0000000000000000e+00  1.0825354805885835e+01 -6.2532782785310161e-03 0.0000000000000000e+00  1.0825355021348148e+01 -6.2531014910259582e-03 0.0000000000000000e+00  1.0825355316271963e+01 -6.2531645000920124e-03 0.0000000000000000e+00  1.0825355327151916e+01 -6.2530548324538065e-03 0.0000000000000000e+00  1.0825355440733469e+01 -6.2531085684184506e-03 0.0000000000000000e+00  1.0825355392213366e+01 -6.2530449183221494e-03 0.0000000000000000e+00  1.0825355418394670e+01 -6.2530798411171941e-03 0.0000000000000000e+00  1.0825355356423749e+01 -6.2530451697750669e-03 0.0000000000000000e+00  1.0825355339109192e+01 -6.2530649867658227e-03 0.0000000000000000e+00  1.0825355276191567e+01 -6.2530471644387936e-03 0.0000000000000000e+00  1.0825355236958464e+01 -6.2530573871260580e-03 0.0000000000000000e+00  1.0825355175121951e+01 -6.2530486560926218e-03 0.0000000000000000e+00  1.0825355124581822e+01 -6.2530534807441118e-03 0.0000000000000000e+00  1.0825355063031170e+01 -6.2530493060711633e-03 0.0000000000000000e+00  1.0825355006081640e+01 -6.2530513163929630e-03 0.0000000000000000e+00  1.0825354943529938e+01 -6.2530492642924283e-03 0.0000000000000000e+00  1.0825354882168478e+01 -6.2530498882050773e-03 0.0000000000000000e+00  1.0825354817527863e+01 -6.2530487565855986e-03 0.0000000000000000e+00  1.0825354752401976e+01 -6.2530487278243301e-03 0.0000000000000000e+00  1.0825354684909595e+01 -6.2530479722397551e-03 0.0000000000000000e+00  1.0825354616149820e+01 -6.2530476570043774e-03 0.0000000000000000e+00  1.0825354545370155e+01 -6.2530470622978495e-03 0.0000000000000000e+00  1.0825354473015855e+01 -6.2530466533465756e-03 0.0000000000000000e+00  1.0825354398842133e+01 -6.2530461618341355e-03 0.0000000000000000e+00  1.0825354323087586e+01 -6.2530457687227925e-03 0.0000000000000000e+00  1.0825354245738140e+01 -6.2530453776322393e-03 0.0000000000000000e+00  1.0825354166973220e+01 -6.2530450528181063e-03 0.0000000000000000e+00  1.0825354086880742e+01 -6.2530447645285587e-03 0.0000000000000000e+00  1.0825354005620614e+01 -6.2530445285522707e-03 0.0000000000000000e+00  1.0825353923317209e+01 -6.2530443319330636e-03 0.0000000000000000e+00  1.0825353840092291e+01 -6.2530441633236525e-03 0.0000000000000000e+00  1.0825353756039307e+01 -6.2530440193790662e-03 0.0000000000000000e+00  1.0825353671234977e+01 -6.2530438954433963e-03 0.0000000000000000e+00  1.0825353585793417e+01 -6.2530438363410240e-03 0.0000000000000000e+00  1.0825353499987493e+01 -6.2530439754277965e-03 0.0000000000000000e+00  1.0825353414563232e+01 -6.2530446231878548e-03 0.0000000000000000e+00  1.0825353331425264e+01 -6.2530467001175229e-03 0.0000000000000000e+00  1.0825353255300531e+01 -6.2530519162685670e-03 0.0000000000000000e+00  1.0825353197151092e+01 -6.2530650801217629e-03 0.0000000000000000e+00  1.0825353182406344e+01 -6.2530951766688169e-03 0.0000000000000000e+00  1.0825353267631561e+01 -6.2531655599993036e-03 0.0000000000000000e+00  1.0825353579736428e+01 -6.2533235560114477e-03 0.0000000000000000e+00  1.0825354397688065e+01 -6.2536894289923735e-03 0.0000000000000000e+00  1.0825356353204448e+01 -6.2545386112155552e-03 0.0000000000000000e+00  1.0825360897377282e+01 -6.2565671072046282e-03 0.0000000000000000e+00  1.0825371430439279e+01 -6.2614465287411788e-03 0.0000000000000000e+00  1.0825396136096220e+01 -6.2735500217154048e-03 0.0000000000000000e+00  1.0825455802764232e+01 -6.3040938652156164e-03 0.0000000000000000e+00  1.0825605656336412e+01 -6.3802651870329017e-03 0.0000000000000000e+00  1.0825996252979772e+01 -6.5584823912453981e-03 0.0000000000000000e+00  1.0827090959600341e+01 -6.8438862772570051e-03 0.0000000000000000e+00  1.0830176942551329e+01 -6.9053760409291632e-03 0.0000000000000000e+00  1.0843922599394034e+01 4.2410924784713668e-03 0.0000000000000000e+00  1.0914370787183881e+01 0.0000000000000000e+00 0.0000000000000000e+00  2.1124103470619247e+01 0.0000000000000000e+00 0.0000000000000000e+00  2.1168117883116668e+01 3.7353763938557584e-02 0.0000000000000000e+00  2.1131424144903139e+01 5.9532702432880183e-03 0.0000000000000000e+00  2.1132158370948954e+01 1.4046052548274545e-02 0.0000000000000000e+00  2.1124908861758282e+01 1.1182578723888616e-02 0.0000000000000000e+00  2.1127408407853327e+01 6.8708863206134538e-03 0.0000000000000000e+00  2.1125261599952871e+01 4.1168866528000754e-03 0.0000000000000000e+00  2.1126610604242767e+01 6.0938858770884208e-04 0.0000000000000000e+00  2.1126181775169794e+01 -2.6672132572202599e-04 0.0000000000000000e+00  2.1127340946580610e+01 -2.0123561585375029e-03 0.0000000000000000e+00  2.1128628932518112e+01 -2.2967926842510132e-03 0.0000000000000000e+00  2.1131526610428057e+01 -2.0412686242175957e-03 0.0000000000000000e+00  2.1133978708698052e+01 -8.3965171572103427e-04 0.0000000000000000e+00  2.1136115832537779e+01 1.0344837792364320e-04 0.0000000000000000e+00  2.1137316831276593e+01 9.0778738488228919e-04 0.0000000000000000e+00  2.1138096172522449e+01 1.2949628158013652e-03 0.0000000000000000e+00  2.1138427193116506e+01 1.5368870805006309e-03 0.0000000000000000e+00  2.1138630984778789e+01 1.6171978993992364e-03 0.0000000000000000e+00  2.1138700791251161e+01 1.6717434847062539e-03 0.0000000000000000e+00  2.1138754910621213e+01 1.6848705187991039e-03 0.0000000000000000e+00  2.1138771925114234e+01 1.6998456313450730e-03 0.0000000000000000e+00  2.1138790211709281e+01 1.7033445931537287e-03 0.0000000000000000e+00  2.1138796075418636e+01 1.7087356876378218e-03 0.0000000000000000e+00  2.1138803015704166e+01 1.7103018338763844e-03 0.0000000000000000e+00  2.1138805370520586e+01 1.7122517900265411e-03 0.0000000000000000e+00  2.1138807910226909e+01 1.7130348026300206e-03 0.0000000000000000e+00  2.1138808914198929e+01 1.7136428434031037e-03 0.0000000000000000e+00  2.1138809753644871e+01 1.7140566707184825e-03 0.0000000000000000e+00  2.1138810216518198e+01 1.7141918821566206e-03 0.0000000000000000e+00  2.1138810444600249e+01 1.7144223844807109e-03 0.0000000000000000e+00  2.1138810673681057e+01 1.7144182975621783e-03 0.0000000000000000e+00  2.1138810702872426e+01 1.7145486283283381e-03 0.0000000000000000e+00  2.1138810818186389e+01 1.7145180737854330e-03 0.0000000000000000e+00  2.1138810793782046e+01 1.7145902286418505e-03 0.0000000000000000e+00  2.1138810848437188e+01 1.7145645982026899e-03 0.0000000000000000e+00  2.1138810816679499e+01 1.7146030122469535e-03 0.0000000000000000e+00  2.1138810837964602e+01 1.7145871045961489e-03 0.0000000000000000e+00  2.1138810810466719e+01 1.7146067608845587e-03 0.0000000000000000e+00  2.1138810813527932e+01 1.7145984301410661e-03 0.0000000000000000e+00  2.1138810790915421e+01 1.7146083202718126e-03 0.0000000000000000e+00  2.1138810783993311e+01 1.7146047614276616e-03 0.0000000000000000e+00  2.1138810764051378e+01 1.7146099973447532e-03 0.0000000000000000e+00  2.1138810751092102e+01 1.7146091876491147e-03 0.0000000000000000e+00  2.1138810731331152e+01 1.7146124347907916e-03 0.0000000000000000e+00  2.1138810713799849e+01 1.7146131379363891e-03 0.0000000000000000e+00  2.1138810692198984e+01 1.7146156467929376e-03 0.0000000000000000e+00  2.1138810670346889e+01 1.7146171538193764e-03 0.0000000000000000e+00  2.1138810645461753e+01 1.7146194378618257e-03 0.0000000000000000e+00  2.1138810619047153e+01 1.7146213364296241e-03 0.0000000000000000e+00  2.1138810589919224e+01 1.7146235229796075e-03 0.0000000000000000e+00  2.1138810558663810e+01 1.7146255088144775e-03 0.0000000000000000e+00  2.1138810524850673e+01 1.7146275294904114e-03 0.0000000000000000e+00  2.1138810488770243e+01 1.7146293846644796e-03 0.0000000000000000e+00  2.1138810450345538e+01 1.7146311530476764e-03 0.0000000000000000e+00  2.1138810409785542e+01 1.7146327545169199e-03 0.0000000000000000e+00  2.1138810367187926e+01 1.7146342027348305e-03 0.0000000000000000e+00  2.1138810322777253e+01 1.7146354977445211e-03 0.0000000000000000e+00  2.1138810276730503e+01 1.7146366341156585e-03 0.0000000000000000e+00  2.1138810229245813e+01 1.7146377137519275e-03 0.0000000000000000e+00  2.1138810180430056e+01 1.7146386305022417e-03 0.0000000000000000e+00  2.1138810130363119e+01 1.7146395698157308e-03 0.0000000000000000e+00  2.1138810078977389e+01 1.7146399887858967e-03 0.0000000000000000e+00  2.1138810026208628e+01 1.7146399317317499e-03 0.0000000000000000e+00  2.1138809971756594e+01 1.7146370694432534e-03 0.0000000000000000e+00  2.1138809915456953e+01 1.7146297665685199e-03 0.0000000000000000e+00  2.1138809856741069e+01 1.7146081778689848e-03 0.0000000000000000e+00  2.1138809795689877e+01 1.7145602525774960e-03 0.0000000000000000e+00  2.1138809731612639e+01 1.7144432623260118e-03 0.0000000000000000e+00  2.1138809665949726e+01 1.7141866245172252e-03 0.0000000000000000e+00  2.1138809601165182e+01 1.7135809749652749e-03 0.0000000000000000e+00  2.1138809563056292e+01 1.7121719489680133e-03 0.0000000000000000e+00  2.1138809618512806e+01 1.7087948847656978e-03 0.0000000000000000e+00  2.1138809896337197e+01 1.7009067719474403e-03 0.0000000000000000e+00  2.1138810636860399e+01 1.6816952461482318e-03 0.0000000000000000e+00  2.1138812714821142e+01 1.6332599886725997e-03 0.0000000000000000e+00  2.1138818833612778e+01 1.5089773789159142e-03 0.0000000000000000e+00  2.1138841872173046e+01 1.1900445210280069e-03 0.0000000000000000e+00  2.1138932025815041e+01 3.8337826014639518e-04 0.0000000000000000e+00  2.1139443563023224e+01 -1.4285908904337519e-03 0.0000000000000000e+00  2.1139778725596759e+01 -6.7686605042813174e-03 0.0000000000000000e+00  2.1134235802704424e+01 0.0000000000000000e+00 0.0000000000000000e+00  2.3756529136062039e+01 0.0000000000000000e+00 0.0000000000000000e+00  2.3726070291181856e+01 -1.4936478869742231e-02 0.0000000000000000e+00  2.3739284665567688e+01 3.6567131047893276e-03 0.0000000000000000e+00  2.3746724886023600e+01 7.3525924234995937e-04 0.0000000000000000e+00  2.3766373880843727e+01 4.4116324927640539e-03 0.0000000000000000e+00  2.3771405588332545e+01 3.6377722372389989e-03 0.0000000000000000e+00  2.3778793731993975e+01 1.8143125986694987e-03 0.0000000000000000e+00  2.3777560475043703e+01 7.9031844488602573e-04 0.0000000000000000e+00  2.3777509657670638e+01 -3.9353091583989872e-04 0.0000000000000000e+00  2.3773790977162864e+01 -1.0714141165238135e-03 0.0000000000000000e+00  2.3770656830546407e+01 -2.3757879097107792e-03 0.0000000000000000e+00  2.3766655810913623e+01 -2.3038710938320054e-03 0.0000000000000000e+00  2.3764231501377967e+01 -1.6046415145964247e-03 0.0000000000000000e+00  2.3762339683983917e+01 -5.1910568309982850e-04 0.0000000000000000e+00  2.3761526093024600e+01 2.4660069861498680e-04 0.0000000000000000e+00  2.3760974755236450e+01 7.8220606472292778e-04 0.0000000000000000e+00  2.3760813323233041e+01 1.0357540437478244e-03 0.0000000000000000e+00  2.3760674782447680e+01 1.1793747411506016e-03 0.0000000000000000e+00  2.3760648374713032e+01 1.2322605170333528e-03 0.0000000000000000e+00  2.3760604465632003e+01 1.2651409249451531e-03 0.0000000000000000e+00  2.3760597693274832e+01 1.2761753248296127e-03 0.0000000000000000e+00  2.3760580412590940e+01 1.2856989367994415e-03 0.0000000000000000e+00  2.3760577806924118e+01 1.2892437244705370e-03 0.0000000000000000e+00  2.3760570880362419e+01 1.2926989580779838e-03 0.0000000000000000e+00  2.3760569771021085e+01 1.2941829016894094e-03 0.0000000000000000e+00  2.3760567131342420e+01 1.2954340171865866e-03 0.0000000000000000e+00  2.3760566566556605e+01 1.2960897291765775e-03 0.0000000000000000e+00  2.3760565625795252e+01 1.2964939693878800e-03 0.0000000000000000e+00  2.3760565272646108e+01 1.2967975902705626e-03 0.0000000000000000e+00  2.3760564966738819e+01 1.2969031624880170e-03 0.0000000000000000e+00  2.3760564726070587e+01 1.2970522783700208e-03 0.0000000000000000e+00  2.3760564639493087e+01 1.2970658645186546e-03 0.0000000000000000e+00  2.3760564475933446e+01 1.2971417474005324e-03 0.0000000000000000e+00  2.3760564454836366e+01 1.2971334913589433e-03 0.0000000000000000e+00  2.3760564346355537e+01 1.2971721537279727e-03 0.0000000000000000e+00  2.3760564338413221e+01 1.2971626829195060e-03 0.0000000000000000e+00  2.3760564267238507e+01 1.2971820128450334e-03 0.0000000000000000e+00  2.3760564257661237e+01 1.2971757669899447e-03 0.0000000000000000e+00  2.3760564209965622e+01 1.2971853423258274e-03 0.0000000000000000e+00  2.3760564196468255e+01 1.2971822848929059e-03 0.0000000000