<?xml version="1.0"?>
<VTKFile type="UnstructuredGrid"  version="0.1"  >
<UnstructuredGrid>
<Piece  NumberOfPoints="1369" NumberOfCells="2560">
<Points>
<DataArray  type="Float64"  NumberOfComponents="3"  format="ascii">0 0 0  0.75 0 0  1.5 0 0  2.25 0 0  3 0 0  3.75 0 0  4.5 0 0  5.25 0 0  6 0 0  6.75 0 0  7.5 0 0  8.25 0 0  9 0 0  9.75 0 0  10.5 0 0  11.25 0 0  12 0 0  12.75 0 0  13.5 0 0  14.25 0 0  15 0 0  15.75 0 0  16.5 0 0  17.25 0 0  18 0 0  18.75 0 0  19.5 0 0  20.25 0 0  21 0 0  21.75 0 0  22.5 0 0  23.25 0 0  24 0 0  24.75 0 0  25.5 0 0  26.25 0 0  27 0 0  27.75 0 0  28.5 0 0  29.25 0 0  30 0 0  30.75 0 0  31.5 0 0  32.25 0 0  33 0 0  33.75 0 0  34.5 0 0  35.25 0 0  36 0 0  36.75 0 0  37.5 0 0  38.25 0 0  39 0 0  39.75 0 0  40.5 0 0  41.25 0 0  42 0 0  42.75 0 0  43.5 0 0  44.25 0 0  45 0 0  45.75 0 0  46.5 0 0  47.25 0 0  48 0 0  48.75 0 0  49.5 0 0  50.25 0 0  51 0 0  51.75 0 0  52.5 0 0  53.25 0 0  54 0 0  54.75 0 0  55.5 0 0  56.25 0 0  57 0 0  57.75 0 0  58.5 0 0  59.25 0 0  60 0 0  0 0.5 0  0.75 0.5 0  1.5 0.5 0  2.25 0.5 0  3 0.5 0  3.75 0.5 0  4.5 0.5 0  5.25 0.5 0  6 0.5 0  6.75 0.5 0  7.5 0.5 0  8.25 0.5 0  9 0.5 0  9.75 0.5 0  10.5 0.5 0  11.25 0.5 0  12 0.5 0  12.75 0.5 0  13.5 0.5 0  14.25 0.5 0  15 0.5 0  15.75 0.5 0  16.5 0.5 0  17.25 0.5 0  18 0.5 0  18.75 0.5 0  19.5 0.5 0  20.25 0.5 0  21 0.5 0  21.75 0.5 0  22.5 0.5 0  23.25 0.5 0  24 0.5 0  24.75 0.5 0  25.5 0.5 0  26.25 0.5 0  27 0.5 0  27.75 0.5 0  28.5 0.5 0  29.25 0.5 0  30 0.5 0  30.75 0.5 0  31.5 0.5 0  32.25 0.5 0  33 0.5 0  33.75 0.5 0  34.5 0.5 0  35.25 0.5 0  36 0.5 0  36.75 0.5 0  37.5 0.5 0  38.25 0.5 0  39 0.5 0  39.75 0.5 0  40.5 0.5 0  41.25 0.5 0  42 0.5 0  42.75 0.5 0  43.5 0.5 0  44.25 0.5 0  45 0.5 0  45.75 0.5 0  46.5 0.5 0  47.25 0.5 0  48 0.5 0  48.75 0.5 0  49.5 0.5 0  50.25 0.5 0  51 0.5 0  51.75 0.5 0  52.5 0.5 0  53.25 0.5 0  54 0.5 0  54.75 0.5 0  55.5 0.5 0  56.25 0.5 0  57 0.5 0  57.75 0.5 0  58.5 0.5 0  59.25 0.5 0  60 0.5 0  0 1 0  0.75 1 0  1.5 1 0  2.25 1 0  3 1 0  3.75 1 0  4.5 1 0  5.25 1 0  6 1 0  6.75 1 0  7.5 1 0  8.25 1 0  9 1 0  9.75 1 0  10.5 1 0  11.25 1 0  12 1 0  12.75 1 0  13.5 1 0  14.25 1 0  15 1 0  15.75 1 0  16.5 1 0  17.25 1 0  18 1 0  18.75 1 0  19.5 1 0  20.25 1 0  21 1 0  21.75 1 0  22.5 1 0  23.25 1 0  24 1 0  24.75 1 0  25.5 1 0  26.25 1 0  27 1 0  27.75 1 0  28.5 1 0  29.25 1 0  30 1 0  30.75 1 0  31.5 1 0  32.25 1 0  33 1 0  33.75 1 0  34.5 1 0  35.25 1 0  36 1 0  36.75 1 0  37.5 1 0  38.25 1 0  39 1 0  39.75 1 0  40.5 1 0  41.25 1 0  42 1 0  42.75 1 0  43.5 1 0  44.25 1 0  45 1 0  45.75 1 0  46.5 1 0  47.25 1 0  48 1 0  48.75 1 0  49.5 1 0  50.25 1 0  51 1 0  51.75 1 0  52.5 1 0  53.25 1 0  54 1 0  54.75 1 0  55.5 1 0  56.25 1 0  57 1 0  57.75 1 0  58.5 1 0  59.25 1 0  60 1 0  0 1.5 0  0.75 1.5 0  1.5 1.5 0  2.25 1.5 0  3 1.5 0  3.75 1.5 0  4.5 1.5 0  5.25 1.5 0  6 1.5 0  6.75 1.5 0  7.5 1.5 0  8.25 1.5 0  9 1.5 0  9.75 1.5 0  10.5 1.5 0  11.25 1.5 0  12 1.5 0  12.75 1.5 0  13.5 1.5 0  14.25 1.5 0  15 1.5 0  15.75 1.5 0  16.5 1.5 0  17.25 1.5 0  18 1.5 0  18.75 1.5 0  19.5 1.5 0  20.25 1.5 0  21 1.5 0  21.75 1.5 0  22.5 1.5 0  23.25 1.5 0  24 1.5 0  24.75 1.5 0  25.5 1.5 0  26.25 1.5 0  27 1.5 0  27.75 1.5 0  28.5 1.5 0  29.25 1.5 0  30 1.5 0  30.75 1.5 0  31.5 1.5 0  32.25 1.5 0  33 1.5 0  33.75 1.5 0  34.5 1.5 0  35.25 1.5 0  36 1.5 0  36.75 1.5 0  37.5 1.5 0  38.25 1.5 0  39 1.5 0  39.75 1.5 0  40.5 1.5 0  41.25 1.5 0  42 1.5 0  42.75 1.5 0  43.5 1.5 0  44.25 1.5 0  45 1.5 0  45.75 1.5 0  46.5 1.5 0  47.25 1.5 0  48 1.5 0  48.75 1.5 0  49.5 1.5 0  50.25 1.5 0  51 1.5 0  51.75 1.5 0  52.5 1.5 0  53.25 1.5 0  54 1.5 0  54.75 1.5 0  55.5 1.5 0  56.25 1.5 0  57 1.5 0  57.75 1.5 0  58.5 1.5 0  59.25 1.5 0  60 1.5 0  0 2 0  0.75 2 0  1.5 2 0  2.25 2 0  3 2 0  3.75 2 0  4.5 2 0  5.25 2 0  6 2 0  6.75 2 0  7.5 2 0  8.25 2 0  9 2 0  9.75 2 0  10.5 2 0  11.25 2 0  12 2 0  12.75 2 0  13.5 2 0  14.25 2 0  15 2 0  15.75 2 0  16.5 2 0  17.25 2 0  18 2 0  18.75 2 0  19.5 2 0  20.25 2 0  21 2 0  21.75 2 0  22.5 2 0  23.25 2 0  24 2 0  24.75 2 0  25.5 2 0  26.25 2 0  27 2 0  27.75 2 0  28.5 2 0  29.25 2 0  30 2 0  30.75 2 0  31.5 2 0  32.25 2 0  33 2 0  33.75 2 0  34.5 2 0  35.25 2 0  36 2 0  36.75 2 0  37.5 2 0  38.25 2 0  39 2 0  39.75 2 0  40.5 2 0  41.25 2 0  42 2 0  42.75 2 0  43.5 2 0  44.25 2 0  45 2 0  45.75 2 0  46.5 2 0  47.25 2 0  48 2 0  48.75 2 0  49.5 2 0  50.25 2 0  51 2 0  51.75 2 0  52.5 2 0  53.25 2 0  54 2 0  54.75 2 0  55.5 2 0  56.25 2 0  57 2 0  57.75 2 0  58.5 2 0  59.25 2 0  60 2 0  0 2.5 0  0.75 2.5 0  1.5 2.5 0  2.25 2.5 0  3 2.5 0  3.75 2.5 0  4.5 2.5 0  5.25 2.5 0  6 2.5 0  6.75 2.5 0  7.5 2.5 0  8.25 2.5 0  9 2.5 0  9.75 2.5 0  10.5 2.5 0  11.25 2.5 0  12 2.5 0  12.75 2.5 0  13.5 2.5 0  14.25 2.5 0  15 2.5 0  15.75 2.5 0  16.5 2.5 0  17.25 2.5 0  18 2.5 0  18.75 2.5 0  19.5 2.5 0  20.25 2.5 0  21 2.5 0  21.75 2.5 0  22.5 2.5 0  23.25 2.5 0  24 2.5 0  24.75 2.5 0  25.5 2.5 0  26.25 2.5 0  27 2.5 0  27.75 2.5 0  28.5 2.5 0  29.25 2.5 0  30 2.5 0  30.75 2.5 0  31.5 2.5 0  32.25 2.5 0  33 2.5 0  33.75 2.5 0  34.5 2.5 0  35.25 2.5 0  36 2.5 0  36.75 2.5 0  37.5 2.5 0  38.25 2.5 0  39 2.5 0  39.75 2.5 0  40.5 2.5 0  41.25 2.5 0  42 2.5 0  42.75 2.5 0  43.5 2.5 0  44.25 2.5 0  45 2.5 0  45.75 2.5 0  46.5 2.5 0  47.25 2.5 0  48 2.5 0  48.75 2.5 0  49.5 2.5 0  50.25 2.5 0  51 2.5 0  51.75 2.5 0  52.5 2.5 0  53.25 2.5 0  54 2.5 0  54.75 2.5 0  55.5 2.5 0  56.25 2.5 0  57 2.5 0  57.75 2.5 0  58.5 2.5 0  59.25 2.5 0  60 2.5 0  0 3 0  0.75 3 0  1.5 3 0  2.25 3 0  3 3 0  3.75 3 0  4.5 3 0  5.25 3 0  6 3 0  6.75 3 0  7.5 3 0  8.25 3 0  9 3 0  9.75 3 0  10.5 3 0  11.25 3 0  12 3 0  12.75 3 0  13.5 3 0  14.25 3 0  15 3 0  15.75 3 0  16.5 3 0  17.25 3 0  18 3 0  18.75 3 0  19.5 3 0  20.25 3 0  21 3 0  21.75 3 0  22.5 3 0  23.25 3 0  24 3 0  24.75 3 0  25.5 3 0  26.25 3 0  27 3 0  27.75 3 0  28.5 3 0  29.25 3 0  30 3 0  30.75 3 0  31.5 3 0  32.25 3 0  33 3 0  33.75 3 0  34.5 3 0  35.25 3 0  36 3 0  36.75 3 0  37.5 3 0  38.25 3 0  39 3 0  39.75 3 0  40.5 3 0  41.25 3 0  42 3 0  42.75 3 0  43.5 3 0  44.25 3 0  45 3 0  45.75 3 0  46.5 3 0  47.25 3 0  48 3 0  48.75 3 0  49.5 3 0  50.25 3 0  51 3 0  51.75 3 0  52.5 3 0  53.25 3 0  54 3 0  54.75 3 0  55.5 3 0  56.25 3 0  57 3 0  57.75 3 0  58.5 3 0  59.25 3 0  60 3 0  0 3.5 0  0.75 3.5 0  1.5 3.5 0  2.25 3.5 0  3 3.5 0  3.75 3.5 0  4.5 3.5 0  5.25 3.5 0  6 3.5 0  6.75 3.5 0  7.5 3.5 0  8.25 3.5 0  9 3.5 0  9.75 3.5 0  10.5 3.5 0  11.25 3.5 0  12 3.5 0  12.75 3.5 0  13.5 3.5 0  14.25 3.5 0  15 3.5 0  15.75 3.5 0  16.5 3.5 0  17.25 3.5 0  18 3.5 0  18.75 3.5 0  19.5 3.5 0  20.25 3.5 0  21 3.5 0  21.75 3.5 0  22.5 3.5 0  23.25 3.5 0  24 3.5 0  24.75 3.5 0  25.5 3.5 0  26.25 3.5 0  27 3.5 0  27.75 3.5 0  28.5 3.5 0  29.25 3.5 0  30 3.5 0  30.75 3.5 0  31.5 3.5 0  32.25 3.5 0  33 3.5 0  33.75 3.5 0  34.5 3.5 0  35.25 3.5 0  36 3.5 0  36.75 3.5 0  37.5 3.5 0  38.25 3.5 0  39 3.5 0  39.75 3.5 0  40.5 3.5 0  41.25 3.5 0  42 3.5 0  42.75 3.5 0  43.5 3.5 0  44.25 3.5 0  45 3.5 0  45.75 3.5 0  46.5 3.5 0  47.25 3.5 0  48 3.5 0  48.75 3.5 0  49.5 3.5 0  50.25 3.5 0  51 3.5 0  51.75 3.5 0  52.5 3.5 0  53.25 3.5 0  54 3.5 0  54.75 3.5 0  55.5 3.5 0  56.25 3.5 0  57 3.5 0  57.75 3.5 0  58.5 3.5 0  59.25 3.5 0  60 3.5 0  0 4 0  0.75 4 0  1.5 4 0  2.25 4 0  3 4 0  3.75 4 0  4.5 4 0  5.25 4 0  6 4 0  6.75 4 0  7.5 4 0  8.25 4 0  9 4 0  9.75 4 0  10.5 4 0  11.25 4 0  12 4 0  12.75 4 0  13.5 4 0  14.25 4 0  15 4 0  15.75 4 0  16.5 4 0  17.25 4 0  18 4 0  18.75 4 0  19.5 4 0  20.25 4 0  21 4 0  21.75 4 0  22.5 4 0  23.25 4 0  24 4 0  24.75 4 0  25.5 4 0  26.25 4 0  27 4 0  27.75 4 0  28.5 4 0  29.25 4 0  30 4 0  30.75 4 0  31.5 4 0  32.25 4 0  33 4 0  33.75 4 0  34.5 4 0  35.25 4 0  36 4 0  36.75 4 0  37.5 4 0  38.25 4 0  39 4 0  39.75 4 0  40.5 4 0  41.25 4 0  42 4 0  42.75 4 0  43.5 4 0  44.25 4 0  45 4 0  45.75 4 0  46.5 4 0  47.25 4 0  48 4 0  48.75 4 0  49.5 4 0  50.25 4 0  51 4 0  51.75 4 0  52.5 4 0  53.25 4 0  54 4 0  54.75 4 0  55.5 4 0  56.25 4 0  57 4 0  57.75 4 0  58.5 4 0  59.25 4 0  60 4 0  0.375 0.25 0  1.125 0.25 0  1.875 0.25 0  2.625 0.25 0  3.375 0.25 0  4.125 0.25 0  4.875 0.25 0  5.625 0.25 0  6.375 0.25 0  7.125 0.25 0  7.875 0.25 0  8.625 0.25 0  9.375 0.25 0  10.125 0.25 0  10.875 0.25 0  11.625 0.25 0  12.375 0.25 0  13.125 0.25 0  13.875 0.25 0  14.625 0.25 0  15.375 0.25 0  16.125 0.25 0  16.875 0.25 0  17.625 0.25 0  18.375 0.25 0  19.125 0.25 0  19.875 0.25 0  20.625 0.25 0  21.375 0.25 0  22.125 0.25 0  22.875 0.25 0  23.625 0.25 0  24.375 0.25 0  25.125 0.25 0  25.875 0.25 0  26.625 0.25 0  27.375 0.25 0  28.125 0.25 0  28.875 0.25 0  29.625 0.25 0  30.375 0.25 0  31.125 0.25 0  31.875 0.25 0  32.625 0.25 0  33.375 0.25 0  34.125 0.25 0  34.875 0.25 0  35.625 0.25 0  36.375 0.25 0  37.125 0.25 0  37.875 0.25 0  38.625 0.25 0  39.375 0.25 0  40.125 0.25 0  40.875 0.25 0  41.625 0.25 0  42.375 0.25 0  43.125 0.25 0  43.875 0.25 0  44.625 0.25 0  45.375 0.25 0  46.125 0.25 0  46.875 0.25 0  47.625 0.25 0  48.375 0.25 0  49.125 0.25 0  49.875 0.25 0  50.625 0.25 0  51.375 0.25 0  52.125 0.25 0  52.875 0.25 0  53.625 0.25 0  54.375 0.25 0  55.125 0.25 0  55.875 0.25 0  56.625 0.25 0  57.375 0.25 0  58.125 0.25 0  58.875 0.25 0  59.625 0.25 0  0.375 0.75 0  1.125 0.75 0  1.875 0.75 0  2.625 0.75 0  3.375 0.75 0  4.125 0.75 0  4.875 0.75 0  5.625 0.75 0  6.375 0.75 0  7.125 0.75 0  7.875 0.75 0  8.625 0.75 0  9.375 0.75 0  10.125 0.75 0  10.875 0.75 0  11.625 0.75 0  12.375 0.75 0  13.125 0.75 0  13.875 0.75 0  14.625 0.75 0  15.375 0.75 0  16.125 0.75 0  16.875 0.75 0  17.625 0.75 0  18.375 0.75 0  19.125 0.75 0  19.875 0.75 0  20.625 0.75 0  21.375 0.75 0  22.125 0.75 0  22.875 0.75 0  23.625 0.75 0  24.375 0.75 0  25.125 0.75 0  25.875 0.75 0  26.625 0.75 0  27.375 0.75 0  28.125 0.75 0  28.875 0.75 0  29.625 0.75 0  30.375 0.75 0  31.125 0.75 0  31.875 0.75 0  32.625 0.75 0  33.375 0.75 0  34.125 0.75 0  34.875 0.75 0  35.625 0.75 0  36.375 0.75 0  37.125 0.75 0  37.875 0.75 0  38.625 0.75 0  39.375 0.75 0  40.125 0.75 0  40
[...]
<PointData  Vectors="f_8-0"> 
<DataArray  type="Float64"  Name="f_8-0"  NumberOfComponents="3" format="ascii">0.0000000000000000e+00 0.0000000000000000e+00 0.0000000000000000e+00  0.0000000000000000e+00 0.0000000000000000e+00 0.0000000000000000e+00  0.0000000000000000e+00 0.0000000000000000e+00 0.0000000000000000e+00  0.0000000000000000e+00 0.0000000000000000e+00 0.0000000000000000e+00  0.0000000000000000e+00 0.0000000000000000e+00 0.0000000000000000e+00  0.0000000000000000e+00 0.0000000000000000e+00 0.0000000000000000e+00  0.0000000000000000e+00 0.0000000000000000e+00 0.0000000000000000e+00  0.0000000000000000e+00 0.0000000000000000e+00 0.0000000000000000e+00  0.0000000000000000e+00 0.0000000000000000e+00 0.0000000000000000e+00  0.0000000000000000e+00 0.0000000000000000e+00 0.0000000000000000e+00  0.0000000000000000e+00 0.0000000000000000e+00 0.0000000000000000e+00  0.0000000000000000e+00 0.0000000000000000e+00 0.0000000000000000e+00  0.0000000000000000e+00 0.0000000000000000e+00 0.0000000000000000e+00  0.0000000000000000e+00 0.0000000000000000e+00 0.0000000000000000e+00  0.0000000000000000e+00 0.0000000000000000e+00 0.0000000000000000e+00  0.0000000000000000e+00 0.0000000000000000e+00 0.0000000000000000e+00  0.0000000000000000e+00 0.0000000000000000e+00 0.0000000000000000e+00  0.0000000000000000e+00 0.0000000000000000e+00 0.0000000000000000e+00  0.0000000000000000e+00 0.0000000000000000e+00 0.0000000000000000e+00  0.0000000000000000e+00 0.0000000000000000e+00 0.0000000000000000e+00  0.0000000000000000e+00 0.0000000000000000e+00 0.0000000000000000e+00  0.0000000000000000e+00 0.0000000000000000e+00 0.0000000000000000e+00  0.0000000000000000e+00 0.0000000000000000e+00 0.0000000000000000e+00  0.0000000000000000e+00 0.0000000000000000e+00 0.0000000000000000e+00  0.0000000000000000e+00 0.0000000000000000e+00 0.0000000000000000e+00  0.0000000000000000e+00 0.0000000000000000e+00 0.0000000000000000e+00  0.0000000000000000e+00 0.0000000000000000e+00 0.0000000000000000e+00  0.0000000000000000e+00 0.0000000000000000e+00 0.0000000000000000e+00  0.0000000000000000e+00 0.0000000000000000e+00 0.0000000000000000e+00  0.0000000000000000e+00 0.0000000000000000e+00 0.0000000000000000e+00  0.0000000000000000e+00 0.0000000000000000e+00 0.0000000000000000e+00  0.0000000000000000e+00 0.0000000000000000e+00 0.0000000000000000e+00  0.0000000000000000e+00 0.0000000000000000e+00 0.0000000000000000e+00  0.0000000000000000e+00 0.0000000000000000e+00 0.0000000000000000e+00  0.0000000000000000e+00 0.0000000000000000e+00 0.0000000000000000e+00  0.0000000000000000e+00 0.0000000000000000e+00 0.0000000000000000e+00  0.0000000000000000e+00 0.0000000000000000e+00 0.0000000000000000e+00  0.0000000000000000e+00 0.0000000000000000e+00 0.0000000000000000e+00  0.0000000000000000e+00 0.0000000000000000e+00 0.0000000000000000e+00  0.0000000000000000e+00 0.0000000000000000e+00 0.0000000000000000e+00  0.0000000000000000e+00 0.0000000000000000e+00 0.0000000000000000e+00  0.0000000000000000e+00 0.0000000000000000e+00 0.0000000000000000e+00  0.0000000000000000e+00 0.0000000000000000e+00 0.0000000000000000e+00  0.0000000000000000e+00 0.0000000000000000e+00 0.0000000000000000e+00  0.0000000000000000e+00 0.0000000000000000e+00 0.0000000000000000e+00  0.0000000000000000e+00 0.0000000000000000e+00 0.0000000000000000e+00  0.0000000000000000e+00 0.0000000000000000e+00 0.0000000000000000e+00  0.0000000000000000e+00 0.0000000000000000e+00 0.0000000000000000e+00  0.0000000000000000e+00 0.0000000000000000e+00 0.0000000000000000e+00  0.0000000000000000e+00 0.0000000000000000e+00 0.0000000000000000e+00  0.0000000000000000e+00 0.0000000000000000e+00 0.0000000000000000e+00  0.0000000000000000e+00 0.0000000000000000e+00 0.0000000000000000e+00  0.0000000000000000e+00 0.0000000000000000e+00 0.0000000000000000e+00  0.0000000000000000e+00 0.0000000000000000e+00 0.0000000000000000e+00  0.0000000000000000e+00 0.0000000000000000e+00 0.0000000000000000e+00  0.0000000000000000e+00 0.0000000000000000e+00 0.0000000000000000e+00  0.0000000000000000e+00 0.0000000000000000e+00 0.0000000000000000e+00  0.0000000000000000e+00 0.0000000000000000e+00 0.0000000000000000e+00  0.0000000000000000e+00 0.0000000000000000e+00 0.0000000000000000e+00  0.0000000000000000e+00 0.0000000000000000e+00 0.0000000000000000e+00  0.0000000000000000e+00 0.0000000000000000e+00 0.0000000000000000e+00  0.0000000000000000e+00 0.0000000000000000e+00 0.0000000000000000e+00  0.0000000000000000e+00 0.0000000000000000e+00 0.0000000000000000e+00  0.0000000000000000e+00 0.0000000000000000e+00 0.0000000000000000e+00  0.0000000000000000e+00 0.0000000000000000e+00 0.0000000000000000e+00  0.0000000000000000e+00 0.0000000000000000e+00 0.0000000000000000e+00  0.0000000000000000e+00 0.0000000000000000e+00 0.0000000000000000e+00  0.0000000000000000e+00 0.0000000000000000e+00 0.0000000000000000e+00  0.0000000000000000e+00 0.0000000000000000e+00 0.0000000000000000e+00  0.0000000000000000e+00 0.0000000000000000e+00 0.0000000000000000e+00  0.0000000000000000e+00 0.0000000000000000e+00 0.0000000000000000e+00  0.0000000000000000e+00 0.0000000000000000e+00 0.0000000000000000e+00  0.0000000000000000e+00 0.0000000000000000e+00 0.0000000000000000e+00  0.0000000000000000e+00 0.0000000000000000e+00 0.0000000000000000e+00  0.0000000000000000e+00 0.0000000000000000e+00 0.0000000000000000e+00  0.0000000000000000e+00 0.0000000000000000e+00 0.0000000000000000e+00  0.0000000000000000e+00 0.0000000000000000e+00 0.0000000000000000e+00  0.0000000000000000e+00 0.0000000000000000e+00 0.0000000000000000e+00  0.0000000000000000e+00 0.0000000000000000e+00 0.0000000000000000e+00  0.0000000000000000e+00 0.0000000000000000e+00 0.0000000000000000e+00  0.0000000000000000e+00 0.0000000000000000e+00 0.0000000000000000e+00  5.7242701389233233e+00 0.0000000000000000e+00 0.0000000000000000e+00  5.7132013848011480e+00 -5.8574558071141418e-02 0.0000000000000000e+00  5.7006141731383515e+00 -1.4984426343111933e-02 0.0000000000000000e+00  5.6927730354051240e+00 -3.2559360935019975e-03 0.0000000000000000e+00  5.6833762425762977e+00 -2.1677157050525903e-03 0.0000000000000000e+00  5.6739537925151247e+00 -2.0568433936301663e-03 0.0000000000000000e+00  5.6699510911759265e+00 -4.2910051368924580e-03 0.0000000000000000e+00  5.6682446356662464e+00 -5.0666856774294932e-03 0.0000000000000000e+00  5.6696072353436717e+00 -6.1337452101912484e-03 0.0000000000000000e+00  5.6719400401855919e+00 -6.4100733198460590e-03 0.0000000000000000e+00  5.6753663708336219e+00 -6.5826070315347599e-03 0.0000000000000000e+00  5.6782789029711322e+00 -6.2092125553220535e-03 0.0000000000000000e+00  5.6804808013061159e+00 -5.8910677788934765e-03 0.0000000000000000e+00  5.6816983408170465e+00 -5.5594477946719970e-03 0.0000000000000000e+00  5.6823491837290474e+00 -5.4093866814455098e-03 0.0000000000000000e+00  5.6826029521857482e+00 -5.3119430364530857e-03 0.0000000000000000e+00  5.6827175204896951e+00 -5.2896720188135155e-03 0.0000000000000000e+00  5.6827485366488553e+00 -5.2725460440935070e-03 0.0000000000000000e+00  5.6827665243975360e+00 -5.2731288482113217e-03 0.0000000000000000e+00  5.6827696853702285e+00 -5.2694930019465333e-03 0.0000000000000000e+00  5.6827738765121998e+00 -5.2704934262858445e-03 0.0000000000000000e+00  5.6827742170077284e+00 -5.2692928343144639e-03 0.0000000000000000e+00  5.6827753167523314e+00 -5.2696647248006391e-03 0.0000000000000000e+00  5.6827752041477213e+00 -5.2692764697602939e-03 0.0000000000000000e+00  5.6827753327318211e+00 -5.2693835644254932e-03 0.0000000000000000e+00  5.6827751502327875e+00 -5.2692908732467122e-03 0.0000000000000000e+00  5.6827749885553187e+00 -5.2692997200221373e-03 0.0000000000000000e+00  5.6827748014921031e+00 -5.2692986837487099e-03 0.0000000000000000e+00  5.6827745677420687e+00 -5.2692798743572541e-03 0.0000000000000000e+00  5.6827743755268783e+00 -5.2692985160285172e-03 0.0000000000000000e+00  5.6827741328485661e+00 -5.2692786504803732e-03 0.0000000000000000e+00  5.6827739320762269e+00 -5.2692955248401429e-03 0.0000000000000000e+00  5.6827736950757100e+00 -5.2692815300278036e-03 0.0000000000000000e+00  5.6827734864617820e+00 -5.2692926337499207e-03 0.0000000000000000e+00  5.6827732560229780e+00 -5.2692843578010587e-03 0.0000000000000000e+00  5.6827730419087947e+00 -5.2692906845998883e-03 0.0000000000000000e+00  5.6827728160117204e+00 -5.2692863203772661e-03 0.0000000000000000e+00  5.6827725985940667e+00 -5.2692896210559548e-03 0.0000000000000000e+00  5.6827723753239239e+00 -5.2692875320099839e-03 0.0000000000000000e+00  5.6827721561283013e+00 -5.2692891633934194e-03 0.0000000000000000e+00  5.6827719342150624e+00 -5.2692882623502652e-03 0.0000000000000000e+00  5.6827717141368632e+00 -5.2692890552517944e-03 0.0000000000000000e+00  5.6827714928733402e+00 -5.2692887294851758e-03 0.0000000000000000e+00  5.6827712723879857e+00 -5.2692891295751882e-03 0.0000000000000000e+00  5.6827710514120602e+00 -5.2692890633706082e-03 0.0000000000000000e+00  5.6827708307470992e+00 -5.2692892913492701e-03 0.0000000000000000e+00  5.6827706098884487e+00 -5.2692893331720263e-03 0.0000000000000000e+00  5.6827703891460031e+00 -5.2692894890659153e-03 0.0000000000000000e+00  5.6827701683197862e+00 -5.2692895733866913e-03 0.0000000000000000e+00  5.6827699475286240e+00 -5.2692896989326868e-03 0.0000000000000000e+00  5.6827697266979511e+00 -5.2692897964091746e-03 0.0000000000000000e+00  5.6827695058617982e+00 -5.2692899071397270e-03 0.0000000000000000e+00  5.6827692849911511e+00 -5.2692900049312076e-03 0.0000000000000000e+00  5.6827690640884958e+00 -5.2692901057548027e-03 0.0000000000000000e+00  5.6827688431485415e+00 -5.2692902051469570e-03 0.0000000000000000e+00  5.6827686221858524e+00 -5.2692903193890745e-03 0.0000000000000000e+00  5.6827684012514190e+00 -5.2692904637366795e-03 0.0000000000000000e+00  5.6827681804751604e+00 -5.2692907051852551e-03 0.0000000000000000e+00  5.6827679601795307e+00 -5.2692911392086669e-03 0.0000000000000000e+00  5.6827677410823778e+00 -5.2692920567741037e-03 0.0000000000000000e+00  5.6827675247729363e+00 -5.2692939158000673e-03 0.0000000000000000e+00  5.6827673146051678e+00 -5.2692979336888294e-03 0.0000000000000000e+00  5.6827671176426895e+00 -5.2693061316930832e-03 0.0000000000000000e+00  5.6827669484236951e+00 -5.2693233960989351e-03 0.0000000000000000e+00  5.6827668367052198e+00 -5.2693581927416326e-03 0.0000000000000000e+00  5.6827668423586264e+00 -5.2694294559793896e-03 0.0000000000000000e+00  5.6827670850124008e+00 -5.2695711194518770e-03 0.0000000000000000e+00  5.6827678000201285e+00 -5.2698546709558465e-03 0.0000000000000000e+00  5.6827694469139178e+00 -5.2704107600922995e-03 0.0000000000000000e+00  5.6827729117762704e+00 -5.2715032029938434e-03 0.0000000000000000e+00  5.6827798892829486e+00 -5.2736227655737263e-03 0.0000000000000000e+00  5.6827936116930893e+00 -5.2777805326177348e-03 0.0000000000000000e+00  5.6828203573903515e+00 -5.2860721746275244e-03 0.0000000000000000e+00  5.6828728092746994e+00 -5.3032834196250879e-03 0.0000000000000000e+00  5.6829780105042067e+00 -5.3406156231878797e-03 0.0000000000000000e+00  5.6831980964325339e+00 -5.4240526502218464e-03 0.0000000000000000e+00  5.6836803117745944e+00 -5.6167834039262130e-03 0.0000000000000000e+00  5.6848262871088640e+00 -5.8902661704801681e-03 0.0000000000000000e+00  5.6875023458354255e+00 -6.4202919081296911e-03 0.0000000000000000e+00  5.6960939838560494e+00 8.7900638676927396e-03 0.0000000000000000e+00  5.7735412169865850e+00 0.0000000000000000e+00 0.0000000000000000e+00  1.4905162623756555e+01 0.0000000000000000e+00 0.0000000000000000e+00  1.4945238841451671e+01 2.8494755489072043e-02 0.0000000000000000e+00  1.4913216284699738e+01 6.7619711295643552e-03 0.0000000000000000e+00  1.4913339332337996e+01 1.3750938482273862e-02 0.0000000000000000e+00  1.4906991717579210e+01 1.1331600764817118e-02 0.0000000000000000e+00  1.4908544926116631e+01 7.3718213030738123e-03 0.0000000000000000e+00  1.4906658261624317e+01 4.2863797221838022e-03 0.0000000000000000e+00  1.4907419879866366e+01 1.0469661571234200e-03 0.0000000000000000e+00  1.4907083776468459e+01 -1.6575114287153733e-04 0.0000000000000000e+00  1.4907961817308401e+01 -1.7670303109109913e-03 0.0000000000000000e+00  1.4909250789110686e+01 -2.1661955206125133e-03 0.0000000000000000e+00  1.4911759562077064e+01 -1.7789931777284667e-03 0.0000000000000000e+00  1.4913823881064291e+01 -7.0327079325942156e-04 0.0000000000000000e+00  1.4915430284753938e+01 1.2245616689424014e-04 0.0000000000000000e+00  1.4916277963243843e+01 7.3292800389522311e-04 0.0000000000000000e+00  1.4916774920022318e+01 1.0115513175856421e-03 0.0000000000000000e+00  1.4916965798817596e+01 1.1642950541153262e-03 0.0000000000000000e+00  1.4917071067564658e+01 1.2084967587004118e-03 0.0000000000000000e+00  1.4917097574795919e+01 1.2353248990665741e-03 0.0000000000000000e+00  1.4917118150409541e+01 1.2385020535416332e-03 0.0000000000000000e+00  1.4917119961447680e+01 1.2442248016260714e-03 0.0000000000000000e+00  1.4917125021548237e+01 1.2438995455729856e-03 0.0000000000000000e+00  1.4917124456404897e+01 1.2456374234957066e-03 0.0000000000000000e+00  1.4917125882625083e+01 1.2453679737840897e-03 0.0000000000000000e+00  1.4917125366498249e+01 1.2459085153627212e-03 0.0000000000000000e+00  1.4917125663537696e+01 1.2458081085070705e-03 0.0000000000000000e+00  1.4917125333777612e+01 1.2459452775922671e-03 0.0000000000000000e+00  1.4917125259202781e+01 1.2459323230012383e-03 0.0000000000000000e+00  1.4917125032419071e+01 1.2459457766817283e-03 0.0000000000000000e+00  1.4917124845871580e+01 1.2459619027142244e-03 0.0000000000000000e+00  1.4917124656930774e+01 1.2459462308746965e-03 0.0000000000000000e+00  1.4917124445097437e+01 1.2459651633124366e-03 0.0000000000000000e+00  1.4917124263766334e+01 1.2459486988609509e-03 0.0000000000000000e+00  1.4917124052186759e+01 1.2459625836628424e-03 0.0000000000000000e+00  1.4917123868418022e+01 1.2459513707411892e-03 0.0000000000000000e+00  1.4917123662268715e+01 1.2459597895816913e-03 0.0000000000000000e+00  1.4917123474393852e+01 1.2459533640103030e-03 0.0000000000000000e+00  1.4917123273017102e+01 1.2459579068783695e-03 0.0000000000000000e+00  1.4917123081945064e+01 1.2459546021154225e-03 0.0000000000000000e+00  1.4917122883656003e+01 1.2459568538027426e-03 0.0000000000000000e+00  1.4917122690617669e+01 1.2459552934374102e-03 0.0000000000000000e+00  1.4917122494046728e+01 1.2459563394310155e-03 0.0000000000000000e+00  1.4917122299948481e+01 1.2459556543212725e-03 0.0000000000000000e+00  1.4917122104244093e+01 1.2459561181774842e-03 0.0000000000000000e+00  1.4917121909631909e+01 1.2459558431539761e-03 0.0000000000000000e+00  1.4917121714331712e+01 1.2459560469631735e-03 0.0000000000000000e+00  1.4917121519483731e+01 1.2459559541019944e-03 0.0000000000000000e+00  1.4917121324352749e+01 1.2459560525428740e-03 0.0000000000000000e+00  1.4917121129397275e+01 1.2459560371078896e-03 0.0000000000000000e+00  1.4917120934323012e+01 1.2459560974830968e-03 0.0000000000000000e+00  1.4917120739305135e+01 1.2459561209451229e-03 0.0000000000000000e+00  1.4917120544229125e+01 1.2459561755311503e-03 0.0000000000000000e+00  1.4917120349152103e+01 1.2459562296286456e-03 0.0000000000000000e+00  1.4917120154019035e+01 1.2459562917673968e-03 0.0000000000000000e+00  1.4917119958840916e+01 1.2459563717351521e-03 0.0000000000000000e+00  1.4917119763567968e+01 1.2459564159319513e-03 0.0000000000000000e+00  1.4917119568194321e+01 1.2459564551241288e-03 0.0000000000000000e+00  1.4917119372645603e+01 1.2459562876270605e-03 0.0000000000000000e+00  1.4917119176913014e+01 1.2459558805641218e-03 0.0000000000000000e+00  1.4917118980890054e+01 1.2459545157948008e-03 0.0000000000000000e+00  1.4917118784643133e+01 1.2459516562008648e-03 0.0000000000000000e+00  1.4917118588120369e+01 1.2459446723955441e-03 0.0000000000000000e+00  1.4917118391837210e+01 1.2459304656037360e-03 0.0000000000000000e+00  1.4917118196360699e+01 1.2458992429475459e-03 0.0000000000000000e+00  1.4917118004153473e+01 1.2458367702494874e-03 0.0000000000000000e+00  1.4917117818902641e+01 1.2457064001924871e-03 0.0000000000000000e+00  1.4917117650974008e+01 1.2454478109708940e-03 0.0000000000000000e+00  1.4917117518718065e+01 1.2449228665241650e-03 0.0000000000000000e+00  1.4917117466767543e+01 1.2438892552377738e-03 0.0000000000000000e+00  1.4917117575850286e+01 1.2418485064759656e-03 0.0000000000000000e+00  1.4917118001652137e+01 1.2379320193976907e-03 0.0000000000000000e+00  1.4917118995439987e+01 1.2303521333075485e-03 0.0000000000000000e+00  1.4917121068378528e+01 1.2154527246515635e-03 0.0000000000000000e+00  1.4917125226732082e+01 1.1849246572635851e-03 0.0000000000000000e+00  1.4917133675527248e+01 1.1198891145244938e-03 0.0000000000000000e+00  1.4917151784561035e+01 9.7208607285030211e-04 0.0000000000000000e+00  1.4917199787826176e+01 6.2055157934848358e-04 0.0000000000000000e+00  1.4917329122777168e+01 -2.6224880380446442e-04 0.0000000000000000e+00  1.4917981908029210e+01 -2.1827331142749646e-03 0.0000000000000000e+00  1.4919091161406632e+01 -8.2381874816704649e-03 0.0000000000000000e+00  1.4916388937611586e+01 0.0000000000000000e+00 0.0000000000000000e+00  1.7426029847360187e+01 0.0000000000000000e+00 0.0000000000000000e+00  1.7408377929763674e+01 -7.6997614922911213e-03 0.0000000000000000e+00  1.7421694069588529e+01 4.9422243940950390e-03 0.0000000000000000e+00  1.7432477046556748e+01 2.8874858772354305e-03 0.0000000000000000e+00  1.7450433081077328e+01 5.3984454072011339e-03 0.0000000000000000e+00  1.7457281770963821e+01 4.0761677578583354e-03 0.0000000000000000e+00  1.7464257002153371e+01 2.3246321482235151e-03 0.0000000000000000e+00  1.7464473463800513e+01 9.1844194768968908e-04 0.0000000000000000e+00  1.7464624652786270e+01 -1.7503959745099429e-04 0.0000000000000000e+00  1.7461934772881428e+01 -1.0485996744919479e-03 0.0000000000000000e+00  1.7459243371498754e+01 -2.1884371653296537e-03 0.0000000000000000e+00  1.7456096013309939e+01 -2.0305765826786324e-03 0.0000000000000000e+00  1.7454191998308890e+01 -1.2447520878651488e-03 0.0000000000000000e+00  1.7452869647636369e+01 -2.9220397061343733e-04 0.0000000000000000e+00  1.7452331604493970e+01 3.3057078460080092e-04 0.0000000000000000e+00  1.7452012671516485e+01 7.1655359642155579e-04 0.0000000000000000e+00  1.7451938035739403e+01 8.8584874290782635e-04 0.0000000000000000e+00  1.7451876792735288e+01 9.7136002800129030e-04 0.0000000000000000e+00  1.7451875410768764e+01 9.9816746339279213e-04 0.0000000000000000e+00  1.7451859737832137e+01 1.0132506339983790e-03 0.0000000000000000e+00  1.7451862194788124e+01 1.0162056929161538e-03 0.0000000000000000e+00  1.7451856500617868e+01 1.0194176703986486e-03 0.0000000000000000e+00  1.7451857779323205e+01 1.0196477283026925e-03 0.0000000000000000e+00  1.7451855506847966e+01 1.0205350329756020e-03 0.0000000000000000e+00  1.7451855990594428e+01 1.0205113904491366e-03 0.0000000000000000e+00  1.7451855044039085e+01 1.0207569554524477e-03 0.0000000000000000e+00  1.7451855109265718e+01 1.0207403972904020e-03 0.0000000000000000e+00  1.7451854673468056e+01 1.0207915657873994e-03 0.0000000000000000e+00  1.7451854552068912e+01 1.0207951531299986e-03 0.0000000000000000e+00  1.7451854302186387e+01 1.0207932410864118e-03 0.0000000000000000e+00  1.7451854114035012e+01 1.0208037963243296e-03 0.0000000000000000e+00  1.7451853923420792e+01 1.0207923604357754e-03 0.0000000000000000e+00  1.7451853719416665e+01 1.0208019936806861e-03 0.0000000000000000e+00  1.7451853542368575e+01 1.0207925013923076e-03 0.0000000000000000e+00  1.7451853339732665e+01 1.0207990479133068e-03 0.0000000000000000e+00  1.7451853162159491e+01 1.0207931115598179e-03 0.0000000000000000e+00  1.7451852964553073e+01 1.0207969117165244e-03 0.0000000000000000e+00  1.7451852783609194e+01 1.0207936719088288e-03 0.0000000000000000e+00  1.7451852590329459e+01 1.0207956541988159e-03 0.0000000000000000e+00  1.7451852406509914e+01 1.0207940400900894e-03 0.000000000